FOO
135168
    1MOL0     O    1   4.301   1.096   8.988  0.3867 -0.2269  0.4116
    1MOL0     C    2   4.203   1.045   8.935  0.2678 -0.5939  0.3269
    1MOL0     O    3   4.078   1.116   8.925 -0.4531  0.1376 -0.5751
    1MOL0     C    4   4.074   1.235   8.988 -0.1748 -0.2278  1.0602
    1MOL0     C    5   4.132   1.352   8.937  0.2628  0.3998  1.0385
    1MOL0     C    6   4.114   1.481   8.996 -0.1638  0.4370  0.4142
    1MOL0     C    7   4.031   1.491   9.114 -0.3122 -0.6268 -0.7069
    1MOL0     O    8   4.019   1.619   9.181  0.0135  0.7643 -0.4655
    1MOL0     C    9   3.912   1.641   9.278 -0.1064 -0.0118  1.0890
    1MOL0     C   10   3.885   1.793   9.287 -0.5428 -0.0993  0.7268
    1MOL0     C   11   3.825   1.827   9.427  0.8173 -0.2088 -0.1011
    1MOL0     C   12   3.810   1.986   9.447 -0.7454  1.1956 -0.0001
    1MOL0     C   13   3.942   2.043   9.490  1.2297  0.1524 -0.8834
    1MOL0     C   14   3.924   2.177   9.562 -0.6595 -0.4993  0.2050
    1MOL0     C   15   4.056   2.243   9.591  0.9557 -0.1166  0.9584
    1MOL0     C   16   4.143   2.168   9.682 -0.7070  0.2694 -0.4419
    1MOL0     N   17   4.276   2.235   9.707 -0.0000 -0.3179  0.2276
    1MOL0     C   18   4.398   2.186   9.675 -0.6567 -1.2333  1.5300
    1MOL0     C   19   4.485   2.288   9.707 -0.4587 -0.4433  1.0087
    1MOL0     C   20   4.634   2.292   9.682 -0.1798  0.3165 -0.5770
    1MOL0     C   21   4.689   2.156   9.721 -0.9603 -1.0262  0.3549
    1MOL0     C   22   4.845   2.167   9.726 -0.2904 -0.2567  1.1314
    1MOL0     C   23   4.914   2.198   9.583  0.5078 -1.0003 -0.1368
    1MOL0     O   24   4.940   2.076   9.502 -0.1078 -0.2903  0.4227
    1MOL0     C   25   5.018   2.079   9.386 -1.3024 -0.5720  0.5025
    1MOL0     C   26   5.066   2.192   9.323  0.0723  0.4943  0.6413
    1MOL0     C   27   5.162   2.183   9.218  0.0166 -0.0278 -0.1838
    1MOL0     C   28   5.202   2.061   9.173 -0.0755 -0.6963 -0.0637
    1MOL0     C   29   5.305   2.046   9.068  0.2568 -0.0101  0.1192
    1MOL0     O   30   5.336   1.923   9.040 -0.3820  0.0129 -0.7240
    1MOL0     C   31   5.407   1.899   8.925 -0.3144 -0.5323  0.0776
    1MOL0     C   32   5.534   1.955   8.914 -0.2298 -0.0708  0.0945
    1MOL0     C   33   5.604   1.935   8.796 -0.1189 -0.4562  0.0705
    1MOL0     C   34   5.562   1.856   8.694  0.0724  0.4152  0.7588
    1MOL0     O   35   5.648   1.840   8.586  0.2943 -0.7106 -0.6488
    1MOL0     C   36   5.623   1.735   8.493  0.0598 -0.4299  0.4124
    1MOL0     C   37   5.713   1.751   8.377 -0.4390 -0.5373  0.1328
    1MOL0     C   38   5.865   1.765   8.412  0.0290 -0.7762  0.4557
    1MOL0     C   39   5.929   1.847   8.293 -0.2969 -0.0600 -1.2633
    1MOL0     C   40   6.082   1.834   8.290 -0.0669  0.9487 -1.3673
    1MOL0     C   41   6.137   1.694   8.277  0.0953 -0.3203 -0.3639
    1MOL0     C   42   6.286   1.689   8.250 -0.0764  0.5216  0.2504
    1MOL0     C   43   6.341   1.533   8.258 -0.7095 -1.2008  0.5742
    1MOL0    Cl   44   6.507   1.523   8.164  0.1210 -0.3079 -0.0752
    1MOL0     C   45   5.427   1.811   8.700 -0.3656  0.0291  0.5692
    1MOL0     C   46   5.353   1.835   8.812 -0.2813 -0.5816 -0.1055
    1MOL0     O   47   5.341   2.146   9.004 -0.8645 -0.2869  0.5108
    1MOL0     C   48   5.142   1.946   9.232  0.3783 -0.8453  0.1529
    1MOL0     C   49   5.046   1.951   9.337  0.0153  0.2839  0.0615
    1MOL0     N   50   4.420   2.392   9.753  0.0861 -0.4939 -0.8873
    1MOL0     N   51   4.291   2.359   9.755  0.5233  0.2387 -0.0334
    1MOL0     C   52   3.977   1.376   9.157  0.0054  0.5642 -0.1920
    1MOL0     C   53   4.002   1.254   9.096  0.1309  0.2084 -0.3012
    1MOL0     C   54   4.230   0.909   8.884  0.3575 -1.1235  0.3909
    1MOL0     C   55   4.137   0.849   8.813 -0.1733  0.9463  0.6827
    1MOL0     C   56   4.152   0.712   8.778 -0.1334 -0.1080  0.0316
    1MOL0     C   57   4.268   0.643   8.820 -0.9433 -0.0006 -0.4202
    1MOL0     O   58   4.298   0.509   8.800 -0.2177 -0.5355  0.0329
    1MOL0     C   59   4.217   0.448   8.698  0.0400 -1.3566  0.0897
    1MOL0     C   60   4.255   0.299   8.686 -0.1727 -0.4876  0.1006
    1MOL0     C   61   4.208   0.220   8.820 -0.8832 -0.2245  0.8111
    1MOL0     C   62   4.215   0.074   8.812  0.1798 -0.0483  0.8346
    1MOL0     C   63   4.123   0.026   8.704 -0.4829 -0.9654  0.1233
    1MOL0     C   64   4.051   0.000   8.616  0.3569  0.0969  0.2126
    1MOL0     C   65   4.362   0.710   8.904 -0.0550  0.2251  0.4444
    1MOL0     C   66   4.335   0.837   8.940  0.5395 -0.5023  0.2960
    1MOL0     H   67   4.195   1.330   8.852 -1.3781 -5.6456  0.9114
    1MOL0     H   68   4.166   1.563   8.947  0.7178 -1.8620 -2.8981
    1MOL0     H   69   3.938   1.607   9.378  0.1400  0.6794  1.2561
    1MOL0     H   70   3.816   1.593   9.252 -0.7420  2.4314 -1.6653
    1MOL0     H   71   3.818   1.825   9.207  0.5787 -0.0082 -0.1927
    1MOL0     H   72   3.975   1.855   9.276 -0.9509  1.2342  3.8472
    1MOL0     H   73   3.884   1.777   9.505  0.1874 -1.2257 -0.2573
    1MOL0     H   74   3.728   1.776   9.434  0.2508  1.0324  1.7969
    1MOL0     H   75   3.783   2.031   9.351 -0.6582  0.6715 -0.2698
    1MOL0     H   76   3.731   2.007   9.520  0.0305  0.1051  1.2017
    1MOL0     H   77   4.022   2.044   9.415  3.5920  0.9978  1.4819
    1MOL0     H   78   3.974   1.971   9.567 -1.1459 -2.2708 -2.0034
    1MOL0     H   79   3.883   2.156   9.661 -0.4941  0.3672  0.4705
    1MOL0     H   80   3.849   2.246   9.521 -0.9426 -0.4211  0.8359
    1MOL0     H   81   4.116   2.252   9.500 -1.3410  0.7640 -0.5645
    1MOL0     H   82   4.034   2.345   9.625  0.8537  0.5284 -0.9091
    1MOL0     H   83   4.180   2.075   9.636  2.1113  0.2025  1.6980
    1MOL0     H   84   4.113   2.138   9.783  3.4486  0.3027  1.0006
    1MOL0     H   85   4.415   2.091   9.626 -4.0695 -1.1530 -0.0532
    1MOL0     H   86   4.688   2.367   9.741  0.8419 -2.4992  2.4292
    1MOL0     H   87   4.643   2.299   9.574  1.3136 -0.5598 -0.5445
    1MOL0     H   88   4.647   2.086   9.647 -2.8612  1.5919 -1.2066
    1MOL0     H   89   4.655   2.145   9.824 -0.8734  0.9994  0.6353
    1MOL0     H   90   4.857   2.252   9.793 -1.7544 -0.0209  1.1155
    1MOL0     H   91   4.883   2.068   9.754 -0.0543 -2.0264 -4.2350
    1MOL0     H   92   5.007   2.249   9.609  0.5309 -1.5344  0.8812
    1MOL0     H   93   4.846   2.259   9.523  2.5243 -0.4290 -1.9990
    1MOL0     H   94   5.037   2.292   9.353  0.3216  0.4603  1.0003
    1MOL0     H   95   5.201   2.278   9.183  0.3452 -1.6124 -4.8752
    1MOL0     H   96   5.590   2.007   8.992  3.1701 -0.5887 -1.7820
    1MOL0     H   97   5.699   1.986   8.805 -1.1267  2.4818 -3.3809
    1MOL0     H   98   5.522   1.746   8.453 -0.1450 -0.6310  0.8638
    1MOL0     H   99   5.623   1.642   8.551 -2.3448  1.4432  3.8272
    1MOL0     H  100   5.677   1.837   8.321 -1.2293 -0.2935  0.9710
    1MOL0     H  101   5.710   1.662   8.314  0.7979 -2.2254  2.2887
    1MOL0     H  102   5.906   1.664   8.423  2.1636  0.1782  1.9751
    1MOL0     H  103   5.885   1.819   8.505 -4.9664 -0.2822  1.5461
    1MOL0     H  104   5.899   1.822   8.190  0.3863  0.6555 -1.6435
    1MOL0     H  105   5.896   1.947   8.319  3.1530  0.7877  0.4640
    1MOL0     H  106   6.116   1.865   8.389  0.0347 -0.3327 -0.9805
    1MOL0     H  107   6.128   1.903   8.219  3.8697  1.1105  1.0489
    1MOL0     H  108   6.097   1.654   8.184  0.4950  3.7014 -2.4802
    1MOL0     H  109   6.112   1.624   8.358  0.3528 -0.0148 -0.0158
    1MOL0     H  110   6.293   1.722   8.146 -2.3254 -0.3728 -0.2411
    1MOL0     H  111   6.343   1.755   8.316  0.8432 -0.8039  0.8220
    1MOL0     H  112   6.260   1.470   8.219 -1.2946 -0.9007  1.2971
    1MOL0     H  113   6.369   1.505   8.360 -3.4640  0.9200  2.0164
    1MOL0     H  114   5.374   1.754   8.625 -2.4076 -0.3715  2.2163
    1MOL0     H  115   5.252   1.799   8.830 -0.6709 -1.0065 -2.8090
    1MOL0     H  116   5.169   1.853   9.183  3.4117 -0.3241  0.6490
    1MOL0     H  117   4.990   1.859   9.348  4.6170 -3.7528 -4.5930
    1MOL0     H  118   3.907   1.369   9.239  0.9606 -0.4169  0.5834
    1MOL0     H  119   3.980   1.160   9.145 -0.4063 -0.1865 -1.2726
    1MOL0     H  120   4.038   0.894   8.807 -0.5647  0.0248  0.0306
    1MOL0     H  121   4.067   0.649   8.753  1.4228 -2.2865 -0.0333
    1MOL0     H  122   4.243   0.509   8.611  0.0096 -1.8242 -0.2517
    1MOL0     H  123   4.109   0.459   8.708  0.2552 -0.4734  1.8649
    1MOL0     H  124   4.212   0.257   8.595 -3.8347  1.7982  0.6036
    1MOL0     H  125   4.363   0.297   8.669 -0.3894  1.8578 -2.1852
    1MOL0     H  126   4.110   0.260   8.847 -1.2137 -0.6789  0.3053
    1MOL0     H  127   4.284   0.247   8.895 -1.1386  0.6895  0.7549
    1MOL0     H  128   4.315   0.037   8.789 -0.4210 -1.4883  0.4142
    1MOL0     H  129   4.182   0.034   8.909  1.4238 -0.5027  1.0977
    1MOL0     H  130   3.983  -0.026   8.537 -1.3530 -0.0946  1.6787
    1MOL0     H  131   4.457   0.666   8.934  0.4855  1.6562  0.8981
    1MOL0     H  132   4.394   0.882   9.019 -0.4668 -3.3189  2.8242
    2MOL0     O  133   6.362  10.116   0.768 -0.3177  0.5799 -0.2093
    2MOL0     C  134   6.345  10.086   0.651 -0.3896 -0.7328  0.0937
    2MOL0     O  135   6.438  10.095   0.546 -0.4635  0.3941  1.2875
    2MOL0     C  136   6.561  10.130   0.591 -0.3533 -0.6092  0.7224
    2MOL0     C  137   6.663  10.034   0.585  0.2448  0.6798 -0.8147
    2MOL0     C  138   6.795  10.061   0.610  0.0935 -0.5579 -0.1524
    2MOL0     C  139   6.833  10.197   0.632  0.5613  0.1593  0.4667
    2MOL0     O  140   6.955  10.241   0.619 -0.3341  0.4430 -0.0206
    2MOL0     C  141   7.057  10.164   0.556 -0.1958  0.6682  0.2239
    2MOL0     C  142   7.176  10.264   0.541 -0.5780 -0.6438 -0.2255
    2MOL0     C  143   7.169  10.376   0.433 -0.3258 -0.1528 -0.1233
    2MOL0     C  144   7.300  10.466   0.418 -0.1069  0.6879 -0.3701
    2MOL0     C  145   7.415  10.391   0.363  0.4190  0.0302  0.5794
    2MOL0     C  146   7.532  10.489   0.349 -0.1729 -0.3635  0.0681
    2MOL0     C  147   7.633  10.412   0.259 -0.2326  0.4975  0.4093
    2MOL0     C  148   7.735  10.321   0.316 -0.5063  1.2395 -0.0592
    2MOL0     N  149   7.845  10.283   0.219  0.8471  0.7367 -0.2715
    2MOL0     C  150   7.848  10.198   0.108  0.5492 -0.9403  1.2632
    2MOL0     C  151   7.953  10.235   0.030 -0.3429 -0.2795  1.0790
    2MOL0     C  152   7.990  10.168  -0.102 -0.1822 -0.3320 -0.8548
    2MOL0     C  153   8.060  10.024  -0.082 -0.4159 -0.5903 -1.0944
    2MOL0     C  154   8.119   9.970  -0.209 -1.0599 -0.2684 -1.0270
    2MOL0     C  155   8.236  10.048  -0.273  0.3936 -1.0637  0.0680
    2MOL0     O  156   8.339  10.078  -0.177 -0.2523 -1.1154 -0.0593
    2MOL0     C  157   8.373  10.213  -0.154  0.2368  0.3219  0.8105
    2MOL0     C  158   8.340  10.334  -0.228 -0.0496 -0.2780 -0.2669
    2MOL0     C  159   8.386  10.461  -0.195  1.3727 -0.2537 -1.1344
    2MOL0     C  160   8.458  10.474  -0.078 -0.3156  0.1250 -0.3448
    2MOL0     C  161   8.504  10.609  -0.041  0.3011 -0.8259  0.1973
    2MOL0     O  162   8.509  10.714  -0.138  0.4949  0.4457 -0.2205
    2MOL0     C  163   8.556  10.836  -0.105 -0.6415 -0.0900 -0.4752
    2MOL0     C  164   8.683  10.871  -0.035 -0.1996  0.3975  0.5847
    2MOL0     C  165   8.724  11.002   0.001  0.9253 -0.1039  0.8973
    2MOL0     C  166   8.635  11.108  -0.031 -0.4929  1.0815 -0.7050
    2MOL0     O  167   8.642  11.241   0.015  0.0303  0.3849 -0.5893
    2MOL0     C  168   8.747  11.281   0.100 -0.1159  0.6485  0.6961
    2MOL0     C  169   8.784  11.435   0.097 -0.3315 -0.1208  0.6772
    2MOL0     C  170   8.650  11.517   0.140 -1.3465  0.4551 -0.6475
    2MOL0     C  171   8.668  11.663   0.118 -0.1862  0.2954 -0.3078
    2MOL0     C  172   8.573  11.751   0.198 -0.0080 -0.1951 -0.6898
    2MOL0     C  173   8.609  11.904   0.173  0.2049  0.2322 -0.2467
    2MOL0     C  174   8.500  11.994   0.240  0.3867 -0.0946 -0.8414
    2MOL0     C  175   8.522  12.142   0.206  0.4976  0.2008 -1.3017
    2MOL0    Cl  176   8.413  12.220   0.318  0.7532  0.1465 -0.0171
    2MOL0     C  177   8.529  11.075  -0.108 -0.2190  0.5157  0.4905
    2MOL0     C  178   8.488  10.949  -0.153 -0.2846 -0.0253 -0.0486
    2MOL0     O  179   8.517  10.616   0.082 -0.4062 -0.5872  0.1418
    2MOL0     C  180   8.489  10.359  -0.008 -0.1150 -0.3989 -0.3345
    2MOL0     C  181   8.448  10.234  -0.049 -0.2872  0.4330  0.4057
    2MOL0     N  182   8.011  10.346   0.090  0.3774 -0.6567 -1.0060
    2MOL0     N  183   7.952  10.369   0.205  0.1729 -0.5352  0.0874
    2MOL0     C  184   6.729  10.297   0.650 -0.2908  0.1228 -0.3866
    2MOL0     C  185   6.589  10.263   0.634 -0.3171  0.7982 -0.2988
    2MOL0     C  186   6.211  10.072   0.617 -0.1493 -0.0211  1.3251
    2MOL0     C  187   6.176  10.051   0.483  0.5002  0.3257  0.5813
    2MOL0     C  188   6.046  10.052   0.445  0.4450 -0.2241 -1.7759
    2MOL0     C  189   5.941  10.058   0.537 -0.3991  0.1991  0.1974
    2MOL0     O  190   5.808  10.057   0.502  0.5832  0.7790 -0.2235
    2MOL0     C  191   5.774  10.128   0.392  0.8698 -0.0027 -0.0093
    2MOL0     C  192   5.698  10.054   0.283  0.7326 -0.8624  0.0090
    2MOL0     C  193   5.572   9.994   0.351  0.3863  0.2168 -0.2033
    2MOL0     C  194   5.445  10.077   0.397 -0.0328 -0.3211  0.6081
    2MOL0     C  195   5.394  10.178   0.296 -0.5835  0.0393 -0.5468
    2MOL0     C  196   5.351  10.264   0.218  0.0391 -0.4517 -1.1740
    2MOL0     C  197   5.973  10.065   0.678 -0.5345  0.6026  0.1482
    2MOL0     C  198   6.110  10.080   0.715  0.3495 -0.3525 -0.0988
    2MOL0     H  199   6.647   9.933   0.548 -5.3172  1.8373 -2.4500
    2MOL0     H  200   6.862   9.975   0.601 -2.1679 -2.2584 -2.1090
    2MOL0     H  201   7.019  10.130   0.460  1.3059  0.4190 -0.3122
    2MOL0     H  202   7.091  10.080   0.617  0.7924  0.9452  0.0761
    2MOL0     H  203   7.258  10.198   0.512 -0.7454 -0.8886 -0.1387
    2MOL0     H  204   7.201  10.303   0.640  3.0278 -2.1410 -0.3935
    2MOL0     H  205   7.077  10.433   0.449 -0.3765  0.0220 -0.9508
    2MOL0     H  206   7.153  10.328   0.335  1.0275  2.0805 -1.5366
    2MOL0     H  207   7.278  10.539   0.340 -0.3071 -0.8216 -1.7837
    2MOL0     H  208   7.323  10.521   0.509 -1.2728 -0.9824  1.0106
    2MOL0     H  209   7.404  10.362   0.258  2.2184 -1.5427  0.7640
    2MOL0     H  210   7.428  10.294   0.411 -2.6114 -0.9948 -0.4658
    2MOL0     H  211   7.571  10.521   0.446  2.3981 -2.4597 -0.1566
    2MOL0     H  212   7.502  10.569   0.281  1.3645 -0.8153 -1.2177
    2MOL0     H  213   7.583  10.371   0.170 -0.0791 -3.5807  2.0072
    2MOL0     H  214   7.691  10.490   0.209 -2.7647  1.8629 -0.6096
    2MOL0     H  215   7.692  10.230   0.359  0.5824  0.6997 -0.0715
    2MOL0     H  216   7.774  10.373   0.404  0.2810  1.4787 -0.5356
    2MOL0     H  217   7.781  10.117   0.079 -1.5862  0.5538  1.7826
    2MOL0     H  218   8.065  10.221  -0.162  2.2997 -0.2084  2.0851
    2MOL0     H  219   7.894  10.153  -0.152 -1.3672 -2.2168  1.7438
    2MOL0     H  220   7.978   9.963  -0.042 -0.9679  0.2087 -0.9753
    2MOL0     H  221   8.139  10.028  -0.006 -0.2338  0.5402 -1.3186
    2MOL0     H  222   8.156   9.872  -0.180  2.2343  0.9909 -0.4587
    2MOL0     H  223   8.050   9.957  -0.292 -0.8577 -0.3145 -1.1885
    2MOL0     H  224   8.192  10.135  -0.322 -0.3482 -1.5799 -0.2038
    2MOL0     H  225   8.277   9.975  -0.344  1.7696 -1.4264  1.1932
    2MOL0     H  226   8.267  10.324  -0.308 -3.8910  3.7995  2.2468
    2MOL0     H  227   8.364  10.547  -0.257 -1.0234 -0.1396 -0.2152
    2MOL0     H  228   8.756  10.792  -0.017  0.2105  0.7027  0.2996
    2MOL0     H  229   8.809  11.017   0.068 -0.7038 -1.1593  3.3359
    2MOL0     H  230   8.838  11.233   0.062 -0.9717 -1.2231  0.9013
    2MOL0     H  231   8.710  11.248   0.198  0.4266  0.4835  0.8488
    2MOL0     H  232   8.817  11.471  -0.001  0.6675 -0.7982  0.7565
    2MOL0     H  233   8.871  11.446   0.162 -0.3159 -1.9455  0.9970
    2MOL0     H  234   8.633  11.493   0.246  0.9652 -1.6865 -0.6732
    2MOL0     H  235   8.554  11.499   0.089 -1.6035  1.3462 -0.4930
    2MOL0     H  236   8.768  11.704   0.133  0.8775 -2.2929  0.2403
    2MOL0     H  237   8.649  11.681   0.012  0.4225  0.1464 -0.4486
    2MOL0     H  238   8.579  11.733   0.306  2.2941 -0.7029 -0.8427
    2MOL0     H  239   8.469  11.737   0.168  0.7167 -2.4608 -2.3540
    2MOL0     H  240   8.618  11.933   0.068  1.3434 -1.7914 -0.7756
    2MOL0     H  241   8.707  11.930   0.215  0.8888 -1.3455 -0.7638
    2MOL0     H  242   8.403  11.960   0.203 -0.5089  1.0078  0.4020
    2MOL0     H  243   8.510  11.973   0.347  1.3386 -4.2280 -1.5421
    2MOL0     H  244   8.507  12.161   0.099 -0.4159  1.0252 -1.0374
    2MOL0     H  245   8.623  12.173   0.236  1.7002 -4.0896 -0.2226
    2MOL0     H  246   8.460  11.155  -0.136 -1.6261 -1.4843 -2.2834
    2MOL0     H  247   8.394  10.954  -0.206  0.2021 -0.8275 -1.0337
    2MOL0     H  248   8.552  10.371   0.079 -1.7412 -0.9832  0.9701
    2MOL0     H  249   8.495  10.149  -0.001  1.0395  1.8241  1.6729
    2MOL0     H  250   6.771  10.392   0.682  0.1346 -0.4627  0.8914
    2MOL0     H  251   6.511  10.337   0.647  0.7528  1.8546  0.3701
    2MOL0     H  252   6.260  10.058   0.414  0.2566  0.3293  0.2804
    2MOL0     H  253   6.032  10.037   0.338  2.8939  0.2467 -2.2326
    2MOL0     H  254   5.856  10.187   0.350 -0.0094  1.1718 -0.1200
    2MOL0     H  255   5.708  10.208   0.426  1.4581  1.5017 -2.1876
    2MOL0     H  256   5.673  10.119   0.199 -2.8038 -2.0968 -0.0421
    2MOL0     H  257   5.748   9.971   0.234 -2.5571 -3.0656  0.1177
    2MOL0     H  258   5.602   9.946   0.444  0.4940 -1.2147 -0.9356
    2MOL0     H  259   5.548   9.915   0.278  0.9143  2.1943 -2.6652
    2MOL0     H  260   5.354  10.019   0.410 -1.8062  1.6976 -1.8113
    2MOL0     H  261   5.464  10.122   0.495 -0.8505 -1.7633  1.4712
    2MOL0     H  262   5.294  10.321   0.147 -1.7662 -3.2334 -2.1220
    2MOL0     H  263   5.890  10.067   0.748 -1.8617  1.9701 -1.3957
    2MOL0     H  264   6.136  10.104   0.818 -1.8040 -3.1679  1.2585
    3MOL0     O  265   4.859   2.872   4.874  0.0249 -0.9945 -0.5104
    3MOL0     C  266   4.865   2.958   4.961 -1.4132  0.4694 -0.4494
    3MOL0     O  267   4.836   3.083   4.938  0.1093  0.1716  0.4027
    3MOL0     C  268   4.828   3.127   4.806 -0.7676  0.0347 -0.5826
    3MOL0     C  269   4.939   3.159   4.721 -0.3229 -0.1192  0.7519
    3MOL0     C  270   4.911   3.199   4.590  0.0667  0.4300 -0.4107
    3MOL0     C  271   4.786   3.234   4.546 -0.0349  0.5112 -0.5665
    3MOL0     O  272   4.766   3.270   4.416 -0.1915 -0.1135 -0.2601
    3MOL0     C  273   4.853   3.370   4.360  0.4843  0.3775 -0.9367
    3MOL0     C  274   4.810   3.507   4.428  0.2341  0.0103  0.3264
    3MOL0     C  275   4.662   3.525   4.396  0.3018 -0.4065 -0.5686
    3MOL0     C  276   4.628   3.678   4.417  0.4908 -0.0696  0.0839
    3MOL0     C  277   4.476   3.683   4.437  0.6476 -0.3841 -0.3208
    3MOL0     C  278   4.402   3.823   4.437  0.8276  0.8400  0.3092
    3MOL0     C  279   4.468   3.921   4.527  0.0386 -0.0772  0.1508
    3MOL0     C  280   4.406   4.061   4.505 -0.2776 -0.4951 -0.5493
    3MOL0     N  281   4.490   4.173   4.547 -0.1033 -0.3876  0.0538
    3MOL0     C  282   4.580   4.237   4.473 -0.5154  0.5149  0.7107
    3MOL0     C  283   4.624   4.339   4.549 -0.1363  0.1330  0.7921
    3MOL0     C  284   4.741   4.430   4.518  0.8116 -0.1680  0.1715
    3MOL0     C  285   4.841   4.417   4.631 -0.4137  1.6244  0.5166
    3MOL0     C  286   4.991   4.456   4.596  0.3763  0.3578 -0.0253
    3MOL0     C  287   5.067   4.469   4.727 -0.3067 -0.0475 -0.2741
    3MOL0     O  288   5.207   4.480   4.710 -0.7795  0.5652  0.5990
    3MOL0     C  289   5.280   4.380   4.661  0.3924  0.4716 -0.3050
    3MOL0     C  290   5.248   4.245   4.661  0.6428  0.2133  0.0837
    3MOL0     C  291   5.335   4.154   4.592 -1.1678  1.2122 -1.0216
    3MOL0     C  292   5.452   4.194   4.522 -0.2617  0.4211  0.7643
    3MOL0     C  293   5.537   4.092   4.456  0.6895 -0.2818  0.6334
    3MOL0     O  294   5.487   3.968   4.477 -0.7350 -0.4907 -0.1798
    3MOL0     C  295   5.567   3.861   4.473 -0.5667  0.2066 -0.2421
    3MOL0     C  296   5.706   3.838   4.461 -0.3349  0.2205 -0.3115
    3MOL0     C  297   5.759   3.702   4.481 -0.7906 -0.3821  0.1666
    3MOL0     C  298   5.673   3.597   4.498  0.0702  0.1104 -0.2047
    3MOL0     O  299   5.715   3.469   4.515  0.1463 -1.1130  0.6344
    3MOL0     C  300   5.843   3.425   4.457  0.0765 -0.1094 -0.1731
    3MOL0     C  301   5.868   3.280   4.496 -0.3697  0.3962  1.1452
    3MOL0     C  302   6.007   3.250   4.425  0.0691  0.4052 -0.0177
    3MOL0     C  303   6.063   3.101   4.454  0.0703 -0.2870  0.0560
    3MOL0     C  304   6.163   3.046   4.357 -0.5061  0.3230  0.0237
    3MOL0     C  305   6.274   3.141   4.323  0.6314 -0.6269  0.1497
    3MOL0     C  306   6.350   3.194   4.445 -0.0664 -0.7029 -1.2624
    3MOL0     C  307   6.392   3.086   4.542 -1.0481  0.8695  0.3010
    3MOL0    Cl  308   6.510   3.148   4.650 -0.7408  0.3616 -0.2704
    3MOL0     C  309   5.543   3.622   4.492 -0.0512 -0.6497  1.2277
    3MOL0     C  310   5.490   3.749   4.471  0.3209 -0.3098  1.0168
    3MOL0     O  311   5.637   4.112   4.395  0.1671 -0.1697  0.2059
    3MOL0     C  312   5.488   4.334   4.519 -0.2030 -0.1753 -0.0698
    3MOL0     C  313   5.397   4.417   4.595 -0.8385  0.5654  0.4173
    3MOL0     N  314   4.562   4.315   4.670 -0.0472 -0.5364  0.3090
    3MOL0     N  315   4.485   4.221   4.669 -0.2452  0.1562 -0.1087
    3MOL0     C  316   4.672   3.203   4.627  0.0339 -0.3637 -0.5033
    3MOL0     C  317   4.699   3.154   4.756 -0.0028 -0.1108 -0.2098
    3MOL0     C  318   4.904   2.908   5.089 -0.1370 -0.0950 -0.9732
    3MOL0     C  319   4.895   2.777   5.129 -0.7076  0.1125 -0.7686
    3MOL0     C  320   4.929   2.742   5.259 -0.0824  0.5236  0.0078
    3MOL0     C  321   4.987   2.827   5.352  0.6465 -0.5091 -0.2790
    3MOL0     O  322   5.034   2.785   5.473  0.5743  0.1625 -0.2417
    3MOL0     C  323   5.121   2.670   5.484 -0.2291 -0.1379  0.0785
    3MOL0     C  324   5.047   2.574   5.584  0.6112 -1.1094 -0.5445
    3MOL0     C  325   5.001   2.637   5.714 -1.2776 -0.8902 -0.7721
    3MOL0     C  326   5.120   2.672   5.814 -0.1952  0.0164  1.6154
    3MOL0     C  327   5.224   2.570   5.839 -0.3571 -0.1693  0.1233
    3MOL0     C  328   5.319   2.499   5.853  0.0140  0.1555 -0.4172
    3MOL0     C  329   4.997   2.964   5.313 -0.0901 -0.1358  0.9584
    3MOL0     C  330   4.956   2.998   5.179 -0.5510  0.1798 -0.6310
    3MOL0     H  331   5.035   3.121   4.755  0.7777 -0.6028 -2.5717
    3MOL0     H  332   4.990   3.222   4.519  0.9558  2.1625  1.0505
    3MOL0     H  333   4.834   3.374   4.252 -2.8556  2.0155 -0.4341
    3MOL0     H  334   4.959   3.350   4.377  0.5974  1.9659  0.4752
    3MOL0     H  335   4.868   3.590   4.387  0.7608 -0.2445  0.5490
    3MOL0     H  336   4.829   3.514   4.535 -1.3805 -1.1261  0.7204
    3MOL0     H  337   4.602   3.465   4.464  1.2034  1.2232  1.8283
    3MOL0     H  338   4.641   3.503   4.291 -1.7373 -0.8205 -0.1081
    3MOL0     H  339   4.676   3.708   4.510  1.6774  1.8332 -1.0713
    3MOL0     H  340   4.670   3.748   4.344 -1.9503  0.3509 -1.0133
    3MOL0     H  341   4.461   3.643   4.538  2.6731 -1.0052 -0.2128
    3MOL0     H  342   4.433   3.615   4.363 -2.7628  3.1287 -1.9399
    3MOL0     H  343   4.299   3.802   4.468  1.1309 -0.3846  0.5739
    3MOL0     H  344   4.398   3.864   4.336 -0.4316  2.3138  0.9103
    3MOL0     H  345   4.454   3.880   4.628 -0.1220 -3.2493 -1.0459
    3MOL0     H  346   4.574   3.923   4.503  0.1523  2.0965  0.5693
    3MOL0     H  347   4.312   4.049   4.559  0.2442  0.0245  0.5059
    3MOL0     H  348   4.388   4.085   4.400 -1.1340  2.1861  0.1428
    3MOL0     H  349   4.621   4.212   4.376  1.8023 -0.2682  1.8169
    3MOL0     H  350   4.703   4.533   4.510  1.1977 -0.0578 -0.3834
    3MOL0     H  351   4.780   4.396   4.422 -2.8764 -0.8023 -1.2918
    3MOL0     H  352   4.856   4.311   4.655  2.2463  1.5986 -0.8848
    3MOL0     H  353   4.804   4.470   4.719 -1.2390  2.3167 -0.2327
    3MOL0     H  354   5.015   4.387   4.514 -0.7028  2.8608 -2.6078
    3MOL0     H  355   4.980   4.557   4.556  4.1511  0.0445 -2.3882
    3MOL0     H  356   5.042   4.375   4.776 -1.7951  0.2753 -0.3911
    3MOL0     H  357   5.041   4.551   4.794  1.0416 -1.3248  1.9451
    3MOL0     H  358   5.157   4.205   4.706  1.9161 -1.6533  1.1352
    3MOL0     H  359   5.297   4.053   4.598 -1.7168  1.4757  0.3777
    3MOL0     H  360   5.770   3.925   4.459 -1.7556  1.6573 -6.9412
    3MOL0     H  361   5.861   3.679   4.512 -1.7502 -2.7451  1.8243
    3MOL0     H  362   5.904   3.495   4.515 -0.9310  1.6979 -1.1974
    3MOL0     H  363   5.849   3.440   4.349 -0.3928  4.1909  0.2202
    3MOL0     H  364   5.782   3.217   4.470  0.9813 -0.9665 -0.2497
    3MOL0     H  365   5.877   3.255   4.602  1.6407 -3.5697  0.2329
    3MOL0     H  366   6.079   3.329   4.448 -0.9030  0.7254  2.1291
    3MOL0     H  367   5.991   3.264   4.317  0.8048 -0.4767 -0.2544
    3MOL0     H  368   6.099   3.095   4.557 -2.1553  0.0728  0.9081
    3MOL0     H  369   5.975   3.035   4.450  0.0075 -0.1635 -0.8059
    3MOL0     H  370   6.106   3.033   4.264 -1.3847 -1.1256  0.7257
    3MOL0     H  371   6.195   2.947   4.391 -2.2733 -0.2759  0.0554
    3MOL0     H  372   6.241   3.218   4.253  2.2516 -1.4906 -1.6703
    3MOL0     H  373   6.353   3.098   4.260  2.7493  3.5432 -0.3850
    3MOL0     H  374   6.436   3.250   4.410 -0.3177  1.3774  1.1153
    3MOL0     H  375   6.303   3.272   4.506  4.0452 -0.2856  1.7955
    3MOL0     H  376   6.437   3.010   4.477  0.1633  2.1809 -0.4411
    3MOL0     H  377   6.307   3.040   4.593  0.0970 -1.9160 -0.1257
    3MOL0     H  378   5.465   3.547   4.503 -1.2860  0.7279  2.4297
    3MOL0     H  379   5.383   3.765   4.477  0.5505  1.1149  1.5391
    3MOL0     H  380   5.577   4.363   4.464 -0.1619 -0.8815 -0.3762
    3MOL0     H  381   5.414   4.523   4.579  1.7367  0.0670 -0.6005
    3MOL0     H  382   4.568   3.216   4.599 -0.0688  0.0439  0.0409
    3MOL0     H  383   4.612   3.129   4.816 -1.7976  0.7323 -2.3125
    3MOL0     H  384   4.852   2.705   5.061  0.2049 -0.9974 -0.2191
    3MOL0     H  385   4.911   2.639   5.287  1.2384  1.1583  3.7869
    3MOL0     H  386   5.218   2.706   5.518 -0.7640 -0.9720  2.6887
    3MOL0     H  387   5.146   2.615   5.393  0.6215  1.8431 -0.9537
    3MOL0     H  388   4.959   2.542   5.528  1.0193 -3.2964 -0.0249
    3MOL0     H  389   5.110   2.487   5.605  1.1586 -0.8619 -1.1306
    3MOL0     H  390   4.952   2.562   5.776  2.6231  0.3698  4.6487
    3MOL0     H  391   4.935   2.722   5.695 -3.4396 -2.5562 -1.0041
    3MOL0     H  392   5.155   2.769   5.777  2.1686 -0.4585  2.4430
    3MOL0     H  393   5.059   2.685   5.904 -3.9951  2.1702 -1.0025
    3MOL0     H  394   5.393   2.421   5.854 -1.2353 -1.0643 -0.1910
    3MOL0     H  395   5.018   3.039   5.389 -2.7421 -0.6228  2.3142
    3MOL0     H  396   4.955   3.105   5.161  2.0373  0.7303  1.7567
    4MOL0     O  397   7.441   4.859  11.437  0.3392 -0.7169  0.0534
    4MOL0     C  398   7.431   4.743  11.397 -0.6894 -0.4565  0.2312
    4MOL0     O  399   7.479   4.638  11.466 -0.1707  0.3252 -0.0882
    4MOL0     C  400   7.560   4.665  11.576 -0.1924  0.0320 -0.2904
    4MOL0     C  401   7.655   4.765  11.581  0.1122 -0.5613 -0.8819
    4MOL0     C  402   7.737   4.777  11.700  0.6779 -0.2747  0.0680
    4MOL0     C  403   7.727   4.688  11.810 -0.2488 -0.9431 -0.8125
    4MOL0     O  404   7.793   4.683  11.933 -0.1105 -0.4268 -0.0347
    4MOL0     C  405   7.919   4.739  11.935  0.3214 -0.3785  0.3401
    4MOL0     C  406   7.953   4.787  12.087 -0.4455  0.3008  0.6140
    4MOL0     C  407   7.933   4.932  12.099  0.9650 -0.0935  0.0549
    4MOL0     C  408   8.006   4.992  12.227 -0.3470 -0.9891 -0.3345
    4MOL0     C  409   8.049   5.136  12.198 -0.4380  0.2228  0.0538
    4MOL0     C  410   8.104   5.220  12.318 -0.9863  0.3758  0.5305
    4MOL0     C  411   7.990   5.293  12.389 -0.8887 -0.6066  0.2127
    4MOL0     C  412   8.053   5.389  12.500  0.0957  0.3478  0.6091
    4MOL0     N  413   8.057   5.348  12.639  0.8178  0.1997 -0.0509
    4MOL0     C  414   7.963   5.273  12.721 -0.0531  0.3861 -0.7115
    4MOL0     C  415   8.010   5.269  12.851  0.2777  0.3709  0.8528
    4MOL0     C  416   7.948   5.209  12.967 -0.5749  0.3170 -0.3389
    4MOL0     C  417   7.917   5.317  13.071  0.6510  0.0935  0.9061
    4MOL0     C  418   7.832   5.264  13.191  0.5548  0.0382  0.1642
    4MOL0     C  419   7.684   5.275  13.153 -0.7733  0.7024  0.0598
    4MOL0     O  420   7.653   5.187  13.037 -0.3056  0.4671 -0.8427
    4MOL0     C  421   7.650   5.050  13.053 -0.2231 -0.3281 -0.0385
    4MOL0     C  422   7.665   4.982  13.176  0.2272  0.2113 -0.2619
    4MOL0     C  423   7.665   4.841  13.174 -0.3454  0.5008 -0.7824
    4MOL0     C  424   7.642   4.775  13.051  0.2094  0.2699 -0.4911
    4MOL0     C  425   7.649   4.621  13.051 -0.7320 -1.2252 -0.2648
    4MOL0     O  426   7.632   4.567  13.179  0.5321  0.1038  0.4412
    4MOL0     C  427   7.675   4.435  13.199  0.0665 -0.7662  0.5632
    4MOL0     C  428   7.598   4.319  13.178 -0.1687 -0.2965 -0.1572
    4MOL0     C  429   7.643   4.200  13.233 -0.8553 -1.3636 -0.7284
    4MOL0     C  430   7.768   4.198  13.296 -0.4173  0.9125  0.2900
    4MOL0     O  431   7.831   4.082  13.340 -0.1354  0.3037 -0.0340
    4MOL0     C  432   7.783   3.954  13.296  0.1508 -0.0141 -0.6919
    4MOL0     C  433   7.890   3.859  13.360 -0.5341 -0.0694 -0.5728
    4MOL0     C  434   8.035   3.885  13.314  0.2791 -0.3067 -0.0938
    4MOL0     C  435   8.057   3.868  13.165 -0.2358 -0.3849 -0.2209
    4MOL0     C  436   8.198   3.896  13.120 -0.1495 -0.6370 -0.9635
    4MOL0     C  437   8.232   4.048  13.137 -0.5376  0.0879 -0.9299
    4MOL0     C  438   8.349   4.095  13.059  0.5340  0.9251  0.2104
    4MOL0     C  439   8.480   4.059  13.120 -0.9855  0.7748  0.1649
    4MOL0    Cl  440   8.508   4.173  13.252  0.0107 -0.0714  0.3047
    4MOL0     C  441   7.848   4.305  13.306 -0.6411  0.5231  0.3251
    4MOL0     C  442   7.804   4.428  13.264  0.5906 -0.1328 -0.4211
    4MOL0     O  443   7.682   4.563  12.948  0.5262  0.5815  0.0418
    4MOL0     C  444   7.622   4.836  12.929  0.3024 -0.4226 -0.6279
    4MOL0     C  445   7.619   4.981  12.935 -0.9760  0.6643  0.4533
    4MOL0     N  446   8.129   5.333  12.853 -0.1067  0.4757  0.6508
    4MOL0     N  447   8.155   5.383  12.731 -1.0635  0.6510  0.0321
    4MOL0     C  448   7.618   4.597  11.807  0.7159  0.8990  0.2191
    4MOL0     C  449   7.536   4.582  11.691 -0.4135 -0.9214  0.6542
    4MOL0     C  450   7.363   4.715  11.275  1.3378  0.4206  0.5271
    4MOL0     C  451   7.277   4.809  11.214  0.8967  0.1151 -0.3435
    4MOL0     C  452   7.206   4.780  11.099 -0.0028  0.1623  0.1212
    4MOL0     C  453   7.192   4.649  11.048 -0.3479 -0.5700  0.4133
    4MOL0     O  454   7.119   4.635  10.930  0.2669  0.8017  0.0373
    4MOL0     C  455   7.046   4.520  10.906  0.1016  0.1207 -0.8825
    4MOL0     C  456   7.142   4.443  10.820 -0.4872  0.2955  0.2502
    4MOL0     C  457   7.086   4.335  10.729  0.1709 -0.2576  0.1705
    4MOL0     C  458   7.176   4.288  10.618 -0.1069 -0.6603  0.5806
    4MOL0     C  459   7.160   4.366  10.496 -0.3719  1.1549 -0.0626
    4MOL0     C  460   7.163   4.425  10.389 -0.3620 -1.1049  0.7357
    4MOL0     C  461   7.272   4.556  11.109  0.0546 -0.2876  0.1593
    4MOL0     C  462   7.355   4.583  11.219 -0.5297 -0.9275 -0.3719
    4MOL0     H  463   7.672   4.843  11.508  1.1595  0.8382  0.7726
    4MOL0     H  464   7.810   4.856  11.687 -0.9956  1.4652  0.8239
    4MOL0     H  465   7.935   4.819  11.863 -1.4252 -2.3687 -2.4431
    4MOL0     H  466   7.994   4.664  11.909 -0.3795 -0.7023 -0.7624
    4MOL0     H  467   8.057   4.761  12.111 -0.5005  0.0787  0.6136
    4MOL0     H  468   7.904   4.724  12.161 -0.8640 -0.6300 -0.4200
    4MOL0     H  469   7.826   4.954  12.112  0.5706 -1.5033 -0.6244
    4MOL0     H  470   7.978   4.993  12.020 -2.0696  2.2525 -0.0565
    4MOL0     H  471   7.939   4.986  12.313  1.7064 -1.7118  1.3109
    4MOL0     H  472   8.088   4.924  12.253 -0.5289 -0.9966  0.2423
    4MOL0     H  473   7.964   5.185  12.149  0.2284 -1.1307 -2.6222
    4MOL0     H  474   8.131   5.124  12.127 -1.6131  0.9606 -1.5056
    4MOL0     H  475   8.176   5.295  12.283  0.3141  0.9004  3.9365
    4MOL0     H  476   8.162   5.169  12.396  2.0548  3.3653  0.4397
    4MOL0     H  477   7.938   5.359  12.318  1.3948  3.2800  1.8478
    4MOL0     H  478   7.922   5.233  12.449  1.6741 -1.4824  2.4368
    4MOL0     H  479   8.000   5.483  12.479 -2.9770 -2.1168 -4.4178
    4MOL0     H  480   8.155   5.422  12.477 -0.2464  1.7856  1.0279
    4MOL0     H  481   7.864   5.250  12.682 -1.5373  2.4271  1.5667
    4MOL0     H  482   8.017   5.133  13.006 -1.2446 -0.3869 -0.4879
    4MOL0     H  483   7.861   5.149  12.940 -0.4801  1.2671 -3.0235
    4MOL0     H  484   7.863   5.397  13.021 -2.2655 -3.6261 -2.6019
    4MOL0     H  485   8.012   5.349  13.115  0.0960  2.1178  0.7039
    4MOL0     H  486   7.863   5.166  13.226  1.1380 -0.2091 -0.9721
    4MOL0     H  487   7.844   5.326  13.280  1.1651 -0.3456  0.3595
    4MOL0     H  488   7.661   5.375  13.114 -0.6265  0.9582  0.6265
    4MOL0     H  489   7.623   5.251  13.240 -1.9375  3.2031  0.0148
    4MOL0     H  490   7.667   5.030  13.274 -2.7510  1.0053 -0.5073
    4MOL0     H  491   7.692   4.784  13.263  0.4247  0.7742 -0.8312
    4MOL0     H  492   7.501   4.328  13.130 -0.8263  0.1078  1.1755
    4MOL0     H  493   7.572   4.119  13.245 -2.8629  0.4262  0.1344
    4MOL0     H  494   7.781   3.947  13.187  3.4303  0.9600 -0.9280
    4MOL0     H  495   7.684   3.943  13.340  0.4556 -1.7212 -0.3430
    4MOL0     H  496   7.866   3.753  13.343 -2.4012  0.0778  0.7400
    4MOL0     H  497   7.890   3.875  13.468 -0.6655  3.9888 -1.0487
    4MOL0     H  498   8.098   3.816  13.371 -1.0459 -0.0687  1.7682
    4MOL0     H  499   8.061   3.988  13.341 -1.1547  0.4594 -1.4900
    4MOL0     H  500   8.022   3.769  13.133 -5.2771  0.0937  2.7277
    4MOL0     H  501   7.987   3.938  13.118 -1.8745  0.5716  3.3225
    4MOL0     H  502   8.207   3.868  13.015 -3.0321  3.8409 -2.6527
    4MOL0     H  503   8.268   3.835  13.178 -3.4584 -1.4724  2.6042
    4MOL0     H  504   8.253   4.073  13.242 -0.7362  0.0153 -0.8724
    4MOL0     H  505   8.143   4.101  13.101 -2.5913 -1.7748  1.0655
    4MOL0     H  506   8.333   4.040  12.966 -3.0237 -1.5782  2.0197
    4MOL0     H  507   8.349   4.201  13.034 -2.2568  1.0960  0.5831
    4MOL0     H  508   8.559   4.075  13.046 -1.1673 -0.1080 -0.2372
    4MOL0     H  509   8.473   3.954  13.151  1.9989 -0.1584 -1.8844
    4MOL0     H  510   7.943   4.301  13.360  0.5962  2.4747 -1.5499
    4MOL0     H  511   7.862   4.519  13.275 -1.8268  1.5138 -0.5772
    4MOL0     H  512   7.620   4.776  12.839  1.4066 -3.5365  1.2455
    4MOL0     H  513   7.600   5.034  12.842  1.1981  0.6565 -0.0336
    4MOL0     H  514   7.592   4.534  11.892 -2.6654  0.0462 -1.3058
    4MOL0     H  515   7.465   4.501  11.696 -0.5002 -0.9273 -0.4235
    4MOL0     H  516   7.278   4.909  11.257  2.1693 -0.7190  1.7025
    4MOL0     H  517   7.152   4.857  11.045 -0.6411  0.0836  0.6314
    4MOL0     H  518   6.948   4.551  10.866  0.3085  1.7575 -0.1925
    4MOL0     H  519   7.016   4.465  10.995 -1.2554 -0.1308 -1.4696
    4MOL0     H  520   7.192   4.514  10.753  1.6898  0.4374  1.8860
    4MOL0     H  521   7.216   4.393  10.883  0.0924 -0.0381 -0.6824
    4MOL0     H  522   6.992   4.369  10.685  0.3972  0.4927  0.2491
    4MOL0     H  523   7.070   4.258  10.805 -1.2998  0.2632  0.4234
    4MOL0     H  524   7.280   4.290  10.653  0.0820  2.3190  0.1288
    4MOL0     H  525   7.152   4.182  10.602  1.4801 -0.7885 -1.5009
    4MOL0     H  526   7.172   4.463  10.289  1.3194 -1.5937  0.6585
    4MOL0     H  527   7.274   4.455  11.070 -1.9964  0.1143 -1.1054
    4MOL0     H  528   7.416   4.505  11.263  0.4725  0.1690  0.2565
    5MOL0     O  529  10.798   4.117   6.864  0.5666 -0.1754 -0.6575
    5MOL0     C  530  10.747   4.209   6.802  0.4991 -0.6462 -0.1918
    5MOL0     O  531  10.792   4.253   6.675  0.3596 -0.1199 -0.3162
    5MOL0     C  532  10.915   4.224   6.632 -0.0211  0.3528  1.3588
    5MOL0     C  533  10.931   4.219   6.487 -0.3592 -0.3883 -0.6946
    5MOL0     C  534  11.065   4.203   6.431  0.5902  0.1955  1.0727
    5MOL0     C  535  11.168   4.168   6.512  0.6469  0.4749 -0.4052
    5MOL0     O  536  11.289   4.142   6.459  0.4117 -0.1581  0.6643
    5MOL0     C  537  11.304   4.038   6.366  0.7270 -0.3358  0.5146
    5MOL0     C  538  11.445   3.973   6.376 -0.6420 -0.5819 -0.1975
    5MOL0     C  539  11.505   3.913   6.245 -1.1837 -0.3744 -0.7637
    5MOL0     C  540  11.419   3.810   6.169  0.4052 -0.1793 -0.6388
    5MOL0     C  541  11.450   3.670   6.241  0.7258 -0.0608 -0.5418
    5MOL0     C  542  11.354   3.563   6.215 -0.8612  0.1948  0.5456
    5MOL0     C  543  11.208   3.585   6.274 -0.1809 -0.1919  0.8710
    5MOL0     C  544  11.129   3.452   6.253 -0.7464  0.0584 -0.0750
    5MOL0     N  545  10.985   3.457   6.244 -0.1984  0.2724  0.4587
    5MOL0     C  546  10.906   3.515   6.334 -0.4265  0.1524 -1.6176
    5MOL0     C  547  10.780   3.498   6.287  0.5532  0.5546  0.3160
    5MOL0     C  548  10.656   3.575   6.344  0.1458  0.2147  0.1040
    5MOL0     C  549  10.530   3.484   6.367 -0.0120  0.0385  0.4000
    5MOL0     C  550  10.414   3.490   6.254 -0.4598 -0.3689  0.2460
    5MOL0     C  551  10.462   3.461   6.115 -0.0305 -0.5067 -0.0160
    5MOL0     O  552  10.359   3.457   6.016  0.1044 -0.3268  0.3569
    5MOL0     C  553  10.270   3.362   6.031  0.4595  0.0139  0.1225
    5MOL0     C  554  10.133   3.397   6.029 -0.5177  0.2910  1.3059
    5MOL0     C  555  10.036   3.294   6.053  0.6092  0.8139 -0.2638
    5MOL0     C  556  10.073   3.151   6.037 -0.8102  0.3827 -0.0945
    5MOL0     C  557   9.978   3.043   6.030  1.0557  0.3798  0.8732
    5MOL0     O  558   9.847   3.077   6.064 -0.2554  0.7332  0.1034
    5MOL0     C  559   9.744   2.986   6.060  1.1691  0.2528  0.1206
    5MOL0     C  560   9.746   2.881   5.969 -0.2782  0.0642  0.7206
    5MOL0     C  561   9.628   2.796   5.954  0.3830  0.8265  0.2146
    5MOL0     C  562   9.511   2.820   6.019 -0.3564 -0.1187  0.6138
    5MOL0     O  563   9.411   2.732   5.995 -0.5906 -0.0351 -0.0738
    5MOL0     C  564   9.296   2.731   6.074  0.3329 -0.3948  0.0635
    5MOL0     C  565   9.240   2.586   6.077  0.1322 -0.0541 -0.1525
    5MOL0     C  566   9.307   2.495   6.185  0.8891 -0.5998  0.7346
    5MOL0     C  567   9.256   2.347   6.185  1.0461  0.2047 -0.2123
    5MOL0     C  568   9.260   2.268   6.319 -0.5548 -0.9402  0.0031
    5MOL0     C  569   9.229   2.122   6.299  0.1294 -0.4287 -0.9445
    5MOL0     C  570   9.257   2.038   6.420  0.5116  0.0685 -0.7088
    5MOL0     C  571   9.153   2.037   6.526 -0.3147  0.1346 -1.0629
    5MOL0    Cl  572   9.189   1.909   6.637 -0.5617  0.6862  0.5140
    5MOL0     C  573   9.519   2.930   6.115 -1.1278 -0.4997 -0.3131
    5MOL0     C  574   9.630   3.015   6.131 -1.0496  0.2891 -0.6911
    5MOL0     O  575  10.008   2.931   6.002  0.3592  0.3283 -0.0736
    5MOL0     C  576  10.214   3.127   6.017  0.1113 -0.2514  0.4071
    5MOL0     C  577  10.309   3.223   6.036 -0.3464 -0.3404  0.0784
    5MOL0     N  578  10.782   3.441   6.162 -0.3072  0.0093 -0.5370
    5MOL0     N  579  10.910   3.415   6.139  0.1048  0.7076  0.4217
    5MOL0     C  580  11.146   4.174   6.656 -0.0979 -0.1948 -0.2172
    5MOL0     C  581  11.023   4.198   6.710 -0.2398  1.3861 -0.5387
    5MOL0     C  582  10.648   4.302   6.863  0.5219 -0.2786  0.7498
    5MOL0     C  583  10.586   4.411   6.794  0.2271 -0.5593  0.9694
    5MOL0     C  584  10.501   4.509   6.850  0.6723 -0.8328  0.2750
    5MOL0     C  585  10.476   4.493   6.986  0.8190 -0.3482 -0.9900
    5MOL0     O  586  10.397   4.603   7.049  0.4650  0.8275  0.1068
    5MOL0     C  587  10.411   4.635   7.185  0.1344  0.5872  0.8438
    5MOL0     C  588  10.371   4.772   7.220  0.2724  0.9156 -0.3246
    5MOL0     C  589  10.348   4.808   7.368  0.5265  0.7303 -0.4248
    5MOL0     C  590  10.263   4.930   7.385 -0.1188  0.5192  0.8889
    5MOL0     C  591  10.343   5.050   7.397 -0.9491 -0.6121  0.2379
    5MOL0     C  592  10.392   5.158   7.426  0.4810  0.0609 -0.3531
    5MOL0     C  593  10.527   4.383   7.061 -0.8598 -0.1754  0.6958
    5MOL0     C  594  10.613   4.299   6.994  0.0089  0.2472  0.4162
    5MOL0     H  595  10.836   4.226   6.435 -1.5444 -3.2430  0.8397
    5MOL0     H  596  11.091   4.203   6.326  1.1128 -2.6274  1.1252
    5MOL0     H  597  11.282   4.074   6.264  2.0202  3.1871  1.3303
    5MOL0     H  598  11.232   3.958   6.384 -0.3136  0.1055 -1.4139
    5MOL0     H  599  11.457   3.900   6.457  0.7355  0.7219  0.8383
    5MOL0     H  600  11.510   4.054   6.411 -1.9749  0.0391  0.9220
    5MOL0     H  601  11.609   3.882   6.261 -0.6033  0.8351 -1.9824
    5MOL0     H  602  11.522   3.996   6.175  2.6024 -0.2211  0.1155
    5MOL0     H  603  11.313   3.837   6.176 -0.0836 -1.4978 -2.2990
    5MOL0     H  604  11.442   3.816   6.063 -0.3328 -0.3389 -0.8173
    5MOL0     H  605  11.461   3.683   6.350  1.1558  1.1863 -0.7199
    5MOL0     H  606  11.546   3.629   6.209  0.1608 -0.6973 -1.4520
    5MOL0     H  607  11.404   3.471   6.245 -2.4486 -0.6864  0.5829
    5MOL0     H  608  11.336   3.551   6.108  1.5330 -2.9982  0.3404
    5MOL0     H  609  11.211   3.617   6.378  0.6666  0.7206  0.5865
    5MOL0     H  610  11.160   3.662   6.212  0.9838  1.9691  2.5297
    5MOL0     H  611  11.146   3.384   6.337 -1.5150 -0.1059 -0.0517
    5MOL0     H  612  11.165   3.392   6.169 -1.4892 -1.5376  0.7237
    5MOL0     H  613  10.941   3.563   6.424 -1.2372 -4.8764  1.8192
    5MOL0     H  614  10.623   3.662   6.286  0.3467  0.3840  0.2460
    5MOL0     H  615  10.694   3.611   6.440  0.4940  3.2667 -1.0632
    5MOL0     H  616  10.474   3.499   6.460 -1.0303 -1.0649 -0.0071
    5MOL0     H  617  10.563   3.380   6.358 -3.2161 -0.9095 -3.0792
    5MOL0     H  618  10.339   3.418   6.289 -0.2933  0.7763  3.2290
    5MOL0     H  619  10.363   3.586   6.264 -0.8340 -0.6471  1.0578
    5MOL0     H  620  10.518   3.367   6.114 -0.4979 -0.8717 -3.4939
    5MOL0     H  621  10.527   3.545   6.086 -1.2395  1.0017  1.4804
    5MOL0     H  622  10.113   3.501   6.004  4.3867  1.2076  0.1389
    5MOL0     H  623   9.931   3.318   6.040 -0.8033 -3.4420  1.6076
    5MOL0     H  624   9.821   2.858   5.894 -0.6140  1.1575  0.0358
    5MOL0     H  625   9.625   2.724   5.873  1.4623  0.9589  0.0503
    5MOL0     H  626   9.212   2.796   6.043  1.9534  2.4370  1.1924
    5MOL0     H  627   9.314   2.751   6.180 -0.3511 -0.5012  0.2047
    5MOL0     H  628   9.273   2.530   5.990 -2.8197 -3.8276  0.8761
    5MOL0     H  629   9.132   2.589   6.092  0.1224  1.3026 -0.3090
    5MOL0     H  630   9.290   2.538   6.284 -3.0439 -2.4406  1.0463
    5MOL0     H  631   9.411   2.477   6.156  1.4910  2.1825  0.8852
    5MOL0     H  632   9.149   2.360   6.166  0.7580  0.2474  1.2842
    5MOL0     H  633   9.307   2.291   6.106  4.1606  1.5375  0.6695
    5MOL0     H  634   9.181   2.322   6.372  0.8354  3.2022 -1.6717
    5MOL0     H  635   9.356   2.277   6.370 -2.1356  0.9345  2.8908
    5MOL0     H  636   9.274   2.093   6.203 -0.0047  0.5637 -1.3211
    5MOL0     H  637   9.124   2.111   6.273 -1.1427  2.0939  2.3928
    5MOL0     H  638   9.276   1.934   6.390  1.8169 -0.5307  1.9202
    5MOL0     H  639   9.350   2.070   6.469  1.9512  1.8700 -4.2468
    5MOL0     H  640   9.048   2.022   6.502 -2.2579 -1.3944  6.1084
    5MOL0     H  641   9.156   2.129   6.585  0.4814 -0.6406  0.1635
    5MOL0     H  642   9.437   2.950   6.183  0.1646  1.1142  0.8265
    5MOL0     H  643   9.630   3.094   6.205  3.1939 -0.2462  0.1129
    5MOL0     H  644  10.250   3.026   6.000  0.2005 -0.1258 -0.1987
    5MOL0     H  645  10.411   3.184   6.030 -1.0042 -2.0223 -0.9148
    5MOL0     H  646  11.240   4.154   6.707 -0.0435 -1.7040 -0.8748
    5MOL0     H  647  11.021   4.206   6.818  1.5012  1.9202 -0.5220
    5MOL0     H  648  10.611   4.415   6.688  2.9242 -0.8807  1.5111
    5MOL0     H  649  10.456   4.586   6.788 -0.1006 -0.1081  1.6905
    5MOL0     H  650  10.516   4.622   7.211  0.2063  0.2115  0.3849
    5MOL0     H  651  10.360   4.559   7.246 -0.6400  0.1843 -0.2780
    5MOL0     H  652  10.440   4.839   7.167 -0.7827  0.0333 -2.9866
    5MOL0     H  653  10.276   4.787   7.168  0.8158 -1.2552 -2.0944
    5MOL0     H  654  10.445   4.810   7.418 -0.9864 -1.7232  3.0184
    5MOL0     H  655  10.300   4.721   7.413  1.5296 -0.3160 -1.3186
    5MOL0     H  656  10.213   4.940   7.288  1.6361  0.8522 -0.0224
    5MOL0     H  657  10.202   4.918   7.474 -0.7806 -2.1559  0.1643
    5MOL0     H  658  10.412   5.259   7.454  1.4875  0.7034 -3.0496
    5MOL0     H  659  10.494   4.363   7.162  0.8441  0.5581  1.4445
    5MOL0     H  660  10.660   4.217   7.048 -0.1082  0.6123  1.0820
    6MOL0     O  661   4.497   5.581   6.886 -0.5260 -0.5908  0.3067
    6MOL0     C  662   4.461   5.495   6.960 -0.1064  0.0020  0.1352
    6MOL0     O  663   4.437   5.521   7.095 -0.2777  0.3338  0.2415
    6MOL0     C  664   4.464   5.638   7.159 -0.3632 -0.9164  0.5498
    6MOL0     C  665   4.535   5.623   7.276  0.1124 -0.5400 -0.0420
    6MOL0     C  666   4.573   5.731   7.361 -0.7264 -0.7667  0.5663
    6MOL0     C  667   4.560   5.857   7.315  1.2131  0.0216  0.7635
    6MOL0     O  668   4.595   5.957   7.406  0.2142  1.1416  0.8661
    6MOL0     C  669   4.619   6.098   7.361  0.1121  0.2845  0.3137
    6MOL0     C  670   4.536   6.192   7.456  0.7188 -0.0739  0.5203
    6MOL0     C  671   4.512   6.340   7.397  0.2943 -0.8466 -0.2852
    6MOL0     C  672   4.512   6.455   7.503 -0.2925 -0.4513  0.3436
    6MOL0     C  673   4.639   6.442   7.586  0.8826  0.7177  0.5955
    6MOL0     C  674   4.664   6.562   7.673 -0.1713 -0.1094  0.2160
    6MOL0     C  675   4.746   6.678   7.622 -0.1829 -0.9994 -0.1282
    6MOL0     C  676   4.894   6.686   7.649  0.2407 -0.1435  0.1983
    6MOL0     N  677   4.945   6.786   7.561 -0.7169 -0.6634  0.4636
    6MOL0     C  678   5.061   6.774   7.494 -0.3153  0.0301  0.4366
    6MOL0     C  679   5.078   6.886   7.421  0.6128  0.2108 -0.6498
    6MOL0     C  680   5.209   6.920   7.355  0.1847  0.1776  0.8296
    6MOL0     C  681   5.224   6.852   7.216 -0.2579 -0.1446  0.1956
    6MOL0     C  682   5.351   6.890   7.144  0.4422  0.3700 -0.2680
    6MOL0     C  683   5.354   7.038   7.103 -0.2375  0.8045 -0.1550
    6MOL0     O  684   5.241   7.063   7.011 -0.2958 -0.0807 -0.1458
    6MOL0     C  685   5.244   7.024   6.881 -0.0530  0.7936  0.3605
    6MOL0     C  686   5.349   6.956   6.817  0.2468  0.2426 -0.1421
    6MOL0     C  687   5.344   6.931   6.681  0.4350  0.5314 -0.3555
    6MOL0     C  688   5.234   6.965   6.603  0.3735  0.4436  0.2413
    6MOL0     C  689   5.214   6.917   6.455 -0.0718  0.3063  0.6215
    6MOL0     O  690   5.147   7.007   6.380 -0.1964 -1.4489  0.0057
    6MOL0     C  691   5.109   6.985   6.254  0.0853 -0.1901  0.3620
    6MOL0     C  692   5.098   6.869   6.181  1.1004 -0.1307 -1.2686
    6MOL0     C  693   5.047   6.877   6.050  0.5055  0.5573  1.2172
    6MOL0     C  694   5.029   6.998   5.983 -0.6035 -0.9144 -0.5091
    6MOL0     O  695   5.004   7.004   5.846  0.2991  0.5827 -0.2052
    6MOL0     C  696   4.874   7.057   5.804  0.1824  0.4229 -0.0386
    6MOL0     C  697   4.885   7.112   5.658  0.2031 -1.0195  0.2177
    6MOL0     C  698   4.952   7.251   5.657 -1.0353  0.4270 -0.3222
    6MOL0     C  699   4.977   7.270   5.512  0.2816 -1.1647 -0.5121
    6MOL0     C  700   5.121   7.211   5.471  0.3385 -0.6119 -0.5911
    6MOL0     C  701   5.140   7.210   5.322 -0.5815  0.6116  0.0693
    6MOL0     C  702   5.287   7.199   5.288  0.7687  0.1097 -0.3777
    6MOL0     C  703   5.309   7.165   5.144 -0.0087 -0.4410  0.6370
    6MOL0    Cl  704   5.266   7.002   5.098  0.6534 -0.5169 -0.0978
    6MOL0     C  705   5.041   7.114   6.053  0.4267  0.1220 -0.0750
    6MOL0     C  706   5.065   7.108   6.192 -1.3659 -0.3228 -0.0683
    6MOL0     O  707   5.257   6.804   6.422 -0.3224 -0.4047  0.8342
    6MOL0     C  708   5.130   7.041   6.661 -0.8798  0.0838  0.4753
    6MOL0     C  709   5.138   7.072   6.801  0.1206  0.0046  0.3462
    6MOL0     N  710   4.967   6.970   7.437  0.4897  0.5859 -0.2966
    6MOL0     N  711   4.899   6.915   7.538 -1.2725  0.1799  0.1211
    6MOL0     C  712   4.488   5.883   7.195 -0.5415  0.3748 -0.4536
    6MOL0     C  713   4.439   5.774   7.117  0.9684 -0.5347 -0.4546
    6MOL0     C  714   4.473   5.367   6.899 -0.5650 -0.0677  0.0909
    6MOL0     C  715   4.486   5.342   6.757  0.2247  0.2141  0.4112
    6MOL0     C  716   4.502   5.210   6.713  0.5646  0.3955  0.4438
    6MOL0     C  717   4.499   5.103   6.790  0.2304  1.3071 -0.5926
    6MOL0     O  718   4.523   4.988   6.719 -0.8380 -0.0411 -0.3442
    6MOL0     C  719   4.453   4.870   6.770 -0.3175  0.0107  0.1698
    6MOL0     C  720   4.420   4.766   6.648 -0.3333 -0.3986 -0.1322
    6MOL0     C  721   4.362   4.849   6.525  0.3361  0.6649  0.0977
    6MOL0     C  722   4.305   4.742   6.427  0.9374  0.8869 -1.0118
    6MOL0     C  723   4.232   4.793   6.311 -0.5799  0.0397 -0.1516
    6MOL0     C  724   4.166   4.824   6.215  0.6503 -1.0095 -0.2625
    6MOL0     C  725   4.462   5.128   6.928  0.3762 -1.0866 -0.1449
    6MOL0     C  726   4.455   5.255   6.987  1.3833 -0.8536  0.1079
    6MOL0     H  727   4.561   5.521   7.302  0.7723  0.2063  2.4476
    6MOL0     H  728   4.632   5.711   7.450  1.7396  2.2773 -0.1844
    6MOL0     H  729   4.586   6.118   7.259  2.0959  4.2511  0.2966
    6MOL0     H  730   4.724   6.127   7.358 -0.4987  2.5986 -0.5745
    6MOL0     H  731   4.561   6.197   7.562 -0.4385 -0.1444  0.8059
    6MOL0     H  732   4.438   6.144   7.458  2.0672 -3.1426  0.0590
    6MOL0     H  733   4.424   6.356   7.334 -0.1061  2.8979  0.9976
    6MOL0     H  734   4.591   6.362   7.324  0.0358 -0.4091 -0.4401
    6MOL0     H  735   4.506   6.548   7.445 -1.5963 -0.3108  0.6716
    6MOL0     H  736   4.422   6.459   7.565 -1.6800  1.5501 -1.6371
    6MOL0     H  737   4.724   6.431   7.519 -0.0232 -0.4806 -0.3843
    6MOL0     H  738   4.623   6.362   7.659 -0.3434  0.2951 -0.1160
    6MOL0     H  739   4.721   6.543   7.764 -0.3159 -1.3356  0.0658
    6MOL0     H  740   4.565   6.598   7.702 -1.9701 -0.5388 -4.5106
    6MOL0     H  741   4.743   6.684   7.513  1.8304 -0.5695 -0.1827
    6MOL0     H  742   4.705   6.776   7.647  1.8485  0.7276 -3.0200
    6MOL0     H  743   4.941   6.591   7.626 -2.3165 -0.8903 -2.4914
    6MOL0     H  744   4.907   6.721   7.752 -1.8186  0.1242  0.4062
    6MOL0     H  745   5.138   6.706   7.530  0.8958  1.9667  1.6975
    6MOL0     H  746   5.295   6.883   7.412  1.1305 -3.3144 -2.4004
    6MOL0     H  747   5.205   7.028   7.344 -2.1328  0.1171  0.6848
    6MOL0     H  748   5.132   6.855   7.158 -2.1263 -3.7014  2.5918
    6MOL0     H  749   5.251   6.749   7.243 -0.0475 -0.2283 -0.3256
    6MOL0     H  750   5.436   6.870   7.210  1.1649  0.6746 -1.0872
    6MOL0     H  751   5.347   6.836   7.049  0.2886  0.5398 -0.3586
    6MOL0     H  752   5.450   7.060   7.057  2.6703 -2.9854  3.3143
    6MOL0     H  753   5.326   7.103   7.187  0.0614  2.5738 -1.3726
    6MOL0     H  754   5.438   6.914   6.862  1.3512  0.4608 -2.0108
    6MOL0     H  755   5.425   6.890   6.621  1.2092  1.9833 -0.3578
    6MOL0     H  756   5.125   6.768   6.210 -3.0169 -1.7300 -2.3458
    6MOL0     H  757   5.020   6.785   5.998 -0.8390  2.9608 -2.7198
    6MOL0     H  758   4.844   7.136   5.872  0.2137  0.2126  0.2225
    6MOL0     H  759   4.799   6.978   5.811 -0.7060  1.3944  1.8596
    6MOL0     H  760   4.783   7.138   5.628  1.4705  2.7216 -1.4139
    6MOL0     H  761   4.933   7.032   5.600  0.3970  1.5494 -3.5816
    6MOL0     H  762   5.038   7.244   5.724 -1.7439 -0.1431  0.5530
    6MOL0     H  763   4.875   7.322   5.689 -3.3007 -1.1796 -1.9821
    6MOL0     H  764   4.905   7.226   5.441 -1.3762 -4.1059  2.7174
    6MOL0     H  765   4.962   7.376   5.492  0.8885 -0.8054  0.8541
    6MOL0     H  766   5.119   7.106   5.500 -3.2432 -0.8804 -1.3924
    6MOL0     H  767   5.199   7.267   5.523  1.1204 -3.1054  1.0849
    6MOL0     H  768   5.105   7.309   5.290 -1.1825  0.3213 -0.1865
    6MOL0     H  769   5.084   7.127   5.278  1.0731 -0.7653  0.4934
    6MOL0     H  770   5.332   7.292   5.323  1.6511  0.1642 -1.5654
    6MOL0     H  771   5.327   7.119   5.351 -1.1868  0.7791  1.8658
    6MOL0     H  772   5.411   7.194   5.120  0.8828 -1.1887  3.2393
    6MOL0     H  773   5.251   7.231   5.078 -0.3364  0.2591  1.6089
    6MOL0     H  774   5.007   7.202   6.001 -1.0809 -0.7357 -0.6204
    6MOL0     H  775   5.078   7.199   6.250  4.0194 -1.7411  1.5194
    6MOL0     H  776   5.039   7.072   6.611 -0.9573 -0.5261  0.2270
    6MOL0     H  777   5.053   7.124   6.844  0.0832  1.3961 -1.2933
    6MOL0     H  778   4.467   5.985   7.163  1.0441  0.8345 -0.1313
    6MOL0     H  779   4.402   5.783   7.016 -0.6854 -1.7411  0.0075
    6MOL0     H  780   4.491   5.421   6.683  1.1151 -0.0228  0.2125
    6MOL0     H  781   4.499   5.194   6.606  1.0739  1.2986  0.2852
    6MOL0     H  782   4.363   4.902   6.824 -0.1045 -1.6897  1.6041
    6MOL0     H  783   4.510   4.812   6.843  1.6693 -2.5262 -3.1037
    6MOL0     H  784   4.515   4.722   6.615  1.9512  3.5078  0.6545
    6MOL0     H  785   4.345   4.706   6.700  1.4271  0.4734  3.7153
    6MOL0     H  786   4.440   4.907   6.476  1.7253 -2.0511 -1.1076
    6MOL0     H  787   4.278   4.908   6.564  0.3934  1.0458 -0.3518
    6MOL0     H  788   4.379   4.680   6.376  1.4048  0.0369  0.6327
    6MOL0     H  789   4.255   4.663   6.484  0.1380  1.9370 -0.2077
    6MOL0     H  790   4.101   4.855   6.137  0.7636 -1.9148 -0.7299
    6MOL0     H  791   4.461   5.048   7.001  2.6125  1.2298  2.7069
    6MOL0     H  792   4.425   5.268   7.090 -1.2392 -1.0758 -0.5680
    7MOL0     O  793   2.244   2.211  10.652  0.2208 -0.0332 -0.3897
    7MOL0     C  794   2.141   2.271  10.682  0.5255 -1.2741 -0.0308
    7MOL0     O  795   2.053   2.328  10.595  0.9234  0.0367  0.2666
    7MOL0     C  796   2.090   2.311  10.465 -0.3100  0.3312 -0.4721
    7MOL0     C  797   2.147   2.415  10.394  0.6157 -0.4381 -0.4855
    7MOL0     C  798   2.184   2.391  10.264  0.2169  0.4281 -0.0717
    7MOL0     C  799   2.156   2.272  10.206  0.1602  0.2365 -0.2414
    7MOL0     O  800   2.203   2.224  10.083  0.2663 -0.2364 -0.5559
    7MOL0     C  801   2.261   2.320   9.989 -0.3336 -0.2561 -0.2460
    7MOL0     C  802   2.320   2.251   9.870 -1.1788  0.0302  0.0839
    7MOL0     C  803   2.216   2.189   9.769  0.1065  0.0989  0.4644
    7MOL0     C  804   2.265   2.194   9.628  0.0279  0.5512 -0.0424
    7MOL0     C  805   2.164   2.115   9.541  0.1163  0.4543  0.4310
    7MOL0     C  806   2.178   2.144   9.395  0.6499 -0.9637  0.0121
    7MOL0     C  807   2.308   2.123   9.333 -0.4163 -0.3829  0.4094
    7MOL0     C  808   2.307   2.122   9.181  1.0677 -0.1171  0.4787
    7MOL0     N  809   2.213   2.015   9.124 -0.5788 -0.8933 -0.1541
    7MOL0     C  810   2.084   2.040   9.080  0.4380 -0.1058 -0.4422
    7MOL0     C  811   2.036   1.918   9.033  0.5339  0.1274 -1.0478
    7MOL0     C  812   1.894   1.885   8.992  0.5046 -0.1037  0.5505
    7MOL0     C  813   1.810   1.818   9.101  0.4366  0.3151 -0.3376
    7MOL0     C  814   1.688   1.737   9.044 -0.9430  0.1889 -0.0269
    7MOL0     C  815   1.592   1.685   9.143  0.5523  0.0544 -0.1647
    7MOL0     O  816   1.532   1.795   9.193  0.6234  0.3794 -0.2722
    7MOL0     C  817   1.431   1.858   9.123 -0.3474 -0.9467 -0.1100
    7MOL0     C  818   1.370   1.817   9.004  0.3405 -0.2986  0.2595
    7MOL0     C  819   1.268   1.881   8.939  1.1150  0.2541  0.1612
    7MOL0     C  820   1.214   1.996   8.995  1.3064  0.3179 -0.6898
    7MOL0     C  821   1.085   2.054   8.947  0.5988 -0.0984  0.6419
    7MOL0     O  822   1.042   1.979   8.836  0.4060  0.2517  0.5141
    7MOL0     C  823   0.920   2.009   8.780  0.4681  0.2049  0.4952
    7MOL0     C  824   0.809   2.077   8.819 -0.0947 -0.3041 -0.1792
    7MOL0     C  825   0.695   2.093   8.741 -0.0262 -0.5358  0.2248
    7MOL0     C  826   0.692   2.036   8.617 -0.9401 -0.4951  0.2124
    7MOL0     O  827   0.592   2.054   8.528  0.7453  0.0080  0.2396
    7MOL0     C  828   0.449   2.061   8.571 -0.2248  1.0614  0.0424
    7MOL0     C  829   0.349   1.984   8.466 -0.1249 -0.4993 -0.4872
    7MOL0     C  830   0.317   2.074   8.354  0.4794 -0.1922  0.1432
    7MOL0     C  831   0.221   1.998   8.259 -0.9439 -0.0786  1.0277
    7MOL0     C  832   0.167   2.090   8.148  1.0675  0.5649 -1.0577
    7MOL0     C  833   0.275   2.144   8.060  0.8714 -0.3496 -0.9018
    7MOL0     C  834   0.229   2.244   7.959  0.7061  0.6439  0.5414
    7MOL0     C  835   0.330   2.344   7.904  0.0636 -0.0223  0.2559
    7MOL0    Cl  836   0.486   2.268   7.875  0.2427 -0.0752 -0.0503
    7MOL0     C  837   0.803   1.969   8.572  0.3366  1.1015  0.3577
    7MOL0     C  838   0.914   1.950   8.659  0.3471 -0.3967  0.0318
    7MOL0     O  839   1.033   2.155   8.989  0.7910  0.3460  0.3702
    7MOL0     C  840   1.276   2.058   9.107 -0.2170  0.2888 -0.6138
    7MOL0     C  841   1.375   1.977   9.175  0.2099 -0.2667 -0.9984
    7MOL0     N  842   2.136   1.823   9.051  1.2893 -0.6118 -0.7527
    7MOL0     N  843   2.235   1.882   9.112  0.3300  0.6648 -0.6725
    7MOL0     C  844   2.085   2.170  10.265 -0.4388 -0.0078 -0.0630
    7MOL0     C  845   2.050   2.189  10.401  0.2144  0.2112 -0.5162
    7MOL0     C  846   2.106   2.297  10.818  0.8429  0.1404 -1.1453
    7MOL0     C  847   2.131   2.195  10.919  0.5005  0.1061  0.6504
    7MOL0     C  848   2.103   2.216  11.052 -1.0103 -0.2577  0.2193
    7MOL0     C  849   2.046   2.331  11.102  0.3770  0.0712  0.4141
    7MOL0     O  850   2.015   2.328  11.237  0.0206 -0.3544 -0.0627
    7MOL0     C  851   1.948   2.438  11.301  0.0415 -0.4457  0.0168
    7MOL0     C  852   1.953   2.414  11.461  0.5191 -0.4430 -0.8166
    7MOL0     C  853   1.859   2.308  11.502  0.0338 -0.8343 -0.4837
    7MOL0     C  854   1.840   2.278  11.661 -0.4875  0.3666  0.1162
    7MOL0     C  855   1.961   2.274  11.741  0.1249  0.3342 -0.3974
    7MOL0     C  856   2.050   2.281  11.827 -0.5177  0.3447 -1.0691
    7MOL0     C  857   2.023   2.435  11.012  0.8353  0.6760 -0.1218
    7MOL0     C  858   2.057   2.417  10.877  0.7961 -1.2028 -1.1002
    7MOL0     H  859   2.170   2.507  10.446  0.9129 -1.2113  0.7921
    7MOL0     H  860   2.239   2.469  10.213  0.8706 -0.5167 -0.8395
    7MOL0     H  861   2.336   2.381  10.039 -0.4841 -1.1711  1.1619
    7MOL0     H  862   2.182   2.384   9.948  0.3205  1.9614  1.7891
    7MOL0     H  863   2.394   2.178   9.904  1.8090  3.1343  0.8579
    7MOL0     H  864   2.376   2.331   9.819 -1.7193 -0.0119 -0.5859
    7MOL0     H  865   2.119   2.239   9.772 -0.2146 -0.4390 -0.6085
    7MOL0     H  866   2.210   2.083   9.795 -1.7517 -0.4338 -1.8506
    7MOL0     H  867   2.261   2.297   9.591  2.5590  0.7739  0.1941
    7MOL0     H  868   2.364   2.160   9.597  0.2030  1.0814 -0.0732
    7MOL0     H  869   2.062   2.145   9.569 -0.5808  0.3584 -1.8594
    7MOL0     H  870   2.175   2.011   9.573  2.1068  1.9488  5.7403
    7MOL0     H  871   2.143   2.246   9.375  4.3580  1.0556  2.7411
    7MOL0     H  872   2.108   2.070   9.354 -1.8463  0.1234  1.9844
    7MOL0     H  873   2.375   2.200   9.372 -0.2558  0.6654 -1.7364
    7MOL0     H  874   2.350   2.026   9.362 -1.8785 -0.8297  1.1362
    7MOL0     H  875   2.406   2.111   9.136 -0.1495 -0.2878 -2.3488
    7MOL0     H  876   2.279   2.221   9.144  1.2855 -0.3522 -0.3371
    7MOL0     H  877   2.025   2.131   9.076 -0.2515 -0.3933  1.8830
    7MOL0     H  878   1.888   1.831   8.898  2.3480 -1.8244  1.3627
    7MOL0     H  879   1.854   1.986   8.980 -1.5174 -0.8609  0.5803
    7MOL0     H  880   1.759   1.892   9.163 -2.5902 -3.0665  1.5985
    7MOL0     H  881   1.872   1.752   9.162  0.5801 -0.3491 -1.1855
    7MOL0     H  882   1.637   1.800   8.971  0.3367  1.9762  0.5361
    7MOL0     H  883   1.745   1.658   8.995 -0.7700  0.1315  0.2649
    7MOL0     H  884   1.641   1.626   9.221  0.6052  0.4122  0.0732
    7MOL0     H  885   1.506   1.633   9.100  0.4210  0.6200 -0.5970
    7MOL0     H  886   1.404   1.733   8.944 -3.7583  0.8206 -4.3571
    7MOL0     H  887   1.215   1.836   8.855 -1.0108  0.2886  1.3984
    7MOL0     H  888   0.809   2.121   8.918  0.0882  0.1308 -0.3692
    7MOL0     H  889   0.604   2.134   8.785  0.3108  0.8482 -0.3432
    7MOL0     H  890   0.416   2.165   8.581 -3.4181  0.3298 -1.4490
    7MOL0     H  891   0.446   2.007   8.665  3.4507 -1.7018 -1.2145
    7MOL0     H  892   0.254   1.970   8.518 -1.3459 -0.6579 -2.6211
    7MOL0     H  893   0.384   1.884   8.437  1.6286 -0.8140  2.3022
    7MOL0     H  894   0.407   2.111   8.304 -0.1057  0.9351 -0.1059
    7MOL0     H  895   0.261   2.160   8.392 -0.8290 -1.2535  0.6820
    7MOL0     H  896   0.282   1.927   8.203  0.9787  1.4987  1.0082
    7MOL0     H  897   0.148   1.928   8.300 -1.3897 -2.3362 -3.0691
    7MOL0     H  898   0.099   2.170   8.178 -0.1522 -1.4802  2.2281
    7MOL0     H  899   0.095   2.033   8.088 -0.6083  2.0043 -0.5072
    7MOL0     H  900   0.331   2.057   8.024  0.9071 -1.3444  1.3885
    7MOL0     H  901   0.336   2.214   8.117 -2.0346  2.7195 -1.2487
    7MOL0     H  902   0.181   2.197   7.872 -1.2807  2.1044  0.7853
    7MOL0     H  903   0.141   2.299   7.994 -3.1285 -2.8100 -2.5230
    7MOL0     H  904   0.340   2.420   7.982  0.0802  0.4564 -0.2164
    7MOL0     H  905   0.289   2.394   7.817 -1.7496 -0.4274  0.8349
    7MOL0     H  906   0.803   1.917   8.476  3.2709 -1.8497  1.7252
    7MOL0     H  907   1.002   1.898   8.624  0.6596  1.9008 -3.0250
    7MOL0     H  908   1.230   2.139   9.163  0.7180 -0.5394  1.4606
    7MOL0     H  909   1.405   1.998   9.277  1.5415 -2.4197 -0.9008
    7MOL0     H  910   2.063   2.077  10.213 -0.2325  0.6192 -1.2960
    7MOL0     H  911   1.984   2.115  10.445 -1.4943  0.5048 -2.4208
    7MOL0     H  912   2.170   2.096  10.900  1.3787  0.5059  0.3056
    7MOL0     H  913   2.118   2.139  11.127 -0.5253 -0.0629  0.3224
    7MOL0     H  914   1.842   2.435  11.276  0.1187 -1.1307 -0.2563
    7MOL0     H  915   2.000   2.530  11.273  0.6719 -0.8921 -0.3059
    7MOL0     H  916   2.056   2.394  11.492  0.3110  1.5575  1.4811
    7MOL0     H  917   1.938   2.498  11.529  1.0768 -3.1694  2.9922
    7MOL0     H  918   1.897   2.222  11.446  1.1631  0.9597 -2.5917
    7MOL0     H  919   1.769   2.345  11.452  1.6096 -0.8998 -3.5621
    7MOL0     H  920   1.793   2.367  11.706  2.3379 -0.1042  4.5800
    7MOL0     H  921   1.777   2.192  11.685  1.4742 -1.1949 -0.1414
    7MOL0     H  922   2.130   2.307  11.892  1.0168 -2.8211 -1.4862
    7MOL0     H  923   1.994   2.534  11.046  1.1779  0.8390 -0.3011
    7MOL0     H  924   2.047   2.508  10.820  1.0087  1.6224  2.9084
    8MOL0     O  925   4.343   3.344   3.274  0.0339  0.1697 -0.4094
    8MOL0     C  926   4.295   3.454   3.300 -0.2868  0.3800 -0.1939
    8MOL0     O  927   4.159   3.477   3.315  0.1612  0.3814 -0.6070
    8MOL0     C  928   4.070   3.378   3.292  0.2719  1.0413 -0.6748
    8MOL0     C  929   3.963   3.395   3.210  0.0066 -0.1580 -0.3265
    8MOL0     C  930   3.869   3.291   3.179  0.0260  0.6298 -0.2446
    8MOL0     C  931   3.884   3.169   3.251  0.2157  0.1927  0.1792
    8MOL0     O  932   3.797   3.068   3.246  0.8685  0.5142 -0.0370
    8MOL0     C  933   3.654   3.093   3.254 -0.0493  0.6137 -0.0269
    8MOL0     C  934   3.599   2.955   3.308 -0.1336 -1.0625  1.2040
    8MOL0     C  935   3.549   2.955   3.447  0.1977  0.1140 -0.4466
    8MOL0     C  936   3.493   2.818   3.490 -0.5932 -1.5390 -0.7869
    8MOL0     C  937   3.470   2.805   3.647 -0.2346 -0.4999  0.6637
    8MOL0     C  938   3.596   2.789   3.734 -0.5714  0.0946 -0.0895
    8MOL0     C  939   3.554   2.742   3.876 -0.1284 -0.4060 -0.5266
    8MOL0     C  940   3.678   2.713   3.960 -0.0290 -0.2022 -0.1515
    8MOL0     N  941   3.732   2.842   3.996 -1.1813 -0.5781  0.5688
    8MOL0     C  942   3.857   2.883   3.954  0.9830 -0.1994  1.2190
    8MOL0     C  943   3.889   2.980   4.040  0.1487  0.0049 -0.1892
    8MOL0     C  944   4.007   3.064   4.028 -0.0436  1.5092  0.2497
    8MOL0     C  945   4.129   2.977   4.066 -0.1571  0.5523 -0.4156
    8MOL0     C  946   4.249   3.043   4.003 -0.6525 -0.2926 -0.2115
    8MOL0     C  947   4.378   2.992   4.067  0.3344 -0.6951 -0.0330
    8MOL0     O  948   4.495   3.011   3.981  0.8326 -0.1710  0.0071
    8MOL0     C  949   4.552   3.135   3.987  0.2985  0.2382 -0.3337
    8MOL0     C  950   4.665   3.145   3.903  0.8367  0.2872 -0.8926
    8MOL0     C  951   4.724   3.265   3.883 -0.0906 -0.3618 -1.1819
    8MOL0     C  952   4.679   3.377   3.951  0.2627 -0.7029  0.7160
    8MOL0     C  953   4.744   3.511   3.945 -0.3308 -0.1558 -0.5033
    8MOL0     O  954   4.820   3.520   3.824  0.5985 -0.3772 -0.8918
    8MOL0     C  955   4.877   3.649   3.808 -0.7082 -0.6321  0.1855
    8MOL0     C  956   4.814   3.744   3.720 -0.4023  0.5587 -0.3309
    8MOL0     C  957   4.855   3.881   3.715 -0.6097 -0.4466  0.3214
    8MOL0     C  958   4.976   3.915   3.780  0.2918 -0.6223 -0.0779
    8MOL0     O  959   5.026   4.044   3.787  0.0133  0.3506  0.7800
    8MOL0     C  960   4.979   4.138   3.689 -0.1292  0.9164  0.4687
    8MOL0     C  961   5.042   4.274   3.726  0.6398  0.5338  0.3054
    8MOL0     C  962   4.985   4.380   3.632  0.2384 -0.7536  0.1094
    8MOL0     C  963   4.994   4.523   3.685  0.4801  0.2888  0.4311
    8MOL0     C  964   4.896   4.618   3.612 -0.1811  0.1098 -0.5512
    8MOL0     C  965   4.870   4.601   3.459 -0.9696  0.5054 -0.3274
    8MOL0     C  966   4.999   4.643   3.392 -0.5899  0.3381 -0.2821
    8MOL0     C  967   4.981   4.645   3.239  0.3336 -0.0138 -1.6125
    8MOL0    Cl  968   4.887   4.788   3.167 -0.0062  0.1155 -0.1605
    8MOL0     C  969   5.037   3.819   3.863 -0.7078  0.5151 -0.4105
    8MOL0     C  970   4.983   3.687   3.878 -0.6845  0.0271 -1.5011
    8MOL0     O  971   4.721   3.608   4.023  0.3456  1.0288  0.1246
    8MOL0     C  972   4.562   3.375   4.022 -0.3267  0.0346 -0.6107
    8MOL0     C  973   4.500   3.254   4.047 -0.4789  0.0390  0.8344
    8MOL0     N  974   3.782   3.000   4.124  0.2799 -1.4474 -0.6252
    8MOL0     N  975   3.692   2.920   4.094 -0.0907  0.1208 -0.2278
    8MOL0     C  976   3.996   3.146   3.336 -1.0368  0.1896 -0.6842
    8MOL0     C  977   4.089   3.256   3.349  0.0462  0.1416 -0.2307
    8MOL0     C  978   4.389   3.561   3.327 -0.6626  0.0643  0.7850
    8MOL0     C  979   4.351   3.678   3.390  0.0677 -0.0261 -0.4196
    8MOL0     C  980   4.444   3.776   3.409  1.1530 -0.7775  0.2534
    8MOL0     C  981   4.570   3.768   3.354 -0.3264  0.1610  0.3498
    8MOL0     O  982   4.650   3.868   3.395  0.3685  0.3097  0.4775
    8MOL0     C  983   4.763   3.895   3.313 -0.4171  0.2136  0.2829
    8MOL0     C  984   4.892   3.828   3.370 -0.0203 -0.4506  0.2938
    8MOL0     C  985   5.023   3.845   3.289  0.5175 -0.6776  0.0376
    8MOL0     C  986   5.137   3.775   3.350 -0.9397  0.0398 -0.0313
    8MOL0     C  987   5.121   3.624   3.341  0.4550 -0.9945  0.0883
    8MOL0     C  988   5.090   3.507   3.311  0.1766 -0.5371 -0.7730
    8MOL0     C  989   4.615   3.646   3.300 -0.4629  0.0293  0.1996
    8MOL0     C  990   4.525   3.542   3.285 -0.0709 -0.3629 -0.2132
    8MOL0     H  991   3.948   3.484   3.151 -1.0134 -0.5632 -0.7108
    8MOL0     H  992   3.794   3.299   3.101 -3.0456 -1.6457  2.2269
    8MOL0     H  993   3.616   3.112   3.153 -1.2892  0.6098  0.4259
    8MOL0     H  994   3.635   3.176   3.323  1.9979 -0.6748  2.2524
    8MOL0     H  995   3.683   2.885   3.302  1.5520  0.9692 -1.3583
    8MOL0     H  996   3.516   2.931   3.241  2.1363 -1.4436 -1.6568
    8MOL0     H  997   3.482   3.041   3.463 -0.3119 -0.4895  0.8402
    8MOL0     H  998   3.634   2.971   3.514  0.1064  0.3207 -0.3780
    8MOL0     H  999   3.396   2.810   3.440 -1.5386  2.1809  0.1578
    8MOL0     H 1000   3.569   2.747   3.456  0.1342 -1.8270  1.2719
    8MOL0     H 1001   3.401   2.721   3.658  1.2705 -1.9752 -0.5748
    8MOL0     H 1002   3.413   2.893   3.678  0.4685  0.7208 -1.2932
    8MOL0     H 1003   3.648   2.884   3.745  0.9096 -0.9431  2.9109
    8MOL0     H 1004   3.666   2.716   3.691  0.3491  0.6304  0.4626
    8MOL0     H 1005   3.481   2.814   3.914 -0.0937  0.0736 -1.3457
    8MOL0     H 1006   3.500   2.649   3.860 -2.6602  0.7823  0.5778
    8MOL0     H 1007   3.746   2.654   3.898 -1.0362  0.5831 -2.1175
    8MOL0     H 1008   3.649   2.651   4.045 -0.1413 -1.7006 -1.2439
    8MOL0     H 1009   3.925   2.833   3.885 -0.3925 -2.4466  1.3670
    8MOL0     H 1010   4.002   3.150   4.096  1.2004  2.3938 -0.7354
    8MOL0     H 1011   4.016   3.110   3.930  3.6771 -0.8369 -0.7395
    8MOL0     H 1012   4.137   2.878   4.020  0.4472  0.9187 -1.1377
    8MOL0     H 1013   4.132   2.966   4.175  1.3343  1.5101 -0.3239
    8MOL0     H 1014   4.239   3.037   3.894  0.3874  0.8993 -0.3877
    8MOL0     H 1015   4.247   3.150   4.028 -0.1924 -1.0451  3.7990
    8MOL0     H 1016   4.377   2.883   4.082 -3.1143 -0.8242 -0.4129
    8MOL0     H 1017   4.383   3.041   4.164 -1.2848  0.2998 -0.4130
    8MOL0     H 1018   4.711   3.056   3.860  1.1157  0.6232 -1.3088
    8MOL0     H 1019   4.804   3.281   3.812  0.2070  1.4396 -0.4892
    8MOL0     H 1020   4.734   3.712   3.654  0.2632 -1.3512 -0.2806
    8MOL0     H 1021   4.799   3.941   3.644  1.3640 -0.0829 -0.9799
    8MOL0     H 1022   4.871   4.140   3.703 -0.1638 -0.4347  0.5036
    8MOL0     H 1023   4.991   4.103   3.586 -0.1717  1.8263  0.1383
    8MOL0     H 1024   5.150   4.273   3.737  0.3974  0.5007  3.9479
    8MOL0     H 1025   5.013   4.308   3.826 -1.6564 -0.8900  0.2157
    8MOL0     H 1026   4.880   4.353   3.618  0.4843 -0.6672 -2.4123
    8MOL0     H 1027   5.031   4.366   3.534  1.1506  0.1235  0.3996
    8MOL0     H 1028   4.968   4.524   3.791 -3.2433  3.9242 -0.2605
    8MOL0     H 1029   5.096   4.561   3.683  0.1391  1.3968  2.0372
    8MOL0     H 1030   4.929   4.722   3.618 -3.1610  1.1588 -0.7506
    8MOL0     H 1031   4.799   4.604   3.661  0.8667  0.5864  1.7735
    8MOL0     H 1032   4.790   4.670   3.433 -2.4605 -0.2910  1.9049
    8MOL0     H 1033   4.846   4.497   3.437  0.6196  0.2368 -0.9725
    8MOL0     H 1034   5.028   4.743   3.425  0.9446 -0.3770  0.6874
    8MOL0     H 1035   5.072   4.564   3.416 -1.9909 -0.4265  1.7058
    8MOL0     H 1036   4.925   4.555   3.213 -0.7751 -0.6332  2.2407
    8MOL0     H 1037   5.080   4.660   3.195  0.5984  2.3334 -0.3985
    8MOL0     H 1038   5.115   3.854   3.929 -1.1389 -0.1688  0.4745
    8MOL0     H 1039   5.038   3.609   3.930 -0.0394  1.7719  0.6125
    8MOL0     H 1040   4.528   3.470   4.062  0.8447  0.4777 -0.6193
    8MOL0     H 1041   4.407   3.267   4.101 -0.7654  1.2344  0.0863
    8MOL0     H 1042   4.019   3.048   3.376 -2.3645 -0.5787 -1.7104
    8MOL0     H 1043   4.177   3.227   3.406 -0.1339 -1.2542 -0.6277
    8MOL0     H 1044   4.255   3.690   3.440 -1.3531  1.8582 -3.3716
    8MOL0     H 1045   4.417   3.859   3.473  1.0470 -0.1074 -0.6420
    8MOL0     H 1046   4.754   4.004   3.321 -5.2595  0.0178  0.4779
    8MOL0     H 1047   4.732   3.866   3.212 -1.7475 -1.8373  1.2156
    8MOL0     H 1048   4.912   3.864   3.471  1.0704  1.7312 -0.6176
    8MOL0     H 1049   4.876   3.720   3.373 -0.6649 -0.4548 -1.6504
    8MOL0     H 1050   5.059   3.948   3.294 -2.0135  0.2485  0.6931
    8MOL0     H 1051   5.007   3.821   3.183  2.5624 -7.7764  0.7967
    8MOL0     H 1052   5.230   3.791   3.296 -0.1130 -3.5279  0.0340
    8MOL0     H 1053   5.148   3.801   3.455 -1.8638 -0.2874  0.1599
    8MOL0     H 1054   5.050   3.410   3.287 -5.3303  0.9626  1.0696
    8MOL0     H 1055   4.716   3.625   3.268 -0.6682 -0.5769 -0.0673
    8MOL0     H 1056   4.564   3.454   3.234  1.1780  0.6601 -1.1032
    9MOL0     O 1057   3.844   1.434  11.109 -0.1731  0.0936  0.9905
    9MOL0     C 1058   3.827   1.474  11.220 -0.1390  0.6662  0.1979
    9MOL0     O 1059   3.771   1.407  11.326  1.0942 -0.1951  0.1793
    9MOL0     C 1060   3.756   1.270  11.317  0.2702 -0.2524  0.5502
    9MOL0     C 1061   3.834   1.180  11.234  0.1551 -0.2263 -0.8637
    9MOL0     C 1062   3.826   1.042  11.242  0.7939 -0.8349 -0.2071
    9MOL0     C 1063   3.735   0.986  11.336  0.4699  0.7420 -0.5065
    9MOL0     O 1064   3.710   0.848  11.344  0.1599 -0.5044 -0.0520
    9MOL0     C 1065   3.732   0.763  11.227 -0.3679  0.9746 -0.9319
    9MOL0     C 1066   3.623   0.653  11.242 -0.3316  1.0266  0.8991
    9MOL0     C 1067   3.468   0.692  11.226  0.1159  0.4917 -0.5487
    9MOL0     C 1068   3.388   0.565  11.241  0.3799  0.6535 -0.2117
    9MOL0     C 1069   3.241   0.588  11.217  0.3336  0.6745 -0.0093
    9MOL0     C 1070   3.202   0.640  11.072  0.4944  0.7936  0.6659
    9MOL0     C 1071   3.044   0.624  11.048  0.2858  0.4624 -0.1720
    9MOL0     C 1072   2.984   0.487  11.052  0.6840  0.3618 -0.7711
    9MOL0     N 1073   2.845   0.479  11.014 -0.2054 -0.6848  1.0267
    9MOL0     C 1074   2.787   0.361  10.967  0.2854  0.1821 -1.2058
    9MOL0     C 1075   2.660   0.397  10.929 -0.7587 -0.9605  0.6316
    9MOL0     C 1076   2.537   0.330  10.875 -0.2503 -0.6117  0.5826
    9MOL0     C 1077   2.401   0.339  10.938  0.1044  0.0186 -0.1551
    9MOL0     C 1078   2.388   0.249  11.066  0.4934 -0.0919  0.6043
    9MOL0     C 1079   2.443   0.103  11.043  0.5555 -1.5651  0.2051
    9MOL0     O 1080   2.583   0.097  11.080 -0.2093  0.4540  0.2073
    9MOL0     C 1081   2.648  -0.019  11.060  0.0868  0.2714 -0.2828
    9MOL0     C 1082   2.576  -0.136  11.064 -0.2922 -0.3539  0.5997
    9MOL0     C 1083   2.646  -0.255  11.034 -0.5975  0.3392 -0.6464
    9MOL0     C 1084   2.782  -0.263  11.011 -0.0208 -0.4187  0.1835
    9MOL0     C 1085   2.857  -0.394  11.015 -0.5388 -0.0142 -0.1535
    9MOL0     O 1086   2.986  -0.392  10.981  0.0456 -0.7510 -1.1239
    9MOL0     C 1087   3.057  -0.500  11.014 -0.6080  0.6400 -0.6600
    9MOL0     C 1088   3.113  -0.511  11.150 -0.0826  0.0685  1.0204
    9MOL0     C 1089   3.195  -0.621  11.186  0.2226  0.1444 -0.6396
    9MOL0     C 1090   3.210  -0.724  11.095 -0.0353 -0.1171 -0.5974
    9MOL0     O 1091   3.271  -0.843  11.118 -0.6897  0.2427 -0.2124
    9MOL0     C 1092   3.378  -0.864  11.208 -0.0593  0.3817  0.5214
    9MOL0     C 1093   3.469  -0.973  11.150 -0.3340 -0.5409  0.8296
    9MOL0     C 1094   3.404  -1.106  11.157  0.7268  0.1134 -0.1162
    9MOL0     C 1095   3.388  -1.154  11.297 -0.2865 -0.0005 -0.0629
    9MOL0     C 1096   3.302  -1.287  11.299  0.2488 -0.2659  0.2129
    9MOL0     C 1097   3.292  -1.323  11.455 -0.2277 -0.2536 -0.5058
    9MOL0     C 1098   3.191  -1.430  11.502 -0.2406  0.5902 -0.2147
    9MOL0     C 1099   3.225  -1.475  11.643  0.1936 -0.0552  0.7414
    9MOL0    Cl 1100   3.133  -1.626  11.662 -0.1856 -0.4778  0.0886
    9MOL0     C 1101   3.148  -0.714  10.969 -0.2739  0.3271  0.8704
    9MOL0     C 1102   3.077  -0.606  10.925  0.5108 -0.8218 -0.3400
    9MOL0     O 1103   2.790  -0.496  11.048  0.1282  0.7546  0.1654
    9MOL0     C 1104   2.843  -0.144  10.988 -0.8154 -1.0408 -0.5620
    9MOL0     C 1105   2.780  -0.023  11.016 -0.8078 -0.4900  0.0274
    9MOL0     N 1106   2.645   0.527  10.961  0.1432  1.0774 -0.5765
    9MOL0     N 1107   2.754   0.582  11.013 -0.1428 -0.4557  0.6994
    9MOL0     C 1108   3.652   1.074  11.410  1.2830  0.1545 -0.3042
    9MOL0     C 1109   3.659   1.215  11.406  0.5378 -1.0653  1.7015
    9MOL0     C 1110   3.866   1.616  11.243  0.0156 -0.5998 -0.4202
    9MOL0     C 1111   3.885   1.663  11.373 -0.0794 -0.6259  0.7720
    9MOL0     C 1112   3.920   1.794  11.400 -0.6414 -0.2199 -0.4981
    9MOL0     C 1113   3.934   1.882  11.302 -0.3002  0.1619 -0.3240
    9MOL0     O 1114   3.972   2.007  11.338 -0.3389  0.0941 -0.1383
    9MOL0     C 1115   3.958   2.117  11.242 -0.1912 -1.1695 -0.2481
    9MOL0     C 1116   3.981   2.252  11.305  0.2073 -0.5349 -0.1192
    9MOL0     C 1117   3.982   2.371  11.212  0.1782  0.7501 -0.2032
    9MOL0     C 1118   4.132   2.402  11.168 -0.1944 -0.3984 -0.0482
    9MOL0     C 1119   4.109   2.484  11.048 -0.6846  0.0871  0.1607
    9MOL0     C 1120   4.119   2.556  10.957  0.5817  0.2013  1.1104
    9MOL0     C 1121   3.929   1.836  11.167  0.7391 -0.0827  0.4684
    9MOL0     C 1122   3.884   1.708  11.141  0.0403 -0.3385  0.8439
    9MOL0     H 1123   3.925   1.216  11.187 -0.0986 -1.6205 -2.4760
    9MOL0     H 1124   3.896   0.973  11.196  1.5139  0.5754 -1.3366
    9MOL0     H 1125   3.826   0.706  11.224 -2.2327 -2.6763  1.7453
    9MOL0     H 1126   3.736   0.831  11.142  0.5742  0.7916 -1.0437
    9MOL0     H 1127   3.631   0.585  11.327  0.2480 -5.3425 -3.5013
    9MOL0     H 1128   3.649   0.570  11.176  2.0786  3.1743 -1.0992
    9MOL0     H 1129   3.446   0.758  11.141  3.8673  3.7996  0.7106
    9MOL0     H 1130   3.444   0.765  11.304  2.3214  1.2895 -0.5284
    9MOL0     H 1131   3.425   0.495  11.165  2.0475  2.1300 -0.8287
    9MOL0     H 1132   3.382   0.528  11.344 -1.6193 -1.9885 -1.1485
    9MOL0     H 1133   3.198   0.669  11.276  0.5578  0.6199  0.2301
    9MOL0     H 1134   3.188   0.494  11.238  2.8239 -1.3763 -2.0779
    9MOL0     H 1135   3.255   0.578  10.999 -3.0572 -3.0404  0.9142
    9MOL0     H 1136   3.245   0.738  11.054  0.4112  0.5909 -0.7377
    9MOL0     H 1137   2.993   0.684  11.125 -2.5551 -0.3524 -1.2721
    9MOL0     H 1138   3.012   0.663  10.950 -4.5873  0.7276  1.2394
    9MOL0     H 1139   3.002   0.440  11.149 -1.0065  1.0064 -0.1091
    9MOL0     H 1140   3.036   0.420  10.983  1.2843  1.1580 -1.1016
    9MOL0     H 1141   2.837   0.265  10.975 -3.4552 -1.8556 -0.1131
    9MOL0     H 1142   2.570   0.231  10.842 -0.2362  0.2864 -2.3508
    9MOL0     H 1143   2.527   0.383  10.780 -3.6197 -0.9936  0.6323
    9MOL0     H 1144   2.326   0.321  10.862  0.8097  0.9655 -1.1049
    9MOL0     H 1145   2.391   0.440  10.979  1.4592  0.1798 -0.1723
    9MOL0     H 1146   2.448   0.295  11.145  1.5899 -2.2037  1.0697
    9MOL0     H 1147   2.282   0.244  11.094  0.4301 -1.8560  0.1426
    9MOL0     H 1148   2.429   0.074  10.938 -0.2429 -0.7423  0.0697
    9MOL0     H 1149   2.370   0.054  11.108 -1.7266 -0.1206 -1.1300
    9MOL0     H 1150   2.469  -0.145  11.081 -0.3423 -1.4045 -0.1856
    9MOL0     H 1151   2.588  -0.346  11.027 -0.8810  0.6773 -4.0816
    9MOL0     H 1152   3.088  -0.434  11.222  0.1028  1.5573 -0.4262
    9MOL0     H 1153   3.226  -0.622  11.290 -0.0503  3.0785 -0.4317
    9MOL0     H 1154   3.345  -0.894  11.308 -0.3266 -0.3280  0.2247
    9MOL0     H 1155   3.441  -0.776  11.222  1.8958 -0.4317 -2.4280
    9MOL0     H 1156   3.572  -0.965  11.187  0.0158 -1.2206  0.0327
    9MOL0     H 1157   3.473  -0.958  11.042 -4.1918 -2.5508  0.2268
    9MOL0     H 1158   3.456  -1.187  11.103  0.7483 -2.0853  2.9567
    9MOL0     H 1159   3.300  -1.092  11.128  0.7772 -2.6446 -2.0912
    9MOL0     H 1160   3.485  -1.184  11.337 -1.3012 -1.0773  1.6776
    9MOL0     H 1161   3.345  -1.079  11.364 -0.1248  4.8343 -4.6896
    9MOL0     H 1162   3.351  -1.364  11.239 -0.6076 -0.6029 -0.0673
    9MOL0     H 1163   3.205  -1.271  11.251 -0.2186 -3.2112 -0.0247
    9MOL0     H 1164   3.255  -1.238  11.514  0.7505  1.6607 -2.5070
    9MOL0     H 1165   3.395  -1.344  11.486  0.6589  0.7929 -2.5791
    9MOL0     H 1166   3.088  -1.395  11.492 -0.3704 -0.2593 -2.5977
    9MOL0     H 1167   3.201  -1.520  11.440 -3.8246  0.2488 -0.4692
    9MOL0     H 1168   3.199  -1.406  11.725  0.4671  0.6076  0.2804
    9MOL0     H 1169   3.332  -1.499  11.642 -0.3426 -2.7242 -0.4515
    9MOL0     H 1170   3.160  -0.802  10.908 -0.2786  0.3178  0.8835
    9MOL0     H 1171   3.044  -0.607  10.822  2.1442  1.4325 -0.9487
    9MOL0     H 1172   2.948  -0.146  10.963 -0.5965 -0.9128  0.3211
    9MOL0     H 1173   2.829   0.073  10.999  0.4541 -1.3217 -1.1864
    9MOL0     H 1174   3.577   1.029  11.475 -0.4869  2.5621 -0.5425
    9MOL0     H 1175   3.596   1.259  11.483 -0.4487 -0.9978  0.8769
    9MOL0     H 1176   3.869   1.596  11.456  1.3596 -0.5157  1.1637
    9MOL0     H 1177   3.924   1.823  11.505 -0.8288  1.4700 -0.9424
    9MOL0     H 1178   3.859   2.113  11.196 -0.2829  1.0739 -0.3603
    9MOL0     H 1179   4.033   2.103  11.164  2.0745  2.1085  1.1424
    9MOL0     H 1180   3.896   2.266  11.373 -0.6811 -0.9129 -1.1120
    9MOL0     H 1181   4.072   2.251  11.365  0.2622 -0.7907 -0.2045
    9MOL0     H 1182   3.929   2.455  11.257 -0.2275 -0.6684  2.1059
    9MOL0     H 1183   3.922   2.343  11.125  0.2093 -1.9865  0.5723
    9MOL0     H 1184   4.207   2.446  11.234  0.5947 -0.7893 -0.6629
    9MOL0     H 1185   4.184   2.313  11.130  0.5252  1.1936 -3.1453
    9MOL0     H 1186   4.153   2.615  10.874  4.2614 -1.2600  1.3600
    9MOL0     H 1187   3.938   1.907  11.085  4.3610  0.9567  1.6097
    9MOL0     H 1188   3.855   1.688  11.038 -2.4310  2.3238  0.8970
   10MOL0     O 1189   5.177   4.386   8.706  0.0317  0.1828 -0.6081
   10MOL0     C 1190   5.226   4.278   8.689 -0.2971 -0.2011  0.5469
   10MOL0     O 1191   5.357   4.257   8.652 -0.4026  0.3430  0.3797
   10MOL0     C 1192   5.450   4.360   8.645  0.4724  0.8203 -1.1570
   10MOL0     C 1193   5.483   4.415   8.526  0.2839  0.2663 -0.1262
   10MOL0     C 1194   5.571   4.527   8.510  0.3228  0.2085 -0.0294
   10MOL0     C 1195   5.624   4.578   8.633  0.2530  0.6458  0.7339
   10MOL0     O 1196   5.715   4.690   8.638 -0.5519  0.1654  0.3719
   10MOL0     C 1197   5.719   4.770   8.517 -0.4014  0.6225  0.2077
   10MOL0     C 1198   5.777   4.908   8.552  0.2321 -1.0462 -0.8177
   10MOL0     C 1199   5.856   4.976   8.432  1.1255  0.0086 -0.4550
   10MOL0     C 1200   5.984   4.904   8.383 -0.4006 -0.5596  0.3199
   10MOL0     C 1201   6.028   4.966   8.250 -0.1349 -1.1760  0.1527
   10MOL0     C 1202   5.940   4.923   8.132  0.9442 -0.1364 -0.2106
   10MOL0     C 1203   5.984   4.990   8.006  0.0410 -0.3773 -0.4001
   10MOL0     C 1204   5.920   4.955   7.881  0.4206 -0.3611  0.6665
   10MOL0     N 1205   6.014   4.988   7.768 -1.1207  0.0798  0.1117
   10MOL0     C 1206   6.016   5.114   7.701 -0.4577 -0.2095  0.0460
   10MOL0     C 1207   6.103   5.098   7.597 -0.3659  0.9868 -0.8980
   10MOL0     C 1208   6.142   5.212   7.506  0.5931 -0.7829 -1.0123
   10MOL0     C 1209   6.092   5.203   7.361 -0.2046  0.6499 -0.4003
   10MOL0     C 1210   6.193   5.108   7.300 -0.2193 -0.4075  0.6601
   10MOL0     C 1211   6.180   5.107   7.144  0.1240 -0.6370 -0.6474
   10MOL0     O 1212   6.047   5.109   7.105 -0.1548  0.4160  0.1024
   10MOL0     C 1213   5.957   5.005   7.120  0.2008  0.5698  0.1145
   10MOL0     C 1214   5.986   4.880   7.179  0.3143  0.4474 -0.3355
   10MOL0     C 1215   5.883   4.785   7.196 -0.0848  0.5356  0.3294
   10MOL0     C 1216   5.750   4.825   7.154 -0.0428  0.5483 -0.8790
   10MOL0     C 1217   5.641   4.748   7.201  0.5212  0.0334  0.2727
   10MOL0     O 1218   5.524   4.818   7.209  0.4736  0.3683 -0.0113
   10MOL0     C 1219   5.411   4.749   7.216 -0.0588  0.3920  0.6925
   10MOL0     C 1220   5.314   4.764   7.112  0.7135  1.1079  0.1586
   10MOL0     C 1221   5.190   4.698   7.120 -0.0886 -1.4010 -0.2305
   10MOL0     C 1222   5.150   4.650   7.246 -0.5482 -0.0771  0.3637
   10MOL0     O 1223   5.021   4.612   7.271 -0.6782  0.6661 -0.8720
   10MOL0     C 1224   5.003   4.476   7.316 -1.0077 -0.3311 -0.5811
   10MOL0     C 1225   4.858   4.420   7.303  0.2923  0.2704 -0.1478
   10MOL0     C 1226   4.846   4.273   7.353 -0.0939  0.1512 -0.6056
   10MOL0     C 1227   4.715   4.218   7.297 -0.4052 -0.8141 -0.8708
   10MOL0     C 1228   4.683   4.068   7.331 -0.0825  0.9306 -0.6036
   10MOL0     C 1229   4.789   3.969   7.285  0.7437  0.0658 -0.1666
   10MOL0     C 1230   4.795   3.973   7.134  0.3950  0.7345  0.7491
   10MOL0     C 1231   4.847   3.842   7.073 -0.6599 -1.1739 -0.7048
   10MOL0    Cl 1232   4.781   3.813   6.908  0.0531  0.5596 -0.4702
   10MOL0     C 1233   5.247   4.643   7.349 -0.8454 -0.5739  0.0536
   10MOL0     C 1234   5.373   4.704   7.338  0.8302  0.5377 -1.2997
   10MOL0     O 1235   5.653   4.628   7.225  0.0728  0.1682  1.0951
   10MOL0     C 1236   5.731   4.932   7.072  0.5194 -0.0829 -1.7802
   10MOL0     C 1237   5.826   5.030   7.068 -1.0240  1.1135  0.7453
   10MOL0     N 1238   6.149   4.963   7.604  0.3758  0.9884 -0.6083
   10MOL0     N 1239   6.098   4.903   7.697  0.4331  0.4795  0.1077
   10MOL0     C 1240   5.609   4.501   8.748 -1.3620  0.1413  0.3977
   10MOL0     C 1241   5.525   4.394   8.757 -0.2557 -0.1757 -0.4013
   10MOL0     C 1242   5.141   4.156   8.708  0.2418 -0.4025  0.4869
   10MOL0     C 1243   5.193   4.028   8.707 -0.3066 -1.0573  0.4022
   10MOL0     C 1244   5.124   3.920   8.750 -0.1455  0.2412 -0.6470
   10MOL0     C 1245   4.994   3.934   8.782  0.3132  0.4619 -0.5618
   10MOL0     O 1246   4.915   3.826   8.813  0.5420  0.1007  0.2418
   10MOL0     C 1247   4.809   3.850   8.909 -0.1240  0.2536 -0.2474
   10MOL0     C 1248   4.787   3.730   9.006  1.3165 -1.0844  0.2636
   10MOL0     C 1249   4.736   3.614   8.922  0.0033  0.1797  0.3883
   10MOL0     C 1250   4.750   3.477   8.995  0.1891  0.0707 -0.1933
   10MOL0     C 1251   4.877   3.428   8.986 -0.4591  0.1838 -0.5931
   10MOL0     C 1252   4.989   3.390   9.020 -0.1302  0.5075  0.1799
   10MOL0     C 1253   4.928   4.061   8.764  0.1822 -1.0666 -1.4607
   10MOL0     C 1254   5.006   4.174   8.738 -0.5763 -0.6392 -0.1586
   10MOL0     H 1255   5.429   4.362   8.448 -0.5876 -0.5580  1.0045
   10MOL0     H 1256   5.594   4.558   8.409 -1.3371  0.7421 -0.2653
   10MOL0     H 1257   5.620   4.782   8.471 -0.9715 -0.6305  1.0650
   10MOL0     H 1258   5.784   4.712   8.451  2.0333  0.0670  2.8690
   10MOL0     H 1259   5.852   4.908   8.631 -1.5386 -1.4822  0.9633
   10MOL0     H 1260   5.698   4.972   8.592 -0.0070  0.2152 -3.1370
   10MOL0     H 1261   5.881   5.080   8.455 -5.6690  1.8698  0.7603
   10MOL0     H 1262   5.773   4.984   8.361 -0.7135  0.9261  1.6449
   10MOL0     H 1263   6.073   4.916   8.445  0.6938 -3.9147 -0.3691
   10MOL0     H 1264   5.966   4.798   8.361  0.3452 -0.7696  0.6721
   10MOL0     H 1265   6.131   4.936   8.226 -0.1903  0.4095 -2.3663
   10MOL0     H 1266   6.031   5.074   8.269  3.7681 -1.1392  0.2628
   10MOL0     H 1267   5.844   4.970   8.155  2.8045  3.8034  0.3089
   10MOL0     H 1268   5.924   4.816   8.122 -0.0350  0.1166 -1.6730
   10MOL0     H 1269   5.984   5.100   8.011  1.9245 -0.2425 -2.3107
   10MOL0     H 1270   6.090   4.964   7.999  0.5073  1.2143  0.2633
   10MOL0     H 1271   5.827   5.011   7.863  1.7687  0.8734 -3.6244
   10MOL0     H 1272   5.898   4.848   7.875  2.1613 -0.9783  3.6369
   10MOL0     H 1273   5.963   5.202   7.737  0.9929  0.4736  0.5809
   10MOL0     H 1274   6.246   5.239   7.521 -0.2947  0.9195  3.7773
   10MOL0     H 1275   6.085   5.291   7.555  0.8216  0.5218 -2.7705
   10MOL0     H 1276   6.114   5.294   7.304 -1.1663 -0.6262 -2.9554
   10MOL0     H 1277   5.995   5.161   7.334  0.0414  1.1107 -2.1958
   10MOL0     H 1278   6.296   5.139   7.320  0.2180  1.2567 -3.2950
   10MOL0     H 1279   6.173   5.005   7.331 -1.6575 -0.1380  0.7095
   10MOL0     H 1280   6.212   5.013   7.099 -3.8220 -1.3516 -2.3813
   10MOL0     H 1281   6.242   5.191   7.109 -1.1142  2.1420  3.1297
   10MOL0     H 1282   6.085   4.844   7.203 -0.4492 -1.4638  0.1340
   10MOL0     H 1283   5.914   4.693   7.245  2.3976  2.5099  2.7575
   10MOL0     H 1284   5.337   4.787   7.008 -4.8202 -0.3223 -1.7401
   10MOL0     H 1285   5.122   4.692   7.036  0.3860 -2.0964 -0.5805
   10MOL0     H 1286   5.012   4.474   7.425  0.7262  0.4986 -0.6682
   10MOL0     H 1287   5.083   4.411   7.280  0.7488  2.0694 -1.3280
   10MOL0     H 1288   4.842   4.423   7.195  0.9824 -0.5385 -0.2822
   10MOL0     H 1289   4.789   4.480   7.363  1.6100  1.8672 -0.1572
   10MOL0     H 1290   4.830   4.265   7.460  2.0995  1.4236 -0.1041
   10MOL0     H 1291   4.934   4.217   7.322 -0.6830 -0.7357 -0.6944
   10MOL0     H 1292   4.635   4.282   7.337  1.0635 -0.8214  2.4137
   10MOL0     H 1293   4.725   4.230   7.188  0.4333  4.0542 -0.4964
   10MOL0     H 1294   4.592   4.042   7.275 -0.1411  0.0909 -0.1377
   10MOL0     H 1295   4.665   4.045   7.436  0.9241 -2.6723 -1.1130
   10MOL0     H 1296   4.784   3.866   7.321  1.8882 -0.2224 -0.7767
   10MOL0     H 1297   4.878   4.009   7.335  1.3680  0.4514 -1.5400
   10MOL0     H 1298   4.687   3.970   7.112 -0.0195 -3.0588  2.4925
   10MOL0     H 1299   4.856   4.056   7.097  3.1220 -2.3907 -2.5197
   10MOL0     H 1300   4.819   3.758   7.136  0.2362  0.3940  1.9542
   10MOL0     H 1301   4.955   3.855   7.058 -0.9100  0.0271 -1.6960
   10MOL0     H 1302   5.220   4.599   7.444 -1.3100 -1.3382 -0.4238
   10MOL0     H 1303   5.438   4.719   7.424 -2.2848  1.4632  1.0963
   10MOL0     H 1304   5.629   4.961   7.047 -0.9837 -1.3156  2.0337
   10MOL0     H 1305   5.789   5.111   7.007 -3.0324  1.0999  1.8518
   10MOL0     H 1306   5.651   4.525   8.845 -2.4441 -2.2460  1.5222
   10MOL0     H 1307   5.515   4.343   8.853  2.2001  1.5598  0.8795
   10MOL0     H 1308   5.295   4.023   8.671 -0.9466  0.9369 -1.9787
   10MOL0     H 1309   5.184   3.830   8.761  3.0022  2.1760 -0.9572
   10MOL0     H 1310   4.711   3.873   8.866 -0.0636 -0.2109 -0.6397
   10MOL0     H 1311   4.841   3.936   8.970 -1.5016 -0.3494  1.4331
   10MOL0     H 1312   4.884   3.708   9.053  1.0716  0.1742  1.4337
   10MOL0     H 1313   4.720   3.757   9.089 -1.4138  2.4623 -2.7192
   10MOL0     H 1314   4.791   3.601   8.829 -1.0548 -0.2440 -0.1876
   10MOL0     H 1315   4.631   3.638   8.900 -1.4452 -2.5536  3.4547
   10MOL0     H 1316   4.718   3.476   9.099 -0.7385 -0.4722 -0.4644
   10MOL0     H 1317   4.693   3.399   8.943  2.7814 -3.3888  1.7046
   10MOL0     H 1318   5.082   3.353   9.056  0.0096 -0.8823 -1.4809
   10MOL0     H 1319   4.822   4.086   8.769  0.2471 -0.5053 -2.5065
   10MOL0     H 1320   4.962   4.273   8.747  0.8871  0.3053 -2.4067
   11MOL0     O 1321   8.707   5.634   4.704 -0.0646 -0.5299  0.1336
   11MOL0     C 1322   8.799   5.669   4.628 -0.2279 -0.1559  0.8380
   11MOL0     O 1323   8.788   5.736   4.506  0.1572 -0.4521 -0.7811
   11MOL0     C 1324   8.667   5.773   4.460 -0.4620 -0.7718  0.2729
   11MOL0     C 1325   8.656   5.899   4.406 -1.1326 -1.5118 -0.5014
   11MOL0     C 1326   8.546   5.939   4.348  0.2459  0.5869 -1.1904
   11MOL0     C 1327   8.437   5.863   4.347 -0.2578 -0.8432  0.2479
   11MOL0     O 1328   8.327   5.921   4.299 -0.5082  0.4950  1.0339
   11MOL0     C 1329   8.237   5.839   4.222 -0.4339 -0.8157 -0.5563
   11MOL0     C 1330   8.160   5.926   4.113  0.5003  0.2039 -0.2307
   11MOL0     C 1331   8.233   5.915   3.984 -0.1359  0.4284 -0.6384
   11MOL0     C 1332   8.151   5.967   3.864 -0.2270  0.7732  0.0184
   11MOL0     C 1333   8.233   5.939   3.734 -0.1013  0.4881 -1.1525
   11MOL0     C 1334   8.156   5.995   3.611 -0.9794  0.3328  0.0336
   11MOL0     C 1335   8.242   5.961   3.484  0.0298  0.7237  0.6675
   11MOL0     C 1336   8.192   6.013   3.342  0.1535  0.5337  0.7718
   11MOL0     N 1337   8.257   5.956   3.222 -0.7625 -0.0033 -0.2945
   11MOL0     C 1338   8.201   5.901   3.109  0.5238  0.9812  0.0198
   11MOL0     C 1339   8.298   5.904   3.012  0.0681 -1.6981  0.3732
   11MOL0     C 1340   8.277   5.838   2.877 -0.4522  0.0789  0.8698
   11MOL0     C 1341   8.220   5.936   2.777  0.2425 -1.0616 -0.1578
   11MOL0     C 1342   8.074   5.972   2.815 -0.7129 -0.7591  0.2385
   11MOL0     C 1343   7.989   6.025   2.700 -0.4717 -0.4112 -0.6949
   11MOL0     O 1344   8.059   6.144   2.662  0.1979 -0.8721  0.4880
   11MOL0     C 1345   7.998   6.227   2.571  0.6210  0.0914  0.7262
   11MOL0     C 1346   8.037   6.355   2.551 -0.8143 -0.6198 -0.2532
   11MOL0     C 1347   7.977   6.442   2.457  0.2232  0.1509 -1.1264
   11MOL0     C 1348   7.860   6.399   2.397  0.3043  0.0336  0.6192
   11MOL0     C 1349   7.795   6.491   2.304 -0.1532  0.2421 -1.0399
   11MOL0     O 1350   7.862   6.610   2.283 -0.9078 -0.2041 -1.1816
   11MOL0     C 1351   7.831   6.680   2.172  0.0766 -0.5238 -0.4910
   11MOL0     C 1352   7.831   6.632   2.038 -0.3814  0.9894 -0.4284
   11MOL0     C 1353   7.814   6.734   1.939  0.4947  1.1875  0.0162
   11MOL0     C 1354   7.782   6.870   1.970  0.2264 -0.5854  0.3788
   11MOL0     O 1355   7.733   6.944   1.869 -0.0646 -0.5178 -0.2036
   11MOL0     C 1356   7.739   7.088   1.871 -0.0414 -0.9343  0.2773
   11MOL0     C 1357   7.732   7.164   1.740  0.6515  1.3519  0.5204
   11MOL0     C 1358   7.722   7.313   1.753 -0.1493 -1.1079  0.5607
   11MOL0     C 1359   7.594   7.403   1.791 -0.6093 -0.6462  0.5455
   11MOL0     C 1360   7.638   7.552   1.817 -0.0541 -0.5606 -0.3613
   11MOL0     C 1361   7.689   7.637   1.692 -0.1155 -0.7665  0.9920
   11MOL0     C 1362   7.708   7.786   1.728 -0.5362 -0.0851  0.9162
   11MOL0     C 1363   7.734   7.865   1.594 -0.0096 -0.3340  0.7471
   11MOL0    Cl 1364   7.776   8.042   1.630 -0.1682  0.4964 -0.0292
   11MOL0     C 1365   7.787   6.904   2.104 -0.5707 -0.2228 -1.0349
   11MOL0     C 1366   7.814   6.814   2.203 -0.4672  1.0669 -0.1984
   11MOL0     O 1367   7.700   6.451   2.233  0.4345 -1.0234  0.0529
   11MOL0     C 1368   7.808   6.265   2.417 -0.2748 -0.4913  0.3001
   11MOL0     C 1369   7.888   6.179   2.496  0.1623 -0.4240 -0.1001
   11MOL0     N 1370   8.407   5.973   3.064 -0.6438  0.1688 -0.0019
   11MOL0     N 1371   8.376   6.002   3.188  0.9651 -0.5152 -0.0834
   11MOL0     C 1372   8.435   5.733   4.397 -0.4583  0.1263  0.0875
   11MOL0     C 1373   8.553   5.688   4.454 -0.6554 -0.2511  0.1647
   11MOL0     C 1374   8.929   5.618   4.659  1.6835 -0.4365 -0.5158
   11MOL0     C 1375   9.027   5.606   4.559  0.5968  0.1573 -0.6126
   11MOL0     C 1376   9.154   5.548   4.593  0.3411  0.3959  0.6120
   11MOL0     C 1377   9.183   5.511   4.720  1.2173 -0.6014 -0.6870
   11MOL0     O 1378   9.307   5.460   4.744  0.1788 -0.5301 -0.4504
   11MOL0     C 1379   9.312   5.334   4.811 -0.1873 -0.0916  0.2412
   11MOL0     C 1380   9.435   5.331   4.907 -0.8166  0.5155 -0.8532
   11MOL0     C 1381   9.396   5.382   5.044 -0.0256 -0.6711  0.5099
   11MOL0     C 1382   9.519   5.430   5.126  0.3938  0.0769 -0.7394
   11MOL0     C 1383   9.631   5.332   5.131  0.5990  0.0582 -0.9169
   11MOL0     C 1384   9.725   5.259   5.149 -0.0039  0.1791  0.4831
   11MOL0     C 1385   9.087   5.518   4.821 -0.8024  0.3500  0.3980
   11MOL0     C 1386   8.962   5.574   4.788  1.3277  0.6953  0.0707
   11MOL0     H 1387   8.740   5.966   4.421 -0.6559 -1.8046 -1.8102
   11MOL0     H 1388   8.548   6.039   4.305 -0.2409 -0.0081 -2.6711
   11MOL0     H 1389   8.163   5.820   4.300  0.8185  1.7995  1.4345
   11MOL0     H 1390   8.276   5.741   4.191 -1.5448 -2.3890  2.5317
   11MOL0     H 1391   8.160   6.029   4.149  3.7814  0.1178  0.2524
   11MOL0     H 1392   8.057   5.888   4.105 -0.2643  2.2699 -1.0021
   11MOL0     H 1393   8.252   5.808   3.970 -1.1120  0.3441 -1.3527
   11MOL0     H 1394   8.324   5.976   3.993  0.8065 -1.1697  2.2771
   11MOL0     H 1395   8.054   5.917   3.863  0.6070 -0.9316  0.7496
   11MOL0     H 1396   8.131   6.074   3.877  1.4708  1.6005 -3.0729
   11MOL0     H 1397   8.249   5.832   3.719 -1.0662  0.2578 -0.6217
   11MOL0     H 1398   8.330   5.988   3.739 -1.6348  3.7151  0.4115
   11MOL0     H 1399   8.155   6.104   3.622  1.4006  0.5825 -1.4098
   11MOL0     H 1400   8.056   5.950   3.613 -2.0067  2.4863 -0.5362
   11MOL0     H 1401   8.344   5.998   3.501  0.0955 -0.1936  2.5236
   11MOL0     H 1402   8.242   5.852   3.472  0.6861  0.6572  1.2393
   11MOL0     H 1403   8.208   6.121   3.334 -5.4523  1.6935  1.4930
   11MOL0     H 1404   8.086   6.003   3.318  1.1151  0.2131 -4.9257
   11MOL0     H 1405   8.100   5.862   3.101  1.1846 -0.5773 -1.2088
   11MOL0     H 1406   8.215   5.749   2.890  3.0400 -2.3126  2.7628
   11MOL0     H 1407   8.371   5.793   2.846 -0.6987 -0.3515  0.7342
   11MOL0     H 1408   8.203   5.879   2.685 -1.1593  0.3716 -0.8347
   11MOL0     H 1409   8.284   6.021   2.750 -1.7880  0.8345  0.6665
   11MOL0     H 1410   8.023   5.888   2.863 -1.4940  0.0345  0.8243
   11MOL0     H 1411   8.082   6.052   2.889  1.5487 -0.7549  0.0691
   11MOL0     H 1412   7.887   6.048   2.734 -0.6615  0.0638 -1.5341
   11MOL0     H 1413   7.992   5.950   2.620 -0.7587 -1.3631  0.1666
   11MOL0     H 1414   8.119   6.387   2.615 -1.2767 -1.7393  0.9390
   11MOL0     H 1415   8.006   6.546   2.452 -1.3402  0.7766  1.1804
   11MOL0     H 1416   7.846   6.529   2.007 -2.8402  0.1275  0.9273
   11MOL0     H 1417   7.818   6.729   1.831  0.1700  2.7194 -0.0970
   11MOL0     H 1418   7.842   7.111   1.902  0.1206  0.0878 -0.9278
   11MOL0     H 1419   7.682   7.143   1.946  2.5822  2.8155 -0.1690
   11MOL0     H 1420   7.640   7.134   1.689  1.6530  1.9795 -1.8162
   11MOL0     H 1421   7.816   7.142   1.672  0.0807 -1.3353  0.5786
   11MOL0     H 1422   7.746   7.337   1.649  0.0016 -2.6527  0.2152
   11MOL0     H 1423   7.803   7.350   1.816  0.8404 -2.4859  0.1325
   11MOL0     H 1424   7.526   7.397   1.705  0.0995 -0.0894 -0.0739
   11MOL0     H 1425   7.552   7.354   1.879 -1.5949  0.3964  0.6639
   11MOL0     H 1426   7.719   7.564   1.889  0.2498  0.3551 -0.8504
   11MOL0     H 1427   7.549   7.604   1.854  0.9494  1.3442 -0.5277
   11MOL0     H 1428   7.620   7.618   1.610  1.2174  1.5794 -0.7933
   11MOL0     H 1429   7.787   7.601   1.658 -0.4508  0.0144 -0.9228
   11MOL0     H 1430   7.616   7.822   1.776 -0.1080  4.1036 -1.0325
   11MOL0     H 1431   7.793   7.802   1.795 -0.4808  0.7615  0.6492
   11MOL0     H 1432   7.656   7.850   1.519 -0.5511 -3.3771  1.7692
   11MOL0     H 1433   7.826   7.825   1.551 -0.7316  0.3577 -1.5602
   11MOL0     H 1434   7.771   7.007   2.136 -0.8791 -0.7584  0.6136
   11MOL0     H 1435   7.841   6.856   2.299  1.3291 -3.1689  1.3689
   11MOL0     H 1436   7.712   6.235   2.375  0.5238 -1.3416 -0.9860
   11MOL0     H 1437   7.846   6.079   2.498 -0.5859 -0.1615 -1.5878
   11MOL0     H 1438   8.346   5.672   4.393 -0.2684 -0.1171 -0.4709
   11MOL0     H 1439   8.550   5.596   4.511 -0.2044  0.3765  1.2261
   11MOL0     H 1440   9.005   5.634   4.457 -1.5156 -1.9692 -0.8210
   11MOL0     H 1441   9.232   5.535   4.519 -1.9596 -1.0379 -1.7394
   11MOL0     H 1442   9.329   5.256   4.736 -2.7153 -2.0335  1.5053
   11MOL0     H 1443   9.226   5.304   4.872  0.4576 -0.6444  0.8853
   11MOL0     H 1444   9.476   5.230   4.911  2.0868  1.5566 -2.0554
   11MOL0     H 1445   9.509   5.398   4.863  0.8834  1.0158  2.4423
   11MOL0     H 1446   9.353   5.309   5.113  0.1396  1.7213  3.3736
   11MOL0     H 1447   9.317   5.458   5.043  2.9953  2.7865  1.7289
   11MOL0     H 1448   9.562   5.521   5.081 -1.8339  3.2156  2.9067
   11MOL0     H 1449   9.498   5.462   5.228  4.4192 -0.8042  0.5527
   11MOL0     H 1450   9.823   5.219   5.167  1.4464  3.2538 -0.0127
   11MOL0     H 1451   9.126   5.485   4.917  4.0846 -1.4997 -1.9185
   11MOL0     H 1452   8.876   5.568   4.855 -0.7102  0.8305 -2.3529
   12MOL0     O 1453  10.913   3.252   5.280  0.0061 -0.3694  0.0923
   12MOL0     C 1454  10.904   3.134   5.319 -0.1254  0.1176  0.2843
   12MOL0     O 1455  10.806   3.076   5.397  0.0381 -0.9649 -0.2198
   12MOL0     C 1456  10.692   3.156   5.427  0.6644  1.0456  0.8595
   12MOL0     C 1457  10.693   3.250   5.533 -0.0576  0.0298 -0.1867
   12MOL0     C 1458  10.580   3.319   5.571 -0.6442  0.9399 -0.4318
   12MOL0     C 1459  10.459   3.298   5.509 -0.4108 -0.1790  0.0415
   12MOL0     O 1460  10.351   3.373   5.547 -0.6742 -0.0817  0.3591
   12MOL0     C 1461  10.229   3.357   5.475 -0.4460 -0.6559 -0.5575
   12MOL0     C 1462  10.124   3.463   5.526  0.4693  0.1175 -0.0866
   12MOL0     C 1463   9.972   3.419   5.515 -0.4701 -0.1795  0.7319
   12MOL0     C 1464   9.937   3.324   5.628  0.7846 -0.2680 -0.5714
   12MOL0     C 1465   9.804   3.238   5.608  0.6762  0.5274 -0.2939
   12MOL0     C 1466   9.667   3.321   5.601  0.3622 -0.1004  0.5550
   12MOL0     C 1467   9.595   3.333   5.735  0.1377  0.2532  0.3351
   12MOL0     C 1468   9.448   3.349   5.707  0.7860 -0.1706 -0.9042
   12MOL0     N 1469   9.384   3.431   5.806  0.1027  0.2956 -0.9953
   12MOL0     C 1470   9.397   3.411   5.944 -0.2593 -0.3982  0.5623
   12MOL0     C 1471   9.339   3.522   6.000  1.7091 -0.1995 -0.7290
   12MOL0     C 1472   9.347   3.559   6.153 -0.1196 -0.3182 -0.2193
   12MOL0     C 1473   9.220   3.602   6.225  1.0588  1.0540 -0.5122
   12MOL0     C 1474   9.135   3.471   6.225 -0.0324  0.2830  0.4170
   12MOL0     C 1475   9.009   3.504   6.301  0.1263  0.7758 -0.0296
   12MOL0     O 1476   8.926   3.386   6.318 -0.0216 -0.5362 -0.5213
   12MOL0     C 1477   8.788   3.384   6.291 -0.1485  0.5107  0.2841
   12MOL0     C 1478   8.738   3.261   6.286  0.4679  0.4205 -0.7994
   12MOL0     C 1479   8.601   3.242   6.259  0.1829 -0.7905 -0.1284
   12MOL0     C 1480   8.510   3.354   6.255 -0.1529 -0.2977 -0.0445
   12MOL0     C 1481   8.369   3.339   6.218 -0.1497  0.6787  0.4190
   12MOL0     O 1482   8.318   3.217   6.197 -0.0397  0.2872  0.1340
   12MOL0     C 1483   8.191   3.170   6.201  0.0300  0.0237 -0.3198
   12MOL0     C 1484   8.080   3.236   6.257 -0.0235 -0.8826 -0.7857
   12MOL0     C 1485   7.955   3.175   6.252  0.0470  0.0821 -0.0738
   12MOL0     C 1486   7.937   3.049   6.183  0.5119 -1.0442  0.1515
   12MOL0     O 1487   7.823   2.987   6.176 -0.2728 -0.1656  0.3673
   12MOL0     C 1488   7.704   3.080   6.207 -1.3050  0.4104  0.2414
   12MOL0     C 1489   7.590   3.011   6.133 -0.8796 -0.6780  1.1696
   12MOL0     C 1490   7.442   3.076   6.153 -0.8273 -0.7846  0.3809
   12MOL0     C 1491   7.406   3.120   6.295  0.9607  0.2466  0.6981
   12MOL0     C 1492   7.253   3.172   6.295  0.1750 -0.2512 -0.6602
   12MOL0     C 1493   7.198   3.200   6.443 -0.2030  0.2894 -0.9847
   12MOL0     C 1494   7.043   3.201   6.431  0.3665  1.2813  0.3387
   12MOL0     C 1495   6.972   3.288   6.527 -0.2806 -0.3451  0.6156
   12MOL0    Cl 1496   6.797   3.288   6.504 -0.2913  0.3369 -0.1126
   12MOL0     C 1497   8.045   2.990   6.125  0.6231 -0.3205 -0.1760
   12MOL0     C 1498   8.176   3.044   6.139  0.3845  0.6220 -0.0651
   12MOL0     O 1499   8.293   3.438   6.224  0.2302  0.4629 -0.5459
   12MOL0     C 1500   8.562   3.481   6.287  0.4459  0.9201 -0.1527
   12MOL0     C 1501   8.704   3.491   6.309  0.3602  0.1253  0.2196
   12MOL0     N 1502   9.290   3.600   5.899  0.7606  0.0879  0.4689
   12MOL0     N 1503   9.312   3.543   5.783  0.2071 -0.3116  0.0987
   12MOL0     C 1504  10.454   3.194   5.406 -0.8282 -0.9976  0.1391
   12MOL0     C 1505  10.569   3.124   5.366 -0.6563 -0.1101  0.3584
   12MOL0     C 1506  10.986   3.031   5.264  0.3874  0.0904  0.2379
   12MOL0     C 1507  11.114   3.063   5.211  0.0313 -0.4312 -0.4740
   12MOL0     C 1508  11.186   2.963   5.148 -0.8535 -0.8354 -0.2865
   12MOL0     C 1509  11.136   2.835   5.125 -0.3607 -0.1767  0.5038
   12MOL0     O 1510  11.201   2.739   5.053 -0.2813  0.2854  0.3518
   12MOL0     C 1511  11.326   2.759   4.972 -0.7800  0.0463  0.3299
   12MOL0     C 1512  11.293   2.777   4.833 -0.2439  0.2986 -0.3506
   12MOL0     C 1513  11.181   2.878   4.793 -0.5495  1.0060 -1.1877
   12MOL0     C 1514  11.228   3.024   4.798  0.3807 -0.2760 -0.3375
   12MOL0     C 1515  11.124   3.131   4.786  0.6462 -0.0924  0.2628
   12MOL0     C 1516  11.041   3.222   4.782 -0.3978 -0.4402 -0.2584
   12MOL0     C 1517  11.019   2.803   5.190 -0.3355 -0.3811  0.1073
   12MOL0     C 1518  10.939   2.897   5.256  0.3168 -0.6051 -0.4814
   12MOL0     H 1519  10.787   3.280   5.578 -0.7726  1.6715  0.2742
   12MOL0     H 1520  10.606   3.398   5.641  2.4736 -2.1302  2.1981
   12MOL0     H 1521  10.189   3.257   5.493 -0.2055 -0.7345 -0.4436
   12MOL0     H 1522  10.248   3.370   5.368  0.2522  1.4596 -0.2332
   12MOL0     H 1523  10.152   3.552   5.470  1.9368 -2.5477 -3.9541
   12MOL0     H 1524  10.148   3.497   5.627  1.2891 -0.3609 -0.1160
   12MOL0     H 1525   9.947   3.380   5.416  1.4049 -1.2116  0.6316
   12MOL0     H 1526   9.919   3.514   5.525 -0.0009  0.4029 -1.7492
   12MOL0     H 1527  10.016   3.259   5.667  1.8538  2.4381  2.1674
   12MOL0     H 1528   9.910   3.392   5.709 -2.5374  0.2679 -1.9609
   12MOL0     H 1529   9.804   3.174   5.696  0.5863 -0.5747 -1.0724
   12MOL0     H 1530   9.804   3.188   5.511 -1.4292  0.4640 -0.3198
   12MOL0     H 1531   9.596   3.272   5.533  0.5481  1.9213 -1.1672
   12MOL0     H 1532   9.694   3.419   5.560  3.6789 -1.3782 -0.6949
   12MOL0     H 1533   9.606   3.244   5.798 -2.6199 -0.2488  0.2260
   12MOL0     H 1534   9.641   3.422   5.779  0.4291  2.0311 -3.1700
   12MOL0     H 1535   9.400   3.252   5.700 -0.3849  0.2735  0.4348
   12MOL0     H 1536   9.424   3.397   5.612  0.3091 -0.0658 -0.7314
   12MOL0     H 1537   9.462   3.345   6.001 -2.0366  0.2244  3.5255
   12MOL0     H 1538   9.415   3.645   6.164 -0.5956 -0.0255  0.4970
   12MOL0     H 1539   9.382   3.469   6.203  1.7219  1.2901  1.5290
   12MOL0     H 1540   9.166   3.688   6.184 -0.9941  0.2349  0.3360
   12MOL0     H 1541   9.243   3.637   6.326  1.5280  2.5358 -1.1178
   12MOL0     H 1542   9.109   3.437   6.124 -0.0103 -0.7640  0.7542
   12MOL0     H 1543   9.189   3.392   6.277 -0.8862  2.2083  4.6068
   12MOL0     H 1544   8.968   3.590   6.247 -1.5930  0.8258  1.2376
   12MOL0     H 1545   9.031   3.538   6.403 -0.0791  2.3156 -0.4818
   12MOL0     H 1546   8.806   3.185   6.322  1.4884  0.1197 -3.1413
   12MOL0     H 1547   8.563   3.141   6.242 -1.3971 -0.0844 -0.9821
   12MOL0     H 1548   8.088   3.340   6.286  0.5100 -1.3080  0.6452
   12MOL0     H 1549   7.875   3.224   6.305 -0.6910  0.8101 -1.7922
   12MOL0     H 1550   7.718   3.184   6.177  0.0022 -0.2665 -1.6629
   12MOL0     H 1551   7.673   3.074   6.312  0.4527  1.3805  0.8625
   12MOL0     H 1552   7.579   2.906   6.161 -2.7888 -1.3709 -1.7542
   12MOL0     H 1553   7.603   3.007   6.024 -3.1626  2.5547  0.6205
   12MOL0     H 1554   7.365   3.018   6.102  0.0659  0.2988 -2.4200
   12MOL0     H 1555   7.442   3.166   6.091 -2.0992 -0.4398  0.8556
   12MOL0     H 1556   7.406   3.033   6.361  2.3260 -1.9912 -2.0755
   12MOL0     H 1557   7.474   3.200   6.326  1.0194  0.0078  1.1876
   12MOL0     H 1558   7.179   3.108   6.247  0.7911 -1.2848 -0.2655
   12MOL0     H 1559   7.247   3.260   6.229 -1.3270  0.6286  0.5975
   12MOL0     H 1560   7.225   3.300   6.477  1.6127  0.0742 -1.6769
   12MOL0     H 1561   7.234   3.125   6.515  0.6815  0.3254 -1.3706
   12MOL0     H 1562   7.019   3.243   6.333 -1.7252  3.7807  1.7972
   12MOL0     H 1563   6.998   3.103   6.447  0.9208  0.9649 -0.0069
   12MOL0     H 1564   7.006   3.391   6.515  1.1974 -0.9835 -1.0081
   12MOL0     H 1565   6.996   3.247   6.626  1.4966 -2.0737 -0.4727
   12MOL0     H 1566   8.032   2.895   6.072 -1.5382  1.3495 -2.9088
   12MOL0     H 1567   8.267   2.995   6.106  0.8676  0.0466  1.9514
   12MOL0     H 1568   8.499   3.569   6.292 -0.2833  0.3562  0.9774
   12MOL0     H 1569   8.765   3.575   6.339  2.1833 -0.2182 -2.2468
   12MOL0     H 1570  10.354   3.175   5.366 -1.4543 -1.6505  1.9129
   12MOL0     H 1571  10.562   3.057   5.282  0.2743  1.4205 -0.9917
   12MOL0     H 1572  11.153   3.164   5.222  0.0885 -0.3670 -1.2195
   12MOL0     H 1573  11.277   3.001   5.103 -0.3910 -1.7994 -0.1956
   12MOL0     H 1574  11.392   2.673   4.986  1.5915  1.5152 -1.1806
   12MOL0     H 1575  11.376   2.844   5.018 -1.4063 -0.7362  2.5961
   12MOL0     H 1576  11.389   2.798   4.786 -0.5104  2.1028 -0.1319
   12MOL0     H 1577  11.261   2.680   4.793  1.2933 -0.0262 -0.8383
   12MOL0     H 1578  11.102   2.870   4.868  1.7273 -1.2064  1.1960
   12MOL0     H 1579  11.141   2.848   4.696  1.8485  1.7774 -2.4750
   12MOL0     H 1580  11.289   3.038   4.887 -0.7895 -1.0519  0.6105
   12MOL0     H 1581  11.284   3.038   4.705  1.0723 -0.7033  0.0127
   12MOL0     H 1582  10.967   3.300   4.781  0.2486  0.1795 -1.4474
   12MOL0     H 1583  10.981   2.702   5.183 -1.9075  0.1167  1.0277
   12MOL0     H 1584  10.844   2.868   5.300 -0.5092  0.5976 -1.4040
   13MOL0     O 1585   7.044  10.670   5.518  0.6502 -0.2131  0.3250
   13MOL0     C 1586   6.952  10.597   5.551 -0.1879 -0.3035  0.3594
   13MOL0     O 1587   6.908  10.577   5.677 -0.0100  0.0879 -0.1865
   13MOL0     C 1588   6.959  10.660   5.771  1.1229 -0.0346 -0.1590
   13MOL0     C 1589   6.882  10.766   5.822 -0.4653 -0.0019 -0.9133
   13MOL0     C 1590   6.940  10.857   5.910  0.1014  0.3650  0.0051
   13MOL0     C 1591   7.069  10.835   5.964  0.1868 -0.9373  1.0638
   13MOL0     O 1592   7.113  10.923   6.057 -0.7651 -0.5333 -0.2380
   13MOL0     C 1593   7.251  10.951   6.077 -0.9642 -0.2022  0.2030
   13MOL0     C 1594   7.297  11.061   5.988  0.2639  0.1774 -0.2166
   13MOL0     C 1595   7.309  11.019   5.834  0.1139  0.0959  0.1326
   13MOL0     C 1596   7.381  11.115   5.735  0.9883 -0.1915 -0.8599
   13MOL0     C 1597   7.523  11.161   5.784  0.3154  0.7925 -0.1126
   13MOL0     C 1598   7.628  11.053   5.754 -0.2731  1.1097  0.0813
   13MOL0     C 1599   7.772  11.095   5.791 -0.2077 -0.4702  0.4110
   13MOL0     C 1600   7.791  11.119   5.940  1.4318 -0.7339 -0.6089
   13MOL0     N 1601   7.743  11.005   6.024  0.9146 -0.0819  0.4442
   13MOL0     C 1602   7.775  10.869   6.020 -0.8536 -0.0483 -0.0398
   13MOL0     C 1603   7.689  10.819   6.121 -0.5881  0.0341  0.4896
   13MOL0     C 1604   7.679  10.672   6.164  0.1222  0.5838  0.6887
   13MOL0     C 1605   7.562  10.614   6.079  0.5017 -0.1200 -0.7645
   13MOL0     C 1606   7.555  10.461   6.084  0.0727  0.0489 -0.1145
   13MOL0     C 1607   7.425  10.416   6.016  0.0841  0.7032  0.1814
   13MOL0     O 1608   7.434  10.434   5.869 -0.4889  0.3130 -0.5588
   13MOL0     C 1609   7.349  10.370   5.785 -0.4579  1.1160 -0.1707
   13MOL0     C 1610   7.379  10.371   5.653  0.3412  1.3190  0.1169
   13MOL0     C 1611   7.289  10.326   5.551  0.0831 -0.2441 -0.2504
   13MOL0     C 1612   7.174  10.268   5.591  1.9420  1.1924  0.4714
   13MOL0     C 1613   7.080  10.182   5.494 -1.2766  0.0416 -0.7608
   13MOL0     O 1614   6.965  10.137   5.536  0.2822  0.1336  0.4610
   13MOL0     C 1615   6.910  10.032   5.473 -0.2521  0.7134 -0.6663
   13MOL0     C 1616   6.923   9.893   5.515  0.1071  0.1182  0.1284
   13MOL0     C 1617   6.872   9.790   5.441 -0.8586 -0.6049 -0.2064
   13MOL0     C 1618   6.811   9.818   5.313  0.3522  0.5738  0.3147
   13MOL0     O 1619   6.785   9.715   5.231 -0.0227 -0.1344  0.0556
   13MOL0     C 1620   6.687   9.621   5.273  1.0364  0.1536  0.5113
   13MOL0     C 1621   6.548   9.669   5.280  1.2318 -0.5434 -0.1120
   13MOL0     C 1622   6.483   9.692   5.135 -0.4132 -0.6913 -0.3850
   13MOL0     C 1623   6.494   9.562   5.062  0.8901  0.4054  0.1450
   13MOL0     C 1624   6.400   9.556   4.932 -0.2250 -0.2695 -0.2189
   13MOL0     C 1625   6.455   9.468   4.820 -0.5072  0.2155 -0.5133
   13MOL0     C 1626   6.351   9.482   4.700  0.0501 -0.4487 -0.2803
   13MOL0     C 1627   6.431   9.472   4.571 -0.0459  0.5110 -0.1270
   13MOL0    Cl 1628   6.516   9.308   4.572 -0.3769 -0.6381 -0.7711
   13MOL0     C 1629   6.800   9.950   5.269  0.3015  1.6403  0.3502
   13MOL0     C 1630   6.844  10.054   5.347 -0.2442  0.1294  0.2352
   13MOL0     O 1631   7.133  10.157   5.386 -0.0646 -0.0079  0.6857
   13MOL0     C 1632   7.134  10.272   5.727  0.1272  0.4646 -0.6685
   13MOL0     C 1633   7.227  10.323   5.824  0.3336 -0.1078  0.2116
   13MOL0     N 1634   7.629  10.926   6.181 -1.0561 -0.0484 -0.2120
   13MOL0     N 1635   7.658  11.033   6.125 -0.7265  0.0037  0.2821
   13MOL0     C 1636   7.138  10.718   5.922  1.2224  1.1215  0.3973
   13MOL0     C 1637   7.092  10.639   5.818 -0.2622  0.7511  0.2323
   13MOL0     C 1638   6.882  10.527   5.450 -0.6924  0.1015 -1.1320
   13MOL0     C 1639   6.748  10.495   5.461 -0.3367 -0.0193  0.0214
   13MOL0     C 1640   6.676  10.436   5.361 -0.3581  0.6598  0.2410
   13MOL0     C 1641   6.734  10.430   5.234 -0.3299 -0.9701 -0.2137
   13MOL0     O 1642   6.652  10.384   5.132 -0.1352 -0.9275  0.6345
   13MOL0     C 1643   6.711  10.329   5.014 -0.1379 -0.0887 -0.5566
   13MOL0     C 1644   6.607  10.252   4.929  0.5159 -0.0998 -0.6809
   13MOL0     C 1645   6.542  10.135   5.017  0.0342 -0.9011  1.0454
   13MOL0     C 1646   6.427  10.188   5.105  0.0399  0.0445 -0.5773
   13MOL0     C 1647   6.393  10.102   5.218 -0.0696  0.0148 -0.1573
   13MOL0     C 1648   6.348  10.021   5.292  0.4897  0.8792 -0.6211
   13MOL0     C 1649   6.868  10.466   5.216 -0.6863 -0.9416 -0.6135
   13MOL0     C 1650   6.943  10.507   5.328  0.7922  0.1488  0.8492
   13MOL0     H 1651   6.778  10.775   5.794 -0.4785  1.9812 -0.3414
   13MOL0     H 1652   6.892  10.944   5.954  2.1569  0.6354  1.8934
   13MOL0     H 1653   7.312  10.860   6.080  1.6870  1.4563  0.4445
   13MOL0     H 1654   7.254  10.995   6.177  1.5540  0.8107 -0.2399
   13MOL0     H 1655   7.401  11.088   6.007  0.6725 -1.3565 -0.1976
   13MOL0     H 1656   7.236  11.152   5.984  1.0394  0.6791 -1.4097
   13MOL0     H 1657   7.210  11.006   5.789 -1.0074  0.3835  2.3807
   13MOL0     H 1658   7.361  10.924   5.820  0.0802  0.1821 -0.6800
   13MOL0     H 1659   7.374  11.075   5.634  0.4838 -0.1040 -0.8588
   13MOL0     H 1660   7.310  11.198   5.732  0.5604 -0.5566 -0.9101
   13MOL0     H 1661   7.519  11.191   5.889 -1.2025  0.0909  0.0475
   13MOL0     H 1662   7.535  11.251   5.722 -4.5825  0.7335 -1.5481
   13MOL0     H 1663   7.625  11.037   5.645  0.8654  2.0784 -0.1107
   13MOL0     H 1664   7.607  10.955   5.798  0.0667  0.5536 -0.9385
   13MOL0     H 1665   7.837  11.015   5.754 -0.5760 -0.5053 -0.1615
   13MOL0     H 1666   7.805  11.192   5.752 -1.7127  1.1273  2.8027
   13MOL0     H 1667   7.746  11.213   5.973 -0.3701 -1.2592 -1.4311
   13MOL0     H 1668   7.897  11.142   5.957  1.2068 -2.0739  4.0104
   13MOL0     H 1669   7.849  10.816   5.961 -0.3904  0.7628 -0.1993
   13MOL0     H 1670   7.662  10.657   6.271 -1.6483  0.8777  0.4752
   13MOL0     H 1671   7.770  10.626   6.125  1.2719  2.3708  1.1074
   13MOL0     H 1672   7.574  10.643   5.974 -3.1665 -2.5557 -2.0647
   13MOL0     H 1673   7.465  10.648   6.115 -0.5400 -3.1721 -0.4109
   13MOL0     H 1674   7.638  10.403   6.044 -0.2064 -0.5327  0.1316
   13MOL0     H 1675   7.549  10.436   6.191 -1.0504 -0.5121 -0.2952
   13MOL0     H 1676   7.347  10.473   6.066 -0.1528 -0.6768  1.4614
   13MOL0     H 1677   7.400  10.312   6.042  1.1415  1.1859  3.6306
   13MOL0     H 1678   7.477  10.404   5.620  0.5580  1.9631  1.3469
   13MOL0     H 1679   7.319  10.343   5.448  3.5263  0.8802  0.8287
   13MOL0     H 1680   6.962   9.853   5.608  2.1839  1.3296 -0.1644
   13MOL0     H 1681   6.896   9.688   5.471  0.4277 -0.2496  0.0352
   13MOL0     H 1682   6.706   9.578   5.371  1.5370 -2.9939 -0.8472
   13MOL0     H 1683   6.712   9.537   5.207 -1.8738 -0.6966  0.3652
   13MOL0     H 1684   6.551   9.764   5.334 -2.1085 -0.2115 -0.2961
   13MOL0     H 1685   6.482   9.606   5.340  0.0051  1.7166  1.0310
   13MOL0     H 1686   6.536   9.767   5.077 -0.9152 -2.9882 -4.1659
   13MOL0     H 1687   6.376   9.716   5.129 -0.8388 -2.7432 -3.4249
   13MOL0     H 1688   6.598   9.563   5.029  0.9043  1.5713  0.1683
   13MOL0     H 1689   6.492   9.473   5.126  1.2491  0.3403  0.0716
   13MOL0     H 1690   6.383   9.660   4.903 -0.7379 -0.5204 -0.8340
   13MOL0     H 1691   6.307   9.514   4.971  2.3758 -2.3420  4.6090
   13MOL0     H 1692   6.462   9.364   4.851 -3.9056 -0.8479 -2.7833
   13MOL0     H 1693   6.555   9.508   4.797  0.3366 -2.0775 -1.0631
   13MOL0     H 1694   6.274   9.406   4.718 -1.5284  0.9997 -0.6457
   13MOL0     H 1695   6.304   9.579   4.680 -0.3731 -1.2361 -3.7718
   13MOL0     H 1696   6.506   9.551   4.575  1.1101 -0.4961 -0.9494
   13MOL0     H 1697   6.365   9.483   4.485 -0.2128 -0.4788 -0.1385
   13MOL0     H 1698   6.757   9.972   5.172  0.6345  2.3840  0.3686
   13MOL0     H 1699   6.839  10.159   5.323 -0.4213  0.2805  0.9313
   13MOL0     H 1700   7.039  10.237   5.765  0.9237  0.2537  1.2549
   13MOL0     H 1701   7.200  10.322   5.929 -3.4090  0.7237 -0.6025
   13MOL0     H 1702   7.216  10.696   5.994  1.8435  2.0416  0.0177
   13MOL0     H 1703   7.142  10.547   5.790 -2.5760 -0.0678 -1.5631
   13MOL0     H 1704   6.694  10.500   5.555 -0.8116 -1.6032 -0.1330
   13MOL0     H 1705   6.568  10.422   5.356 -0.3859  1.0696 -0.4472
   13MOL0     H 1706   6.796  10.267   5.044  0.6928  1.1027 -0.3600
   13MOL0     H 1707   6.743  10.409   4.946  0.0370 -1.4644 -2.1684
   13MOL0     H 1708   6.523  10.322   4.922 -0.5471 -0.8800  2.6997
   13MOL0     H 1709   6.647  10.206   4.837 -1.4723  0.0607 -1.6786
   13MOL0     H 1710   6.622  10.103   5.084  0.1083  1.4155  2.1743
   13MOL0     H 1711   6.525  10.062   4.938  2.0998  0.1983 -0.5252
   13MOL0     H 1712   6.458  10.280   5.157 -0.1309  1.0629 -2.2172
   13MOL0     H 1713   6.341  10.204   5.039  1.2510  0.9134 -1.9941
   13MOL0     H 1714   6.321   9.947   5.363  0.9412  0.9443 -0.3791
   13MOL0     H 1715   6.914  10.445   5.120  1.8486 -2.0215  0.7363
   13MOL0     H 1716   7.052  10.507   5.326  0.7910  0.8506  0.5881
   14MOL0     O 1717  10.800   8.375   5.158  0.6109  0.2034 -0.4212
   14MOL0     C 1718  10.686   8.369   5.195  0.7185 -0.1816  0.6241
   14MOL0     O 1719  10.631   8.434   5.305 -0.6026 -0.3935  0.6618
   14MOL0     C 1720  10.722   8.493   5.382  0.1724  0.2984  0.1560
   14MOL0     C 1721  10.814   8.416   5.460  0.2463 -0.0506 -0.0343
   14MOL0     C 1722  10.906   8.475   5.536  0.3883 -0.8894 -1.5931
   14MOL0     C 1723  10.917   8.618   5.540 -0.0467  0.5547  0.5878
   14MOL0     O 1724  11.000   8.674   5.629 -0.0817 -0.0738  0.4058
   14MOL0     C 1725  11.002   8.812   5.665 -0.5324 -0.1828 -0.8311
   14MOL0     C 1726  11.093   8.834   5.790 -0.6159 -0.0788 -0.0079
   14MOL0     C 1727  11.019   8.775   5.907 -0.5069 -0.2341 -0.3686
   14MOL0     C 1728  11.110   8.797   6.034  0.1146 -0.6180  0.2242
   14MOL0     C 1729  11.100   8.940   6.092 -0.0540  1.0200 -0.0946
   14MOL0     C 1730  11.198   8.955   6.210  0.2875 -0.3316 -0.3799
   14MOL0     C 1731  11.234   9.092   6.255 -0.2807 -0.2686 -0.5086
   14MOL0     C 1732  11.141   9.150   6.355  0.0963  1.0195 -0.0642
   14MOL0     N 1733  11.084   9.278   6.318  0.1969  0.2321  0.6568
   14MOL0     C 1734  10.958   9.307   6.284  0.0268  0.3113  0.2424
   14MOL0     C 1735  10.967   9.449   6.274  1.0576  0.2688  0.0113
   14MOL0     C 1736  10.857   9.547   6.226  0.2892  0.3294  1.1982
   14MOL0     C 1737  10.732   9.539   6.312  0.0485  0.2619  0.4307
   14MOL0     C 1738  10.743   9.641   6.422  0.4910 -0.5892  0.2651
   14MOL0     C 1739  10.623   9.644   6.520  0.6424  0.1725  0.5514
   14MOL0     O 1740  10.615   9.763   6.598 -0.6826  0.0435 -0.3223
   14MOL0     C 1741  10.548   9.775   6.715 -0.1398 -0.5854 -0.3622
   14MOL0     C 1742  10.594   9.874   6.797  0.8270 -0.4597 -0.0411
   14MOL0     C 1743  10.534   9.897   6.916 -0.0450 -0.6075 -0.4326
   14MOL0     C 1744  10.432   9.819   6.960  0.1606  0.5597  0.1390
   14MOL0     C 1745  10.375   9.832   7.093 -0.0706  0.0931 -0.5738
   14MOL0     O 1746  10.399   9.938   7.169  0.0924  0.4377 -0.0520
   14MOL0     C 1747  10.341   9.973   7.286  0.4456 -0.4202 -0.0615
   14MOL0     C 1748  10.385  10.098   7.332  0.3724 -0.0922  0.8900
   14MOL0     C 1749  10.330  10.141   7.456  0.0226 -0.0575 -0.3770
   14MOL0     C 1750  10.210  10.076   7.512  0.3179 -0.4149 -0.7290
   14MOL0     O 1751  10.123  10.110   7.613 -0.0699  0.2002 -1.4182
   14MOL0     C 1752  10.124  10.255   7.631 -0.0705  0.6557  1.1759
   14MOL0     C 1753  10.197  10.305   7.744 -0.1139 -0.4009 -0.1778
   14MOL0     C 1754  10.173  10.223   7.878 -0.5269  0.0842 -0.1100
   14MOL0     C 1755  10.263  10.296   7.986  0.6152  0.4103  0.8097
   14MOL0     C 1756  10.234  10.240   8.124 -0.6995  0.3856  1.4291
   14MOL0     C 1757  10.348  10.268   8.222 -0.3758 -1.2566  0.4324
   14MOL0     C 1758  10.321  10.224   8.364 -0.5739 -0.2273  0.4744
   14MOL0     C 1759  10.453  10.217   8.452  0.0688 -0.1686 -0.5317
   14MOL0    Cl 1760  10.549  10.369   8.462 -0.4594 -0.1977  0.4151
   14MOL0     C 1761  10.159   9.958   7.457  0.6515  0.1254 -0.2778
   14MOL0     C 1762  10.229   9.901   7.349 -0.2732 -0.4669  0.1365
   14MOL0     O 1763  10.311   9.735   7.133 -0.1716  0.1800  0.3370
   14MOL0     C 1764  10.376   9.723   6.879  1.2435  1.4237  0.3947
   14MOL0     C 1765  10.437   9.692   6.753  0.1856 -1.1134 -0.5111
   14MOL0     N 1766  11.084   9.498   6.310 -0.7743 -0.4217 -0.3594
   14MOL0     N 1767  11.154   9.395   6.339  0.4038 -0.4348  0.1600
   14MOL0     C 1768  10.832   8.698   5.460 -0.0412 -0.4702 -1.0617
   14MOL0     C 1769  10.732   8.638   5.388 -0.2968  0.2042 -0.4599
   14MOL0     C 1770  10.608   8.298   5.093  0.1959  0.4105  1.0272
   14MOL0     C 1771  10.645   8.292   4.957 -0.6820  0.1465 -0.0274
   14MOL0     C 1772  10.564   8.253   4.855 -0.6894 -0.2686 -1.1860
   14MOL0     C 1773  10.442   8.193   4.888  0.2225  0.1350 -0.3416
   14MOL0     O 1774  10.366   8.144   4.782 -0.2070  0.9378  0.3000
   14MOL0     C 1775  10.313   8.019   4.806 -0.3362 -0.4854  0.3599
   14MOL0     C 1776  10.245   7.974   4.675  0.1568  0.8158 -0.2476
   14MOL0     C 1777  10.175   7.834   4.695 -0.2958 -0.7246 -0.3039
   14MOL0     C 1778  10.061   7.839   4.795 -0.4725  0.0790  0.0714
   14MOL0     C 1779  10.023   7.712   4.843  0.0041  0.7206  0.1464
   14MOL0     C 1780   9.996   7.605   4.894  0.2352 -1.2263  0.3000
   14MOL0     C 1781  10.397   8.191   5.024  0.2161 -0.3103  0.4253
   14MOL0     C 1782  10.477   8.253   5.118 -0.0405  0.3583 -0.5649
   14MOL0     H 1783  10.813   8.307   5.454  1.6990 -0.0702 -0.2634
   14MOL0     H 1784  10.962   8.412   5.603  0.9013  0.4521 -0.7175
   14MOL0     H 1785  10.900   8.844   5.685 -0.0881  0.5032  0.4398
   14MOL0     H 1786  11.046   8.863   5.578  4.3821  0.5303  1.6866
   14MOL0     H 1787  11.101   8.943   5.801  0.3408 -0.4204  4.3905
   14MOL0     H 1788  11.191   8.785   5.789 -0.9511 -0.8895  2.1961
   14MOL0     H 1789  11.019   8.669   5.879 -2.1781 -0.2031 -0.5597
   14MOL0     H 1790  10.921   8.816   5.930 -0.1034  0.5046  0.0536
   14MOL0     H 1791  11.074   8.725   6.108 -0.9526  0.2755  0.5986
   14MOL0     H 1792  11.213   8.767   6.010 -0.4169 -1.2261 -1.4499
   14MOL0     H 1793  10.995   8.956   6.116 -0.7828 -0.7274 -1.8851
   14MOL0     H 1794  11.131   9.008   6.011 -1.0013  2.1118  0.4410
   14MOL0     H 1795  11.293   8.910   6.180  1.0838 -0.6866  2.3449
   14MOL0     H 1796  11.162   8.905   6.301 -3.9329  2.2194 -0.3857
   14MOL0     H 1797  11.329   9.082   6.309 -2.4454 -0.4951  3.7020
   14MOL0     H 1798  11.248   9.165   6.175  0.8152 -0.5915 -0.6299
   14MOL0     H 1799  11.188   9.169   6.453  2.1769 -0.4937 -0.6840
   14MOL0     H 1800  11.059   9.082   6.381  0.6774  0.6258  0.8238
   14MOL0     H 1801  10.876   9.237   6.273 -0.7621  1.4193 -1.2234
   14MOL0     H 1802  10.832   9.524   6.122  1.8851  1.8693  0.4134
   14MOL0     H 1803  10.897   9.650   6.227  0.0492  0.4937 -1.1992
   14MOL0     H 1804  10.714   9.439   6.351 -0.4105  0.3315  0.4011
   14MOL0     H 1805  10.641   9.552   6.253 -1.2395 -0.5878  2.1513
   14MOL0     H 1806  10.838   9.623   6.472  1.4517 -2.5624 -2.1015
   14MOL0     H 1807  10.741   9.743   6.381  1.0803 -1.5930 -2.4285
   14MOL0     H 1808  10.629   9.552   6.578 -1.8491 -0.5821 -0.2424
   14MOL0     H 1809  10.528   9.639   6.466  0.1920 -3.1884  1.4618
   14MOL0     H 1810  10.682   9.934   6.777  1.1640 -1.0519 -0.3499
   14MOL0     H 1811  10.564   9.988   6.967 -1.9918  0.3478 -0.8631
   14MOL0     H 1812  10.469  10.147   7.284 -0.0487  0.3925  0.6350
   14MOL0     H 1813  10.380  10.223   7.506 -0.4361  0.2477 -0.4105
   14MOL0     H 1814  10.027  10.300   7.655  0.4643  1.6817  1.4646
   14MOL0     H 1815  10.153  10.307   7.539  1.2771  0.6094  1.5570
   14MOL0     H 1816  10.165  10.407   7.766 -2.1171 -1.3871  1.9327
   14MOL0     H 1817  10.304  10.311   7.722  0.7160 -0.8835  3.2124
   14MOL0     H 1818  10.207  10.120   7.861 -2.1877 -0.1223 -2.6382
   14MOL0     H 1819  10.069  10.214   7.911 -0.5904 -0.9508 -0.5309
   14MOL0     H 1820  10.370  10.293   7.967  0.4106 -0.9679 -0.3321
   14MOL0     H 1821  10.245  10.403   7.973  1.9123  0.2502 -4.2326
   14MOL0     H 1822  10.242  10.131   8.125 -2.8101  0.1754  2.2456
   14MOL0     H 1823  10.136  10.277   8.158 -1.2509  2.5389 -1.9729
   14MOL0     H 1824  10.378  10.373   8.228 -0.5246 -1.1145 -0.9538
   14MOL0     H 1825  10.434  10.216   8.178 -0.8015 -0.4873 -1.4012
   14MOL0     H 1826  10.248  10.293   8.408 -1.8358  0.7143 -2.8103
   14MOL0     H 1827  10.272  10.127   8.357 -1.4400  0.1968  0.4749
   14MOL0     H 1828  10.527  10.149   8.409 -0.7367  0.2887 -2.8368
   14MOL0     H 1829  10.424  10.186   8.552  2.7884 -1.6053 -0.0988
   14MOL0     H 1830  10.075   9.905   7.501 -0.6157 -0.2071 -2.9069
   14MOL0     H 1831  10.176   9.814   7.310 -0.5268 -1.9662  3.4817
   14MOL0     H 1832  10.288   9.663   6.898  0.8698  0.6749 -3.0673
   14MOL0     H 1833  10.421   9.610   6.685 -0.3140  0.8466 -2.9133
   14MOL0     H 1834  10.846   8.805   5.470  2.2686 -0.9276  5.7167
   14MOL0     H 1835  10.665   8.701   5.330 -0.8003  0.4649  0.3840
   14MOL0     H 1836  10.742   8.331   4.925 -2.5810  2.1759 -4.1416
   14MOL0     H 1837  10.601   8.241   4.754  1.4784 -2.7024 -0.2229
   14MOL0     H 1838  10.235   8.032   4.881 -0.1729 -1.0266  0.6305
   14MOL0     H 1839  10.385   7.941   4.834 -0.1276 -1.0150 -1.5283
   14MOL0     H 1840  10.164   8.045   4.657 -3.1712 -2.2921  1.2616
   14MOL0     H 1841  10.321   7.961   4.598 -0.8556  2.1843 -1.5298
   14MOL0     H 1842  10.250   7.760   4.723 -0.3586 -0.0764  1.7072
   14MOL0     H 1843  10.127   7.808   4.600  3.2920  0.3860 -2.6345
   14MOL0     H 1844  10.080   7.905   4.880  1.1941 -0.1174 -0.1167
   14MOL0     H 1845   9.967   7.862   4.743 -0.3531 -0.5987 -0.4658
   14MOL0     H 1846   9.968   7.519   4.950 -1.6413 -0.1548  1.0794
   14MOL0     H 1847  10.296   8.152   5.032  0.6390 -2.2259 -2.2745
   14MOL0     H 1848  10.428   8.291   5.207 -1.1417  0.2051 -1.0936
   15MOL0     O 1849   8.763   3.403   2.956  0.3092  0.3533 -0.0614
   15MOL0     C 1850   8.680   3.381   3.048  0.8357 -0.0840 -1.4185
   15MOL0     O 1851   8.707   3.376   3.183 -0.3149  0.3997 -0.3996
   15MOL0     C 1852   8.802   3.455   3.228 -1.0010  0.5595  0.4546
   15MOL0     C 1853   8.941   3.415   3.249 -0.5748 -0.0712  0.5649
   15MOL0     C 1854   9.035   3.508   3.285  0.4446 -0.1764 -0.5126
   15MOL0     C 1855   8.995   3.637   3.310 -0.0148 -0.3278 -0.7484
   15MOL0     O 1856   9.082   3.727   3.364  0.0742  0.6994 -0.0242
   15MOL0     C 1857   9.230   3.713   3.378  0.7777  0.6602  0.1110
   15MOL0     C 1858   9.281   3.834   3.446 -0.1014  0.5017 -0.7138
   15MOL0     C 1859   9.252   3.844   3.587 -0.5888 -1.3775  0.0609
   15MOL0     C 1860   9.319   3.968   3.660  0.0464 -0.5590  0.2927
   15MOL0     C 1861   9.255   3.985   3.794 -0.7066  0.5661 -0.2177
   15MOL0     C 1862   9.313   4.092   3.888  0.3751 -0.3884 -0.7016
   15MOL0     C 1863   9.302   4.068   4.042  0.5893 -0.6076 -0.3395
   15MOL0     C 1864   9.159   4.067   4.083 -0.0085 -0.6054 -0.3857
   15MOL0     N 1865   9.117   3.955   4.170 -0.5519 -0.5459  0.6434
   15MOL0     C 1866   8.985   3.921   4.183 -0.0189 -0.2420 -0.2127
   15MOL0     C 1867   8.985   3.813   4.270  1.2537 -1.2769  0.1201
   15MOL0     C 1868   8.878   3.709   4.300  0.3437  0.2024 -1.3554
   15MOL0     C 1869   8.730   3.766   4.317 -0.6240 -0.9897  0.5295
   15MOL0     C 1870   8.721   3.890   4.416 -0.2268  0.7259 -0.4440
   15MOL0     C 1871   8.738   3.853   4.564 -0.9000  0.8138 -0.8885
   15MOL0     O 1872   8.623   3.798   4.622 -0.1942 -0.2157  0.3777
   15MOL0     C 1873   8.531   3.891   4.665  0.1200 -0.2535  0.5371
   15MOL0     C 1874   8.547   4.036   4.673 -0.0023  0.7941 -0.1052
   15MOL0     C 1875   8.441   4.118   4.719  0.0354 -0.1516  0.6856
   15MOL0     C 1876   8.322   4.056   4.766  0.1909 -0.4829 -0.5889
   15MOL0     C 1877   8.223   4.139   4.830 -0.8895  0.7411  0.0071
   15MOL0     O 1878   8.257   4.196   4.946 -0.1783 -0.7626  0.7446
   15MOL0     C 1879   8.168   4.225   5.048 -0.1238 -0.1360 -0.3252
   15MOL0     C 1880   8.205   4.322   5.136  0.5546  0.2971 -0.5882
   15MOL0     C 1881   8.127   4.360   5.243  0.1260 -0.7598  0.6392
   15MOL0     C 1882   7.999   4.308   5.254 -0.6556 -0.2695 -0.3983
   15MOL0     O 1883   7.934   4.359   5.362 -0.2177 -0.6671  0.4316
   15MOL0     C 1884   7.852   4.465   5.327  0.7510  0.6438 -0.0585
   15MOL0     C 1885   7.708   4.428   5.278 -0.6044  0.4289 -0.4722
   15MOL0     C 1886   7.612   4.539   5.315 -1.0253  0.6537  0.3673
   15MOL0     C 1887   7.472   4.506   5.256  0.2245 -0.1370 -0.6081
   15MOL0     C 1888   7.393   4.374   5.285  0.1595  1.0433 -0.0354
   15MOL0     C 1889   7.369   4.354   5.437 -0.3066  0.7001  0.3129
   15MOL0     C 1890   7.301   4.225   5.479  0.3147  0.7613 -0.2360
   15MOL0     C 1891   7.384   4.094   5.455  0.7728  0.4366 -0.6930
   15MOL0    Cl 1892   7.514   4.077   5.575  0.2680 -0.2539  0.4748
   15MOL0     C 1893   7.958   4.208   5.170  0.1212  0.2055 -0.0877
   15MOL0     C 1894   8.046   4.170   5.070  0.0122  0.3547  0.0960
   15MOL0     O 1895   8.111   4.142   4.775  0.0425 -0.1102 -0.4769
   15MOL0     C 1896   8.311   3.915   4.752  0.1882  1.1978  0.8326
   15MOL0     C 1897   8.411   3.831   4.699  0.6314 -0.2035  0.3262
   15MOL0     N 1898   9.112   3.804   4.328  0.8511 -0.3803  0.8750
   15MOL0     N 1899   9.190   3.887   4.259 -0.0825  0.8255 -0.2739
   15MOL0     C 1900   8.867   3.673   3.291 -0.2896  0.5493  0.3897
   15MOL0     C 1901   8.765   3.589   3.253  0.1730  0.8594 -0.2161
   15MOL0     C 1902   8.548   3.320   3.003  0.8583 -0.0759 -0.3678
   15MOL0     C 1903   8.456   3.246   3.083 -0.3316 -0.1405 -0.1989
   15MOL0     C 1904   8.324   3.216   3.033 -0.1377 -1.0722  0.0555
   15MOL0     C 1905   8.279   3.265   2.909  0.2029  0.3448  0.3684
   15MOL0     O 1906   8.148   3.229   2.872 -1.2134 -1.0520 -0.5025
   15MOL0     C 1907   8.097   3.277   2.755  0.2507 -0.5779  0.6751
   15MOL0     C 1908   7.952   3.248   2.764 -0.0305 -1.2935 -0.0208
   15MOL0     C 1909   7.869   3.317   2.647 -0.2734  0.3197 -0.6387
   15MOL0     C 1910   7.776   3.424   2.709 -0.5086  0.0427  0.8363
   15MOL0     C 1911   7.653   3.361   2.741 -0.9082 -0.3085 -0.4150
   15MOL0     C 1912   7.560   3.299   2.780  0.2422 -0.0647 -0.2117
   15MOL0     C 1913   8.374   3.341   2.824  0.1023 -0.2893  0.3153
   15MOL0     C 1914   8.505   3.364   2.877  0.0937 -0.2395  0.7467
   15MOL0     H 1915   8.967   3.314   3.218 -2.4392 -0.2968 -0.4014
   15MOL0     H 1916   9.138   3.491   3.314  0.8770 -2.3728 -2.9468
   15MOL0     H 1917   9.281   3.686   3.285  0.8733  0.0510  0.3396
   15MOL0     H 1918   9.256   3.628   3.441  0.3995  2.0436  2.2338
   15MOL0     H 1919   9.237   3.925   3.404 -0.5399  1.7998  2.2963
   15MOL0     H 1920   9.388   3.831   3.426  0.0349 -2.4847 -0.0241
   15MOL0     H 1921   9.285   3.759   3.647  0.2162 -2.3652 -1.7096
   15MOL0     H 1922   9.144   3.857   3.597 -0.0698  2.0859  4.9360
   15MOL0     H 1923   9.422   3.948   3.690 -0.8444 -1.5188  2.9994
   15MOL0     H 1924   9.321   4.061   3.602  1.9495 -1.0585 -0.5150
   15MOL0     H 1925   9.274   3.893   3.851 -2.8126  0.1046 -0.1651
   15MOL0     H 1926   9.147   3.995   3.781 -1.1624 -2.7031  0.2211
   15MOL0     H 1927   9.269   4.190   3.868 -1.0943  0.2462  4.3605
   15MOL0     H 1928   9.419   4.090   3.861  0.4481  2.8132 -1.0028
   15MOL0     H 1929   9.350   3.970   4.051 -1.0431 -1.3618  0.5915
   15MOL0     H 1930   9.371   4.130   4.101  0.5892 -1.6284  0.7734
   15MOL0     H 1931   9.092   4.079   3.998 -0.7562  0.6533  0.3505
   15MOL0     H 1932   9.136   4.144   4.157 -0.6870 -0.6617 -0.5322
   15MOL0     H 1933   8.902   3.942   4.116 -1.1897  1.2920  1.5884
   15MOL0     H 1934   8.910   3.659   4.392 -1.0625  3.3125  1.0355
   15MOL0     H 1935   8.878   3.637   4.219  2.1005 -0.0578 -1.1732
   15MOL0     H 1936   8.664   3.683   4.342  0.0056 -1.5685  0.3233
   15MOL0     H 1937   8.707   3.793   4.213 -1.2660 -1.3020  0.5845
   15MOL0     H 1938   8.802   3.963   4.405 -0.9492  2.2359  3.0137
   15MOL0     H 1939   8.624   3.937   4.403 -1.3114 -0.7650  1.7679
   15MOL0     H 1940   8.771   3.944   4.616  1.0397 -0.0077 -0.6029
   15MOL0     H 1941   8.819   3.780   4.573 -2.3682 -0.6894  0.8651
   15MOL0     H 1942   8.632   4.086   4.625 -0.2687  0.6925 -0.6855
   15MOL0     H 1943   8.464   4.224   4.721 -2.1047  0.3351  2.0297
   15MOL0     H 1944   8.300   4.375   5.138  0.4519  0.5053 -1.0467
   15MOL0     H 1945   8.161   4.431   5.317  0.8890 -0.0846 -0.3350
   15MOL0     H 1946   7.910   4.520   5.252  2.5757  1.6942  2.0426
   15MOL0     H 1947   7.851   4.535   5.411  2.0235 -0.5705  1.0251
   15MOL0     H 1948   7.679   4.336   5.329 -0.1805 -0.5504 -1.9573
   15MOL0     H 1949   7.706   4.411   5.170  2.6336  0.0541 -0.5683
   15MOL0     H 1950   7.646   4.630   5.264 -0.1353 -0.3290 -0.8801
   15MOL0     H 1951   7.598   4.553   5.422 -2.4457  1.4274  0.1025
   15MOL0     H 1952   7.406   4.588   5.286 -1.7496 -2.3481  1.4984
   15MOL0     H 1953   7.474   4.524   5.148 -3.1732 -0.0817 -0.7800
   15MOL0     H 1954   7.431   4.282   5.241  0.1049 -0.1361  2.2397
   15MOL0     H 1955   7.294   4.378   5.238  0.1798  3.6588 -0.0149
   15MOL0     H 1956   7.314   4.437   5.480  0.4375  0.9199  0.8625
   15MOL0     H 1957   7.467   4.361   5.485 -0.5859  3.6384  0.6463
   15MOL0     H 1958   7.271   4.231   5.584 -1.2423  2.6167 -0.7186
   15MOL0     H 1959   7.205   4.233   5.427 -0.6598  1.5554  1.5872
   15MOL0     H 1960   7.415   4.088   5.350  0.0714  1.9735 -1.0152
   15MOL0     H 1961   7.312   4.013   5.472  1.9877 -0.2899  1.3979
   15MOL0     H 1962   7.860   4.163   5.181  0.2521 -0.6336 -2.0054
   15MOL0     H 1963   8.016   4.094   4.998  0.7200  1.1994 -1.1314
   15MOL0     H 1964   8.215   3.869   4.775 -0.1323  1.8917  0.9196
   15MOL0     H 1965   8.402   3.725   4.678  0.3706  0.3765 -3.0545
   15MOL0     H 1966   8.841   3.774   3.321 -0.7120  0.1807  1.3172
   15MOL0     H 1967   8.669   3.633   3.229  0.2805  1.1118 -0.1860
   15MOL0     H 1968   8.480   3.211   3.183  2.3376 -2.5386 -1.5330
   15MOL0     H 1969   8.258   3.151   3.090 -1.4702  1.9744  2.2259
   15MOL0     H 1970   8.146   3.219   2.677  2.9605  2.1316  0.1432
   15MOL0     H 1971   8.122   3.380   2.724 -0.4914 -1.2762 -2.6122
   15MOL0     H 1972   7.940   3.140   2.753 -1.1626 -1.1366 -0.5022
   15MOL0     H 1973   7.901   3.268   2.859  0.1037 -1.0575  0.0029
   15MOL0     H 1974   7.814   3.246   2.585 -0.7008  0.2439 -0.1765
   15MOL0     H 1975   7.932   3.369   2.574  0.1262 -0.2653 -0.7118
   15MOL0     H 1976   7.824   3.461   2.800  1.4534 -1.4495  0.4755
   15MOL0     H 1977   7.768   3.507   2.638  1.5058 -0.7965 -0.4471
   15MOL0     H 1978   7.476   3.241   2.812  0.0992  0.9226  1.2956
   15MOL0     H 1979   8.342   3.393   2.735  2.3800 -1.5306 -1.3502
   15MOL0     H 1980   8.565   3.440   2.827 -1.4481  2.8805  3.2578
   16MOL0     O 1981   0.088   3.625   2.960  0.4210  0.2429 -0.3949
   16MOL0     C 1982   0.060   3.714   3.044  0.6767 -0.9374  0.2465
   16MOL0     O 1983  -0.045   3.796   3.030  0.6408  0.0853 -0.5028
   16MOL0     C 1984  -0.118   3.775   2.905  0.7540 -0.3730 -0.2375
   16MOL0     C 1985  -0.109   3.849   2.796  0.0064  0.3955  0.1342
   16MOL0     C 1986  -0.194   3.829   2.684 -0.7556 -0.0388 -0.9228
   16MOL0     C 1987  -0.293   3.726   2.691 -0.5413  0.8338  0.5071
   16MOL0     O 1988  -0.378   3.696   2.593 -1.0560  0.4032  0.1800
   16MOL0     C 1989  -0.438   3.797   2.512  0.1171  0.0683  0.8588
   16MOL0     C 1990  -0.573   3.842   2.563  0.4595  0.6841 -0.1659
   16MOL0     C 1991  -0.690   3.797   2.476  0.3471  0.2132 -0.0176
   16MOL0     C 1992  -0.720   3.907   2.369 -0.0478  0.6496  0.9829
   16MOL0     C 1993  -0.860   3.887   2.306  1.0884  0.6806  0.1934
   16MOL0     C 1994  -0.970   3.937   2.390 -0.3227  0.2400 -0.4729
   16MOL0     C 1995  -1.108   3.892   2.354 -0.2556 -0.4027  0.3732
   16MOL0     C 1996  -1.195   3.964   2.450  0.1567 -0.1061 -0.2299
   16MOL0     N 1997  -1.185   3.914   2.590 -0.8400  0.9178  1.2748
   16MOL0     C 1998  -1.238   3.801   2.635 -0.7125  0.2758  0.4192
   16MOL0     C 1999  -1.194   3.787   2.765  0.2655 -0.7259  0.7159
   16MOL0     C 2000  -1.252   3.690   2.869  0.3374  0.3959  0.2791
   16MOL0     C 2001  -1.373   3.738   2.938  0.5535  0.6472  0.7111
   16MOL0     C 2002  -1.498   3.707   2.856  0.0553 -0.3805 -0.1458
   16MOL0     C 2003  -1.625   3.746   2.928 -0.3643 -0.8151  0.5355
   16MOL0     O 2004  -1.635   3.896   2.961  0.4463  0.0314 -0.2325
   16MOL0     C 2005  -1.597   3.930   3.095 -0.4394 -0.3387  0.2755
   16MOL0     C 2006  -1.553   3.851   3.204  0.3354 -0.4745  0.3965
   16MOL0     C 2007  -1.562   3.885   3.340  1.2183  0.3603  0.0550
   16MOL0     C 2008  -1.609   4.014   3.382  0.5058 -0.0450  0.7067
   16MOL0     C 2009  -1.595   4.064   3.519  1.4784 -0.3224  0.2577
   16MOL0     O 2010  -1.674   4.171   3.555  0.5026  0.3945  0.2849
   16MOL0     C 2011  -1.675   4.208   3.689  1.1290 -0.4980 -0.3444
   16MOL0     C 2012  -1.799   4.201   3.757  0.7075 -0.4025  0.1517
   16MOL0     C 2013  -1.813   4.244   3.892 -0.0700 -1.1906  0.4808
   16MOL0     C 2014  -1.703   4.281   3.964 -0.2956 -1.4490 -0.0975
   16MOL0     O 2015  -1.725   4.327   4.098 -0.7048 -0.1232 -0.7636
   16MOL0     C 2016  -1.616   4.389   4.165 -0.8395 -0.9136 -0.6447
   16MOL0     C 2017  -1.580   4.532   4.111  0.0424  0.7506 -0.2671
   16MOL0     C 2018  -1.621   4.652   4.200 -0.5875 -0.7750  0.5523
   16MOL0     C 2019  -1.610   4.776   4.115  0.5351 -0.2032  0.6957
   16MOL0     C 2020  -1.631   4.901   4.196 -0.5010 -0.3010 -0.2371
   16MOL0     C 2021  -1.773   4.917   4.258 -1.7330 -0.1527  0.7010
   16MOL0     C 2022  -1.783   5.043   4.348  0.3495  0.3265  0.3170
   16MOL0     C 2023  -1.719   5.016   4.491  0.3289 -0.4020  0.4621
   16MOL0    Cl 2024  -1.844   4.955   4.600  0.0612 -0.3277  0.7491
   16MOL0     C 2025  -1.574   4.263   3.903 -0.5400  0.8515  0.3045
   16MOL0     C 2026  -1.559   4.227   3.764  1.1681 -0.5823 -0.2403
   16MOL0     O 2027  -1.528   3.993   3.590  0.7223  0.4166 -0.2663
   16MOL0     C 2028  -1.644   4.101   3.272  0.1733 -0.1957  0.3739
   16MOL0     C 2029  -1.647   4.054   3.146  0.0709 -0.9874  0.3335
   16MOL0     N 2030  -1.113   3.893   2.793 -0.3696  0.6255 -0.2600
   16MOL0     N 2031  -1.104   3.967   2.692 -0.4412  0.4091 -0.0882
   16MOL0     C 2032  -0.305   3.654   2.807 -0.5578  0.0117  0.8623
   16MOL0     C 2033  -0.214   3.677   2.907  0.9096  0.1563 -0.3203
   16MOL0     C 2034   0.128   3.703   3.181  0.2701  0.5185 -0.0413
   16MOL0     C 2035   0.109   3.804   3.267  0.1989 -1.0518  0.0219
   16MOL0     C 2036   0.191   3.830   3.377  0.4649  0.0689 -0.6855
   16MOL0     C 2037   0.298   3.743   3.405 -0.1346 -0.4839 -0.3378
   16MOL0     O 2038   0.383   3.749   3.503  0.0838 -0.0146  0.0309
   16MOL0     C 2039   0.389   3.874   3.578  0.0644  0.2369  0.0962
   16MOL0     C 2040   0.441   3.823   3.715  0.5752 -0.1505  0.1475
   16MOL0     C 2041   0.466   3.928   3.820  0.7319 -1.2513  0.3621
   16MOL0     C 2042   0.539   3.872   3.941  0.1351 -0.4931  0.5250
   16MOL0     C 2043   0.651   3.788   3.909 -0.3479  0.0938 -0.1454
   16MOL0     C 2044   0.753   3.716   3.887 -0.1921 -0.1593 -1.4655
   16MOL0     C 2045   0.305   3.628   3.322  0.4082  1.0238 -0.4671
   16MOL0     C 2046   0.223   3.609   3.210  0.3694  1.0632  0.1435
   16MOL0     H 2047  -0.037   3.930   2.791 -0.4970  1.0866  2.6861
   16MOL0     H 2048  -0.177   3.880   2.589 -0.2756  0.6894 -0.4615
   16MOL0     H 2049  -0.455   3.764   2.409  0.7536  4.1347 -0.7292
   16MOL0     H 2050  -0.374   3.885   2.510 -0.8983  0.8186 -0.4028
   16MOL0     H 2051  -0.567   3.950   2.578  2.5757  0.3233  2.2043
   16MOL0     H 2052  -0.591   3.801   2.662  0.2011 -1.0364 -0.8895
   16MOL0     H 2053  -0.777   3.787   2.542  0.3200 -4.2602 -0.3990
   16MOL0     H 2054  -0.660   3.703   2.429 -1.0046  0.7518 -2.0830
   16MOL0     H 2055  -0.703   4.002   2.421  2.6081  0.0968  1.2834
   16MOL0     H 2056  -0.652   3.894   2.284  0.1464  0.9097  1.1006
   16MOL0     H 2057  -0.873   3.780   2.285  0.6566  0.8801 -0.6426
   16MOL0     H 2058  -0.854   3.945   2.213 -2.6069  1.8789  0.5288
   16MOL0     H 2059  -0.961   4.045   2.374  2.9805  0.7261  3.0168
   16MOL0     H 2060  -0.957   3.915   2.497 -1.8533  0.9978 -0.1008
   16MOL0     H 2061  -1.132   3.934   2.256 -1.1573  2.0413  1.5661
   16MOL0     H 2062  -1.118   3.783   2.346  2.1902 -0.6755  0.0757
   16MOL0     H 2063  -1.303   3.967   2.432 -0.1005  1.4270  1.2356
   16MOL0     H 2064  -1.169   4.070   2.446  2.3629 -0.4966  1.7265
   16MOL0     H 2065  -1.312   3.742   2.582 -2.4742  1.3424  1.5828
   16MOL0     H 2066  -1.178   3.690   2.951 -1.4897 -1.4601  2.0538
   16MOL0     H 2067  -1.248   3.585   2.839 -0.2296  0.3111  0.4844
   16MOL0     H 2068  -1.364   3.844   2.963  0.6344  1.3048 -1.8530
   16MOL0     H 2069  -1.380   3.679   3.030  4.6433  0.2141  0.9389
   16MOL0     H 2070  -1.480   3.754   2.758  3.2877  0.4734  0.7237
   16MOL0     H 2071  -1.507   3.599   2.846  0.1763 -0.6353  2.1400
   16MOL0     H 2072  -1.634   3.689   3.021 -3.5911  1.9817  2.1514
   16MOL0     H 2073  -1.707   3.706   2.867  0.2999 -5.4461  2.2955
   16MOL0     H 2074  -1.523   3.750   3.180  0.2420 -0.8476  1.7370
   16MOL0     H 2075  -1.542   3.810   3.416 -2.0714 -1.2039 -0.4240
   16MOL0     H 2076  -1.890   4.168   3.709  1.6695 -3.5734  0.2571
   16MOL0     H 2077  -1.910   4.242   3.941 -1.0470 -2.9593 -1.3243
   16MOL0     H 2078  -1.522   4.337   4.147  0.2841  1.5259 -2.3271
   16MOL0     H 2079  -1.636   4.391   4.273  1.7849 -0.8732 -0.0868
   16MOL0     H 2080  -1.636   4.551   4.019  0.4100  1.7836 -0.2937
   16MOL0     H 2081  -1.476   4.543   4.079 -0.2603 -0.7489 -1.8821
   16MOL0     H 2082  -1.555   4.652   4.287  0.4964 -0.5984 -0.2572
   16MOL0     H 2083  -1.727   4.639   4.226 -1.4303  0.5600 -1.8905
   16MOL0     H 2084  -1.510   4.787   4.072 -0.6225  0.9777 -1.9266
   16MOL0     H 2085  -1.665   4.772   4.020  2.8315  0.0970 -0.7396
   16MOL0     H 2086  -1.615   4.987   4.129  0.9417 -1.8222 -1.9575
   16MOL0     H 2087  -1.553   4.902   4.272 -0.7637  1.9713  0.0763
   16MOL0     H 2088  -1.795   4.836   4.329 -2.1246 -0.3156  0.3991
   16MOL0     H 2089  -1.847   4.913   4.178 -2.0721 -1.3305  1.0453
   16MOL0     H 2090  -1.718   5.117   4.300 -0.5768  2.6089  2.3479
   16MOL0     H 2091  -1.889   5.069   4.359 -0.5917 -3.3954  1.5363
   16MOL0     H 2092  -1.677   5.112   4.524  0.9912 -1.3153  2.3897
   16MOL0     H 2093  -1.648   4.934   4.478  0.2093 -0.5344  0.6421
   16MOL0     H 2094  -1.474   4.274   3.944  0.0199 -1.0273 -0.4413
   16MOL0     H 2095  -1.457   4.218   3.728  0.9444 -0.3750 -0.9386
   16MOL0     H 2096  -1.679   4.199   3.300 -1.3932 -1.0464  1.5505
   16MOL0     H 2097  -1.684   4.123   3.071 -0.2942 -2.3975 -0.8323
   16MOL0     H 2098  -0.368   3.565   2.803  1.5922 -1.8662  3.9170
   16MOL0     H 2099  -0.204   3.616   2.997 -1.5191  0.5533  0.2814
   16MOL0     H 2100   0.034   3.876   3.233  1.9309  0.5243 -0.6154
   16MOL0     H 2101   0.154   3.912   3.437 -2.1458 -2.4460  1.4390
   16MOL0     H 2102   0.295   3.929   3.594  1.2641  2.7049 -0.8696
   16MOL0     H 2103   0.447   3.945   3.518 -3.1743  3.3132  0.2694
   16MOL0     H 2104   0.369   3.754   3.759 -0.4927  0.6391 -0.3194
   16MOL0     H 2105   0.535   3.773   3.687  0.4984 -0.8828  1.1602
   16MOL0     H 2106   0.383   3.993   3.850  2.6152  0.6935  1.6361
   16MOL0     H 2107   0.536   3.999   3.775 -0.2792 -0.6677 -0.3219
   16MOL0     H 2108   0.557   3.932   4.030  0.2815 -0.2196  0.3155
   16MOL0     H 2109   0.475   3.789   3.973  1.4676 -1.0614  1.8242
   16MOL0     H 2110   0.843   3.659   3.871  2.4590  2.9508  0.8672
   16MOL0     H 2111   0.370   3.544   3.347 -1.7165 -0.0573  1.8228
   16MOL0     H 2112   0.233   3.517   3.153 -0.5531  1.8738 -1.3791
   17MOL0     O 2113   0.557   1.433  10.181 -0.1311  0.2466 -0.2263
   17MOL0     C 2114   0.458   1.492  10.145  0.0342  0.0303 -0.6586
   17MOL0     O 2115   0.381   1.555  10.229  0.4588  0.5059  0.5650
   17MOL0     C 2116   0.407   1.543  10.360 -0.6655  0.9578  0.0717
   17MOL0     C 2117   0.334   1.463  10.456  0.1000 -0.1759 -0.1325
   17MOL0     C 2118   0.371   1.454  10.588 -0.2764  0.6842  0.6737
   17MOL0     C 2119   0.469   1.540  10.649  0.4484 -0.1595 -0.0621
   17MOL0     O 2120   0.506   1.555  10.777  0.6506  0.3829 -0.2964
   17MOL0     C 2121   0.461   1.455  10.867  0.0463 -0.2504  0.8097
   17MOL0     C 2122   0.512   1.472  11.013  0.3196  0.4726  0.6144
   17MOL0     C 2123   0.441   1.380  11.101 -0.6420 -0.3536 -0.1772
   17MOL0     C 2124   0.456   1.427  11.236  0.1635 -0.5029 -0.8742
   17MOL0     C 2125   0.388   1.319  11.329  0.0469  0.5704 -0.3363
   17MOL0     C 2126   0.409   1.354  11.476  0.1232  0.3765 -0.5365
   17MOL0     C 2127   0.521   1.273  11.539  0.5597  0.2500 -0.7002
   17MOL0     C 2128   0.554   1.321  11.680 -0.1852  0.8734  0.8366
   17MOL0     N 2129   0.680   1.263  11.717  0.6121  0.3548 -0.4831
   17MOL0     C 2130   0.793   1.335  11.759 -0.1135  0.1806  1.2735
   17MOL0     C 2131   0.889   1.242  11.769 -0.4387 -0.8834  0.3193
   17MOL0     C 2132   1.019   1.280  11.833 -0.5463  0.6028  0.0927
   17MOL0     C 2133   1.020   1.258  11.982  0.2061  0.8709 -0.9225
   17MOL0     C 2134   1.150   1.196  12.038 -0.1740  0.1562 -0.1063
   17MOL0     C 2135   1.142   1.185  12.190  0.4986  0.3952  0.3175
   17MOL0     O 2136   1.146   1.314  12.252  0.5855 -0.2997 -0.8325
   17MOL0     C 2137   1.168   1.299  12.381 -1.4405 -0.2556 -0.3959
   17MOL0     C 2138   1.091   1.211  12.466 -0.3894 -0.4483  0.5324
   17MOL0     C 2139   1.126   1.184  12.595  0.1522 -0.0699 -0.2744
   17MOL0     C 2140   1.220   1.269  12.664 -0.4984 -1.0733  0.9000
   17MOL0     C 2141   1.253   1.271  12.808  0.3590 -0.8175  0.9532
   17MOL0     O 2142   1.348   1.349  12.858  0.0896  0.4898  0.4803
   17MOL0     C 2143   1.367   1.342  12.995 -0.5959 -0.2348 -0.2179
   17MOL0     C 2144   1.258   1.370  13.084  0.3065  1.0851 -0.2446
   17MOL0     C 2145   1.277   1.364  13.226 -0.3123 -0.7345 -0.5625
   17MOL0     C 2146   1.409   1.333  13.270 -0.0251 -0.5690 -0.8074
   17MOL0     O 2147   1.445   1.337  13.406  0.1916 -0.1653 -0.1987
   17MOL0     C 2148   1.381   1.239  13.495 -0.2568 -0.4703 -0.2912
   17MOL0     C 2149   1.466   1.140  13.572 -0.7873 -0.0318 -0.0325
   17MOL0     C 2150   1.584   1.066  13.498 -0.5556 -0.2866  0.4341
   17MOL0     C 2151   1.663   0.979  13.606  0.3354 -0.3855  0.0519
   17MOL0     C 2152   1.790   0.919  13.550  0.9538 -0.3421 -0.4440
   17MOL0     C 2153   1.758   0.801  13.457  0.2118  0.3089  0.8422
   17MOL0     C 2154   1.864   0.781  13.356  0.3373  0.2867  0.4577
   17MOL0     C 2155   1.841   0.852  13.224  0.5896 -0.2998 -0.7621
   17MOL0    Cl 2156   1.974   0.809  13.109  0.0778  0.0326 -0.0706
   17MOL0     C 2157   1.508   1.311  13.184  0.0720  0.7019 -0.1913
   17MOL0     C 2158   1.489   1.319  13.050  0.0785  0.6655 -0.8967
   17MOL0     O 2159   1.195   1.184  12.870 -0.3017  0.8777 -0.3561
   17MOL0     C 2160   1.277   1.366  12.580 -0.1958 -0.1362  0.1472
   17MOL0     C 2161   1.251   1.383  12.446  0.4000 -0.0313 -0.2082
   17MOL0     N 2162   0.834   1.117  11.739 -0.0457 -0.9553 -0.5465
   17MOL0     N 2163   0.710   1.130  11.716 -0.0468  0.4740 -0.3813
   17MOL0     C 2164   0.525   1.626  10.554  0.2899 -0.6765 -0.5025
   17MOL0     C 2165   0.508   1.625  10.413 -0.8735 -0.5671 -0.2039
   17MOL0     C 2166   0.410   1.477  10.008 -0.7748 -0.5478 -0.9007
   17MOL0     C 2167   0.485   1.423   9.905 -0.2182 -0.2157  0.2315
   17MOL0     C 2168   0.439   1.416   9.776 -0.6108 -1.0335 -0.0999
   17MOL0     C 2169   0.311   1.470   9.747 -0.7252  0.4797 -0.5852
   17MOL0     O 2170   0.279   1.475   9.621  0.0251  0.5081  0.0537
   17MOL0     C 2171   0.145   1.526   9.577  0.7842 -0.1251  0.3286
   17MOL0     C 2172   0.116   1.455   9.443  0.3004 -0.5448  0.8975
   17MOL0     C 2173   0.222   1.498   9.345 -0.9348 -0.5577  0.7971
   17MOL0     C 2174   0.174   1.493   9.199 -0.5011 -0.4355 -0.7157
   17MOL0     C 2175   0.062   1.586   9.175  0.3290  0.2686  0.1460
   17MOL0     C 2176  -0.037   1.646   9.162 -0.4092  0.2594  0.4741
   17MOL0     C 2177   0.238   1.522   9.851 -0.6440 -0.8947 -0.0281
   17MOL0     C 2178   0.282   1.531   9.982 -0.2889 -0.6800 -0.3010
   17MOL0     H 2179   0.261   1.394  10.415 -1.3045  1.2546 -0.1405
   17MOL0     H 2180   0.306   1.391  10.647 -4.8112  4.1364 -0.0878
   17MOL0     H 2181   0.490   1.356  10.831 -0.8515 -0.0884 -0.4066
   17MOL0     H 2182   0.352   1.457  10.872  0.0073  1.8288  0.0509
   17MOL0     H 2183   0.502   1.578  11.039  2.6059  1.5713 -2.4097
   17MOL0     H 2184   0.620   1.457  11.024  0.4335  1.1827  0.5234
   17MOL0     H 2185   0.492   1.284  11.088  2.6513  1.3258 -0.7535
   17MOL0     H 2186   0.336   1.356  11.081 -0.6718 -1.0199  0.7239
   17MOL0     H 2187   0.560   1.432  11.270 -0.4195  0.5585  0.9193
   17MOL0     H 2188   0.408   1.525  11.241  0.9189  0.0395 -3.1195
   17MOL0     H 2189   0.419   1.217  11.309  3.1977  1.4594 -0.5574
   17MOL0     H 2190   0.282   1.323  11.300  0.5369 -0.0385 -2.3612
   17MOL0     H 2191   0.318   1.338  11.534  0.1131 -0.9167 -0.8699
   17MOL0     H 2192   0.426   1.461  11.469  2.1404  0.0340 -1.7278
   17MOL0     H 2193   0.483   1.170  11.541  1.7374 -0.2522  2.3713
   17MOL0     H 2194   0.602   1.271  11.466 -0.0316 -0.8811 -1.3652
   17MOL0     H 2195   0.479   1.296  11.755  2.1263  2.3641  3.8337
   17MOL0     H 2196   0.557   1.430  11.672 -1.4106  1.0671  2.5692
   17MOL0     H 2197   0.785   1.443  11.763  1.5484  0.2884  3.1819
   17MOL0     H 2198   1.058   1.380  11.813  1.5310 -0.5598 -2.2319
   17MOL0     H 2199   1.101   1.216  11.798 -0.4782 -1.1691  3.0644
   17MOL0     H 2200   0.937   1.191  12.009  0.9713 -0.9553 -2.9052
   17MOL0     H 2201   1.008   1.356  12.030 -0.8517  0.8125 -1.0277
   17MOL0     H 2202   1.159   1.097  11.992 -2.2384 -0.3370  0.4701
   17MOL0     H 2203   1.228   1.269  12.013 -0.2567  0.6183  0.9175
   17MOL0     H 2204   1.217   1.110  12.214 -0.0568 -0.7047 -1.2512
   17MOL0     H 2205   1.054   1.131  12.225  1.4021 -1.1131  0.3279
   17MOL0     H 2206   1.009   1.158  12.419  0.0857  0.4740 -1.4369
   17MOL0     H 2207   1.088   1.096  12.645  1.1474 -0.4779 -0.2252
   17MOL0     H 2208   1.157   1.380  13.047  1.4339  1.3870 -3.5133
   17MOL0     H 2209   1.196   1.361  13.298 -1.0067 -1.2661 -1.3418
   17MOL0     H 2210   1.311   1.186  13.431  1.9647 -0.2552 -3.1528
   17MOL0     H 2211   1.337   1.297  13.576  1.8713 -0.9673  1.2959
   17MOL0     H 2212   1.410   1.063  13.624  0.9207 -1.7567 -0.6174
   17MOL0     H 2213   1.526   1.195  13.646  0.9083 -1.4197 -0.3017
   17MOL0     H 2214   1.654   1.139  13.455  2.3549 -3.9025 -1.5496
   17MOL0     H 2215   1.555   1.006  13.412  0.8335  2.1561 -1.9099
   17MOL0     H 2216   1.683   1.042  13.693  1.9822 -3.0744  1.7731
   17MOL0     H 2217   1.596   0.903  13.647  0.9511 -1.0358 -0.1215
   17MOL0     H 2218   1.845   0.888  13.639  0.2652  1.3198  0.5953
   17MOL0     H 2219   1.849   0.984  13.486 -0.3203 -1.4443 -2.8937
   17MOL0     H 2220   1.670   0.826  13.398  0.1472  0.6003  1.0606
   17MOL0     H 2221   1.737   0.713  13.518 -0.2744 -1.8468 -2.2082
   17MOL0     H 2222   1.959   0.812  13.400  0.4758 -0.4563  0.7021
   17MOL0     H 2223   1.873   0.673  13.338 -0.2462  0.4975 -1.3649
   17MOL0     H 2224   1.831   0.959  13.246 -0.5536 -0.5019 -0.2691
   17MOL0     H 2225   1.748   0.813  13.182  1.0570 -0.6004 -1.5513
   17MOL0     H 2226   1.605   1.301  13.233 -0.1629  0.5109  0.2406
   17MOL0     H 2227   1.560   1.323  12.968 -2.7418  1.9202 -3.4769
   17MOL0     H 2228   1.342   1.437  12.631  0.8068 -0.0382 -1.1978
   17MOL0     H 2229   1.292   1.455  12.376 -1.5345  1.1098 -0.2176
   17MOL0     H 2230   0.603   1.693  10.588 -0.3533  0.5561 -1.3881
   17MOL0     H 2231   0.572   1.683  10.348 -0.7282 -0.2169  0.2463
   17MOL0     H 2232   0.583   1.382   9.926 -0.8392 -2.5578 -1.1455
   17MOL0     H 2233   0.505   1.376   9.700 -0.3721 -3.1604  1.1600
   17MOL0     H 2234   0.145   1.633   9.553  0.1622 -0.0680  0.5714
   17MOL0     H 2235   0.062   1.503   9.643 -0.0595 -1.1867 -1.0399
   17MOL0     H 2236   0.107   1.347   9.458 -0.1696 -0.8787 -1.4266
   17MOL0     H 2237   0.023   1.489   9.397 -0.0249 -1.1403  1.1119
   17MOL0     H 2238   0.312   1.436   9.347 -1.3481 -1.3088 -1.4578
   17MOL0     H 2239   0.246   1.604   9.360  1.1492 -1.0113  0.9857
   17MOL0     H 2240   0.254   1.525   9.131 -2.0675 -0.6826 -2.7807
   17MOL0     H 2241   0.142   1.395   9.163 -1.0272  0.0012 -1.4793
   17MOL0     H 2242  -0.136   1.688   9.155 -1.8392 -2.9879 -0.7613
   17MOL0     H 2243   0.153   1.587   9.830  0.6589  1.2265  0.9254
   17MOL0     H 2244   0.225   1.578  10.061 -0.3819 -1.3035  0.0030
   18MOL0     O 2245   9.627   4.255   9.898 -0.3714 -0.0377  1.0915
   18MOL0     C 2246   9.691   4.196   9.979 -0.8552  0.3894 -0.7350
   18MOL0     O 2247   9.821   4.237  10.021  0.2494  0.5661  0.1623
   18MOL0     C 2248   9.837   4.377  10.013 -0.8310 -0.4750 -0.8026
   18MOL0     C 2249   9.924   4.443   9.928  0.1582 -0.9451 -0.9725
   18MOL0     C 2250   9.957   4.576   9.948  0.6455 -0.0378  0.9464
   18MOL0     C 2251   9.902   4.654  10.047  0.1595  0.1809 -0.4688
   18MOL0     O 2252   9.930   4.786  10.054 -0.5637 -0.3120 -0.4516
   18MOL0     C 2253  10.062   4.830  10.036  0.0204  0.3296  0.0865
   18MOL0     C 2254  10.080   4.967  10.087 -0.3394  0.5909 -0.7249
   18MOL0     C 2255  10.224   5.017  10.069 -0.4730 -0.8181 -0.6076
   18MOL0     C 2256  10.244   5.137  10.170  0.0452  0.2480 -0.7107
   18MOL0     C 2257  10.377   5.200  10.170  0.5768 -0.7424  0.8184
   18MOL0     C 2258  10.492   5.101  10.212 -0.2204  1.3167  0.5393
   18MOL0     C 2259  10.626   5.166  10.250 -0.6738  0.0120 -0.2297
   18MOL0     C 2260  10.693   5.225  10.127 -0.3147 -0.2969  1.0220
   18MOL0     N 2261  10.752   5.130  10.035  0.4180  0.7708 -0.3540
   18MOL0     C 2262  10.859   5.060  10.056 -0.1289  0.6138 -0.2743
   18MOL0     C 2263  10.864   4.956   9.988 -0.2161 -0.0801  0.2314
   18MOL0     C 2264  10.980   4.858   9.993  0.2968 -1.4128 -0.3606
   18MOL0     C 2265  11.043   4.832   9.861 -1.0836  0.2179  0.4606
   18MOL0     C 2266  11.170   4.744   9.878  0.2492 -0.4647 -0.1616
   18MOL0     C 2267  11.282   4.841   9.927  0.8239 -0.5321 -0.1065
   18MOL0     O 2268  11.328   4.916   9.820 -1.2712 -0.4170  0.7171
   18MOL0     C 2269  11.316   5.053   9.808 -1.0564  0.0221 -0.2691
   18MOL0     C 2270  11.403   5.102   9.708  0.8126  0.0405  0.5184
   18MOL0     C 2271  11.394   5.238   9.689 -0.4685 -0.1003  0.0011
   18MOL0     C 2272  11.311   5.319   9.762 -0.3485 -0.8284 -0.8061
   18MOL0     C 2273  11.302   5.468   9.730  0.3611  0.4699  0.2403
   18MOL0     O 2274  11.362   5.498   9.608 -0.2865 -0.5246  0.5392
   18MOL0     C 2275  11.391   5.633   9.600  0.2032  0.0568  0.5786
   18MOL0     C 2276  11.286   5.717   9.563 -0.3525  0.0535  0.4114
   18MOL0     C 2277  11.312   5.851   9.540 -0.5939  0.0271  0.4554
   18MOL0     C 2278  11.446   5.895   9.549 -0.0658 -0.1998 -0.3859
   18MOL0     O 2279  11.461   6.042   9.546  0.3263  0.8277 -0.5441
   18MOL0     C 2280  11.599   6.099   9.566  0.7531  0.8229  1.0443
   18MOL0     C 2281  11.623   6.250   9.600  0.8963  0.0841  0.3581
   18MOL0     C 2282  11.765   6.290   9.608 -0.3307 -0.3339 -0.3161
   18MOL0     C 2283  11.786   6.445   9.608 -0.3629  0.6149 -0.0042
   18MOL0     C 2284  11.918   6.474   9.682 -0.7614 -0.4780  0.3760
   18MOL0     C 2285  11.948   6.629   9.674 -0.2203 -0.7900  0.1549
   18MOL0     C 2286  12.084   6.681   9.706  0.6976  0.9885  0.2482
   18MOL0     C 2287  12.170   6.696   9.582 -0.0987  0.1004 -0.7647
   18MOL0    Cl 2288  12.105   6.818   9.474 -0.3221  0.1843 -0.1138
   18MOL0     C 2289  11.549   5.802   9.579 -0.3518  1.0711  0.0876
   18MOL0     C 2290  11.523   5.670   9.600  0.4497  0.5977  0.0491
   18MOL0     O 2291  11.244   5.543   9.807  0.2448  0.5575 -0.1240
   18MOL0     C 2292  11.238   5.265   9.871 -0.5988  1.1888 -0.2121
   18MOL0     C 2293  11.236   5.133   9.884  0.1801 -0.0492 -0.1504
   18MOL0     N 2294  10.739   4.931   9.933 -0.5927 -0.4415  0.9126
   18MOL0     N 2295  10.683   5.049   9.955  0.7291 -0.2935  0.5279
   18MOL0     C 2296   9.797   4.597  10.116 -0.3995 -0.6470 -0.5467
   18MOL0     C 2297   9.768   4.460  10.109  0.4880  0.2813  0.5745
   18MOL0     C 2298   9.652   4.056  10.017  0.2530 -0.1985  0.6406
   18MOL0     C 2299   9.542   3.992   9.950 -0.2382 -0.2103 -0.2035
   18MOL0     C 2300   9.508   3.854   9.968  0.3534 -0.8849  0.9313
   18MOL0     C 2301   9.581   3.775  10.065  0.6978  0.9377 -0.6440
   18MOL0     O 2302   9.531   3.649  10.078 -0.0153  0.4319  0.5699
   18MOL0     C 2303   9.539   3.584  10.202 -0.8906 -0.5250 -0.0494
   18MOL0     C 2304   9.514   3.430  10.201 -0.4335  0.5179 -0.2393
   18MOL0     C 2305   9.630   3.352  10.134  0.0250 -0.4779  0.9446
   18MOL0     C 2306   9.609   3.207  10.119 -0.2816  0.1784  1.3296
   18MOL0     C 2307   9.611   3.151  10.255 -0.2159 -0.9384  0.4139
   18MOL0     C 2308   9.634   3.126  10.366 -1.4179  0.2191  0.9744
   18MOL0     C 2309   9.690   3.841  10.128  0.9877  0.0689 -0.0984
   18MOL0     C 2310   9.717   3.985  10.111 -0.5719 -0.1097 -0.2998
   18MOL0     H 2311   9.981   4.385   9.856  0.8118 -3.4625  1.4025
   18MOL0     H 2312  10.034   4.618   9.884  0.9532 -3.2943 -1.0631
   18MOL0     H 2313  10.101   4.825   9.934  3.0362  0.6530  1.1239
   18MOL0     H 2314  10.123   4.769  10.103  1.4927  3.0601  1.4311
   18MOL0     H 2315  10.029   4.982  10.183 -3.1654  1.6926 -2.2825
   18MOL0     H 2316  10.032   5.041  10.023 -0.1764  3.6512  2.3700
   18MOL0     H 2317  10.225   5.054   9.966  1.4498  0.1569 -0.2923
   18MOL0     H 2318  10.301   4.941  10.083 -0.7788 -1.4568 -2.2264
   18MOL0     H 2319  10.173   5.215  10.138  0.5745  2.3740  2.7753
   18MOL0     H 2320  10.219   5.099  10.270  2.0265 -0.3076 -0.3902
   18MOL0     H 2321  10.381   5.276  10.249 -0.5362 -0.4260  0.5776
   18MOL0     H 2322  10.390   5.252  10.074  0.0504 -1.1267  0.5358
   18MOL0     H 2323  10.514   5.028  10.133  1.9381  1.6034  0.8109
   18MOL0     H 2324  10.455   5.044  10.298 -1.1316  0.1863 -0.5582
   18MOL0     H 2325  10.614   5.242  10.328  2.7710 -0.6715  1.1479
   18MOL0     H 2326  10.696   5.095  10.295 -3.5171 -0.8810  3.2119
   18MOL0     H 2327  10.764   5.300  10.163 -1.7521  1.4686  0.3337
   18MOL0     H 2328  10.622   5.290  10.076  1.0838 -0.4704 -1.2993
   18MOL0     H 2329  10.937   5.091  10.125 -0.9212  1.1750  0.3863
   18MOL0     H 2330  10.935   4.763  10.024  0.4987 -2.3517 -2.7442
   18MOL0     H 2331  11.044   4.890  10.075 -0.4929 -0.1682 -0.1979
   18MOL0     H 2332  11.062   4.918   9.796 -2.1866  0.8159  0.8989
   18MOL0     H 2333  10.973   4.780   9.794 -2.4628 -0.6888  2.4990
   18MOL0     H 2334  11.160   4.658   9.946 -2.0036 -1.8828 -2.1162
   18MOL0     H 2335  11.198   4.702   9.781 -0.0405 -2.0767  0.4241
   18MOL0     H 2336  11.360   4.775   9.966  1.9829  0.0662 -1.3491
   18MOL0     H 2337  11.249   4.893  10.018  2.5444 -2.1724  1.5423
   18MOL0     H 2338  11.469   5.034   9.656 -2.3925 -2.8122 -0.1845
   18MOL0     H 2339  11.458   5.267   9.606  2.2659 -0.8809  1.7078
   18MOL0     H 2340  11.186   5.678   9.549 -0.0135 -0.0490 -2.1849
   18MOL0     H 2341  11.241   5.928   9.512 -0.8967 -0.5556 -0.3880
   18MOL0     H 2342  11.653   6.076   9.474  1.2930 -0.6568  1.7083
   18MOL0     H 2343  11.639   6.044   9.651 -0.1146  2.5980  2.6547
   18MOL0     H 2344  11.582   6.279   9.698  0.6480  0.1364  0.2399
   18MOL0     H 2345  11.575   6.302   9.517  1.3096  1.0357  0.7060
   18MOL0     H 2346  11.808   6.243   9.519  0.9667 -3.7667  1.9152
   18MOL0     H 2347  11.805   6.232   9.691 -1.5023 -2.2570 -1.0337
   18MOL0     H 2348  11.780   6.473   9.502 -0.7706 -0.9774 -0.4330
   18MOL0     H 2349  11.701   6.484   9.664 -2.6254 -3.2467 -0.3821
   18MOL0     H 2350  12.002   6.417   9.640 -1.5277 -3.1148  2.1782
   18MOL0     H 2351  11.908   6.448   9.787  1.0485 -2.6157  0.0896
   18MOL0     H 2352  11.879   6.682   9.739  0.5298 -0.7234  0.9188
   18MOL0     H 2353  11.920   6.669   9.576 -1.6485  0.8556  1.1807
   18MOL0     H 2354  12.088   6.777   9.758  1.1281  1.4406 -0.6056
   18MOL0     H 2355  12.129   6.604   9.770 -2.2844 -0.9365  0.2759
   18MOL0     H 2356  12.184   6.599   9.535  1.4527 -0.5653  0.9762
   18MOL0     H 2357  12.263   6.736   9.623 -3.0370  3.0246  4.0035
   18MOL0     H 2358  11.654   5.831   9.579  0.3567 -1.1956 -1.3728
   18MOL0     H 2359  11.597   5.591   9.608  0.4821  0.8091  2.6235
   18MOL0     H 2360  11.170   5.322   9.933 -0.3883 -1.3489  2.5788
   18MOL0     H 2361  11.169   5.091   9.959  1.0924  0.6834  1.1200
   18MOL0     H 2362   9.745   4.670  10.177  1.5657  1.5137 -1.3064
   18MOL0     H 2363   9.689   4.411  10.164  1.4932 -3.1150 -0.7025
   18MOL0     H 2364   9.479   4.048   9.882 -2.3349 -3.9728 -1.6665
   18MOL0     H 2365   9.441   3.804   9.899 -0.5762  0.3781  0.8718
   18MOL0     H 2366   9.474   3.632  10.277 -3.2228  0.0209 -2.2599
   18MOL0     H 2367   9.643   3.607  10.227 -1.8274  0.6116  3.4740
   18MOL0     H 2368   9.497   3.387  10.300  0.5120  1.5577  0.3964
   18MOL0     H 2369   9.423   3.414  10.143 -1.4983  1.3528  1.1252
   18MOL0     H 2370   9.724   3.360  10.189  1.2537  0.7986 -1.2290
   18MOL0     H 2371   9.648   3.405  10.041  0.3435 -0.2930  1.1074
   18MOL0     H 2372   9.511   3.192  10.071 -0.2600  0.7621  1.0871
   18MOL0     H 2373   9.681   3.155  10.055 -1.5507  0.8015 -0.7238
   18MOL0     H 2374   9.657   3.097  10.467  0.6697  0.1829  0.5515
   18MOL0     H 2375   9.752   3.777  10.189 -0.2393 -1.9030 -0.8338
   18MOL0     H 2376   9.791   4.036  10.172  2.5166 -3.8183 -0.5480
   19MOL0     O 2377   3.897   1.353   8.439  0.2711 -0.5226 -0.8898
   19MOL0     C 2378   3.910   1.350   8.557  0.0068 -0.9271  0.8439
   19MOL0     O 2379   4.004   1.283   8.626 -0.2649  0.1558 -0.4804
   19MOL0     C 2380   4.077   1.181   8.565  0.9547  0.2979 -0.8745
   19MOL0     C 2381   4.014   1.054   8.547  0.0931 -0.4880  0.3699
   19MOL0     C 2382   4.083   0.946   8.494  1.1967 -0.0536  0.2528
   19MOL0     C 2383   4.211   0.946   8.460 -0.8670 -0.2677  0.2215
   19MOL0     O 2384   4.283   0.840   8.412  0.2426  0.1347 -0.9546
   19MOL0     C 2385   4.400   0.842   8.323 -0.1128  1.1943 -0.6717
   19MOL0     C 2386   4.362   0.909   8.190 -0.3910 -0.0363  0.2765
   19MOL0     C 2387   4.464   0.878   8.087 -0.7977  0.0251  0.2807
   19MOL0     C 2388   4.430   0.936   7.942  0.5984  0.2576 -0.4450
   19MOL0     C 2389   4.467   0.855   7.825 -0.0159  0.4567  0.0317
   19MOL0     C 2390   4.381   0.724   7.827 -0.2411  0.7584  0.0200
   19MOL0     C 2391   4.452   0.625   7.732 -0.2153  0.2770 -0.0419
   19MOL0     C 2392   4.426   0.652   7.583 -0.4447 -0.1565 -0.5216
   19MOL0     N 2393   4.287   0.623   7.545 -0.6145  0.9290 -0.1320
   19MOL0     C 2394   4.234   0.508   7.499 -0.2911  0.0776  0.4844
   19MOL0     C 2395   4.106   0.539   7.460  0.0227  0.0521  0.3674
   19MOL0     C 2396   4.001   0.430   7.420  0.0685 -0.1143 -0.8395
   19MOL0     C 2397   3.922   0.394   7.550  0.0177 -0.4662 -0.2992
   19MOL0     C 2398   3.831   0.286   7.522 -0.7987 -0.4056 -0.0171
   19MOL0     C 2399   3.773   0.214   7.646  0.1839 -0.8137 -0.3914
   19MOL0     O 2400   3.706   0.093   7.605 -0.2296 -0.1378 -0.2085
   19MOL0     C 2401   3.570   0.079   7.586  0.2107  0.5659 -0.5684
   19MOL0     C 2402   3.484   0.182   7.578  0.0927 -0.9864  0.4942
   19MOL0     C 2403   3.350   0.168   7.540 -0.0430 -0.5657 -0.2412
   19MOL0     C 2404   3.305   0.038   7.505 -0.3754 -0.3171 -0.7743
   19MOL0     C 2405   3.170   0.027   7.441  0.6253 -0.0636 -0.0334
   19MOL0     O 2406   3.083   0.130   7.432 -1.3552 -0.0342 -0.6155
   19MOL0     C 2407   2.962   0.109   7.363 -1.3054 -0.2091  1.6556
   19MOL0     C 2408   2.850   0.070   7.422  0.0748 -0.3264  0.7114
   19MOL0     C 2409   2.730   0.072   7.345  1.2352  0.0279 -0.7207
   19MOL0     C 2410   2.727   0.095   7.205 -0.8859  1.2906 -0.3178
   19MOL0     O 2411   2.612   0.097   7.146  0.0708  0.5210  0.4911
   19MOL0     C 2412   2.606   0.041   7.009  0.1238 -0.4801 -1.4233
   19MOL0     C 2413   2.628  -0.107   7.027 -0.0901 -0.5438 -0.4164
   19MOL0     C 2414   2.518  -0.163   7.113 -0.1095  0.5299 -0.2671
   19MOL0     C 2415   2.527  -0.313   7.137  0.3697  0.8634  0.0372
   19MOL0     C 2416   2.468  -0.357   7.277 -0.4245  0.4104 -0.5072
   19MOL0     C 2417   2.417  -0.509   7.296  0.0471  0.3186  0.3022
   19MOL0     C 2418   2.346  -0.528   7.433 -0.7402 -0.1505 -0.7316
   19MOL0     C 2419   2.338  -0.673   7.463 -0.2054 -0.4789 -0.1821
   19MOL0    Cl 2420   2.236  -0.696   7.606 -0.2599 -0.1569  0.3387
   19MOL0     C 2421   2.856   0.119   7.152 -0.0396 -0.0467  1.0086
   19MOL0     C 2422   2.977   0.126   7.225  0.7983 -0.4268 -0.4181
   19MOL0     O 2423   3.140  -0.095   7.411 -0.9978 -0.4737  0.0018
   19MOL0     C 2424   3.384  -0.071   7.524  1.2656  0.3845 -0.3305
   19MOL0     C 2425   3.518  -0.054   7.561 -0.4836 -0.0175  0.7832
   19MOL0     N 2426   4.078   0.668   7.488  0.7012 -0.5037 -0.5363
   19MOL0     N 2427   4.191   0.721   7.536  0.1958  1.3135  0.4875
   19MOL0     C 2428   4.276   1.069   8.492 -0.0740 -1.1373  0.6621
   19MOL0     C 2429   4.210   1.188   8.542  0.1962  0.4767  0.2446
   19MOL0     C 2430   3.809   1.424   8.632  0.3292 -0.5322 -0.4542
   19MOL0     C 2431   3.818   1.451   8.765  0.2389 -0.0145 -0.3183
   19MOL0     C 2432   3.716   1.497   8.847  0.3684 -0.2254  0.6787
   19MOL0     C 2433   3.593   1.528   8.786 -0.3245 -0.2329  0.4080
   19MOL0     O 2434   3.496   1.586   8.859  0.9438 -0.5552 -0.6703
   19MOL0     C 2435   3.526   1.645   8.990  0.4471 -0.2552  0.1810
   19MOL0     C 2436   3.424   1.747   9.023 -0.9119 -0.1779  0.1304
   19MOL0     C 2437   3.401   1.858   8.920 -0.3975  0.6733  0.4091
   19MOL0     C 2438   3.520   1.953   8.914 -0.9908  0.1309  0.2239
   19MOL0     C 2439   3.553   2.005   9.038  0.5240  0.0753 -0.6080
   19MOL0     C 2440   3.570   2.052   9.148  0.9428 -0.1986 -0.4068
   19MOL0     C 2441   3.585   1.514   8.645 -0.3384 -0.0053  0.4440
   19MOL0     C 2442   3.686   1.450   8.571  0.1667 -0.9162  0.5308
   19MOL0     H 2443   3.907   1.059   8.565 -0.0467  0.2505 -0.5740
   19MOL0     H 2444   4.026   0.856   8.471 -0.4254  0.1640  2.9444
   19MOL0     H 2445   4.429   0.737   8.322 -1.3256  0.8355 -1.9329
   19MOL0     H 2446   4.484   0.894   8.370 -1.7440  1.3332  2.3557
   19MOL0     H 2447   4.353   1.017   8.201  4.0469  0.6127 -0.8401
   19MOL0     H 2448   4.266   0.871   8.153  0.5643 -0.5100 -1.8349
   19MOL0     H 2449   4.466   0.770   8.072 -1.2557  0.2761 -1.8922
   19MOL0     H 2450   4.563   0.913   8.116  0.0539 -2.1645  0.2141
   19MOL0     H 2451   4.322   0.949   7.951  0.5649 -1.2001  2.2605
   19MOL0     H 2452   4.480   1.032   7.925 -2.2980  1.7727 -1.0973
   19MOL0     H 2453   4.570   0.818   7.818 -0.5620 -1.0181 -0.5684
   19MOL0     H 2454   4.457   0.915   7.735  1.9989  0.5008 -0.2077
   19MOL0     H 2455   4.282   0.760   7.799 -0.7739 -0.9243 -0.4007
   19MOL0     H 2456   4.390   0.678   7.926 -2.3419 -0.6031 -0.3453
   19MOL0     H 2457   4.557   0.609   7.759  0.1161 -0.3359 -1.6082
   19MOL0     H 2458   4.406   0.531   7.765 -0.0897  0.7075  1.4480
   19MOL0     H 2459   4.484   0.595   7.509 -0.3728  0.7928 -1.2175
   19MOL0     H 2460   4.447   0.759   7.569 -0.6805  0.0206  0.4244
   19MOL0     H 2461   4.279   0.410   7.488 -1.6495 -0.4085 -1.2588
   19MOL0     H 2462   4.040   0.337   7.378 -1.2931  0.1534 -2.8238
   19MOL0     H 2463   3.925   0.473   7.354 -2.8209  2.2313  3.4502
   19MOL0     H 2464   3.868   0.483   7.585  0.1872 -0.0771 -0.9911
   19MOL0     H 2465   3.988   0.351   7.625 -1.9713 -3.2910 -0.0089
   19MOL0     H 2466   3.740   0.335   7.483 -1.6907 -1.9630  0.0510
   19MOL0     H 2467   3.872   0.212   7.452 -1.9471  1.5561 -2.9830
   19MOL0     H 2468   3.706   0.276   7.706 -1.2920 -1.3111 -1.4650
   19MOL0     H 2469   3.860   0.188   7.707  0.4998  2.6046  0.7900
   19MOL0     H 2470   3.523   0.283   7.588  1.8338 -1.5422 -0.3748
   19MOL0     H 2471   3.280   0.251   7.545  0.7189  0.0071  1.9819
   19MOL0     H 2472   2.843   0.040   7.526  0.4809 -1.5313  0.4053
   19MOL0     H 2473   2.638   0.057   7.400  2.7542 -0.3897  1.8580
   19MOL0     H 2474   2.656   0.098   6.930  0.4837 -1.2286 -1.7440
   19MOL0     H 2475   2.500   0.053   6.986  0.4447  1.6602 -2.0301
   19MOL0     H 2476   2.720  -0.133   7.081 -1.0157 -1.7067  0.6713
   19MOL0     H 2477   2.634  -0.151   6.927  0.6762 -0.5446 -0.3813
   19MOL0     H 2478   2.423  -0.130   7.069 -0.3979  2.8207  1.8621
   19MOL0     H 2479   2.532  -0.118   7.211  3.4150  2.0971 -1.3363
   19MOL0     H 2480   2.475  -0.371   7.060 -0.3409  0.7665  0.5736
   19MOL0     H 2481   2.635  -0.331   7.144  0.3798  0.3011 -1.3091
   19MOL0     H 2482   2.382  -0.290   7.289 -2.3317 -2.3535  5.5497
   19MOL0     H 2483   2.537  -0.327   7.357  0.6507 -1.4422 -0.6947
   19MOL0     H 2484   2.492  -0.589   7.293  1.7739  1.8503  0.9145
   19MOL0     H 2485   2.352  -0.517   7.209  0.8729  1.0525 -0.3915
   19MOL0     H 2486   2.403  -0.478   7.513 -0.4333 -1.4877 -0.0794
   19MOL0     H 2487   2.250  -0.479   7.419 -2.6274 -3.3245  0.1285
   19MOL0     H 2488   2.434  -0.726   7.469 -1.7951 -3.7878 -1.5709
   19MOL0     H 2489   2.289  -0.722   7.378  1.4245  1.4002 -2.3409
   19MOL0     H 2490   2.870   0.133   7.045 -0.0052 -0.2014  0.9923
   19MOL0     H 2491   3.073   0.149   7.181 -0.5261  2.0172 -2.3434
   19MOL0     H 2492   3.344  -0.170   7.505 -4.0066  2.3288 -1.1553
   19MOL0     H 2493   3.584  -0.139   7.572  0.1223  0.3888  0.3164
   19MOL0     H 2494   4.378   1.088   8.461 -0.5259 -0.0537 -0.2270
   19MOL0     H 2495   4.262   1.281   8.560  0.1355  0.6622 -0.5196
   19MOL0     H 2496   3.920   1.424   8.791 -0.5671 -1.9249  1.1776
   19MOL0     H 2497   3.724   1.494   8.955 -1.1048  1.0750  0.8567
   19MOL0     H 2498   3.620   1.696   9.008  0.7067 -0.7964  0.3869
   19MOL0     H 2499   3.518   1.564   9.063 -3.3862  0.5987  0.9627
   19MOL0     H 2500   3.332   1.693   9.049  0.2211 -0.8684  3.1223
   19MOL0     H 2501   3.445   1.782   9.124 -2.0792 -1.9086  1.0213
   19MOL0     H 2502   3.307   1.911   8.938  1.0925  3.7917 -0.3216
   19MOL0     H 2503   3.393   1.826   8.816 -0.4244  2.9769 -0.3484
   19MOL0     H 2504   3.603   1.908   8.860 -1.5446 -1.6320  0.7734
   19MOL0     H 2505   3.485   2.041   8.859 -3.1616  0.0534  1.3552
   19MOL0     H 2506   3.587   2.083   9.249  0.3062  0.9686 -0.6288
   19MOL0     H 2507   3.495   1.548   8.595 -1.0307  0.0030  1.6620
   19MOL0     H 2508   3.680   1.421   8.466  3.0603 -3.2738  0.8930
   20MOL0     O 2509   8.353   4.324   3.123 -0.0346  0.2373 -0.1392
   20MOL0     C 2510   8.357   4.261   3.018 -0.1354  1.1472  0.1323
   20MOL0     O 2511   8.438   4.284   2.905  0.6950 -0.0375 -0.2240
   20MOL0     C 2512   8.537   4.374   2.904 -0.1536  0.6953  0.3369
   20MOL0     C 2513   8.652   4.366   2.990  0.3335  0.0616 -0.4919
   20MOL0     C 2514   8.748   4.475   2.991 -0.0162 -0.3568 -0.7613
   20MOL0     C 2515   8.746   4.574   2.890 -0.4391  0.2466  0.1772
   20MOL0     O 2516   8.848   4.667   2.886 -0.1029  0.5732  0.3240
   20MOL0     C 2517   8.849   4.764   2.786 -0.7829 -0.8257  1.0990
   20MOL0     C 2518   8.979   4.842   2.792 -0.6599 -0.9113  0.4797
   20MOL0     C 2519   8.982   4.973   2.881 -0.0415 -0.0852  0.0158
   20MOL0     C 2520   8.883   5.078   2.829  1.2100  0.0758 -0.1321
   20MOL0     C 2521   8.890   5.212   2.899  0.1894 -0.0524  0.3641
   20MOL0     C 2522   8.874   5.326   2.798  0.1466 -0.6177 -0.1670
   20MOL0     C 2523   8.733   5.353   2.755 -0.1478 -1.1133  0.8513
   20MOL0     C 2524   8.728   5.431   2.621 -0.7096 -0.0199 -0.7433
   20MOL0     N 2525   8.794   5.562   2.626  0.1484 -0.3137  0.1610
   20MOL0     C 2526   8.724   5.663   2.690 -0.3718 -0.0417  0.9041
   20MOL0     C 2527   8.794   5.770   2.649 -0.4135  0.1360  0.6457
   20MOL0     C 2528   8.771   5.912   2.681  0.1437 -0.1498 -0.0101
   20MOL0     C 2529   8.630   5.957   2.636  0.4278  0.5375  0.0558
   20MOL0     C 2530   8.618   6.116   2.642  1.1848 -0.2897 -0.3145
   20MOL0     C 2531   8.589   6.177   2.779  0.5758  0.5066 -0.2385
   20MOL0     O 2532   8.671   6.283   2.816  0.8036 -0.2868  0.1669
   20MOL0     C 2533   8.656   6.349   2.938 -0.0600 -0.9295  0.1326
   20MOL0     C 2534   8.566   6.314   3.039 -0.8005 -0.0623  0.3789
   20MOL0     C 2535   8.557   6.380   3.156 -0.3258  0.5397 -1.1906
   20MOL0     C 2536   8.639   6.492   3.183  0.1906 -0.4984 -1.0663
   20MOL0     C 2537   8.616   6.572   3.306 -0.9082  0.6082  0.2965
   20MOL0     O 2538   8.571   6.513   3.430 -0.2835  0.0797  0.6130
   20MOL0     C 2539   8.611   6.575   3.547  1.4932  0.4049  1.3856
   20MOL0     C 2540   8.550   6.688   3.585 -0.8449  0.2956 -0.5163
   20MOL0     C 2541   8.572   6.739   3.715  0.2057  0.1050  0.3474
   20MOL0     C 2542   8.659   6.676   3.791  1.3932 -0.0343 -0.8757
   20MOL0     O 2543   8.675   6.719   3.924 -0.4893 -0.1613  0.4007
   20MOL0     C 2544   8.787   6.678   3.995  0.4495 -0.3443  0.2766
   20MOL0     C 2545   8.810   6.763   4.115 -0.0505 -0.5287  0.6852
   20MOL0     C 2546   8.855   6.675   4.227 -0.4795  0.2831 -0.5809
   20MOL0     C 2547   8.896   6.768   4.351  1.0481 -0.2736  0.6909
   20MOL0     C 2548   8.946   6.686   4.474  0.7986  0.6219  0.2689
   20MOL0     C 2549   9.025   6.780   4.567 -0.4070 -0.0421  0.3383
   20MOL0     C 2550   9.077   6.715   4.697  1.2641 -0.6633 -0.7816
   20MOL0     C 2551   9.156   6.825   4.755  0.1890  0.0024  0.9310
   20MOL0    Cl 2552   9.189   6.784   4.922 -0.3908 -0.4576  0.3019
   20MOL0     C 2553   8.739   6.565   3.741  0.7119  0.5044 -0.7575
   20MOL0     C 2554   8.703   6.515   3.621  1.1938  0.5034  0.0743
   20MOL0     O 2555   8.640   6.696   3.300  0.0235 -0.6123 -0.4564
   20MOL0     C 2556   8.726   6.532   3.085  0.5629 -0.3399  0.1953
   20MOL0     C 2557   8.736   6.463   2.958 -0.4731 -0.1197 -0.1070
   20MOL0     N 2558   8.915   5.727   2.598 -0.6480  0.4023  0.7492
   20MOL0     N 2559   8.913   5.605   2.573 -0.7613 -0.3001 -0.0449
   20MOL0     C 2560   8.634   4.561   2.798 -0.7299 -1.4723  0.2875
   20MOL0     C 2561   8.531   4.471   2.817  1.1381 -0.0966  0.5503
   20MOL0     C 2562   8.238   4.186   2.991  0.4653  0.6033 -0.1635
   20MOL0     C 2563   8.131   4.241   2.910  0.4813  1.2465 -0.0633
   20MOL0     C 2564   8.030   4.152   2.865 -1.4571 -0.4769 -0.5257
   20MOL0     C 2565   8.024   4.020   2.898 -0.2682  0.6215 -0.1166
   20MOL0     O 2566   7.915   3.956   2.838  0.6428  0.3193  0.0444
   20MOL0     C 2567   7.859   3.846   2.902 -0.3214 -0.7150 -0.3374
   20MOL0     C 2568   7.716   3.838   2.845  0.7979  0.2537  0.4804
   20MOL0     C 2569   7.613   3.951   2.878  1.0568  0.1691 -0.7173
   20MOL0     C 2570   7.606   3.980   3.032  0.4883 -0.0962 -0.2103
   20MOL0     C 2571   7.499   4.085   3.054  0.4813  1.2964  0.3026
   20MOL0     C 2572   7.419   4.165   3.069  0.7017 -0.1443  0.3392
   20MOL0     C 2573   8.121   3.967   2.983  1.3821  0.0664 -1.1287
   20MOL0     C 2574   8.233   4.047   3.022  0.0735 -0.1442 -0.0177
   20MOL0     H 2575   8.665   4.289   3.065  0.5219  1.4881  0.9959
   20MOL0     H 2576   8.829   4.498   3.059 -2.0707  2.6418  0.9319
   20MOL0     H 2577   8.759   4.826   2.797 -1.1294 -1.4587  1.9386
   20MOL0     H 2578   8.855   4.716   2.688  5.2113  0.3086  0.5356
   20MOL0     H 2579   9.003   4.862   2.687  0.3767  1.1842  1.0527
   20MOL0     H 2580   9.055   4.771   2.825  0.1279 -0.0321  0.5791
   20MOL0     H 2581   9.084   5.011   2.892 -0.4989  0.8284  1.3756
   20MOL0     H 2582   8.964   4.937   2.983  2.1667 -3.1300 -0.5234
   20MOL0     H 2583   8.922   5.090   2.727  0.8069 -0.5309 -0.3623
   20MOL0     H 2584   8.781   5.043   2.847  0.5752  1.5698 -0.6397
   20MOL0     H 2585   8.973   5.220   2.970 -1.3429 -2.1030  2.5096
   20MOL0     H 2586   8.806   5.235   2.965  0.4760 -1.7566  1.3636
   20MOL0     H 2587   8.932   5.302   2.708 -1.1641 -3.5013 -0.3676
   20MOL0     H 2588   8.906   5.422   2.839  0.3736 -0.3388 -0.9611
   20MOL0     H 2589   8.683   5.258   2.733 -0.5261 -0.2260 -2.8458
   20MOL0     H 2590   8.687   5.408   2.838  2.2654 -0.9911  2.1979
   20MOL0     H 2591   8.629   5.449   2.578 -1.1877 -4.0363 -1.6927
   20MOL0     H 2592   8.788   5.378   2.547  0.9514  0.1641  0.4117
   20MOL0     H 2593   8.619   5.649   2.713 -1.0668  0.3867 -1.7449
   20MOL0     H 2594   8.844   5.969   2.621  1.2056  0.3018  1.6377
   20MOL0     H 2595   8.785   5.943   2.785  0.9788  1.5423 -0.5793
   20MOL0     H 2596   8.557   5.901   2.695 -0.1064  2.0942  0.9209
   20MOL0     H 2597   8.623   5.929   2.531  3.7913  0.6233 -0.3148
   20MOL0     H 2598   8.713   6.159   2.609  0.5888 -0.6285 -2.5718
   20MOL0     H 2599   8.551   6.166   2.573  1.1846  3.2962  2.0163
   20MOL0     H 2600   8.585   6.098   2.854 -0.1790 -0.3348 -1.1240
   20MOL0     H 2601   8.485   6.209   2.765  0.8716  1.6869  0.1960
   20MOL0     H 2602   8.504   6.224   3.036  1.1736 -1.5380  1.2774
   20MOL0     H 2603   8.487   6.333   3.224  1.3803  0.3576  0.5391
   20MOL0     H 2604   8.483   6.744   3.521 -0.3704  3.7485  1.7811
   20MOL0     H 2605   8.524   6.834   3.736 -2.3399 -0.6196 -1.7004
   20MOL0     H 2606   8.871   6.685   3.924 -0.0619 -0.5760 -0.3626
   20MOL0     H 2607   8.783   6.573   4.026  2.1405 -0.5792 -0.1918
   20MOL0     H 2608   8.706   6.792   4.134 -1.1351 -2.9883 -0.9953
   20MOL0     H 2609   8.870   6.853   4.096  0.6984 -1.7612 -3.7088
   20MOL0     H 2610   8.932   6.604   4.196 -1.7687 -0.6699 -1.7167
   20MOL0     H 2611   8.772   6.609   4.253 -0.9637 -0.6312 -3.9878
   20MOL0     H 2612   8.979   6.834   4.322  1.8029 -1.2443  0.5768
   20MOL0     H 2613   8.817   6.842   4.362  0.7464 -0.2196 -1.4196
   20MOL0     H 2614   9.019   6.616   4.433 -1.1425 -0.3818 -1.6697
   20MOL0     H 2615   8.860   6.635   4.519 -0.8634  3.3989  0.5065
   20MOL0     H 2616   8.946   6.849   4.600  0.1496  0.4160  0.7388
   20MOL0     H 2617   9.102   6.830   4.508  0.3971 -1.9537 -0.3111
   20MOL0     H 2618   8.987   6.700   4.758 -0.3436  1.0515 -2.6162
   20MOL0     H 2619   9.139   6.628   4.673  3.9617  1.0815 -0.5717
   20MOL0     H 2620   9.110   6.923   4.740  2.9308  1.2158 -0.3418
   20MOL0     H 2621   9.246   6.824   4.692  0.5933  2.7170  1.3180
   20MOL0     H 2622   8.817   6.513   3.797 -0.8991  0.4575  1.6004
   20MOL0     H 2623   8.746   6.421   3.588  0.1949  0.2819 -0.6407
   20MOL0     H 2624   8.797   6.612   3.102  0.8394 -1.0729  2.9410
   20MOL0     H 2625   8.797   6.497   2.875 -1.0345  3.8724  0.9138
   20MOL0     H 2626   8.634   4.627   2.712 -0.2089 -2.3186 -0.3662
   20MOL0     H 2627   8.448   4.495   2.751 -0.5160  1.8763  3.1949
   20MOL0     H 2628   8.143   4.343   2.876  1.6896  0.9377 -0.6579
   20MOL0     H 2629   7.961   4.191   2.791 -3.5242  1.2024  2.1063
   20MOL0     H 2630   7.857   3.857   3.011 -2.0561  2.4434 -0.5826
   20MOL0     H 2631   7.925   3.760   2.881 -2.3879 -2.1971 -1.1076
   20MOL0     H 2632   7.724   3.812   2.739  0.9616 -0.1464  0.5908
   20MOL0     H 2633   7.668   3.745   2.873 -2.3105  1.7291  0.4604
   20MOL0     H 2634   7.511   3.935   2.842  1.1796 -1.1178 -0.5447
   20MOL0     H 2635   7.647   4.042   2.827 -0.9726 -0.0341 -2.6208
   20MOL0     H 2636   7.583   3.898   3.100  2.6221 -0.9411 -0.4222
   20MOL0     H 2637   7.701   4.022   3.066 -0.1238  0.8429  0.3537
   20MOL0     H 2638   7.343   4.239   3.088 -0.3302 -0.9758 -0.3827
   20MOL0     H 2639   8.104   3.869   3.027  1.7368  0.8488  0.8479
   20MOL0     H 2640   8.312   3.999   3.079  1.2000 -0.1936 -1.5527
   21MOL0     O 2641   4.080   4.734   7.659  0.1558  0.0196 -0.1461
   21MOL0     C 2642   3.956   4.741   7.642 -0.4274  1.2877 -1.0792
   21MOL0     O 2643   3.864   4.738   7.740 -0.2316 -0.0642 -0.0795
   21MOL0     C 2644   3.890   4.698   7.865  0.6320  0.2749  0.2292
   21MOL0     C 2645   3.835   4.775   7.971 -0.0607  0.0189 -0.2081
   21MOL0     C 2646   3.845   4.728   8.107  0.7144 -0.8834 -0.1049
   21MOL0     C 2647   3.933   4.618   8.135 -0.1608 -0.4622  0.3135
   21MOL0     O 2648   3.943   4.545   8.255 -0.1830 -0.5298  0.6678
   21MOL0     C 2649   3.825   4.547   8.330 -0.0876 -0.8589 -0.4261
   21MOL0     C 2650   3.837   4.417   8.419  0.7830 -0.0241  0.0470
   21MOL0     C 2651   3.726   4.422   8.524  0.1924  0.2307  0.1600
   21MOL0     C 2652   3.740   4.500   8.650 -0.1331 -0.7212 -0.1283
   21MOL0     C 2653   3.648   4.439   8.754 -0.6973  0.0188 -0.2821
   21MOL0     C 2654   3.628   4.543   8.862  0.4733 -1.0355  0.0429
   21MOL0     C 2655   3.522   4.497   8.971  0.3124 -0.3448  0.4102
   21MOL0     C 2656   3.399   4.416   8.913 -0.2704 -0.1821  0.4123
   21MOL0     N 2657   3.307   4.509   8.839 -0.6886  0.9811 -0.6470
   21MOL0     C 2658   3.171   4.517   8.870  0.9424  0.4641 -0.3732
   21MOL0     C 2659   3.130   4.622   8.793  0.3369  0.1061  0.0043
   21MOL0     C 2660   2.983   4.666   8.768 -0.3024  0.2151 -0.3153
   21MOL0     C 2661   2.929   4.631   8.627 -1.0491 -1.4303 -0.6032
   21MOL0     C 2662   2.949   4.489   8.577  0.8518  0.2214 -1.0062
   21MOL0     C 2663   2.939   4.474   8.429 -0.2605 -0.2373 -0.2650
   21MOL0     O 2664   3.027   4.362   8.393 -0.9641 -0.1606 -1.0185
   21MOL0     C 2665   3.008   4.313   8.269  0.2264 -0.0168  0.4559
   21MOL0     C 2666   3.048   4.185   8.251 -0.1602 -0.5093  0.9446
   21MOL0     C 2667   3.016   4.107   8.134 -0.2235  0.6529 -0.8523
   21MOL0     C 2668   2.943   4.159   8.026  0.3521 -0.1245 -0.2108
   21MOL0     C 2669   2.910   4.081   7.904 -0.2410  0.4713  1.0606
   21MOL0     O 2670   2.945   3.951   7.890 -0.0446 -0.1870  0.2369
   21MOL0     C 2671   2.922   3.884   7.766  0.5657 -0.0388 -0.0345
   21MOL0     C 2672   2.857   3.756   7.771 -0.8003 -1.0633  0.7137
   21MOL0     C 2673   2.842   3.678   7.660 -0.5963 -0.0898  0.1466
   21MOL0     C 2674   2.908   3.716   7.542  0.7281 -0.7938  0.2727
   21MOL0     O 2675   2.904   3.632   7.441  0.6845  0.5034 -0.3838
   21MOL0     C 2676   2.981   3.648   7.314  1.0357  0.2532 -0.0249
   21MOL0     C 2677   2.944   3.537   7.209 -0.5701  0.3251 -0.6666
   21MOL0     C 2678   2.944   3.396   7.270 -0.1006  0.2267 -0.2091
   21MOL0     C 2679   2.924   3.293   7.165  0.5385  0.7610  0.1526
   21MOL0     C 2680   2.864   3.171   7.210  0.0325  0.5647 -0.4123
   21MOL0     C 2681   2.966   3.082   7.270 -0.7108  0.5258 -0.2443
   21MOL0     C 2682   2.907   2.951   7.320  1.4009  0.7887 -0.3143
   21MOL0     C 2683   3.006   2.831   7.321 -0.9529 -0.5159  0.0304
   21MOL0    Cl 2684   3.058   2.780   7.152  0.1145  0.6043 -0.3296
   21MOL0     C 2685   2.976   3.840   7.538 -0.4602  0.7176  0.0770
   21MOL0     C 2686   2.976   3.929   7.648  1.0775 -0.1861  0.2357
   21MOL0     O 2687   2.847   4.136   7.826 -0.1366 -0.1976 -0.7819
   21MOL0     C 2688   2.896   4.290   8.054 -0.4114 -0.0732 -0.4884
   21MOL0     C 2689   2.907   4.355   8.178 -0.0307 -0.4660 -0.3047
   21MOL0     N 2690   3.243   4.698   8.748 -0.1563  0.3520  0.5503
   21MOL0     N 2691   3.340   4.621   8.769 -0.3858  0.3784  0.0455
   21MOL0     C 2692   4.007   4.571   8.032  0.1823  0.5495 -0.1107
   21MOL0     C 2693   3.979   4.595   7.901 -0.3969  0.3370  0.5136
   21MOL0     C 2694   3.900   4.729   7.513  0.5148 -0.1394  0.2454
   21MOL0     C 2695   3.773   4.781   7.479  0.3714 -0.9575  0.7323
   21MOL0     C 2696   3.738   4.805   7.350  0.3041 -0.9601 -0.0523
   21MOL0     C 2697   3.796   4.729   7.251  1.1305  0.3189  0.2042
   21MOL0     O 2698   3.757   4.711   7.118  0.4310  0.0261 -0.1577
   21MOL0     C 2699   3.647   4.796   7.073  0.1684  0.2247 -0.2946
   21MOL0     C 2700   3.628   4.784   6.925 -0.0484  0.2703  0.4220
   21MOL0     C 2701   3.487   4.830   6.898 -0.8808 -0.1246  0.8261
   21MOL0     C 2702   3.480   4.861   6.743  0.7560 -0.2549 -0.5944
   21MOL0     C 2703   3.352   4.919   6.712  0.3090  0.4282 -0.0441
   21MOL0     C 2704   3.261   4.977   6.665  0.2244 -0.3496  0.4107
   21MOL0     C 2705   3.904   4.653   7.278 -0.3391 -0.2464  0.3477
   21MOL0     C 2706   3.967   4.667   7.405  0.0281 -0.5900  0.1084
   21MOL0     H 2707   3.771   4.860   7.951  1.8041  1.3245 -0.8971
   21MOL0     H 2708   3.788   4.769   8.190 -0.9703  1.7780 -2.3961
   21MOL0     H 2709   3.737   4.542   8.265  0.5702 -2.5379 -1.2489
   21MOL0     H 2710   3.806   4.628   8.401 -1.3072 -2.4514  1.1536
   21MOL0     H 2711   3.931   4.409   8.474  0.5087  0.2928  0.5783
   21MOL0     H 2712   3.817   4.330   8.356 -0.0770 -0.7717  1.3005
   21MOL0     H 2713   3.717   4.315   8.547 -0.4306 -0.0632 -1.3388
   21MOL0     H 2714   3.630   4.442   8.476 -0.3199  1.4443  1.6314
   21MOL0     H 2715   3.840   4.500   8.695 -1.2388 -0.6569  2.5084
   21MOL0     H 2716   3.713   4.602   8.622 -1.2827 -0.4968  1.6621
   21MOL0     H 2717   3.687   4.347   8.799  0.1409  0.1391 -0.7326
   21MOL0     H 2718   3.553   4.427   8.701 -1.0011 -3.2870  0.8029
   21MOL0     H 2719   3.587   4.632   8.815  0.4650 -1.8840 -1.6072
   21MOL0     H 2720   3.717   4.572   8.919  0.6559 -0.2101 -0.6458
   21MOL0     H 2721   3.570   4.446   9.055  2.7972 -1.9382 -1.7921
   21MOL0     H 2722   3.477   4.591   9.002 -3.6634 -0.5535 -3.7223
   21MOL0     H 2723   3.345   4.375   8.998 -0.3782  1.3385  1.1061
   21MOL0     H 2724   3.423   4.331   8.848  0.0359 -1.5710  2.2841
   21MOL0     H 2725   3.117   4.449   8.935 -0.5354  1.7242 -0.2377
   21MOL0     H 2726   2.993   4.774   8.787 -0.2721  0.5008 -1.8601
   21MOL0     H 2727   2.918   4.624   8.846  0.0183 -1.2296 -0.8035
   21MOL0     H 2728   2.997   4.685   8.560 -1.3033 -0.4951 -0.1219
   21MOL0     H 2729   2.830   4.673   8.605 -0.7058 -0.7070 -0.8084
   21MOL0     H 2730   3.049   4.471   8.618 -0.1132  0.9819  1.8945
   21MOL0     H 2731   2.886   4.415   8.627  0.4680  0.8093 -0.6014
   21MOL0     H 2732   2.963   4.567   8.377 -0.8079  2.6843  4.2204
   21MOL0     H 2733   2.835   4.455   8.402 -0.1886  0.0786 -0.7764
   21MOL0     H 2734   3.107   4.135   8.327 -2.2676 -2.1450  1.6408
   21MOL0     H 2735   3.052   4.007   8.108 -1.4200  0.3286 -1.3363
   21MOL0     H 2736   2.821   3.727   7.869  2.7184 -2.8908  1.6350
   21MOL0     H 2737   2.784   3.586   7.664 -1.4319  0.4691  1.7622
   21MOL0     H 2738   3.087   3.636   7.341 -0.2657 -1.2663  5.9918
   21MOL0     H 2739   2.965   3.747   7.269  2.1445  0.1578 -0.6722
   21MOL0     H 2740   3.022   3.534   7.132  1.4037 -0.4142  1.2510
   21MOL0     H 2741   2.846   3.562   7.168 -0.6205  0.6660 -0.3435
   21MOL0     H 2742   2.874   3.385   7.354 -1.4335 -0.2960 -1.3514
   21MOL0     H 2743   3.047   3.388   7.308  0.1429 -0.1174 -0.9148
   21MOL0     H 2744   2.857   3.339   7.092  1.1820 -0.9649 -1.6198
   21MOL0     H 2745   3.011   3.284   7.099 -1.4560 -3.3775 -2.2775
   21MOL0     H 2746   2.822   3.130   7.118 -1.8533  3.2291 -0.8496
   21MOL0     H 2747   2.780   3.184   7.279  0.5843  0.5389  0.2757
   21MOL0     H 2748   3.005   3.135   7.357  0.3161  1.5649 -1.2917
   21MOL0     H 2749   3.042   3.065   7.193 -1.5452 -0.2568 -0.9023
   21MOL0     H 2750   2.883   2.972   7.425  0.0628 -0.3959 -0.3555
   21MOL0     H 2751   2.816   2.917   7.270  0.4546 -1.8669  2.8464
   21MOL0     H 2752   2.985   2.747   7.388  3.7616 -2.3511 -0.3758
   21MOL0     H 2753   3.096   2.876   7.364 -2.0993  1.1769  0.7534
   21MOL0     H 2754   3.021   3.877   7.446  2.8046  0.3250  1.4043
   21MOL0     H 2755   3.030   4.023   7.652 -0.8735  0.9545  3.2553
   21MOL0     H 2756   2.836   4.338   7.977  0.2306  0.3195 -0.7617
   21MOL0     H 2757   2.840   4.439   8.193 -2.3102 -1.8213 -2.1786
   21MOL0     H 2758   4.074   4.489   8.057  1.4942  2.0834  1.6301
   21MOL0     H 2759   4.031   4.535   7.827 -1.7613 -3.2745  2.2598
   21MOL0     H 2760   3.715   4.825   7.560 -3.3001  0.0440 -2.1475
   21MOL0     H 2761   3.648   4.862   7.328  0.9225  0.4460  0.8862
   21MOL0     H 2762   3.653   4.903   7.097 -3.3163  1.2608 -3.1854
   21MOL0     H 2763   3.566   4.742   7.123  1.2334 -1.2421 -0.0885
   21MOL0     H 2764   3.701   4.851   6.879  2.3289 -1.2418  1.8145
   21MOL0     H 2765   3.636   4.683   6.884 -1.4483 -0.1206  1.0592
   21MOL0     H 2766   3.479   4.924   6.953  2.2049  0.0058  1.2285
   21MOL0     H 2767   3.408   4.761   6.928 -1.9249 -0.9820 -3.2833
   21MOL0     H 2768   3.566   4.918   6.707  1.2406 -0.7254 -0.1963
   21MOL0     H 2769   3.481   4.769   6.684 -0.0654 -2.4618  2.6139
   21MOL0     H 2770   3.175   5.027   6.624  0.2125  0.7819  1.7392
   21MOL0     H 2771   3.954   4.596   7.200  2.1925 -0.5002  2.0649
   21MOL0     H 2772   4.058   4.607   7.413 -0.7590 -1.8965 -0.4702
   22MOL0     O 2773  10.797   1.971   6.300  0.0408 -0.2017  0.4418
   22MOL0     C 2774  10.847   1.868   6.355 -0.3257 -1.0699  0.8171
   22MOL0     O 2775  10.917   1.764   6.305 -0.2390 -0.7111 -0.8087
   22MOL0     C 2776  10.939   1.757   6.169 -0.3769  0.2787 -0.0605
   22MOL0     C 2777  11.032   1.838   6.103 -0.1074 -0.0055  0.1187
   22MOL0     C 2778  11.045   1.851   5.966  0.2428 -0.0569 -1.1768
   22MOL0     C 2779  10.965   1.766   5.884 -0.4851  0.4695  0.3085
   22MOL0     O 2780  10.962   1.763   5.744  0.2722  0.3063 -0.0769
   22MOL0     C 2781  11.036   1.852   5.659  0.9701  0.2041  0.1974
   22MOL0     C 2782  10.981   1.827   5.518  0.8688 -0.4759 -0.6745
   22MOL0     C 2783  10.993   1.948   5.418 -0.0748  1.0883  0.2166
   22MOL0     C 2784  10.944   1.894   5.284  0.4510  0.0958 -0.0103
   22MOL0     C 2785  10.974   1.975   5.162 -0.2734  0.1065 -1.0002
   22MOL0     C 2786  10.957   1.900   5.031 -0.1413  0.9125  0.1416
   22MOL0     C 2787  10.805   1.869   5.002  0.1345  0.3510 -0.7699
   22MOL0     C 2788  10.705   1.989   5.009  0.0381  0.7103  0.3009
   22MOL0     N 2789  10.571   1.958   4.950 -0.3477  0.1196 -0.3020
   22MOL0     C 2790  10.492   1.854   4.967  0.7404  1.1454 -0.5056
   22MOL0     C 2791  10.391   1.871   4.891  1.1838  0.6696  0.6048
   22MOL0     C 2792  10.274   1.780   4.892 -0.4577 -0.0099  0.1853
   22MOL0     C 2793  10.156   1.849   4.831 -0.0713  0.2730  0.4343
   22MOL0     C 2794  10.037   1.758   4.818  0.4923  0.3393 -0.5253
   22MOL0     C 2795   9.909   1.823   4.757  0.8041  0.1871 -0.4573
   22MOL0     O 2796   9.790   1.754   4.785 -0.2758  0.7280 -0.6355
   22MOL0     C 2797   9.746   1.659   4.692  0.8588  0.4918  0.3712
   22MOL0     C 2798   9.679   1.548   4.755 -0.1308 -0.8083 -0.1522
   22MOL0     C 2799   9.636   1.441   4.680  0.5579 -0.0649  0.5924
   22MOL0     C 2800   9.646   1.444   4.538  0.4207  0.4468 -1.1849
   22MOL0     C 2801   9.575   1.350   4.461  0.6196 -1.1775  0.5546
   22MOL0     O 2802   9.610   1.326   4.332 -0.3250 -0.0857 -0.4066
   22MOL0     C 2803   9.528   1.238   4.260 -0.3836 -0.0733  0.1436
   22MOL0     C 2804   9.586   1.128   4.190  0.9491 -0.1799  0.0115
   22MOL0     C 2805   9.515   1.052   4.092 -0.3248 -0.2737  0.5442
   22MOL0     C 2806   9.392   1.100   4.049  0.5557  0.5852  0.8264
   22MOL0     O 2807   9.330   1.036   3.942  0.0534 -0.5403 -0.0570
   22MOL0     C 2808   9.392   1.062   3.816  0.7110 -0.8152  0.4289
   22MOL0     C 2809   9.341   1.194   3.748  0.2144  0.9461  0.7656
   22MOL0     C 2810   9.408   1.227   3.617 -0.4852  0.4148 -1.4837
   22MOL0     C 2811   9.373   1.130   3.513  0.6456 -0.2834  0.0560
   22MOL0     C 2812   9.226   1.138   3.473 -0.5372 -0.6180  0.5405
   22MOL0     C 2813   9.207   1.119   3.318 -0.3399 -0.2226  0.2749
   22MOL0     C 2814   9.237   0.979   3.254  0.0637 -0.0784 -0.2173
   22MOL0     C 2815   9.386   0.944   3.245  0.7518  0.4985 -0.8853
   22MOL0    Cl 2816   9.467   1.075   3.163  0.2483 -0.1464  0.0953
   22MOL0     C 2817   9.328   1.202   4.120  0.3780  0.0538 -0.0626
   22MOL0     C 2818   9.391   1.267   4.229 -0.1152  0.2901  0.7539
   22MOL0     O 2819   9.483   1.293   4.513 -0.3949  0.1202  0.0247
   22MOL0     C 2820   9.713   1.553   4.483 -0.0232  0.1035  0.3265
   22MOL0     C 2821   9.760   1.664   4.556 -0.3515 -0.3122  0.7655
   22MOL0     N 2822  10.398   1.994   4.827 -0.7120 -0.0339 -0.0871
   22MOL0     N 2823  10.508   2.043   4.868 -0.5048 -0.5473  0.5358
   22MOL0     C 2824  10.866   1.681   5.951 -0.4134  0.2416  0.3680
   22MOL0     C 2825  10.855   1.677   6.091  0.5798 -1.1662 -0.7670
   22MOL0     C 2826  10.832   1.855   6.505  0.8929  0.2130 -0.4983
   22MOL0     C 2827  10.875   1.746   6.584  0.1383 -0.2251 -0.2874
   22MOL0     C 2828  10.852   1.738   6.711 -0.7018  0.0776  0.1925
   22MOL0     C 2829  10.792   1.843   6.785 -0.0534 -0.8659  0.2884
   22MOL0     O 2830  10.758   1.838   6.914 -0.8171 -0.2517 -0.3011
   22MOL0     C 2831  10.704   1.711   6.962  0.1781 -0.1960 -0.2750
   22MOL0     C 2832  10.660   1.706   7.111 -0.4240 -0.1917 -0.7710
   22MOL0     C 2833  10.761   1.764   7.208  0.6836 -0.1254 -0.0447
   22MOL0     C 2834  10.709   1.767   7.355 -0.8194  0.3755  1.0373
   22MOL0     C 2835  10.593   1.839   7.378  0.4925  0.1972  0.0332
   22MOL0     C 2836  10.482   1.905   7.384  0.1733  0.2648 -1.3699
   22MOL0     C 2837  10.750   1.958   6.716 -0.4478  1.1086 -0.0032
   22MOL0     C 2838  10.767   1.964   6.575  0.4815 -0.1373  0.1098
   22MOL0     H 2839  11.109   1.881   6.167  1.1020  2.4338 -2.7198
   22MOL0     H 2840  11.104   1.925   5.913  1.9915 -1.4506 -1.2746
   22MOL0     H 2841  11.141   1.821   5.656  0.7303 -0.9893  2.2975
   22MOL0     H 2842  11.019   1.956   5.686 -2.3102 -0.3994  0.7657
   22MOL0     H 2843  10.880   1.785   5.519  0.9436 -0.7691  2.0218
   22MOL0     H 2844  11.039   1.744   5.475 -0.3918 -1.8032  0.0854
   22MOL0     H 2845  11.097   1.984   5.419  1.4668 -2.8190 -0.8417
   22MOL0     H 2846  10.927   2.023   5.464  1.0144  0.5095  2.9046
   22MOL0     H 2847  10.978   1.792   5.265 -0.7446 -0.3826  0.3327
   22MOL0     H 2848  10.835   1.885   5.282 -0.2367  4.1694  4.0220
   22MOL0     H 2849  11.078   2.005   5.177 -0.5780  0.9274 -0.4402
   22MOL0     H 2850  10.913   2.066   5.152  2.9030  2.5224 -0.2878
   22MOL0     H 2851  11.013   1.806   5.035  0.7959  1.3575 -1.4681
   22MOL0     H 2852  10.995   1.953   4.943  3.9283  0.6576  1.5504
   22MOL0     H 2853  10.779   1.825   4.905 -3.1454 -0.9951  0.5734
   22MOL0     H 2854  10.775   1.786   5.067 -2.5984 -0.3643 -2.7808
   22MOL0     H 2855  10.737   2.071   4.944 -3.1067  0.9491 -1.1150
   22MOL0     H 2856  10.691   2.038   5.106  1.4848  2.4342 -0.2964
   22MOL0     H 2857  10.487   1.770   5.036  3.0281 -0.4294 -2.1359
   22MOL0     H 2858  10.232   1.768   4.992 -1.1642  1.0524  0.0315
   22MOL0     H 2859  10.289   1.684   4.841 -1.8361 -0.2807  0.2467
   22MOL0     H 2860  10.180   1.881   4.729 -2.3177 -1.4983 -0.7255
   22MOL0     H 2861  10.130   1.932   4.898 -0.9791  0.6127 -0.3192
   22MOL0     H 2862  10.063   1.670   4.760  0.8205  1.1007 -1.5626
   22MOL0     H 2863  10.013   1.728   4.921  0.4598 -0.5334 -0.7846
   22MOL0     H 2864   9.919   1.825   4.648  3.0340 -1.3537 -0.3265
   22MOL0     H 2865   9.896   1.923   4.801 -0.6447  0.5396 -1.6042
   22MOL0     H 2866   9.662   1.552   4.862 -1.3086  0.4314 -0.3643
   22MOL0     H 2867   9.566   1.373   4.728 -2.0344  2.3645  0.4706
   22MOL0     H 2868   9.685   1.106   4.227  1.1116  1.0317  0.3515
   22MOL0     H 2869   9.561   0.967   4.042 -2.8761 -1.7495  0.5497
   22MOL0     H 2870   9.358   0.980   3.753 -4.8370  1.4864 -0.0899
   22MOL0     H 2871   9.499   1.083   3.822  0.6239 -0.6647  1.7643
   22MOL0     H 2872   9.358   1.271   3.824  1.2363  1.7540 -0.2499
   22MOL0     H 2873   9.237   1.181   3.717  0.9856  0.2438 -1.6894
   22MOL0     H 2874   9.516   1.222   3.629 -0.2474  2.7185 -2.1170
   22MOL0     H 2875   9.385   1.327   3.578  2.8371  0.4560 -3.7092
   22MOL0     H 2876   9.437   1.147   3.426  0.9586  1.2184  0.5389
   22MOL0     H 2877   9.394   1.028   3.545  0.6201 -0.4446 -0.4266
   22MOL0     H 2878   9.181   1.230   3.509  1.0499 -1.1703  4.4777
   22MOL0     H 2879   9.164   1.060   3.519 -2.1060  0.1270 -0.2612
   22MOL0     H 2880   9.267   1.193   3.265 -2.2035 -0.6491 -2.7311
   22MOL0     H 2881   9.102   1.137   3.291  0.3687  0.1679 -2.5136
   22MOL0     H 2882   9.174   0.909   3.310 -2.6809  1.1933 -1.5082
   22MOL0     H 2883   9.204   0.985   3.150 -0.7688  2.6781  0.1064
   22MOL0     H 2884   9.392   0.848   3.193  1.3104 -1.2477  2.1853
   22MOL0     H 2885   9.417   0.929   3.349 -2.1715 -2.1701 -0.2289
   22MOL0     H 2886   9.225   1.213   4.090 -0.3587  3.0658  2.9786
   22MOL0     H 2887   9.329   1.348   4.266 -0.7428  1.2618 -2.1216
   22MOL0     H 2888   9.718   1.547   4.374 -0.4787 -2.1499  0.3871
   22MOL0     H 2889   9.795   1.756   4.509 -3.2965  0.4520 -0.1769
   22MOL0     H 2890  10.798   1.611   5.902  1.8130 -1.7454 -0.0619
   22MOL0     H 2891  10.775   1.620   6.135  1.6689 -2.2876 -0.1927
   22MOL0     H 2892  10.929   1.669   6.530  0.0774  1.6152 -3.1929
   22MOL0     H 2893  10.879   1.643   6.755  1.0434  1.8245  3.1708
   22MOL0     H 2894  10.784   1.641   6.937 -1.1752 -1.7102 -0.5227
   22MOL0     H 2895  10.615   1.684   6.905 -1.6043  0.2084  2.1720
   22MOL0     H 2896  10.566   1.762   7.108 -0.3058  0.3077  1.9859
   22MOL0     H 2897  10.638   1.607   7.152 -0.3938  0.8275  1.9103
   22MOL0     H 2898  10.790   1.864   7.175 -2.0731  0.3788 -1.1710
   22MOL0     H 2899  10.849   1.700   7.194 -0.2660 -0.9540 -2.7300
   22MOL0     H 2900  10.684   1.666   7.388 -2.6098  0.2955 -0.4425
   22MOL0     H 2901  10.785   1.810   7.421  1.2193 -1.9851  0.4083
   22MOL0     H 2902  10.393   1.962   7.403 -0.6713 -1.6825  1.1115
   22MOL0     H 2903  10.719   2.049   6.766  3.6103  1.9011  1.4284
   22MOL0     H 2904  10.742   2.057   6.526 -2.3240  0.7337  2.8765
   23MOL0     O 2905   5.450   3.617   2.938 -0.8709 -0.1738  0.3825
   23MOL0     C 2906   5.562   3.564   2.958  0.2683 -0.2033  0.9434
   23MOL0     O 2907   5.682   3.624   2.974 -0.0217  0.1951  0.0980
   23MOL0     C 2908   5.709   3.754   2.951  0.6896 -0.8371  0.3729
   23MOL0     C 2909   5.833   3.812   2.994 -0.6208 -0.4436  0.2961
   23MOL0     C 2910   5.871   3.939   2.960 -0.1931 -0.4258 -1.1503
   23MOL0     C 2911   5.803   4.011   2.869 -0.7177 -0.0739 -0.1303
   23MOL0     O 2912   5.868   4.127   2.830 -0.3803 -0.1684 -0.1593
   23MOL0     C 2913   5.803   4.247   2.853  0.9659  0.3655  0.5669
   23MOL0     C 2914   5.878   4.368   2.799 -1.1081 -0.4612 -0.7086
   23MOL0     C 2915   6.000   4.392   2.896  0.1467 -0.0753  0.3297
   23MOL0     C 2916   6.051   4.536   2.882 -0.9230  0.4306 -0.8070
   23MOL0     C 2917   6.166   4.573   2.979  1.0200 -0.3449 -0.0151
   23MOL0     C 2918   6.285   4.486   2.966 -0.8755  0.0284  0.9086
   23MOL0     C 2919   6.414   4.544   3.034  0.1702  0.0323 -0.2449
   23MOL0     C 2920   6.428   4.551   3.183  0.4995 -0.3989 -1.1741
   23MOL0     N 2921   6.552   4.615   3.199 -0.0303 -0.0394  0.0143
   23MOL0     C 2922   6.672   4.546   3.192 -0.3376  1.1009 -0.1636
   23MOL0     C 2923   6.767   4.626   3.242  0.5205 -0.5376 -0.6743
   23MOL0     C 2924   6.907   4.603   3.270  0.7463  0.4506 -0.4673
   23MOL0     C 2925   6.920   4.553   3.413  0.3715  0.0911 -0.8494
   23MOL0     C 2926   6.862   4.405   3.433  0.6655 -0.1570 -1.0010
   23MOL0     C 2927   6.905   4.330   3.553 -0.4099 -0.1290  0.8673
   23MOL0     O 2928   6.892   4.406   3.679 -0.5291  0.0755  0.1776
   23MOL0     C 2929   6.993   4.469   3.740 -0.6548  0.0566 -0.5293
   23MOL0     C 2930   6.959   4.516   3.866  0.1693 -0.5199  0.5339
   23MOL0     C 2931   7.058   4.598   3.935  0.5953  0.5524 -0.2486
   23MOL0     C 2932   7.177   4.638   3.881  0.9586 -0.6373 -0.4153
   23MOL0     C 2933   7.279   4.727   3.950  0.1879 -0.5575  0.1017
   23MOL0     O 2934   7.383   4.780   3.874  0.0736  0.6602 -0.1823
   23MOL0     C 2935   7.505   4.792   3.938  0.5218 -0.6195  0.7597
   23MOL0     C 2936   7.580   4.894   3.883 -0.2478 -0.3040  0.0099
   23MOL0     C 2937   7.709   4.924   3.920 -0.4279 -0.5686 -0.4437
   23MOL0     C 2938   7.762   4.846   4.036 -0.0626 -0.2963 -0.3529
   23MOL0     O 2939   7.892   4.874   4.073  0.4950  0.5932  0.0596
   23MOL0     C 2940   7.958   4.774   4.140  0.2739  1.0871  0.0198
   23MOL0     C 2941   8.112   4.781   4.135 -0.6065 -0.9817 -0.5081
   23MOL0     C 2942   8.160   4.781   3.990 -0.1457  0.0148 -0.3001
   23MOL0     C 2943   8.311   4.800   3.997 -0.6013 -0.0494  0.7142
   23MOL0     C 2944   8.372   4.905   3.904  0.5494 -0.6770 -0.0194
   23MOL0     C 2945   8.530   4.895   3.895 -0.0765  0.4666 -0.4536
   23MOL0     C 2946   8.578   4.781   3.805 -0.2575 -0.1077  0.3681
   23MOL0     C 2947   8.702   4.810   3.728  0.6452 -0.4983 -0.4159
   23MOL0    Cl 2948   8.730   4.655   3.641 -0.0252 -0.7235  0.4937
   23MOL0     C 2949   7.680   4.745   4.088  1.1500 -0.8753 -0.9366
   23MOL0     C 2950   7.554   4.715   4.035 -0.2491  0.7920 -0.3286
   23MOL0     O 2951   7.262   4.749   4.070  0.3251 -0.0605  0.6077
   23MOL0     C 2952   7.215   4.583   3.758 -0.0732 -0.4230 -0.5472
   23MOL0     C 2953   7.130   4.492   3.693 -0.1511 -0.0702  0.0251
   23MOL0     N 2954   6.710   4.751   3.272  0.0415  0.4535 -0.1770
   23MOL0     N 2955   6.582   4.732   3.264  0.3136  0.5365 -0.1456
   23MOL0     C 2956   5.686   3.958   2.815  0.2347 -0.0310 -0.2479
   23MOL0     C 2957   5.643   3.824   2.850  0.4027 -0.9358 -0.3028
   23MOL0     C 2958   5.567   3.421   2.981  0.7201 -0.9686 -0.0165
   23MOL0     C 2959   5.688   3.358   3.015 -0.2168  0.5088 -0.3422
   23MOL0     C 2960   5.688   3.222   3.040 -0.7210  0.7919  0.5112
   23MOL0     C 2961   5.587   3.143   3.006 -0.2175  0.3404  0.2821
   23MOL0     O 2962   5.590   3.004   3.027  0.2356  0.5196  0.1780
   23MOL0     C 2963   5.636   2.955   3.152 -0.5141 -0.8312  0.1182
   23MOL0     C 2964   5.773   2.885   3.143 -0.1909  0.5656 -1.3528
   23MOL0     C 2965   5.873   2.945   3.240 -0.6087 -0.1097  0.1834
   23MOL0     C 2966   6.005   2.867   3.230  0.0369 -0.0668 -0.3705
   23MOL0     C 2967   6.094   2.891   3.340  0.5732 -0.4813  0.4547
   23MOL0     C 2968   6.174   2.901   3.427  0.0250 -0.2566  0.1791
   23MOL0     C 2969   5.460   3.203   2.972 -0.5412  0.5524 -0.3784
   23MOL0     C 2970   5.454   3.338   2.960 -0.8991 -1.6206 -0.1677
   23MOL0     H 2971   5.906   3.757   3.052  2.1418  0.1230 -2.3705
   23MOL0     H 2972   5.956   3.970   3.020  0.0272 -1.1927 -1.0570
   23MOL0     H 2973   5.792   4.266   2.961  1.2558  0.7536  0.5278
   23MOL0     H 2974   5.702   4.240   2.812  1.3209 -2.6775 -0.0771
   23MOL0     H 2975   5.817   4.458   2.812 -2.4003 -1.1820 -1.5359
   23MOL0     H 2976   5.910   4.346   2.697 -0.5038  0.3013 -0.6922
   23MOL0     H 2977   6.079   4.319   2.874 -0.7344 -0.7508 -0.7000
   23MOL0     H 2978   5.969   4.377   2.999  0.5474 -0.0375  0.4588
   23MOL0     H 2979   6.073   4.545   2.776 -2.1692  0.8616 -1.0504
   23MOL0     H 2980   5.973   4.608   2.908 -2.0153 -0.2745 -2.0149
   23MOL0     H 2981   6.123   4.541   3.075 -3.3711 -0.4005 -1.7462
   23MOL0     H 2982   6.186   4.680   2.990  4.5970 -0.7962 -1.0172
   23MOL0     H 2983   6.302   4.467   2.860 -1.2221  0.6930  0.7306
   23MOL0     H 2984   6.266   4.387   3.008 -0.3931 -0.6637 -0.4664
   23MOL0     H 2985   6.494   4.474   3.009 -0.8809 -1.9514  1.5385
   23MOL0     H 2986   6.415   4.637   2.977 -1.6478 -1.1404 -2.3614
   23MOL0     H 2987   6.422   4.456   3.236 -1.8819  1.5677  2.4817
   23MOL0     H 2988   6.354   4.619   3.226  3.6116  1.2477  2.0564
   23MOL0     H 2989   6.682   4.440   3.170  3.6288  1.0450  0.9733
   23MOL0     H 2990   6.951   4.700   3.247 -0.2589  0.9814 -0.2158
   23MOL0     H 2991   6.951   4.529   3.202  6.2165  3.0731 -0.3237
   23MOL0     H 2992   6.859   4.617   3.478 -3.1175  0.4922 -4.1148
   23MOL0     H 2993   7.023   4.574   3.444  1.0087  1.1551 -3.3454
   23MOL0     H 2994   6.755   4.416   3.453  0.3428 -3.5759 -0.1781
   23MOL0     H 2995   6.887   4.342   3.347  3.8420 -0.3257 -0.0563
   23MOL0     H 2996   7.007   4.297   3.533 -0.4877  1.0884 -1.9595
   23MOL0     H 2997   6.838   4.244   3.547  0.5728 -0.8959  0.8782
   23MOL0     H 2998   6.856   4.498   3.898 -0.3969 -1.0367 -1.4600
   23MOL0     H 2999   7.024   4.635   4.031 -3.7120 -0.8507 -1.0104
   23MOL0     H 3000   7.537   4.942   3.795  0.4954  2.0083  0.8345
   23MOL0     H 3001   7.769   5.001   3.872 -0.5302 -0.7594 -0.8824
   23MOL0     H 3002   7.937   4.682   4.084 -0.7404  2.3334 -1.7520
   23MOL0     H 3003   7.934   4.776   4.246  0.0890  0.7404 -0.0156
   23MOL0     H 3004   8.161   4.703   4.194 -0.9915 -0.5007  0.4622
   23MOL0     H 3005   8.152   4.870   4.184 -2.2844 -0.2144 -0.4420
   23MOL0     H 3006   8.121   4.866   3.934 -1.1577 -0.3642 -0.1845
   23MOL0     H 3007   8.127   4.687   3.944  0.9682  0.6369 -2.5183
   23MOL0     H 3008   8.335   4.830   4.099 -0.7361 -0.1801  0.7854
   23MOL0     H 3009   8.359   4.703   3.977 -0.4058  0.0740  0.5871
   23MOL0     H 3010   8.334   5.003   3.933 -0.1464 -0.5789 -1.2095
   23MOL0     H 3011   8.328   4.888   3.805  2.8334 -2.7906 -0.7652
   23MOL0     H 3012   8.563   4.856   3.992 -1.5011  2.2182  0.8091
   23MOL0     H 3013   8.581   4.988   3.866  0.7848  0.1104 -0.1074
   23MOL0     H 3014   8.598   4.693   3.867 -0.0101  1.6867  3.0335
   23MOL0     H 3015   8.502   4.774   3.726  0.4378  0.0936 -0.3243
   23MOL0     H 3016   8.779   4.841   3.800 -2.2566  1.8740  1.9008
   23MOL0     H 3017   8.668   4.892   3.665  3.8402  1.7161  0.4661
   23MOL0     H 3018   7.720   4.670   4.155  1.6950  1.4839  1.5498
   23MOL0     H 3019   7.499   4.629   4.071 -0.1464  0.0421 -1.8856
   23MOL0     H 3020   7.313   4.602   3.714 -0.4332  0.7755 -0.8788
   23MOL0     H 3021   7.158   4.440   3.603 -1.5909 -1.3017  0.2552
   23MOL0     H 3022   5.640   4.006   2.729  0.6261 -0.5979 -0.7824
   23MOL0     H 3023   5.551   3.783   2.807  1.1438 -0.3286 -2.6076
   23MOL0     H 3024   5.777   3.416   3.038 -1.2878  2.1165 -0.0792
   23MOL0     H 3025   5.777   3.170   3.073  2.1387  3.9760 -1.5403
   23MOL0     H 3026   5.559   2.882   3.176  1.3814 -3.1142 -0.3124
   23MOL0     H 3027   5.630   3.034   3.228  1.8207 -0.2771 -0.1842
   23MOL0     H 3028   5.755   2.782   3.175 -0.7190  1.4495  1.5660
   23MOL0     H 3029   5.822   2.890   3.045  3.0645  1.6629  0.1960
   23MOL0     H 3030   5.825   2.942   3.338  0.3241  0.6002  0.6722
   23MOL0     H 3031   5.902   3.047   3.214  0.3838 -0.1122  1.2087
   23MOL0     H 3032   5.993   2.759   3.215  0.1352 -0.3670  1.5157
   23MOL0     H 3033   6.056   2.898   3.138 -0.3198  4.3761  0.6768
   23MOL0     H 3034   6.251   2.921   3.498  0.1887 -2.6409  0.7683
   23MOL0     H 3035   5.375   3.135   2.972  0.5112 -0.8558  1.4691
   23MOL0     H 3036   5.362   3.391   2.940  0.5700  0.1905 -2.7645
   24MOL0     O 3037   1.653   9.852   1.491 -0.2976  0.1306 -0.0546
   24MOL0     C 3038   1.695   9.735   1.480 -0.7474  0.1596 -0.4318
   24MOL0     O 3039   1.806   9.701   1.418 -0.2044  0.9198  0.3792
   24MOL0     C 3040   1.918   9.783   1.413 -0.6715 -0.0003 -0.6632
   24MOL0     C 3041   1.938   9.903   1.489 -0.7655 -0.1324  0.6613
   24MOL0     C 3042   2.055   9.986   1.471  0.6064  0.2376  0.1957
   24MOL0     C 3043   2.130   9.957   1.357 -0.2470  0.1777  0.2244
   24MOL0     O 3044   2.239  10.041   1.341  0.7812  0.1787 -0.0113
   24MOL0     C 3045   2.287  10.085   1.213 -0.4459  0.6568  1.0846
   24MOL0     C 3046   2.438  10.121   1.222 -0.3766 -0.4095  0.2947
   24MOL0     C 3047   2.479  10.195   1.090  0.1357  0.2407  0.0069
   24MOL0     C 3048   2.627  10.255   1.097  0.1888 -0.2021  0.6413
   24MOL0     C 3049   2.685  10.277   0.950 -0.2461  0.4639 -0.0610
   24MOL0     C 3050   2.812  10.362   0.942  0.8379  0.0476 -0.1643
   24MOL0     C 3051   2.840  10.387   0.786 -0.1065  0.5879  0.0905
   24MOL0     C 3052   2.949  10.299   0.722  0.3928 -0.0358 -0.2226
   24MOL0     N 3053   3.081  10.334   0.757 -0.3745 -0.8512 -0.4489
   24MOL0     C 3054   3.159  10.262   0.842  0.6880  0.3438 -0.1111
   24MOL0     C 3055   3.290  10.289   0.825  0.1623 -1.1099  0.1312
   24MOL0     C 3056   3.418  10.257   0.888  0.0352  1.1694  0.2562
   24MOL0     C 3057   3.465  10.112   0.891  0.2555 -0.0769 -0.1959
   24MOL0     C 3058   3.383  10.033   0.994 -0.7875 -0.1580  0.0885
   24MOL0     C 3059   3.472   9.938   1.092 -0.7067 -0.8789 -0.1881
   24MOL0     O 3060   3.504   9.831   1.011  0.1841  0.8568  0.9182
   24MOL0     C 3061   3.610   9.749   1.048  0.0590 -0.1481  0.8505
   24MOL0     C 3062   3.722   9.794   1.114 -0.0262 -0.5816  0.3871
   24MOL0     C 3063   3.819   9.695   1.144 -0.9831 -1.4800  0.0120
   24MOL0     C 3064   3.802   9.562   1.121 -0.7496 -0.0400  0.4221
   24MOL0     C 3065   3.893   9.462   1.173 -0.6620  0.7499 -0.2860
   24MOL0     O 3066   3.997   9.495   1.258  0.6327  0.1035  0.0955
   24MOL0     C 3067   4.088   9.398   1.294  0.2522 -0.0347 -1.9029
   24MOL0     C 3068   4.138   9.295   1.214 -0.0595 -0.3747 -0.1756
   24MOL0     C 3069   4.231   9.201   1.265  0.4467  0.3027 -0.0914
   24MOL0     C 3070   4.285   9.216   1.388 -0.0923  1.0771 -1.1756
   24MOL0     O 3071   4.378   9.130   1.449  0.1009 -0.3102  1.1895
   24MOL0     C 3072   4.428   9.019   1.381 -0.2386 -0.0983  0.6009
   24MOL0     C 3073   4.512   8.935   1.470 -0.9381 -0.5293  0.6682
   24MOL0     C 3074   4.451   8.804   1.506  0.3750 -0.1376  0.4641
   24MOL0     C 3075   4.541   8.740   1.602 -0.1571 -0.1700  0.0410
   24MOL0     C 3076   4.539   8.588   1.608  0.6885 -0.5284  0.6715
   24MOL0     C 3077   4.400   8.536   1.652 -0.2059  0.5630  0.4676
   24MOL0     C 3078   4.406   8.384   1.640 -0.9540  0.0347  0.4359
   24MOL0     C 3079   4.488   8.306   1.763  0.3286  0.0625  0.3835
   24MOL0    Cl 3080   4.383   8.312   1.913  0.1406 -0.5619 -0.1977
   24MOL0     C 3081   4.240   9.324   1.474 -0.4534  0.2153  0.3793
   24MOL0     C 3082   4.143   9.410   1.430 -0.9738 -0.4716 -0.2796
   24MOL0     O 3083   3.869   9.349   1.136 -0.7012  0.5399 -0.6111
   24MOL0     C 3084   3.689   9.511   1.040  0.1985 -0.1153  0.2532
   24MOL0     C 3085   3.590   9.610   1.006  0.5454  0.9307  0.1988
   24MOL0     N 3086   3.284  10.379   0.724 -0.4564  0.0302 -0.3168
   24MOL0     N 3087   3.171  10.407   0.684  0.0040 -0.3665 -0.2083
   24MOL0     C 3088   2.117   9.841   1.284 -0.3343 -0.2659 -0.2576
   24MOL0     C 3089   2.016   9.757   1.314  1.7701  0.1221 -0.2570
   24MOL0     C 3090   1.603   9.627   1.529 -0.4163  0.5038 -0.2875
   24MOL0     C 3091   1.485   9.660   1.597  0.7606 -0.2436  0.4453
   24MOL0     C 3092   1.414   9.556   1.651 -0.0814  0.5804 -0.6298
   24MOL0     C 3093   1.439   9.416   1.630 -0.4472 -0.5146 -0.4754
   24MOL0     O 3094   1.359   9.306   1.666 -0.7790 -0.4736  0.1517
   24MOL0     C 3095   1.242   9.324   1.748  1.8432 -0.9512 -0.0496
   24MOL0     C 3096   1.119   9.285   1.665 -0.4196 -0.3451  0.9424
   24MOL0     C 3097   0.990   9.350   1.723 -0.2549  1.3368  0.4024
   24MOL0     C 3098   0.876   9.295   1.642  0.2367  0.1590  0.7790
   24MOL0     C 3099   0.811   9.181   1.711  0.2300  0.0924  0.3532
   24MOL0     C 3100   0.767   9.089   1.769  0.6611  0.3534  0.0872
   24MOL0     C 3101   1.549   9.388   1.550  0.4878 -0.5405 -0.0373
   24MOL0     C 3102   1.634   9.494   1.514 -0.9995 -0.1191  0.4778
   24MOL0     H 3103   1.881   9.934   1.576  2.2483  0.2369  2.6535
   24MOL0     H 3104   2.081  10.070   1.534 -3.5356  1.3863  0.7004
   24MOL0     H 3105   2.234  10.173   1.178  0.6606  0.0946 -2.3232
   24MOL0     H 3106   2.273  10.012   1.133  2.1423  0.7624  0.4218
   24MOL0     H 3107   2.481  10.021   1.226 -0.9917 -0.8795 -2.6887
   24MOL0     H 3108   2.458  10.169   1.319  0.3381  0.9632 -0.5017
   24MOL0     H 3109   2.409  10.279   1.079  0.4236  0.4128 -0.5720
   24MOL0     H 3110   2.475  10.134   0.999  0.4290 -0.6607  0.5839
   24MOL0     H 3111   2.612  10.347   1.153 -1.9460 -1.8535  3.0226
   24MOL0     H 3112   2.685  10.185   1.158  0.8602 -2.0956 -1.9521
   24MOL0     H 3113   2.607  10.309   0.880 -0.7793 -1.1286 -0.2440
   24MOL0     H 3114   2.712  10.177   0.915 -0.2622  0.0920  0.9738
   24MOL0     H 3115   2.892  10.311   0.995 -0.1903 -0.3592  1.0494
   24MOL0     H 3116   2.783  10.458   0.987  0.3778  1.7943 -3.8235
   24MOL0     H 3117   2.750  10.373   0.725  1.4089  3.8935 -3.3121
   24MOL0     H 3118   2.854  10.495   0.775 -0.5756  0.4942 -1.6537
   24MOL0     H 3119   2.929  10.296   0.615  0.3904  3.0291 -0.3949
   24MOL0     H 3120   2.927  10.193   0.741  1.8587 -0.8220 -2.4513
   24MOL0     H 3121   3.121  10.187   0.910  1.1875  0.2832  0.1001
   24MOL0     H 3122   3.421  10.315   0.980 -2.1146 -0.1320  1.2297
   24MOL0     H 3123   3.490  10.302   0.819 -1.3068  1.8026 -0.7961
   24MOL0     H 3124   3.571  10.119   0.916 -0.6905  0.8023  4.7859
   24MOL0     H 3125   3.441  10.080   0.789 -0.0618  0.2158 -0.2145
   24MOL0     H 3126   3.340  10.106   1.063 -0.6583  1.1118 -1.1284
   24MOL0     H 3127   3.296   9.991   0.942  0.0450  0.9875 -2.3916
   24MOL0     H 3128   3.412   9.916   1.181 -0.9726 -3.5202 -0.9411
   24MOL0     H 3129   3.562   9.986   1.131 -1.9035  0.8112  0.5875
   24MOL0     H 3130   3.743   9.899   1.130 -0.3903 -0.0375 -2.2152
   24MOL0     H 3131   3.917   9.731   1.175 -0.7419 -2.5508  0.5381
   24MOL0     H 3132   4.108   9.297   1.110  1.4055  1.6220 -0.6206
   24MOL0     H 3133   4.253   9.114   1.205 -0.3850 -0.9212  1.2946
   24MOL0     H 3134   4.488   9.065   1.302 -0.3981  2.5924  1.9222
   24MOL0     H 3135   4.354   8.956   1.331  0.9173 -1.1510  0.1718
   24MOL0     H 3136   4.529   8.995   1.559 -3.2695  1.0499  0.1470
   24MOL0     H 3137   4.603   8.918   1.411 -1.2991  4.3192 -1.8061
   24MOL0     H 3138   4.458   8.734   1.422  1.9759  2.5288 -1.7645
   24MOL0     H 3139   4.352   8.801   1.553  1.7121 -1.4146  3.4115
   24MOL0     H 3140   4.645   8.763   1.581 -1.0505  3.4808 -1.1097
   24MOL0     H 3141   4.520   8.784   1.700  0.0830  0.1360 -0.0454
   24MOL0     H 3142   4.618   8.539   1.666  1.2575 -0.9552 -0.4328
   24MOL0     H 3143   4.557   8.547   1.508 -1.7355 -0.8104  0.2961
   24MOL0     H 3144   4.321   8.585   1.595 -1.3193 -0.1431  1.3499
   24MOL0     H 3145   4.376   8.556   1.757  2.9368  2.5798  0.9390
   24MOL0     H 3146   4.304   8.344   1.646 -1.8277  2.3118  1.8385
   24MOL0     H 3147   4.453   8.351   1.546 -1.0760 -0.5818  0.5872
   24MOL0     H 3148   4.587   8.350   1.778  2.1297 -3.7243  0.7119
   24MOL0     H 3149   4.503   8.204   1.726 -2.2514  1.1761 -4.7698
   24MOL0     H 3150   4.274   9.331   1.577  1.5993  1.9836 -0.3338
   24MOL0     H 3151   4.103   9.493   1.487  1.3117 -0.2430  1.0818
   24MOL0     H 3152   3.672   9.409   1.008 -0.4509  0.5012 -1.4706
   24MOL0     H 3153   3.513   9.571   0.941 -0.8250 -0.4075  2.4827
   24MOL0     H 3154   2.177   9.827   1.195 -0.6189  0.8815 -0.6496
   24MOL0     H 3155   1.987   9.675   1.249 -1.1707  0.2362  0.7679
   24MOL0     H 3156   1.445   9.757   1.626  1.2192 -0.4873  1.9985
   24MOL0     H 3157   1.334   9.585   1.718  2.5890  0.7187  2.7849
   24MOL0     H 3158   1.240   9.426   1.789 -2.2498 -0.7271 -0.4275
   24MOL0     H 3159   1.225   9.246   1.823 -0.4472 -0.6328 -0.1765
   24MOL0     H 3160   1.124   9.329   1.565  0.3404  1.7492  1.8424
   24MOL0     H 3161   1.110   9.176   1.655 -1.8180 -0.0941 -1.3253
   24MOL0     H 3162   1.014   9.455   1.705  5.1424  0.3342  0.0789
   24MOL0     H 3163   0.982   9.324   1.829  0.8793  1.9563  0.6598
   24MOL0     H 3164   0.791   9.364   1.652 -1.6914 -1.9957  0.0945
   24MOL0     H 3165   0.899   9.291   1.535  0.9252  3.3877  0.7049
   24MOL0     H 3166   0.703   9.020   1.820 -1.4974  2.8127  0.9251
   24MOL0     H 3167   1.583   9.289   1.524 -0.8504 -1.5284  1.7660
   24MOL0     H 3168   1.717   9.487   1.445 -0.0205  0.2860  1.5858
   25MOL0     O 3169   3.755   8.818   8.849 -0.1471 -0.5561  0.1963
   25MOL0     C 3170   3.767   8.883   8.743  0.5402  0.3040  0.5012
   25MOL0     O 3171   3.805   8.842   8.616 -0.1612  0.4733  0.2547
   25MOL0     C 3172   3.848   8.711   8.607 -0.2752  0.3974 -0.4081
   25MOL0     C 3173   3.776   8.604   8.661 -0.9634  0.3630 -0.0559
   25MOL0     C 3174   3.841   8.481   8.676  0.0495 -0.6180  0.8790
   25MOL0     C 3175   3.975   8.470   8.629 -0.3385  1.1055 -0.2070
   25MOL0     O 3176   4.036   8.341   8.646 -0.9096 -0.4705 -0.2834
   25MOL0     C 3177   4.184   8.346   8.662  0.0033  0.0281 -0.8949
   25MOL0     C 3178   4.248   8.225   8.723  0.4837  0.6599 -0.6182
   25MOL0     C 3179   4.253   8.095   8.639 -0.9900 -0.7696  0.6837
   25MOL0     C 3180   4.256   7.981   8.739 -1.1594  0.4750 -0.6392
   25MOL0     C 3181   4.305   7.846   8.679  1.3736 -1.0677  0.1002
   25MOL0     C 3182   4.343   7.755   8.793  0.2369  0.0630 -0.3890
   25MOL0     C 3183   4.377   7.611   8.749 -0.7943  0.0344  0.2485
   25MOL0     C 3184   4.262   7.535   8.674  0.4755  0.6107 -0.0811
   25MOL0     N 3185   4.314   7.436   8.578 -0.1165 -0.0034 -0.4133
   25MOL0     C 3186   4.388   7.471   8.458 -0.1018  0.4045 -0.2887
   25MOL0     C 3187   4.378   7.355   8.384 -0.3421 -0.4749 -0.8308
   25MOL0     C 3188   4.419   7.335   8.243  0.0354  0.4179 -0.2604
   25MOL0     C 3189   4.343   7.410   8.138 -0.6125 -0.2805 -0.3177
   25MOL0     C 3190   4.398   7.362   8.002 -0.5106 -1.1416  0.2684
   25MOL0     C 3191   4.306   7.402   7.888  0.2675  0.0126  0.0000
   25MOL0     O 3192   4.358   7.335   7.777  0.3827 -0.0656  0.7863
   25MOL0     C 3193   4.264   7.304   7.679 -0.1226 -0.2137  0.0468
   25MOL0     C 3194   4.245   7.174   7.635 -0.0828  0.8444 -0.2535
   25MOL0     C 3195   4.145   7.146   7.543  0.1504 -0.3403  0.8891
   25MOL0     C 3196   4.044   7.247   7.510  0.0182  0.6406 -0.5332
   25MOL0     C 3197   3.933   7.204   7.431  0.1993 -0.0779 -0.3276
   25MOL0     O 3198   3.884   7.085   7.432  0.5824  0.4820 -0.2812
   25MOL0     C 3199   3.782   7.050   7.345  0.1051  0.5044  1.0974
   25MOL0     C 3200   3.642   7.076   7.368  0.0218 -1.2257 -0.1964
   25MOL0     C 3201   3.537   7.026   7.298  0.4005 -0.6466  0.7868
   25MOL0     C 3202   3.569   6.952   7.184 -0.4082  1.0645  1.0327
   25MOL0     O 3203   3.463   6.882   7.118  0.1379 -0.3158  0.0702
   25MOL0     C 3204   3.482   6.824   6.991 -0.7351 -0.2919  0.6418
   25MOL0     C 3205   3.360   6.755   6.925  0.2689 -0.9285 -0.7321
   25MOL0     C 3206   3.246   6.858   6.902 -0.1449 -0.7035  0.3367
   25MOL0     C 3207   3.115   6.783   6.899 -1.0416 -0.6981 -0.1182
   25MOL0     C 3208   3.072   6.737   7.042 -0.1290  0.3814 -0.5838
   25MOL0     C 3209   2.947   6.652   7.018 -0.0168 -0.0613 -0.6548
   25MOL0     C 3210   2.880   6.607   7.149  0.3154  0.5393  0.2186
   25MOL0     C 3211   2.796   6.721   7.209  0.3670  0.2797 -0.9203
   25MOL0    Cl 3212   2.655   6.753   7.103  0.3541  0.4528  0.2992
   25MOL0     C 3213   3.702   6.933   7.143 -0.5368 -0.0702  0.1320
   25MOL0     C 3214   3.805   6.983   7.223  0.0716  0.5745 -0.2767
   25MOL0     O 3215   3.900   7.289   7.343 -0.0473 -0.2377  0.4663
   25MOL0     C 3216   4.061   7.382   7.561 -0.2067  0.1420 -0.6744
   25MOL0     C 3217   4.180   7.406   7.630 -0.2712 -0.0697 -0.7036
   25MOL0     N 3218   4.330   7.250   8.470  0.7200  0.0633 -0.0577
   25MOL0     N 3219   4.287   7.303   8.582 -0.0536  0.2108 -0.6104
   25MOL0     C 3220   4.034   8.571   8.557 -0.1150  0.2319  0.0996
   25MOL0     C 3221   3.976   8.692   8.547 -0.3405  0.1640  0.8019
   25MOL0     C 3222   3.705   9.025   8.731  0.0043  0.1823 -0.1869
   25MOL0     C 3223   3.657   9.086   8.838  0.2048  0.2138  0.6967
   25MOL0     C 3224   3.602   9.216   8.827  1.7631 -0.0111 -0.4144
   25MOL0     C 3225   3.603   9.288   8.711  0.0807 -0.5981  0.5253
   25MOL0     O 3226   3.549   9.422   8.726  0.4043 -0.2755 -1.0648
   25MOL0     C 3227   3.565   9.503   8.615 -0.3378 -0.3008  0.2522
   25MOL0     C 3228   3.509   9.631   8.646  0.9531  0.0947 -0.4154
   25MOL0     C 3229   3.552   9.734   8.539 -0.2411  0.0877 -0.1226
   25MOL0     C 3230   3.496   9.876   8.574  0.6587  0.8178 -0.0631
   25MOL0     C 3231   3.357   9.890   8.541  0.1372 -0.0020  0.9877
   25MOL0     C 3232   3.234   9.892   8.538 -0.3578  0.4380 -0.7153
   25MOL0     C 3233   3.640   9.219   8.596 -1.4629 -0.0473 -0.1845
   25MOL0     C 3234   3.704   9.089   8.603 -0.0393 -0.4168 -0.3908
   25MOL0     H 3235   3.682   8.622   8.712 -1.3892 -1.2374 -0.2206
   25MOL0     H 3236   3.797   8.399   8.732 -1.1445 -1.4375 -1.1243
   25MOL0     H 3237   4.210   8.415   8.743  1.1804  2.1360 -2.9495
   25MOL0     H 3238   4.235   8.370   8.568  2.0318 -0.2811  0.0624
   25MOL0     H 3239   4.181   8.202   8.806 -0.6837 -0.5980 -1.8609
   25MOL0     H 3240   4.347   8.254   8.761  0.8681 -0.6770 -0.5288
   25MOL0     H 3241   4.346   8.097   8.580 -0.7821 -0.8502  1.0088
   25MOL0     H 3242   4.162   8.091   8.579 -0.9469  3.2665  0.0652
   25MOL0     H 3243   4.329   8.015   8.814  0.5195 -0.1165 -1.9197
   25MOL0     H 3244   4.154   7.980   8.777 -2.0314 -3.6844 -2.5133
   25MOL0     H 3245   4.376   7.851   8.597 -1.6242 -1.3518 -2.7256
   25MOL0     H 3246   4.224   7.803   8.619 -0.5775 -1.8555  3.0392
   25MOL0     H 3247   4.253   7.754   8.854  2.0908  1.4628  2.6421
   25MOL0     H 3248   4.425   7.799   8.851 -0.2665  0.4327  0.0482
   25MOL0     H 3249   4.469   7.618   8.691 -1.7746  0.4789 -1.3086
   25MOL0     H 3250   4.410   7.559   8.839  4.1488  2.7600  0.3506
   25MOL0     H 3251   4.209   7.601   8.606 -3.1079 -3.8841 -2.2495
   25MOL0     H 3252   4.188   7.499   8.746  1.0927  3.2493  2.0146
   25MOL0     H 3253   4.429   7.566   8.427  1.5476 -0.5697 -1.2506
   25MOL0     H 3254   4.409   7.228   8.221 -1.5040  1.2364 -4.4942
   25MOL0     H 3255   4.515   7.380   8.218 -0.3861  1.9841  0.7563
   25MOL0     H 3256   4.362   7.518   8.132 -2.0975 -0.0396 -1.6295
   25MOL0     H 3257   4.236   7.385   8.144 -0.3307 -2.8240 -3.2131
   25MOL0     H 3258   4.495   7.412   7.995 -1.3039  0.3123 -0.7503
   25MOL0     H 3259   4.412   7.253   8.004  1.4626 -0.9226  0.7229
   25MOL0     H 3260   4.287   7.510   7.884 -4.0419 -0.4337  2.4109
   25MOL0     H 3261   4.208   7.361   7.915  0.1622 -0.6599 -1.3215
   25MOL0     H 3262   4.307   7.092   7.670  0.8605  0.0357 -3.4953
   25MOL0     H 3263   4.140   7.044   7.506  1.3740 -0.0175 -0.2093
   25MOL0     H 3264   3.630   7.141   7.454  3.5646  1.4370 -1.4865
   25MOL0     H 3265   3.434   7.044   7.326 -0.5219 -0.2463 -2.4388
   25MOL0     H 3266   3.554   6.742   6.983  0.8352  1.1565 -1.2202
   25MOL0     H 3267   3.522   6.894   6.917  1.4220 -0.3315  1.7006
   25MOL0     H 3268   3.335   6.671   6.990 -0.5938  0.3237  0.6312
   25MOL0     H 3269   3.378   6.712   6.826  1.1091  0.0970 -1.0445
   25MOL0     H 3270   3.259   6.928   6.820  2.7319 -1.5158 -0.0198
   25MOL0     H 3271   3.245   6.931   6.984  1.1700 -1.3277  0.9463
   25MOL0     H 3272   3.040   6.851   6.858 -0.9024 -0.8720 -0.6734
   25MOL0     H 3273   3.119   6.702   6.825  0.0232 -1.0119  0.2676
   25MOL0     H 3274   3.041   6.818   7.109  0.3066 -2.2575  3.0934
   25MOL0     H 3275   3.151   6.681   7.091  0.1537  0.7999 -0.5567
   25MOL0     H 3276   2.969   6.566   6.953  1.2781  0.2855 -0.7056
   25MOL0     H 3277   2.878   6.715   6.962 -1.0814  0.5829  1.3143
   25MOL0     H 3278   2.820   6.515   7.147  0.9527  0.1253 -0.8162
   25MOL0     H 3279   2.965   6.589   7.216  0.3845  2.4485  0.6833
   25MOL0     H 3280   2.854   6.814   7.215 -2.1987  1.9009  3.1309
   25MOL0     H 3281   2.756   6.691   7.306 -1.8186  1.9885 -1.2102
   25MOL0     H 3282   3.731   6.874   7.056  2.0381  1.3085 -0.0255
   25MOL0     H 3283   3.908   6.969   7.192 -0.3002  0.7432 -1.6325
   25MOL0     H 3284   3.992   7.458   7.525 -0.5954 -1.0196 -2.5016
   25MOL0     H 3285   4.194   7.505   7.673  2.6177 -0.6080 -0.1950
   25MOL0     H 3286   4.136   8.556   8.523  0.5358  0.7497  1.7457
   25MOL0     H 3287   4.030   8.777   8.504  1.3946 -1.5287 -0.5516
   25MOL0     H 3288   3.650   9.026   8.928 -3.8377 -2.0802 -0.8837
   25MOL0     H 3289   3.578   9.274   8.915 -0.9358  2.1486 -2.3876
   25MOL0     H 3290   3.515   9.461   8.527  0.6350 -1.2852  0.1428
   25MOL0     H 3291   3.668   9.529   8.588 -1.0342  1.3694 -0.9874
   25MOL0     H 3292   3.400   9.626   8.654  0.9571  0.5261 -0.0368
   25MOL0     H 3293   3.526   9.663   8.749 -1.4690 -0.2637  0.1488
   25MOL0     H 3294   3.521   9.707   8.438  1.1804 -2.0592 -0.0457
   25MOL0     H 3295   3.661   9.745   8.533  0.2070 -3.6366 -2.4541
   25MOL0     H 3296   3.523   9.904   8.676  0.7626  0.2423  0.0704
   25MOL0     H 3297   3.549   9.945   8.507  0.3579 -0.5821 -1.8152
   25MOL0     H 3298   3.127   9.900   8.530 -0.7843 -0.6502  2.3360
   25MOL0     H 3299   3.639   9.268   8.500  2.1693 -0.7461 -0.6941
   25MOL0     H 3300   3.737   9.041   8.512 -1.7376 -0.8071 -0.8499
   26MOL0     O 3301   9.611   8.484   9.884 -0.0176 -0.2358  0.1322
   26MOL0     C 3302   9.661   8.474   9.995  0.2925 -0.2770  0.0275
   26MOL0     O 3303   9.589   8.459  10.117 -0.2107 -0.6822 -1.6949
   26MOL0     C 3304   9.461   8.420  10.105  0.4591 -1.2155 -0.4595
   26MOL0     C 3305   9.358   8.507  10.139 -0.4060 -0.2645 -0.3528
   26MOL0     C 3306   9.226   8.477  10.126  0.1715 -0.6914  0.4687
   26MOL0     C 3307   9.176   8.354  10.089 -0.0429 -0.1904  0.1240
   26MOL0     O 3308   9.033   8.336  10.074 -0.3926  1.0117  0.7725
   26MOL0     C 3309   8.973   8.200  10.053 -0.3145 -0.0064  0.1697
   26MOL0     C 3310   8.825   8.219  10.036 -0.6053  0.9583  0.2895
   26MOL0     C 3311   8.786   8.315   9.922 -0.3445 -0.9738  0.6570
   26MOL0     C 3312   8.631   8.301   9.927 -0.4040 -0.1343 -0.7801
   26MOL0     C 3313   8.540   8.359   9.808 -0.2065 -0.3830 -0.5729
   26MOL0     C 3314   8.397   8.364   9.858  0.5979  0.2876  1.4165
   26MOL0     C 3315   8.287   8.394   9.744 -0.6588 -0.9402 -0.9033
   26MOL0     C 3316   8.153   8.459   9.794  0.1212 -0.3649 -1.1074
   26MOL0     N 3317   8.072   8.359   9.872  0.3655 -0.2786 -0.3642
   26MOL0     C 3318   7.994   8.263   9.805  0.8064  0.1882  0.2142
   26MOL0     C 3319   7.926   8.204   9.909  0.3254  0.0255 -0.7023
   26MOL0     C 3320   7.816   8.093   9.902  0.1940  0.8395  0.1862
   26MOL0     C 3321   7.855   7.959   9.965 -0.7037  0.1453  0.5178
   26MOL0     C 3322   7.948   7.874   9.875 -0.0486  1.1775 -0.8163
   26MOL0     C 3323   8.094   7.892   9.887 -0.2979 -0.3290  0.3604
   26MOL0     O 3324   8.167   7.788   9.829  0.1078  0.7585 -0.0295
   26MOL0     C 3325   8.196   7.794   9.695 -0.7398 -0.1307 -0.2851
   26MOL0     C 3326   8.162   7.904   9.612 -0.3597 -0.0044  0.5102
   26MOL0     C 3327   8.201   7.905   9.476 -0.0806 -0.5373 -0.8094
   26MOL0     C 3328   8.286   7.810   9.420  0.1157 -0.1175 -0.5553
   26MOL0     C 3329   8.332   7.821   9.285 -0.3849  0.2564 -0.9877
   26MOL0     O 3330   8.324   7.710   9.201  0.4048 -0.6787 -0.7339
   26MOL0     C 3331   8.352   7.735   9.067 -0.0521  1.0969  0.3215
   26MOL0     C 3332   8.254   7.790   8.985 -0.3484  0.2940 -0.1368
   26MOL0     C 3333   8.286   7.815   8.855  1.0245  0.6769  0.9815
   26MOL0     C 3334   8.405   7.774   8.792  0.6060 -0.0634 -0.1573
   26MOL0     O 3335   8.404   7.776   8.655  0.5503 -0.4496  0.1534
   26MOL0     C 3336   8.434   7.663   8.574 -0.5912 -0.3337  0.6166
   26MOL0     C 3337   8.430   7.694   8.426  0.1060 -0.3064 -0.9262
   26MOL0     C 3338   8.501   7.592   8.347  0.8750 -0.2927  0.6632
   26MOL0     C 3339   8.511   7.627   8.199  0.1075  0.2237 -0.3186
   26MOL0     C 3340   8.636   7.706   8.173  0.2420 -0.3904  0.7151
   26MOL0     C 3341   8.705   7.694   8.036 -0.7651 -0.2534  0.0401
   26MOL0     C 3342   8.626   7.709   7.909  0.7366  0.3147  1.3810
   26MOL0     C 3343   8.676   7.621   7.793  0.2770  0.0173 -0.7086
   26MOL0    Cl 3344   8.589   7.667   7.640 -0.3131 -0.0778 -0.1042
   26MOL0     C 3345   8.504   7.715   8.874  0.1014  0.0933 -0.2579
   26MOL0     C 3346   8.471   7.695   9.013  0.2817 -0.3819  0.0331
   26MOL0     O 3347   8.363   7.932   9.244 -0.2925  0.5754  0.2127
   26MOL0     C 3348   8.315   7.697   9.501 -0.0764  0.7537 -0.8956
   26MOL0     C 3349   8.270   7.689   9.639 -1.4794  0.7770 -0.3749
   26MOL0     N 3350   7.983   8.253  10.033  0.5524 -0.1589  0.7909
   26MOL0     N 3351   8.061   8.360  10.009  0.4344 -0.1455 -0.3409
   26MOL0     C 3352   9.277   8.260  10.053  0.1167  0.5919 -0.0281
   26MOL0     C 3353   9.416   8.296  10.057  0.4620  0.6732  0.0998
   26MOL0     C 3354   9.804   8.513  10.016 -0.1052  0.9126  0.9083
   26MOL0     C 3355   9.889   8.518   9.901 -1.0394 -0.2587  0.0000
   26MOL0     C 3356  10.021   8.556   9.908 -0.6455 -1.3957  0.2787
   26MOL0     C 3357  10.087   8.573  10.033 -0.3211  0.2017 -0.4579
   26MOL0     O 3358  10.221   8.609  10.037 -0.9357  0.0553 -0.1953
   26MOL0     C 3359  10.286   8.613  10.164 -0.3855  0.0493 -0.5863
   26MOL0     C 3360  10.299   8.471  10.218 -0.0573 -1.6080 -0.2982
   26MOL0     C 3361  10.392   8.383  10.134 -0.1957 -0.3553 -0.1521
   26MOL0     C 3362  10.454   8.283  10.223 -0.2288  1.2405 -0.5879
   26MOL0     C 3363  10.360   8.168  10.246 -0.7363  0.2539  0.6273
   26MOL0     C 3364  10.278   8.081  10.271  0.9425 -0.3491  1.0813
   26MOL0     C 3365  10.005   8.568  10.152 -1.5729  0.5838 -0.5292
   26MOL0     C 3366   9.868   8.543  10.143  0.2803  0.2328  0.6211
   26MOL0     H 3367   9.384   8.610  10.162  4.3536 -0.2579 -4.0985
   26MOL0     H 3368   9.154   8.558  10.132 -0.5370 -1.0615 -2.2072
   26MOL0     H 3369   8.983   8.147  10.147  2.6543 -1.3926 -0.7804
   26MOL0     H 3370   9.020   8.147   9.969 -1.1998  0.1561 -0.4393
   26MOL0     H 3371   8.783   8.246  10.133  1.0265 -2.4201  2.1126
   26MOL0     H 3372   8.787   8.125   9.995 -1.2487  2.4223 -2.7268
   26MOL0     H 3373   8.823   8.292   9.821 -2.0452 -1.6781  0.1526
   26MOL0     H 3374   8.808   8.419   9.946 -0.7338 -0.5719 -0.6571
   26MOL0     H 3375   8.601   8.196   9.924 -2.8869  0.5103 -0.4397
   26MOL0     H 3376   8.589   8.342  10.019 -2.3151  0.7716 -1.9909
   26MOL0     H 3377   8.540   8.298   9.717 -0.8910  1.6314 -1.9915
   26MOL0     H 3378   8.573   8.459   9.781  1.2026 -0.4610  0.7430
   26MOL0     H 3379   8.393   8.445   9.932 -0.2981 -1.6226  3.5668
   26MOL0     H 3380   8.365   8.272   9.908 -2.0112  0.2014 -0.2625
   26MOL0     H 3381   8.324   8.473   9.677  2.9763 -0.7573  1.0725
   26MOL0     H 3382   8.267   8.311   9.676 -2.9042 -0.9245 -0.3521
   26MOL0     H 3383   8.090   8.493   9.711 -4.2811  0.3904  2.2035
   26MOL0     H 3384   8.170   8.557   9.840  0.1686  0.2421 -2.3644
   26MOL0     H 3385   7.977   8.246   9.700 -2.5233  2.4589  0.2186
   26MOL0     H 3386   7.782   8.083   9.799  0.5125 -1.0798  0.2395
   26MOL0     H 3387   7.735   8.131   9.965 -0.8825  1.4914 -1.5287
   26MOL0     H 3388   7.763   7.902   9.980 -1.1127  0.3951 -0.8926
   26MOL0     H 3389   7.898   7.983  10.062  0.9143  4.8506 -1.0908
   26MOL0     H 3390   7.936   7.767   9.898 -0.4277  1.9832  3.6494
   26MOL0     H 3391   7.917   7.878   9.770 -1.0131 -1.4956 -0.7356
   26MOL0     H 3392   8.129   7.891   9.990  4.6254  6.9325 -0.5209
   26MOL0     H 3393   8.139   7.986   9.856  1.8311 -1.0090  1.1866
   26MOL0     H 3394   8.102   7.985   9.653  0.6994 -0.3720  2.9366
   26MOL0     H 3395   8.183   7.993   9.415 -3.4401  0.4352  1.3144
   26MOL0     H 3396   8.153   7.812   9.016 -0.1846 -0.3109  0.8489
   26MOL0     H 3397   8.206   7.862   8.798 -2.1000 -0.0725  4.3119
   26MOL0     H 3398   8.352   7.592   8.588 -0.9718 -0.1439 -0.5306
   26MOL0     H 3399   8.533   7.627   8.600 -0.2034 -0.8276 -1.3743
   26MOL0     H 3400   8.485   7.783   8.394 -2.5344  1.3534 -1.2112
   26MOL0     H 3401   8.326   7.709   8.393 -1.4940 -2.7043  2.4017
   26MOL0     H 3402   8.454   7.495   8.365 -0.1909  0.6593  3.4848
   26MOL0     H 3403   8.603   7.580   8.384  1.6658  2.4600 -0.3765
   26MOL0     H 3404   8.523   7.531   8.148 -0.8720 -0.1485  0.1204
   26MOL0     H 3405   8.416   7.666   8.162 -0.0532 -1.5551 -1.9520
   26MOL0     H 3406   8.713   7.676   8.244 -0.5441  0.2477  1.8727
   26MOL0     H 3407   8.608   7.810   8.193 -3.1535 -0.3603 -2.8460
   26MOL0     H 3408   8.750   7.595   8.032  1.4747  0.4897  3.0757
   26MOL0     H 3409   8.784   7.770   8.042 -1.4044  0.4626 -0.3935
   26MOL0     H 3410   8.525   7.669   7.924  0.1455 -0.1570 -2.8101
   26MOL0     H 3411   8.628   7.812   7.873  0.3380 -0.2272 -0.2839
   26MOL0     H 3412   8.654   7.518   7.823  1.1702 -0.1270 -0.5185
   26MOL0     H 3413   8.781   7.634   7.766 -0.0072  1.1605 -1.3230
   26MOL0     H 3414   8.591   7.663   8.834 -0.6089 -1.3237 -0.0291
   26MOL0     H 3415   8.548   7.648   9.074  0.4756  0.4506  0.4372
   26MOL0     H 3416   8.391   7.629   9.463 -2.4014 -2.0575 -0.8158
   26MOL0     H 3417   8.306   7.600   9.689 -0.3208  0.3964 -1.8110
   26MOL0     H 3418   9.254   8.160  10.017  2.0656  0.0835  0.0299
   26MOL0     H 3419   9.493   8.220  10.042 -2.1545 -1.9106 -1.2377
   26MOL0     H 3420   9.841   8.501   9.805 -1.6235 -1.8284  0.5357
   26MOL0     H 3421  10.067   8.586   9.815  0.4846 -2.2806  0.5157
   26MOL0     H 3422  10.235   8.676  10.237  3.3449  2.4822  0.1997
   26MOL0     H 3423  10.384   8.660  10.160 -1.4564  2.5476  0.5944
   26MOL0     H 3424  10.341   8.486  10.318 -2.4873  0.8898  0.4859
   26MOL0     H 3425  10.206   8.421  10.247 -0.0617 -1.2052  0.3935
   26MOL0     H 3426  10.461   8.458  10.095 -0.6903 -0.0713 -0.4921
   26MOL0     H 3427  10.350   8.331  10.048  1.4266 -1.4371 -0.3267
   26MOL0     H 3428  10.551   8.239  10.197 -1.0240 -2.0146  1.3617
   26MOL0     H 3429  10.459   8.325  10.323 -2.4866 -3.3230  1.7369
   26MOL0     H 3430  10.199   8.014  10.300  0.8241 -1.0259 -0.6545
   26MOL0     H 3431  10.045   8.598  10.249 -0.6500 -3.1958  0.4219
   26MOL0     H 3432   9.812   8.526  10.234 -4.3134 -2.7775 -2.3039
   27MOL0     O 3433   8.416   7.864   5.948  0.8003  0.3938  0.3131
   27MOL0     C 3434   8.466   7.758   5.893  1.1223  0.3930  0.6070
   27MOL0     O 3435   8.591   7.740   5.864 -0.2665  0.0364  0.4065
   27MOL0     C 3436   8.689   7.812   5.925  0.2222 -0.8481 -0.0995
   27MOL0     C 3437   8.791   7.749   5.993  1.1473  0.1037 -0.2147
   27MOL0     C 3438   8.913   7.815   6.027  0.7536 -0.3110 -0.6314
   27MOL0     C 3439   8.921   7.958   6.022  0.9891  0.5937 -0.7645
   27MOL0     O 3440   9.028   8.031   6.072  0.4963  0.1275  0.4767
   27MOL0     C 3441   9.152   8.033   5.998 -0.2086  1.0116  0.3480
   27MOL0     C 3442   9.282   7.987   6.084 -0.8378 -0.2045 -0.7607
   27MOL0     C 3443   9.328   7.842   6.057 -0.1877 -0.7532  0.8417
   27MOL0     C 3444   9.414   7.793   6.172  0.1047  0.5366  0.5391
   27MOL0     C 3445   9.470   7.653   6.152 -0.4561  0.4864  1.9394
   27MOL0     C 3446   9.489   7.568   6.271 -0.5922 -0.1059 -0.5221
   27MOL0     C 3447   9.582   7.635   6.367 -0.1928 -0.5418  0.2043
   27MOL0     C 3448   9.727   7.575   6.353 -0.1824 -0.6794 -0.4967
   27MOL0     N 3449   9.743   7.437   6.404  0.8045 -0.5908  0.3163
   27MOL0     C 3450   9.735   7.321   6.331 -1.3152 -1.4635  0.1969
   27MOL0     C 3451   9.738   7.225   6.420 -0.1547 -0.4025  0.0194
   27MOL0     C 3452   9.735   7.079   6.395 -0.3700 -0.0915  1.0229
   27MOL0     C 3453   9.869   7.016   6.428 -0.2520  0.0436  0.1612
   27MOL0     C 3454   9.873   6.868   6.404 -0.1680 -0.0468 -0.3101
   27MOL0     C 3455   9.749   6.792   6.458 -0.0840  0.1459  0.1422
   27MOL0     O 3456   9.774   6.648   6.461  0.2508  0.2841 -0.7442
   27MOL0     C 3457   9.798   6.575   6.346 -0.1949 -0.3808  0.0252
   27MOL0     C 3458   9.766   6.630   6.222 -0.6814 -0.3937 -0.1061
   27MOL0     C 3459   9.812   6.565   6.101  0.7221  0.3088 -0.5954
   27MOL0     C 3460   9.864   6.431   6.121  0.0385 -1.1038  0.8136
   27MOL0     C 3461   9.894   6.353   5.996  0.2921  0.1108 -1.6146
   27MOL0     O 3462   9.851   6.397   5.871  0.7288  0.4486  0.0888
   27MOL0     C 3463   9.844   6.323   5.756  0.2367 -0.1952  0.4465
   27MOL0     C 3464   9.737   6.360   5.670 -0.8028  0.5057 -0.0463
   27MOL0     C 3465   9.707   6.287   5.557  0.2004  0.4109 -0.4408
   27MOL0     C 3466   9.772   6.162   5.541  0.6347 -0.4085  0.4962
   27MOL0     O 3467   9.747   6.075   5.433  0.0689  0.0128 -0.5335
   27MOL0     C 3468   9.624   6.073   5.366 -0.1263  0.4672  0.7867
   27MOL0     C 3469   9.633   6.154   5.237  0.4842 -0.2106 -0.2766
   27MOL0     C 3470   9.501   6.223   5.209 -0.7675 -0.0151  0.2986
   27MOL0     C 3471   9.491   6.274   5.064 -0.4690  0.1506 -0.3150
   27MOL0     C 3472   9.350   6.295   5.012 -0.1432  0.2082 -0.1675
   27MOL0     C 3473   9.268   6.376   5.111  0.5952 -0.1581  0.0167
   27MOL0     C 3474   9.135   6.423   5.050  0.3315 -0.7720 -1.1026
   27MOL0     C 3475   9.037   6.480   5.156  0.0970  0.4072 -1.1539
   27MOL0    Cl 3476   8.964   6.346   5.257  0.4288 -0.2790  0.0678
   27MOL0     C 3477   9.882   6.127   5.617 -0.9262  0.6252 -0.5160
   27MOL0     C 3478   9.917   6.210   5.727 -0.4380  1.4367  0.2940
   27MOL0     O 3479   9.950   6.246   6.023 -0.5920  0.0101  0.0722
   27MOL0     C 3480   9.882   6.380   6.251  0.2825  0.5754  0.4021
   27MOL0     C 3481   9.859   6.454   6.367 -0.1119  0.6611  0.1676
   27MOL0     N 3482   9.766   7.274   6.539  0.7878  0.3758 -0.6731
   27MOL0     N 3483   9.749   7.404   6.538  0.4945 -0.0418  0.1629
   27MOL0     C 3484   8.815   8.030   5.960  0.9728  0.0310 -0.4921
   27MOL0     C 3485   8.699   7.962   5.909 -0.3109  0.1284  0.4330
   27MOL0     C 3486   8.369   7.659   5.846 -0.1432  0.1018 -0.2467
   27MOL0     C 3487   8.235   7.662   5.886  0.9790 -0.2366  0.0977
   27MOL0     C 3488   8.144   7.568   5.838  0.3471 -0.5997 -0.2509
   27MOL0     C 3489   8.189   7.475   5.750 -0.1884  0.0747  0.4296
   27MOL0     O 3490   8.115   7.381   5.682  0.1411  0.3224 -0.1777
   27MOL0     C 3491   8.011   7.325   5.756  0.1428  0.5865  0.1618
   27MOL0     C 3492   7.992   7.193   5.689 -0.3894 -0.6761 -0.4616
   27MOL0     C 3493   7.935   7.217   5.549  0.5635  0.4410  0.3131
   27MOL0     C 3494   7.884   7.070   5.512 -0.2881  0.6985  0.0080
   27MOL0     C 3495   7.753   7.042   5.581 -0.3452  0.8850  0.1819
   27MOL0     C 3496   7.647   6.992   5.618 -0.4530  0.2270 -0.3471
   27MOL0     C 3497   8.318   7.466   5.716 -0.6446  0.2872  0.3934
   27MOL0     C 3498   8.415   7.558   5.760 -0.0861 -0.1202  0.5845
   27MOL0     H 3499   8.784   7.640   5.994  1.9527 -0.0212 -2.5986
   27MOL0     H 3500   9.004   7.761   6.052 -1.4790 -3.2001  2.0200
   27MOL0     H 3501   9.162   8.138   5.969  1.1092  0.4230 -1.5083
   27MOL0     H 3502   9.133   7.978   5.906  1.4809  0.7052  0.1484
   27MOL0     H 3503   9.255   8.001   6.189  5.4183  1.9916  0.9870
   27MOL0     H 3504   9.371   8.048   6.064  0.9695 -2.1523  0.8087
   27MOL0     H 3505   9.366   7.826   5.956 -2.0761  1.1964 -0.2812
   27MOL0     H 3506   9.236   7.784   6.068 -0.5234 -1.3922 -3.5369
   27MOL0     H 3507   9.494   7.865   6.188 -0.0571  0.5230  1.4486
   27MOL0     H 3508   9.337   7.787   6.249  0.9252 -0.4650  1.3236
   27MOL0     H 3509   9.567   7.656   6.101 -0.9252  0.0225  0.9864
   27MOL0     H 3510   9.406   7.596   6.085 -1.4168 -0.9422  3.9685
   27MOL0     H 3511   9.519   7.466   6.242 -1.3022 -0.3965 -0.2444
   27MOL0     H 3512   9.401   7.549   6.332  0.1238 -0.0107  0.5770
   27MOL0     H 3513   9.591   7.744   6.364 -0.1136 -0.5654 -2.3627
   27MOL0     H 3514   9.540   7.601   6.463  3.4034 -0.6797  1.9031
   27MOL0     H 3515   9.791   7.639   6.415  2.7533 -2.2296 -1.7417
   27MOL0     H 3516   9.762   7.569   6.249  3.8885  1.6042  0.5341
   27MOL0     H 3517   9.725   7.316   6.223 -1.0108 -1.6148  0.1751
   27MOL0     H 3518   9.718   7.058   6.289  1.6995  0.1208  0.6145
   27MOL0     H 3519   9.658   7.026   6.453  0.4891  0.4669  2.7240
   27MOL0     H 3520   9.900   7.033   6.532  1.5497 -2.9283  0.2348
   27MOL0     H 3521   9.934   7.069   6.358  1.7103  0.3167  2.0718
   27MOL0     H 3522   9.868   6.863   6.295 -2.7299 -0.0004 -0.2657
   27MOL0     H 3523   9.953   6.817   6.459 -1.1260  1.8695  3.1560
   27MOL0     H 3524   9.657   6.814   6.403 -1.2878 -5.5025 -0.7884
   27MOL0     H 3525   9.729   6.828   6.560 -2.5680  3.5150 -1.3591
   27MOL0     H 3526   9.700   6.716   6.214  1.6103  1.2952 -2.6994
   27MOL0     H 3527   9.778   6.601   6.005  0.6532 -2.1045 -1.5469
   27MOL0     H 3528   9.673   6.441   5.704  0.0587  1.5113 -0.7409
   27MOL0     H 3529   9.621   6.316   5.498 -0.2015 -2.2691 -1.2894
   27MOL0     H 3530   9.537   6.096   5.427  0.5207  1.6286  1.3073
   27MOL0     H 3531   9.593   5.972   5.337 -3.6090  1.8062 -0.6846
   27MOL0     H 3532   9.663   6.086   5.157 -2.3397 -0.6717 -1.0346
   27MOL0     H 3533   9.721   6.219   5.235  4.0339 -4.4830  1.0796
   27MOL0     H 3534   9.488   6.306   5.278  2.9194 -0.7663  2.1724
   27MOL0     H 3535   9.421   6.151   5.224 -1.4352  0.7794  0.6252
   27MOL0     H 3536   9.544   6.369   5.070  0.3741 -0.3527  5.1098
   27MOL0     H 3537   9.540   6.205   4.994 -0.0781  0.2757 -0.1633
   27MOL0     H 3538   9.297   6.200   5.003  3.2490 -2.4520  3.8062
   27MOL0     H 3539   9.352   6.344   4.915 -1.8455 -1.0075 -0.8694
   27MOL0     H 3540   9.320   6.469   5.132 -3.4249  2.0675  1.2274
   27MOL0     H 3541   9.261   6.319   5.204 -0.4889  1.1438  0.7763
   27MOL0     H 3542   9.138   6.494   4.967 -1.2317  2.3227  1.2729
   27MOL0     H 3543   9.088   6.328   5.022  1.1254 -2.6876  3.1485
   27MOL0     H 3544   8.967   6.528   5.086  1.3859 -2.8777 -5.0960
   27MOL0     H 3545   9.085   6.555   5.220 -1.8353  0.3435  0.4935
   27MOL0     H 3546   9.940   6.039   5.592  1.1033  2.4633 -2.7846
   27MOL0     H 3547  10.008   6.182   5.778  0.3232 -2.7385 -2.8096
   27MOL0     H 3548   9.938   6.287   6.250 -0.8689 -0.3023  3.6939
   27MOL0     H 3549   9.890   6.423   6.466  0.9560  3.1640  0.7026
   27MOL0     H 3550   8.826   8.138   5.962  0.7135  0.1329 -2.5616
   27MOL0     H 3551   8.612   8.005   5.861 -0.7237  0.5025  1.4772
   27MOL0     H 3552   8.201   7.738   5.956  0.3509 -1.2557  0.9325
   27MOL0     H 3553   8.039   7.562   5.862  1.2646 -0.4861  4.9089
   27MOL0     H 3554   7.917   7.382   5.755  0.9041  1.9644  1.4923
   27MOL0     H 3555   8.043   7.307   5.859  1.0107 -1.2474 -0.3949
   27MOL0     H 3556   8.085   7.136   5.681 -0.5546 -0.8737 -1.0478
   27MOL0     H 3557   7.920   7.139   5.752  0.9964  1.9287  3.8145
   27MOL0     H 3558   8.009   7.264   5.483  0.5996  1.6466  1.1989
   27MOL0     H 3559   7.853   7.288   5.535  0.6398 -0.0494 -4.1979
   27MOL0     H 3560   7.873   7.051   5.405  1.4349 -0.3670 -0.0164
   27MOL0     H 3561   7.960   7.001   5.550  0.2909  2.7130  2.8410
   27MOL0     H 3562   7.562   6.941   5.659 -0.4902 -1.4440 -2.3445
   27MOL0     H 3563   8.340   7.383   5.650  2.8420  0.7174  0.8213
   27MOL0     H 3564   8.516   7.551   5.721 -1.3248 -2.0838 -2.6569
   28MOL0     O 3565  10.462   2.518   7.957  0.2947  0.0756  0.3417
   28MOL0     C 3566  10.577   2.558   7.957 -0.0422 -0.4225 -1.3209
   28MOL0     O 3567  10.687   2.490   7.992 -0.4535  0.2461  0.2304
   28MOL0     C 3568  10.691   2.369   8.057  0.2155  0.2684 -0.2423
   28MOL0     C 3569  10.808   2.296   8.043  0.4561 -0.0152  1.1843
   28MOL0     C 3570  10.819   2.175   8.098 -0.1765  1.0093 -0.7465
   28MOL0     C 3571  10.721   2.108   8.170 -0.0204 -0.6272  0.6870
   28MOL0     O 3572  10.738   1.988   8.217  0.2404  0.4846  0.0430
   28MOL0     C 3573  10.634   1.918   8.294  0.6023 -0.2633  0.0429
   28MOL0     C 3574  10.685   1.789   8.359  0.1803  0.5112  0.6620
   28MOL0     C 3575  10.697   1.686   8.251 -0.1470 -0.3589  0.5960
   28MOL0     C 3576  10.758   1.559   8.309  0.0928 -0.1436 -0.0487
   28MOL0     C 3577  10.787   1.450   8.202  0.1015  0.8968 -0.4359
   28MOL0     C 3578  10.671   1.349   8.183 -0.1201 -0.3926 -0.1898
   28MOL0     C 3579  10.699   1.245   8.068 -0.0350  0.0428 -0.4309
   28MOL0     C 3580  10.598   1.128   8.048  0.2309  0.4014  0.5427
   28MOL0     N 3581  10.476   1.164   7.985 -0.3794  0.4486  0.5381
   28MOL0     C 3582  10.398   1.271   8.027  0.9937 -0.1627 -0.3961
   28MOL0     C 3583  10.300   1.278   7.927 -0.0945  0.0873 -0.1734
   28MOL0     C 3584  10.193   1.381   7.938  0.3730  0.3828  0.0321
   28MOL0     C 3585  10.071   1.317   8.008  0.6711  0.2614  0.9143
   28MOL0     C 3586   9.969   1.416   8.043 -0.0873 -0.5577 -0.3155
   28MOL0     C 3587   9.830   1.348   8.064 -0.2376  0.1170  0.9100
   28MOL0     O 3588   9.833   1.256   8.169  0.2829  0.5254 -0.6064
   28MOL0     C 3589   9.710   1.190   8.208  0.4142 -0.9382  0.1036
   28MOL0     C 3590   9.587   1.216   8.150 -0.3099  0.3730 -0.6084
   28MOL0     C 3591   9.474   1.151   8.200 -0.6856  0.8297  0.2423
   28MOL0     C 3592   9.475   1.064   8.309  0.2280 -0.5153 -0.9046
   28MOL0     C 3593   9.347   1.004   8.359  0.1844  0.7984  0.2322
   28MOL0     O 3594   9.353   0.963   8.484  0.5223  0.8249  0.0271
   28MOL0     C 3595   9.237   0.897   8.536 -0.4970  0.1414  0.9693
   28MOL0     C 3596   9.254   0.762   8.572 -0.0140  0.3645 -0.2336
   28MOL0     C 3597   9.159   0.683   8.629 -0.6731 -0.2920  1.2055
   28MOL0     C 3598   9.033   0.750   8.640  0.4342  0.5197  0.0787
   28MOL0     O 3599   8.939   0.658   8.692 -0.1166 -0.9699  0.2358
   28MOL0     C 3600   8.812   0.700   8.746 -0.6421  0.7433 -0.5550
   28MOL0     C 3601   8.764   0.602   8.852 -0.1879  1.0907 -0.3178
   28MOL0     C 3602   8.701   0.472   8.796  0.5068  0.8312  0.6559
   28MOL0     C 3603   8.677   0.372   8.913  0.1580  0.0600 -0.2382
   28MOL0     C 3604   8.564   0.284   8.868 -0.6297 -0.1726 -0.6287
   28MOL0     C 3605   8.552   0.165   8.962 -0.2283 -0.6637 -0.0161
   28MOL0     C 3606   8.432   0.083   8.911 -1.1440 -0.7106 -0.1605
   28MOL0     C 3607   8.293   0.138   8.947  0.7084  0.1246 -0.6712
   28MOL0    Cl 3608   8.280   0.137   9.126  0.3163  0.2054 -0.0986
   28MOL0     C 3609   9.003   0.878   8.595  0.5862 -0.2367 -1.1082
   28MOL0     C 3610   9.107   0.954   8.549 -1.1387  0.2361  0.6961
   28MOL0     O 3611   9.248   0.994   8.285  0.1574  0.1707 -0.3728
   28MOL0     C 3612   9.592   1.052   8.376 -0.5098  0.4080  0.2230
   28MOL0     C 3613   9.705   1.109   8.325 -0.8998  0.0279 -0.6227
   28MOL0     N 3614  10.310   1.183   7.836 -0.8317 -0.1290  0.5282
   28MOL0     N 3615  10.417   1.111   7.874 -0.2333  0.4143  0.6976
   28MOL0     C 3616  10.594   2.177   8.179  0.9287 -0.1343  1.7227
   28MOL0     C 3617  10.586   2.307   8.122  0.1626  0.8601 -0.0589
   28MOL0     C 3618  10.611   2.676   7.881 -0.7973  0.1324  0.2154
   28MOL0     C 3619  10.535   2.731   7.780 -0.8836  0.1772  0.7283
   28MOL0     C 3620  10.589   2.815   7.675 -0.1551 -0.5026  0.7436
   28MOL0     C 3621  10.720   2.867   7.698 -0.3215 -1.1499 -0.0887
   28MOL0     O 3622  10.762   2.973   7.623 -0.2790  0.0948  0.0093
   28MOL0     C 3623  10.894   2.965   7.569 -0.5345 -0.5863 -0.1450
   28MOL0     C 3624  10.887   3.098   7.492  0.3984  0.2614  0.7762
   28MOL0     C 3625  10.905   3.214   7.588 -0.9143  0.0059 -0.5521
   28MOL0     C 3626  10.912   3.350   7.506 -0.4225  0.2610 -1.1312
   28MOL0     C 3627  10.971   3.474   7.568 -0.4076  0.7512  0.6752
   28MOL0     C 3628  11.021   3.568   7.623  0.0552 -0.2761  0.5555
   28MOL0     C 3629  10.796   2.824   7.807 -0.8411  0.5944  0.6113
   28MOL0     C 3630  10.745   2.729   7.892 -1.0285  0.0794 -0.0042
   28MOL0     H 3631  10.891   2.337   7.985  2.7231 -1.2714  3.3370
   28MOL0     H 3632  10.910   2.119   8.079 -1.0762 -0.4184 -1.0700
   28MOL0     H 3633  10.545   1.910   8.232  1.0622 -1.3169 -0.5217
   28MOL0     H 3634  10.614   1.974   8.386  0.7933 -1.3166  0.7556
   28MOL0     H 3635  10.625   1.762   8.446 -0.1650 -0.5018  0.1230
   28MOL0     H 3636  10.788   1.799   8.393  0.7832  0.1366 -0.9410
   28MOL0     H 3637  10.755   1.726   8.167 -1.0957 -1.0269 -0.4081
   28MOL0     H 3638  10.601   1.646   8.216  0.4202 -0.5790 -0.7776
   28MOL0     H 3639  10.852   1.588   8.358 -0.2657 -4.3910  3.9429
   28MOL0     H 3640  10.689   1.524   8.387  2.8810 -1.3545  2.0549
   28MOL0     H 3641  10.872   1.387   8.230 -0.6940  0.3654  0.8761
   28MOL0     H 3642  10.818   1.502   8.111 -2.0158 -1.4394 -2.6508
   28MOL0     H 3643  10.582   1.411   8.166  0.0094 -0.3102 -0.5633
   28MOL0     H 3644  10.666   1.318   8.288 -2.9215  2.4204  0.6730
   28MOL0     H 3645  10.709   1.298   7.973 -0.8218  1.2377  0.1241
   28MOL0     H 3646  10.793   1.192   8.085  1.4191  2.2360 -1.1824
   28MOL0     H 3647  10.579   1.069   8.138 -0.5161 -3.6589 -1.9892
   28MOL0     H 3648  10.651   1.053   7.988 -0.1696 -1.0363  1.9129
   28MOL0     H 3649  10.404   1.330   8.117 -2.7758  0.3293 -0.2989
   28MOL0     H 3650  10.166   1.444   7.852 -2.6475 -1.7536 -0.7307
   28MOL0     H 3651  10.228   1.459   8.006 -1.3905  1.8646 -0.6720
   28MOL0     H 3652  10.106   1.262   8.096  0.7125 -0.3508  0.5201
   28MOL0     H 3653  10.035   1.241   7.938  0.3418 -0.3611  1.7585
   28MOL0     H 3654   9.991   1.461   8.140 -0.5336 -0.9233 -0.0422
   28MOL0     H 3655   9.957   1.502   7.976  0.8418  0.2015  0.4606
   28MOL0     H 3656   9.787   1.304   7.973  3.3697 -1.2836 -0.3239
   28MOL0     H 3657   9.770   1.434   8.094 -1.8728  0.7450 -3.4033
   28MOL0     H 3658   9.573   1.289   8.071  1.5167 -2.1264 -3.4879
   28MOL0     H 3659   9.376   1.170   8.159 -2.6098 -0.4186  3.8316
   28MOL0     H 3660   9.355   0.723   8.565  1.5695  4.1783 -1.3331
   28MOL0     H 3661   9.181   0.581   8.658 -1.2996 -1.4202 -1.9226
   28MOL0     H 3662   8.730   0.712   8.674 -1.7834 -4.1762 -0.4162
   28MOL0     H 3663   8.825   0.795   8.799  0.6323  0.8235 -0.9933
   28MOL0     H 3664   8.676   0.647   8.898 -2.9129 -2.3138 -1.6858
   28MOL0     H 3665   8.840   0.567   8.922 -1.1577 -1.2001 -0.3135
   28MOL0     H 3666   8.758   0.433   8.711 -0.9473  2.0162 -0.9525
   28MOL0     H 3667   8.603   0.507   8.762  0.7683  3.0123  2.0220
   28MOL0     H 3668   8.762   0.303   8.918 -1.0106 -1.6450 -2.0494
   28MOL0     H 3669   8.652   0.417   9.010  0.6991 -1.0396  0.4337
   28MOL0     H 3670   8.588   0.243   8.769 -0.1357 -0.6305 -0.3256
   28MOL0     H 3671   8.474   0.346   8.869 -0.7800 -0.3975 -0.1510
   28MOL0     H 3672   8.541   0.198   9.065 -0.7958 -0.8938 -0.0037
   28MOL0     H 3673   8.639   0.100   8.954 -1.1151 -2.2943  2.5683
   28MOL0     H 3674   8.436   0.085   8.801 -0.6816  0.5468 -0.1396
   28MOL0     H 3675   8.444  -0.017   8.953  3.0166 -0.3509 -0.1426
   28MOL0     H 3676   8.214   0.076   8.904 -2.0846  2.3945  0.8864
   28MOL0     H 3677   8.269   0.241   8.921  0.7941  0.1165 -0.7820
   28MOL0     H 3678   8.906   0.927   8.592  1.3084  1.2239 -1.4414
   28MOL0     H 3679   9.100   1.054   8.506  0.1043 -1.1589 -3.2129
   28MOL0     H 3680   9.597   0.993   8.467  2.4973 -1.3464 -0.9197
   28MOL0     H 3681   9.801   1.082   8.368 -1.2248 -1.1912 -0.6349
   28MOL0     H 3682  10.504   2.142   8.227 -1.9786  1.5598 -1.9422
   28MOL0     H 3683  10.498   2.369   8.130  0.2036  0.9326 -0.1730
   28MOL0     H 3684  10.436   2.688   7.774  0.2495 -2.5204 -4.2212
   28MOL0     H 3685  10.534   2.857   7.592 -0.2988  0.9979  1.5587
   28MOL0     H 3686  10.905   2.882   7.498 -1.4241 -1.8418  1.1515
   28MOL0     H 3687  10.972   2.974   7.644  1.4305  2.1554 -2.2944
   28MOL0     H 3688  10.978   3.096   7.432  0.5669  1.5731  0.9447
   28MOL0     H 3689  10.796   3.096   7.431 -1.8382  0.6698  3.8044
   28MOL0     H 3690  11.000   3.201   7.642 -1.5070  0.2630  0.5897
   28MOL0     H 3691  10.829   3.227   7.666  0.9522  2.0414  1.0461
   28MOL0     H 3692  10.977   3.330   7.420 -0.7805 -1.1835 -1.0922
   28MOL0     H 3693  10.808   3.364   7.475 -0.8516  0.5250  0.3260
   28MOL0     H 3694  11.057   3.646   7.687  0.8467 -1.0964  1.1264
   28MOL0     H 3695  10.888   2.876   7.832 -2.0713  2.1755  2.0868
   28MOL0     H 3696  10.798   2.701   7.982 -2.1673 -2.6835 -0.1074
   29MOL0     O 3697   8.161   4.618   8.086  0.3988 -0.3421  0.1383
   29MOL0     C 3698   8.133   4.507   8.121 -0.0942 -0.7922  0.1733
   29MOL0     O 3699   8.058   4.423   8.047  0.7521 -0.6132 -0.4630
   29MOL0     C 3700   8.028   4.465   7.919  0.0931  0.7923 -0.5592
   29MOL0     C 3701   8.130   4.490   7.830  0.8063  0.0102  1.3176
   29MOL0     C 3702   8.098   4.540   7.702 -0.6793 -0.4163 -0.1076
   29MOL0     C 3703   7.961   4.569   7.672 -0.5423 -0.0646 -0.2565
   29MOL0     O 3704   7.947   4.622   7.549 -0.8865  0.5380 -0.2490
   29MOL0     C 3705   7.850   4.563   7.470  0.1567  0.1536  0.7619
   29MOL0     C 3706   7.909   4.542   7.326 -0.6467  0.3011 -0.1185
   29MOL0     C 3707   7.974   4.654   7.248 -0.6424 -0.6005 -0.3371
   29MOL0     C 3708   8.002   4.641   7.095  1.1172  0.0077  0.4470
   29MOL0     C 3709   8.025   4.784   7.044 -0.2228  0.1979 -0.2189
   29MOL0     C 3710   8.056   4.793   6.897 -0.0477  0.2350  0.2143
   29MOL0     C 3711   8.195   4.732   6.871 -0.6440  0.0609  0.7632
   29MOL0     C 3712   8.314   4.801   6.945 -0.2596 -0.0387  0.1074
   29MOL0     N 3713   8.455   4.752   6.904  0.4904 -0.7389  0.2689
   29MOL0     C 3714   8.519   4.772   6.780 -1.1138 -0.0385  0.5328
   29MOL0     C 3715   8.629   4.692   6.796 -0.0775  0.7189 -0.2531
   29MOL0     C 3716   8.728   4.668   6.685  0.9524 -1.0476 -1.5836
   29MOL0     C 3717   8.847   4.760   6.720  0.5568  0.0090 -0.0860
   29MOL0     C 3718   8.826   4.906   6.706  0.1740 -0.1919 -0.8739
   29MOL0     C 3719   8.940   4.994   6.750 -0.0532  1.0259  0.6017
   29MOL0     O 3720   9.062   4.974   6.674 -0.0137 -0.7519  0.0069
   29MOL0     C 3721   9.176   5.037   6.700  0.2228  0.1960 -0.4725
   29MOL0     C 3722   9.293   5.005   6.637 -0.5620  0.0360  0.2155
   29MOL0     C 3723   9.422   5.041   6.682  0.3902  0.3457  0.3373
   29MOL0     C 3724   9.433   5.116   6.805 -0.5830  0.9546  0.3982
   29MOL0     C 3725   9.563   5.131   6.866  1.4499 -0.8506  0.0101
   29MOL0     O 3726   9.557   5.201   6.981 -0.2765 -0.3391 -0.4831
   29MOL0     C 3727   9.666   5.192   7.060  0.4464  0.5821 -0.6659
   29MOL0     C 3728   9.716   5.066   7.107 -0.3343 -0.6890 -0.3155
   29MOL0     C 3729   9.824   5.052   7.182 -0.4747  0.8794 -0.4623
   29MOL0     C 3730   9.877   5.167   7.249  0.4026  0.0496  1.1383
   29MOL0     O 3731   9.983   5.144   7.346  0.4982  0.3791  0.5945
   29MOL0     C 3732  10.019   5.256   7.427 -0.1167  0.4711 -0.1145
   29MOL0     C 3733   9.906   5.283   7.531  0.3779  0.2953 -0.0485
   29MOL0     C 3734   9.881   5.149   7.610  0.5743 -0.3559 -0.3861
   29MOL0     C 3735   9.778   5.162   7.735 -0.1332 -0.5462 -1.1659
   29MOL0     C 3736   9.780   5.036   7.818  0.0598  0.0927 -0.4556
   29MOL0     C 3737   9.665   5.021   7.917  0.8822 -0.1972  0.1420
   29MOL0     C 3738   9.660   4.894   7.986  0.3350  0.7584 -0.0372
   29MOL0     C 3739   9.599   4.778   7.901 -0.4564 -1.0042 -0.2847
   29MOL0    Cl 3740   9.608   4.604   7.965  0.3012 -0.0383  0.0631
   29MOL0     C 3741   9.833   5.291   7.200 -0.9626 -0.9901 -0.1830
   29MOL0     C 3742   9.730   5.304   7.105 -0.9073  0.5097  0.3071
   29MOL0     O 3743   9.658   5.089   6.803  0.1364 -0.3932 -0.1014
   29MOL0     C 3744   9.310   5.165   6.867  0.6444 -0.6318  0.6426
   29MOL0     C 3745   9.188   5.123   6.816 -0.2337  0.6094 -0.2986
   29MOL0     N 3746   8.630   4.632   6.924 -0.4245 -0.1383  0.0812
   29MOL0     N 3747   8.521   4.665   6.976  0.1532  0.0819 -0.8022
   29MOL0     C 3748   7.860   4.541   7.758 -0.7194  0.0207 -0.0006
   29MOL0     C 3749   7.895   4.492   7.888  0.0523 -0.4649  0.2595
   29MOL0     C 3750   8.191   4.472   8.253  1.1518  0.0125 -0.2181
   29MOL0     C 3751   8.129   4.368   8.327  0.6845 -0.5587 -0.0555
   29MOL0     C 3752   8.167   4.339   8.460 -0.2726  0.3604  0.3866
   29MOL0     C 3753   8.269   4.409   8.531  0.4785 -0.8277 -0.3784
   29MOL0     O 3754   8.329   4.362   8.644 -0.8387 -0.7156  0.1231
   29MOL0     C 3755   8.247   4.301   8.748 -1.1156  0.5012 -0.0999
   29MOL0     C 3756   8.235   4.386   8.876  0.0819 -0.0473  0.4043
   29MOL0     C 3757   8.205   4.289   8.984 -0.3196 -0.1483  0.0839
   29MOL0     C 3758   8.123   4.349   9.107  0.0407  1.1060  0.1332
   29MOL0     C 3759   8.142   4.254   9.221  1.0815  0.7755 -0.0166
   29MOL0     C 3760   8.173   4.193   9.318 -0.5054 -0.3989  0.6730
   29MOL0     C 3761   8.321   4.529   8.457 -1.0339  0.0367  0.6970
   29MOL0     C 3762   8.286   4.550   8.315 -0.0807  0.8301 -0.4907
   29MOL0     H 3763   8.234   4.467   7.853  1.2877 -1.0423 -1.4716
   29MOL0     H 3764   8.173   4.557   7.626  0.1398 -1.8110  0.3460
   29MOL0     H 3765   7.774   4.642   7.468 -0.3026 -0.2451  1.8798
   29MOL0     H 3766   7.812   4.471   7.515  0.4478  1.0673  2.9765
   29MOL0     H 3767   7.816   4.516   7.275  0.2587 -0.8840 -1.2271
   29MOL0     H 3768   7.970   4.451   7.337 -1.4485 -0.0760  1.5317
   29MOL0     H 3769   8.071   4.677   7.293 -0.1771 -3.2919  0.2231
   29MOL0     H 3770   7.901   4.735   7.255  0.0537  0.0926 -0.8114
   29MOL0     H 3771   8.095   4.586   7.074  1.1151  0.9203 -2.5293
   29MOL0     H 3772   7.911   4.610   7.043  1.8981 -2.0697  0.2401
   29MOL0     H 3773   8.106   4.834   7.097 -0.3189 -1.5517  1.7056
   29MOL0     H 3774   7.930   4.837   7.053 -1.1406 -1.4995  0.6023
   29MOL0     H 3775   8.055   4.897   6.862 -1.8748  0.8638  1.9848
   29MOL0     H 3776   7.989   4.732   6.836  1.5004 -3.1213  1.6469
   29MOL0     H 3777   8.179   4.627   6.897 -3.1463  0.7879  2.6162
   29MOL0     H 3778   8.200   4.743   6.762  2.9021  0.3169  0.8237
   29MOL0     H 3779   8.306   4.797   7.054  1.3554  1.2247  0.3202
   29MOL0     H 3780   8.307   4.908   6.922  0.0919 -0.1758 -0.6766
   29MOL0     H 3781   8.485   4.828   6.693  2.4296  2.6355  0.6163
   29MOL0     H 3782   8.683   4.704   6.592 -1.5298  0.4447  0.0761
   29MOL0     H 3783   8.754   4.563   6.671 -1.0820 -1.5173 -2.1750
   29MOL0     H 3784   8.922   4.723   6.649 -0.2242  0.3040 -1.0866
   29MOL0     H 3785   8.883   4.733   6.820 -2.4405 -2.8468  0.3726
   29MOL0     H 3786   8.796   4.940   6.606 -0.2026  3.3776  0.2913
   29MOL0     H 3787   8.743   4.934   6.772  1.5400  1.7663  0.1421
   29MOL0     H 3788   8.969   4.969   6.853 -1.4375  0.5396  0.9057
   29MOL0     H 3789   8.916   5.101   6.747 -1.6163  0.6795 -0.0773
   29MOL0     H 3790   9.299   4.935   6.555  0.3159  1.1827 -0.7386
   29MOL0     H 3791   9.499   4.997   6.619 -2.0337 -1.8458 -1.3350
   29MOL0     H 3792   9.672   4.973   7.072  0.6515 -1.2064 -0.2034
   29MOL0     H 3793   9.860   4.952   7.206  0.6969  1.6156  1.0515
   29MOL0     H 3794  10.056   5.345   7.373  1.6896  0.5428  1.1700
   29MOL0     H 3795  10.111   5.210   7.464 -0.4589 -2.6956 -2.7786
   29MOL0     H 3796   9.811   5.316   7.488 -0.1778 -1.6946 -0.4622
   29MOL0     H 3797   9.933   5.366   7.597  2.2635  0.2748 -0.7182
   29MOL0     H 3798   9.969   5.099   7.652 -0.5177 -2.1725 -0.1564
   29MOL0     H 3799   9.833   5.078   7.542 -1.8241  0.4125  0.3956
   29MOL0     H 3800   9.814   5.247   7.794  2.5498 -3.2375  1.4332
   29MOL0     H 3801   9.675   5.188   7.709 -0.9848 -0.8358  1.6020
   29MOL0     H 3802   9.876   5.021   7.867  0.5544 -0.0935 -1.4564
   29MOL0     H 3803   9.772   4.950   7.750 -0.4278 -0.8321  0.7235
   29MOL0     H 3804   9.564   5.040   7.880  0.8069  2.0260  1.2895
   29MOL0     H 3805   9.673   5.101   7.991 -0.3402 -0.5691  0.7063
   29MOL0     H 3806   9.763   4.867   8.009  0.1379 -0.6931 -0.7704
   29MOL0     H 3807   9.603   4.899   8.080  1.7302 -0.2762  0.8975
   29MOL0     H 3808   9.646   4.773   7.802  2.0498 -3.1518  0.8860
   29MOL0     H 3809   9.498   4.820   7.903  1.5785  4.9346  1.9166
   29MOL0     H 3810   9.887   5.385   7.213 -0.8940 -0.7095 -2.1550
   29MOL0     H 3811   9.682   5.396   7.074 -1.8729  0.4016  1.4209
   29MOL0     H 3812   9.324   5.228   6.954  2.6729  0.4497 -0.4058
   29MOL0     H 3813   9.096   5.143   6.870 -0.9827  0.1281 -1.3629
   29MOL0     H 3814   7.754   4.555   7.741 -2.0317 -3.8489  3.4362
   29MOL0     H 3815   7.817   4.472   7.960  0.3482  1.0680  1.0393
   29MOL0     H 3816   8.043   4.315   8.287 -0.0154  0.6498 -0.2152
   29MOL0     H 3817   8.121   4.258   8.516  2.0148 -0.6161  0.9885
   29MOL0     H 3818   8.304   4.208   8.759 -2.2746 -0.8825 -4.0788
   29MOL0     H 3819   8.148   4.264   8.720 -0.5004 -0.4972 -1.0278
   29MOL0     H 3820   8.330   4.433   8.901  0.2426  0.2445 -0.6914
   29MOL0     H 3821   8.151   4.455   8.868  0.4184  0.3354  0.1647
   29MOL0     H 3822   8.302   4.258   9.025 -0.4911 -1.7377 -0.6684
   29MOL0     H 3823   8.149   4.203   8.948 -1.0490  0.7285 -0.9077
   29MOL0     H 3824   8.177   4.441   9.133  1.4333  0.1327  0.8079
   29MOL0     H 3825   8.017   4.361   9.080  0.1161 -0.1586 -0.7862
   29MOL0     H 3826   8.191   4.122   9.396  1.2157 -0.2168  0.4837
   29MOL0     H 3827   8.400   4.586   8.506  0.8911 -0.5093 -1.5516
   29MOL0     H 3828   8.334   4.627   8.257  0.2344 -1.0936 -2.9572
   30MOL0     O 3829  11.138   5.929   5.754  0.2531 -0.1432  0.3982
   30MOL0     C 3830  11.226   6.003   5.713 -0.1727  0.5497 -0.4461
   30MOL0     O 3831  11.290   6.093   5.790  0.3950 -0.1463  0.2870
   30MOL0     C 3832  11.250   6.132   5.912 -0.1923  0.2180 -0.0251
   30MOL0     C 3833  11.125   6.110   5.968  0.1439 -0.8947 -0.3695
   30MOL0     C 3834  11.101   6.155   6.102 -0.3838  0.0441  0.1739
   30MOL0     C 3835  11.208   6.199   6.177  0.3924 -0.6195 -0.0767
   30MOL0     O 3836  11.169   6.218   6.301 -0.4889 -0.2170 -0.8138
   30MOL0     C 3837  11.273   6.256   6.391 -0.5568 -0.4707  0.1057
   30MOL0     C 3838  11.229   6.284   6.545  0.2867 -0.2228  0.4142
   30MOL0     C 3839  11.344   6.284   6.641 -1.0454 -1.3656 -0.6897
   30MOL0     C 3840  11.370   6.154   6.700 -0.4916  0.5292 -0.8511
   30MOL0     C 3841  11.524   6.152   6.744  0.6353  0.1095 -1.3265
   30MOL0     C 3842  11.528   6.229   6.876 -0.1125 -0.5816  0.4725
   30MOL0     C 3843  11.672   6.245   6.933  0.0304 -0.2251 -0.8451
   30MOL0     C 3844  11.658   6.284   7.081 -0.8130  0.1243 -0.3891
   30MOL0     N 3845  11.631   6.171   7.181  0.2323 -0.3363  0.6123
   30MOL0     C 3846  11.726   6.069   7.211  0.5627  0.4604 -0.2485
   30MOL0     C 3847  11.667   6.006   7.316  0.9881  0.0274  0.5020
   30MOL0     C 3848  11.732   5.907   7.405  0.5116  0.7421  0.8297
   30MOL0     C 3849  11.682   5.761   7.389  0.0685  0.2354  0.0414
   30MOL0     C 3850  11.779   5.658   7.451 -0.4121 -0.0846 -0.6152
   30MOL0     C 3851  11.744   5.642   7.595  0.1314  0.2108 -1.1636
   30MOL0     O 3852  11.830   5.534   7.630 -0.6695  0.1445 -0.4609
   30MOL0     C 3853  11.858   5.510   7.767 -0.7102  0.6162  0.0232
   30MOL0     C 3854  11.781   5.544   7.879 -0.5332  0.6413 -0.2814
   30MOL0     C 3855  11.818   5.507   8.008 -0.4682 -0.6864 -0.9258
   30MOL0     C 3856  11.940   5.457   8.030  0.1514  0.6445  0.1017
   30MOL0     C 3857  11.983   5.402   8.162 -0.4247 -0.7587 -0.3834
   30MOL0     O 3858  11.907   5.424   8.266  0.3447 -0.1788  0.5392
   30MOL0     C 3859  11.968   5.385   8.381  0.4415  1.5409 -0.3809
   30MOL0     C 3860  11.944   5.255   8.431 -1.0724  0.5016  0.2584
   30MOL0     C 3861  12.000   5.217   8.546  0.0871 -0.0902 -0.5520
   30MOL0     C 3862  12.077   5.307   8.625 -0.6188 -0.6421  0.0918
   30MOL0     O 3863  12.126   5.250   8.743 -0.5026 -1.0140  0.2055
   30MOL0     C 3864  12.124   5.333   8.863  0.4345 -0.1308  0.5087
   30MOL0     C 3865  11.982   5.359   8.909  0.3429 -0.0044  0.5743
   30MOL0     C 3866  11.895   5.245   8.978 -0.4763 -0.3229 -0.6276
   30MOL0     C 3867  11.840   5.142   8.887 -0.5051 -0.2427 -0.0932
   30MOL0     C 3868  11.723   5.066   8.949  0.2265  0.1189 -1.0352
   30MOL0     C 3869  11.679   4.945   8.864  0.4097 -0.1348 -0.1883
   30MOL0     C 3870  11.573   4.982   8.762  0.0646 -0.1558 -0.7200
   30MOL0     C 3871  11.552   4.875   8.655 -0.1247 -0.6817  0.2783
   30MOL0    Cl 3872  11.485   4.722   8.726 -0.0376 -0.0730 -0.4708
   30MOL0     C 3873  12.110   5.431   8.574 -0.1765 -0.0932  0.1338
   30MOL0     C 3874  12.056   5.469   8.450 -0.1094 -0.6271 -0.8586
   30MOL0     O 3875  12.087   5.333   8.161  0.1736 -0.8384 -0.3361
   30MOL0     C 3876  12.029   5.440   7.931 -0.4308 -0.4656  0.0591
   30MOL0     C 3877  11.988   5.454   7.794  0.1434  0.4328  0.0367
   30MOL0     N 3878  11.553   6.069   7.348  0.5383 -0.5347 -0.0949
   30MOL0     N 3879  11.531   6.172   7.274  0.7876  0.8266 -0.4514
   30MOL0     C 3880  11.330   6.230   6.118  0.5469 -1.1396  0.1880
   30MOL0     C 3881  11.353   6.196   5.985 -0.5821 -0.3990  0.3030
   30MOL0     C 3882  11.264   5.997   5.566  0.3379  0.0047 -0.8358
   30MOL0     C 3883  11.363   6.073   5.508 -0.7646  0.0770 -0.7777
   30MOL0     C 3884  11.390   6.075   5.368 -0.4270 -0.0356 -0.4713
   30MOL0     C 3885  11.308   5.995   5.280 -0.4064 -0.4585  0.2941
   30MOL0     O 3886  11.334   5.991   5.149 -0.0511  0.1045  0.8487
   30MOL0     C 3887  11.388   6.114   5.087 -0.2250  0.9849  0.5805
   30MOL0     C 3888  11.382   6.092   4.937 -0.0499 -0.0198  0.2282
   30MOL0     C 3889  11.452   5.965   4.876 -0.3502 -0.4625 -0.2324
   30MOL0     C 3890  11.384   5.918   4.751 -1.1136  0.5297 -0.0763
   30MOL0     C 3891  11.390   6.013   4.639 -0.4272  0.2117 -0.5415
   30MOL0     C 3892  11.393   6.089   4.540  0.1371  0.4972 -0.0105
   30MOL0     C 3893  11.214   5.923   5.338  0.2728  0.0788  0.6124
   30MOL0     C 3894  11.184   5.924   5.474 -1.1394 -0.0814  0.3183
   30MOL0     H 3895  11.035   6.065   5.930 -0.1762  0.1266 -0.8401
   30MOL0     H 3896  11.006   6.130   6.151 -1.7727  0.2851 -2.2588
   30MOL0     H 3897  11.332   6.342   6.357 -0.4298 -0.1744  1.0374
   30MOL0     H 3898  11.338   6.168   6.400 -1.6725 -1.4597 -1.1313
   30MOL0     H 3899  11.163   6.201   6.571 -0.0445  0.9825  4.1350
   30MOL0     H 3900  11.165   6.372   6.556 -2.6338 -1.9833 -1.1326
   30MOL0     H 3901  11.323   6.345   6.729 -0.3613  1.4567 -2.3419
   30MOL0     H 3902  11.426   6.329   6.584 -2.6103  2.6472 -0.1136
   30MOL0     H 3903  11.311   6.135   6.790  1.0807 -0.7353 -0.0377
   30MOL0     H 3904  11.344   6.073   6.631 -0.6271  0.2347 -0.4560
   30MOL0     H 3905  11.583   6.194   6.662  0.0742 -0.9403 -2.2929
   30MOL0     H 3906  11.558   6.049   6.759  1.2173 -0.0929 -3.6299
   30MOL0     H 3907  11.456   6.179   6.942 -2.4093 -1.1167 -2.2136
   30MOL0     H 3908  11.494   6.333   6.874 -0.6642 -0.5612  4.1539
   30MOL0     H 3909  11.729   6.155   6.907  0.2391 -0.1108 -0.7846
   30MOL0     H 3910  11.726   6.326   6.884 -0.4531 -0.2770 -1.4783
   30MOL0     H 3911  11.570   6.348   7.092 -0.9397 -0.0061 -0.6284
   30MOL0     H 3912  11.750   6.324   7.123 -0.7640 -0.1381 -0.2468
   30MOL0     H 3913  11.826   6.072   7.168  0.5019 -0.2112 -0.4609
   30MOL0     H 3914  11.701   5.930   7.507  3.1529 -1.7422  2.3239
   30MOL0     H 3915  11.839   5.926   7.394  0.0664  2.3732 -1.4749
   30MOL0     H 3916  11.684   5.740   7.282 -4.7209 -1.0017 -0.0051
   30MOL0     H 3917  11.580   5.744   7.423 -0.3317  0.7034 -0.8779
   30MOL0     H 3918  11.772   5.569   7.387 -1.0290  1.1373 -2.3376
   30MOL0     H 3919  11.880   5.697   7.446 -1.3336  2.8288  1.2100
   30MOL0     H 3920  11.641   5.608   7.613  0.5451 -0.8091 -0.6268
   30MOL0     H 3921  11.770   5.728   7.657 -4.3310  1.1650 -0.2370
   30MOL0     H 3922  11.678   5.574   7.863  0.2828  2.0989 -3.7785
   30MOL0     H 3923  11.739   5.512   8.082 -1.6199  1.9597 -2.1728
   30MOL0     H 3924  11.901   5.177   8.369  2.2860 -2.2405  1.0876
   30MOL0     H 3925  12.006   5.113   8.576 -1.5260  0.5660  2.4175
   30MOL0     H 3926  12.180   5.423   8.838 -2.2201  1.5820  0.3088
   30MOL0     H 3927  12.175   5.291   8.951  0.4492  2.5219  1.8672
   30MOL0     H 3928  11.930   5.407   8.826  3.5704  2.0735 -0.4248
   30MOL0     H 3929  11.990   5.433   8.989 -0.2748 -1.4386  2.0161
   30MOL0     H 3930  11.831   5.294   9.053  1.4253  2.0000 -0.3728
   30MOL0     H 3931  11.960   5.180   9.037 -0.6496 -0.5510 -0.6863
   30MOL0     H 3932  11.808   5.196   8.798  3.1464  3.2524  0.3927
   30MOL0     H 3933  11.923   5.074   8.865  0.4914  1.9072 -3.9193
   30MOL0     H 3934  11.634   5.125   8.971  0.8458  2.1972 -3.5984
   30MOL0     H 3935  11.764   5.029   9.043  0.3442  0.0369 -1.1182
   30MOL0     H 3936  11.644   4.868   8.934  1.1868  1.3677  1.9888
   30MOL0     H 3937  11.760   4.897   8.809 -1.6394 -0.6628 -2.9378
   30MOL0     H 3938  11.484   4.989   8.825  0.6943  1.5662  0.0543
   30MOL0     H 3939  11.599   5.079   8.719  1.8538  0.3461  1.2470
   30MOL0     H 3940  11.649   4.851   8.610  1.3012  3.5744  0.7169
   30MOL0     H 3941  11.487   4.918   8.578  2.3442 -1.3976 -2.3649
   30MOL0     H 3942  12.178   5.498   8.626 -0.8767  1.2681 -0.6399
   30MOL0     H 3943  12.070   5.572   8.416 -0.8773 -0.2770 -0.1638
   30MOL0     H 3944  12.124   5.392   7.955 -0.1247  0.1489  0.1155
   30MOL0     H 3945  12.061   5.417   7.723  0.6698 -0.1385  0.8657
   30MOL0     H 3946  11.417   6.273   6.167 -1.2412  2.1628  0.6715
   30MOL0     H 3947  11.444   6.217   5.931 -1.3816  0.2855 -0.8320
   30MOL0     H 3948  11.428   6.128   5.576 -1.3417  1.0070 -0.9594
   30MOL0     H 3949  11.472   6.130   5.323  0.6064 -1.7423 -0.7742
   30MOL0     H 3950  11.493   6.121   5.117 -0.0024  0.3125 -0.0198
   30MOL0     H 3951  11.346   6.213   5.108  0.7650  1.8088 -1.1253
   30MOL0     H 3952  11.276   6.070   4.917 -0.7855  1.2968  2.2700
   30MOL0     H 3953  11.406   6.183   4.881  1.4172 -0.7731 -0.3993
   30MOL0     H 3954  11.444   5.882   4.946  1.1346  0.8448  1.5920
   30MOL0     H 3955  11.557   5.985   4.856  0.2324 -1.5861  1.4973
   30MOL0     H 3956  11.438   5.827   4.723 -0.6126  0.6974  0.3118
   30MOL0     H 3957  11.280   5.890   4.769 -0.9220 -1.6751 -2.0037
   30MOL0     H 3958  11.394   6.141   4.446 -2.1182 -1.1634 -1.0762
   30MOL0     H 3959  11.148   5.876   5.266  0.1574  1.6401 -0.3679
   30MOL0     H 3960  11.101   5.870   5.518 -3.2741  1.7220 -1.2588
   31MOL0     O 3961   2.470   6.244   5.596  0.0400 -0.1492 -0.0511
   31MOL0     C 3962   2.409   6.276   5.492  0.0474  0.2075  0.2664
   31MOL0     O 3963   2.286   6.234   5.441 -0.3566  0.4325 -0.0703
   31MOL0     C 3964   2.210   6.141   5.504  0.2888 -0.6386  0.4093
   31MOL0     C 3965   2.077   6.168   5.529 -0.2429 -0.0632  0.5013
   31MOL0     C 3966   1.993   6.069   5.581  0.6671  0.2318 -0.3713
   31MOL0     C 3967   2.049   5.938   5.600  0.0248  0.3435 -0.9339
   31MOL0     O 3968   1.970   5.835   5.646  0.1376 -0.4157 -0.2565
   31MOL0     C 3969   1.839   5.827   5.596  0.0563 -0.1914  0.6704
   31MOL0     C 3970   1.769   5.706   5.643 -0.3442  0.2088  0.4018
   31MOL0     C 3971   1.650   5.680   5.551 -1.3604  0.1773  0.7113
   31MOL0     C 3972   1.606   5.543   5.580 -0.3379 -0.3289 -0.4742
   31MOL0     C 3973   1.479   5.520   5.511  0.1277 -0.7546 -0.4872
   31MOL0     C 3974   1.486   5.497   5.362  0.0268  0.7087  0.4988
   31MOL0     C 3975   1.352   5.444   5.313 -0.2115  0.4881 -0.2025
   31MOL0     C 3976   1.249   5.542   5.316  0.5208 -0.4182 -0.1732
   31MOL0     N 3977   1.144   5.502   5.225  0.0242  0.5429 -0.0026
   31MOL0     C 3978   1.146   5.539   5.088 -0.4236  0.9360  0.0699
   31MOL0     C 3979   1.036   5.476   5.036 -0.2645  0.1564 -0.5040
   31MOL0     C 3980   0.988   5.499   4.890  0.7123 -0.4202 -0.5561
   31MOL0     C 3981   1.106   5.521   4.796 -0.3057  0.1162 -0.0845
   31MOL0     C 3982   1.059   5.481   4.657  0.4391 -0.4356 -0.1618
   31MOL0     C 3983   1.139   5.558   4.548  0.0091 -0.2093  0.7107
   31MOL0     O 3984   1.168   5.691   4.588 -0.1075  0.6889 -0.7010
   31MOL0     C 3985   1.302   5.743   4.588 -0.3061 -0.1593  1.0429
   31MOL0     C 3986   1.323   5.857   4.519 -0.1422 -0.1644 -0.1652
   31MOL0     C 3987   1.455   5.911   4.521 -0.1650  0.0541 -0.1041
   31MOL0     C 3988   1.558   5.860   4.598  0.3066 -0.5209 -0.5288
   31MOL0     C 3989   1.684   5.935   4.609 -0.6048  1.1805  1.5809
   31MOL0     O 3990   1.691   6.048   4.534 -0.2265 -0.1426 -0.1929
   31MOL0     C 3991   1.807   6.117   4.531  1.1059 -0.9897  0.6729
   31MOL0     C 3992   1.882   6.141   4.648  0.2370 -0.2884  0.1011
   31MOL0     C 3993   1.993   6.218   4.636 -0.0389  0.1170 -0.0565
   31MOL0     C 3994   2.027   6.287   4.517  0.6631  0.0772  0.3058
   31MOL0     O 3995   2.122   6.384   4.527 -0.2793 -0.1371  0.2658
   31MOL0     C 3996   2.195   6.411   4.403 -0.3272  0.3658 -0.1760
   31MOL0     C 3997   2.303   6.510   4.454 -0.2825 -0.7927 -0.2656
   31MOL0     C 3998   2.385   6.559   4.330  0.2560 -0.4982  0.7199
   31MOL0     C 3999   2.473   6.678   4.368  0.2288  1.2284 -0.1591
   31MOL0     C 4000   2.541   6.748   4.251 -0.5752 -1.1340 -0.3192
   31MOL0     C 4001   2.607   6.876   4.302  0.8907  0.3901  0.2917
   31MOL0     C 4002   2.688   6.950   4.192  0.0824  0.0339  0.0339
   31MOL0     C 4003   2.807   6.868   4.145  0.6729  0.2890  0.4263
   31MOL0    Cl 4004   2.776   6.768   4.006  0.1065  0.2283  0.3974
   31MOL0     C 4005   1.953   6.258   4.400  0.1398  0.4014  1.1595
   31MOL0     C 4006   1.846   6.167   4.407 -0.3865 -0.0856  0.2203
   31MOL0     O 4007   1.777   5.884   4.673 -0.1594  0.2085 -0.3796
   31MOL0     C 4008   1.530   5.745   4.675  0.0648 -0.1051  0.2656
   31MOL0     C 4009   1.407   5.686   4.663 -0.1946 -0.6736 -0.4613
   31MOL0     N 4010   0.966   5.420   5.141 -0.9645  0.7050 -0.7714
   31MOL0     N 4011   1.036   5.427   5.253  1.2509  0.6132 -1.3445
   31MOL0     C 4012   2.186   5.919   5.596  0.8454  0.1043  0.0845
   31MOL0     C 4013   2.267   6.021   5.546 -0.7693  0.5101  0.3750
   31MOL0     C 4014   2.487   6.354   5.388 -0.0092 -0.2043  0.7407
   31MOL0     C 4015   2.613   6.392   5.416 -0.5478 -0.5263 -0.1219
   31MOL0     C 4016   2.672   6.489   5.336 -0.1679  0.2842  0.3840
   31MOL0     C 4017   2.605   6.556   5.228  0.3885  0.2981  0.0451
   31MOL0     O 4018   2.663   6.663   5.159  0.7178  0.0004  0.4112
   31MOL0     C 4019   2.759   6.738   5.223  0.0788  0.5414  0.7170
   31MOL0     C 4020   2.785   6.853   5.121  0.5534 -0.0542 -0.2472
   31MOL0     C 4021   2.881   6.800   5.009 -0.2432 -0.1717  0.1624
   31MOL0     C 4022   2.945   6.912   4.938 -0.7571  0.1097  1.0012
   31MOL0     C 4023   3.044   6.870   4.839  0.4651  0.6376 -0.7783
   31MOL0     C 4024   3.126   6.846   4.752 -0.0450  0.6790  0.6588
   31MOL0     C 4025   2.472   6.512   5.202 -0.1471  0.9513  0.4784
   31MOL0     C 4026   2.417   6.411   5.280  0.0168  1.3545 -0.4126
   31MOL0     H 4027   2.038   6.268   5.515 -0.5150 -0.0150  1.5558
   31MOL0     H 4028   1.889   6.084   5.609  1.3614 -0.4210  3.0198
   31MOL0     H 4029   1.855   5.828   5.487  0.5867  3.9351  0.6392
   31MOL0     H 4030   1.786   5.920   5.617 -0.4559 -0.3573  0.1514
   31MOL0     H 4031   1.737   5.706   5.748  0.3316 -1.4586  0.6283
   31MOL0     H 4032   1.843   5.626   5.632 -2.9263 -1.9403 -3.6852
   31MOL0     H 4033   1.687   5.693   5.449  2.2051  0.2279  1.8516
   31MOL0     H 4034   1.572   5.753   5.575  0.5543  2.4800  0.4308
   31MOL0     H 4035   1.685   5.475   5.548  2.1580  2.3012 -0.2960
   31MOL0     H 4036   1.586   5.530   5.687  0.6223  0.4514 -0.1885
   31MOL0     H 4037   1.412   5.604   5.532  0.9978 -0.3245  0.6702
   31MOL0     H 4038   1.452   5.425   5.556  3.7150 -3.0462 -2.6580
   31MOL0     H 4039   1.561   5.420   5.338  0.7954  1.4043  0.6221
   31MOL0     H 4040   1.525   5.585   5.310  1.3755 -0.7808 -1.1484
   31MOL0     H 4041   1.358   5.413   5.208 -2.7491 -2.3630  0.3217
   31MOL0     H 4042   1.311   5.359   5.370  0.5392  1.9373  2.7004
   31MOL0     H 4043   1.298   5.631   5.276  2.2053  0.3055  3.1716
   31MOL0     H 4044   1.204   5.552   5.415  1.9883 -1.4079  0.6376
   31MOL0     H 4045   1.218   5.607   5.044 -0.4302  0.7425 -0.2419
   31MOL0     H 4046   0.919   5.584   4.881  2.8240  1.1985 -2.6925
   31MOL0     H 4047   0.935   5.407   4.864 -2.3075  1.5986 -2.2189
   31MOL0     H 4048   1.195   5.460   4.817  0.6702  0.7304 -2.1751
   31MOL0     H 4049   1.127   5.628   4.796  0.6545 -0.0576  0.1300
   31MOL0     H 4050   1.067   5.374   4.632 -2.3361 -0.4847 -1.1561
   31MOL0     H 4051   0.951   5.495   4.652  0.4349 -0.5082 -0.2818
   31MOL0     H 4052   1.081   5.576   4.457  1.9539  0.1231 -0.5208
   31MOL0     H 4053   1.234   5.512   4.519  0.8286  2.6210 -1.5970
   31MOL0     H 4054   1.245   5.897   4.456 -0.5798 -0.0250  0.4526
   31MOL0     H 4055   1.472   5.993   4.452  0.9993 -1.0058 -1.1284
   31MOL0     H 4056   1.858   6.096   4.744  1.2269 -2.7353 -0.7354
   31MOL0     H 4057   2.050   6.245   4.724 -2.0126  1.9886  0.7324
   31MOL0     H 4058   2.131   6.471   4.338  2.2197  0.3503 -2.8927
   31MOL0     H 4059   2.244   6.326   4.355  0.6380  1.4005 -1.0865
   31MOL0     H 4060   2.366   6.460   4.528 -4.2277  0.1533  4.2916
   31MOL0     H 4061   2.261   6.599   4.503 -2.3928 -0.8027 -1.9101
   31MOL0     H 4062   2.315   6.592   4.253  1.5365  0.3014 -0.1582
   31MOL0     H 4063   2.446   6.482   4.281  0.0340 -0.4166  0.3072
   31MOL0     H 4064   2.411   6.749   4.422  0.8442  1.8265 -0.2337
   31MOL0     H 4065   2.542   6.631   4.438 -2.3714 -3.5177 -0.3511
   31MOL0     H 4066   2.471   6.780   4.173  0.4175 -1.0781 -1.2059
   31MOL0     H 4067   2.616   6.687   4.200 -0.3197  1.2531 -3.0315
   31MOL0     H 4068   2.684   6.870   4.380  0.1148  2.4621  1.3020
   31MOL0     H 4069   2.527   6.942   4.338  2.3931  2.1810  0.5452
   31MOL0     H 4070   2.620   6.989   4.115 -0.6124  3.5706  2.2059
   31MOL0     H 4071   2.733   7.041   4.234 -1.0852  1.0072 -0.7636
   31MOL0     H 4072   2.840   6.797   4.222  1.6614 -0.8467 -0.9815
   31MOL0     H 4073   2.898   6.922   4.117  0.4563  0.6591  0.4436
   31MOL0     H 4074   1.982   6.293   4.301 -1.4384  2.0778  1.2388
   31MOL0     H 4075   1.788   6.136   4.320 -0.5498  0.4392  0.1366
   31MOL0     H 4076   1.610   5.705   4.736  1.8575 -0.4628 -2.1533
   31MOL0     H 4077   1.396   5.594   4.719  1.5115 -0.3747  0.4652
   31MOL0     H 4078   2.217   5.817   5.617 -1.1837 -0.5403  0.1543
   31MOL0     H 4079   2.374   6.008   5.533 -0.9151  1.6628 -3.2436
   31MOL0     H 4080   2.671   6.349   5.497 -0.9532 -4.5334 -1.7221
   31MOL0     H 4081   2.773   6.519   5.363  0.3505  1.0236 -2.1087
   31MOL0     H 4082   2.851   6.681   5.241 -0.7654 -1.9581 -2.0469
   31MOL0     H 4083   2.731   6.784   5.318 -1.0457 -0.4909  0.9116
   31MOL0     H 4084   2.689   6.873   5.073  0.5513  1.4294  0.3201
   31MOL0     H 4085   2.800   6.948   5.172  0.3919  0.1524 -0.5855
   31MOL0     H 4086   2.815   6.741   4.945  0.3364  0.7993 -1.4118
   31MOL0     H 4087   2.958   6.737   5.054 -0.5838 -2.0520 -1.7312
   31MOL0     H 4088   2.877   6.986   4.897  0.1175 -0.4626 -1.7042
   31MOL0     H 4089   2.984   6.976   5.018 -4.3930 -2.0640  4.8900
   31MOL0     H 4090   3.201   6.826   4.678 -1.4687 -1.5542 -0.3239
   31MOL0     H 4091   2.418   6.560   5.121  2.7859  2.5376 -0.6804
   31MOL0     H 4092   2.313   6.383   5.270 -0.3706  1.5903  2.2852
   32MOL0     O 4093   0.488   5.996  10.398 -0.0554  0.1485 -0.9210
   32MOL0     C 4094   0.573   5.937  10.328 -0.3823 -0.6274 -0.0545
   32MOL0     O 4095   0.553   5.820  10.261 -0.4347  0.4126 -0.4839
   32MOL0     C 4096   0.438   5.747  10.271 -0.1395 -0.2513 -0.2346
   32MOL0     C 4097   0.460   5.613  10.287 -0.7566 -0.6257  1.0965
   32MOL0     C 4098   0.361   5.523  10.334 -0.6059  0.8814  0.1130
   32MOL0     C 4099   0.232   5.572  10.367 -1.0336 -0.1886  0.0379
   32MOL0     O 4100   0.142   5.492  10.419  0.5871 -0.2885  0.1909
   32MOL0     C 4101   0.173   5.352  10.448 -0.2529 -0.1536 -0.4847
   32MOL0     C 4102   0.060   5.286  10.526 -0.1825 -0.1758  0.1167
   32MOL0     C 4103   0.051   5.365  10.663  0.7105 -0.1103 -0.3647
   32MOL0     C 4104  -0.050   5.313  10.760 -0.5715  0.6085 -0.3836
   32MOL0     C 4105  -0.024   5.376  10.892 -0.5439  0.3276 -1.0475
   32MOL0     C 4106  -0.146   5.371  10.994 -0.2370  0.6427  0.3280
   32MOL0     C 4107  -0.215   5.229  11.001  0.2651 -0.0891  0.5509
   32MOL0     C 4108  -0.126   5.114  11.045  0.0539 -0.0303 -0.3776
   32MOL0     N 4109  -0.211   5.011  11.095  0.5931 -0.7476 -0.7235
   32MOL0     C 4110  -0.259   5.009  11.224 -0.7291 -0.1048  0.1572
   32MOL0     C 4111  -0.352   4.904  11.222  0.4889  0.2258 -0.3264
   32MOL0     C 4112  -0.416   4.853  11.345  0.1128 -0.0396 -0.9523
   32MOL0     C 4113  -0.312   4.787  11.442 -0.3853 -1.1206  1.0934
   32MOL0     C 4114  -0.212   4.686  11.383 -0.0410 -0.5351  1.1121
   32MOL0     C 4115  -0.102   4.648  11.485 -0.4968  0.1459  0.2682
   32MOL0     O 4116  -0.071   4.506  11.460  0.1895 -0.4896  0.6060
   32MOL0     C 4117   0.018   4.449  11.552 -1.0950 -0.1317  0.2350
   32MOL0     C 4118   0.138   4.401  11.518 -0.1720 -1.0479  0.9774
   32MOL0     C 4119   0.208   4.328  11.607  0.4081  0.0618 -0.1573
   32MOL0     C 4120   0.162   4.318  11.745 -0.3056 -0.0298  1.0342
   32MOL0     C 4121   0.248   4.241  11.835  0.2707 -0.4393 -0.0391
   32MOL0     O 4122   0.200   4.215  11.956  0.6878 -0.3392 -0.4235
   32MOL0     C 4123   0.245   4.106  12.032  0.9236  0.2782  1.5138
   32MOL0     C 4124   0.153   4.055  12.125  0.7336  0.0434 -0.2728
   32MOL0     C 4125   0.191   3.960  12.216  0.4364  0.5605 -0.4646
   32MOL0     C 4126   0.316   3.898  12.218  0.3108 -0.3845 -0.2722
   32MOL0     O 4127   0.345   3.795  12.314 -0.0693  0.2433  0.3987
   32MOL0     C 4128   0.474   3.734  12.311 -0.1395  0.4844  0.3267
   32MOL0     C 4129   0.586   3.820  12.376  0.1474 -0.7072 -0.1651
   32MOL0     C 4130   0.582   3.833  12.530 -0.5783 -0.3392 -0.1104
   32MOL0     C 4131   0.716   3.901  12.589  0.3206  1.3403  0.0849
   32MOL0     C 4132   0.717   3.913  12.740  0.4257  0.8872  1.0198
   32MOL0     C 4133   0.622   4.025  12.793 -0.6270  0.4346 -0.1378
   32MOL0     C 4134   0.604   4.006  12.937 -0.4937  0.5287 -0.0059
   32MOL0     C 4135   0.522   4.109  13.006  0.4860  0.0664 -0.9202
   32MOL0    Cl 4136   0.579   4.275  12.970  0.2279  0.3687  0.1286
   32MOL0     C 4137   0.406   3.954  12.123  0.2219 -0.3101  0.2323
   32MOL0     C 4138   0.371   4.051  12.026  0.4070 -0.1518  0.9295
   32MOL0     O 4139   0.356   4.198  11.791  0.1092 -0.1504  0.1411
   32MOL0     C 4140   0.043   4.371  11.780  0.4072  0.2726 -0.1733
   32MOL0     C 4141  -0.028   4.432  11.684  0.2601  1.0728 -0.2275
   32MOL0     N 4142  -0.379   4.860  11.091 -0.2390 -0.2273  0.3350
   32MOL0     N 4143  -0.291   4.924  11.025 -0.5086  0.3428  0.3320
   32MOL0     C 4144   0.217   5.709  10.364 -0.4214 -0.2255 -0.6416
   32MOL0     C 4145   0.315   5.791  10.307  1.3001 -1.4594 -0.0450
   32MOL0     C 4146   0.681   6.019  10.282 -0.1075 -1.0225  0.6506
   32MOL0     C 4147   0.712   6.148  10.346 -0.8133  0.8497  0.3497
   32MOL0     C 4148   0.821   6.227  10.302 -0.2759  0.8944 -0.7813
   32MOL0     C 4149   0.899   6.195  10.189 -0.7570 -0.3803 -0.8966
   32MOL0     O 4150   1.003   6.291  10.159  0.1305 -0.0363  1.0898
   32MOL0     C 4151   1.053   6.312  10.023  0.6322 -0.0260  0.7926
   32MOL0     C 4152   0.997   6.440   9.966 -0.4987 -0.5417  0.1471
   32MOL0     C 4153   1.016   6.446   9.807 -0.5431 -0.5124  0.2473
   32MOL0     C 4154   0.904   6.362   9.730 -1.1977  1.0923  0.5053
   32MOL0     C 4155   0.923   6.393   9.592 -0.0437  0.0879 -0.9001
   32MOL0     C 4156   0.950   6.415   9.479 -0.1783  0.1660  0.4444
   32MOL0     C 4157   0.864   6.075  10.116 -0.1059 -0.3488 -0.3284
   32MOL0     C 4158   0.761   5.992  10.164 -0.6144  0.2173  0.1071
   32MOL0     H 4159   0.556   5.563  10.275 -0.5444 -1.0128  3.7014
   32MOL0     H 4160   0.405   5.425  10.347 -2.0080 -0.1309 -2.1209
   32MOL0     H 4161   0.270   5.349  10.499 -1.0192 -1.6048  0.9850
   32MOL0     H 4162   0.183   5.303  10.350 -1.4318 -0.2819 -0.5584
   32MOL0     H 4163   0.085   5.182  10.547  3.7553  0.3925 -0.9225
   32MOL0     H 4164  -0.037   5.283  10.475 -0.0759 -0.6513 -0.0593
   32MOL0     H 4165  -0.000   5.461  10.652  0.8881 -0.0761 -0.9517
   32MOL0     H 4166   0.152   5.387  10.700 -0.3774  3.2260  0.9312
   32MOL0     H 4167  -0.144   5.352  10.719 -1.1450  0.5799  0.8728
   32MOL0     H 4168  -0.051   5.204  10.767 -0.7954  0.5842 -0.7822
   32MOL0     H 4169  -0.001   5.483  10.884 -3.3487  1.1211  0.3613
   32MOL0     H 4170   0.070   5.339  10.934 -0.8149  0.7787 -0.0108
   32MOL0     H 4171  -0.228   5.436  10.961  2.4316  3.6270 -1.0187
   32MOL0     H 4172  -0.108   5.390  11.095  2.8292 -1.2329 -0.3364
   32MOL0     H 4173  -0.296   5.241  11.073  1.5367  0.3060  1.9681
   32MOL0     H 4174  -0.252   5.190  10.906 -0.7553 -3.0444  2.0549
   32MOL0     H 4175  -0.066   5.156  11.126 -2.5424  2.0974  0.5924
   32MOL0     H 4176  -0.064   5.090  10.959 -0.9676  1.1392 -1.4733
   32MOL0     H 4177  -0.240   5.076  11.307 -0.3691  0.6372 -0.5064
   32MOL0     H 4178  -0.501   4.788  11.320 -0.3053 -0.3101  0.9882
   32MOL0     H 4179  -0.458   4.932  11.407  4.8176  1.5369  0.6969
   32MOL0     H 4180  -0.379   4.744  11.517 -0.9114 -1.7602  0.2818
   32MOL0     H 4181  -0.258   4.872  11.485 -1.1696 -0.0489  0.0532
   32MOL0     H 4182  -0.275   4.605  11.345  0.5254  0.1050 -1.3951
   32MOL0     H 4183  -0.162   4.734  11.298  1.1978 -1.0185  1.5323
   32MOL0     H 4184  -0.135   4.645  11.589  0.1122  0.5223  0.4781
   32MOL0     H 4185  -0.012   4.710  11.479  0.0667 -0.7634 -2.7315
   32MOL0     H 4186   0.169   4.423  11.416 -5.4798 -1.3901 -1.0101
   32MOL0     H 4187   0.293   4.272  11.569 -0.0899 -0.0428 -1.1338
   32MOL0     H 4188   0.060   4.109  12.116  1.8914  2.2228  0.0507
   32MOL0     H 4189   0.119   3.920  12.287 -0.3033 -0.6858 -1.8475
   32MOL0     H 4190   0.492   3.705  12.207  1.0555  1.1951  0.3200
   32MOL0     H 4191   0.474   3.643  12.372  0.0210  0.3199  0.0818
   32MOL0     H 4192   0.581   3.921  12.336  1.6138  0.3634  2.1221
   32MOL0     H 4193   0.679   3.772  12.342 -0.8983 -1.1825 -2.5328
   32MOL0     H 4194   0.581   3.729  12.563  0.1869 -0.3042  0.0410
   32MOL0     H 4195   0.490   3.880  12.564  0.4819  0.8560  1.2025
   32MOL0     H 4196   0.799   3.835  12.562 -1.0987 -0.3449 -0.4008
   32MOL0     H 4197   0.740   3.998  12.544 -0.9751  0.8922 -1.6884
   32MOL0     H 4198   0.817   3.923  12.785  2.4339 -0.1301 -2.7926
   32MOL0     H 4199   0.665   3.822  12.771 -0.4634  0.7438 -0.8150
   32MOL0     H 4200   0.522   4.019  12.748 -1.6288  0.4610  1.9640
   32MOL0     H 4201   0.667   4.123  12.774 -2.6935  1.7301  1.2048
   32MOL0     H 4202   0.551   3.910  12.941 -2.9386  1.8310  0.3733
   32MOL0     H 4203   0.692   3.987  12.999 -0.7800 -1.3829 -0.1254
   32MOL0     H 4204   0.536   4.108  13.114  1.9055  1.1846 -1.0652
   32MOL0     H 4205   0.420   4.080  12.980  0.9218 -5.5441  2.1747
   32MOL0     H 4206   0.505   3.911  12.112 -0.2250 -1.4587  0.5759
   32MOL0     H 4207   0.449   4.096  11.965 -0.3147 -0.4821 -0.2636
   32MOL0     H 4208  -0.002   4.362  11.879 -0.4453  0.5998 -0.5259
   32MOL0     H 4209  -0.125   4.453  11.729  0.3546 -1.6566  1.4617
   32MOL0     H 4210   0.129   5.741  10.419  1.1389  1.9282  0.7716
   32MOL0     H 4211   0.283   5.894  10.319  0.8686 -1.6762  0.7785
   32MOL0     H 4212   0.666   6.179  10.440  1.7531 -0.7086  2.2312
   32MOL0     H 4213   0.852   6.311  10.364 -2.0891  1.8442 -1.0823
   32MOL0     H 4214   1.034   6.230   9.954 -0.4918 -1.4458  2.6894
   32MOL0     H 4215   1.161   6.327  10.018  1.1966 -3.0273  1.9535
   32MOL0     H 4216   0.899   6.472  10.001 -1.0714  1.2318 -2.7633
   32MOL0     H 4217   1.059   6.512  10.021 -0.1130 -1.5239  1.0292
   32MOL0     H 4218   1.113   6.408   9.773 -0.8189  0.1568 -1.3807
   32MOL0     H 4219   1.021   6.549   9.772  2.2427 -0.8113 -0.4554
   32MOL0     H 4220   0.912   6.253   9.745  0.7604  0.5987 -3.0794
   32MOL0     H 4221   0.807   6.396   9.768 -2.6464 -1.6973 -0.3650
   32MOL0     H 4222   0.966   6.420   9.374 -3.0622  1.7869 -0.0266
   32MOL0     H 4223   0.903   6.053  10.017 -1.3314  0.0099 -0.9102
   32MOL0     H 4224   0.735   5.899  10.116  1.1770 -0.2929  0.0544
   33MOL0     O 4225   9.451   1.717   7.722  0.5512  0.1727 -0.0933
   33MOL0     C 4226   9.452   1.651   7.620 -0.5874  0.5922 -0.4795
   33MOL0     O 4227   9.377   1.668   7.516 -0.0785  0.5407 -0.0181
   33MOL0     C 4228   9.292   1.785   7.508 -0.5207 -0.2430 -0.3469
   33MOL0     C 4229   9.155   1.777   7.535 -0.5390  0.4133 -0.0445
   33MOL0     C 4230   9.077   1.891   7.511  0.1178  0.5840 -1.3808
   33MOL0     C 4231   9.132   2.009   7.477 -0.3996 -1.0321 -0.0557
   33MOL0     O 4232   9.064   2.120   7.478  0.7174 -0.1110 -0.2776
   33MOL0     C 4233   9.005   2.146   7.358 -0.1624 -0.5338  0.7644
   33MOL0     C 4234   8.951   2.288   7.352  0.1887  0.4904 -0.8054
   33MOL0     C 4235   8.901   2.325   7.208 -0.6089  0.9973  0.1899
   33MOL0     C 4236   8.879   2.474   7.209 -1.3194 -0.1482 -0.2784
   33MOL0     C 4237   8.780   2.496   7.089 -0.2766 -0.3130 -0.2862
   33MOL0     C 4238   8.805   2.633   7.014  0.2234  0.9033  0.2509
   33MOL0     C 4239   8.786   2.754   7.103  0.7859  0.4545  0.7345
   33MOL0     C 4240   8.748   2.883   7.028  1.1043 -0.7738 -0.6020
   33MOL0     N 4241   8.741   3.004   7.117  0.0708  0.3395 -0.5945
   33MOL0     C 4242   8.845   3.083   7.139  0.7084 -0.3127  0.0481
   33MOL0     C 4243   8.820   3.145   7.262  0.3180 -0.0352  0.1418
   33MOL0     C 4244   8.900   3.256   7.330 -0.6499 -0.0126  0.0078
   33MOL0     C 4245   8.913   3.246   7.484  0.2658  0.0392  0.3252
   33MOL0     C 4246   9.024   3.154   7.542  1.5596 -0.9217 -0.5136
   33MOL0     C 4247   9.049   3.029   7.454 -0.2691 -0.3017  0.0760
   33MOL0     O 4248   9.156   2.942   7.521  1.2605 -0.9940  0.8980
   33MOL0     C 4249   9.190   2.823   7.459  0.0570  0.4158 -0.9984
   33MOL0     C 4250   9.155   2.781   7.331  0.7447  0.3583 -0.1772
   33MOL0     C 4251   9.214   2.668   7.277  0.1836 -0.1652  0.3177
   33MOL0     C 4252   9.294   2.588   7.363  0.1311  0.1277 -1.1210
   33MOL0     C 4253   9.354   2.467   7.313 -0.1884 -0.2330 -0.2073
   33MOL0     O 4254   9.448   2.405   7.392 -0.0168  0.4977  0.4565
   33MOL0     C 4255   9.521   2.292   7.353  0.0882  0.2558 -0.1936
   33MOL0     C 4256   9.577   2.235   7.465 -0.2260  0.3917  0.6858
   33MOL0     C 4257   9.655   2.113   7.452  0.6411  0.1649 -0.3778
   33MOL0     C 4258   9.673   2.049   7.329 -0.9776 -0.5153 -0.2614
   33MOL0     O 4259   9.745   1.944   7.299 -0.0783 -0.3268 -0.2122
   33MOL0     C 4260   9.799   1.875   7.405  0.3181 -0.2729 -0.1579
   33MOL0     C 4261   9.890   1.771   7.332  0.2233 -0.9210 -0.5271
   33MOL0     C 4262   9.994   1.704   7.425  0.0509  0.3231 -1.5589
   33MOL0     C 4263  10.115   1.773   7.482  1.0662  0.7169  0.3119
   33MOL0     C 4264  10.139   1.702   7.617  0.6017  0.3300  0.5172
   33MOL0     C 4265  10.030   1.749   7.733 -0.1543  0.3637  1.0097
   33MOL0     C 4266  10.096   1.752   7.869  0.1629  0.7220 -0.0532
   33MOL0     C 4267  10.021   1.838   7.959  1.4044 -1.7178 -0.5728
   33MOL0    Cl 4268   9.833   1.802   7.939  0.0302  0.0238  0.1867
   33MOL0     C 4269   9.627   2.127   7.219 -0.8142  0.6986 -0.3211
   33MOL0     C 4270   9.552   2.240   7.229  0.2957 -0.4218 -0.2065
   33MOL0     O 4271   9.310   2.426   7.203 -0.0465  0.5620 -0.8357
   33MOL0     C 4272   9.312   2.617   7.503  0.3730 -0.0221  0.6662
   33MOL0     C 4273   9.280   2.748   7.541  0.3893 -0.8217  0.5339
   33MOL0     N 4274   8.694   3.101   7.305  0.3900 -0.2014 -0.4262
   33MOL0     N 4275   8.649   3.018   7.216  0.1660 -0.0336 -0.1631
   33MOL0     C 4276   9.268   2.017   7.451  0.6775  0.5799  0.6633
   33MOL0     C 4277   9.345   1.903   7.467 -1.4200 -0.2472  0.9102
   33MOL0     C 4278   9.538   1.536   7.598 -0.4779  0.3427 -0.6827
   33MOL0     C 4279   9.664   1.537   7.670  0.2640 -0.4757  0.0656
   33MOL0     C 4280   9.756   1.436   7.645  0.4775  0.6722  0.5206
   33MOL0     C 4281   9.724   1.329   7.551 -0.6222  0.5614 -0.3035
   33MOL0     O 4282   9.810   1.220   7.517 -0.2321 -0.5919 -0.5002
   33MOL0     C 4283   9.921   1.180   7.601 -0.2264  0.6697 -0.4559
   33MOL0     C 4284  10.009   1.062   7.537 -0.5224 -0.5589  0.0448
   33MOL0     C 4285  10.069   1.126   7.409 -1.1705  0.0705  0.1988
   33MOL0     C 4286  10.143   1.028   7.328  0.3181 -0.5196  0.6892
   33MOL0     C 4287  10.266   0.975   7.402 -0.9891 -0.6149  0.1808
   33MOL0     C 4288  10.349   0.919   7.470  0.1296  0.7758 -0.0212
   33MOL0     C 4289   9.605   1.337   7.471 -0.2250 -0.1552  0.2018
   33MOL0     C 4290   9.512   1.427   7.513  1.6806 -0.0720  0.5154
   33MOL0     H 4291   9.119   1.681   7.571  0.1835 -0.4145 -1.4371
   33MOL0     H 4292   8.972   1.893   7.537  0.9668 -1.1763  3.1565
   33MOL0     H 4293   8.921   2.080   7.336  0.2309 -0.5256 -0.9461
   33MOL0     H 4294   9.070   2.127   7.272  1.7415 -2.0024  2.4162
   33MOL0     H 4295   9.024   2.362   7.387 -3.1397  2.6735  2.2697
   33MOL0     H 4296   8.863   2.295   7.417 -0.8985 -2.6483 -1.7662
   33MOL0     H 4297   8.805   2.277   7.183 -1.5199  3.1598 -0.7655
   33MOL0     H 4298   8.975   2.289   7.136  2.6533  1.1290  3.2188
   33MOL0     H 4299   8.833   2.528   7.291 -0.0270  1.2365 -0.4156
   33MOL0     H 4300   8.980   2.516   7.201  0.0968 -2.9127  1.4633
   33MOL0     H 4301   8.676   2.497   7.122 -0.5808  1.1722 -1.1311
   33MOL0     H 4302   8.788   2.426   7.005 -0.5142  0.7284 -1.2090
   33MOL0     H 4303   8.736   2.650   6.931  0.1962  2.6222  0.5932
   33MOL0     H 4304   8.910   2.634   6.981 -0.5811 -3.7605 -3.5657
   33MOL0     H 4305   8.709   2.737   7.178 -2.3531  1.5430 -1.9753
   33MOL0     H 4306   8.881   2.775   7.154  0.2691  3.4168  0.7004
   33MOL0     H 4307   8.658   2.885   6.966 -0.0712  2.3278  1.0147
   33MOL0     H 4308   8.830   2.878   6.955 -1.4352 -1.3650 -3.6102
   33MOL0     H 4309   8.926   3.101   7.070  0.1660 -1.4487 -0.9146
   33MOL0     H 4310   8.840   3.347   7.318 -0.5548  0.4268  2.3564
   33MOL0     H 4311   8.996   3.259   7.277  1.2696 -1.6768  3.0921
   33MOL0     H 4312   8.817   3.206   7.517  0.1912  0.7148  0.9372
   33MOL0     H 4313   8.915   3.341   7.538 -3.4503  1.6970 -2.0211
   33MOL0     H 4314   9.108   3.220   7.564  0.4260 -0.0716  1.5912
   33MOL0     H 4315   8.990   3.115   7.639 -0.9095  1.2382 -0.3829
   33MOL0     H 4316   9.088   3.066   7.359  1.6407  1.0072  1.2931
   33MOL0     H 4317   8.962   2.962   7.450  0.8170 -1.7975  0.5418
   33MOL0     H 4318   9.101   2.840   7.258  3.7985  4.5335  0.5521
   33MOL0     H 4319   9.196   2.642   7.173  0.2851  0.8669  0.0304
   33MOL0     H 4320   9.574   2.284   7.562  1.0321  1.4888  0.1993
   33MOL0     H 4321   9.698   2.066   7.540 -1.2251 -0.9542 -0.0211
   33MOL0     H 4322   9.726   1.820   7.465 -1.0760 -1.6159 -2.8740
   33MOL0     H 4323   9.866   1.946   7.455  0.6151  0.3570 -1.3904
   33MOL0     H 4324   9.942   1.823   7.251  1.7754  0.0144  0.9739
   33MOL0     H 4325   9.831   1.698   7.277 -0.3744 -0.5011 -0.4556
   33MOL0     H 4326  10.034   1.615   7.375 -1.9953 -1.3201 -0.4206
   33MOL0     H 4327   9.932   1.655   7.500 -0.9835  1.5451 -1.5972
   33MOL0     H 4328  10.202   1.780   7.416  0.3157 -1.2483 -0.9652
   33MOL0     H 4329  10.085   1.874   7.511  0.8533 -0.1032  3.2224
   33MOL0     H 4330  10.241   1.731   7.643  0.8050  1.2051 -1.1412
   33MOL0     H 4331  10.129   1.593   7.609  0.8352  0.3586 -0.2354
   33MOL0     H 4332   9.960   1.665   7.730 -2.0588  1.9104 -1.4918
   33MOL0     H 4333   9.979   1.843   7.710 -0.1337  0.3761  1.0171
   33MOL0     H 4334  10.097   1.653   7.915  0.7712  1.7743  2.3284
   33MOL0     H 4335  10.203   1.772   7.859  0.5512 -0.9497  0.3346
   33MOL0     H 4336  10.026   1.945   7.937 -1.7479 -1.5879 -1.0380
   33MOL0     H 4337  10.053   1.819   8.062 -0.4609 -0.1960  0.3580
   33MOL0     H 4338   9.640   2.103   7.114 -1.8018  0.5027 -0.4080
   33MOL0     H 4339   9.496   2.275   7.143 -0.2032  2.8409  1.3296
   33MOL0     H 4340   9.362   2.553   7.575  0.4505  0.4260  1.0163
   33MOL0     H 4341   9.314   2.799   7.631 -1.0194 -0.5915  0.9491
   33MOL0     H 4342   9.321   2.105   7.417  5.4321 -2.6860 -1.6611
   33MOL0     H 4343   9.450   1.896   7.440 -1.0373 -2.2813  2.6829
   33MOL0     H 4344   9.670   1.629   7.727 -0.4520 -2.8081  4.3695
   33MOL0     H 4345   9.854   1.441   7.692  1.1785  3.6192 -1.0012
   33MOL0     H 4346   9.861   1.145   7.686 -0.3161  1.3527 -0.2341
   33MOL0     H 4347   9.977   1.269   7.630  0.8933 -0.5516  1.3708
   33MOL0     H 4348  10.090   1.030   7.604 -0.0122  0.3049 -0.1491
   33MOL0     H 4349   9.951   0.975   7.505  0.1383 -0.8408 -0.4244
   33MOL0     H 4350  10.141   1.200   7.445  0.9225 -2.2717  1.0926
   33MOL0     H 4351   9.992   1.174   7.347  3.0316  3.4387 -2.9970
   33MOL0     H 4352  10.079   0.944   7.304  0.6708 -0.0707 -2.1790
   33MOL0     H 4353  10.171   1.093   7.245 -1.0046  0.5288  1.0282
   33MOL0     H 4354  10.429   0.882   7.531  1.6298 -0.5362 -2.6342
   33MOL0     H 4355   9.576   1.261   7.399  3.8669 -0.0581 -1.8452
   33MOL0     H 4356   9.414   1.415   7.468 -0.6977  1.4932  4.7069
   34MOL0     O 4357   3.242   6.629   1.441  0.0320 -0.3334 -0.2668
   34MOL0     C 4358   3.365   6.597   1.454  0.1755  0.5760  0.5214
   34MOL0     O 4359   3.416   6.472   1.419 -0.3517 -0.3875  0.3002
   34MOL0     C 4360   3.320   6.381   1.389  0.5490 -0.4342  0.4562
   34MOL0     C 4361   3.273   6.302   1.493 -0.9660 -0.4394  0.9027
   34MOL0     C 4362   3.164   6.224   1.481  0.6694  0.4238  0.1085
   34MOL0     C 4363   3.098   6.194   1.361 -0.2951  0.4148 -0.3101
   34MOL0     O 4364   2.994   6.109   1.344  0.5034  0.5925  0.7765
   34MOL0     C 4365   2.898   6.099   1.441  1.2728 -0.1813 -0.0358
   34MOL0     C 4366   2.774   6.047   1.386 -0.2156 -0.1227 -0.1842
   34MOL0     C 4367   2.778   5.897   1.342  0.4789 -0.3078 -0.9539
   34MOL0     C 4368   2.649   5.830   1.284 -0.1053 -0.2855  0.9966
   34MOL0     C 4369   2.632   5.854   1.134  0.1608 -0.7525  0.0692
   34MOL0     C 4370   2.614   5.721   1.066 -0.2042 -0.6344  0.7347
   34MOL0     C 4371   2.560   5.759   0.926  0.5335 -0.9460  0.2971
   34MOL0     C 4372   2.578   5.655   0.818 -0.1757  0.7016  0.1089
   34MOL0     N 4373   2.502   5.525   0.832 -0.0218  1.0628  0.7544
   34MOL0     C 4374   2.530   5.425   0.923 -0.2817 -1.2608 -0.0014
   34MOL0     C 4375   2.460   5.318   0.892 -0.2616  0.2502 -0.5308
   34MOL0     C 4376   2.462   5.179   0.962 -0.7246  0.0414  0.4473
   34MOL0     C 4377   2.354   5.164   1.064  0.5968 -1.4689 -0.2132
   34MOL0     C 4378   2.334   5.025   1.117 -0.1045 -0.9233 -0.5521
   34MOL0     C 4379   2.446   4.979   1.207  1.0814  0.7080  0.2554
   34MOL0     O 4380   2.525   4.889   1.128  0.0035  0.7851  0.4412
   34MOL0     C 4381   2.491   4.753   1.121 -0.2910  0.5294  0.7897
   34MOL0     C 4382   2.595   4.677   1.068  0.2504  0.3617 -0.0625
   34MOL0     C 4383   2.580   4.543   1.056  0.0615  0.9541 -0.8204
   34MOL0     C 4384   2.455   4.479   1.087 -0.0890 -0.5916 -0.4937
   34MOL0     C 4385   2.424   4.337   1.062  0.3027  0.2523  0.2016
   34MOL0     O 4386   2.300   4.287   1.087 -0.0122 -0.3209 -0.7322
   34MOL0     C 4387   2.297   4.145   1.067 -0.1442 -0.2234 -0.4374
   34MOL0     C 4388   2.306   4.075   1.187  0.0098 -0.8938 -0.0524
   34MOL0     C 4389   2.261   3.943   1.199 -0.8080 -0.0427 -0.0194
   34MOL0     C 4390   2.236   3.869   1.081 -0.4119 -0.9404  0.3247
   34MOL0     O 4391   2.232   3.730   1.094 -0.3006  0.0648 -0.3655
   34MOL0     C 4392   2.229   3.659   0.972 -0.2974 -0.7612  0.5858
   34MOL0     C 4393   2.196   3.519   1.005  0.3715  0.0698  0.2529
   34MOL0     C 4394   2.052   3.505   1.063  0.6938 -0.2923  1.4129
   34MOL0     C 4395   2.019   3.357   1.109 -0.0474  0.3013  0.4927
   34MOL0     C 4396   1.870   3.342   1.099 -0.0544  0.0492 -0.0343
   34MOL0     C 4397   1.791   3.407   1.209  0.1377 -0.2792 -0.5710
   34MOL0     C 4398   1.639   3.383   1.209 -0.2841 -0.4717  0.5944
   34MOL0     C 4399   1.575   3.432   1.345  0.2819 -0.8125  0.0537
   34MOL0    Cl 4400   1.592   3.618   1.361  0.0015 -0.5335 -0.0447
   34MOL0     C 4401   2.239   3.938   0.956  0.2731 -0.0217 -0.1346
   34MOL0     C 4402   2.267   4.072   0.950 -0.1135 -0.3513 -1.0358
   34MOL0     O 4403   2.507   4.275   0.989 -0.0260 -0.5529  0.0192
   34MOL0     C 4404   2.353   4.558   1.141  0.0154  0.1719 -0.5151
   34MOL0     C 4405   2.362   4.696   1.144  0.6270  0.3648 -0.2860
   34MOL0     N 4406   2.381   5.353   0.784  0.4475  0.5324  0.0569
   34MOL0     N 4407   2.404   5.481   0.753 -0.1662  1.0643 -0.0877
   34MOL0     C 4408   3.164   6.255   1.255  0.1510 -0.2643 -0.2698
   34MOL0     C 4409   3.262   6.344   1.263  0.2093 -0.6078  0.5086
   34MOL0     C 4410   3.450   6.696   1.520 -0.4876 -0.3792  0.0282
   34MOL0     C 4411   3.428   6.837   1.506 -0.0020 -0.4519  0.6987
   34MOL0     C 4412   3.519   6.929   1.565 -0.8540 -0.5776  0.2307
   34MOL0     C 4413   3.647   6.889   1.617 -0.0110 -1.5597 -1.4850
   34MOL0     O 4414   3.751   6.962   1.666 -0.2466 -0.1054  0.0874
   34MOL0     C 4415   3.733   7.100   1.670 -0.6990 -0.1038  0.4820
   34MOL0     C 4416   3.653   7.134   1.803 -0.0294  0.6928  0.2249
   34MOL0     C 4417   3.630   7.284   1.825  0.4165  0.3631  0.3221
   34MOL0     C 4418   3.620   7.301   1.980  0.9610 -0.1942  0.1355
   34MOL0     C 4419   3.549   7.421   2.030 -0.8233  0.3306  0.4464
   34MOL0     C 4420   3.497   7.529   2.051 -0.5988  0.1029 -1.3409
   34MOL0     C 4421   3.667   6.754   1.621 -0.1255  0.4181 -0.1947
   34MOL0     C 4422   3.573   6.668   1.583  0.5946  0.7588 -0.5745
   34MOL0     H 4423   3.326   6.301   1.588  1.1400 -2.2010 -0.2048
   34MOL0     H 4424   3.139   6.174   1.574  3.2573 -1.8769 -0.3076
   34MOL0     H 4425   2.889   6.199   1.485 -3.2113  0.0529 -1.0033
   34MOL0     H 4426   2.924   6.028   1.520  1.0692  0.8070  0.9464
   34MOL0     H 4427   2.745   6.104   1.297 -2.3733  0.5672  0.8587
   34MOL0     H 4428   2.697   6.064   1.463  0.5840  0.4460  0.5076
   34MOL0     H 4429   2.818   5.841   1.427 -1.2241  1.3472  1.0405
   34MOL0     H 4430   2.855   5.889   1.265  1.8446  0.5828  0.2769
   34MOL0     H 4431   2.642   5.725   1.313  1.8261 -0.3634  1.2994
   34MOL0     H 4432   2.564   5.866   1.343  0.4301  0.8963  1.0571
   34MOL0     H 4433   2.716   5.915   1.097  0.3868  0.7713  2.8038
   34MOL0     H 4434   2.545   5.918   1.115 -0.6301 -0.7030  3.3474
   34MOL0     H 4435   2.537   5.670   1.124  0.9980 -4.0042 -0.4010
   34MOL0     H 4436   2.705   5.660   1.058  0.9929  0.9532  1.6685
   34MOL0     H 4437   2.453   5.779   0.940  1.2473  1.8263  3.1655
   34MOL0     H 4438   2.593   5.858   0.893 -1.9833 -0.5195 -1.2058
   34MOL0     H 4439   2.680   5.615   0.820 -0.8284 -1.1173 -0.9206
   34MOL0     H 4440   2.553   5.708   0.726 -3.4318  3.0592  2.1589
   34MOL0     H 4441   2.611   5.430   0.995  1.5662  3.0622 -2.0447
   34MOL0     H 4442   2.564   5.165   1.000 -0.9364 -1.6693  0.4305
   34MOL0     H 4443   2.450   5.109   0.879  2.9603  1.4349 -1.5086
   34MOL0     H 4444   2.260   5.190   1.016  2.4899 -0.5766 -3.8067
   34MOL0     H 4445   2.363   5.237   1.145 -2.6753  1.3143 -2.0892
   34MOL0     H 4446   2.242   5.028   1.176 -0.4159  1.4821 -1.0615
   34MOL0     H 4447   2.312   4.961   1.032 -3.6014 -0.4524 -0.1447
   34MOL0     H 4448   2.409   4.928   1.297  0.5036 -1.7636 -1.2783
   34MOL0     H 4449   2.512   5.060   1.240  1.5089  0.2768  0.4766
   34MOL0     H 4450   2.694   4.719   1.053  0.4916 -0.4658 -0.8606
   34MOL0     H 4451   2.651   4.466   1.025  0.2559  1.3841 -1.4719
   34MOL0     H 4452   2.331   4.138   1.272  0.9053 -3.5460  1.7617
   34MOL0     H 4453   2.261   3.890   1.293 -0.5003  0.1170  0.0720
   34MOL0     H 4454   2.331   3.663   0.932 -1.1695  0.6223 -1.7240
   34MOL0     H 4455   2.153   3.695   0.901  1.2481 -0.3171 -0.9113
   34MOL0     H 4456   2.272   3.480   1.074  1.0172  1.8301  0.6096
   34MOL0     H 4457   2.217   3.473   0.908 -0.5161  1.7395 -0.7787
   34MOL0     H 4458   1.983   3.542   0.986  0.7493 -0.5891  1.2174
   34MOL0     H 4459   2.032   3.568   1.150  3.7045 -0.0132  1.9967
   34MOL0     H 4460   2.076   3.279   1.058  0.5171  1.0508 -0.0618
   34MOL0     H 4461   2.049   3.353   1.214 -0.5793  2.0529  0.7365
   34MOL0     H 4462   1.844   3.236   1.098 -1.2525  0.3305 -0.9318
   34MOL0     H 4463   1.851   3.380   0.999 -0.4935 -0.9616 -0.3510
   34MOL0     H 4464   1.811   3.514   1.216  0.9015 -0.5188  2.7330
   34MOL0     H 4465   1.834   3.373   1.304  2.5322  0.2723 -1.3893
   34MOL0     H 4466   1.601   3.431   1.118  1.0962  0.5417  0.5043
   34MOL0     H 4467   1.621   3.278   1.184 -0.7535 -0.7971  2.1918
   34MOL0     H 4468   1.632   3.392   1.430  0.0810  1.2413  1.2298
   34MOL0     H 4469   1.472   3.406   1.369  0.3587  0.1781  1.6139
   34MOL0     H 4470   2.211   3.889   0.863 -0.1636 -2.7181  1.3091
   34MOL0     H 4471   2.256   4.133   0.861  2.3316  1.6970 -0.0622
   34MOL0     H 4472   2.258   4.511   1.159 -0.6206 -0.5147 -4.6461
   34MOL0     H 4473   2.272   4.751   1.169  1.1889  0.8734  0.6439
   34MOL0     H 4474   3.131   6.226   1.156  3.3063  1.4424 -1.9716
   34MOL0     H 4475   3.303   6.390   1.174  1.8821  0.1757  1.6262
   34MOL0     H 4476   3.339   6.879   1.461  1.1712 -1.4333 -2.7989
   34MOL0     H 4477   3.490   7.031   1.542 -0.2907 -0.3131  0.6562
   34MOL0     H 4478   3.674   7.136   1.585  1.7179  0.8980 -0.8673
   34MOL0     H 4479   3.830   7.151   1.666 -1.4300  1.3405  0.4959
   34MOL0     H 4480   3.558   7.081   1.796 -0.4968  1.6406 -0.9440
   34MOL0     H 4481   3.718   7.095   1.882  0.3756 -0.0484 -0.4576
   34MOL0     H 4482   3.529   7.313   1.793  1.0396  1.7243 -0.5102
   34MOL0     H 4483   3.712   7.342   1.781  0.8976 -1.0280 -0.6718
   34MOL0     H 4484   3.564   7.218   2.025  0.7514 -0.8354 -1.2353
   34MOL0     H 4485   3.723   7.314   2.014  1.6456  3.5265 -2.7463
   34MOL0     H 4486   3.454   7.627   2.060  0.1979  0.3026  0.7629
   34MOL0     H 4487   3.753   6.719   1.677  0.3381 -1.5511 -1.9989
   34MOL0     H 4488   3.602   6.565   1.596 -0.8754  0.3820 -0.0690
   35MOL0     O 4489   9.255   3.066   6.817 -0.4093  0.0332  0.7448
   35MOL0     C 4490   9.282   3.023   6.930 -0.0672 -0.0094  0.4106
   35MOL0     O 4491   9.267   2.889   6.959  0.6878  0.1037  0.1255
   35MOL0     C 4492   9.176   2.808   6.884  0.1735  1.0049  0.0697
   35MOL0     C 4493   9.056   2.860   6.836  0.6630  0.8332  0.2383
   35MOL0     C 4494   8.964   2.786   6.763 -0.2637  0.2497  0.4262
   35MOL0     C 4495   8.996   2.655   6.737  0.3606  0.4869  0.0393
   35MOL0     O 4496   8.907   2.595   6.651  0.2254 -0.1705 -0.0497
   35MOL0     C 4497   8.952   2.470   6.598 -0.9245 -0.7353 -0.7601
   35MOL0     C 4498   8.862   2.423   6.490 -0.2002 -0.7918 -0.1579
   35MOL0     C 4499   8.714   2.461   6.521 -0.2616 -1.0442  0.2493
   35MOL0     C 4500   8.654   2.419   6.650  0.0734  0.6902 -0.0292
   35MOL0     C 4501   8.510   2.455   6.671  0.1499 -0.9465  0.0977
   35MOL0     C 4502   8.455   2.369   6.781 -0.2210  0.3225  0.0564
   35MOL0     C 4503   8.308   2.395   6.814  0.8487 -1.0343 -0.0224
   35MOL0     C 4504   8.249   2.293   6.920 -0.9155 -0.4164 -0.2132
   35MOL0     N 4505   8.220   2.153   6.893 -0.7726 -0.5195 -0.4341
   35MOL0     C 4506   8.107   2.113   6.832  0.0560 -0.4678  0.0118
   35MOL0     C 4507   8.118   1.979   6.825 -0.0768 -1.2839  0.8829
   35MOL0     C 4508   8.042   1.880   6.743 -0.9363 -0.0471 -0.7281
   35MOL0     C 4509   7.900   1.913   6.715 -0.0104 -0.3468 -0.8070
   35MOL0     C 4510   7.855   1.920   6.560 -0.1491  0.5759 -0.4384
   35MOL0     C 4511   7.945   1.974   6.450  0.1439  0.5796  0.1831
   35MOL0     O 4512   7.984   2.107   6.493  0.0703 -0.5802  0.5095
   35MOL0     C 4513   8.104   2.147   6.428  0.1965  0.4000  0.5186
   35MOL0     C 4514   8.226   2.138   6.487  0.6019 -0.0172 -0.4193
   35MOL0     C 4515   8.350   2.155   6.427 -0.5813 -0.1321  0.1929
   35MOL0     C 4516   8.355   2.187   6.290  0.2734 -0.7670  0.0077
   35MOL0     C 4517   8.475   2.209   6.216 -0.0424  0.7183  0.3737
   35MOL0     O 4518   8.597   2.174   6.280  0.0222  0.4798 -0.2667
   35MOL0     C 4519   8.709   2.192   6.214 -0.1147 -0.3130 -0.4534
   35MOL0     C 4520   8.784   2.078   6.190  0.6053  0.4026 -0.0518
   35MOL0     C 4521   8.904   2.081   6.115 -0.1233 -0.0657  1.1593
   35MOL0     C 4522   8.941   2.200   6.048  0.4445 -0.2725 -0.1652
   35MOL0     O 4523   9.050   2.228   5.977 -0.0365 -0.1411 -0.4693
   35MOL0     C 4524   9.135   2.121   5.926  0.1030 -0.9956 -0.0089
   35MOL0     C 4525   9.228   2.169   5.829 -0.5723 -0.8330  0.7715
   35MOL0     C 4526   9.354   2.081   5.830 -0.0691  1.5665  0.1876
   35MOL0     C 4527   9.441   2.088   5.705  0.3060 -0.2506 -0.5207
   35MOL0     C 4528   9.582   2.023   5.714  0.2713  0.0090 -0.3413
   35MOL0     C 4529   9.574   1.869   5.726  0.4283 -0.7550 -0.0586
   35MOL0     C 4530   9.689   1.784   5.783  0.2326 -1.0234  0.1356
   35MOL0     C 4531   9.631   1.678   5.869 -0.0332 -0.8161 -0.0539
   35MOL0    Cl 4532   9.764   1.577   5.954  0.1337  0.1426  0.0586
   35MOL0     C 4533   8.866   2.307   6.078 -0.5085 -0.8093  0.7974
   35MOL0     C 4534   8.755   2.307   6.159 -0.7928  0.5383 -0.9407
   35MOL0     O 4535   8.474   2.250   6.104  0.5688  0.2016 -0.0092
   35MOL0     C 4536   8.231   2.183   6.216  1.1317  0.2165 -1.0292
   35MOL0     C 4537   8.101   2.174   6.293  0.0957  0.2662  0.0032
   35MOL0     N 4538   8.229   1.937   6.887 -0.5673  0.0711 -0.0260
   35MOL0     N 4539   8.283   2.036   6.934  0.2836  1.3503  0.8455
   35MOL0     C 4540   9.115   2.599   6.796  0.0555  0.4354  0.7820
   35MOL0     C 4541   9.204   2.676   6.867  0.1692 -0.4676  0.7881
   35MOL0     C 4542   9.325   3.118   7.030 -1.3266 -1.2651  0.6335
   35MOL0     C 4543   9.345   3.095   7.170 -0.0396 -0.1018  0.2126
   35MOL0     C 4544   9.385   3.202   7.255 -0.5294  0.6516  1.0794
   35MOL0     C 4545   9.415   3.325   7.201 -0.7134 -0.3510  0.2744
   35MOL0     O 4546   9.440   3.431   7.291 -0.0811  0.5021 -0.9963
   35MOL0     C 4547   9.492   3.547   7.250 -0.0666 -0.2191 -0.7033
   35MOL0     C 4548   9.553   3.628   7.360 -0.1497 -0.2406 -0.8104
   35MOL0     C 4549   9.706   3.597   7.362 -0.4097 -0.0765 -0.2776
   35MOL0     C 4550   9.755   3.467   7.432 -0.3601 -0.1047  0.1570
   35MOL0     C 4551   9.711   3.449   7.569 -0.0080  0.1051 -0.1524
   35MOL0     C 4552   9.680   3.418   7.684  0.2463  0.2703 -0.0097
   35MOL0     C 4553   9.384   3.350   7.072  0.5291  0.0569  0.8200
   35MOL0     C 4554   9.345   3.247   6.987 -0.5738 -0.1463 -0.4043
   35MOL0     H 4555   9.045   2.967   6.850  0.0694  1.1550 -2.2088
   35MOL0     H 4556   8.884   2.841   6.713  1.1097  1.1846 -0.8092
   35MOL0     H 4557   8.951   2.401   6.683  1.8100  2.0019  1.7412
   35MOL0     H 4558   9.054   2.483   6.559 -0.2754  1.0563  1.3216
   35MOL0     H 4559   8.876   2.317   6.470  1.1075 -0.2307 -2.6584
   35MOL0     H 4560   8.890   2.482   6.402  0.3864 -0.8157  0.0069
   35MOL0     H 4561   8.657   2.434   6.431 -0.0255  4.3569 -1.9419
   35MOL0     H 4562   8.704   2.570   6.518  1.0398 -0.8389  1.9497
   35MOL0     H 4563   8.678   2.312   6.653 -1.2368  0.3955  1.9776
   35MOL0     H 4564   8.711   2.454   6.736 -2.4725  1.7047  1.3668
   35MOL0     H 4565   8.444   2.436   6.586 -1.0552  0.5005  0.6788
   35MOL0     H 4566   8.502   2.560   6.700 -1.9767 -0.2814 -2.5921
   35MOL0     H 4567   8.525   2.373   6.865 -0.1716 -0.4121  0.0613
   35MOL0     H 4568   8.455   2.264   6.748  2.4208 -1.4424  4.6677
   35MOL0     H 4569   8.296   2.498   6.850  0.9856 -0.5606 -1.2537
   35MOL0     H 4570   8.249   2.394   6.722 -1.2957 -1.1164  1.2978
   35MOL0     H 4571   8.165   2.346   6.967  0.0765  1.8116 -0.8056
   35MOL0     H 4572   8.323   2.296   7.001 -0.6740  0.6371 -0.4610
   35MOL0     H 4573   8.014   2.152   6.791 -2.1860 -4.3746  0.9262
   35MOL0     H 4574   8.053   1.783   6.793  0.4880  0.4693  0.0397
   35MOL0     H 4575   8.097   1.864   6.650 -0.5542  3.5146 -1.2461
   35MOL0     H 4576   7.878   2.010   6.759  0.5721  0.3376 -1.9840
   35MOL0     H 4577   7.837   1.843   6.772 -1.0789  0.5197 -0.8904
   35MOL0     H 4578   7.841   1.816   6.528  0.6008  0.1166  0.6561
   35MOL0     H 4579   7.753   1.958   6.554 -1.2284 -1.9127  0.5763
   35MOL0     H 4580   7.906   1.967   6.349  2.7030 -1.8926 -0.7847
   35MOL0     H 4581   8.034   1.910   6.452 -1.5256 -1.8352  1.3720
   35MOL0     H 4582   8.228   2.106   6.591  0.3855 -1.2844 -0.7817
   35MOL0     H 4583   8.444   2.142   6.480  1.1354 -0.3503 -2.6996
   35MOL0     H 4584   8.751   1.984   6.233 -0.7225  0.3964 -1.0132
   35MOL0     H 4585   8.972   1.999   6.095  0.7358  1.2907 -2.1930
   35MOL0     H 4586   9.074   2.046   5.875  1.0333 -0.0877 -2.5887
   35MOL0     H 4587   9.180   2.068   6.011 -0.4562  0.5428  1.3171
   35MOL0     H 4588   9.248   2.275   5.844 -3.6271  0.3649 -2.1823
   35MOL0     H 4589   9.174   2.156   5.734  0.3274  0.2418  0.0870
   35MOL0     H 4590   9.313   1.980   5.828  1.0726  1.1004 -0.9288
   35MOL0     H 4591   9.411   2.103   5.921  0.8746 -0.2219  0.0572
   35MOL0     H 4592   9.388   2.084   5.610  0.1515  1.3576 -0.5270
   35MOL0     H 4593   9.464   2.194   5.721 -0.8542 -0.2365  1.3557
   35MOL0     H 4594   9.642   2.058   5.798 -2.7406  0.2826  1.8450
   35MOL0     H 4595   9.641   2.057   5.628 -0.4193  1.7704 -0.1421
   35MOL0     H 4596   9.554   1.831   5.625 -0.6653 -1.0652  0.2622
   35MOL0     H 4597   9.483   1.850   5.785  0.0753 -1.4547 -0.7979
   35MOL0     H 4598   9.739   1.725   5.705  1.1996 -0.4044  0.2623
   35MOL0     H 4599   9.767   1.841   5.834  0.3503  1.2331 -2.3317
   35MOL0     H 4600   9.560   1.615   5.815 -1.6647  0.4728  0.5053
   35MOL0     H 4601   9.580   1.727   5.953  2.8702  2.0492  0.2189
   35MOL0     H 4602   8.898   2.402   6.036  1.7564 -2.2123 -0.9405
   35MOL0     H 4603   8.694   2.397   6.163  2.9049  3.1961  1.1448
   35MOL0     H 4604   8.226   2.200   6.109  0.2476  2.4203 -0.6985
   35MOL0     H 4605   8.010   2.188   6.236 -0.7090 -0.6522  1.0521
   35MOL0     H 4606   9.142   2.496   6.775 -3.0531 -0.6169  1.3328
   35MOL0     H 4607   9.294   2.619   6.886 -0.0582 -1.1563 -0.1391
   35MOL0     H 4608   9.335   2.998   7.219  1.8496 -1.3940 -1.7482
   35MOL0     H 4609   9.402   3.172   7.358  0.4038  0.1500  0.7861
   35MOL0     H 4610   9.404   3.608   7.224 -0.6697 -0.8316 -0.1403
   35MOL0     H 4611   9.558   3.537   7.164  3.6057  1.0429  1.7527
   35MOL0     H 4612   9.536   3.736   7.355  0.5597 -0.0033  1.0584
   35MOL0     H 4613   9.504   3.591   7.451 -0.6434  0.1034 -0.9303
   35MOL0     H 4614   9.757   3.676   7.418  0.3242 -1.6924  1.4793
   35MOL0     H 4615   9.749   3.591   7.262  2.8101 -1.5965  1.0061
   35MOL0     H 4616   9.727   3.377   7.376  2.7056 -0.9695 -0.1989
   35MOL0     H 4617   9.865   3.469   7.433 -0.3713  0.6340  0.2525
   35MOL0     H 4618   9.631   3.409   7.779 -1.4544 -1.5040 -0.9881
   35MOL0     H 4619   9.391   3.451   7.033 -0.2855  0.3434  1.3902
   35MOL0     H 4620   9.317   3.287   6.890  0.5951  1.9656  0.0688
   36MOL0     O 4621   9.813   3.480   8.005  0.0475  0.2624 -0.0290
   36MOL0     C 4622   9.828   3.408   8.100  0.1142  0.8415 -0.0742
   36MOL0     O 4623   9.848   3.448   8.229 -0.5591  0.7658 -0.6180
   36MOL0     C 4624   9.828   3.584   8.264  0.4712  0.1653 -0.4791
   36MOL0     C 4625   9.707   3.646   8.228  0.2257  0.4871 -0.6854
   36MOL0     C 4626   9.690   3.773   8.241  1.4182  0.2523 -1.4266
   36MOL0     C 4627   9.795   3.861   8.288 -0.3619  0.2485  0.9825
   36MOL0     O 4628   9.757   3.989   8.299  0.2980 -0.1733  0.3727
   36MOL0     C 4629   9.858   4.076   8.365  0.1323  0.9511 -0.4415
   36MOL0     C 4630   9.972   4.120   8.270  0.4471  1.1184 -0.0582
   36MOL0     C 4631   9.944   4.139   8.119 -0.3674  0.7217 -0.2598
   36MOL0     C 4632  10.064   4.209   8.050  0.4495 -0.1153 -0.2550
   36MOL0     C 4633  10.039   4.241   7.891 -0.6643  0.2028  0.4483
   36MOL0     C 4634   9.902   4.313   7.857  0.3055  0.2839  1.2495
   36MOL0     C 4635   9.892   4.358   7.705  0.0936 -0.2948 -0.3492
   36MOL0     C 4636   9.763   4.449   7.688 -0.7127 -0.0188 -0.0553
   36MOL0     N 4637   9.755   4.477   7.544 -0.1760 -0.0708  0.1331
   36MOL0     C 4638   9.823   4.576   7.473  0.1025  0.0216  0.0117
   36MOL0     C 4639   9.786   4.544   7.345 -0.2400  0.0325 -0.2430
   36MOL0     C 4640   9.846   4.631   7.233  0.0259 -0.1720 -0.6208
   36MOL0     C 4641   9.911   4.538   7.132 -0.3750  0.5789  0.6796
   36MOL0     C 4642  10.001   4.612   7.042 -0.5805 -0.7560 -0.0946
   36MOL0     C 4643   9.939   4.706   6.937  0.1532  0.4147  0.5647
   36MOL0     O 4644  10.052   4.777   6.870  0.7282  0.4066 -0.3419
   36MOL0     C 4645  10.079   4.910   6.878  0.4527  0.3526 -0.8467
   36MOL0     C 4646  10.205   4.952   6.862 -0.0099  0.0867 -0.1776
   36MOL0     C 4647  10.242   5.085   6.874 -0.1403  0.0621 -0.3754
   36MOL0     C 4648  10.138   5.184   6.904 -0.9445 -0.5513 -0.4539
   36MOL0     C 4649  10.167   5.330   6.901 -0.1339  0.6430  0.2129
   36MOL0     O 4650  10.066   5.416   6.918 -0.0086  0.7561 -0.4332
   36MOL0     C 4651  10.093   5.549   6.953  0.9258 -0.8682  1.2432
   36MOL0     C 4652  10.112   5.651   6.855 -0.8851  0.1864  0.4852
   36MOL0     C 4653  10.147   5.784   6.894  0.1812 -0.3592  0.1683
   36MOL0     C 4654  10.161   5.817   7.026  0.5927 -0.0027  0.2955
   36MOL0     O 4655  10.173   5.947   7.056  0.3104  0.3918 -0.2115
   36MOL0     C 4656  10.196   6.006   7.183 -0.2120  0.2623 -0.1081
   36MOL0     C 4657  10.176   6.157   7.179  0.6153  0.8120 -0.1595
   36MOL0     C 4658  10.030   6.180   7.126  0.0764 -0.6343  0.3869
   36MOL0     C 4659   9.932   6.201   7.252  0.4760  0.1271  0.1243
   36MOL0     C 4660   9.952   6.338   7.309  0.3754 -0.1904 -0.6577
   36MOL0     C 4661   9.819   6.407   7.280  1.0529  0.2753 -0.3361
   36MOL0     C 4662   9.841   6.555   7.293 -0.5316 -0.1223  0.2700
   36MOL0     C 4663   9.720   6.649   7.282 -0.3841 -1.1652 -0.2812
   36MOL0    Cl 4664   9.622   6.601   7.142  0.1240 -0.0944 -0.3863
   36MOL0     C 4665  10.131   5.718   7.120 -0.1134 -1.5638 -0.8175
   36MOL0     C 4666  10.104   5.590   7.090 -0.6031  0.4259 -1.3620
   36MOL0     O 4667  10.283   5.365   6.872  0.5722  0.5940 -0.4935
   36MOL0     C 4668  10.010   5.130   6.920  0.0935 -0.9736  0.5945
   36MOL0     C 4669   9.983   4.998   6.902 -0.2267  0.3876 -0.3020
   36MOL0     N 4670   9.717   4.425   7.342 -0.1153 -0.4247 -0.2822
   36MOL0     N 4671   9.698   4.390   7.457  0.4582  0.6174 -0.8837
   36MOL0     C 4672   9.919   3.798   8.332 -1.1369  0.0281 -0.2699
   36MOL0     C 4673   9.939   3.658   8.309  0.0193  1.4393 -0.3022
   36MOL0     C 4674   9.842   3.263   8.073 -0.1021  0.8990  0.8791
   36MOL0     C 4675   9.871   3.167   8.176 -1.1844  1.0166 -0.6215
   36MOL0     C 4676   9.883   3.026   8.151 -0.9896 -1.1915 -0.0701
   36MOL0     C 4677   9.877   2.976   8.020 -0.0771 -0.2985 -0.2257
   36MOL0     O 4678   9.864   2.852   7.978  0.6539  0.9536 -0.4411
   36MOL0     C 4679   9.864   2.731   8.067 -1.2968 -0.2982  0.4098
   36MOL0     C 4680  10.011   2.682   8.059 -0.0324  0.4074  0.0580
   36MOL0     C 4681  10.021   2.560   8.149  0.0425 -0.4213  0.8338
   36MOL0     C 4682  10.161   2.510   8.149  0.3437  0.0808 -0.7044
   36MOL0     C 4683  10.176   2.376   8.204 -0.4191  0.2616 -0.4364
   36MOL0     C 4684  10.169   2.264   8.243 -0.6325 -0.7889 -0.2180
   36MOL0     C 4685   9.848   3.065   7.922 -1.0605  0.4959  0.2673
   36MOL0     C 4686   9.826   3.202   7.944 -0.1531  0.4415 -0.4335
   36MOL0     H 4687   9.623   3.587   8.195 -2.9237  3.5258  1.1380
   36MOL0     H 4688   9.595   3.814   8.208  1.5300  2.8148  1.0487
   36MOL0     H 4689   9.894   4.023   8.453  1.2975 -1.4826 -2.2477
   36MOL0     H 4690   9.801   4.158   8.409  0.8495  2.7589 -2.6806
   36MOL0     H 4691  10.043   4.036   8.267 -1.5630 -0.7806  1.4475
   36MOL0     H 4692  10.017   4.207   8.317 -1.8003  1.8752  0.8254
   36MOL0     H 4693   9.856   4.203   8.112 -1.1343 -0.3960 -1.1913
   36MOL0     H 4694   9.914   4.050   8.064 -1.8263  2.2141 -2.0121
   36MOL0     H 4695  10.091   4.295   8.111  0.0767 -0.0535 -0.1785
   36MOL0     H 4696  10.148   4.140   8.067  1.5874  0.9455 -1.3332
   36MOL0     H 4697  10.041   4.142   7.844  1.3902  0.1395  0.5701
   36MOL0     H 4698  10.119   4.307   7.857 -2.9368  4.0082  1.9152
   36MOL0     H 4699   9.898   4.399   7.925  0.9153  2.2996 -1.1297
   36MOL0     H 4700   9.818   4.249   7.887  0.4775  0.4241  2.0495
   36MOL0     H 4701   9.976   4.428   7.693 -0.5218  0.8368  1.5554
   36MOL0     H 4702   9.891   4.267   7.644 -0.4431  0.2452 -1.1813
   36MOL0     H 4703   9.760   4.544   7.742 -1.0952 -0.1705  0.1939
   36MOL0     H 4704   9.677   4.393   7.727 -0.9276 -0.7883 -1.5337
   36MOL0     H 4705   9.880   4.656   7.520 -2.0765  2.2870 -0.9642
   36MOL0     H 4706   9.916   4.702   7.278  0.3815 -1.3260  0.7086
   36MOL0     H 4707   9.762   4.683   7.186 -1.1640  1.0218  2.5533
   36MOL0     H 4708   9.843   4.476   7.072  0.7359  0.6857 -0.7539
   36MOL0     H 4709   9.971   4.461   7.181 -1.7142 -0.2970  0.9963
   36MOL0     H 4710  10.075   4.670   7.098  0.1925 -2.7298  1.0359
   36MOL0     H 4711  10.060   4.541   6.983  0.8631  1.1593 -1.0517
   36MOL0     H 4712   9.872   4.773   6.993 -0.2726  0.4451  0.0286
   36MOL0     H 4713   9.876   4.655   6.864 -1.8930  2.6444  0.6164
   36MOL0     H 4714  10.287   4.883   6.846  1.0101  0.8379  1.5606
   36MOL0     H 4715  10.341   5.128   6.882  0.3664 -1.4001  1.9998
   36MOL0     H 4716  10.088   5.617   6.755  0.2742 -0.6961  0.4771
   36MOL0     H 4717  10.158   5.855   6.812 -1.5438 -1.4210 -1.0568
   36MOL0     H 4718  10.297   5.990   7.221 -0.3866 -2.5704 -0.5825
   36MOL0     H 4719  10.127   5.958   7.254 -0.0902 -0.9031 -0.7505
   36MOL0     H 4720  10.250   6.197   7.109  0.5767  2.9632  0.9765
   36MOL0     H 4721  10.201   6.185   7.282 -3.4438 -0.3556  1.3203
   36MOL0     H 4722   9.991   6.094   7.070 -1.8317  0.7676 -0.5862
   36MOL0     H 4723  10.038   6.268   7.062  1.8537 -0.6619  0.5411
   36MOL0     H 4724   9.829   6.169   7.233  0.2681 -0.8967  2.6457
   36MOL0     H 4725   9.969   6.133   7.329 -1.0373 -0.8454  0.0325
   36MOL0     H 4726  10.038   6.392   7.268  1.4888 -1.4654 -0.0838
   36MOL0     H 4727   9.954   6.341   7.419  1.1239 -1.8317 -0.6015
   36MOL0     H 4728   9.737   6.376   7.346  0.9917  1.7468  0.3234
   36MOL0     H 4729   9.788   6.386   7.178 -1.2115  2.5459 -0.2064
   36MOL0     H 4730   9.884   6.587   7.389  0.3729  0.1792 -0.2232
   36MOL0     H 4731   9.921   6.579   7.222 -0.4548 -1.4578 -0.1313
   36MOL0     H 4732   9.761   6.748   7.259  1.5513 -1.9426 -0.3169
   36MOL0     H 4733   9.663   6.641   7.375  2.4370  2.3301  2.0239
   36MOL0     H 4734  10.138   5.727   7.228  1.8999 -0.3793 -0.9932
   36MOL0     H 4735  10.087   5.521   7.172 -2.5070  1.7718 -0.5356
   36MOL0     H 4736   9.929   5.202   6.923  0.8415 -0.0272 -0.6028
   36MOL0     H 4737   9.881   4.965   6.916 -0.6901  2.5907  2.3576
   36MOL0     H 4738  10.002   3.850   8.379 -2.4463  2.0305 -0.0309
   36MOL0     H 4739  10.039   3.618   8.324 -0.7381 -0.8424 -0.8720
   36MOL0     H 4740   9.884   3.202   8.278  0.0972 -0.9187 -0.0732
   36MOL0     H 4741   9.902   2.953   8.229 -1.5480 -0.6584  0.5827
   36MOL0     H 4742   9.797   2.654   8.027 -0.4428 -0.8440  0.0119
   36MOL0     H 4743   9.829   2.751   8.169  0.3808  0.4500  0.8669
   36MOL0     H 4744  10.039   2.664   7.955 -1.4599 -2.4514  0.0579
   36MOL0     H 4745  10.077   2.763   8.091 -0.9936  0.6295  1.6037
   36MOL0     H 4746   9.956   2.479   8.113  0.7458  0.4722 -2.8175
   36MOL0     H 4747   9.981   2.585   8.248  0.3419  0.1477  0.8148
   36MOL0     H 4748  10.201   2.499   8.048  0.5569 -0.1203 -0.6004
   36MOL0     H 4749  10.219   2.584   8.206  0.1806  1.5207 -2.3516
   36MOL0     H 4750  10.142   2.172   8.290  3.1422 -1.7014  0.4960
   36MOL0     H 4751   9.832   3.022   7.824  1.4938  1.2774 -0.5676
   36MOL0     H 4752   9.792   3.255   7.856 -0.6141 -0.7350 -0.9692
   37MOL0     O 4753  11.191   4.960   9.130  1.1368 -0.9909 -0.0271
   37MOL0     C 4754  11.163   4.961   9.252 -0.1380  0.5338  0.3754
   37MOL0     O 4755  11.234   5.028   9.351 -0.3197 -0.3317 -1.2939
   37MOL0     C 4756  11.348   5.099   9.318  0.0546 -0.1944 -0.4584
   37MOL0     C 4757  11.344   5.237   9.333 -0.5912  0.0518 -0.3663
   37MOL0     C 4758  11.462   5.310   9.318 -0.2367  0.1057  0.4578
   37MOL0     C 4759  11.580   5.251   9.291 -0.5203  0.2431 -0.1561
   37MOL0     O 4760  11.693   5.327   9.256  0.3198  0.6417  0.0508
   37MOL0     C 4761  11.736   5.432   9.348  1.3172 -0.5794  0.6017
   37MOL0     C 4762  11.864   5.389   9.422 -0.0681 -0.2103 -0.1590
   37MOL0     C 4763  11.995   5.472   9.428 -0.9828 -0.7528  0.4399
   37MOL0     C 4764  12.075   5.476   9.296  0.4419  0.1426  0.6410
   37MOL0     C 4765  12.164   5.596   9.268  0.2697 -0.0316  0.1155
   37MOL0     C 4766  12.243   5.588   9.128  0.5155  0.1475  0.2770
   37MOL0     C 4767  12.316   5.719   9.099 -0.2327 -0.3377 -0.0230
   37MOL0     C 4768  12.348   5.738   8.954 -0.0897  0.3956 -0.2874
   37MOL0     N 4769  12.238   5.795   8.863 -0.0628 -0.1190  0.6509
   37MOL0     C 4770  12.201   5.928   8.847  0.4819  0.9829  0.0483
   37MOL0     C 4771  12.108   5.907   8.753  0.5352  0.9639 -0.0782
   37MOL0     C 4772  12.050   6.012   8.678 -0.7408 -0.4099 -0.3287
   37MOL0     C 4773  11.892   6.014   8.679 -0.4353 -0.8496  0.4965
   37MOL0     C 4774  11.822   6.107   8.792 -0.6297 -0.3845 -0.7285
   37MOL0     C 4775  11.668   6.087   8.788 -0.1045 -0.2429 -0.1442
   37MOL0     O 4776  11.622   6.100   8.653  0.0928 -0.2911 -0.1867
   37MOL0     C 4777  11.581   5.995   8.578  0.0827 -0.0404 -0.6020
   37MOL0     C 4778  11.601   5.863   8.622 -0.7262  0.9793  0.1568
   37MOL0     C 4779  11.576   5.759   8.531  0.2744  0.0548 -1.0763
   37MOL0     C 4780  11.505   5.782   8.407 -0.8398  0.3132 -0.7246
   37MOL0     C 4781  11.476   5.672   8.318  0.0973  0.4455  0.7620
   37MOL0     O 4782  11.486   5.548   8.370 -0.1611 -0.0331 -0.0737
   37MOL0     C 4783  11.445   5.441   8.294  0.3384  0.7287  0.4125
   37MOL0     C 4784  11.516   5.323   8.299 -0.4375  0.3095 -0.2357
   37MOL0     C 4785  11.474   5.206   8.240  0.1265  0.4637  0.2970
   37MOL0     C 4786  11.351   5.217   8.167 -0.1904 -0.2491  0.6696
   37MOL0     O 4787  11.275   5.109   8.142  0.3074  0.0798 -0.0172
   37MOL0     C 4788  11.329   5.016   8.062 -0.3848 -0.5292  0.6393
   37MOL0     C 4789  11.348   4.873   8.120 -0.1008  0.0356 -0.7740
   37MOL0     C 4790  11.242   4.833   8.224 -0.0826 -1.2987  0.1880
   37MOL0     C 4791  11.257   4.696   8.282 -0.3558  0.4703  0.3535
   37MOL0     C 4792  11.398   4.670   8.335  0.1469  0.3493 -0.3026
   37MOL0     C 4793  11.407   4.571   8.448 -0.0527 -0.0665  0.0024
   37MOL0     C 4794  11.547   4.526   8.482 -0.2416 -1.3378  0.5861
   37MOL0     C 4795  11.554   4.414   8.580 -0.1769  0.5649  0.0608
   37MOL0    Cl 4796  11.604   4.274   8.504 -0.0537  0.2006 -0.0787
   37MOL0     C 4797  11.289   5.334   8.141  0.3495 -0.7284 -0.1031
   37MOL0     C 4798  11.328   5.444   8.219 -0.3030  0.3313  0.3878
   37MOL0     O 4799  11.441   5.700   8.203 -0.4245  0.1407  0.1889
   37MOL0     C 4800  11.470   5.916   8.372 -0.2498 -0.4215  0.3073
   37MOL0     C 4801  11.502   6.026   8.457 -0.0228  0.5507 -0.7537
   37MOL0     N 4802  12.079   5.771   8.720  0.2296 -0.4455 -0.2530
   37MOL0     N 4803  12.157   5.707   8.791  0.4828 -0.5370 -0.7943
   37MOL0     C 4804  11.583   5.120   9.286 -0.4406  0.4513 -0.5050
   37MOL0     C 4805  11.477   5.038   9.312 -0.1642  0.4109  0.0089
   37MOL0     C 4806  11.032   4.891   9.308  0.2259  0.1667 -0.0747
   37MOL0     C 4807  11.004   4.871   9.447  0.3841  0.0776 -0.1532
   37MOL0     C 4808  10.895   4.789   9.490 -0.1719  0.1267  0.1947
   37MOL0     C 4809  10.804   4.737   9.402 -1.0276  0.5561  0.5383
   37MOL0     O 4810  10.690   4.690   9.459 -1.3376 -0.0886 -0.2703
   37MOL0     C 4811  10.644   4.563   9.414  0.7944  0.5977  0.3622
   37MOL0     C 4812  10.694   4.457   9.513 -0.3028 -0.2937 -0.1092
   37MOL0     C 4813  10.698   4.314   9.469 -0.4566 -0.4783  0.4286
   37MOL0     C 4814  10.580   4.268   9.383 -0.1095  0.3887 -0.1570
   37MOL0     C 4815  10.614   4.131   9.328  0.7408 -0.3307  0.5078
   37MOL0     C 4816  10.611   4.016   9.273  0.0844 -1.1649  0.5833
   37MOL0     C 4817  10.828   4.763   9.266  0.9995  0.3827  1.3138
   37MOL0     C 4818  10.939   4.833   9.219  0.3891 -0.1126  0.6164
   37MOL0     H 4819  11.252   5.289   9.356 -1.2305 -0.8403 -0.8007
   37MOL0     H 4820  11.450   5.418   9.321 -0.1722  0.1816 -1.0542
   37MOL0     H 4821  11.648   5.465   9.403 -0.2502 -0.6390 -1.7340
   37MOL0     H 4822  11.766   5.517   9.287  0.7542 -0.9425 -0.2010
   37MOL0     H 4823  11.891   5.311   9.350  0.3392  2.5961 -3.2855
   37MOL0     H 4824  11.849   5.337   9.517  1.6300 -1.5896 -0.5773
   37MOL0     H 4825  12.068   5.428   9.495  2.0213  0.4623 -1.8111
   37MOL0     H 4826  11.981   5.577   9.456 -1.2100 -0.1994 -1.5622
   37MOL0     H 4827  12.116   5.376   9.282 -0.6333 -0.1124 -0.9573
   37MOL0     H 4828  11.989   5.483   9.228 -1.6575  3.5921  3.2881
   37MOL0     H 4829  12.241   5.595   9.345  1.1886 -2.2580 -0.7579
   37MOL0     H 4830  12.095   5.681   9.265  2.5671  1.9233 -2.2194
   37MOL0     H 4831  12.171   5.582   9.045  2.1617 -2.4786 -1.1086
   37MOL0     H 4832  12.302   5.497   9.119 -0.4461 -0.4844  0.1298
   37MOL0     H 4833  12.252   5.806   9.116  0.7110  0.3390  0.1604
   37MOL0     H 4834  12.412   5.733   9.151 -0.1493 -1.3402  0.1158
   37MOL0     H 4835  12.380   5.637   8.925  1.1112 -0.7586  4.3373
   37MOL0     H 4836  12.432   5.808   8.947  1.7351 -1.7169 -0.8121
   37MOL0     H 4837  12.254   6.009   8.897  2.4985 -0.5960  0.6307
   37MOL0     H 4838  12.086   6.005   8.575  0.5396  1.6964 -0.1012
   37MOL0     H 4839  12.094   6.107   8.710 -0.9420 -0.5949  0.4999
   37MOL0     H 4840  11.857   5.910   8.682 -3.5415  0.0350 -1.0904
   37MOL0     H 4841  11.875   6.054   8.579  0.3390  2.7107  1.6464
   37MOL0     H 4842  11.871   6.102   8.889 -2.7277  1.2985  0.5268
   37MOL0     H 4843  11.835   6.205   8.745 -0.3301 -0.8078 -1.5551
   37MOL0     H 4844  11.630   6.175   8.841  2.3609  1.1999 -0.6003
   37MOL0     H 4845  11.629   5.999   8.840 -3.1243  1.1151  0.0727
   37MOL0     H 4846  11.636   5.825   8.717  2.7681 -0.1036 -1.4008
   37MOL0     H 4847  11.596   5.657   8.563 -1.1685  1.4001  5.7629
   37MOL0     H 4848  11.604   5.318   8.363  0.5053 -0.2764 -1.5358
   37MOL0     H 4849  11.517   5.107   8.253 -2.5513 -0.7880  0.4997
   37MOL0     H 4850  11.421   5.062   8.025 -2.1299  4.1388  1.3978
   37MOL0     H 4851  11.259   5.014   7.978 -2.7875  0.3342  2.4938
   37MOL0     H 4852  11.448   4.874   8.164 -0.5218 -2.3584  0.4032
   37MOL0     H 4853  11.340   4.808   8.033 -1.8769 -0.7361 -0.0841
   37MOL0     H 4854  11.146   4.839   8.173 -0.4595 -2.4304  0.7384
   37MOL0     H 4855  11.241   4.898   8.313 -1.3422  1.2130 -1.5562
   37MOL0     H 4856  11.177   4.685   8.356  0.4699 -0.0946  1.1831
   37MOL0     H 4857  11.253   4.634   8.192  1.0995 -1.0030  1.2361
   37MOL0     H 4858  11.432   4.761   8.384 -3.4898  2.1449 -0.7804
   37MOL0     H 4859  11.464   4.640   8.253  1.9516  2.0979  0.4530
   37MOL0     H 4860  11.357   4.478   8.419  0.5930 -0.0569 -1.2187
   37MOL0     H 4861  11.352   4.607   8.535 -1.0716  0.8826 -0.9919
   37MOL0     H 4862  11.587   4.491   8.386  2.8087 -1.5112  1.7890
   37MOL0     H 4863  11.612   4.610   8.510 -1.8505  0.5067 -0.9260
   37MOL0     H 4864  11.455   4.397   8.625 -1.0102 -0.5199 -2.0569
   37MOL0     H 4865  11.619   4.443   8.663  3.7137 -0.3846 -2.3787
   37MOL0     H 4866  11.210   5.341   8.067  1.2852  0.4699 -1.0310
   37MOL0     H 4867  11.274   5.538   8.220  1.3176  1.3073  0.1045
   37MOL0     H 4868  11.412   5.940   8.284  0.7026  1.9725  0.2466
   37MOL0     H 4869  11.476   6.128   8.429 -1.8059  0.3373 -0.0644
   37MOL0     H 4870  11.673   5.073   9.247 -0.8766  0.4781 -1.5772
   37MOL0     H 4871  11.478   4.930   9.307  1.9751  0.3790  0.0843
   37MOL0     H 4872  11.082   4.897   9.518  2.9959 -3.9304 -1.2116
   37MOL0     H 4873  10.872   4.778   9.596 -0.7370  1.0055  0.1775
   37MOL0     H 4874  10.672   4.555   9.309  1.5796 -1.3849  0.6702
   37MOL0     H 4875  10.535   4.559   9.426  0.8796 -0.1499  0.9826
   37MOL0     H 4876  10.794   4.475   9.552 -0.3573 -2.4153  1.1233
   37MOL0     H 4877  10.629   4.461   9.600  2.6692 -2.4234  2.4360
   37MOL0     H 4878  10.693   4.261   9.564  0.2955  0.1274  0.8223
   37MOL0     H 4879  10.793   4.294   9.419  1.2235  1.5200  2.6177
   37MOL0     H 4880  10.490   4.256   9.444  0.3756 -0.7863  0.3462
   37MOL0     H 4881  10.573   4.338   9.299  3.4043  2.5278  1.1191
   37MOL0     H 4882  10.611   3.919   9.227  0.1565 -1.7256  1.7474
   37MOL0     H 4883  10.754   4.727   9.195  1.5736  3.4026 -0.9773
   37MOL0     H 4884  10.946   4.828   9.111  3.2599 -5.3204  0.7184
   38MOL0     O 4885   0.270   7.257   0.012 -0.3031 -0.7323  0.3272
   38MOL0     C 4886   0.194   7.339   0.057 -0.3125  0.4501  0.2304
   38MOL0     O 4887   0.142   7.445  -0.005 -0.3174 -0.0269  0.2058
   38MOL0     C 4888   0.151   7.445  -0.144  0.5939 -0.0725  0.3141
   38MOL0     C 4889   0.155   7.570  -0.202  0.3525 -0.4224  0.8896
   38MOL0     C 4890   0.170   7.586  -0.340 -0.2198 -0.1391 -0.0521
   38MOL0     C 4891   0.188   7.482  -0.433 -0.5865  0.3350 -1.0160
   38MOL0     O 4892   0.204   7.498  -0.570  0.3257 -0.3846  0.0446
   38MOL0     C 4893   0.090   7.548  -0.626  0.1168 -0.9526  0.4813
   38MOL0     C 4894   0.114   7.590  -0.768  0.4169  0.2646 -0.7124
   38MOL0     C 4895   0.052   7.489  -0.869 -0.4290  0.5956 -0.3633
   38MOL0     C 4896   0.139   7.362  -0.886 -0.5889  0.4096 -0.7084
   38MOL0     C 4897   0.077   7.247  -0.973  0.4919  0.1751 -0.8829
   38MOL0     C 4898  -0.065   7.208  -0.934  1.2146 -0.5774 -0.0313
   38MOL0     C 4899  -0.072   7.132  -0.798 -0.6432 -1.1771  0.4208
   38MOL0     C 4900  -0.216   7.119  -0.746  0.4312 -0.6015 -0.3324
   38MOL0     N 4901  -0.245   7.238  -0.658 -0.5054 -0.8897  0.5233
   38MOL0     C 4902  -0.202   7.252  -0.527  0.9666 -0.1211  0.5191
   38MOL0     C 4903  -0.226   7.383  -0.507  0.0654  0.6335  0.6762
   38MOL0     C 4904  -0.192   7.454  -0.377 -0.8467 -0.1112  0.5852
   38MOL0     C 4905  -0.250   7.598  -0.351 -0.1686  0.3210 -0.2928
   38MOL0     C 4906  -0.220   7.649  -0.210 -0.5113  0.1265 -0.2009
   38MOL0     C 4907  -0.274   7.788  -0.179 -0.2085 -0.0960  0.2046
   38MOL0     O 4908  -0.209   7.899  -0.250 -0.0980  1.2502 -0.1772
   38MOL0     C 4909  -0.277   8.021  -0.251 -0.2874 -0.8203  0.3401
   38MOL0     C 4910  -0.224   8.115  -0.335  0.4019  0.4777 -0.2842
   38MOL0     C 4911  -0.280   8.248  -0.341  0.4050 -0.2346 -0.6503
   38MOL0     C 4912  -0.403   8.275  -0.271 -0.7419  0.1037 -0.1073
   38MOL0     C 4913  -0.464   8.403  -0.286  0.7128  0.2896 -0.2068
   38MOL0     O 4914  -0.558   8.432  -0.188 -0.2393  0.7248 -1.0267
   38MOL0     C 4915  -0.646   8.529  -0.219 -0.2345 -0.0110 -1.1635
   38MOL0     C 4916  -0.669   8.630  -0.126  0.0490 -0.5114 -0.2662
   38MOL0     C 4917  -0.762   8.729  -0.161  1.0618 -0.2558 -0.3812
   38MOL0     C 4918  -0.853   8.718  -0.273 -0.4454 -0.1895 -0.6734
   38MOL0     O 4919  -0.944   8.812  -0.297  0.8298 -0.0725  0.6115
   38MOL0     C 4920  -1.078   8.758  -0.280  0.0460 -0.6097 -0.0207
   38MOL0     C 4921  -1.172   8.879  -0.276 -0.2569 -0.1291  1.0771
   38MOL0     C 4922  -1.172   8.964  -0.400 -0.8707 -1.0123 -0.6012
   38MOL0     C 4923  -1.258   8.905  -0.506  0.2240  0.1974  0.3210
   38MOL0     C 4924  -1.274   8.994  -0.625  0.4452  0.2602  0.6623
   38MOL0     C 4925  -1.281   8.914  -0.756 -0.7105  0.2426  0.3212
   38MOL0     C 4926  -1.274   9.001  -0.877 -0.4168  0.4309  0.0471
   38MOL0     C 4927  -1.246   8.935  -1.010  0.1832  0.7269 -0.5993
   38MOL0    Cl 4928  -1.113   8.814  -1.025 -0.5205  0.1095  0.0276
   38MOL0     C 4929  -0.835   8.607  -0.355  0.5578  0.3755  1.1755
   38MOL0     C 4930  -0.728   8.519  -0.334 -0.7763 -0.9217  0.3281
   38MOL0     O 4931  -0.434   8.476  -0.377 -0.3946  0.1045 -0.6627
   38MOL0     C 4932  -0.453   8.180  -0.192  0.0361  0.0642 -0.8699
   38MOL0     C 4933  -0.393   8.054  -0.176 -0.9584 -0.1735 -0.1266
   38MOL0     N 4934  -0.277   7.445  -0.618  0.5799  0.5434 -0.1847
   38MOL0     N 4935  -0.310   7.347  -0.700 -1.1581 -0.5140 -0.0994
   38MOL0     C 4936   0.192   7.355  -0.363  0.7723  0.0138  0.2109
   38MOL0     C 4937   0.171   7.335  -0.229  0.5984 -0.5154 -0.6605
   38MOL0     C 4938   0.172   7.330   0.196  0.4982  0.6976 -0.0218
   38MOL0     C 4939   0.275   7.318   0.286 -0.1492  0.9204  0.0125
   38MOL0     C 4940   0.250   7.296   0.415 -0.2669  0.0127 -1.8584
   38MOL0     C 4941   0.126   7.309   0.474  0.3512  1.0308 -0.4361
   38MOL0     O 4942   0.117   7.296   0.606  0.2473  0.2045 -0.3366
   38MOL0     C 4943   0.016   7.368   0.681 -0.5595  0.5121 -0.1327
   38MOL0     C 4944   0.074   7.396   0.822 -0.3319 -0.2117  0.7774
   38MOL0     C 4945   0.223   7.392   0.818 -0.8837 -0.3075  0.4710
   38MOL0     C 4946   0.283   7.437   0.950  0.2188  0.3530 -0.0921
   38MOL0     C 4947   0.282   7.330   1.052  0.0259 -1.1034 -0.1729
   38MOL0     C 4948   0.299   7.234   1.127  0.0188  0.9225 -0.5028
   38MOL0     C 4949   0.020   7.337   0.386 -0.2783 -0.1016 -0.8710
   38MOL0     C 4950   0.041   7.336   0.245  1.0975  0.6121 -0.4447
   38MOL0     H 4951   0.147   7.666  -0.152  1.9810 -0.0600  0.4959
   38MOL0     H 4952   0.175   7.683  -0.389 -0.5097 -0.7638 -1.3373
   38MOL0     H 4953   0.044   7.631  -0.572 -1.0182  0.7315 -2.8200
   38MOL0     H 4954   0.014   7.470  -0.626 -1.1627  0.2297  1.8092
   38MOL0     H 4955   0.222   7.586  -0.787  0.5879  1.0124  0.1047
   38MOL0     H 4956   0.082   7.694  -0.774  0.8644  0.7361  3.0907
   38MOL0     H 4957   0.053   7.546  -0.963 -0.9050 -0.0456 -0.7673
   38MOL0     H 4958  -0.052   7.475  -0.842  0.0117 -0.8375  0.6450
   38MOL0     H 4959   0.239   7.388  -0.922 -0.0449  1.7288  1.5404
   38MOL0     H 4960   0.157   7.323  -0.786 -2.4001  2.1859  0.4108
   38MOL0     H 4961   0.138   7.156  -0.961 -0.3821 -0.1841  1.5352
   38MOL0     H 4962   0.096   7.279  -1.075  4.3299 -0.6786 -0.6027
   38MOL0     H 4963  -0.104   7.133  -1.004 -1.4068 -1.4041  2.1178
   38MOL0     H 4964  -0.146   7.281  -0.936 -1.9909 -3.8649  0.0111
   38MOL0     H 4965  -0.049   7.026  -0.801 -0.6077 -1.1442 -0.6232
   38MOL0     H 4966   0.006   7.170  -0.731 -1.3023 -2.4732  1.9801
   38MOL0     H 4967  -0.220   7.040  -0.671 -0.6983 -2.8450 -2.6159
   38MOL0     H 4968  -0.287   7.109  -0.829 -0.7890 -0.8333  0.7207
   38MOL0     H 4969  -0.160   7.181  -0.457 -0.4340 -2.2464 -0.6756
   38MOL0     H 4970  -0.085   7.474  -0.372 -1.5393  6.3374 -1.0623
   38MOL0     H 4971  -0.232   7.385  -0.302  1.0131 -4.1098 -1.7551
   38MOL0     H 4972  -0.358   7.580  -0.353 -0.0372 -0.5185 -0.4123
   38MOL0     H 4973  -0.214   7.671  -0.423 -0.4246  0.4225 -0.3173
   38MOL0     H 4974  -0.240   7.588  -0.122 -4.8543  0.8142 -0.4999
   38MOL0     H 4975  -0.112   7.660  -0.223 -0.6353 -0.0125 -1.5234
   38MOL0     H 4976  -0.261   7.806  -0.072 -0.9406 -1.9122  0.6413
   38MOL0     H 4977  -0.382   7.776  -0.192 -0.3117  1.2942 -0.4478
   38MOL0     H 4978  -0.131   8.102  -0.389 -0.0001  2.1984 -1.4566
   38MOL0     H 4979  -0.234   8.328  -0.397 -2.1080  0.0600 -2.4411
   38MOL0     H 4980  -0.599   8.635  -0.043 -1.8720  2.8348  1.3649
   38MOL0     H 4981  -0.772   8.813  -0.093 -1.1207  1.2840 -2.4412
   38MOL0     H 4982  -1.084   8.689  -0.195 -0.3102  1.9237  2.1563
   38MOL0     H 4983  -1.103   8.691  -0.362  0.4630 -2.1419  1.0544
   38MOL0     H 4984  -1.150   8.931  -0.183 -3.6630  0.8295  1.4653
   38MOL0     H 4985  -1.274   8.839  -0.272  0.7050 -3.0869 -0.5181
   38MOL0     H 4986  -1.066   8.967  -0.426 -0.5073 -3.4028  0.3691
   38MOL0     H 4987  -1.219   9.060  -0.376 -1.1650  0.0731 -4.7573
   38MOL0     H 4988  -1.202   8.822  -0.551  0.3022  0.8726 -0.8888
   38MOL0     H 4989  -1.353   8.862  -0.474  1.3228  0.1965  3.9872
   38MOL0     H 4990  -1.188   9.060  -0.637  1.3877 -1.2270 -1.4781
   38MOL0     H 4991  -1.363   9.057  -0.610 -0.7477 -1.3305  0.5391
   38MOL0     H 4992  -1.374   8.857  -0.763  0.3650 -1.8043  1.9048
   38MOL0     H 4993  -1.195   8.848  -0.763 -1.0035 -0.2162  0.9962
   38MOL0     H 4994  -1.374   9.044  -0.885 -0.3298  0.7473  0.6317
   38MOL0     H 4995  -1.190   9.070  -0.867  0.6829 -0.7891 -0.5446
   38MOL0     H 4996  -1.213   9.015  -1.077 -1.9806  0.4823 -2.0766
   38MOL0     H 4997  -1.341   8.899  -1.051 -0.3754 -0.2186  1.4295
   38MOL0     H 4998  -0.901   8.571  -0.433 -0.4633 -2.4942  3.2020
   38MOL0     H 4999  -0.692   8.449  -0.408 -0.0903  1.7550 -2.0421
   38MOL0     H 5000  -0.541   8.186  -0.129  0.2908  1.7508 -0.6424
   38MOL0     H 5001  -0.425   7.978  -0.105  0.4736  0.2937  1.0568
   38MOL0     H 5002   0.204   7.273  -0.432  3.3295 -0.0672  0.6460
   38MOL0     H 5003   0.166   7.237  -0.182 -1.7299  0.9832  2.5827
   38MOL0     H 5004   0.373   7.338   0.242 -0.3751 -0.4361 -1.1766
   38MOL0     H 5005   0.333   7.257   0.474  1.3501  2.4684 -2.3698
   38MOL0     H 5006  -0.084   7.323   0.684 -0.0276 -0.6718  0.4723
   38MOL0     H 5007  -0.007   7.463   0.631  0.4689  1.9785  2.0145
   38MOL0     H 5008   0.043   7.499   0.845  0.1625  0.9823 -3.2412
   38MOL0     H 5009   0.033   7.331   0.901 -5.9534  0.6874 -0.9878
   38MOL0     H 5010   0.263   7.459   0.741  0.9026 -1.2879  0.4947
   38MOL0     H 5011   0.261   7.291   0.805 -0.9305 -0.3162  0.3994
   38MOL0     H 5012   0.388   7.465   0.938  0.9164 -1.8108  0.4986
   38MOL0     H 5013   0.239   7.535   0.969  0.6796  0.7125 -0.8144
   38MOL0     H 5014   0.304   7.144   1.185  1.1416  1.5319  0.3794
   38MOL0     H 5015  -0.079   7.366   0.420  1.1274  4.7644 -0.2707
   38MOL0     H 5016  -0.046   7.350   0.183  1.8329 -0.1183 -1.6828
   39MOL0     O 5017   8.958   3.761   6.425  0.1544 -0.3752  0.3798
   39MOL0     C 5018   8.955   3.830   6.527  0.2542 -0.2352  0.3197
   39MOL0     O 5019   9.003   3.959   6.541 -0.5029 -0.2458  1.0172
   39MOL0     C 5020   9.023   4.021   6.420  0.0882  0.3574  0.3677
   39MOL0     C 5021   8.948   4.135   6.388  0.7101  0.3313  0.2631
   39MOL0     C 5022   8.963   4.204   6.263  0.4582  0.4268  0.4554
   39MOL0     C 5023   9.055   4.154   6.170 -0.0269  0.7847  0.9545
   39MOL0     O 5024   9.089   4.245   6.066 -0.2778 -0.1493  0.0823
   39MOL0     C 5025   9.146   4.186   5.946 -0.3323  0.4997 -0.0318
   39MOL0     C 5026   9.161   4.281   5.829 -0.2604 -0.2738 -1.2415
   39MOL0     C 5027   9.244   4.223   5.720 -0.0236 -0.0210  0.3922
   39MOL0     C 5028   9.237   4.321   5.596  0.3436 -0.2662 -0.4339
   39MOL0     C 5029   9.350   4.311   5.489 -0.0992 -0.2518 -0.4691
   39MOL0     C 5030   9.482   4.382   5.525 -0.5404 -0.6985  0.6565
   39MOL0     C 5031   9.557   4.415   5.390  0.0550 -0.0244  1.0242
   39MOL0     C 5032   9.489   4.475   5.264 -0.5885 -0.3492 -0.5679
   39MOL0     N 5033   9.568   4.558   5.178 -0.1389 -0.6646  0.4836
   39MOL0     C 5034   9.559   4.701   5.153  0.1008  0.4252  0.0706
   39MOL0     C 5035   9.660   4.720   5.072 -0.4210 -0.6270  0.4408
   39MOL0     C 5036   9.700   4.859   5.018 -0.1091  0.8667  0.2179
   39MOL0     C 5037   9.855   4.842   4.997  0.1565  0.1275  0.7421
   39MOL0     C 5038   9.909   4.978   4.947  0.1917 -0.0386  0.5049
   39MOL0     C 5039  10.059   4.971   4.915 -0.2223  0.4803 -0.1042
   39MOL0     O 5040  10.102   5.106   4.913  0.3799  0.0107  0.7949
   39MOL0     C 5041  10.112   5.173   5.026  0.4246  0.0066 -0.1739
   39MOL0     C 5042  10.117   5.104   5.153 -0.0600 -0.0869  0.3358
   39MOL0     C 5043  10.131   5.167   5.269  0.2896  0.9265 -0.6336
   39MOL0     C 5044  10.140   5.305   5.270 -0.1182 -0.9121 -0.1141
   39MOL0     C 5045  10.138   5.381   5.403  0.9858  0.5657  0.6907
   39MOL0     O 5046  10.185   5.507   5.400  0.0925 -0.4807 -0.0854
   39MOL0     C 5047  10.187   5.594   5.508 -0.2719 -0.4747  1.2463
   39MOL0     C 5048  10.225   5.725   5.475 -0.2504  0.7694  0.1585
   39MOL0     C 5049  10.227   5.826   5.575 -0.3225  0.1290 -0.1506
   39MOL0     C 5050  10.209   5.805   5.716  0.4076  0.4005  0.1300
   39MOL0     O 5051  10.222   5.911   5.805 -0.1026 -0.3231  0.0821
   39MOL0     C 5052  10.128   5.906   5.909  1.1883  0.7182  1.0955
   39MOL0     C 5053  10.192   5.904   6.046 -0.4727  0.8641 -1.2279
   39MOL0     C 5054  10.082   5.883   6.155 -0.3106  0.8148 -0.9765
   39MOL0     C 5055  10.145   5.901   6.304  1.0252 -0.9072  0.0779
   39MOL0     C 5056  10.033   5.909   6.411 -1.5110  1.0087  0.4604
   39MOL0     C 5057  10.079   5.996   6.533  0.3425  1.2612 -0.3934
   39MOL0     C 5058   9.965   6.053   6.621  0.6834  0.2292 -0.0389
   39MOL0     C 5059  10.009   6.187   6.690  0.1670 -0.1857  0.2844
   39MOL0    Cl 5060   9.873   6.243   6.786  0.0624 -0.6739  0.4243
   39MOL0     C 5061  10.182   5.665   5.752 -0.2816 -0.0409  0.5717
   39MOL0     C 5062  10.180   5.564   5.653 -0.6342 -0.0668  0.9508
   39MOL0     O 5063  10.072   5.334   5.495  0.2509 -0.3956  0.1117
   39MOL0     C 5064  10.127   5.371   5.145 -0.3322  0.1471 -0.7711
   39MOL0     C 5065  10.109   5.317   5.018  0.6203  0.4693 -0.3840
   39MOL0     N 5066   9.732   4.605   5.056 -0.3376 -0.8503  0.4041
   39MOL0     N 5067   9.676   4.513   5.119 -0.8264 -0.4544  0.0129
   39MOL0     C 5068   9.128   4.040   6.203  0.0954  0.3099 -0.3784
   39MOL0     C 5069   9.109   3.971   6.324 -0.2200 -0.0927  1.1924
   39MOL0     C 5070   8.893   3.778   6.645 -0.2264  0.7450  0.2587
   39MOL0     C 5071   8.875   3.861   6.756  0.6583 -0.4421 -0.7812
   39MOL0     C 5072   8.798   3.817   6.861  0.7678 -1.1898 -0.3061
   39MOL0     C 5073   8.733   3.692   6.854  0.1426 -0.9859 -0.4953
   39MOL0     O 5074   8.642   3.666   6.959 -0.2060  0.5530  0.4113
   39MOL0     C 5075   8.665   3.555   7.051 -0.8681  0.7941  0.1282
   39MOL0     C 5076   8.732   3.611   7.182 -0.6143  0.2194 -0.8257
   39MOL0     C 5077   8.662   3.733   7.237  0.1843 -0.3712 -0.6336
   39MOL0     C 5078   8.711   3.741   7.380 -0.7606 -0.1626 -1.0249
   39MOL0     C 5079   8.676   3.869   7.449 -0.6071  0.2843  0.3115
   39MOL0     C 5080   8.652   3.955   7.530  0.5569  0.7718  0.3087
   39MOL0     C 5081   8.758   3.610   6.752  0.3169  0.6340 -0.3370
   39MOL0     C 5082   8.835   3.645   6.644 -0.6001  0.1900  0.4537
   39MOL0     H 5083   8.878   4.161   6.467  0.4854 -1.5188  0.7107
   39MOL0     H 5084   8.913   4.298   6.242  1.8904  1.2482  0.5225
   39MOL0     H 5085   9.084   4.099   5.921  0.2972  0.4549 -1.5842
   39MOL0     H 5086   9.244   4.153   5.981 -0.9711 -1.5028  0.0021
   39MOL0     H 5087   9.209   4.374   5.859 -0.6642  0.3456 -2.4584
   39MOL0     H 5088   9.060   4.309   5.799 -0.5992 -1.1844 -0.9937
   39MOL0     H 5089   9.213   4.124   5.687 -3.8063  0.7258  1.2678
   39MOL0     H 5090   9.348   4.218   5.755 -0.7169 -2.4909  2.3596
   39MOL0     H 5091   9.151   4.290   5.535  1.0206 -1.2073 -0.9381
   39MOL0     H 5092   9.233   4.425   5.627 -1.2180 -1.1542  2.8008
   39MOL0     H 5093   9.304   4.355   5.401  2.7440  2.5533 -0.7205
   39MOL0     H 5094   9.371   4.209   5.455  4.2736 -0.1319  1.1903
   39MOL0     H 5095   9.539   4.324   5.598  3.0242  0.5444 -0.8910
   39MOL0     H 5096   9.463   4.478   5.574 -2.4844 -1.8100  2.2446
   39MOL0     H 5097   9.636   4.484   5.422  0.8566 -0.5200  0.1587
   39MOL0     H 5098   9.605   4.321   5.362  1.3245  1.1367 -0.9478
   39MOL0     H 5099   9.402   4.532   5.298 -1.3931 -1.0716 -1.3923
   39MOL0     H 5100   9.453   4.387   5.210  0.5193 -1.3881  0.3193
   39MOL0     H 5101   9.475   4.762   5.183 -1.2911 -1.9281  1.2355
   39MOL0     H 5102   9.687   4.936   5.094  0.8970  0.9857  0.2776
   39MOL0     H 5103   9.642   4.874   4.926 -2.6426  2.0562  1.8981
   39MOL0     H 5104   9.883   4.775   4.915  1.9869  0.9359  0.6579
   39MOL0     H 5105   9.904   4.800   5.085 -1.9695 -1.2047  1.3844
   39MOL0     H 5106   9.871   5.022   4.854 -0.0830  3.2806  2.0530
   39MOL0     H 5107   9.884   5.045   5.030 -0.9123  0.5104 -0.2452
   39MOL0     H 5108  10.074   4.922   4.818 -4.2491  0.4785 -0.9182
   39MOL0     H 5109  10.112   4.905   4.984 -0.8031 -0.8128 -0.8595
   39MOL0     H 5110  10.111   4.997   5.171 -1.3417  0.6769  6.9545
   39MOL0     H 5111  10.121   5.121   5.367  2.9177  0.7772 -0.3642
   39MOL0     H 5112  10.249   5.748   5.371 -1.8361  0.5234 -0.2831
   39MOL0     H 5113  10.264   5.922   5.541 -1.7493  0.1580 -1.7190
   39MOL0     H 5114  10.051   5.829   5.897  1.6146  0.6047 -1.6276
   39MOL0     H 5115  10.075   6.001   5.905  0.3817  0.2472 -1.5352
   39MOL0     H 5116  10.253   5.993   6.062  2.4357 -1.4401  2.1612
   39MOL0     H 5117  10.257   5.816   6.053 -0.7523  0.6971 -0.7114
   39MOL0     H 5118  10.051   5.781   6.131 -0.8590  0.6313  0.3756
   39MOL0     H 5119  10.000   5.953   6.137 -2.4684 -1.6305 -1.3310
   39MOL0     H 5120  10.224   5.829   6.324  1.2786 -0.0691  2.4024
   39MOL0     H 5121  10.193   5.999   6.316  1.5125 -1.0309 -0.7708
   39MOL0     H 5122   9.992   5.813   6.444  0.5044  0.6318  2.0727
   39MOL0     H 5123   9.954   5.964   6.360 -1.8285 -2.4823 -3.3292
   39MOL0     H 5124  10.141   6.080   6.501 -0.4677  2.4039  0.9465
   39MOL0     H 5125  10.139   5.934   6.601 -0.7724  0.9977  0.3774
   39MOL0     H 5126   9.875   6.075   6.562 -1.2037 -3.2359  1.2359
   39MOL0     H 5127   9.924   5.981   6.693 -2.3098 -0.0582 -1.8837
   39MOL0     H 5128  10.038   6.261   6.614  2.3342 -0.4726  0.7451
   39MOL0     H 5129  10.095   6.171   6.756 -0.4059  1.1417  1.3909
   39MOL0     H 5130  10.155   5.622   5.848 -1.8134 -1.8856 -0.6037
   39MOL0     H 5131  10.180   5.461   5.687  0.5946 -0.7268 -0.9108
   39MOL0     H 5132  10.124   5.480   5.149  1.2803  0.1928 -0.3519
   39MOL0     H 5133  10.103   5.380   4.930  0.3132  0.4658 -0.3664
   39MOL0     H 5134   9.195   4.002   6.128 -0.5684  3.0136 -2.5145
   39MOL0     H 5135   9.160   3.878   6.349 -0.0075 -0.0546  0.9102
   39MOL0     H 5136   8.917   3.961   6.768 -0.3015  0.2644 -2.9084
   39MOL0     H 5137   8.793   3.890   6.940 -1.4397  0.4870 -1.8586
   39MOL0     H 5138   8.737   3.487   7.003 -0.7631  0.4864  0.7135
   39MOL0     H 5139   8.575   3.500   7.079  1.7495 -2.8707  2.1400
   39MOL0     H 5140   8.733   3.534   7.259  3.0662  0.2820 -0.6242
   39MOL0     H 5141   8.835   3.646   7.167 -2.1558  4.5183 -3.3548
   39MOL0     H 5142   8.555   3.713   7.250  0.2313 -0.7481 -0.7972
   39MOL0     H 5143   8.681   3.826   7.183 -2.9506  1.4214  1.0615
   39MOL0     H 5144   8.665   3.664   7.443  0.0055 -0.7805 -1.2082
   39MOL0     H 5145   8.820   3.732   7.377 -0.7663  0.0197 -2.3693
   39MOL0     H 5146   8.599   4.028   7.587 -1.4891  0.1610 -0.7367
   39MOL0     H 5147   8.719   3.508   6.747  0.9791  0.3396  0.2976
   39MOL0     H 5148   8.835   3.574   6.561 -5.9397 -0.2756  0.4955
   40MOL0     O 5149  10.858   4.423   8.995 -0.6529 -0.0824  1.3551
   40MOL0     C 5150  10.747   4.399   8.945  0.5708  0.8631 -0.0674
   40MOL0     O 5151  10.711   4.280   8.887  0.0666 -0.0629  0.5438
   40MOL0     C 5152  10.756   4.154   8.915  0.0902 -0.4398 -0.3303
   40MOL0     C 5153  10.818   4.109   9.036  0.2152 -0.2608  0.7182
   40MOL0     C 5154  10.877   3.979   9.025  0.1570 -0.7083 -1.0561
   40MOL0     C 5155  10.856   3.885   8.926  0.4620  0.8668 -0.2200
   40MOL0     O 5156  10.909   3.757   8.928 -0.0839  0.0895  0.4577
   40MOL0     C 5157  10.821   3.646   8.900  0.5759 -0.5012  0.4878
   40MOL0     C 5158  10.898   3.516   8.898  0.3005  0.2303  0.5988
   40MOL0     C 5159  10.816   3.400   8.825 -0.5861 -0.3464 -0.5613
   40MOL0     C 5160  10.898   3.284   8.773  0.7272 -0.7575 -0.2523
   40MOL0     C 5161  10.813   3.155   8.734 -0.8040 -0.5200 -0.1322
   40MOL0     C 5162  10.890   3.047   8.651 -0.3170 -1.1339  0.4836
   40MOL0     C 5163  10.918   3.095   8.513 -1.0943  0.0606 -0.2719
   40MOL0     C 5164  10.982   2.989   8.427  0.2861  0.0535 -0.2433
   40MOL0     N 5165  10.968   3.030   8.284  0.4051  1.5127  0.4469
   40MOL0     C 5166  11.064   3.100   8.221 -0.0871  1.7365  1.6672
   40MOL0     C 5167  11.041   3.093   8.084  0.3374 -0.1716  1.1635
   40MOL0     C 5168  11.120   3.136   7.970 -0.3292 -0.1697 -1.1412
   40MOL0     C 5169  11.173   3.019   7.888  0.1067 -0.5825 -0.2455
   40MOL0     C 5170  11.314   2.963   7.913  0.0395  0.0664  0.6678
   40MOL0     C 5171  11.420   3.055   7.865  0.5363  0.4236 -0.4702
   40MOL0     O 5172  11.554   3.008   7.850 -0.4520 -0.0636  0.1232
   40MOL0     C 5173  11.647   3.096   7.907  0.2375 -0.0128  0.3550
   40MOL0     C 5174  11.657   3.111   8.045 -0.2092 -0.0322 -0.2968
   40MOL0     C 5175  11.745   3.208   8.106  0.0140  0.2937 -0.1444
   40MOL0     C 5176  11.828   3.283   8.023 -0.6053  0.4673  0.0078
   40MOL0     C 5177  11.920   3.387   8.084  1.5651 -0.6210  0.5556
   40MOL0     O 5178  12.024   3.423   8.012 -0.5005 -0.3635 -0.1911
   40MOL0     C 5179  12.125   3.496   8.065 -0.3550  0.0841 -0.3392
   40MOL0     C 5180  12.257   3.445   8.075  0.5170 -0.1262  0.8138
   40MOL0     C 5181  12.359   3.530   8.099 -0.4199  0.2026  0.5367
   40MOL0     C 5182  12.345   3.666   8.128 -0.3577 -0.1157 -0.6120
   40MOL0     O 5183  12.444   3.753   8.171 -0.3297 -0.1908 -0.1082
   40MOL0     C 5184  12.517   3.704   8.291  1.0040  0.1573  0.0831
   40MOL0     C 5185  12.563   3.825   8.380 -0.6834  0.4603  1.4077
   40MOL0     C 5186  12.462   3.836   8.500 -0.3806 -0.2641 -0.2219
   40MOL0     C 5187  12.511   3.954   8.588 -0.1844  0.5628 -0.6964
   40MOL0     C 5188  12.428   3.965   8.716  0.6380  0.0261 -0.2515
   40MOL0     C 5189  12.455   4.088   8.809  0.1175 -0.3892  0.4636
   40MOL0     C 5190  12.342   4.113   8.909  0.2258  0.0675 -0.0798
   40MOL0     C 5191  12.334   4.258   8.975  0.0676  1.1794 -0.0945
   40MOL0    Cl 5192  12.306   4.393   8.859 -0.4962 -0.3647 -0.1502
   40MOL0     C 5193  12.210   3.712   8.133  0.0973 -0.7447 -0.4090
   40MOL0     C 5194  12.102   3.630   8.092 -0.1903 -0.3616 -0.5558
   40MOL0     O 5195  11.889   3.429   8.193 -0.0831 -0.7212 -1.5523
   40MOL0     C 5196  11.819   3.269   7.881  1.1233 -0.5077 -0.3012
   40MOL0     C 5197  11.733   3.178   7.822  0.0329  0.3889  0.1523
   40MOL0     N 5198  10.918   3.025   8.075 -0.0969  0.4928  0.2848
   40MOL0     N 5199  10.876   2.978   8.193  0.1565  0.2316  0.5267
   40MOL0     C 5200  10.766   3.923   8.824 -0.2434 -0.8244  0.2125
   40MOL0     C 5201  10.734   4.055   8.820  0.4352 -0.0596  0.5446
   40MOL0     C 5202  10.651   4.517   8.946  0.3210  0.6308 -0.2834
   40MOL0     C 5203  10.701   4.654   8.968  0.7865  0.6191  1.4040
   40MOL0     C 5204  10.612   4.763   8.944 -1.0879  0.1801  0.1619
   40MOL0     C 5205  10.481   4.743   8.895 -0.0414  0.2851 -0.2473
   40MOL0     O 5206  10.385   4.828   8.865  0.1065  0.3806 -0.4319
   40MOL0     C 5207  10.413   4.965   8.898 -0.1974  0.8046 -0.0950
   40MOL0     C 5208  10.293   5.057   8.870  0.1232  0.0283 -0.6141
   40MOL0     C 5209  10.170   5.009   8.955 -0.0173 -0.1043 -0.5093
   40MOL0     C 5210  10.029   5.079   8.924 -0.2753 -0.4664  0.2193
   40MOL0     C 5211   9.960   5.036   8.804 -0.2986 -0.3573 -0.7251
   40MOL0     C 5212   9.913   5.022   8.692 -0.3161  0.1814  0.4284
   40MOL0     C 5213  10.440   4.612   8.871 -0.0220  0.3215 -0.6725
   40MOL0     C 5214  10.519   4.504   8.906  0.7323  0.3896  0.7152
   40MOL0     H 5215  10.830   4.191   9.106 -2.5505  1.3541 -0.5164
   40MOL0     H 5216  10.926   3.937   9.112  0.4649  0.6711 -0.5451
   40MOL0     H 5217  10.780   3.662   8.799  1.1075  2.2494  0.6575
   40MOL0     H 5218  10.741   3.651   8.975 -0.3418  1.7711 -0.5465
   40MOL0     H 5219  10.933   3.478   8.994  2.4147  0.5027 -0.0020
   40MOL0     H 5220  10.989   3.549   8.847  0.3961 -0.0145  0.6125
   40MOL0     H 5221  10.743   3.438   8.753 -1.8776  1.6609  1.6860
   40MOL0     H 5222  10.748   3.372   8.906  1.4812  1.9736  2.1745
   40MOL0     H 5223  10.970   3.311   8.695  0.2477  1.9611  0.1623
   40MOL0     H 5224  10.958   3.262   8.862  0.2910  0.7779  0.4646
   40MOL0     H 5225  10.724   3.177   8.675 -1.9473 -2.9583  0.5361
   40MOL0     H 5226  10.772   3.109   8.825  2.2699 -2.9384  0.2158
   40MOL0     H 5227  10.825   2.960   8.636  1.8972 -2.7150 -0.7111
   40MOL0     H 5228  10.990   3.016   8.686  0.8614  1.0169 -0.8031
   40MOL0     H 5229  10.829   3.126   8.459 -1.3228 -0.0697  0.0269
   40MOL0     H 5230  10.987   3.180   8.516 -0.8741 -0.1215 -0.0100
   40MOL0     H 5231  10.914   2.904   8.439 -2.2237  2.1360  1.3193
   40MOL0     H 5232  11.087   2.968   8.450  0.6680 -1.0883 -2.7011
   40MOL0     H 5233  11.162   3.142   8.245  1.1153  0.4875 -0.7119
   40MOL0     H 5234  11.200   3.207   7.994  2.8701 -3.6455 -0.5000
   40MOL0     H 5235  11.047   3.183   7.903  1.2172  3.4492 -0.4894
   40MOL0     H 5236  11.166   3.046   7.783  1.1506 -2.6983 -0.9136
   40MOL0     H 5237  11.109   2.935   7.914 -0.0237  0.1940  2.1989
   40MOL0     H 5238  11.337   2.946   8.019 -1.2410 -2.0043  0.6631
   40MOL0     H 5239  11.328   2.871   7.856 -1.6676  0.2309 -0.0840
   40MOL0     H 5240  11.413   3.132   7.942  1.7374 -0.4571  0.5389
   40MOL0     H 5241  11.385   3.086   7.766 -0.4362 -2.7357 -1.2360
   40MOL0     H 5242  11.610   3.039   8.111  1.5471 -3.1307 -2.1674
   40MOL0     H 5243  11.760   3.216   8.214  1.2957 -1.6856 -0.1051
   40MOL0     H 5244  12.273   3.343   8.039 -0.6332  0.6777 -2.2305
   40MOL0     H 5245  12.455   3.478   8.098 -1.5931 -2.1308 -0.9754
   40MOL0     H 5246  12.595   3.632   8.267  1.4870  0.4235  0.8373
   40MOL0     H 5247  12.454   3.646   8.359  2.3524 -2.0324 -0.4435
   40MOL0     H 5248  12.555   3.912   8.314 -1.3621 -0.5187  0.1625
   40MOL0     H 5249  12.663   3.811   8.422  0.0074 -0.8096 -0.5463
   40MOL0     H 5250  12.460   3.745   8.560 -1.2199 -0.6760 -0.8481
   40MOL0     H 5251  12.361   3.859   8.465 -1.5293 -3.1653  0.8613
   40MOL0     H 5252  12.616   3.949   8.616 -1.1856 -1.2005  3.5134
   40MOL0     H 5253  12.499   4.044   8.528  2.6153 -0.1565 -2.5327
   40MOL0     H 5254  12.443   3.882   8.785  2.3628  1.2926  1.0025
   40MOL0     H 5255  12.324   3.972   8.683 -0.2723 -0.0032  2.3986
   40MOL0     H 5256  12.455   4.174   8.742 -3.1885 -0.1783  0.5940
   40MOL0     H 5257  12.554   4.082   8.855  0.9130 -0.9884 -1.2318
   40MOL0     H 5258  12.246   4.088   8.863  0.9835 -1.6409 -0.8307
   40MOL0     H 5259  12.357   4.039   8.989 -0.6817 -2.3402 -2.0120
   40MOL0     H 5260  12.423   4.280   9.035  0.4827  0.9941 -0.6267
   40MOL0     H 5261  12.254   4.242   9.048  1.0050  1.6014  1.0513
   40MOL0     H 5262  12.185   3.816   8.152 -4.2269 -2.0078  2.1001
   40MOL0     H 5263  12.003   3.671   8.074 -0.5287 -1.0658 -0.3377
   40MOL0     H 5264  11.892   3.315   7.816  0.1710 -0.6383 -1.4854
   40MOL0     H 5265  11.754   3.153   7.718 -3.2790 -2.8802  0.0571
   40MOL0     H 5266  10.716   3.855   8.756 -1.8917  0.0375  0.4967
   40MOL0     H 5267  10.673   4.079   8.733  1.0283 -0.6392 -0.0416
   40MOL0     H 5268  10.808   4.668   8.978  1.4105  0.0137 -2.6851
   40MOL0     H 5269  10.653   4.863   8.958  3.4821 -1.4387 -0.0240
   40MOL0     H 5270  10.500   5.002   8.843  2.6371  0.4889  3.7832
   40MOL0     H 5271  10.437   4.969   9.004  3.2229 -2.6282 -0.5066
   40MOL0     H 5272  10.314   5.161   8.898 -2.6398  0.9996 -1.7704
   40MOL0     H 5273  10.276   5.050   8.762  0.6275 -0.1257 -0.6842
   40MOL0     H 5274  10.195   5.029   9.060  0.0972 -2.8913  0.0766
   40MOL0     H 5275  10.168   4.900   8.964  3.7139 -0.1645  2.7626
   40MOL0     H 5276   9.966   5.066   9.012  1.5065 -0.5293  1.5218
   40MOL0     H 5277  10.028   5.188   8.910 -2.9987 -0.6400 -1.9383
   40MOL0     H 5278   9.861   5.001   8.600 -1.6989  2.7789  0.5480
   40MOL0     H 5279  10.343   4.601   8.823 -1.8439  3.3074  1.9003
   40MOL0     H 5280  10.470   4.409   8.888 -1.0608  1.6090 -1.2967
   41MOL0     O 5281   4.314   2.881   4.492  0.6829  0.3575 -0.7974
   41MOL0     C 5282   4.310   2.780   4.560 -0.5170 -0.3963  0.2041
   41MOL0     O 5283   4.257   2.653   4.522  0.1886 -0.9852 -1.4430
   41MOL0     C 5284   4.182   2.644   4.411 -0.9716  0.0019 -0.1281
   41MOL0     C 5285   4.208   2.535   4.341 -0.8094  0.4115  0.7450
   41MOL0     C 5286   4.133   2.498   4.229 -0.2823  0.1007  0.0438
   41MOL0     C 5287   4.019   2.586   4.190  0.5277 -0.0668  0.1521
   41MOL0     O 5288   3.948   2.564   4.073 -0.3392 -0.7854 -1.0763
   41MOL0     C 5289   3.982   2.460   3.977 -0.3051  0.3899 -0.5688
   41MOL0     C 5290   3.928   2.321   4.018 -0.5356 -0.1853  0.4802
   41MOL0     C 5291   3.775   2.318   4.030  0.0420 -1.3723  0.0358
   41MOL0     C 5292   3.722   2.173   4.063  0.7518 -0.7002  0.4449
   41MOL0     C 5293   3.796   2.118   4.188 -0.6432  1.1075  0.3784
   41MOL0     C 5294   3.793   2.205   4.318  0.0621 -0.3827 -0.5541
   41MOL0     C 5295   3.875   2.138   4.428  0.1275  0.3792 -0.5277
   41MOL0     C 5296   3.931   2.234   4.539 -0.5108  0.7246 -0.8114
   41MOL0     N 5297   4.025   2.160   4.626  0.2137 -0.4330 -0.5078
   41MOL0     C 5298   4.153   2.122   4.592  0.8038 -0.9058 -0.5024
   41MOL0     C 5299   4.188   2.053   4.699  0.7337 -0.1066  0.3928
   41MOL0     C 5300   4.320   1.999   4.730  0.1019  0.5034 -0.4589
   41MOL0     C 5301   4.429   2.101   4.702  0.1514 -1.0085 -0.5537
   41MOL0     C 5302   4.426   2.230   4.790 -0.0344  0.5601  0.6156
   41MOL0     C 5303   4.509   2.347   4.748  0.5447 -0.1474 -0.4170
   41MOL0     O 5304   4.643   2.306   4.757  0.1385  0.1608 -0.2851
   41MOL0     C 5305   4.714   2.305   4.877  0.7679 -0.2838  0.5353
   41MOL0     C 5306   4.828   2.229   4.870 -0.2534  0.2454  0.0862
   41MOL0     C 5307   4.916   2.233   4.990 -0.7435 -0.1975  0.7051
   41MOL0     C 5308   4.886   2.312   5.105 -0.2442  0.6441 -0.2908
   41MOL0     C 5309   4.965   2.284   5.228 -0.8119  0.0526 -0.5811
   41MOL0     O 5310   5.055   2.180   5.226 -0.2562  0.2314 -0.4049
   41MOL0     C 5311   5.110   2.148   5.350  0.0381 -0.5118  1.2316
   41MOL0     C 5312   5.048   2.135   5.477  0.1519 -0.4444 -0.5250
   41MOL0     C 5313   5.107   2.071   5.580 -0.7541  0.8475 -0.0607
   41MOL0     C 5314   5.248   2.024   5.578 -0.5093  0.2990  0.2534
   41MOL0     O 5315   5.298   1.943   5.680 -1.2779  0.4230 -0.2355
   41MOL0     C 5316   5.438   1.913   5.682  0.1673 -0.9138  0.6404
   41MOL0     C 5317   5.491   1.883   5.823 -0.2315  0.5446  0.1779
   41MOL0     C 5318   5.623   1.800   5.819  0.3295 -0.7602 -0.2691
   41MOL0     C 5319   5.678   1.774   5.959 -0.0870  0.5516  0.0336
   41MOL0     C 5320   5.775   1.889   6.006  0.2140 -0.1444  0.6042
   41MOL0     C 5321   5.721   1.997   6.104 -0.0061 -1.1568 -0.0280
   41MOL0     C 5322   5.833   2.080   6.172  0.4042 -0.5100 -0.1590
   41MOL0     C 5323   5.774   2.175   6.272  0.2944 -0.0658 -0.3963
   41MOL0    Cl 5324   5.693   2.314   6.189  0.1218  0.7772 -0.0354
   41MOL0     C 5325   5.311   2.056   5.455 -0.4065 -0.5279 -0.1850
   41MOL0     C 5326   5.245   2.111   5.347  0.3029 -0.1114  0.8288
   41MOL0     O 5327   4.941   2.362   5.319 -0.6720 -0.1224  0.0139
   41MOL0     C 5328   4.774   2.397   5.097  0.1996 -1.1055 -0.6601
   41MOL0     C 5329   4.690   2.390   4.991  0.0930  0.5298  0.3406
   41MOL0     N 5330   4.095   2.067   4.804 -0.0548  0.2184  0.0292
   41MOL0     N 5331   3.991   2.126   4.757 -0.4348  0.1856 -0.8760
   41MOL0     C 5332   3.986   2.696   4.267 -0.9708  0.7106 -0.1588
   41MOL0     C 5333   4.072   2.724   4.379  0.4539  0.2927  0.7225
   41MOL0     C 5334   4.361   2.773   4.699 -0.6436 -0.5003 -0.7414
   41MOL0     C 5335   4.328   2.662   4.784  0.3064 -0.7688 -1.0986
   41MOL0     C 5336   4.385   2.655   4.912 -0.4821  0.1550  0.0851
   41MOL0     C 5337   4.473   2.760   4.956  0.4431  0.4075 -0.5410
   41MOL0     O 5338   4.550   2.742   5.068 -0.8383  1.1639 -0.3748
   41MOL0     C 5339   4.507   2.679   5.191 -0.3313  0.4019  0.5866
   41MOL0     C 5340   4.564   2.766   5.299 -0.3542  0.0992 -0.4860
   41MOL0     C 5341   4.556   2.686   5.437 -0.1890  0.3545  0.0230
   41MOL0     C 5342   4.629   2.756   5.546  0.2632  0.4002 -0.8506
   41MOL0     C 5343   4.611   2.704   5.685 -0.5121  0.6248  0.3808
   41MOL0     C 5344   4.578   2.660   5.800  0.0444 -0.2649  0.2324
   41MOL0     C 5345   4.489   2.861   4.877 -1.0176  0.2498 -0.3578
   41MOL0     C 5346   4.438   2.875   4.746  0.0430 -0.4791 -0.9544
   41MOL0     H 5347   4.286   2.464   4.367  2.0069  3.1140  0.3216
   41MOL0     H 5348   4.167   2.420   4.162 -3.1841 -1.0662 -0.2062
   41MOL0     H 5349   4.089   2.477   3.968 -0.4138  3.1107  1.7288
   41MOL0     H 5350   3.928   2.487   3.886  1.3147 -0.4619 -1.8391
   41MOL0     H 5351   3.968   2.284   4.113 -1.8824 -1.7815  0.4655
   41MOL0     H 5352   3.975   2.256   3.944  1.4418 -0.1943  1.6665
   41MOL0     H 5353   3.721   2.337   3.937  2.1727  0.2450 -0.9466
   41MOL0     H 5354   3.736   2.385   4.107 -0.8585 -0.0795 -1.4857
   41MOL0     H 5355   3.616   2.164   4.089  0.8963  0.2764  1.4668
   41MOL0     H 5356   3.738   2.104   3.980 -1.3699  0.2679 -0.8347
   41MOL0     H 5357   3.890   2.078   4.149 -2.7438  0.7157 -5.1905
   41MOL0     H 5358   3.745   2.026   4.215  0.8442  0.1567  0.0758
   41MOL0     H 5359   3.692   2.217   4.359  1.0494 -0.1216  2.0298
   41MOL0     H 5360   3.828   2.305   4.291  1.1755 -1.2066 -2.3263
   41MOL0     H 5361   3.800   2.064   4.459  0.2251  0.0944 -0.9664
   41MOL0     H 5362   3.964   2.089   4.389  0.4510  0.5059  0.0421
   41MOL0     H 5363   3.844   2.261   4.599  0.5640 -0.6680  1.5603
   41MOL0     H 5364   3.964   2.329   4.496 -0.1264  0.9823  0.0274
   41MOL0     H 5365   4.215   2.152   4.509  3.0551 -1.6215  0.8351
   41MOL0     H 5366   4.352   1.909   4.677 -0.2372  0.0429  0.1020
   41MOL0     H 5367   4.327   1.979   4.838  1.8309 -0.6083 -0.7452
   41MOL0     H 5368   4.426   2.127   4.595 -0.8425 -1.3374 -0.6194
   41MOL0     H 5369   4.524   2.048   4.711  0.9385  0.6788  2.4765
   41MOL0     H 5370   4.323   2.266   4.787  0.0499  0.7836  0.3910
   41MOL0     H 5371   4.447   2.211   4.896  3.7739 -0.1555 -0.1293
   41MOL0     H 5372   4.485   2.429   4.816  0.6607  1.2069 -1.9757
   41MOL0     H 5373   4.482   2.386   4.650  0.1252  1.0062  0.1390
   41MOL0     H 5374   4.849   2.171   4.781 -0.2516  1.0725 -0.4647
   41MOL0     H 5375   5.010   2.181   4.997 -0.4595  0.4571  2.1212
   41MOL0     H 5376   4.943   2.151   5.498  0.0623 -1.3797 -0.2125
   41MOL0     H 5377   5.041   2.064   5.666 -1.3255  2.7205 -0.2919
   41MOL0     H 5378   5.496   1.997   5.642 -0.6422 -0.5597  0.1622
   41MOL0     H 5379   5.457   1.825   5.620 -0.6856 -0.4392 -0.3325
   41MOL0     H 5380   5.411   1.838   5.884 -1.4935  3.3537  0.7379
   41MOL0     H 5381   5.526   1.975   5.869  1.7395  1.0165 -2.0682
   41MOL0     H 5382   5.697   1.847   5.754 -3.1193  0.4118 -3.6922
   41MOL0     H 5383   5.596   1.700   5.784  0.9138 -1.3715  0.9821
   41MOL0     H 5384   5.600   1.765   6.035 -0.1124 -0.7890 -0.1225
   41MOL0     H 5385   5.749   1.690   5.961  0.5292  1.0646 -0.0882
   41MOL0     H 5386   5.824   1.944   5.925  2.2822  0.5526  2.2479
   41MOL0     H 5387   5.862   1.846   6.055  0.4081 -3.3249 -2.1812
   41MOL0     H 5388   5.637   1.967   6.166 -2.0091 -0.9645 -2.5025
   41MOL0     H 5389   5.675   2.069   6.036  3.6418  2.0318  0.5395
   41MOL0     H 5390   5.900   2.008   6.219  1.8314  0.1467 -1.0794
   41MOL0     H 5391   5.886   2.130   6.090 -0.5991 -0.4885 -0.8137
   41MOL0     H 5392   5.847   2.213   6.344  2.4884 -2.1301 -1.3917
   41MOL0     H 5393   5.695   2.129   6.333 -2.0599  4.0075 -0.0311
   41MOL0     H 5394   5.416   2.043   5.431 -0.3571 -0.2653 -0.1188
   41MOL0     H 5395   5.295   2.119   5.251 -1.1927  0.6407  0.0675
   41MOL0     H 5396   4.744   2.459   5.182  1.4666  1.6851 -2.1000
   41MOL0     H 5397   4.598   2.447   5.000 -0.3956  0.4438 -2.7539
   41MOL0     H 5398   3.893   2.748   4.243 -2.1735 -0.2304  2.1142
   41MOL0     H 5399   4.045   2.814   4.433 -0.3144  0.3593  0.2403
   41MOL0     H 5400   4.257   2.584   4.758 -1.8535  0.6917  0.1297
   41MOL0     H 5401   4.385   2.569   4.979  0.1986  1.6075  2.0337
   41MOL0     H 5402   4.541   2.575   5.192 -1.2373  0.0844  0.2248
   41MOL0     H 5403   4.402   2.650   5.206  0.0023 -1.5346 -0.4571
   41MOL0     H 5404   4.667   2.794   5.278 -0.1320 -0.7078 -0.4976
   41MOL0     H 5405   4.500   2.855   5.303 -1.3210 -0.5883 -0.1168
   41MOL0     H 5406   4.595   2.584   5.432 -1.5931 -0.3248  1.7044
   41MOL0     H 5407   4.453   2.670   5.471  0.4783 -1.1115  1.5478
   41MOL0     H 5408   4.734   2.746   5.520 -0.0525 -2.5473 -1.3680
   41MOL0     H 5409   4.590   2.858   5.541  0.2861  0.3425 -3.2667
   41MOL0     H 5410   4.539   2.621   5.892  1.2896  2.1396  1.8767
   41MOL0     H 5411   4.563   2.931   4.915 -0.6649  0.4157 -1.3258
   41MOL0     H 5412   4.480   2.951   4.681  4.2940 -1.1862  0.6464
   42MOL0     O 5413   9.079   4.845  10.826 -0.2289 -0.5073 -0.7930
   42MOL0     C 5414   9.054   4.955  10.884  0.5671 -0.5786 -0.0366
   42MOL0     O 5415   9.131   5.015  10.979 -1.3188 -0.4650  0.0609
   42MOL0     C 5416   9.241   4.953  11.027 -0.3449 -0.4208  0.0103
   42MOL0     C 5417   9.344   5.024  11.072  0.5554 -0.9346 -0.5676
   42MOL0     C 5418   9.458   4.973  11.143  0.6663 -0.0256  0.5994
   42MOL0     C 5419   9.458   4.835  11.166  0.4932  0.5780  0.4232
   42MOL0     O 5420   9.568   4.779  11.226  0.1691  0.4024 -0.0287
   42MOL0     C 5421   9.583   4.633  11.228  0.4500  0.9676 -0.8189
   42MOL0     C 5422   9.709   4.575  11.285 -0.2026 -0.3007 -0.4781
   42MOL0     C 5423   9.831   4.639  11.227  0.5266  0.1094 -0.8669
   42MOL0     C 5424   9.957   4.618  11.309  0.0662  0.0341  0.5957
   42MOL0     C 5425   9.979   4.480  11.365  0.5704  0.4858  0.2518
   42MOL0     C 5426  10.121   4.470  11.420 -0.2694 -0.3200 -0.2618
   42MOL0     C 5427  10.234   4.448  11.320 -0.1134 -0.0601 -0.4487
   42MOL0     C 5428  10.363   4.449  11.399 -0.4231 -0.2181 -0.5246
   42MOL0     N 5429  10.418   4.588  11.381 -1.3895 -0.3410  0.1989
   42MOL0     C 5430  10.561   4.608  11.376  0.5621  0.1094 -0.0692
   42MOL0     C 5431  10.574   4.745  11.369  0.4276 -0.5991  0.8320
   42MOL0     C 5432  10.702   4.804  11.328 -0.4866 -0.2003  0.3344
   42MOL0     C 5433  10.719   4.812  11.172 -0.5153 -0.2362 -0.2023
   42MOL0     C 5434  10.615   4.898  11.103 -0.2181  0.3365  0.2714
   42MOL0     C 5435  10.661   4.937  10.961  1.1670 -0.7771  1.4630
   42MOL0     O 5436  10.771   5.036  10.959 -0.3108  0.9376 -0.6664
   42MOL0     C 5437  10.788   5.101  10.841 -0.4312 -0.7180  0.1094
   42MOL0     C 5438  10.727   5.078  10.715  0.3458 -0.2591  1.1587
   42MOL0     C 5439  10.759   5.143  10.598 -0.8918 -0.1068 -0.1432
   42MOL0     C 5440  10.855   5.244  10.606 -0.1236 -1.0910 -0.0863
   42MOL0     C 5441  10.910   5.312  10.486 -0.4905 -0.3479  1.1750
   42MOL0     O 5442  10.988   5.429  10.504 -0.0399  0.7029  0.2433
   42MOL0     C 5443  11.072   5.465  10.400  0.3961  0.3878  0.1153
   42MOL0     C 5444  11.202   5.468  10.426  0.8526  0.3619  1.0101
   42MOL0     C 5445  11.291   5.513  10.328 -0.1639 -0.5366  0.2014
   42MOL0     C 5446  11.244   5.557  10.200  0.1914  0.2885  0.5093
   42MOL0     O 5447  11.344   5.584  10.111  0.5916  0.2781  0.5953
   42MOL0     C 5448  11.346   5.719  10.080  1.1139 -0.1210  0.4898
   42MOL0     C 5449  11.444   5.749   9.967 -0.5042 -0.1769  0.0297
   42MOL0     C 5450  11.587   5.766  10.016  1.1410 -1.0374 -0.8098
   42MOL0     C 5451  11.661   5.870   9.924  0.3896 -0.1248 -0.7236
   42MOL0     C 5452  11.790   5.925   9.985 -0.3695 -0.2695 -0.6767
   42MOL0     C 5453  11.833   6.044   9.895  0.1695 -0.8867 -0.1752
   42MOL0     C 5454  11.963   6.117   9.947  0.4404 -0.1651 -0.1801
   42MOL0     C 5455  11.912   6.224  10.050  0.5170  0.3383 -0.7989
   42MOL0    Cl 5456  12.040   6.324  10.098 -0.2128 -0.3850  0.5961
   42MOL0     C 5457  11.101   5.560  10.177 -0.4914  0.5065 -0.7559
   42MOL0     C 5458  11.019   5.503  10.276 -0.2058 -0.0646  0.2317
   42MOL0     O 5459  10.898   5.250  10.381 -0.1195  0.4205 -0.9325
   42MOL0     C 5460  10.916   5.272  10.736  1.8337 -0.5133  0.6074
   42MOL0     C 5461  10.877   5.206  10.857 -0.0817  0.0757  0.1684
   42MOL0     N 5462  10.450   4.805  11.398  0.2002 -0.3767 -0.6242
   42MOL0     N 5463  10.365   4.711  11.416  0.2578  0.0445  0.0376
   42MOL0     C 5464   9.340   4.765  11.136  0.5617  0.2820 -0.3074
   42MOL0     C 5465   9.237   4.819  11.073  0.0041 -0.2531  0.5954
   42MOL0     C 5466   8.934   5.042  10.851  1.0648  0.0400  0.5345
   42MOL0     C 5467   8.912   5.173  10.906  0.3405  0.3607  0.0449
   42MOL0     C 5468   8.800   5.249  10.869  1.0063  1.4817  0.3424
   42MOL0     C 5469   8.703   5.195  10.791 -0.1654  0.7553  0.2606
   42MOL0     O 5470   8.603   5.270  10.745  0.3934  0.5092  0.6239
   42MOL0     C 5471   8.634   5.365  10.634 -0.5604 -0.1311 -0.5812
   42MOL0     C 5472   8.511   5.371  10.559  0.5402 -0.3879 -0.1152
   42MOL0     C 5473   8.456   5.237  10.502 -1.1639 -0.7441  1.0815
   42MOL0     C 5474   8.496   5.215  10.356  1.0405 -0.1377 -1.1001
   42MOL0     C 5475   8.412   5.107  10.302  0.3374  0.6342 -0.1630
   42MOL0     C 5476   8.337   5.017  10.266  0.4827 -0.0250  0.0755
   42MOL0     C 5477   8.720   5.064  10.738 -0.4419 -0.9642 -0.5485
   42MOL0     C 5478   8.838   4.986  10.772 -0.3427  0.7083  0.2556
   42MOL0     H 5479   9.347   5.126  11.037  0.3277 -1.5568 -2.5611
   42MOL0     H 5480   9.541   5.036  11.174 -0.4603  0.8595  1.8933
   42MOL0     H 5481   9.596   4.586  11.129  2.4445 -0.7977  0.2024
   42MOL0     H 5482   9.495   4.586  11.273  1.1450  0.9431  0.5480
   42MOL0     H 5483   9.700   4.467  11.270 -3.9461 -0.8350  3.5501
   42MOL0     H 5484   9.709   4.600  11.391 -3.2382  2.4480 -0.9386
   42MOL0     H 5485   9.825   4.749  11.225  2.3264  0.4321  2.9013
   42MOL0     H 5486   9.855   4.591  11.132 -1.6249  0.7601 -1.8044
   42MOL0     H 5487  10.046   4.666  11.266  0.8860 -1.4452  0.5916
   42MOL0     H 5488   9.948   4.673  11.404  2.9202  0.6016  0.6238
   42MOL0     H 5489   9.969   4.412  11.279  1.4637 -0.4990  0.9007
   42MOL0     H 5490   9.913   4.458  11.450  1.7074  2.2606  1.6682
   42MOL0     H 5491  10.130   4.386  11.489  1.6387 -2.4359 -2.9059
   42MOL0     H 5492  10.141   4.566  11.469 -1.0083 -0.7852  0.9774
   42MOL0     H 5493  10.221   4.348  11.277 -1.3342 -0.7906  1.4370
   42MOL0     H 5494  10.229   4.524  11.242 -0.9924  0.9468  0.5510
   42MOL0     H 5495  10.428   4.374  11.355  0.2807  0.8346 -1.3254
   42MOL0     H 5496  10.342   4.425  11.503  0.5924  0.1914 -0.2132
   42MOL0     H 5497  10.636   4.533  11.351 -0.4269 -0.9167  0.0068
   42MOL0     H 5498  10.783   4.739  11.362  0.3020 -0.6287 -2.2070
   42MOL0     H 5499  10.720   4.903  11.370  3.1769 -0.1705 -0.9686
   42MOL0     H 5500  10.733   4.717  11.120 -0.9396 -0.6141  0.3572
   42MOL0     H 5501  10.812   4.867  11.155 -0.8242  0.1683 -0.6184
   42MOL0     H 5502  10.521   4.844  11.088 -0.1038  0.7070 -2.2067
   42MOL0     H 5503  10.608   4.990  11.162  1.7192  0.3830  0.4939
   42MOL0     H 5504  10.575   4.986  10.913  0.7982 -2.4738  0.3160
   42MOL0     H 5505  10.686   4.851  10.900 -1.6882 -0.7876  0.1572
   42MOL0     H 5506  10.645   5.007  10.710  2.2009 -2.4568  0.3807
   42MOL0     H 5507  10.713   5.116  10.504  3.4056 -1.4032 -2.1430
   42MOL0     H 5508  11.232   5.439  10.526  1.2257 -1.3048  0.4470
   42MOL0     H 5509  11.397   5.514  10.350  0.3997 -0.9891 -2.2047
   42MOL0     H 5510  11.380   5.769  10.170  3.8508  0.5847 -0.8333
   42MOL0     H 5511  11.246   5.758  10.057 -0.5703 -0.0460  6.3775
   42MOL0     H 5512  11.408   5.846   9.932 -1.1241 -0.7939 -1.0806
   42MOL0     H 5513  11.433   5.677   9.886 -1.5477 -1.9073  1.6294
   42MOL0     H 5514  11.645   5.675  10.034  2.2483  0.2794  3.1292
   42MOL0     H 5515  11.586   5.812  10.115 -0.9647  2.7816 -2.3769
   42MOL0     H 5516  11.692   5.836   9.825  0.0639  0.2360 -0.9523
   42MOL0     H 5517  11.591   5.950   9.896 -0.4646 -1.0472 -1.2886
   42MOL0     H 5518  11.867   5.848   9.993 -2.2282 -2.0563  1.3220
   42MOL0     H 5519  11.771   5.962  10.085  3.2994 -2.0125  0.8506
   42MOL0     H 5520  11.749   6.113   9.888 -0.1981 -1.5097 -2.6172
   42MOL0     H 5521  11.835   6.006   9.793  0.4100  4.7162 -2.5939
   42MOL0     H 5522  12.027   6.044   9.997 -1.0070 -1.8165 -0.6607
   42MOL0     H 5523  12.011   6.170   9.865  0.9665  4.3771  2.6499
   42MOL0     H 5524  11.880   6.164  10.135  2.2245 -0.8725 -0.9545
   42MOL0     H 5525  11.834   6.289  10.009 -0.0526  0.1717 -0.0072
   42MOL0     H 5526  11.071   5.603  10.082  2.5402  1.6337 -1.3079
   42MOL0     H 5527  10.913   5.502  10.253  0.4170 -3.2995 -3.6722
   42MOL0     H 5528  10.991   5.346  10.760  0.0710  0.5559  3.2976
   42MOL0     H 5529  10.930   5.214  10.951  1.0824  0.6582 -0.5160
   42MOL0     H 5530   9.335   4.663  11.174  3.8166 -0.6060 -1.8610
   42MOL0     H 5531   9.152   4.754  11.054  1.5824 -1.7835 -1.6758
   42MOL0     H 5532   8.991   5.224  10.959  0.6944 -1.4061  1.3138
   42MOL0     H 5533   8.785   5.351  10.905 -1.8797  0.2571  3.0475
   42MOL0     H 5534   8.714   5.324  10.571 -1.9884 -1.1743 -1.7923
   42MOL0     H 5535   8.650   5.468  10.668 -4.5874  0.5444 -0.2852
   42MOL0     H 5536   8.438   5.408  10.632  3.0520  0.6124  2.0494
   42MOL0     H 5537   8.509   5.459  10.495 -1.3159 -1.1844 -1.2517
   42MOL0     H 5538   8.349   5.231  10.525 -1.6093  3.6294  0.9799
   42MOL0     H 5539   8.504   5.161  10.564  0.2426  0.0992  1.0615
   42MOL0     H 5540   8.480   5.305  10.296 -0.8353  0.4926  0.2362
   42MOL0     H 5541   8.601   5.189  10.370  1.1186 -0.4559 -2.2307
   42MOL0     H 5542   8.272   4.937  10.238  2.8398 -2.6906  1.6503
   42MOL0     H 5543   8.644   5.027  10.671  1.3313  1.0980 -3.9591
   42MOL0     H 5544   8.842   4.890  10.721  0.3213  2.3664 -3.1227
   43MOL0     O 5545  10.494   0.146   8.992 -0.4431  0.8502  0.3363
   43MOL0     C 5546  10.390   0.117   9.043  0.4958 -0.0949  0.5187
   43MOL0     O 5547  10.371   0.096   9.179 -1.0516  0.7659  0.2746
   43MOL0     C 5548  10.485   0.030   9.242 -0.7513  0.6571  0.3110
   43MOL0     C 5549  10.498  -0.108   9.264 -1.2007  0.8175 -0.2856
   43MOL0     C 5550  10.620  -0.155   9.326 -0.1311 -0.1413  0.4923
   43MOL0     C 5551  10.730  -0.071   9.359 -0.3566 -0.0334 -0.0539
   43MOL0     O 5552  10.848  -0.128   9.387 -0.4443 -0.3813  0.2040
   43MOL0     C 5553  10.911  -0.066   9.507 -0.2969  0.0585 -0.0906
   43MOL0     C 5554  10.938  -0.175   9.599  0.5444 -0.2626  0.4889
   43MOL0     C 5555  11.083  -0.228   9.596  0.8641  0.4608 -0.8774
   43MOL0     C 5556  11.108  -0.310   9.474 -0.4417 -0.1073  0.6733
   43MOL0     C 5557  11.260  -0.321   9.444 -0.5178  0.0821  0.2727
   43MOL0     C 5558  11.310  -0.272   9.305  0.0515 -0.2736 -0.6923
   43MOL0     C 5559  11.416  -0.360   9.238 -0.3930  0.0814  0.6515
   43MOL0     C 5560  11.548  -0.374   9.318 -0.1407  0.0343 -0.4586
   43MOL0     N 5561  11.602  -0.254   9.386 -0.4751 -0.4579  0.2720
   43MOL0     C 5562  11.642  -0.144   9.327  0.1178  0.6473  0.6460
   43MOL0     C 5563  11.706  -0.075   9.414  0.2666  0.1287 -0.1485
   43MOL0     C 5564  11.785   0.058   9.399  0.3915  0.1960  0.2562
   43MOL0     C 5565  11.843   0.071   9.260 -0.2869  0.4347 -0.0459
   43MOL0     C 5566  11.967   0.168   9.264 -1.1422  0.0883  0.3703
   43MOL0     C 5567  12.045   0.163   9.133 -1.0900  0.3714  1.0965
   43MOL0     O 5568  12.176   0.224   9.139  0.2423 -0.1072  0.1572
   43MOL0     C 5569  12.224   0.293   9.036 -0.1647 -0.6140 -0.0632
   43MOL0     C 5570  12.224   0.436   9.045 -0.0847  0.9434 -0.2585
   43MOL0     C 5571  12.288   0.509   8.940  0.2866 -0.5676  0.3729
   43MOL0     C 5572  12.358   0.440   8.838 -0.1648 -0.2941 -0.5707
   43MOL0     C 5573  12.441   0.514   8.742 -0.3617  0.1415  0.0963
   43MOL0     O 5574  12.464   0.434   8.635 -0.2961  0.1241 -0.1461
   43MOL0     C 5575  12.519   0.489   8.520 -0.2732 -1.3558  0.0189
   43MOL0     C 5576  12.449   0.578   8.440  0.4800 -0.2453  0.4977
   43MOL0     C 5577  12.510   0.643   8.328 -0.6603  0.8188 -0.9521
   43MOL0     C 5578  12.639   0.615   8.288  0.2201  0.1771  0.2326
   43MOL0     O 5579  12.692   0.681   8.175  0.1987  0.5019  0.8445
   43MOL0     C 5580  12.829   0.660   8.123  0.7101 -0.8497  0.0044
   43MOL0     C 5581  12.829   0.760   8.000  0.1860 -0.1243  0.7444
   43MOL0     C 5582  12.734   0.709   7.886 -0.1850  0.4231  0.8008
   43MOL0     C 5583  12.720   0.808   7.774  0.0278 -0.2029  0.0915
   43MOL0     C 5584  12.630   0.748   7.670 -0.0585 -0.1261 -0.2804
   43MOL0     C 5585  12.569   0.863   7.606  0.0041 -0.3617 -0.0081
   43MOL0     C 5586  12.475   0.818   7.503  0.0670  0.7000 -0.8157
   43MOL0     C 5587  12.394   0.936   7.445  0.3839  0.8669 -0.0730
   43MOL0    Cl 5588  12.520   1.072   7.395  0.2682  0.2322  0.1140
   43MOL0     C 5589  12.714   0.515   8.366  0.5850  0.2418 -0.2616
   43MOL0     C 5590  12.651   0.463   8.480 -0.5806 -0.2333 -0.5535
   43MOL0     O 5591  12.469   0.638   8.752 -0.3744  0.7519  1.0376
   43MOL0     C 5592  12.370   0.301   8.852  1.1298 -0.7376  0.1591
   43MOL0     C 5593  12.292   0.230   8.940 -0.7054 -1.0937 -0.5195
   43MOL0     N 5594  11.705  -0.138   9.540 -0.0257  0.2163 -0.1768
   43MOL0     N 5595  11.626  -0.240   9.516 -0.4552  0.8766 -0.2720
   43MOL0     C 5596  10.703   0.069   9.344 -0.1450 -0.0066  0.5090
   43MOL0     C 5597  10.586   0.120   9.292 -0.5701 -0.5737  0.1059
   43MOL0     C 5598  10.269   0.118   8.962 -0.4910  0.4254  0.7594
   43MOL0     C 5599  10.269   0.127   8.821  0.2449  0.1753 -0.9586
   43MOL0     C 5600  10.154   0.161   8.751 -0.3190  0.1319  0.0549
   43MOL0     C 5601  10.026   0.149   8.817  0.3169  0.6492  0.0518
   43MOL0     O 5602   9.913   0.169   8.745  0.0720  0.4102 -0.3261
   43MOL0     C 5603   9.881   0.031   8.699  0.9186  0.4734  1.0466
   43MOL0     C 5604   9.806   0.038   8.565  0.1662  0.0323  0.4689
   43MOL0     C 5605   9.651   0.053   8.583 -0.5200  0.0346  0.0651
   43MOL0     C 5606   9.569   0.066   8.458 -0.8112 -0.1459 -0.3465
   43MOL0     C 5607   9.576  -0.044   8.359  1.2376  0.1418 -0.0129
   43MOL0     C 5608   9.565  -0.150   8.296  1.1804 -0.0669  0.1096
   43MOL0     C 5609  10.023   0.102   8.950  0.2303 -0.3973 -0.9441
   43MOL0     C 5610  10.145   0.094   9.022 -0.4871  0.4712 -1.0492
   43MOL0     H 5611  10.439  -0.176   9.203  0.9136 -0.5078 -0.9577
   43MOL0     H 5612  10.627  -0.263   9.336  3.3132  0.1074  2.3492
   43MOL0     H 5613  10.845   0.007   9.554 -1.4559 -0.2059 -1.2252
   43MOL0     H 5614  11.005  -0.020   9.477  1.6175 -1.6713  2.7817
   43MOL0     H 5615  10.858  -0.246   9.576 -1.3671  2.5825 -2.6599
   43MOL0     H 5616  10.913  -0.136   9.698 -1.9617  1.4686 -0.7332
   43MOL0     H 5617  11.092  -0.286   9.688 -3.4877  2.2058  0.9280
   43MOL0     H 5618  11.152  -0.144   9.604 -0.1849  1.3412 -0.6977
   43MOL0     H 5619  11.057  -0.406   9.484 -1.7713  0.6328  1.4232
   43MOL0     H 5620  11.065  -0.256   9.389  0.7342 -0.1100  0.0579
   43MOL0     H 5621  11.296  -0.424   9.441 -0.5357  0.0734 -2.4801
   43MOL0     H 5622  11.318  -0.268   9.520 -4.7250  4.3534  1.0185
   43MOL0     H 5623  11.342  -0.171   9.328  0.5004 -0.8689  1.5881
   43MOL0     H 5624  11.227  -0.270   9.234  0.3727  1.3239 -1.0441
   43MOL0     H 5625  11.372  -0.451   9.196  1.4532  1.5829 -5.6119
   43MOL0     H 5626  11.430  -0.297   9.151 -1.4220  3.3481  2.6848
   43MOL0     H 5627  11.618  -0.419   9.248  1.9974  1.5851  0.5821
   43MOL0     H 5628  11.519  -0.445   9.397  1.5470 -0.8275 -0.5816
   43MOL0     H 5629  11.639  -0.123   9.220 -3.5832 -0.0153  0.4793
   43MOL0     H 5630  11.871   0.063   9.467  0.2662 -1.7343  0.6114
   43MOL0     H 5631  11.722   0.145   9.421  0.0300  0.7350 -2.5833
   43MOL0     H 5632  11.761   0.104   9.196 -1.1148 -1.4114 -0.0172
   43MOL0     H 5633  11.865  -0.026   9.214 -2.8428  0.6061 -1.8416
   43MOL0     H 5634  11.939   0.272   9.285 -0.1973 -0.0878  2.7906
   43MOL0     H 5635  12.035   0.140   9.345  1.9088  2.2997 -1.2131
   43MOL0     H 5636  11.987   0.213   9.055  0.6984  2.0137  0.7506
   43MOL0     H 5637  12.063   0.061   9.097 -3.0577  1.0874 -2.2895
   43MOL0     H 5638  12.173   0.480   9.131 -1.1665 -2.1740  0.8201
   43MOL0     H 5639  12.278   0.616   8.956  3.1854 -0.1503 -0.0420
   43MOL0     H 5640  12.348   0.599   8.475  1.6456  0.6754  3.6632
   43MOL0     H 5641  12.472   0.729   8.272  0.7785  3.2531  1.5730
   43MOL0     H 5642  12.860   0.557   8.101 -2.2736 -0.9549 -5.2420
   43MOL0     H 5643  12.893   0.701   8.202 -1.2191  1.5545  0.4568
   43MOL0     H 5644  12.929   0.776   7.959 -0.3425  1.1040 -0.1408
   43MOL0     H 5645  12.787   0.854   8.037 -2.2472 -0.9175  0.2203
   43MOL0     H 5646  12.633   0.694   7.924  0.7147 -1.1271  2.7947
   43MOL0     H 5647  12.788   0.620   7.852 -0.1937 -0.2535  2.4490
   43MOL0     H 5648  12.659   0.889   7.815 -6.3455 -2.9311 -2.7123
   43MOL0     H 5649  12.814   0.849   7.736  2.1698 -2.1873  2.8225
   43MOL0     H 5650  12.553   0.688   7.719  0.1370 -0.7973 -0.7952
   43MOL0     H 5651  12.682   0.684   7.599 -1.5512 -3.9017  1.7598
   43MOL0     H 5652  12.655   0.924   7.575 -0.4532  1.0130  1.2972
   43MOL0     H 5653  12.526   0.930   7.682  3.3156  3.2834 -0.9538
   43MOL0     H 5654  12.538   0.763   7.434 -0.0241  0.6764 -0.8803
   43MOL0     H 5655  12.403   0.750   7.550 -0.5500 -0.9284 -3.8604
   43MOL0     H 5656  12.325   0.978   7.518  0.5259  2.6069 -0.8958
   43MOL0     H 5657  12.333   0.907   7.358 -1.5161  0.3648  1.3614
   43MOL0     H 5658  12.814   0.483   8.339  0.7921 -0.8973  1.6549
   43MOL0     H 5659  12.709   0.418   8.561 -2.6444  0.9611  1.7340
   43MOL0     H 5660  12.438   0.251   8.783  0.8282 -2.0285  0.7739
   43MOL0     H 5661  12.288   0.121   8.938 -1.3407 -1.2224  2.6818
   43MOL0     H 5662  10.776   0.148   9.362 -0.9057 -0.0519  5.0022
   43MOL0     H 5663  10.560   0.225   9.284  2.2872  0.3118  1.1582
   43MOL0     H 5664  10.357   0.130   8.757 -0.7249  1.9390 -2.2970
   43MOL0     H 5665  10.166   0.195   8.649 -0.9859  0.4436  0.0769
   43MOL0     H 5666   9.829  -0.023   8.778  1.4834  2.3963  2.8124
   43MOL0     H 5667   9.964  -0.026   8.657 -1.9146 -2.1473 -1.5526
   43MOL0     H 5668   9.852   0.116   8.504 -0.1626  0.6019  0.9469
   43MOL0     H 5669   9.813  -0.056   8.509 -2.1625  0.9374 -1.5366
   43MOL0     H 5670   9.628   0.146   8.636 -1.8070 -0.0143 -0.3658
   43MOL0     H 5671   9.610  -0.034   8.636 -0.6954 -0.5488 -1.0027
   43MOL0     H 5672   9.464   0.076   8.488 -0.6789  1.1876 -0.2517
   43MOL0     H 5673   9.590   0.165   8.416 -2.7296  0.8642  0.8776
   43MOL0     H 5674   9.531  -0.218   8.221 -0.4070  0.6388  0.1405
   43MOL0     H 5675   9.934   0.076   9.005  1.7841 -1.7794  1.0563
   43MOL0     H 5676  10.136   0.069   9.127  1.0964  0.6204 -0.8638
   44MOL0     O 5677   4.822   3.334   5.438 -0.3851  0.2625  0.0213
   44MOL0     C 5678   4.754   3.250   5.492  0.3850 -0.0845 -1.1641
   44MOL0     O 5679   4.615   3.222   5.462 -0.4817  0.1599 -0.4653
   44MOL0     C 5680   4.570   3.268   5.349  1.3427  0.2787  0.1775
   44MOL0     C 5681   4.513   3.392   5.327  0.3287  0.3279 -0.2805
   44MOL0     C 5682   4.470   3.431   5.203  0.6461  0.0241  0.4083
   44MOL0     C 5683   4.482   3.343   5.090  1.1215 -0.5483 -0.3671
   44MOL0     O 5684   4.436   3.371   4.964  1.3783  0.1267  0.0923
   44MOL0     C 5685   4.423   3.510   4.929 -0.1133  0.9947  0.1369
   44MOL0     C 5686   4.392   3.526   4.780 -0.0524  0.4712 -0.2243
   44MOL0     C 5687   4.238   3.538   4.760  0.2122  0.3927  0.7881
   44MOL0     C 5688   4.196   3.540   4.614  1.1128 -0.8384  0.7362
   44MOL0     C 5689   4.050   3.506   4.585 -0.7266 -0.6458 -0.2320
   44MOL0     C 5690   3.954   3.564   4.684  1.7015 -0.3525 -0.1038
   44MOL0     C 5691   3.830   3.478   4.699 -0.3221 -0.9751  0.3660
   44MOL0     C 5692   3.716   3.536   4.785  0.0632 -0.4396  0.7277
   44MOL0     N 5693   3.679   3.669   4.726 -0.6607  0.2352 -0.3316
   44MOL0     C 5694   3.634   3.681   4.601  0.2137  1.1171 -0.0345
   44MOL0     C 5695   3.558   3.797   4.606 -0.2060  0.7705  0.1352
   44MOL0     C 5696   3.481   3.846   4.488 -0.4803  0.7568  0.5055
   44MOL0     C 5697   3.348   3.794   4.481  0.0604 -0.9669 -0.3355
   44MOL0     C 5698   3.262   3.856   4.370  0.5426 -0.0063  0.4145
   44MOL0     C 5699   3.106   3.846   4.372  0.8668  0.1047 -0.6715
   44MOL0     O 5700   3.066   3.909   4.248 -0.0285  0.2506  0.3783
   44MOL0     C 5701   2.950   3.990   4.226  0.4437 -0.5375 -0.2390
   44MOL0     C 5702   2.950   4.075   4.123  0.1010 -0.1789  0.1082
   44MOL0     C 5703   2.843   4.154   4.101 -0.5500  0.2043 -0.0344
   44MOL0     C 5704   2.725   4.158   4.180  0.2969  0.1446  0.7449
   44MOL0     C 5705   2.614   4.252   4.149  1.1783  0.8014  0.0784
   44MOL0     O 5706   2.484   4.229   4.177 -0.2166 -0.3873  0.1540
   44MOL0     C 5707   2.382   4.323   4.163 -0.1960 -0.4391  0.0845
   44MOL0     C 5708   2.394   4.460   4.196 -0.5409 -0.2883 -1.0257
   44MOL0     C 5709   2.288   4.554   4.186 -1.4523  0.3024  0.7070
   44MOL0     C 5710   2.166   4.501   4.160 -0.4191 -0.0551 -0.0789
   44MOL0     O 5711   2.048   4.576   4.179 -1.0097  0.0430 -0.1754
   44MOL0     C 5712   2.013   4.624   4.308 -0.4567 -0.3154 -0.7226
   44MOL0     C 5713   2.007   4.776   4.315  0.1419  0.8981  0.1557
   44MOL0     C 5714   1.947   4.822   4.442 -0.1062 -1.8131  0.3255
   44MOL0     C 5715   1.942   4.980   4.446 -0.1509  0.4664 -0.5752
   44MOL0     C 5716   1.841   5.027   4.550 -0.1283  0.3893 -0.3808
   44MOL0     C 5717   1.817   5.180   4.546  0.4683  0.3878  0.7191
   44MOL0     C 5718   1.777   5.243   4.408 -0.3527 -0.0633 -1.3824
   44MOL0     C 5719   1.643   5.219   4.344  0.0645  0.1810 -0.1789
   44MOL0    Cl 5720   1.521   5.315   4.411  0.6906 -0.0171 -0.1830
   44MOL0     C 5721   2.144   4.365   4.122  0.2708  0.4407  1.0666
   44MOL0     C 5722   2.259   4.276   4.120  0.5337  0.5791  0.3842
   44MOL0     O 5723   2.654   4.366   4.110 -0.0863 -0.2264  0.2169
   44MOL0     C 5724   2.728   4.068   4.285  0.2067  0.1129 -0.3697
   44MOL0     C 5725   2.841   3.990   4.314 -1.1442  0.2211 -0.3260
   44MOL0     N 5726   3.566   3.848   4.733 -0.9681  0.5755  0.4394
   44MOL0     N 5727   3.652   3.776   4.802  0.0746  0.3433  0.1759
   44MOL0     C 5728   4.540   3.216   5.104  0.5902  0.1240 -0.4355
   44MOL0     C 5729   4.584   3.180   5.237  0.8620 -0.4531 -0.2987
   44MOL0     C 5730   4.810   3.175   5.597 -0.9744  0.1521 -0.1515
   44MOL0     C 5731   4.945   3.189   5.634 -0.2399  0.3844  0.3980
   44MOL0     C 5732   4.991   3.133   5.752  0.7930  0.1162  0.4568
   44MOL0     C 5733   4.909   3.046   5.829  0.1376 -0.3297  0.1579
   44MOL0     O 5734   4.933   2.982   5.947 -0.5043 -0.2585  0.3136
   44MOL0     C 5735   5.056   3.012   6.008 -0.2556  0.4035 -0.6653
   44MOL0     C 5736   5.061   2.984   6.166  0.1384 -0.0385  0.1858
   44MOL0     C 5737   4.962   3.075   6.246 -0.0696  0.2123  0.4530
   44MOL0     C 5738   4.913   3.008   6.381 -0.0655 -0.4691  0.1530
   44MOL0     C 5739   5.029   2.968   6.466 -0.5822  0.6521  0.2735
   44MOL0     C 5740   5.120   2.946   6.543 -1.5609  1.0651  0.0812
   44MOL0     C 5741   4.788   3.015   5.775  0.6592  0.1903 -0.1248
   44MOL0     C 5742   4.738   3.073   5.660  0.5162 -0.2617 -0.2611
   44MOL0     H 5743   4.516   3.468   5.404 -0.4277  0.2011 -0.1244
   44MOL0     H 5744   4.418   3.523   5.180 -1.1616 -1.1079 -0.2270
   44MOL0     H 5745   4.522   3.552   4.945 -0.3035  1.6263 -0.2719
   44MOL0     H 5746   4.346   3.561   4.988 -1.6195 -0.5691 -0.3866
   44MOL0     H 5747   4.433   3.447   4.717  0.4497 -0.0649  0.7559
   44MOL0     H 5748   4.418   3.626   4.745 -0.8129  1.1286  0.9941
   44MOL0     H 5749   4.212   3.634   4.808 -1.0237 -0.4489  1.8774
   44MOL0     H 5750   4.177   3.457   4.803 -0.1599 -0.3846 -1.1335
   44MOL0     H 5751   4.221   3.639   4.575 -0.9507 -0.6302 -0.2259
   44MOL0     H 5752   4.255   3.463   4.565  0.9041  0.7730 -2.3176
   44MOL0     H 5753   4.052   3.398   4.604 -2.0518 -0.3996  1.5272
   44MOL0     H 5754   4.021   3.543   4.486  0.5718  3.8042  0.8349
   44MOL0     H 5755   3.926   3.662   4.646 -0.9924 -1.0437 -0.0665
   44MOL0     H 5756   3.982   3.575   4.789 -1.4600  5.5390  0.5089
   44MOL0     H 5757   3.786   3.462   4.600  1.1104 -1.3644 -0.2269
   44MOL0     H 5758   3.869   3.381   4.729 -0.5265 -1.7414 -1.7001
   44MOL0     H 5759   3.743   3.564   4.887  2.1542  0.0317  0.0782
   44MOL0     H 5760   3.632   3.466   4.773  0.0552 -0.2217 -0.6899
   44MOL0     H 5761   3.648   3.614   4.517  0.6613  0.2062  0.7483
   44MOL0     H 5762   3.538   3.809   4.403  0.3391 -0.8860  1.7220
   44MOL0     H 5763   3.478   3.955   4.496 -0.1253  1.1552 -3.1674
   44MOL0     H 5764   3.305   3.790   4.581  1.6560 -2.4309  0.3542
   44MOL0     H 5765   3.360   3.688   4.454  2.0287 -1.3050  1.5886
   44MOL0     H 5766   3.283   3.963   4.371  0.7483 -0.0213 -0.7886
   44MOL0     H 5767   3.295   3.820   4.272  0.8958  1.3105  0.0394
   44MOL0     H 5768   3.080   3.899   4.464  0.9772 -1.8241  0.5410
   44MOL0     H 5769   3.061   3.746   4.369  0.1388  0.4523 -2.7230
   44MOL0     H 5770   3.040   4.088   4.064 -1.4527  1.3823 -2.0895
   44MOL0     H 5771   2.837   4.239   4.034 -2.9464  3.0861  3.4624
   44MOL0     H 5772   2.487   4.498   4.239 -0.7791  1.6164 -2.0871
   44MOL0     H 5773   2.289   4.659   4.212  0.4598 -0.4798  4.3204
   44MOL0     H 5774   2.086   4.591   4.383 -0.2164  4.1710  1.3767
   44MOL0     H 5775   1.914   4.588   4.336 -1.0252  1.2717 -0.5846
   44MOL0     H 5776   1.948   4.812   4.231  0.1162  1.3960  0.3852
   44MOL0     H 5777   2.107   4.819   4.314  0.3456  0.5417  1.6834
   44MOL0     H 5778   2.005   4.787   4.528  1.4693  2.9035  1.4925
   44MOL0     H 5779   1.844   4.790   4.460 -0.0824 -0.5538  3.2674
   44MOL0     H 5780   2.039   5.018   4.477 -0.1947  0.9448 -1.0289
   44MOL0     H 5781   1.912   5.013   4.347  0.0126  1.1436 -0.3993
   44MOL0     H 5782   1.893   4.997   4.642  2.4750  2.6854 -0.9840
   44MOL0     H 5783   1.757   4.966   4.515  2.9603 -3.3529 -2.0371
   44MOL0     H 5784   1.908   5.225   4.586  1.4418  1.9250 -2.8403
   44MOL0     H 5785   1.743   5.202   4.624  1.7034 -2.0019  2.7096
   44MOL0     H 5786   1.788   5.352   4.415 -2.1662  0.1234 -0.8457
   44MOL0     H 5787   1.860   5.211   4.344 -1.1213 -2.7855 -1.1206
   44MOL0     H 5788   1.628   5.111   4.353 -1.3933  0.2001 -1.8819
   44MOL0     H 5789   1.657   5.243   4.238 -2.3959  2.1304 -0.1548
   44MOL0     H 5790   2.042   4.333   4.103  1.5488 -1.4978 -4.4148
   44MOL0     H 5791   2.242   4.171   4.102 -1.9055  1.2776 -2.0810
   44MOL0     H 5792   2.654   4.067   4.364 -0.4443  0.9885 -0.9603
   44MOL0     H 5793   2.848   3.926   4.402  0.2977  0.4684 -0.2369
   44MOL0     H 5794   4.546   3.136   5.031  1.6263 -3.4776  3.1616
   44MOL0     H 5795   4.616   3.080   5.265  0.9650 -0.4294 -0.3302
   44MOL0     H 5796   5.009   3.244   5.566  1.0468 -3.0205 -1.3714
   44MOL0     H 5797   5.094   3.142   5.785  1.4839 -1.4192 -1.0995
   44MOL0     H 5798   5.075   3.120   6.001 -2.6117  0.7857 -2.4375
   44MOL0     H 5799   5.144   2.954   5.979  1.4331  1.5671  1.7872
   44MOL0     H 5800   5.053   2.877   6.185 -1.5153  0.0315  0.0034
   44MOL0     H 5801   5.159   3.009   6.208 -0.6587  1.4989  1.2523
   44MOL0     H 5802   4.869   3.080   6.189  0.9379  4.7661 -1.1882
   44MOL0     H 5803   5.000   3.176   6.258  1.1532  0.4780 -4.0900
   44MOL0     H 5804   4.850   3.069   6.446 -0.4826 -1.5949  0.8226
   44MOL0     H 5805   4.851   2.923   6.352 -0.1830  0.2216 -1.7303
   44MOL0     H 5806   5.201   2.927   6.610 -1.9783 -0.1001  0.2786
   44MOL0     H 5807   4.730   2.938   5.825 -0.6153 -0.2473 -2.1574
   44MOL0     H 5808   4.637   3.049   5.627  0.5896 -0.1408 -0.5795
   45MOL0     O 5809   1.175  10.632   8.306 -0.5547 -0.1662 -0.2168
   45MOL0     C 5810   1.237  10.622   8.194  0.4552 -0.8882 -0.9228
   45MOL0     O 5811   1.195  10.678   8.078 -0.3043  0.0715 -0.0738
   45MOL0     C 5812   1.060  10.703   8.054  0.4989  0.3882  0.4045
   45MOL0     C 5813   0.945  10.666   8.126  0.6097 -0.4806 -1.1090
   45MOL0     C 5814   0.817  10.694   8.084 -0.0780  0.1529 -0.3991
   45MOL0     C 5815   0.807  10.788   7.979  0.4210 -0.0715 -0.1873
   45MOL0     O 5816   0.687  10.847   7.976 -0.1685 -0.0992  0.4847
   45MOL0     C 5817   0.670  10.940   7.868  0.0580  0.0373 -0.3534
   45MOL0     C 5818   0.531  11.003   7.857  0.7599 -0.4446 -0.5619
   45MOL0     C 5819   0.537  11.118   7.960 -0.7828  0.1994 -0.3299
   45MOL0     C 5820   0.411  11.184   7.999 -0.2630  0.6785 -0.5092
   45MOL0     C 5821   0.434  11.306   8.076  0.3859 -1.3589  0.3353
   45MOL0     C 5822   0.329  11.409   8.072  0.5689  0.5873 -0.1296
   45MOL0     C 5823   0.384  11.538   8.132 -0.8996 -0.1313  0.4664
   45MOL0     C 5824   0.373  11.543   8.287 -0.2459 -0.6971  0.4587
   45MOL0     N 5825   0.400  11.683   8.332 -0.6075 -0.4928  0.4309
   45MOL0     C 5826   0.523  11.728   8.365 -0.6678  0.7392  0.4155
   45MOL0     C 5827   0.509  11.834   8.438  0.3589 -0.0472  0.1643
   45MOL0     C 5828   0.616  11.913   8.511  0.0329 -0.1098 -0.0991
   45MOL0     C 5829   0.575  11.998   8.628  0.8897 -0.5719  0.2523
   45MOL0     C 5830   0.512  12.125   8.563  0.7719  1.0189 -0.0706
   45MOL0     C 5831   0.492  12.230   8.682 -0.4814  0.0992 -0.1504
   45MOL0     O 5832   0.603  12.267   8.764  0.0090 -0.3628  0.0326
   45MOL0     C 5833   0.564  12.373   8.841 -0.0544  0.3909 -0.1922
   45MOL0     C 5834   0.455  12.379   8.927  0.0756  0.1024  0.8055
   45MOL0     C 5835   0.445  12.491   9.014  0.0981 -0.1370  0.2577
   45MOL0     C 5836   0.549  12.591   9.027  0.1660  0.0765  0.5582
   45MOL0     C 5837   0.543  12.710   9.117 -0.6039  0.9851  0.3282
   45MOL0     O 5838   0.655  12.781   9.144 -0.6854 -0.2953 -0.2570
   45MOL0     C 5839   0.649  12.867   9.240 -0.4895  0.3457  0.0857
   45MOL0     C 5840   0.601  12.992   9.233 -0.1747 -0.5503  0.5836
   45MOL0     C 5841   0.630  13.085   9.325  0.0710  0.3891 -0.2333
   45MOL0     C 5842   0.713  13.057   9.431  0.0129  0.7024  0.6709
   45MOL0     O 5843   0.722  13.159   9.522 -0.0304 -0.0154  0.0165
   45MOL0     C 5844   0.799  13.132   9.641  0.1228  0.1877  0.2726
   45MOL0     C 5845   0.759  13.227   9.755 -0.0971  0.3342  1.6376
   45MOL0     C 5846   0.840  13.363   9.746 -0.0401 -0.4362 -0.3266
   45MOL0     C 5847   0.779  13.452   9.860  0.4625 -0.8831  0.5541
   45MOL0     C 5848   0.840  13.591   9.888 -0.1606  1.0254  1.1464
   45MOL0     C 5849   0.792  13.677   9.769 -0.6514 -0.7361  0.2534
   45MOL0     C 5850   0.814  13.816   9.818  0.2519 -0.1738 -0.6103
   45MOL0     C 5851   0.790  13.909   9.709 -0.5642 -0.2015  0.4744
   45MOL0    Cl 5852   0.932  13.900   9.598  0.1358  0.1743 -0.5415
   45MOL0     C 5853   0.762  12.926   9.441 -0.2976 -0.8997 -0.0179
   45MOL0     C 5854   0.722  12.837   9.347 -1.3572 -0.7234 -1.0892
   45MOL0     O 5855   0.426  12.750   9.142 -0.7214  0.5531 -0.3936
   45MOL0     C 5856   0.666  12.579   8.948  0.3420 -0.0494  0.1833
   45MOL0     C 5857   0.668  12.477   8.854 -0.5073  1.0897  0.5312
   45MOL0     N 5858   0.377  11.871   8.430 -1.0975  0.9369 -0.2429
   45MOL0     N 5859   0.313  11.783   8.370  0.0757 -0.0342  0.4488
   45MOL0     C 5860   0.925  10.820   7.896  0.8220  0.3277  0.3163
   45MOL0     C 5861   1.045  10.787   7.942 -0.3944  0.8754 -0.3061
   45MOL0     C 5862   1.382  10.577   8.209  0.2818 -0.6431 -1.3087
   45MOL0     C 5863   1.425  10.517   8.328  0.8875  0.2295 -0.2267
   45MOL0     C 5864   1.552  10.448   8.332 -0.3579  0.2433  0.9616
   45MOL0     C 5865   1.638  10.440   8.222 -0.2035 -0.3237  0.0872
   45MOL0     O 5866   1.767  10.382   8.246  0.7142 -0.0799 -0.9555
   45MOL0     C 5867   1.866  10.396   8.153  0.1038 -0.2385 -0.4095
   45MOL0     C 5868   1.975  10.286   8.152  0.0810  0.9628 -0.1436
   45MOL0     C 5869   2.034  10.288   8.292 -0.3728 -0.6885 -0.4331
   45MOL0     C 5870   2.125  10.176   8.333  0.1155 -0.1858  0.3595
   45MOL0     C 5871   2.257  10.207   8.294 -0.6723 -0.3456  1.2183
   45MOL0     C 5872   2.373  10.224   8.271  0.9939 -0.7702  0.6178
   45MOL0     C 5873   1.591  10.511   8.106  0.6285 -0.4396 -0.2357
   45MOL0     C 5874   1.464  10.567   8.099  0.6070  0.2819 -0.0579
   45MOL0     H 5875   0.950  10.606   8.217 -1.3002  0.6530 -0.1761
   45MOL0     H 5876   0.741  10.679   8.160  1.5020  0.9318  1.4114
   45MOL0     H 5877   0.680  10.881   7.777  0.2370  1.6085 -1.3825
   45MOL0     H 5878   0.741  11.023   7.877 -0.2326  0.1633  1.1723
   45MOL0     H 5879   0.453  10.929   7.878  2.0549 -2.0901 -1.3527
   45MOL0     H 5880   0.527  11.047   7.757 -0.8951 -0.8388 -0.7032
   45MOL0     H 5881   0.614  11.185   7.921 -0.5530 -0.4888 -1.0776
   45MOL0     H 5882   0.557  11.080   8.061 -4.0976 -0.1899  0.2842
   45MOL0     H 5883   0.363  11.215   7.905 -0.0369  1.5547 -0.3364
   45MOL0     H 5884   0.335  11.124   8.050 -0.0603  2.1973  1.7281
   45MOL0     H 5885   0.528  11.350   8.040 -0.5294  0.0720 -0.4329
   45MOL0     H 5886   0.438  11.287   8.183  0.7538 -0.2837  0.5284
   45MOL0     H 5887   0.247  11.367   8.132  1.2054 -0.6907 -0.1337
   45MOL0     H 5888   0.292  11.422   7.970  0.5707 -1.5015 -0.4472
   45MOL0     H 5889   0.489  11.551   8.102 -0.5129  0.5126  2.0314
   45MOL0     H 5890   0.323  11.619   8.090  0.7861  1.9392  1.8223
   45MOL0     H 5891   0.453  11.484   8.331  0.0033  1.5547  3.2858
   45MOL0     H 5892   0.272  11.511   8.314 -0.3951 -1.8583 -1.2856
   45MOL0     H 5893   0.618  11.675   8.355 -0.5393  0.6374  1.9797
   45MOL0     H 5894   0.653  11.970   8.425 -3.8773 -0.2095 -2.0593
   45MOL0     H 5895   0.698  11.848   8.545 -0.2691  1.2636  3.8305
   45MOL0     H 5896   0.656  12.016   8.699 -0.9979  0.2862  2.2965
   45MOL0     H 5897   0.496  11.951   8.687  1.2029  1.8498  2.8112
   45MOL0     H 5898   0.580  12.179   8.497  1.7015 -2.1878 -1.9417
   45MOL0     H 5899   0.423  12.095   8.507  2.3395 -2.7298 -0.8294
   45MOL0     H 5900   0.418  12.192   8.753 -0.0054  0.4516  0.5460
   45MOL0     H 5901   0.453  12.315   8.626  1.3015 -0.7933 -2.9900
   45MOL0     H 5902   0.384  12.298   8.931  0.3385 -0.0967  1.6125
   45MOL0     H 5903   0.356  12.491   9.076 -2.0427 -4.2408 -2.3846
   45MOL0     H 5904   0.562  13.031   9.140  0.8772 -1.0846 -0.0916
   45MOL0     H 5905   0.597  13.187   9.307 -2.5617 -0.6477 -1.8527
   45MOL0     H 5906   0.906  13.138   9.621 -0.3429  3.8016 -1.9605
   45MOL0     H 5907   0.784  13.033   9.684  1.4960 -1.7255 -3.2172
   45MOL0     H 5908   0.789  13.173   9.846 -3.2402 -0.1696  2.4945
   45MOL0     H 5909   0.651  13.243   9.762 -0.4137 -0.2993 -0.7805
   45MOL0     H 5910   0.828  13.409   9.647  1.8026  1.8159  0.3938
   45MOL0     H 5911   0.947  13.356   9.768  0.0929  1.0299 -0.4174
   45MOL0     H 5912   0.672  13.464   9.840  0.6317 -1.3821 -0.7435
   45MOL0     H 5913   0.792  13.405   9.958  4.3034  2.5624  1.9546
   45MOL0     H 5914   0.949  13.582   9.878 -0.0144  2.2049  1.4542
   45MOL0     H 5915   0.815  13.606   9.993 -3.0376 -1.3488  0.9135
   45MOL0     H 5916   0.686  13.655   9.754 -0.5012 -1.0748 -0.3216
   45MOL0     H 5917   0.845  13.662   9.675  0.1287  7.9541 -1.4888
   45MOL0     H 5918   0.748  13.847   9.899  1.4907 -2.8126  1.5638
   45MOL0     H 5919   0.915  13.830   9.857 -0.0689 -0.6180  0.4019
   45MOL0     H 5920   0.792  14.012   9.746  2.2016  0.6763 -1.7490
   45MOL0     H 5921   0.699  13.878   9.656  1.1389 -3.4480 -0.8300
   45MOL0     H 5922   0.819  12.888   9.526  0.5607  0.3311 -0.0137
   45MOL0     H 5923   0.761  12.736   9.345 -0.1977 -0.3207  0.0491
   45MOL0     H 5924   0.754  12.642   8.960  0.3845 -0.4861  2.8689
   45MOL0     H 5925   0.751  12.470   8.784 -3.2707 -0.4975 -2.8864
   45MOL0     H 5926   0.912  10.878   7.805 -0.7218  1.4640  1.2219
   45MOL0     H 5927   1.137  10.822   7.896 -0.6930 -0.3630 -1.9398
   45MOL0     H 5928   1.353  10.503   8.408  2.4940  1.3175  1.4875
   45MOL0     H 5929   1.580  10.412   8.431 -0.7811  0.1831  1.0637
   45MOL0     H 5930   1.922  10.490   8.164  0.9916 -0.6025 -1.6269
   45MOL0     H 5931   1.821  10.398   8.053 -0.3800  1.0581 -0.1845
   45MOL0     H 5932   1.932  10.189   8.126 -1.1896  1.0219  1.5846
   45MOL0     H 5933   2.053  10.307   8.078 -1.3720 -0.8349 -2.3235
   45MOL0     H 5934   1.953  10.287   8.366 -1.9729  1.1222 -2.0342
   45MOL0     H 5935   2.084  10.385   8.303 -1.7940  0.4313 -2.8661
   45MOL0     H 5936   2.115  10.151   8.440  1.0287  2.1528  1.0491
   45MOL0     H 5937   2.091  10.093   8.270  0.7748  0.2966 -0.6457
   45MOL0     H 5938   2.476  10.245   8.251  0.8766 -0.9723 -0.2846
   45MOL0     H 5939   1.650  10.525   8.016 -2.4335  3.2610 -1.9304
   45MOL0     H 5940   1.420  10.606   8.008 -0.9981 -3.1573 -0.9522
   46MOL0     O 5941   3.959   7.893   5.208 -0.6146 -0.5152 -0.0216
   46MOL0     C 5942   3.882   7.983   5.202 -0.3846 -0.0299 -1.4039
   46MOL0     O 5943   3.814   8.030   5.306  0.8739  0.1760  0.2720
   46MOL0     C 5944   3.774   7.947   5.415  0.7853  0.5158 -0.7122
   46MOL0     C 5945   3.757   7.805   5.399 -0.3510 -0.5337 -0.7675
   46MOL0     C 5946   3.734   7.733   5.511  0.8824 -0.0061  0.1954
   46MOL0     C 5947   3.716   7.797   5.636 -0.8295 -0.1968  0.5218
   46MOL0     O 5948   3.683   7.720   5.743  0.2616 -0.0919  0.6201
   46MOL0     C 5949   3.548   7.694   5.732  0.5711 -0.3609 -0.3584
   46MOL0     C 5950   3.473   7.724   5.872 -0.0205 -1.0758  0.4902
   46MOL0     C 5951   3.368   7.838   5.856 -0.6086 -0.0225  0.0188
   46MOL0     C 5952   3.320   7.875   5.989  0.0911  0.7229  0.0078
   46MOL0     C 5953   3.223   7.764   6.054 -0.8774 -0.2408  1.6271
   46MOL0     C 5954   3.208   7.798   6.195 -0.6566  0.4680 -0.7194
   46MOL0     C 5955   3.058   7.753   6.237 -1.0491 -0.5654  1.2085
   46MOL0     C 5956   3.051   7.601   6.255  0.2953  1.0277  0.3925
   46MOL0     N 5957   2.917   7.558   6.263 -0.3135  0.1349 -0.8000
   46MOL0     C 5958   2.832   7.588   6.364  0.5250 -0.3547  0.0995
   46MOL0     C 5959   2.716   7.547   6.316  0.2312  0.5318  0.5152
   46MOL0     C 5960   2.587   7.553   6.393  0.1533 -1.0401  0.3690
   46MOL0     C 5961   2.484   7.648   6.346  0.5624 -0.3276 -1.0121
   46MOL0     C 5962   2.523   7.792   6.340  0.7428 -0.2669  0.6567
   46MOL0     C 5963   2.589   7.823   6.205  0.3798 -0.1003  0.9414
   46MOL0     O 5964   2.564   7.955   6.154  0.0551 -0.0678 -0.1604
   46MOL0     C 5965   2.629   8.064   6.206  0.2774 -0.2297  1.6417
   46MOL0     C 5966   2.558   8.155   6.285  0.6649 -0.0062 -0.3545
   46MOL0     C 5967   2.625   8.274   6.325 -0.2282 -0.4869 -0.1313
   46MOL0     C 5968   2.761   8.294   6.290  1.1163  0.1308  0.4576
   46MOL0     C 5969   2.844   8.397   6.361 -0.6890 -0.7537 -0.3930
   46MOL0     O 5970   2.977   8.393   6.345 -0.4367  0.1865  0.0764
   46MOL0     C 5971   3.075   8.476   6.379 -0.1010 -0.8822 -0.0373
   46MOL0     C 5972   3.062   8.602   6.446 -0.3558  0.2204  0.4957
   46MOL0     C 5973   3.180   8.673   6.468  1.0033 -0.7919 -0.0699
   46MOL0     C 5974   3.305   8.614   6.444 -0.4334 -0.2005 -0.3888
   46MOL0     O 5975   3.421   8.676   6.469 -0.2153 -0.3054 -0.1067
   46MOL0     C 5976   3.534   8.597   6.502 -0.0660  0.3523 -0.1735
   46MOL0     C 5977   3.652   8.684   6.536  0.3709  0.2842 -0.1948
   46MOL0     C 5978   3.624   8.810   6.614 -0.1906  0.0049  0.3142
   46MOL0     C 5979   3.570   8.741   6.749 -0.4788 -0.3159  0.3979
   46MOL0     C 5980   3.630   8.803   6.873 -0.2236  0.2221  0.5536
   46MOL0     C 5981   3.601   8.960   6.870 -0.2472 -0.0720 -0.5882
   46MOL0     C 5982   3.673   9.022   6.986  0.1065  0.4287 -0.4690
   46MOL0     C 5983   3.658   9.176   7.003 -0.2917 -0.8287  0.1016
   46MOL0    Cl 5984   3.796   9.257   6.915  0.1190 -0.1629  0.2277
   46MOL0     C 5985   3.311   8.489   6.382 -0.2158 -0.6401 -0.3471
   46MOL0     C 5986   3.199   8.420   6.353  0.7636  0.4789 -0.6485
   46MOL0     O 5987   2.783   8.478   6.426  0.3764 -0.0287  0.0719
   46MOL0     C 5988   2.825   8.191   6.211 -0.0670  0.3745  0.4503
   46MOL0     C 5989   2.758   8.081   6.156  0.4733 -0.2097 -1.7742
   46MOL0     N 5990   2.729   7.495   6.181  1.4198  0.0202  0.2192
   46MOL0     N 5991   2.858   7.506   6.160  0.3323  0.0729  0.1506
   46MOL0     C 5992   3.721   7.933   5.644 -0.0358 -1.4384  0.1761
   46MOL0     C 5993   3.755   8.012   5.531  0.5144  0.2776  0.2030
   46MOL0     C 5994   3.864   8.049   5.074 -0.3874  0.1623 -0.2058
   46MOL0     C 5995   3.952   8.025   4.968  0.4419  1.0319  0.4909
   46MOL0     C 5996   3.933   8.084   4.841  0.1798  0.7759  0.8038
   46MOL0     C 5997   3.826   8.163   4.808  0.0066  0.7786 -0.9595
   46MOL0     O 5998   3.815   8.213   4.691  0.8294  0.3494  0.1114
   46MOL0     C 5999   3.676   8.220   4.638 -0.2131 -0.3559 -0.0107
   46MOL0     C 6000   3.642   8.357   4.584 -0.0591 -0.2847  0.2820
   46MOL0     C 6001   3.638   8.466   4.697 -0.1689  0.1448  0.2985
   46MOL0     C 6002   3.598   8.603   4.640 -0.4642  0.4745  0.3747
   46MOL0     C 6003   3.708   8.665   4.572  0.6886 -0.2747  1.0154
   46MOL0     C 6004   3.807   8.724   4.531  0.2283 -0.1623 -0.3141
   46MOL0     C 6005   3.734   8.187   4.917 -0.1211  0.9866 -0.1437
   46MOL0     C 6006   3.759   8.140   5.052  0.2117 -0.5163  0.0894
   46MOL0     H 6007   3.767   7.751   5.305  1.7892  2.2335 -2.2611
   46MOL0     H 6008   3.732   7.625   5.497 -0.4455 -0.3607  2.5647
   46MOL0     H 6009   3.535   7.594   5.688 -2.0858  0.6070 -1.9894
   46MOL0     H 6010   3.502   7.762   5.660  1.4849 -0.2366 -0.8360
   46MOL0     H 6011   3.553   7.746   5.943  0.2522  0.9891 -0.3921
   46MOL0     H 6012   3.434   7.624   5.895  0.0515 -1.1755  0.1784
   46MOL0     H 6013   3.288   7.798   5.793 -1.7019  0.5329  1.0220
   46MOL0     H 6014   3.405   7.923   5.798  2.2504 -2.3762 -1.9104
   46MOL0     H 6015   3.411   7.899   6.046 -0.1377  3.7801 -0.7146
   46MOL0     H 6016   3.257   7.963   5.973 -0.7922 -0.0706 -0.9843
   46MOL0     H 6017   3.273   7.667   6.057  0.5932  0.3736 -0.4028
   46MOL0     H 6018   3.137   7.767   5.986 -1.9725 -0.0283  2.9763
   46MOL0     H 6019   3.233   7.900   6.224 -1.6939  0.1767  1.3865
   46MOL0     H 6020   3.287   7.738   6.243  1.0999  1.9739 -1.5986
   46MOL0     H 6021   3.024   7.790   6.335  0.0030 -1.5530  1.9721
   46MOL0     H 6022   2.986   7.787   6.162 -1.2141 -4.9388 -0.8711
   46MOL0     H 6023   3.109   7.578   6.345 -0.6136  1.3212  1.0648
   46MOL0     H 6024   3.100   7.550   6.172 -0.2355  0.8192  0.2085
   46MOL0     H 6025   2.861   7.627   6.461  1.6178 -1.9829  0.4748
   46MOL0     H 6026   2.605   7.566   6.500 -2.0938  0.5467  0.6109
   46MOL0     H 6027   2.542   7.454   6.403 -1.6314 -0.0241  3.9444
   46MOL0     H 6028   2.406   7.659   6.421  1.6981  3.0892 -0.1005
   46MOL0     H 6029   2.437   7.604   6.258 -2.4985 -1.5180  1.0794
   46MOL0     H 6030   2.440   7.862   6.349  1.7979  1.0321  0.5924
   46MOL0     H 6031   2.583   7.817   6.429 -0.5291 -2.1005  2.1037
   46MOL0     H 6032   2.542   7.761   6.128  0.1720  3.0241 -1.7056
   46MOL0     H 6033   2.694   7.792   6.208  0.5353  0.2277 -0.3673
   46MOL0     H 6034   2.451   8.146   6.304  0.7978  1.6833  1.6226
   46MOL0     H 6035   2.583   8.357   6.382  1.9187 -1.3753  2.9820
   46MOL0     H 6036   2.964   8.642   6.471  0.1542  0.9996  1.3206
   46MOL0     H 6037   3.169   8.765   6.525  1.1895 -0.4943 -0.5092
   46MOL0     H 6038   3.580   8.533   6.426  3.7176  1.8635  0.5971
   46MOL0     H 6039   3.509   8.536   6.590  1.3732  0.4039  0.3098
   46MOL0     H 6040   3.687   8.685   6.432  0.4302  0.1946 -0.1764
   46MOL0     H 6041   3.728   8.620   6.583 -0.5563 -0.1129  0.7926
   46MOL0     H 6042   3.554   8.877   6.564 -1.6236 -0.1662  1.9816
   46MOL0     H 6043   3.720   8.860   6.635  1.1454 -1.3049 -2.2223
   46MOL0     H 6044   3.461   8.742   6.746 -0.5407 -2.8878 -0.3116
   46MOL0     H 6045   3.607   8.638   6.749  3.3022  0.8936  0.6145
   46MOL0     H 6046   3.735   8.773   6.879 -0.2359  0.2972  1.1498
   46MOL0     H 6047   3.583   8.761   6.962 -3.3859  2.2536  0.0308
   46MOL0     H 6048   3.494   8.966   6.891  0.0730  1.4152  0.7855
   46MOL0     H 6049   3.623   9.018   6.780 -4.1980  0.7872 -1.1715
   46MOL0     H 6050   3.637   8.983   7.082  2.4924  1.1514  0.8033
   46MOL0     H 6051   3.776   8.986   6.995 -0.1833 -1.8000 -3.8983
   46MOL0     H 6052   3.655   9.207   7.108  3.1163  0.9886 -0.1945
   46MOL0     H 6053   3.559   9.203   6.966 -0.6947 -0.6116  1.3119
   46MOL0     H 6054   3.401   8.433   6.362  1.3978  1.4667  0.6051
   46MOL0     H 6055   3.205   8.323   6.306  2.6450  1.5033 -2.7338
   46MOL0     H 6056   2.928   8.200   6.174  0.4374 -0.1483  1.6993
   46MOL0     H 6057   2.802   8.009   6.089  0.4554 -1.3534 -0.5845
   46MOL0     H 6058   3.720   7.987   5.738  0.5146 -1.2572  0.0864
   46MOL0     H 6059   3.769   8.119   5.543  0.2804  0.2996  0.2841
   46MOL0     H 6060   4.023   7.943   4.971  0.6569  1.0385 -2.1272
   46MOL0     H 6061   3.989   8.051   4.754 -1.3561 -2.6643  0.9646
   46MOL0     H 6062   3.593   8.211   4.709  0.7998  0.2802  1.3096
   46MOL0     H 6063   3.670   8.139   4.565  0.3732 -1.4106  1.0690
   46MOL0     H 6064   3.719   8.382   4.510  2.6616 -3.1824  1.8573
   46MOL0     H 6065   3.540   8.358   4.546 -1.6730  2.0656  4.0520
   46MOL0     H 6066   3.739   8.474   4.737  0.2829 -0.0730 -0.7871
   46MOL0     H 6067   3.580   8.439   4.787 -1.2773  2.5973  0.4104
   46MOL0     H 6068   3.516   8.583   4.570 -1.7503 -1.3202  2.2821
   46MOL0     H 6069   3.570   8.667   4.725  2.9032 -0.3404  2.2804
   46MOL0     H 6070   3.884   8.782   4.484  0.4837  1.2398  1.6996
   46MOL0     H 6071   3.644   8.247   4.907 -0.8659 -0.0854 -0.0599
   46MOL0     H 6072   3.684   8.166   5.126  2.5184 -0.7041  2.6991
   47MOL0     O 6073   4.593   7.563   2.715  0.2473  0.8592  0.6407
   47MOL0     C 6074   4.690   7.544   2.640 -0.5895  0.3554  0.0279
   47MOL0     O 6075   4.782   7.638   2.617 -0.1021 -0.6663 -0.8942
   47MOL0     C 6076   4.765   7.772   2.656  0.3657 -0.1087 -0.0852
   47MOL0     C 6077   4.784   7.870   2.560  0.5784  0.2888 -0.2773
   47MOL0     C 6078   4.776   7.999   2.596  0.3931  0.5972  0.0513
   47MOL0     C 6079   4.718   8.038   2.715  0.1221 -0.0224 -0.5265
   47MOL0     O 6080   4.675   8.162   2.736  0.2523 -0.6135 -0.2407
   47MOL0     C 6081   4.768   8.267   2.698  0.5581  1.1937 -0.1965
   47MOL0     C 6082   4.797   8.343   2.817  0.0863 -0.9906 -1.0364
   47MOL0     C 6083   4.842   8.272   2.944  0.6929 -0.2274  1.2601
   47MOL0     C 6084   4.853   8.373   3.059  0.0780  0.4911  0.1598
   47MOL0     C 6085   4.967   8.480   3.036 -0.1130  0.0220  0.1121
   47MOL0     C 6086   5.005   8.544   3.167 -1.0865 -0.2560  0.9052
   47MOL0     C 6087   5.107   8.669   3.151  0.4778  0.3404  0.5675
   47MOL0     C 6088   5.160   8.728   3.279 -0.1781  0.0399  0.8561
   47MOL0     N 6089   5.254   8.836   3.265  0.4620  0.3332  0.3147
   47MOL0     C 6090   5.262   8.927   3.166 -0.6952 -0.5342  0.2456
   47MOL0     C 6091   5.377   8.992   3.179 -0.8377 -0.8571 -0.2680
   47MOL0     C 6092   5.416   9.103   3.105  0.0506 -0.1562 -0.0676
   47MOL0     C 6093   5.455   9.094   2.951 -0.0658  0.0461  0.4512
   47MOL0     C 6094   5.350   9.024   2.853 -0.6814 -0.0883 -0.4251
   47MOL0     C 6095   5.395   9.029   2.700  0.2802 -0.4353 -0.2924
   47MOL0     O 6096   5.285   8.980   2.628  0.6849  0.2073  0.9283
   47MOL0     C 6097   5.317   8.935   2.499  0.8029 -0.3659 -0.8061
   47MOL0     C 6098   5.237   8.838   2.444 -0.4405 -0.4828 -0.5801
   47MOL0     C 6099   5.254   8.799   2.314  0.0466  0.0963 -0.5746
   47MOL0     C 6100   5.354   8.851   2.229 -1.2658 -0.1323  0.3238
   47MOL0     C 6101   5.386   8.797   2.101 -0.0272 -0.7727  0.6389
   47MOL0     O 6102   5.478   8.865   2.030  0.1427  0.2595 -0.2367
   47MOL0     C 6103   5.536   8.792   1.931 -0.3362 -0.5796  0.7811
   47MOL0     C 6104   5.651   8.716   1.949 -0.0663  0.0058  0.4037
   47MOL0     C 6105   5.720   8.641   1.845 -0.3144 -0.1364 -0.3712
   47MOL0     C 6106   5.655   8.624   1.725 -0.2257 -0.4800 -0.9899
   47MOL0     O 6107   5.708   8.540   1.633 -0.6035  0.1622 -0.9140
   47MOL0     C 6108   5.857   8.538   1.599  0.1024  1.6395  0.3429
   47MOL0     C 6109   5.910   8.672   1.560 -0.1614 -0.1473 -0.4077
   47MOL0     C 6110   5.831   8.745   1.456 -0.4313  0.3091 -0.3252
   47MOL0     C 6111   5.832   8.695   1.315 -0.3948 -0.8853  0.4458
   47MOL0     C 6112   5.722   8.751   1.218 -0.2697  0.4069  0.9409
   47MOL0     C 6113   5.591   8.685   1.259 -0.0370 -0.1268  0.2453
   47MOL0     C 6114   5.467   8.790   1.241 -1.6292 -0.5309 -0.0614
   47MOL0     C 6115   5.337   8.744   1.301  0.3443  0.2337 -0.7571
   47MOL0    Cl 6116   5.233   8.904   1.311 -0.0107 -0.0299 -0.0037
   47MOL0     C 6117   5.537   8.707   1.701 -0.4061  0.9964 -0.5319
   47MOL0     C 6118   5.475   8.772   1.807 -0.8401  0.4174 -0.8334
   47MOL0     O 6119   5.346   8.683   2.079 -0.0440  0.2389  0.0475
   47MOL0     C 6120   5.434   8.953   2.288  0.9335 -0.3705  0.4665
   47MOL0     C 6121   5.414   8.992   2.420 -0.4972  0.0821  0.0553
   47MOL0     N 6122   5.449   8.937   3.293  1.2632 -0.5804 -0.7647
   47MOL0     N 6123   5.366   8.845   3.336 -0.1912 -0.2851  0.2774
   47MOL0     C 6124   4.718   7.949   2.816 -0.3605 -0.6509  0.2330
   47MOL0     C 6125   4.725   7.811   2.787 -0.1052  0.0286 -1.1505
   47MOL0     C 6126   4.700   7.416   2.569 -0.7139 -0.1262 -0.1004
   47MOL0     C 6127   4.823   7.391   2.515  0.6943 -0.3082 -0.1687
   47MOL0     C 6128   4.841   7.284   2.428  0.0451 -0.8838  1.7038
   47MOL0     C 6129   4.730   7.219   2.365 -0.1916 -0.1572  0.2349
   47MOL0     O 6130   4.746   7.123   2.264  0.1736 -0.5850  0.7647
   47MOL0     C 6131   4.861   7.128   2.175 -0.0623 -0.1376  0.1109
   47MOL0     C 6132   4.839   7.043   2.038  0.4169  0.1562 -1.2143
   47MOL0     C 6133   4.718   7.065   1.952  0.2929  0.2684 -0.9130
   47MOL0     C 6134   4.683   6.945   1.873 -0.4456 -0.2496 -0.4581
   47MOL0     C 6135   4.790   6.890   1.792 -0.2896 -0.8987  0.5246
   47MOL0     C 6136   4.861   6.832   1.719  0.1033  1.4839  0.5380
   47MOL0     C 6137   4.607   7.253   2.416 -0.1667 -0.1074 -0.4299
   47MOL0     C 6138   4.593   7.333   2.529  0.7831 -1.0395 -0.6334
   47MOL0     H 6139   4.812   7.847   2.458  2.4361 -0.8111  0.4118
   47MOL0     H 6140   4.797   8.068   2.516 -1.6355  1.4539  0.1969
   47MOL0     H 6141   4.708   8.323   2.624  1.7398  0.8254 -1.4791
   47MOL0     H 6142   4.863   8.230   2.658  0.6202  0.3312  0.7082
   47MOL0     H 6143   4.703   8.396   2.833  1.4532  0.7697  2.0885
   47MOL0     H 6144   4.871   8.422   2.796  0.5566 -0.2301  2.8183
   47MOL0     H 6145   4.938   8.223   2.926 -0.0793 -1.9164  1.5462
   47MOL0     H 6146   4.770   8.194   2.970  1.2080 -0.7080  1.2824
   47MOL0     H 6147   4.764   8.434   3.072 -0.5370 -1.1188  5.8258
   47MOL0     H 6148   4.856   8.332   3.160 -4.4440  1.0407  0.6974
   47MOL0     H 6149   4.918   8.537   2.956  0.7020  0.1253 -0.3303
   47MOL0     H 6150   5.049   8.432   2.982 -0.2893 -0.3029  0.1345
   47MOL0     H 6151   5.069   8.467   3.211 -1.9069 -1.6089 -0.1884
   47MOL0     H 6152   4.919   8.563   3.233 -0.1343  0.6798  1.9304
   47MOL0     H 6153   5.189   8.626   3.091 -0.6977 -0.6902 -0.3782
   47MOL0     H 6154   5.058   8.747   3.093 -0.2268 -0.7243 -0.3168
   47MOL0     H 6155   5.216   8.648   3.328 -0.0876 -0.1700  0.4138
   47MOL0     H 6156   5.080   8.757   3.348 -1.6644 -1.2615 -0.2360
   47MOL0     H 6157   5.189   8.949   3.089 -1.7267  1.7201  1.7786
   47MOL0     H 6158   5.499   9.151   3.157 -1.2771 -0.8876  2.9370
   47MOL0     H 6159   5.337   9.178   3.094  0.0439 -0.1312  0.1484
   47MOL0     H 6160   5.546   9.033   2.947 -0.4424 -0.4546 -2.2734
   47MOL0     H 6161   5.471   9.192   2.907  1.6842  1.0341  3.0283
   47MOL0     H 6162   5.341   8.924   2.895 -1.0958  0.4077  0.7311
   47MOL0     H 6163   5.248   9.064   2.861 -0.3773  1.1952 -2.3338
   47MOL0     H 6164   5.487   8.971   2.693  0.7776  0.5196 -2.8623
   47MOL0     H 6165   5.398   9.130   2.658  1.0498 -0.7903 -1.1234
   47MOL0     H 6166   5.160   8.802   2.511 -0.5526  1.4940  0.4036
   47MOL0     H 6167   5.187   8.720   2.279 -1.2406  0.5489  0.7555
   47MOL0     H 6168   5.703   8.719   2.044  1.1591 -1.2712 -0.2032
   47MOL0     H 6169   5.814   8.595   1.872 -0.0322 -1.1368 -2.7738
   47MOL0     H 6170   5.876   8.475   1.511 -1.6871 -1.6663  2.1136
   47MOL0     H 6171   5.912   8.495   1.684 -2.1471  0.5232  1.3301
   47MOL0     H 6172   6.015   8.660   1.531 -0.9371  1.7201 -4.9152
   47MOL0     H 6173   5.901   8.740   1.645 -3.5583 -2.3767  1.2597
   47MOL0     H 6174   5.876   8.844   1.447  2.0782 -0.5681  1.3607
   47MOL0     H 6175   5.727   8.760   1.485  0.5024  1.1830  3.0281
   47MOL0     H 6176   5.928   8.725   1.271 -0.0671  2.8203  3.1720
   47MOL0     H 6177   5.827   8.586   1.306  0.0133 -0.7587 -2.0635
   47MOL0     H 6178   5.746   8.721   1.115  1.2760  0.3786  1.2828
   47MOL0     H 6179   5.730   8.860   1.218 -0.2573  0.4989 -2.2107
   47MOL0     H 6180   5.584   8.643   1.360 -2.0461 -0.4655  0.0025
   47MOL0     H 6181   5.571   8.603   1.189 -3.2846  1.9024 -1.4367
   47MOL0     H 6182   5.491   8.890   1.279 -1.5288  0.6624 -3.0239
   47MOL0     H 6183   5.445   8.802   1.135  0.5143 -1.3572 -0.6486
   47MOL0     H 6184   5.352   8.702   1.401  1.5814 -0.1490 -1.0802
   47MOL0     H 6185   5.291   8.656   1.255  1.2735 -1.1309  0.7881
   47MOL0     H 6186   5.502   8.692   1.600  1.6728  1.9496 -1.4576
   47MOL0     H 6187   5.373   8.808   1.803  0.0488  3.2004 -1.0861
   47MOL0     H 6188   5.518   8.995   2.233  1.4146 -1.1092  0.6259
   47MOL0     H 6189   5.485   9.064   2.459  1.6954 -2.5109  1.2214
   47MOL0     H 6190   4.695   7.973   2.920  0.2983  1.4313 -0.0571
   47MOL0     H 6191   4.696   7.738   2.862 -1.9245 -1.3025 -3.0531
   47MOL0     H 6192   4.915   7.438   2.549  1.6004 -0.7698 -1.8414
   47MOL0     H 6193   4.944   7.257   2.408  0.4249 -0.5656  3.1037
   47MOL0     H 6194   4.949   7.093   2.230 -0.5352 -0.8017  0.4529
   47MOL0     H 6195   4.886   7.232   2.152 -1.0757  0.7764  2.7382
   47MOL0     H 6196   4.932   7.052   1.981  1.2336 -2.8038 -0.5116
   47MOL0     H 6197   4.827   6.940   2.072 -0.4051 -0.0012 -1.9242
   47MOL0     H 6198   4.743   7.147   1.884 -0.3129 -0.5217 -2.1363
   47MOL0     H 6199   4.633   7.081   2.019  1.6833 -1.8784  1.5196
   47MOL0     H 6200   4.656   6.870   1.948  2.6899  0.4600  1.6103
   47MOL0     H 6201   4.592   6.962   1.815 -1.5193 -1.0891  0.9351
   47MOL0     H 6202   4.934   6.784   1.659 -0.8124  0.9996 -0.2125
   47MOL0     H 6203   4.525   7.215   2.356 -0.0859 -1.1361  0.0941
   47MOL0     H 6204   4.495   7.341   2.575  0.7188  0.7710 -1.0016
   48MOL0     O 6205   9.613   5.556   9.465 -0.3667 -0.1870  0.1123
   48MOL0     C 6206   9.567   5.666   9.424  0.1363 -0.1000  0.0882
   48MOL0     O 6207   9.645   5.771   9.394  0.3790  0.4785 -0.0298
   48MOL0     C 6208   9.780   5.758   9.411  0.1124 -0.5921  1.1000
   48MOL0     C 6209   9.848   5.849   9.483  0.1220 -0.3959 -1.0651
   48MOL0     C 6210   9.984   5.850   9.491 -0.2427 -0.1102  0.4844
   48MOL0     C 6211  10.056   5.752   9.431 -0.6889  0.1175 -0.2570
   48MOL0     O 6212  10.194   5.761   9.452  0.1966 -1.4308  0.1523
   48MOL0     C 6213  10.271   5.648   9.413  0.2722  0.2382  0.2177
   48MOL0     C 6214  10.425   5.681   9.410  0.0519 -0.1534 -0.0872
   48MOL0     C 6215  10.472   5.685   9.259  1.7405 -0.0207  0.9980
   48MOL0     C 6216  10.614   5.734   9.252 -0.8407  0.3613 -0.0221
   48MOL0     C 6217  10.662   5.721   9.107  0.4300 -0.2544 -0.9423
   48MOL0     C 6218  10.546   5.759   9.003  0.7802  0.2788  0.4272
   48MOL0     C 6219  10.586   5.726   8.853 -0.4405  0.1151 -0.5859
   48MOL0     C 6220  10.658   5.846   8.784 -0.2907  0.5191 -1.2702
   48MOL0     N 6221  10.565   5.960   8.769  0.2492 -0.4806 -0.6067
   48MOL0     C 6222  10.444   5.959   8.716 -0.2199 -0.1289 -0.0087
   48MOL0     C 6223  10.389   6.071   8.744 -0.7749 -1.2182  0.3439
   48MOL0     C 6224  10.241   6.105   8.725 -0.3788  0.0902  0.2607
   48MOL0     C 6225  10.149   6.042   8.831 -0.4718  0.4530 -0.1081
   48MOL0     C 6226  10.008   6.097   8.842  0.1564 -0.5903 -0.5473
   48MOL0     C 6227   9.919   6.093   8.724 -0.1024 -0.6487  0.7241
   48MOL0     O 6228   9.852   5.963   8.698 -0.4411 -0.4836 -0.4885
   48MOL0     C 6229   9.745   5.984   8.614  0.3770 -0.0560  0.0705
   48MOL0     C 6230   9.625   5.939   8.667 -0.4937  0.7962 -0.3907
   48MOL0     C 6231   9.506   5.972   8.593  0.7336  0.4861  0.0731
   48MOL0     C 6232   9.510   6.042   8.461 -0.1220  0.5309  0.2682
   48MOL0     C 6233   9.378   6.069   8.393  0.5476  1.6769  0.0525
   48MOL0     O 6234   9.378   6.137   8.283 -0.4858  0.0866  0.9740
   48MOL0     C 6235   9.276   6.125   8.190  0.6161 -0.2278  0.3161
   48MOL0     C 6236   9.144   6.082   8.216  0.2884 -0.1430  0.3096
   48MOL0     C 6237   9.051   6.088   8.111  0.2353  0.6186  0.3955
   48MOL0     C 6238   9.076   6.133   7.982  0.3015  0.9709 -0.2798
   48MOL0     O 6239   8.966   6.149   7.900 -0.6391  0.3291 -0.1076
   48MOL0     C 6240   8.991   6.174   7.761 -0.0988 -0.4064 -0.3853
   48MOL0     C 6241   8.855   6.170   7.681 -0.0744 -0.2917  0.5598
   48MOL0     C 6242   8.899   6.121   7.539 -0.5133 -0.3431  0.2334
   48MOL0     C 6243   8.777   6.135   7.451 -0.2276  0.0044 -0.0406
   48MOL0     C 6244   8.798   6.056   7.322  0.2908 -0.0972  0.1079
   48MOL0     C 6245   8.898   6.123   7.226  1.0713  0.4306  0.3355
   48MOL0     C 6246   8.874   6.098   7.072  0.3613 -0.5139 -0.2631
   48MOL0     C 6247   8.873   5.950   7.036  0.3777 -0.0092  0.0180
   48MOL0    Cl 6248   8.803   5.927   6.867 -0.5916  0.5514  0.2334
   48MOL0     C 6249   9.208   6.174   7.957 -0.2073 -0.1900 -0.1049
   48MOL0     C 6250   9.298   6.176   8.065 -0.2102  0.2897  0.9279
   48MOL0     O 6251   9.281   6.030   8.453 -0.4709 -0.8218 -0.7195
   48MOL0     C 6252   9.640   6.074   8.407 -0.7700  0.2619 -0.2979
   48MOL0     C 6253   9.758   6.050   8.489  0.7709  0.4442 -0.0195
   48MOL0     N 6254  10.478   6.155   8.809  0.1082 -0.0801  0.5201
   48MOL0     N 6255  10.586   6.087   8.815 -0.4849 -0.1180 -0.6224
   48MOL0     C 6256   9.990   5.649   9.362 -0.2770 -0.3288  0.3868
   48MOL0     C 6257   9.856   5.664   9.349 -0.1198 -0.6958  0.9341
   48MOL0     C 6258   9.430   5.675   9.387  0.9929  0.1227 -0.0862
   48MOL0     C 6259   9.346   5.564   9.397  0.6364  0.5800 -0.3104
   48MOL0     C 6260   9.207   5.557   9.358 -0.5266  0.9410  1.1110
   48MOL0     C 6261   9.154   5.671   9.317  1.0906  0.3601  0.3425
   48MOL0     O 6262   9.026   5.666   9.264  0.3061 -0.0696  0.7040
   48MOL0     C 6263   9.003   5.764   9.165 -1.0357  0.5403 -0.0381
   48MOL0     C 6264   8.885   5.735   9.073  0.8690 -0.1880  0.0820
   48MOL0     C 6265   8.903   5.618   8.968 -0.5878 -0.2470 -0.4468
   48MOL0     C 6266   8.771   5.544   8.951  0.4452  0.1158  0.0684
   48MOL0     C 6267   8.677   5.635   8.891  0.0008  0.6176  0.9769
   48MOL0     C 6268   8.607   5.722   8.846  0.0716 -0.0809 -0.1157
   48MOL0     C 6269   9.227   5.787   9.324 -0.0775  0.0968  0.4056
   48MOL0     C 6270   9.356   5.791   9.354 -0.6944 -0.0507  0.6137
   48MOL0     H 6271   9.788   5.920   9.539  0.4240  0.5964 -1.9566
   48MOL0     H 6272  10.044   5.928   9.536 -0.2783 -0.1044  0.5224
   48MOL0     H 6273  10.248   5.618   9.311 -0.1088  3.3937 -0.7218
   48MOL0     H 6274  10.267   5.568   9.487  1.3384 -0.4987 -0.4940
   48MOL0     H 6275  10.479   5.601   9.460  2.3602  1.1697 -0.3173
   48MOL0     H 6276  10.445   5.776   9.461  1.2448  0.8785 -2.3177
   48MOL0     H 6277  10.417   5.763   9.207  1.0667 -2.2466 -1.8648
   48MOL0     H 6278  10.468   5.590   9.204  1.8073  2.7559 -4.4337
   48MOL0     H 6279  10.608   5.835   9.294  0.6730 -0.2361  1.7141
   48MOL0     H 6280  10.673   5.667   9.314  0.7392 -0.7663 -2.5889
   48MOL0     H 6281  10.711   5.624   9.094 -0.2241 -0.4225 -2.3161
   48MOL0     H 6282  10.742   5.794   9.091 -0.6478  0.6461 -2.4206
   48MOL0     H 6283  10.517   5.865   9.006 -1.3433 -0.2591  3.0697
   48MOL0     H 6284  10.459   5.693   9.014  3.4641 -3.6680 -0.2979
   48MOL0     H 6285  10.669   5.655   8.865  1.3532  2.0816 -0.8861
   48MOL0     H 6286  10.502   5.684   8.796 -2.0900 -0.3691  2.0203
   48MOL0     H 6287  10.688   5.825   8.681  1.0772 -0.8886 -0.6144
   48MOL0     H 6288  10.746   5.878   8.840  0.8109 -1.6263 -1.6991
   48MOL0     H 6289  10.391   5.879   8.665  0.8627  0.1444 -1.6236
   48MOL0     H 6290  10.198   6.073   8.629 -2.7062 -0.6513  1.4659
   48MOL0     H 6291  10.231   6.214   8.732  1.3927  0.9877 -5.5673
   48MOL0     H 6292  10.195   6.065   8.928  1.6913  1.6696 -1.3455
   48MOL0     H 6293  10.154   5.933   8.823  3.6067  0.4012  0.9584
   48MOL0     H 6294   9.953   6.063   8.931  0.6466  2.0486  0.8580
   48MOL0     H 6295  10.037   6.199   8.869 -0.9755 -0.7319  1.3965
   48MOL0     H 6296   9.986   6.128   8.644  0.4429 -1.3003  0.8879
   48MOL0     H 6297   9.847   6.175   8.727  2.2199  1.6690 -1.1690
   48MOL0     H 6298   9.610   5.890   8.762 -2.0077 -2.5547 -2.2007
   48MOL0     H 6299   9.416   5.938   8.643  0.2426 -0.4103 -1.3816
   48MOL0     H 6300   9.113   6.042   8.312  0.5031 -0.8524  0.0860
   48MOL0     H 6301   8.945   6.076   8.133  1.3205 -1.2039  6.1606
   48MOL0     H 6302   9.054   6.090   7.728  2.5530  0.8881  1.0022
   48MOL0     H 6303   9.043   6.268   7.740 -0.8302  0.5363  1.7283
   48MOL0     H 6304   8.804   6.266   7.687  1.2724  0.3891  1.7086
   48MOL0     H 6305   8.799   6.090   7.728  0.3104  0.0983  1.7147
   48MOL0     H 6306   8.940   6.020   7.548 -0.4368 -0.3550 -0.1944
   48MOL0     H 6307   8.977   6.186   7.498 -2.6171  1.5547 -1.0335
   48MOL0     H 6308   8.698   6.090   7.511  2.6609  0.2595  4.3762
   48MOL0     H 6309   8.756   6.241   7.434  1.5454 -0.0632 -3.5916
   48MOL0     H 6310   8.696   6.047   7.283  0.1886 -3.5367  0.8616
   48MOL0     H 6311   8.830   5.955   7.346  1.1458  0.0723 -0.2915
   48MOL0     H 6312   8.988   6.068   7.255  1.4063  1.0273  0.4314
   48MOL0     H 6313   8.910   6.228   7.253  0.3136  0.5592  0.1881
   48MOL0     H 6314   8.773   6.136   7.053 -0.5170 -3.4199 -2.0537
   48MOL0     H 6315   8.954   6.154   7.023 -0.0986 -0.4367 -0.9374
   48MOL0     H 6316   8.812   5.896   7.108 -0.4381  1.0838  0.1860
   48MOL0     H 6317   8.974   5.912   7.047  1.0283  1.6720  0.1080
   48MOL0     H 6318   9.233   6.202   7.855 -1.5616  1.7576  0.0514
   48MOL0     H 6319   9.394   6.227   8.065  0.9420 -1.7771  0.7944
   48MOL0     H 6320   9.656   6.112   8.307  0.6713  1.7835  0.4498
   48MOL0     H 6321   9.858   6.079   8.457  2.6487 -3.2060  1.8293
   48MOL0     H 6322  10.040   5.574   9.301 -0.4710 -1.5501  1.6547
   48MOL0     H 6323   9.805   5.590   9.287 -0.5952 -0.0312  0.5110
   48MOL0     H 6324   9.399   5.478   9.436  1.3138  1.7718  1.5338
   48MOL0     H 6325   9.167   5.456   9.370  0.7198  0.2175 -0.4784
   48MOL0     H 6326   9.096   5.778   9.109 -1.7015  0.5937 -1.1560
   48MOL0     H 6327   8.985   5.858   9.218  0.8488  1.7887 -1.4962
   48MOL0     H 6328   8.794   5.713   9.130 -0.2316  0.7235 -1.2431
   48MOL0     H 6329   8.876   5.828   9.017 -0.8310 -0.1833  0.3175
   48MOL0     H 6330   8.971   5.542   9.008 -1.0265  0.3651  1.5379
   48MOL0     H 6331   8.951   5.637   8.872 -0.0465 -1.6819 -0.4882
   48MOL0     H 6332   8.763   5.449   8.897 -1.6596  1.5727 -2.4456
   48MOL0     H 6333   8.722   5.524   9.047 -4.2070  0.0170 -2.0414
   48MOL0     H 6334   8.549   5.805   8.812  2.3775  0.9598 -1.6891
   48MOL0     H 6335   9.172   5.877   9.297 -1.1605 -1.5550 -3.7138
   48MOL0     H 6336   9.405   5.887   9.340  1.0657 -1.2595 -2.5998
   49MOL0     O 6337   7.365   5.148   3.124  0.6611 -0.3517  0.7923
   49MOL0     C 6338   7.278   5.067   3.147  0.0321  0.0126 -0.1140
   49MOL0     O 6339   7.185   5.011   3.065 -0.3545  0.4827  0.6431
   49MOL0     C 6340   7.157   5.047   2.931 -0.9145 -0.3624 -1.0596
   49MOL0     C 6341   7.076   4.965   2.855 -0.0827  0.6424 -0.3262
   49MOL0     C 6342   7.018   4.996   2.732 -0.2883 -0.0109 -0.6877
   49MOL0     C 6343   7.059   5.117   2.664 -0.3618  0.3960  0.0221
   49MOL0     O 6344   7.004   5.169   2.554  0.2196  0.1890 -0.6491
   49MOL0     C 6345   6.891   5.112   2.500  0.4958 -0.2777 -0.3752
   49MOL0     C 6346   6.852   5.184   2.373 -0.8983  0.2812  0.4338
   49MOL0     C 6347   6.802   5.330   2.393 -0.0086 -0.6303  0.4759
   49MOL0     C 6348   6.750   5.381   2.259 -0.7546 -0.2541 -0.1360
   49MOL0     C 6349   6.691   5.525   2.272  1.0308 -0.0915 -0.1948
   49MOL0     C 6350   6.636   5.584   2.143 -0.0335 -0.0078 -0.6015
   49MOL0     C 6351   6.612   5.731   2.172  0.1549 -0.6763  0.4985
   49MOL0     C 6352   6.592   5.821   2.044  0.3468 -0.0816  0.5602
   49MOL0     N 6353   6.472   5.797   1.958  0.0333  0.7200  0.2297
   49MOL0     C 6354   6.452   5.712   1.845 -0.2907  1.1004 -0.6756
   49MOL0     C 6355   6.352   5.770   1.778 -0.0129 -1.6710  0.3523
   49MOL0     C 6356   6.282   5.748   1.654 -0.1790 -0.0614 -0.7574
   49MOL0     C 6357   6.383   5.768   1.534 -0.6052  0.2608 -0.1981
   49MOL0     C 6358   6.411   5.909   1.504 -0.0222 -0.5936 -0.2306
   49MOL0     C 6359   6.572   5.942   1.502 -0.6379 -0.2213 -0.0078
   49MOL0     O 6360   6.599   6.077   1.538  0.5028 -0.0802 -0.6258
   49MOL0     C 6361   6.619   6.097   1.672  0.4294 -0.3609  0.1311
   49MOL0     C 6362   6.733   6.057   1.747 -0.4700 -0.0267  0.5809
   49MOL0     C 6363   6.746   6.104   1.880  1.1895  0.4298 -1.5783
   49MOL0     C 6364   6.645   6.181   1.941  0.3747  0.5299 -0.5375
   49MOL0     C 6365   6.651   6.214   2.086  0.3057 -0.2138 -0.2677
   49MOL0     O 6366   6.740   6.131   2.159  0.0692  0.0089  0.7996
   49MOL0     C 6367   6.744   6.136   2.288 -0.5021  0.3063 -0.3458
   49MOL0     C 6368   6.633   6.127   2.382  0.2616 -0.4018  0.0425
   49MOL0     C 6369   6.650   6.155   2.522 -0.3393  0.5913 -0.3853
   49MOL0     C 6370   6.778   6.160   2.572  0.0404 -0.3526  0.6538
   49MOL0     O 6371   6.803   6.180   2.702  0.1744  0.5503 -0.2910
   49MOL0     C 6372   6.721   6.108   2.806  0.3115 -0.4257  0.1452
   49MOL0     C 6373   6.753   6.185   2.928 -0.0348 -0.7983 -0.3990
   49MOL0     C 6374   6.722   6.337   2.911  0.5685 -0.0171  0.0046
   49MOL0     C 6375   6.801   6.420   3.018  0.7917 -0.2917 -0.2293
   49MOL0     C 6376   6.782   6.387   3.163  0.3722  0.5853 -0.0001
   49MOL0     C 6377   6.638   6.404   3.214 -0.7233  0.9718 -0.7654
   49MOL0     C 6378   6.630   6.385   3.369 -0.2904 -1.0067  0.2165
   49MOL0     C 6379   6.650   6.513   3.446 -0.5017  0.0611 -0.5096
   49MOL0    Cl 6380   6.518   6.636   3.421  0.4930  0.1060 -0.3047
   49MOL0     C 6381   6.884   6.178   2.483 -0.5500  1.0957 -0.1845
   49MOL0     C 6382   6.871   6.152   2.353  0.3404 -1.0769  0.9641
   49MOL0     O 6383   6.591   6.305   2.129  0.9322 -0.0015 -0.3479
   49MOL0     C 6384   6.535   6.218   1.866 -0.5237 -0.3404 -0.0373
   49MOL0     C 6385   6.526   6.179   1.733  0.9166 -0.6438 -0.4707
   49MOL0     N 6386   6.312   5.881   1.852 -0.1679 -0.1152 -0.8883
   49MOL0     N 6387   6.380   5.888   1.959  0.5377 -0.1484 -0.1067
   49MOL0     C 6388   7.166   5.197   2.730 -1.0868  1.0205  0.8290
   49MOL0     C 6389   7.212   5.161   2.860  1.3581  0.2297  0.3497
   49MOL0     C 6390   7.258   5.049   3.285  0.3881  1.6432 -0.0391
   49MOL0     C 6391   7.208   4.924   3.319  0.0205  0.4260 -0.7883
   49MOL0     C 6392   7.174   4.897   3.450  0.6038 -0.7280 -0.4940
   49MOL0     C 6393   7.193   5.005   3.553 -0.4937 -0.3329 -0.5359
   49MOL0     O 6394   7.156   4.976   3.677 -0.3013  0.1440  0.3922
   49MOL0     C 6395   7.067   5.059   3.737 -0.3892 -0.2762  0.3399
   49MOL0     C 6396   6.923   5.017   3.701  1.1558  0.2383 -0.3459
   49MOL0     C 6397   6.866   4.891   3.776  0.4012 -0.6314 -0.3889
   49MOL0     C 6398   6.812   4.941   3.919  0.2307 -1.5869  0.4291
   49MOL0     C 6399   6.791   4.840   4.018  0.6259  0.5692 -0.1614
   49MOL0     C 6400   6.774   4.761   4.108 -0.3361  0.5680 -0.0011
   49MOL0     C 6401   7.245   5.124   3.511  0.1042 -0.3514  0.3040
   49MOL0     C 6402   7.279   5.151   3.381  0.2552  0.7675 -0.3205
   49MOL0     H 6403   7.040   4.885   2.918 -1.0047  1.9290  0.8394
   49MOL0     H 6404   6.936   4.933   2.697 -1.2771 -0.1459  1.6495
   49MOL0     H 6405   6.819   5.122   2.583 -0.0945 -4.3105 -0.2025
   49MOL0     H 6406   6.902   5.007   2.473 -0.4571 -0.5927  0.3688
   49MOL0     H 6407   6.772   5.127   2.326 -1.1084  1.4198 -0.6376
   49MOL0     H 6408   6.940   5.179   2.309 -0.7552 -2.3697  0.7368
   49MOL0     H 6409   6.876   5.406   2.420 -2.0468  1.6306  0.1032
   49MOL0     H 6410   6.727   5.338   2.472 -0.3478 -3.4284  0.5225
   49MOL0     H 6411   6.834   5.367   2.190  0.7071 -0.4795  1.6137
   49MOL0     H 6412   6.677   5.307   2.227 -1.9329  1.1332 -0.7574
   49MOL0     H 6413   6.760   5.596   2.318 -1.2891  0.5346  2.6921
   49MOL0     H 6414   6.610   5.540   2.345  2.8779  3.5923  1.3327
   49MOL0     H 6415   6.541   5.540   2.112  0.2999  0.0738 -1.7915
   49MOL0     H 6416   6.716   5.576   2.069  1.9915 -2.5041  1.6719
   49MOL0     H 6417   6.524   5.740   2.237  1.9719  1.5769  2.8754
   49MOL0     H 6418   6.699   5.774   2.222 -0.3245  0.3349  0.4869
   49MOL0     H 6419   6.666   5.812   1.964 -1.9956  1.1866 -1.9101
   49MOL0     H 6420   6.584   5.921   2.088 -0.6001 -0.4118  1.1516
   49MOL0     H 6421   6.513   5.627   1.818 -2.2297 -1.5346  2.5200
   49MOL0     H 6422   6.196   5.815   1.648 -0.0350  0.1091 -0.9601
   49MOL0     H 6423   6.238   5.647   1.657  0.9697 -0.5390  0.9562
   49MOL0     H 6424   6.345   5.726   1.440 -1.8166  2.4383 -0.7489
   49MOL0     H 6425   6.477   5.719   1.560 -0.4422  1.2614  1.2045
   49MOL0     H 6426   6.369   5.924   1.404 -3.1643 -1.6131  0.8372
   49MOL0     H 6427   6.361   5.976   1.574 -0.0085 -0.8359  0.0137
   49MOL0     H 6428   6.604   5.915   1.401  2.1945  1.0450  0.4437
   49MOL0     H 6429   6.623   5.873   1.569  2.3550  0.6355 -1.2224
   49MOL0     H 6430   6.816   6.007   1.698  0.8306  1.7930  0.8315
   49MOL0     H 6431   6.830   6.072   1.942 -0.6526 -0.4326  0.5995
   49MOL0     H 6432   6.530   6.116   2.352  0.0025  2.1543 -0.1655
   49MOL0     H 6433   6.567   6.124   2.584  0.7692  0.9874  1.4018
   49MOL0     H 6434   6.758   6.006   2.816 -1.5579 -1.3066 -1.2284
   49MOL0     H 6435   6.612   6.109   2.791  0.2633  0.4809  0.5056
   49MOL0     H 6436   6.859   6.167   2.949  0.0106 -1.1284 -0.9093
   49MOL0     H 6437   6.687   6.150   3.008  0.2390  1.3132  0.8389
   49MOL0     H 6438   6.615   6.358   2.907  0.6806  0.4242 -1.0340
   49MOL0     H 6439   6.755   6.381   2.817  0.7868 -2.0810 -0.9333
   49MOL0     H 6440   6.904   6.439   2.986  0.9349  1.6611  1.1672
   49MOL0     H 6441   6.762   6.521   3.006  3.6023  0.6052 -3.3252
   49MOL0     H 6442   6.853   6.444   3.224  1.2622  2.6402 -2.7527
   49MOL0     H 6443   6.799   6.279   3.169  0.6281  0.5542 -1.0802
   49MOL0     H 6444   6.575   6.328   3.168 -1.7389  1.1113  0.3459
   49MOL0     H 6445   6.611   6.507   3.186 -3.1723  0.8735  0.8914
   49MOL0     H 6446   6.535   6.335   3.392 -1.2733 -0.5804 -2.6137
   49MOL0     H 6447   6.698   6.314   3.417 -1.5838 -1.8153  0.9098
   49MOL0     H 6448   6.748   6.559   3.424 -0.2984  1.2405  2.4684
   49MOL0     H 6449   6.647   6.503   3.554 -2.3294 -1.3486 -0.6524
   49MOL0     H 6450   6.980   6.200   2.528 -0.3371 -2.2784  1.3020
   49MOL0     H 6451   6.965   6.147   2.299  0.0038  2.1285 -0.1214
   49MOL0     H 6452   6.447   6.275   1.895  0.4584  2.1606 -1.6387
   49MOL0     H 6453   6.436   6.213   1.682  0.9031 -1.1801 -0.8135
   49MOL0     H 6454   7.222   5.281   2.688  2.3369 -1.0255  0.9614
   49MOL0     H 6455   7.286   5.227   2.905 -0.1147  1.1266  1.5449
   49MOL0     H 6456   7.220   4.841   3.250  2.1153  0.7062 -0.8347
   49MOL0     H 6457   7.133   4.799   3.473 -0.9141  0.0503  0.3019
   49MOL0     H 6458   7.085   5.156   3.689  0.6894 -0.6382 -0.0136
   49MOL0     H 6459   7.076   5.083   3.844 -1.1534  3.3489 -0.2630
   49MOL0     H 6460   6.855   5.103   3.704  1.3552  0.5530 -2.7168
   49MOL0     H 6461   6.926   4.993   3.594 -0.3704 -0.1625 -0.3212
   49MOL0     H 6462   6.947   4.821   3.799 -2.6691 -4.2549  0.2424
   49MOL0     H 6463   6.784   4.844   3.722 -1.6116  2.0060  0.1373
   49MOL0     H 6464   6.886   5.009   3.962 -0.0571 -0.4127 -0.8788
   49MOL0     H 6465   6.721   4.998   3.903  1.2448 -0.4457 -1.8392
   49MOL0     H 6466   6.753   4.701   4.194 -1.4685 -1.0608 -1.3392
   49MOL0     H 6467   7.241   5.205   3.583 -0.8195 -1.3017  1.3753
   49MOL0     H 6468   7.332   5.239   3.347  3.2954 -1.1372 -0.8990
   50MOL0     O 6469   6.454   6.835  10.627 -1.1143  0.1217  0.5049
   50MOL0     C 6470   6.526   6.736  10.609 -0.2723 -0.4946 -0.0135
   50MOL0     O 6471   6.483   6.603  10.598 -0.4507 -0.5400  0.6550
   50MOL0     C 6472   6.356   6.574  10.562  0.2253  0.4414  0.2390
   50MOL0     C 6473   6.329   6.517  10.434 -0.9208 -0.0685 -0.5471
   50MOL0     C 6474   6.199   6.482  10.403 -0.5387 -0.0225 -0.1669
   50MOL0     C 6475   6.098   6.504  10.504 -0.1303 -0.5618  0.2493
   50MOL0     O 6476   5.966   6.464  10.486 -0.4830 -0.4180  0.0043
   50MOL0     C 6477   5.926   6.483  10.348 -0.8504  0.1595  0.7059
   50MOL0     C 6478   5.774   6.489  10.340 -0.9870 -0.2350 -0.1846
   50MOL0     C 6479   5.691   6.402  10.438  0.7154 -0.3416 -0.5940
   50MOL0     C 6480   5.697   6.253  10.409  0.0368 -0.2295 -0.4193
   50MOL0     C 6481   5.560   6.185  10.460 -0.9618  0.3665  0.7600
   50MOL0     C 6482   5.457   6.183  10.359  0.2161  0.4692  0.4057
   50MOL0     C 6483   5.474   6.088  10.247  0.2504 -0.3263  0.2693
   50MOL0     C 6484   5.336   6.040  10.203 -1.1728 -0.6392  0.1228
   50MOL0     N 6485   5.329   5.914  10.119  0.2937  0.0905 -0.2061
   50MOL0     C 6486   5.215   5.850  10.055 -0.5459  0.0336  0.5245
   50MOL0     C 6487   5.269   5.743   9.988 -0.4416  0.8327 -0.2572
   50MOL0     C 6488   5.174   5.641   9.926 -0.0091  0.1382  0.7663
   50MOL0     C 6489   5.119   5.705   9.795  0.4386 -0.0855 -0.3660
   50MOL0     C 6490   5.033   5.607   9.722 -0.2516 -0.4326  0.0691
   50MOL0     C 6491   4.954   5.690   9.615 -0.3410 -0.0761 -0.5933
   50MOL0     O 6492   4.872   5.617   9.515 -0.1323  0.0327  1.2460
   50MOL0     C 6493   4.840   5.675   9.394  0.5123 -0.4932  0.0362
   50MOL0     C 6494   4.782   5.592   9.299 -0.4561 -0.0443 -0.0085
   50MOL0     C 6495   4.743   5.645   9.182  0.0218  0.4465 -0.8776
   50MOL0     C 6496   4.742   5.785   9.151  0.0134  0.2638 -0.2799
   50MOL0     C 6497   4.695   5.841   9.019 -1.4824  0.2177  0.9251
   50MOL0     O 6498   4.629   5.753   8.929 -0.3218  0.1601 -0.4075
   50MOL0     C 6499   4.550   5.794   8.822  0.2710  1.2512  0.4107
   50MOL0     C 6500   4.557   5.913   8.746 -0.2899 -0.7212  0.3285
   50MOL0     C 6501   4.487   5.940   8.634  0.6730 -0.7810  0.7784
   50MOL0     C 6502   4.386   5.851   8.597  0.0269 -0.0960 -0.2672
   50MOL0     O 6503   4.294   5.859   8.496  0.5492  1.1943  0.0930
   50MOL0     C 6504   4.337   5.867   8.366 -0.2092 -0.0968  0.0366
   50MOL0     C 6505   4.236   5.799   8.283  0.5356  0.4020 -0.3587
   50MOL0     C 6506   4.178   5.899   8.190 -0.1649 -0.2557 -0.3152
   50MOL0     C 6507   4.065   5.840   8.115  0.2866 -0.0170  0.2194
   50MOL0     C 6508   4.057   5.885   7.968  0.3828 -0.0588  0.1051
   50MOL0     C 6509   3.915   5.863   7.923 -0.5839 -0.1261 -0.0345
   50MOL0     C 6510   3.910   5.723   7.883  0.0685  0.1481 -0.2810
   50MOL0     C 6511   3.759   5.678   7.854  0.2905  0.2453  1.0869
   50MOL0    Cl 6512   3.740   5.504   7.842  0.2519  0.5955 -0.0726
   50MOL0     C 6513   4.385   5.730   8.664  0.0285  0.8119  0.6259
   50MOL0     C 6514   4.457   5.699   8.780  0.7384 -1.0161 -0.6211
   50MOL0     O 6515   4.708   5.962   9.013  0.2934  0.4640  0.3447
   50MOL0     C 6516   4.801   5.876   9.249  0.6166  0.2666  0.6430
   50MOL0     C 6517   4.850   5.815   9.370  0.5066  0.6294  0.2983
   50MOL0     N 6518   5.401   5.732  10.030 -0.0068 -0.3323  0.4650
   50MOL0     N 6519   5.437   5.828  10.101  0.1739 -0.8920 -0.3219
   50MOL0     C 6520   6.136   6.548  10.630 -0.0409  0.7928 -0.2427
   50MOL0     C 6521   6.265   6.585  10.659  0.5069  0.4169 -1.5828
   50MOL0     C 6522   6.671   6.753  10.605  0.5024  0.4076  0.3214
   50MOL0     C 6523   6.756   6.655  10.658 -0.1918  0.8945  0.0391
   50MOL0     C 6524   6.894   6.685  10.644 -0.3638 -0.1802 -1.1196
   50MOL0     C 6525   6.951   6.813  10.607 -0.1859  0.5288  0.4043
   50MOL0     O 6526   7.089   6.824  10.599  1.1137 -0.0350 -0.0894
   50MOL0     C 6527   7.160   6.950  10.597  0.3599 -0.3117 -0.2013
   50MOL0     C 6528   7.307   6.928  10.584 -0.6855  0.3762  0.9645
   50MOL0     C 6529   7.361   6.850  10.701 -0.3507 -0.3954  0.3849
   50MOL0     C 6530   7.493   6.915  10.741 -0.5261 -0.6292 -0.4868
   50MOL0     C 6531   7.510   7.048  10.810  0.6173 -0.5157  0.4662
   50MOL0     C 6532   7.504   7.150  10.868 -0.4006  0.5172 -1.2511
   50MOL0     C 6533   6.868   6.910  10.572 -0.1924  0.1782 -0.4889
   50MOL0     C 6534   6.724   6.879  10.574 -0.4388 -0.4178  0.0280
   50MOL0     H 6535   6.419   6.501  10.375  0.9841  1.4251  1.7828
   50MOL0     H 6536   6.190   6.447  10.300 -1.0427 -2.5145  0.6503
   50MOL0     H 6537   5.965   6.388  10.309 -1.2547  0.2034  0.1936
   50MOL0     H 6538   5.963   6.571  10.295 -0.2068 -1.4304 -1.6576
   50MOL0     H 6539   5.740   6.470  10.237 -0.4169 -0.1687 -0.3907
   50MOL0     H 6540   5.743   6.591  10.362  2.8354  1.0275  0.0949
   50MOL0     H 6541   5.588   6.439  10.433  0.0864 -0.6755  4.4040
   50MOL0     H 6542   5.718   6.416  10.543  1.2060 -3.6403 -0.1643
   50MOL0     H 6543   5.717   6.228  10.304  1.1492 -0.4885 -0.1575
   50MOL0     H 6544   5.768   6.201  10.474 -0.9268 -0.6536  0.3159
   50MOL0     H 6545   5.512   6.240  10.541 -2.3160 -1.5133  1.2967
   50MOL0     H 6546   5.579   6.082  10.489  1.6097  1.0310  1.6465
   50MOL0     H 6547   5.445   6.284  10.319  1.9167  0.6268  0.2095
   50MOL0     H 6548   5.364   6.149  10.405 -0.5030 -3.1531 -3.1073
   50MOL0     H 6549   5.517   6.139  10.159  0.1656  1.6924  1.3339
   50MOL0     H 6550   5.540   6.010  10.286  2.4113  2.4088  2.5068
   50MOL0     H 6551   5.283   6.121  10.151  0.6040  1.3288  1.2261
   50MOL0     H 6552   5.268   6.021  10.286  0.6087  0.6915  1.9892
   50MOL0     H 6553   5.114   5.887  10.068  0.7065  2.9064  3.7525
   50MOL0     H 6554   5.096   5.612   9.996  1.0117 -5.2368  0.1257
   50MOL0     H 6555   5.229   5.550   9.902 -2.4950 -2.1370  3.1044
   50MOL0     H 6556   5.199   5.746   9.732  0.6659 -1.4578 -0.9949
   50MOL0     H 6557   5.052   5.785   9.829 -0.4838 -1.4613  1.1675
   50MOL0     H 6558   5.093   5.534   9.667 -0.9437 -0.0318 -1.2459
   50MOL0     H 6559   4.965   5.554   9.790 -1.7012 -1.5165 -2.0892
   50MOL0     H 6560   5.028   5.751   9.563  1.3316  1.1039  2.8639
   50MOL0     H 6561   4.887   5.760   9.666  1.4505  1.4566 -0.2585
   50MOL0     H 6562   4.757   5.489   9.319 -1.8952  0.6612  2.0966
   50MOL0     H 6563   4.687   5.572   9.124  1.1685 -0.3463 -1.0236
   50MOL0     H 6564   4.636   5.986   8.763 -0.5795 -0.7233  1.7539
   50MOL0     H 6565   4.507   6.035   8.585  1.4986 -0.7400  1.1651
   50MOL0     H 6566   4.435   5.821   8.351 -2.5786 -5.1771 -2.2797
   50MOL0     H 6567   4.349   5.974   8.347  2.1313 -0.8211 -3.5682
   50MOL0     H 6568   4.164   5.740   8.340 -1.0513 -0.3496 -3.0079
   50MOL0     H 6569   4.298   5.738   8.217 -0.3845 -0.2553 -0.6306
   50MOL0     H 6570   4.256   5.948   8.131 -0.6541  1.0782  0.1194
   50MOL0     H 6571   4.141   5.983   8.250  2.7802  0.3684  0.8069
   50MOL0     H 6572   4.067   5.731   8.124 -0.2015 -0.1571 -1.1157
   50MOL0     H 6573   3.971   5.876   8.158 -0.4685 -0.8607 -0.6447
   50MOL0     H 6574   4.127   5.825   7.909 -0.5704 -4.2588  2.7940
   50MOL0     H 6575   4.080   5.990   7.948  1.2143 -0.6379 -2.4042
   50MOL0     H 6576   3.892   5.927   7.837 -0.1025 -0.0645 -0.1203
   50MOL0     H 6577   3.835   5.880   7.995 -1.9831  3.3996 -2.1445
   50MOL0     H 6578   3.978   5.706   7.799  0.6123 -1.0818  0.3772
   50MOL0     H 6579   3.943   5.649   7.956  0.5772 -0.4038 -1.0573
   50MOL0     H 6580   3.724   5.715   7.758  0.8207 -2.9354 -0.4729
   50MOL0     H 6581   3.686   5.712   7.928 -0.0644  0.8691  0.4585
   50MOL0     H 6582   4.313   5.662   8.620 -1.8334  3.0280  0.0155
   50MOL0     H 6583   4.445   5.598   8.819  0.4001 -0.7022  0.1066
   50MOL0     H 6584   4.804   5.982   9.226 -3.5362 -0.0878 -2.6076
   50MOL0     H 6585   4.896   5.877   9.446 -1.5509  1.1741  1.1696
   50MOL0     H 6586   6.076   6.546  10.720 -1.2026 -0.2480 -1.0003
   50MOL0     H 6587   6.289   6.609  10.762 -0.9378 -2.1406 -0.5572
   50MOL0     H 6588   6.716   6.558  10.687 -0.4488  1.3888  1.3731
   50MOL0     H 6589   6.957   6.601  10.672  0.6295  0.9774  0.3217
   50MOL0     H 6590   7.130   7.002  10.689  1.4762  0.9480 -0.5213
   50MOL0     H 6591   7.134   7.020  10.518  1.9883  2.0858  1.2694
   50MOL0     H 6592   7.323   6.878  10.488 -0.5968 -0.1190  1.2322
   50MOL0     H 6593   7.361   7.022  10.575 -2.2593  1.0954 -3.1116
   50MOL0     H 6594   7.375   6.745  10.675  0.0603 -0.4812  0.9374
   50MOL0     H 6595   7.295   6.851  10.788 -0.2346 -0.0731  0.4729
   50MOL0     H 6596   7.530   6.855  10.825  0.0308 -0.2942 -0.4873
   50MOL0     H 6597   7.560   6.915  10.655 -0.2630  1.4758 -0.3315
   50MOL0     H 6598   7.494   7.237  10.930  0.3154  0.9815 -1.7820
   50MOL0     H 6599   6.902   7.008  10.541 -1.3425  0.4439 -0.9432
   50MOL0     H 6600   6.654   6.962  10.564 -1.4830 -1.0612  1.5982
   51MOL0     O 6601  10.263   5.314   0.265  0.3097 -0.1361  1.1947
   51MOL0     C 6602  10.269   5.208   0.318 -0.0387  0.2654 -0.2959
   51MOL0     O 6603  10.369   5.117   0.303  0.5011 -0.9689  0.8468
   51MOL0     C 6604  10.466   5.157   0.218 -0.5363  0.6457 -0.4186
   51MOL0     C 6605  10.573   5.253   0.257  0.5010 -0.7298  0.4940
   51MOL0     C 6606  10.674   5.279   0.161 -0.1202  0.7502  0.2115
   51MOL0     C 6607  10.679   5.215   0.037 -1.1057  0.3767  0.3198
   51MOL0     O 6608  10.774   5.243  -0.059 -0.7234 -0.0257 -0.5669
   51MOL0     C 6609  10.848   5.365  -0.040 -0.4726 -0.6019  0.0265
   51MOL0     C 6610  10.895   5.422  -0.183  0.7712  0.5372  0.8522
   51MOL0     C 6611  10.781   5.446  -0.283  0.3326  0.3861  0.9928
   51MOL0     C 6612  10.803   5.568  -0.357 -0.2763 -0.3416  0.4152
   51MOL0     C 6613  10.727   5.582  -0.489  1.1882 -0.7443  0.3978
   51MOL0     C 6614  10.833   5.640  -0.585  0.1579 -0.4238 -0.0329
   51MOL0     C 6615  10.785   5.641  -0.722 -0.0789  0.3270  0.6981
   51MOL0     C 6616  10.870   5.696  -0.832  0.4491 -0.5352  0.0250
   51MOL0     N 6617  10.867   5.846  -0.822 -0.6262  0.5004 -0.2049
   51MOL0     C 6618  10.802   5.936  -0.907 -0.1312  0.2133 -0.4937
   51MOL0     C 6619  10.811   6.054  -0.847 -1.1316 -0.3761  0.4443
   51MOL0     C 6620  10.778   6.199  -0.892  0.6891  0.2510 -0.3113
   51MOL0     C 6621  10.638   6.239  -0.832 -0.6545  0.4894  0.4969
   51MOL0     C 6622  10.625   6.386  -0.866 -0.0594 -0.9737  0.5488
   51MOL0     C 6623  10.479   6.438  -0.840 -0.1234 -0.1212 -0.3892
   51MOL0     O 6624  10.371   6.382  -0.908  0.5321 -0.1141 -0.4043
   51MOL0     C 6625  10.250   6.369  -0.852 -0.2356  0.1342 -0.3557
   51MOL0     C 6626  10.190   6.453  -0.764 -1.1020 -0.6130  0.5980
   51MOL0     C 6627  10.055   6.430  -0.720  0.1514 -0.1460 -0.3118
   51MOL0     C 6628   9.975   6.327  -0.772 -0.6957  0.4237  0.2622
   51MOL0     C 6629   9.846   6.294  -0.719 -0.5568 -0.7079 -0.0716
   51MOL0     O 6630   9.784   6.212  -0.803  0.3837  0.0128 -0.0611
   51MOL0     C 6631   9.650   6.190  -0.792  0.3988 -0.6634 -0.8816
   51MOL0     C 6632   9.551   6.277  -0.735  0.6610  0.5852  0.1036
   51MOL0     C 6633   9.418   6.236  -0.712 -0.1649  0.7236  0.7348
   51MOL0     C 6634   9.376   6.099  -0.736  0.0859  0.7232  0.6761
   51MOL0     O 6635   9.246   6.057  -0.716 -0.0430 -0.1797  0.0045
   51MOL0     C 6636   9.200   5.945  -0.787  0.1239 -1.2176 -0.5987
   51MOL0     C 6637   9.056   5.896  -0.763 -0.4031  0.4565 -0.0702
   51MOL0     C 6638   9.004   5.955  -0.627 -0.5106  0.2040 -0.4389
   51MOL0     C 6639   8.881   5.873  -0.568 -0.3805 -0.4027  0.4250
   51MOL0     C 6640   8.900   5.724  -0.528  0.4027  0.4091 -0.0350
   51MOL0     C 6641   8.773   5.676  -0.458 -0.5441  0.2089  0.1325
   51MOL0     C 6642   8.814   5.603  -0.328  0.8226  0.3953 -0.5242
   51MOL0     C 6643   8.698   5.534  -0.255  0.6832 -0.1665 -0.0070
   51MOL0    Cl 6644   8.615   5.413  -0.364 -0.0157 -0.1270 -0.4207
   51MOL0     C 6645   9.478   6.008  -0.767 -1.0539  0.8289  0.0448
   51MOL0     C 6646   9.608   6.060  -0.809 -0.1224  0.2626  0.1414
   51MOL0     O 6647   9.808   6.341  -0.618 -0.0663  0.0304 -0.2170
   51MOL0     C 6648  10.038   6.238  -0.863 -0.6534  0.5286 -0.3570
   51MOL0     C 6649  10.173   6.258  -0.899 -0.2634  0.1120  0.5534
   51MOL0     N 6650  10.894   6.039  -0.737 -0.5563  1.3295 -0.7502
   51MOL0     N 6651  10.918   5.918  -0.714  0.2475  0.1354  0.6484
   51MOL0     C 6652  10.579   5.120   0.004  0.4138  0.0972 -0.3239
   51MOL0     C 6653  10.474   5.095   0.095  0.1411  0.1063  0.1456
   51MOL0     C 6654  10.154   5.160   0.389  0.2912  0.4996 -0.1366
   51MOL0     C 6655  10.038   5.243   0.423 -0.3754  0.3171  0.3107
   51MOL0     C 6656   9.928   5.183   0.483 -0.3101 -0.8724  0.0801
   51MOL0     C 6657   9.930   5.056   0.512 -0.4813  0.3759  0.6746
   51MOL0     O 6658   9.815   5.004   0.562  0.1425 -0.0324  0.5486
   51MOL0     C 6659   9.803   4.888   0.643  0.2047  0.1713 -0.4428
   51MOL0     C 6660   9.680   4.878   0.734 -0.0818  1.1098  0.3919
   51MOL0     C 6661   9.638   4.997   0.816 -0.3928 -0.4953 -0.7964
   51MOL0     C 6662   9.744   5.092   0.882 -0.4198 -0.2137  0.9746
   51MOL0     C 6663   9.853   5.003   0.941 -0.4636 -0.8741  1.4105
   51MOL0     C 6664   9.944   4.935   0.989  0.4040  0.2360  0.9444
   51MOL0     C 6665  10.039   4.975   0.496  0.8470 -0.1910  0.4597
   51MOL0     C 6666  10.150   5.022   0.426  0.5208 -0.6144  0.9255
   51MOL0     H 6667  10.566   5.316   0.345  0.3964  0.8283 -0.5900
   51MOL0     H 6668  10.742   5.359   0.190  2.5247 -1.0436 -0.7147
   51MOL0     H 6669  10.933   5.353   0.027  0.1462  2.7946  0.0454
   51MOL0     H 6670  10.774   5.438  -0.006  1.5932  0.8000  1.7490
   51MOL0     H 6671  10.964   5.357  -0.238 -2.4491 -0.1311 -2.8623
   51MOL0     H 6672  10.947   5.514  -0.156  0.5598  0.4653  1.5225
   51MOL0     H 6673  10.689   5.442  -0.224 -0.4130 -3.0098 -0.1921
   51MOL0     H 6674  10.762   5.363  -0.352  0.0180  1.8044 -0.6874
   51MOL0     H 6675  10.768   5.645  -0.288  0.4710  2.3725 -2.0303
   51MOL0     H 6676  10.910   5.582  -0.371 -0.1719 -1.6976 -0.4026
   51MOL0     H 6677  10.642   5.651  -0.484  1.2599 -0.7591  2.3007
   51MOL0     H 6678  10.686   5.487  -0.524 -0.5820 -0.0303  0.4280
   51MOL0     H 6679  10.917   5.570  -0.589 -0.5695 -1.3511  0.4618
   51MOL0     H 6680  10.860   5.742  -0.557 -0.2941 -0.3597  0.1844
   51MOL0     H 6681  10.758   5.537  -0.746 -1.1306  0.7644 -0.0646
   51MOL0     H 6682  10.688   5.690  -0.731 -1.1921 -1.8588 -0.0158
   51MOL0     H 6683  10.835   5.654  -0.927 -0.0935  1.0842 -0.5181
   51MOL0     H 6684  10.974   5.663  -0.841  0.3286 -1.2394  1.0234
   51MOL0     H 6685  10.727   5.927  -0.985 -0.0757 -1.9003 -0.3511
   51MOL0     H 6686  10.784   6.218  -0.999  1.9866  0.1820 -0.2650
   51MOL0     H 6687  10.852   6.260  -0.839 -1.7544  1.7635  1.5941
   51MOL0     H 6688  10.625   6.207  -0.728  1.9153 -1.1990  0.3958
   51MOL0     H 6689  10.569   6.173  -0.886 -0.1416  0.2860  0.0793
   51MOL0     H 6690  10.687   6.449  -0.801 -1.3446 -0.0104  0.8906
   51MOL0     H 6691  10.651   6.399  -0.971  1.4391 -2.7835  0.6486
   51MOL0     H 6692  10.477   6.547  -0.846  1.5815  0.2564  3.2167
   51MOL0     H 6693  10.463   6.427  -0.732 -3.5110 -2.6317 -0.9535
   51MOL0     H 6694  10.251   6.531  -0.719 -3.2234  1.3044  0.3567
   51MOL0     H 6695  10.007   6.484  -0.639 -1.6672  1.2139 -2.2256
   51MOL0     H 6696   9.568   6.377  -0.695 -0.0771 -0.5312  3.4538
   51MOL0     H 6697   9.333   6.294  -0.676 -0.0486  0.3850  1.5900
   51MOL0     H 6698   9.262   5.855  -0.785  1.5006 -0.2911  1.2504
   51MOL0     H 6699   9.190   5.972  -0.892  0.4342 -2.6649 -1.0252
   51MOL0     H 6700   9.046   5.787  -0.764 -0.8193  0.3061  3.9279
   51MOL0     H 6701   8.986   5.928  -0.841 -0.1294 -2.9519 -1.9417
   51MOL0     H 6702   8.973   6.058  -0.645 -0.5651  0.8564  2.8138
   51MOL0     H 6703   9.087   5.962  -0.557 -1.1112 -2.7350  0.7191
   51MOL0     H 6704   8.842   5.928  -0.481  1.6926 -0.7311  1.6420
   51MOL0     H 6705   8.795   5.886  -0.634 -1.2414 -1.7472  1.2429
   51MOL0     H 6706   8.984   5.704  -0.460  0.1900 -1.0148 -0.1456
   51MOL0     H 6707   8.920   5.665  -0.618  1.8855 -1.9190  1.6760
   51MOL0     H 6708   8.714   5.612  -0.525 -0.4419  1.1620 -0.9124
   51MOL0     H 6709   8.722   5.767  -0.427  1.4473  1.3163  0.3210
   51MOL0     H 6710   8.890   5.529  -0.353  3.3409  3.1270 -1.6345
   51MOL0     H 6711   8.853   5.672  -0.252 -1.5403 -0.0580  1.2229
   51MOL0     H 6712   8.622   5.608  -0.230  2.4784  1.1177  2.0024
   51MOL0     H 6713   8.713   5.488  -0.157  0.0110 -0.9712 -0.2686
   51MOL0     H 6714   9.447   5.904  -0.773 -1.3302  0.8818  0.5035
   51MOL0     H 6715   9.681   5.995  -0.856 -0.8339  0.9692 -2.0600
   51MOL0     H 6716   9.997   6.149  -0.909  0.1403 -2.0310  3.4148
   51MOL0     H 6717  10.216   6.183  -0.964 -3.7933 -2.7722  1.2250
   51MOL0     H 6718  10.566   5.059  -0.085 -1.1813 -2.7622  1.6996
   51MOL0     H 6719  10.397   5.022   0.069 -0.8276  1.7512 -1.9012
   51MOL0     H 6720  10.029   5.349   0.401 -0.6889  0.4269  0.9407
   51MOL0     H 6721   9.840   5.242   0.504  0.8563 -0.2539  3.9787
   51MOL0     H 6722   9.887   4.875   0.712  0.0328 -1.1202 -0.4492
   51MOL0     H 6723   9.803   4.795   0.585  1.2065  0.5000 -0.9978
   51MOL0     H 6724   9.610   4.845   0.657  0.9938 -1.0720  0.2618
   51MOL0     H 6725   9.705   4.803   0.810 -0.1861 -1.8116 -2.2410
   51MOL0     H 6726   9.578   4.969   0.903  2.5293 -2.7288  0.6676
   51MOL0     H 6727   9.589   5.073   0.754 -0.7044 -0.3998 -0.4364
   51MOL0     H 6728   9.784   5.153   0.801  3.4434 -1.0362  2.0401
   51MOL0     H 6729   9.701   5.153   0.962  0.8217 -2.2351  3.3179
   51MOL0     H 6730  10.022   4.884   1.041 -0.8072 -0.8384  1.7923
   51MOL0     H 6731  10.049   4.869   0.518  1.8030  0.1948  2.0060
   51MOL0     H 6732  10.228   4.958   0.388  0.5444  0.6840 -1.3677
   52MOL0     O 6733  10.295   3.510   9.625  0.2008 -0.8532 -0.5145
   52MOL0     C 6734  10.409   3.477   9.605  0.4723 -0.4559  0.2513
   52MOL0     O 6735  10.493   3.544   9.522  0.1096  0.3388  0.2273
   52MOL0     C 6736  10.431   3.647   9.449  0.1598  0.1884 -0.5516
   52MOL0     C 6737  10.357   3.621   9.330  0.0506 -0.3211 -1.0923
   52MOL0     C 6738  10.287   3.731   9.271 -0.2560 -1.2073 -0.0613
   52MOL0     C 6739  10.303   3.866   9.328 -0.6782  0.8046 -0.3923
   52MOL0     O 6740  10.276   3.977   9.249 -0.3000 -0.2054 -0.1290
   52MOL0     C 6741  10.147   4.033   9.294 -0.3745 -0.2442  0.3970
   52MOL0     C 6742  10.116   4.163   9.215  0.9333 -0.3604  0.2149
   52MOL0     C 6743  10.223   4.269   9.242 -0.4802 -0.8472  1.4005
   52MOL0     C 6744  10.168   4.401   9.175 -1.1184 -0.7015 -0.0174
   52MOL0     C 6745  10.254   4.519   9.215  0.3958  0.0315 -0.4777
   52MOL0     C 6746  10.196   4.654   9.180  0.3004  0.4478  0.9844
   52MOL0     C 6747  10.222   4.777   9.266 -1.1324 -0.0635 -0.0426
   52MOL0     C 6748  10.370   4.802   9.271 -0.2140 -0.4991 -0.0719
   52MOL0     N 6749  10.395   4.928   9.334  0.1129 -0.1342 -0.5162
   52MOL0     C 6750  10.428   4.951   9.466  0.3965 -1.1065 -0.1755
   52MOL0     C 6751  10.416   5.082   9.486 -0.1089 -0.0024 -0.1394
   52MOL0     C 6752  10.436   5.158   9.616 -0.8111  0.0727 -0.4040
   52MOL0     C 6753  10.309   5.225   9.631 -0.8255 -0.1948 -0.0167
   52MOL0     C 6754  10.288   5.316   9.760 -0.1627  0.0445 -0.9011
   52MOL0     C 6755  10.154   5.386   9.738 -0.8906  0.5126  0.7858
   52MOL0     O 6756  10.131   5.480   9.851 -0.7925 -0.3027  0.0736
   52MOL0     C 6757   9.999   5.511   9.876  0.3048  1.1130 -0.3291
   52MOL0     C 6758   9.913   5.534   9.767 -0.4349 -0.5158  0.4769
   52MOL0     C 6759   9.775   5.561   9.779  0.7599  0.0462  0.1752
   52MOL0     C 6760   9.718   5.573   9.902  0.1719  1.0209  0.5802
   52MOL0     C 6761   9.586   5.611   9.921  0.3598  1.0877  0.6537
   52MOL0     O 6762   9.523   5.683   9.813  0.3060 -0.5021  0.2291
   52MOL0     C 6763   9.384   5.678   9.824  0.0140 -0.3233  0.1131
   52MOL0     C 6764   9.328   5.789   9.880 -0.5633 -0.3910  0.8533
   52MOL0     C 6765   9.186   5.805   9.896 -0.2443  0.2323 -0.8619
   52MOL0     C 6766   9.106   5.701   9.847  0.5507  0.3359  0.3672
   52MOL0     O 6767   8.974   5.712   9.869  0.1461 -0.2434 -0.4255
   52MOL0     C 6768   8.902   5.591   9.905  0.0605 -0.8165 -0.2261
   52MOL0     C 6769   8.753   5.618   9.890 -0.3417  0.3252  0.4916
   52MOL0     C 6770   8.691   5.667  10.012  0.7536 -0.0752 -0.0902
   52MOL0     C 6771   8.546   5.735   9.991 -0.4108  0.4547  0.3891
   52MOL0     C 6772   8.498   5.801  10.118 -0.1901  0.2266  1.7531
   52MOL0     C 6773   8.449   5.712  10.230 -0.6100  0.0624  0.7684
   52MOL0     C 6774   8.404   5.800  10.350  0.4032  0.2753  0.1033
   52MOL0     C 6775   8.525   5.822  10.438  0.5758 -0.2801  0.0223
   52MOL0    Cl 6776   8.643   5.939  10.372  0.0450  0.1638  0.1089
   52MOL0     C 6777   9.166   5.585   9.790  0.7347 -0.0278  0.4750
   52MOL0     C 6778   9.312   5.571   9.788 -0.3342 -0.3542 -0.5530
   52MOL0     O 6779   9.535   5.589  10.031  0.2652  0.7730 -0.4597
   52MOL0     C 6780   9.803   5.543  10.008 -0.0624 -0.5016  0.6830
   52MOL0     C 6781   9.942   5.521  10.002  0.4021  0.1661  0.5381
   52MOL0     N 6782  10.413   5.141   9.362  0.5629  0.6883 -0.4581
   52MOL0     N 6783  10.387   5.053   9.273 -0.7549  0.2734  0.3445
   52MOL0     C 6784  10.351   3.883   9.452  0.4840  0.2711 -0.1842
   52MOL0     C 6785  10.419   3.772   9.503  0.5762  0.3867 -0.1144
   52MOL0     C 6786  10.445   3.349   9.666  0.3897  0.2395 -0.2052
   52MOL0     C 6787  10.578   3.310   9.650  0.1178  0.2188  0.6599
   52MOL0     C 6788  10.618   3.179   9.687  0.3811  0.0261  0.6064
   52MOL0     C 6789  10.521   3.099   9.749  1.0877  0.8173 -0.1604
   52MOL0     O 6790  10.559   2.964   9.769  0.2024 -0.0680 -0.5107
   52MOL0     C 6791  10.479   2.877   9.835  0.0242  0.1623  0.3553
   52MOL0     C 6792  10.539   2.739   9.806  0.3292  0.2132 -0.2369
   52MOL0     C 6793  10.444   2.633   9.868 -0.0065  0.3208 -0.5559
   52MOL0     C 6794  10.491   2.490   9.847 -0.3758  0.0046 -0.1810
   52MOL0     C 6795  10.401   2.405   9.920 -0.4292 -0.1181  0.3725
   52MOL0     C 6796  10.325   2.340   9.997  0.1381 -0.0547 -0.2675
   52MOL0     C 6797  10.390   3.144   9.774 -0.5090  0.4951 -0.1236
   52MOL0     C 6798  10.354   3.269   9.738 -0.1234  0.5747  0.6258
   52MOL0     H 6799  10.363   3.519   9.293  1.5921 -1.5793  2.2576
   52MOL0     H 6800  10.239   3.743   9.174 -2.4556 -0.1175  1.0948
   52MOL0     H 6801  10.148   4.060   9.401 -0.2965  2.8230 -0.2625
   52MOL0     H 6802  10.069   3.957   9.288 -0.4692 -0.0475 -1.1246
   52MOL0     H 6803  10.018   4.206   9.238  0.2961 -1.5195 -0.2369
   52MOL0     H 6804  10.118   4.139   9.108  2.7341  2.3745 -0.4818
   52MOL0     H 6805  10.318   4.237   9.199  0.8597  2.8490  1.2309
   52MOL0     H 6806  10.252   4.271   9.348  0.3153 -1.8860  1.2236
   52MOL0     H 6807  10.168   4.385   9.067 -1.2770 -1.3957  0.0763
   52MOL0     H 6808  10.064   4.419   9.205 -1.1545  1.5382 -1.3049
   52MOL0     H 6809  10.356   4.504   9.178  2.2256 -1.2825  4.3419
   52MOL0     H 6810  10.269   4.516   9.323 -2.0421  1.0184 -0.0510
   52MOL0     H 6811  10.088   4.648   9.190  0.2533  2.9435  2.7994
   52MOL0     H 6812  10.224   4.673   9.075  2.2963 -0.1417  1.3620
   52MOL0     H 6813  10.168   4.863   9.226 -1.9571 -1.2822 -1.6425
   52MOL0     H 6814  10.198   4.763   9.372  0.4542 -0.9215  0.2404
   52MOL0     H 6815  10.409   4.799   9.168 -1.7632  0.0434 -0.7063
   52MOL0     H 6816  10.422   4.728   9.332 -3.3159  0.2136  3.8554
   52MOL0     H 6817  10.437   4.879   9.547 -0.7916 -2.3510 -1.1097
   52MOL0     H 6818  10.515   5.234   9.611 -2.3173  1.6746 -1.4163
   52MOL0     H 6819  10.465   5.087   9.693  0.6288 -0.1369 -1.1098
   52MOL0     H 6820  10.227   5.152   9.633 -1.2397  0.1815 -1.7861
   52MOL0     H 6821  10.306   5.290   9.544  2.0695 -0.2355 -0.2260
   52MOL0     H 6822  10.295   5.264   9.855  0.6166  0.7745 -0.5422
   52MOL0     H 6823  10.363   5.394   9.777 -0.5930  0.1809  0.4395
   52MOL0     H 6824  10.078   5.307   9.739 -0.7642  0.3570 -0.3076
   52MOL0     H 6825  10.145   5.425   9.636 -0.1636 -6.8076 -2.7236
   52MOL0     H 6826   9.959   5.550   9.670  0.2995  1.5281  1.1031
   52MOL0     H 6827   9.743   5.605   9.685  3.4649  1.3684 -0.2197
   52MOL0     H 6828   9.377   5.874   9.927 -2.9886  0.5550  1.8075
   52MOL0     H 6829   9.150   5.892   9.951  3.2441  0.8467  0.6873
   52MOL0     H 6830   8.929   5.546  10.001  0.2545 -1.8619 -0.7555
   52MOL0     H 6831   8.921   5.513   9.831 -2.6869 -2.0106  0.2118
   52MOL0     H 6832   8.706   5.524   9.860 -0.9727  1.0041 -0.7249
   52MOL0     H 6833   8.738   5.685   9.804  1.3055 -0.4280 -0.4414
   52MOL0     H 6834   8.756   5.731  10.073 -0.0144  0.8574 -0.2278
   52MOL0     H 6835   8.666   5.576  10.066 -1.8827 -1.2442 -2.9585
   52MOL0     H 6836   8.554   5.812   9.914 -2.1636 -0.6282 -0.9322
   52MOL0     H 6837   8.482   5.651   9.963  2.0615 -2.2228  2.1235
   52MOL0     H 6838   8.411   5.859  10.088  1.0639  0.8138 -0.9918
   52MOL0     H 6839   8.583   5.865  10.142 -0.1671 -0.0873  2.5593
   52MOL0     H 6840   8.515   5.630  10.261  1.9692  0.9224 -1.8915
   52MOL0     H 6841   8.361   5.658  10.196 -2.2889  4.1592 -2.2728
   52MOL0     H 6842   8.358   5.897  10.332 -1.2037 -0.2195  1.3288
   52MOL0     H 6843   8.327   5.738  10.397  2.3525 -2.4450 -0.0846
   52MOL0     H 6844   8.578   5.730  10.465  1.1558  0.4246  1.4324
   52MOL0     H 6845   8.478   5.867  10.527 -0.3771 -0.1840 -0.5205
   52MOL0     H 6846   9.116   5.494   9.756  1.9097  0.4669 -2.9815
   52MOL0     H 6847   9.362   5.494   9.730 -1.1367 -1.7694  0.5702
   52MOL0     H 6848   9.765   5.559  10.108 -1.5193 -0.8366  0.2116
   52MOL0     H 6849   9.992   5.494  10.094 -0.5297  0.2915  1.1012
   52MOL0     H 6850  10.349   3.976   9.508 -0.7950 -0.0197  0.2913
   52MOL0     H 6851  10.480   3.787   9.591  0.5068  0.5628 -0.0972
   52MOL0     H 6852  10.656   3.367   9.601 -0.0135 -0.5106 -0.4429
   52MOL0     H 6853  10.723   3.162   9.665  0.0859 -0.3419 -0.5860
   52MOL0     H 6854  10.378   2.889   9.795 -0.9033 -2.2067  1.7780
   52MOL0     H 6855  10.461   2.902   9.940 -2.1140 -0.9518  0.3173
   52MOL0     H 6856  10.545   2.723   9.698 -0.4829 -1.7749 -0.0310
   52MOL0     H 6857  10.639   2.722   9.848  0.6583 -2.9694 -1.9684
   52MOL0     H 6858  10.342   2.647   9.830  0.2579  1.4530 -0.8940
   52MOL0     H 6859  10.437   2.656   9.975  2.3370  3.1113 -0.8832
   52MOL0     H 6860  10.481   2.466   9.741  0.7984 -1.5481  0.0189
   52MOL0     H 6861  10.592   2.461   9.880 -1.0841  0.8003  3.0012
   52MOL0     H 6862  10.248   2.294  10.055  0.5509  1.7652  1.8370
   52MOL0     H 6863  10.331   3.068   9.824  2.3910 -2.5277 -0.9256
   52MOL0     H 6864  10.251   3.297   9.757 -0.3689 -1.2502  2.3214
   53MOL0     O 6865   0.295  11.425  10.561  0.2176 -0.1772 -0.7701
   53MOL0     C 6866   0.355  11.324  10.596 -0.2743 -1.1312 -0.1119
   53MOL0     O 6867   0.318  11.195  10.579  0.0534  0.0637  0.7568
   53MOL0     C 6868   0.196  11.171  10.519  0.8973  0.2207  0.2269
   53MOL0     C 6869   0.089  11.115  10.587  0.1186  0.4217  0.4898
   53MOL0     C 6870  -0.028  11.071  10.517 -0.0764 -0.4214 -0.0456
   53MOL0     C 6871  -0.048  11.111  10.383 -0.4226  0.1512 -0.1508
   53MOL0     O 6872  -0.162  11.082  10.314 -0.1807  0.3347 -0.3913
   53MOL0     C 6873  -0.156  11.062  10.174 -0.4267  0.5153  0.6778
   53MOL0     C 6874  -0.288  10.999  10.120 -0.5825  0.7674 -0.0923
   53MOL0     C 6875  -0.375  11.104  10.069 -0.1457 -0.1138  0.2690
   53MOL0     C 6876  -0.511  11.054  10.057 -0.5172 -0.1182 -0.4960
   53MOL0     C 6877  -0.613  11.169  10.089  0.0725 -0.0089  0.2687
   53MOL0     C 6878  -0.749  11.124  10.032  0.8572  0.5837  0.5952
   53MOL0     C 6879  -0.851  11.226  10.072  0.1148  0.4942 -0.1333
   53MOL0     C 6880  -0.987  11.188  10.018 -0.1428  1.0004  0.6118
   53MOL0     N 6881  -1.094  11.286  10.029 -0.5874  0.1175 -0.0614
   53MOL0     C 6882  -1.185  11.329   9.939 -0.7011 -1.1224  0.1009
   53MOL0     C 6883  -1.284  11.379  10.006  0.3872  0.5059  0.6827
   53MOL0     C 6884  -1.408  11.428   9.934  0.0695 -0.5566 -0.2453
   53MOL0     C 6885  -1.530  11.330   9.919 -0.1690  0.5199 -0.8126
   53MOL0     C 6886  -1.499  11.212   9.833 -1.2699  0.3485 -0.2231
   53MOL0     C 6887  -1.618  11.104   9.804 -0.0006 -0.5131 -0.1494
   53MOL0     O 6888  -1.565  11.025   9.691  0.6158  0.3621  0.1312
   53MOL0     C 6889  -1.676  10.985   9.602  0.1535  0.6398  0.5478
   53MOL0     C 6890  -1.803  10.950   9.648  0.7968 -1.1727 -0.9118
   53MOL0     C 6891  -1.918  10.934   9.559  0.1923  0.0891 -0.1719
   53MOL0     C 6892  -1.908  10.949   9.417  0.1176 -0.2680  0.7986
   53MOL0     C 6893  -2.021  10.931   9.325  0.6808 -0.6196  0.6992
   53MOL0     O 6894  -2.010  10.881   9.199  0.3867 -0.6683  0.3419
   53MOL0     C 6895  -1.898  10.810   9.174  0.2152 -0.4175 -0.8477
   53MOL0     C 6896  -1.817  10.851   9.071  0.9685  0.2655 -0.8536
   53MOL0     C 6897  -1.713  10.765   9.041  0.3627 -0.0054  0.7698
   53MOL0     C 6898  -1.668  10.653   9.119  1.0908 -0.4865  0.0838
   53MOL0     O 6899  -1.552  10.585   9.092 -0.1745  0.0650  0.0263
   53MOL0     C 6900  -1.463  10.589   9.201 -0.3933 -0.1718  0.0154
   53MOL0     C 6901  -1.327  10.517   9.166  0.8486 -1.1262 -0.1511
   53MOL0     C 6902  -1.234  10.528   9.286  0.0765  0.1174 -0.3955
   53MOL0     C 6903  -1.153  10.401   9.316 -0.3929  1.1036 -0.2025
   53MOL0     C 6904  -1.068  10.429   9.439  0.1487 -0.1399 -0.7480
   53MOL0     C 6905  -1.002  10.304   9.494 -1.1046  0.3004 -0.4209
   53MOL0     C 6906  -1.095  10.215   9.564  0.1435  0.4971  0.1118
   53MOL0     C 6907  -1.024  10.110   9.643 -0.3905  1.0328 -0.5063
   53MOL0    Cl 6908  -1.141   9.989   9.717  0.4571  0.2841 -0.5186
   53MOL0     C 6909  -1.751  10.623   9.226 -0.1507 -0.3825  0.1098
   53MOL0     C 6910  -1.872  10.690   9.245 -0.7859 -0.7114  0.1231
   53MOL0     O 6911  -2.124  10.976   9.370 -0.5731  0.6923  0.2265
   53MOL0     C 6912  -1.773  10.994   9.378  0.8847  0.6132  0.2879
   53MOL0     C 6913  -1.664  10.989   9.469  0.4421 -0.5755 -0.7191
   53MOL0     N 6914  -1.254  11.370  10.142  0.1280  0.4067  0.4279
   53MOL0     N 6915  -1.144  11.314  10.153 -0.5309 -0.4873  0.0452
   53MOL0     C 6916   0.056  11.193  10.320  0.9802  0.6318  0.2757
   53MOL0     C 6917   0.175  11.221  10.389  1.0268 -0.3842  0.1244
   53MOL0     C 6918   0.475  11.349  10.678 -0.0214  0.2192  0.1155
   53MOL0     C 6919   0.520  11.250  10.763 -0.3079 -1.2095  0.1237
   53MOL0     C 6920   0.635  11.268  10.850  0.5017 -0.7002  0.7839
   53MOL0     C 6921   0.691  11.396  10.856 -0.5777 -0.4545 -0.1246
   53MOL0     O 6922   0.801  11.398  10.929 -0.7903  0.7653  0.0361
   53MOL0     C 6923   0.836  11.527  10.975  0.2606  0.0494  0.0940
   53MOL0     C 6924   0.932  11.527  11.084 -0.3923  0.3760  0.2066
   53MOL0     C 6925   1.028  11.403  11.078  0.5145  0.9214  0.4497
   53MOL0     C 6926   0.978  11.281  11.164 -0.5562  0.3318 -0.7447
   53MOL0     C 6927   1.094  11.248  11.253  0.3268 -1.1081 -0.0779
   53MOL0     C 6928   1.200  11.218  11.302  0.2235  0.9806 -0.7615
   53MOL0     C 6929   0.629  11.510  10.784 -0.1432  0.2653 -0.3265
   53MOL0     C 6930   0.525  11.482  10.696  1.2787 -0.7180 -1.0026
   53MOL0     H 6931   0.113  11.102  10.692 -1.7926 -0.4274  0.8615
   53MOL0     H 6932  -0.103  11.010  10.567 -0.3827  0.0542  0.0811
   53MOL0     H 6933  -0.077  10.990  10.151 -1.6264 -0.4935 -0.3741
   53MOL0     H 6934  -0.127  11.154  10.120 -0.7435  1.0974  1.4816
   53MOL0     H 6935  -0.335  10.951  10.206  0.1999  0.8728  0.4106
   53MOL0     H 6936  -0.263  10.932  10.038 -2.4849 -0.5276  0.3301
   53MOL0     H 6937  -0.337  11.144   9.975  0.6973  0.5440  0.8725
   53MOL0     H 6938  -0.381  11.189  10.137 -0.7457 -0.6081  0.8475
   53MOL0     H 6939  -0.535  11.025   9.954 -2.7193  0.7122 -0.2615
   53MOL0     H 6940  -0.518  10.964  10.119  3.2157 -0.3172 -0.1354
   53MOL0     H 6941  -0.573  11.256  10.037 -1.1473  0.7194  0.5232
   53MOL0     H 6942  -0.616  11.203  10.193  2.0725 -0.6925  0.5972
   53MOL0     H 6943  -0.769  11.022  10.067  0.2412  0.0681 -1.1633
   53MOL0     H 6944  -0.742  11.123   9.923  0.0648 -2.9672  0.4333
   53MOL0     H 6945  -0.854  11.231  10.181 -1.3505 -1.0202 -0.0579
   53MOL0     H 6946  -0.824  11.327  10.040 -0.0657  1.6928  3.1859
   53MOL0     H 6947  -1.024  11.095  10.062 -5.8323  2.1181 -1.0460
   53MOL0     H 6948  -0.989  11.157   9.913  1.0680 -3.2791  1.6224
   53MOL0     H 6949  -1.174  11.324   9.831 -0.6444 -1.8917  0.1331
   53MOL0     H 6950  -1.386  11.487   9.844  1.0512  0.6165  0.7300
   53MOL0     H 6951  -1.436  11.497  10.014  1.9659 -1.6219  1.4318
   53MOL0     H 6952  -1.615  11.388   9.882 -0.6042 -0.6001 -1.6392
   53MOL0     H 6953  -1.548  11.285  10.016 -3.0108  2.2598 -0.4256
   53MOL0     H 6954  -1.461  11.248   9.737 -2.4345  0.0297 -0.8313
   53MOL0     H 6955  -1.417  11.150   9.871  0.7778  3.1891  0.3022
   53MOL0     H 6956  -1.718  11.142   9.781  1.4995  3.0719 -1.4499
   53MOL0     H 6957  -1.622  11.028   9.883  1.1328 -2.3194 -1.7312
   53MOL0     H 6958  -1.831  10.939   9.752 -2.2746 -4.1346 -1.8768
   53MOL0     H 6959  -2.015  10.914   9.604  0.0364  0.9735 -0.0824
   53MOL0     H 6960  -1.854  10.934   9.013 -2.2070 -0.7003 -0.3955
   53MOL0     H 6961  -1.670  10.792   8.945 -2.2604 -3.1438 -1.5388
   53MOL0     H 6962  -1.502  10.532   9.286 -1.4952  2.7733  1.5912
   53MOL0     H 6963  -1.452  10.695   9.222  1.4171  0.2585 -2.6104
   53MOL0     H 6964  -1.275  10.571   9.087  0.4945 -1.0235 -0.3184
   53MOL0     H 6965  -1.344  10.413   9.138  0.4635 -0.8336 -1.0348
   53MOL0     H 6966  -1.289  10.558   9.375 -0.0651  0.4472 -0.5954
   53MOL0     H 6967  -1.164  10.608   9.261  0.0910  0.5677  0.9882
   53MOL0     H 6968  -1.214  10.311   9.326  1.2502 -0.3645 -2.5153
   53MOL0     H 6969  -1.077  10.378   9.241  0.9241 -0.2204  1.4719
   53MOL0     H 6970  -1.131  10.468   9.520  2.2329 -0.1474  0.9808
   53MOL0     H 6971  -0.987  10.500   9.420 -1.0386  1.1259 -1.2133
   53MOL0     H 6972  -0.926  10.337   9.566 -0.0299  1.4766 -2.0244
   53MOL0     H 6973  -0.946  10.248   9.419  3.2403 -0.0552  2.7274
   53MOL0     H 6974  -1.169  10.275   9.619 -0.0179  1.8125 -1.4825
   53MOL0     H 6975  -1.147  10.167   9.481  0.1491 -1.0666  0.9875
   53MOL0     H 6976  -0.953  10.147   9.718 -1.0635  0.7316  0.3043
   53MOL0     H 6977  -0.968  10.049   9.571  4.4261  0.9670  2.7572
   53MOL0     H 6978  -1.730  10.532   9.280 -0.2997 -0.7670 -0.4735
   53MOL0     H 6979  -1.939  10.643   9.316 -0.6404  0.1939  0.8645
   53MOL0     H 6980  -1.766  11.013   9.272 -2.5349 -2.7580 -0.7553
   53MOL0     H 6981  -1.560  11.012   9.445  0.6646  2.3002  2.3617
   53MOL0     H 6982   0.036  11.238  10.224 -0.6182 -0.3193  0.1322
   53MOL0     H 6983   0.260  11.276  10.349  2.5580  0.5334  4.2101
   53MOL0     H 6984   0.484  11.148  10.762  2.1301 -2.1566  0.1780
   53MOL0     H 6985   0.677  11.185  10.905  1.6586 -1.0074 -0.5195
   53MOL0     H 6986   0.754  11.589  11.012  0.2140  1.2195 -1.7939
   53MOL0     H 6987   0.890  11.576  10.893  3.9868  1.3904  3.0517
   53MOL0     H 6988   1.000  11.611  11.065  2.5367 -2.0332 -0.9371
   53MOL0     H 6989   0.885  11.524  11.182 -0.2053 -4.2158  0.3853
   53MOL0     H 6990   1.121  11.432  11.127  0.7890 -1.4598  1.4478
   53MOL0     H 6991   1.050  11.374  10.975  0.9315  0.8889  0.5468
   53MOL0     H 6992   0.879  11.308  11.201  0.4273  0.0340  2.3653
   53MOL0     H 6993   0.974  11.193  11.099 -1.3053  1.8233 -2.8572
   53MOL0     H 6994   1.289  11.165  11.330  0.0641  0.6462 -0.8716
   53MOL0     H 6995   0.669  11.610  10.799  0.8592 -0.3291  1.1782
   53MOL0     H 6996   0.478  11.571  10.654 -0.7599 -0.1223  2.1351
   54MOL0     O 6997   2.897   6.259   0.393 -0.4364  0.9078  0.3155
   54MOL0     C 6998   2.838   6.293   0.288  0.8019  0.1527  0.4141
   54MOL0     O 6999   2.703   6.283   0.263  0.0936 -0.3522  0.3481
   54MOL0     C 7000   2.635   6.193   0.342 -0.0899 -0.1070  0.5928
   54MOL0     C 7001   2.562   6.097   0.270 -0.1960 -0.4402 -0.5155
   54MOL0     C 7002   2.475   6.014   0.329 -0.1233  0.3836  0.0558
   54MOL0     C 7003   2.443   6.021   0.466 -0.3028  0.3999  0.9149
   54MOL0     O 7004   2.372   5.937   0.538 -0.1656  0.1736  0.2639
   54MOL0     C 7005   2.281   5.851   0.470  0.8069 -0.0959 -1.0465
   54MOL0     C 7006   2.227   5.766   0.579 -0.0521  1.3737  0.1763
   54MOL0     C 7007   2.124   5.657   0.527  0.7428  0.0152  0.3336
   54MOL0     C 7008   2.081   5.561   0.640  0.1210  0.4025 -0.0180
   54MOL0     C 7009   1.973   5.461   0.590 -0.5039 -0.2218 -0.1777
   54MOL0     C 7010   1.945   5.339   0.676 -0.2100 -0.4212 -0.2700
   54MOL0     C 7011   2.070   5.250   0.698 -0.0233 -0.7714 -0.5415
   54MOL0     C 7012   2.032   5.132   0.789  0.7848  0.4412 -0.8199
   54MOL0     N 7013   2.054   4.992   0.753  0.1291  1.0037 -0.4113
   54MOL0     C 7014   2.164   4.947   0.672  0.1185  0.5578 -0.5181
   54MOL0     C 7015   2.132   4.822   0.633 -0.1084  0.4660 -0.3850
   54MOL0     C 7016   2.214   4.734   0.547  0.0500  0.5199 -1.1103
   54MOL0     C 7017   2.316   4.793   0.451  0.1896  0.1197  0.9809
   54MOL0     C 7018   2.259   4.879   0.336  0.0325 -0.5351 -0.0966
   54MOL0     C 7019   2.326   5.015   0.302  0.2187 -0.5566 -0.3842
   54MOL0     O 7020   2.279   5.120   0.392  0.3152  0.6778  0.1174
   54MOL0     C 7021   2.358   5.225   0.413 -0.0210 -0.5184 -0.0335
   54MOL0     C 7022   2.460   5.210   0.503 -0.0106  0.2070  0.2194
   54MOL0     C 7023   2.548   5.310   0.535 -0.6311  0.1538 -0.1634
   54MOL0     C 7024   2.531   5.441   0.485  0.4397  0.8513  0.4311
   54MOL0     C 7025   2.626   5.556   0.493  1.2752 -0.1155 -0.8522
   54MOL0     O 7026   2.736   5.533   0.565  0.6235  0.1826  1.4433
   54MOL0     C 7027   2.826   5.623   0.594  1.6204 -0.9611  0.6254
   54MOL0     C 7028   2.810   5.761   0.602  0.6115 -0.0013 -1.0924
   54MOL0     C 7029   2.911   5.850   0.626  0.4777 -0.3778  0.8900
   54MOL0     C 7030   3.036   5.796   0.655 -0.2426 -0.1263 -0.6677
   54MOL0     O 7031   3.141   5.879   0.691  0.7054 -1.2406  0.9185
   54MOL0     C 7032   3.222   5.928   0.582 -0.5369  0.5035  0.1872
   54MOL0     C 7033   3.163   6.067   0.552  0.3609  0.1304 -0.2192
   54MOL0     C 7034   3.154   6.154   0.670 -0.4518 -0.5618  0.8016
   54MOL0     C 7035   3.083   6.281   0.655 -0.2093  0.5229 -0.9121
   54MOL0     C 7036   3.088   6.366   0.789 -0.7332  0.9349 -0.2328
   54MOL0     C 7037   3.028   6.295   0.910  0.3532  0.0435 -0.7071
   54MOL0     C 7038   2.885   6.248   0.877 -0.1549 -0.0840 -0.2362
   54MOL0     C 7039   2.813   6.199   1.001 -0.2689 -0.6397  0.3879
   54MOL0    Cl 7040   2.637   6.164   0.980 -0.3766  0.0826 -0.7945
   54MOL0     C 7041   3.059   5.654   0.647  0.3947 -0.1316  0.0037
   54MOL0     C 7042   2.955   5.573   0.607 -0.1143  1.0345  0.7205
   54MOL0     O 7043   2.587   5.664   0.445  0.0989 -0.5657  0.1749
   54MOL0     C 7044   2.428   5.446   0.384  0.7325  0.6944 -0.9086
   54MOL0     C 7045   2.344   5.342   0.347 -0.1771  0.0473 -0.2319
   54MOL0     N 7046   2.016   4.793   0.711 -0.6830  1.4362  0.2896
   54MOL0     N 7047   1.969   4.896   0.772 -0.1564 -0.3619  0.5636
   54MOL0     C 7048   2.511   6.120   0.540  0.3855 -0.5574  0.8425
   54MOL0     C 7049   2.611   6.201   0.482 -1.0540 -0.9199  0.0832
   54MOL0     C 7050   2.913   6.359   0.182  0.4135  0.0991 -0.3035
   54MOL0     C 7051   3.052   6.339   0.173  0.2106  0.0640 -0.3902
   54MOL0     C 7052   3.135   6.405   0.087  0.5936 -0.8858 -0.2673
   54MOL0     C 7053   3.084   6.491  -0.014 -1.0823  0.4195  0.8107
   54MOL0     O 7054   3.180   6.529  -0.103 -0.5119 -0.6909  0.4318
   54MOL0     C 7055   3.150   6.608  -0.209  1.1947 -0.3701  0.8472
   54MOL0     C 7056   3.279   6.663  -0.268  0.7286 -0.1733 -0.7502
   54MOL0     C 7057   3.257   6.715  -0.406 -0.6121 -0.5498  0.0198
   54MOL0     C 7058   3.254   6.591  -0.506 -0.4460 -0.0097 -0.6910
   54MOL0     C 7059   3.232   6.650  -0.636  0.3315 -0.9908 -0.3568
   54MOL0     C 7060   3.199   6.678  -0.750  1.5125 -0.5667 -0.5785
   54MOL0     C 7061   2.944   6.523  -0.004 -0.8651  0.1731 -0.1449
   54MOL0     C 7062   2.861   6.459   0.092 -0.0949  0.3794 -0.7535
   54MOL0     H 7063   2.573   6.089   0.162  1.6560  0.5157 -0.4506
   54MOL0     H 7064   2.437   5.943   0.257  2.8330 -0.0009 -1.2840
   54MOL0     H 7065   2.318   5.795   0.384 -1.0263 -0.2042 -1.8138
   54MOL0     H 7066   2.194   5.903   0.429  2.8647  2.6541 -2.2639
   54MOL0     H 7067   2.172   5.832   0.647 -0.9720  0.0481  0.7691
   54MOL0     H 7068   2.316   5.724   0.626  0.9835 -0.6774 -3.1975
   54MOL0     H 7069   2.181   5.602   0.452  0.1881  3.9310 -3.4028
   54MOL0     H 7070   2.039   5.711   0.484  2.5531  1.9830 -0.9778
   54MOL0     H 7071   2.176   5.514   0.669 -0.3094 -1.0422 -0.9115
   54MOL0     H 7072   2.031   5.604   0.727  1.1256 -2.5947  2.2036
   54MOL0     H 7073   2.001   5.429   0.489  2.4969 -2.0077  1.0816
   54MOL0     H 7074   1.888   5.529   0.588  1.3011  2.3802  2.4972
   54MOL0     H 7075   1.873   5.280   0.618 -1.4025  3.3970 -3.0910
   54MOL0     H 7076   1.889   5.358   0.768  1.8776 -0.9430  1.1794
   54MOL0     H 7077   2.115   5.222   0.603  2.3345 -1.1626  0.5997
   54MOL0     H 7078   2.149   5.312   0.741  0.1126 -0.4013 -1.3178
   54MOL0     H 7079   1.923   5.132   0.802  0.6015 -1.2053 -1.9718
   54MOL0     H 7080   2.068   5.160   0.888  1.0834  1.9901 -1.3298
   54MOL0     H 7081   2.239   5.010   0.627 -1.5384  3.8976  1.0288
   54MOL0     H 7082   2.155   4.658   0.495 -1.0050 -0.8595  1.9131
   54MOL0     H 7083   2.265   4.670   0.620  0.8154 -0.2249 -2.2443
   54MOL0     H 7084   2.398   4.729   0.416  0.0238  0.2579  0.3353
   54MOL0     H 7085   2.371   4.863   0.515  2.0443  2.8068 -3.1229
   54MOL0     H 7086   2.263   4.826   0.240 -5.2446 -0.5084 -0.6459
   54MOL0     H 7087   2.152   4.896   0.349  0.0374  1.5842 -2.2419
   54MOL0     H 7088   2.305   5.052   0.202 -0.0690  1.0690  0.2444
   54MOL0     H 7089   2.434   5.006   0.319  0.0015  0.2306  1.7782
   54MOL0     H 7090   2.479   5.107   0.534 -0.8745 -0.9604 -2.7684
   54MOL0     H 7091   2.630   5.292   0.603  0.2809  1.5584 -0.8565
   54MOL0     H 7092   2.708   5.799   0.594  1.2683  2.9695  2.1767
   54MOL0     H 7093   2.882   5.955   0.630 -0.1630 -0.5441  0.5740
   54MOL0     H 7094   3.240   5.861   0.497  0.6614 -1.2100  1.7284
   54MOL0     H 7095   3.326   5.941   0.614 -0.1152 -2.6902  0.4730
   54MOL0     H 7096   3.060   6.045   0.520 -0.4358  3.5125 -0.3259
   54MOL0     H 7097   3.220   6.120   0.475  2.5932 -2.6210 -0.6381
   54MOL0     H 7098   3.259   6.179   0.692  0.0920 -1.6977 -0.4136
   54MOL0     H 7099   3.120   6.104   0.760 -1.1358  3.2057  2.8619
   54MOL0     H 7100   3.117   6.341   0.570 -2.7141  2.9161 -0.3510
   54MOL0     H 7101   2.976   6.274   0.634 -0.3346  0.7228 -0.3402
   54MOL0     H 7102   3.043   6.462   0.765  1.0125  1.8283 -0.0697
   54MOL0     H 7103   3.192   6.390   0.815 -0.8561 -0.2867  1.6408
   54MOL0     H 7104   3.035   6.374   0.985 -3.4280 -3.3719  3.8735
   54MOL0     H 7105   3.096   6.212   0.933  2.3960  1.6470 -0.7813
   54MOL0     H 7106   2.826   6.330   0.834  0.2476  0.9524  1.1110
   54MOL0     H 7107   2.880   6.171   0.800  0.4843 -0.7034  0.3380
   54MOL0     H 7108   2.819   6.267   1.087 -2.3246 -0.4379  0.4050
   54MOL0     H 7109   2.871   6.110   1.029 -1.2222 -0.8522  1.8074
   54MOL0     H 7110   3.165   5.631   0.653  0.3148 -0.1472  2.7293
   54MOL0     H 7111   2.973   5.466   0.612 -2.3722  0.6450  1.2422
   54MOL0     H 7112   2.415   5.544   0.338  2.4545  1.4804  0.1759
   54MOL0     H 7113   2.271   5.355   0.268  1.8443  0.3646 -2.1663
   54MOL0     H 7114   2.498   6.134   0.647  0.5433 -0.6548  0.8749
   54MOL0     H 7115   2.655   6.277   0.545 -1.8537 -0.2246 -0.1874
   54MOL0     H 7116   3.096   6.271   0.245  1.0577 -1.1085 -1.9724
   54MOL0     H 7117   3.243   6.401   0.094  0.6470  1.7279  2.4443
   54MOL0     H 7118   3.088   6.693  -0.178 -0.3427 -1.0567 -0.2416
   54MOL0     H 7119   3.083   6.563  -0.282  0.3511 -0.5294  1.7010
   54MOL0     H 7120   3.301   6.740  -0.193  2.7176 -0.4479 -0.9961
   54MOL0     H 7121   3.360   6.591  -0.256  0.5299 -0.5444 -1.5611
   54MOL0     H 7122   3.341   6.778  -0.438 -0.5435 -1.5512 -1.8903
   54MOL0     H 7123   3.169   6.779  -0.409  0.0238  0.3144 -1.4002
   54MOL0     H 7124   3.351   6.541  -0.505 -2.2706 -3.9247 -1.2416
   54MOL0     H 7125   3.180   6.514  -0.482  1.2741 -1.7605 -0.7902
   54MOL0     H 7126   3.171   6.708  -0.849 -0.4330 -1.5916 -0.3834
   54MOL0     H 7127   2.903   6.584  -0.084 -0.2103 -1.7931 -2.0795
   54MOL0     H 7128   2.755   6.481   0.092 -0.2905 -0.4190  0.5963
   55MOL0     O 7129  10.864   2.522   1.727  0.5668  0.2700  0.3789
   55MOL0     C 7130  10.962   2.527   1.798 -0.4905 -0.5160 -0.3699
   55MOL0     O 7131  11.003   2.425   1.890  0.0936 -0.3784  0.9950
   55MOL0     C 7132  10.934   2.307   1.878 -0.0455  0.2066 -0.9255
   55MOL0     C 7133  10.839   2.263   1.982 -0.6141 -0.8920 -0.2334
   55MOL0     C 7134  10.802   2.136   1.985 -1.4247 -0.9326 -0.1470
   55MOL0     C 7135  10.853   2.044   1.893 -0.0054 -0.4472  0.3755
   55MOL0     O 7136  10.822   1.911   1.891  0.3543  0.0694 -0.3212
   55MOL0     C 7137  10.847   1.825   2.001 -0.8480  0.8209  0.7684
   55MOL0     C 7138  10.910   1.689   1.956 -0.7031 -0.2038 -0.4406
   55MOL0     C 7139  10.964   1.593   2.070  0.5508  0.3002  0.2480
   55MOL0     C 7140  10.863   1.563   2.173 -0.3778  0.2622  0.3545
   55MOL0     C 7141  10.940   1.489   2.288 -0.1825 -0.2060 -0.0320
   55MOL0     C 7142  10.869   1.464   2.413 -0.5311 -0.5247 -0.4622
   55MOL0     C 7143  10.953   1.428   2.534  1.0202  0.5703  0.1462
   55MOL0     C 7144  11.010   1.552   2.606  0.1138 -0.1129  0.9583
   55MOL0     N 7145  11.035   1.526   2.744  0.4742 -0.7302 -0.4683
   55MOL0     C 7146  11.129   1.438   2.789  0.9816  0.1232 -0.3673
   55MOL0     C 7147  11.099   1.427   2.924  0.9102 -0.8192  0.2064
   55MOL0     C 7148  11.134   1.305   3.010  0.3559 -0.1735 -0.3358
   55MOL0     C 7149  11.231   1.328   3.133 -0.1671  0.1666 -0.4314
   55MOL0     C 7150  11.144   1.376   3.255 -0.0735 -0.2258 -1.0049
   55MOL0     C 7151  11.082   1.255   3.335  0.4481 -0.1944 -0.2495
   55MOL0     O 7152  11.171   1.146   3.351 -0.1867  0.0358 -0.4249
   55MOL0     C 7153  11.223   1.141   3.476  0.0386 -0.4040 -0.5635
   55MOL0     C 7154  11.152   1.078   3.578 -0.4340  0.3311 -0.2410
   55MOL0     C 7155  11.190   1.081   3.711 -0.9747 -0.6464  0.3998
   55MOL0     C 7156  11.314   1.141   3.753  1.1726 -0.8217 -0.2562
   55MOL0     C 7157  11.358   1.151   3.888  0.0942  0.2289  0.3303
   55MOL0     O 7158  11.493   1.144   3.905  0.7609  0.3958  0.4111
   55MOL0     C 7159  11.539   1.098   4.028  0.2650  0.7279  0.1607
   55MOL0     C 7160  11.615   1.189   4.097  0.6246 -0.3523  0.0943
   55MOL0     C 7161  11.685   1.157   4.208  0.9611 -0.1505 -0.5317
   55MOL0     C 7162  11.699   1.027   4.257  0.3705 -0.5106  0.4736
   55MOL0     O 7163  11.762   0.986   4.378 -0.5383  0.6738 -0.7107
   55MOL0     C 7164  11.903   1.035   4.403  1.7210 -0.8919 -0.2428
   55MOL0     C 7165  11.977   0.908   4.442  0.1642 -0.1444  0.7888
   55MOL0     C 7166  12.085   0.932   4.550 -0.3882  0.2303  0.3822
   55MOL0     C 7167  12.166   0.805   4.572  0.6266 -0.1168 -1.5889
   55MOL0     C 7168  12.089   0.675   4.580  0.6043  0.0117 -1.1420
   55MOL0     C 7169  12.163   0.562   4.632  0.6082  1.1115 -0.3929
   55MOL0     C 7170  12.299   0.533   4.565  0.9318  0.1316  0.2096
   55MOL0     C 7171  12.352   0.395   4.584  0.2715  0.4851  0.6097
   55MOL0    Cl 7172  12.376   0.364   4.759 -0.3927 -0.6160 -0.5694
   55MOL0     C 7173  11.621   0.935   4.188  0.5631  0.1793  0.5965
   55MOL0     C 7174  11.543   0.968   4.076  0.2144 -0.1450 -0.1656
   55MOL0     O 7175  11.271   1.179   3.972 -0.4399  0.3336  0.2242
   55MOL0     C 7176  11.379   1.205   3.644 -0.5254  0.5096  0.5293
   55MOL0     C 7177  11.347   1.200   3.508 -0.7057  0.0920  0.4550
   55MOL0     N 7178  10.984   1.515   2.951 -0.2740  0.7404 -0.9318
   55MOL0     N 7179  10.949   1.569   2.842  0.6025  0.2622 -0.7726
   55MOL0     C 7180  10.938   2.085   1.783 -0.2219 -0.2403 -0.3280
   55MOL0     C 7181  10.985   2.218   1.788  0.3396 -0.0980  0.5164
   55MOL0     C 7182  11.050   2.657   1.783 -0.0252  0.8113  0.0155
   55MOL0     C 7183  11.167   2.675   1.857  0.2819  0.9383  0.0584
   55MOL0     C 7184  11.238   2.792   1.847  0.4730 -0.4853 -0.2272
   55MOL0     C 7185  11.198   2.886   1.759 -0.5889 -0.7286  0.7355
   55MOL0     O 7186  11.251   3.012   1.735 -0.2252  0.0870 -0.0575
   55MOL0     C 7187  11.313   3.089   1.849 -0.4121  0.7708 -0.1243
   55MOL0     C 7188  11.403   3.198   1.805 -0.1610  0.5670  0.2749
   55MOL0     C 7189  11.333   3.326   1.790  0.7225  0.4713  0.2115
   55MOL0     C 7190  11.394   3.409   1.669 -0.5077  0.5933 -0.5924
   55MOL0     C 7191  11.372   3.346   1.537  0.0009 -0.3804  1.0495
   55MOL0     C 7192  11.352   3.318   1.419  0.1159 -0.3365  1.2906
   55MOL0     C 7193  11.075   2.879   1.693 -0.5304  0.9041  0.2459
   55MOL0     C 7194  10.996   2.769   1.713 -0.6299  0.3734  0.5820
   55MOL0     H 7195  10.802   2.325   2.063  2.6546 -2.6626  2.8568
   55MOL0     H 7196  10.750   2.099   2.073  0.3937 -1.6282  0.7032
   55MOL0     H 7197  10.756   1.808   2.059 -2.5473 -1.5984 -2.3387
   55MOL0     H 7198  10.913   1.876   2.072  1.9525  0.7970 -1.6459
   55MOL0     H 7199  10.991   1.708   1.884 -1.3155 -1.4582 -1.5110
   55MOL0     H 7200  10.827   1.631   1.915 -1.2222  1.5864 -2.0728
   55MOL0     H 7201  11.057   1.628   2.115 -0.9164  2.5787  1.7403
   55MOL0     H 7202  10.983   1.497   2.022 -3.1010  0.8984 -2.9376
   55MOL0     H 7203  10.816   1.651   2.218 -0.5494  0.5643 -0.3969
   55MOL0     H 7204  10.782   1.505   2.129 -1.1675 -0.3797  2.4978
   55MOL0     H 7205  11.037   1.533   2.312  0.2927 -1.5173  0.5189
   55MOL0     H 7206  10.961   1.387   2.255  2.5029  0.2112  0.1755
   55MOL0     H 7207  10.789   1.391   2.397  0.6028 -2.7796  2.9317
   55MOL0     H 7208  10.818   1.557   2.437  0.5694 -0.3937  1.5069
   55MOL0     H 7209  10.878   1.381   2.599 -2.1144  5.8593  0.9073
   55MOL0     H 7210  11.042   1.368   2.511 -0.8847 -2.7583  0.6737
   55MOL0     H 7211  10.942   1.636   2.588  2.0729  1.3185 -0.1503
   55MOL0     H 7212  11.105   1.584   2.563 -0.6504 -0.3213 -0.9828
   55MOL0     H 7213  11.196   1.369   2.739  0.1524 -0.3409 -0.8625
   55MOL0     H 7214  11.186   1.235   2.944  2.7720  0.8597  0.3807
   55MOL0     H 7215  11.041   1.250   3.029 -1.0817  2.2420 -0.0212
   55MOL0     H 7216  11.294   1.411   3.100 -0.0396  0.2210 -0.0549
   55MOL0     H 7217  11.293   1.239   3.147 -1.6173 -1.2290 -2.4189
   55MOL0     H 7218  11.206   1.433   3.325  0.6574 -2.4190  0.2380
   55MOL0     H 7219  11.061   1.438   3.219 -0.5621 -0.9646 -1.1580
   55MOL0     H 7220  10.995   1.219   3.279  1.4090  1.5193 -3.1025
   55MOL0     H 7221  11.050   1.289   3.434 -2.1052 -1.7350 -0.4376
   55MOL0     H 7222  11.053   1.045   3.548 -0.7103  0.0826  0.8909
   55MOL0     H 7223  11.123   1.045   3.788  1.5323 -1.4636  2.3549
   55MOL0     H 7224  11.636   1.286   4.052  0.0730 -0.1418  0.2891
   55MOL0     H 7225  11.742   1.231   4.263 -1.9089  1.7967  0.0742
   55MOL0     H 7226  11.909   1.107   4.485 -2.4387 -0.0970 -0.4061
   55MOL0     H 7227  11.951   1.087   4.320  3.6420  1.7567  2.3222
   55MOL0     H 7228  12.035   0.870   4.357 -1.5007 -1.1989  0.0687
   55MOL0     H 7229  11.912   0.826   4.472  0.3756  0.0700  1.8610
   55MOL0     H 7230  12.048   0.963   4.648 -1.4941  0.0558  0.0248
   55MOL0     H 7231  12.154   1.009   4.514  1.4562 -0.9167  1.3161
   55MOL0     H 7232  12.238   0.808   4.489 -0.5962 -0.7985 -2.7197
   55MOL0     H 7233  12.214   0.808   4.670 -1.1161 -1.3128 -0.6535
   55MOL0     H 7234  12.050   0.646   4.483 -2.3560  1.0443 -0.3785
   55MOL0     H 7235  12.002   0.688   4.646  2.1332 -5.5249  2.7037
   55MOL0     H 7236  12.097   0.479   4.604  0.6202  1.0588 -0.2668
   55MOL0     H 7237  12.181   0.549   4.740  0.2195 -3.6038 -0.6792
   55MOL0     H 7238  12.289   0.542   4.456  0.5234  4.8329  0.4716
   55MOL0     H 7239  12.376   0.609   4.578 -0.0921  1.2661 -0.1886
   55MOL0     H 7240  12.448   0.382   4.533  0.5103  2.3279  0.5004
   55MOL0     H 7241  12.277   0.324   4.546  1.2976  0.0649 -0.6848
   55MOL0     H 7242  11.616   0.836   4.232 -0.2210 -0.7214 -1.3759
   55MOL0     H 7243  11.496   0.884   4.025 -3.2719  0.6809  1.4228
   55MOL0     H 7244  11.467   1.256   3.681  0.4135 -1.4181  1.0852
   55MOL0     H 7245  11.401   1.267   3.442 -0.5629  1.3896  1.8548
   55MOL0     H 7246  10.975   2.018   1.705 -0.0398  0.0948 -0.5303
   55MOL0     H 7247  11.052   2.242   1.706  1.1584  1.2138  1.5427
   55MOL0     H 7248  11.204   2.587   1.908 -1.9471 -0.9625 -1.4185
   55MOL0     H 7249  11.338   2.799   1.889  0.1954  1.0198  0.2282
   55MOL0     H 7250  11.378   3.020   1.905  2.0518 -1.8344 -5.4774
   55MOL0     H 7251  11.240   3.141   1.912 -0.1120  0.6138  0.3590
   55MOL0     H 7252  11.490   3.209   1.870 -0.5393 -1.3146  1.1616
   55MOL0     H 7253  11.441   3.165   1.708  1.9437  0.0102  1.2458
   55MOL0     H 7254  11.346   3.381   1.883 -3.2820  0.5951  0.8616
   55MOL0     H 7255  11.225   3.320   1.779  0.4836  2.4435  1.0371
   55MOL0     H 7256  11.362   3.514   1.667  2.8733  1.7185 -1.1237
   55MOL0     H 7257  11.499   3.425   1.691 -1.0628  2.6260  0.8407
   55MOL0     H 7258  11.346   3.297   1.314  2.0072 -0.0761  1.0950
   55MOL0     H 7259  11.030   2.954   1.628  1.2364 -0.6200 -2.9565
   55MOL0     H 7260  10.900   2.772   1.662  0.3425  1.8289 -1.3007
   56MOL0     O 7261  10.514  10.276   7.076 -0.2704  0.8458 -0.4667
   56MOL0     C 7262  10.595  10.364   7.111  0.3385 -0.5391 -0.7603
   56MOL0     O 7263  10.725  10.373   7.063 -0.1967 -0.1008  0.0160
   56MOL0     C 7264  10.754  10.330   6.934  0.0669 -0.2009 -0.1625
   56MOL0     C 7265  10.662  10.301   6.829  1.0045  0.2040 -0.2999
   56MOL0     C 7266  10.718  10.237   6.719 -0.8612 -0.0373  0.6352
   56MOL0     C 7267  10.850  10.212   6.702 -0.4848  0.3675  0.1474
   56MOL0     O 7268  10.913  10.152   6.596  0.5315  1.2226  0.0512
   56MOL0     C 7269  10.841  10.096   6.486 -0.4310  1.2210  0.6251
   56MOL0     C 7270  10.940  10.010   6.401  0.4690 -0.0253  0.2771
   56MOL0     C 7271  11.005  10.091   6.288  0.1942 -0.3269  0.1511
   56MOL0     C 7272  11.095  10.207   6.347 -0.7597  0.6968 -0.0323
   56MOL0     C 7273  11.212  10.235   6.247  0.0680 -0.3079 -0.6113
   56MOL0     C 7274  11.185  10.265   6.108 -0.1583  0.9577 -1.3375
   56MOL0     C 7275  11.073  10.363   6.082 -0.6603 -0.5624  0.3075
   56MOL0     C 7276  11.059  10.376   5.935 -0.3417 -0.5980  0.8980
   56MOL0     N 7277  11.094  10.511   5.877 -0.0017 -0.5634 -0.1182
   56MOL0     C 7278  11.210  10.551   5.813  0.2881 -0.3056 -0.3823
   56MOL0     C 7279  11.188  10.685   5.787  0.3597  0.1294  0.6567
   56MOL0     C 7280  11.274  10.772   5.708  0.2914  0.6260 -0.1822
   56MOL0     C 7281  11.246  10.765   5.561 -0.5650 -0.9215 -0.7814
   56MOL0     C 7282  11.325  10.862   5.476  0.3863  0.0350  0.8112
   56MOL0     C 7283  11.335  10.810   5.324  0.1933 -0.2778  0.0004
   56MOL0     O 7284  11.435  10.703   5.322 -0.3902 -0.3704  0.3830
   56MOL0     C 7285  11.475  10.663   5.200 -0.4141 -0.0841  1.0157
   56MOL0     C 7286  11.614  10.669   5.168  0.5691 -1.1075  0.4579
   56MOL0     C 7287  11.668  10.635   5.047  0.1968  0.0470  1.2700
   56MOL0     C 7288  11.582  10.579   4.946 -0.4235 -0.8887 -0.0013
   56MOL0     C 7289  11.644  10.536   4.820 -0.1895  0.9708 -0.1932
   56MOL0     O 7290  11.784  10.557   4.798 -0.1303  0.2725  0.3128
   56MOL0     C 7291  11.829  10.511   4.680  0.7278 -0.4097  0.6275
   56MOL0     C 7292  11.894  10.384   4.669  0.1896 -0.3645  0.0970
   56MOL0     C 7293  11.952  10.353   4.537  0.4457  0.5681 -0.4511
   56MOL0     C 7294  11.953  10.441   4.431  0.2101 -0.1548 -0.1078
   56MOL0     O 7295  12.028  10.414   4.319  0.7588  0.0522  0.2899
   56MOL0     C 7296  12.167  10.400   4.330  0.2067  0.4325  0.3818
   56MOL0     C 7297  12.242  10.390   4.198  0.2680 -0.1957  0.3054
   56MOL0     C 7298  12.247  10.260   4.113  0.0827 -0.8791  0.3965
   56MOL0     C 7299  12.344  10.271   3.992  0.8392  0.4789 -0.3838
   56MOL0     C 7300  12.338  10.137   3.908  0.7461  0.1176 -0.8736
   56MOL0     C 7301  12.479  10.123   3.848 -1.0586 -0.4024 -0.2999
   56MOL0     C 7302  12.487  10.016   3.756 -0.2937 -0.6391  0.4770
   56MOL0     C 7303  12.618  10.007   3.677 -0.5207 -0.1151  0.1389
   56MOL0    Cl 7304  12.621   9.873   3.564  0.1135  0.0147 -0.0283
   56MOL0     C 7305  11.885  10.558   4.441  0.5899  0.5386  0.8584
   56MOL0     C 7306  11.817  10.588   4.562 -1.2505  0.7460 -0.2820
   56MOL0     O 7307  11.578  10.466   4.750 -0.2904 -0.2545  0.2482
   56MOL0     C 7308  11.448  10.555   4.989  0.1561  0.7166 -0.4749
   56MOL0     C 7309  11.392  10.596   5.113 -0.3349 -0.6644  0.2394
   56MOL0     N 7310  11.065  10.718   5.837  0.1211 -0.9144 -0.7597
   56MOL0     N 7311  11.008  10.619   5.891  0.2219 -0.2647  0.0605
   56MOL0     C 7312  10.944  10.263   6.802  0.2670  0.0277  0.0559
   56MOL0     C 7313  10.893  10.327   6.919  0.4235  0.0876  0.4655
   56MOL0     C 7314  10.550  10.454   7.228 -0.0786  0.9753  1.3206
   56MOL0     C 7315  10.414  10.485   7.222 -0.1640 -0.6711  0.3165
   56MOL0     C 7316  10.364  10.567   7.333  0.0215 -0.2210  0.2292
   56MOL0     C 7317  10.453  10.618   7.427 -0.4164  0.1558 -0.0933
   56MOL0     O 7318  10.395  10.666   7.538 -0.6867 -0.7430 -0.6364
   56MOL0     C 7319  10.463  10.755   7.623 -0.1395 -0.4479  0.7092
   56MOL0     C 7320  10.541  10.690   7.736  0.2731 -0.1025  0.1941
   56MOL0     C 7321  10.457  10.668   7.864  0.4066 -0.1426  0.0494
   56MOL0     C 7322  10.517  10.561   7.959 -0.0819 -0.5507 -0.2240
   56MOL0     C 7323  10.649  10.610   8.015  0.0857 -0.2692 -0.4895
   56MOL0     C 7324  10.739  10.680   8.022 -0.9370 -0.1511 -0.7225
   56MOL0     C 7325  10.599  10.607   7.412  1.0062 -0.5318 -0.0494
   56MOL0     C 7326  10.641  10.510   7.321 -1.2746  0.6858  0.6152
   56MOL0     H 7327  10.557  10.327   6.827  1.2098  1.3492  1.5197
   56MOL0     H 7328  10.654  10.220   6.633  0.5758 -0.0827 -0.4645
   56MOL0     H 7329  10.795  10.180   6.433  0.4461 -0.2357 -2.6539
   56MOL0     H 7330  10.757  10.031   6.510  0.9239 -2.8750 -4.1392
   56MOL0     H 7331  10.886   9.925   6.357  0.2264  1.0913 -1.7304
   56MOL0     H 7332  11.018   9.970   6.466  0.6753 -0.4787 -0.2315
   56MOL0     H 7333  10.924  10.134   6.228 -0.7534 -1.2105  0.7748
   56MOL0     H 7334  11.055  10.022   6.219  0.2324 -0.6276  0.4823
   56MOL0     H 7335  11.022  10.287   6.362  1.2229  2.8529 -1.2362
   56MOL0     H 7336  11.132  10.186   6.448 -1.7516 -0.6540  0.0840
   56MOL0     H 7337  11.301  10.172   6.258  1.5407  1.5952 -1.1274
   56MOL0     H 7338  11.241  10.331   6.290 -2.4019  0.1531  0.1990
   56MOL0     H 7339  11.174  10.165   6.066  1.6843  1.0362 -2.1083
   56MOL0     H 7340  11.280  10.300   6.066 -0.1093  0.5814 -1.5448
   56MOL0     H 7341  10.973  10.343   6.122 -0.0431 -0.2470  2.1050
   56MOL0     H 7342  11.091  10.464   6.120 -2.0979 -0.6549  1.3300
   56MOL0     H 7343  10.950  10.365   5.922 -0.6478 -0.6606  3.1969
   56MOL0     H 7344  11.118  10.295   5.892  4.2803  1.6257  2.4318
   56MOL0     H 7345  11.294  10.492   5.779 -0.8361  0.4286 -5.0241
   56MOL0     H 7346  11.380  10.749   5.724  0.3417  0.5458 -0.6177
   56MOL0     H 7347  11.259  10.876   5.740  0.8817  0.9465 -0.9096
   56MOL0     H 7348  11.143  10.796   5.541  0.2788  3.0036  0.0758
   56MOL0     H 7349  11.262  10.668   5.513  3.6122  0.9558 -3.7458
   56MOL0     H 7350  11.291  10.966   5.474 -0.1352 -0.1132 -2.0964
   56MOL0     H 7351  11.430  10.873   5.504 -0.3076  0.8967  3.3307
   56MOL0     H 7352  11.367  10.885   5.251  0.3949 -2.4904 -2.3149
   56MOL0     H 7353  11.243  10.761   5.292 -0.1378  2.0619 -3.0052
   56MOL0     H 7354  11.675  10.713   5.247  3.6986 -0.5429 -2.0801
   56MOL0     H 7355  11.773  10.658   5.031  0.1322  0.4905  1.4855
   56MOL0     H 7356  11.907  10.309   4.746  0.7455 -0.1005  0.2691
   56MOL0     H 7357  12.003  10.263   4.505  2.0431  0.2215  2.6578
   56MOL0     H 7358  12.191  10.314   4.393 -1.7245 -0.2946  0.2076
   56MOL0     H 7359  12.211  10.480   4.389  0.5914 -0.0255  0.7263
   56MOL0     H 7360  12.345  10.425   4.213  0.5837 -1.2163  0.6283
   56MOL0     H 7361  12.191  10.464   4.137  0.5779 -2.5922 -3.1168
   56MOL0     H 7362  12.144  10.246   4.078  0.4868 -0.2427 -1.1290
   56MOL0     H 7363  12.270  10.168   4.167  0.0072 -0.4881  1.1156
   56MOL0     H 7364  12.332  10.357   3.926  1.8520  1.9311  1.2271
   56MOL0     H 7365  12.446  10.271   4.033  0.9479  0.7263 -0.6446
   56MOL0     H 7366  12.257  10.138   3.833  0.2443  0.0149 -0.3420
   56MOL0     H 7367  12.322  10.054   3.977  1.2373 -0.2461 -1.1949
   56MOL0     H 7368  12.549  10.100   3.928 -0.0016  1.6280 -0.5644
   56MOL0     H 7369  12.510  10.213   3.793  0.6819 -1.9094 -1.9332
   56MOL0     H 7370  12.460   9.924   3.809 -2.6118  1.2191  2.8190
   56MOL0     H 7371  12.400  10.031   3.691  1.4317  4.1554 -1.0895
   56MOL0     H 7372  12.693   9.997   3.756 -0.4083 -2.8891 -0.2157
   56MOL0     H 7373  12.630  10.098   3.618 -0.2605 -0.3452 -0.1666
   56MOL0     H 7374  11.881  10.632   4.361  1.0606  1.6326  1.8023
   56MOL0     H 7375  11.750  10.674   4.564 -1.9662  0.1834  0.6829
   56MOL0     H 7376  11.386  10.502   4.916 -1.6499  0.1718  1.3527
   56MOL0     H 7377  11.287  10.577   5.135 -0.6575 -0.8400 -1.3249
   56MOL0     H 7378  11.052  10.252   6.796  0.5403  1.5817  1.3295
   56MOL0     H 7379  10.963  10.368   6.992  1.4530 -2.2454  0.8775
   56MOL0     H 7380  10.338  10.436   7.162 -0.6647  0.3264  0.1139
   56MOL0     H 7381  10.265  10.551   7.374  2.2512 -2.0978  5.7871
   56MOL0     H 7382  10.388  10.825   7.660 -3.6048 -2.9220 -1.0142
   56MOL0     H 7383  10.528  10.812   7.557  1.0136 -1.0569  1.2880
   56MOL0     H 7384  10.583  10.599   7.691 -0.1099 -0.2815  0.2012
   56MOL0     H 7385  10.627  10.755   7.754  0.4416  0.3517 -1.9744
   56MOL0     H 7386  10.361  10.625   7.833 -0.5292 -0.3638  2.9692
   56MOL0     H 7387  10.444  10.761   7.918 -2.7738 -0.4170 -0.0498
   56MOL0     H 7388  10.453  10.531   8.042  2.3186  0.8401  2.3045
   56MOL0     H 7389  10.529  10.469   7.902 -0.5796 -1.3239  0.8844
   56MOL0     H 7390  10.814  10.750   8.052 -0.3127 -0.4928 -1.4749
   56MOL0     H 7391  10.659  10.651   7.490  0.9556  0.0275 -0.3239
   56MOL0     H 7392  10.745  10.481   7.317 -2.1958 -2.9886 -1.0578
   57MOL0     O 7393   6.362   5.841   7.446 -0.3412  0.9225 -1.0840
   57MOL0     C 7394   6.437   5.815   7.546 -0.3470 -1.0593  0.2864
   57MOL0     O 7395   6.472   5.905   7.642  0.5934  0.4259 -0.5153
   57MOL0     C 7396   6.420   6.030   7.645 -0.5565 -0.2843 -0.3930
   57MOL0     C 7397   6.326   6.067   7.743 -1.0945  0.5893  0.0817
   57MOL0     C 7398   6.284   6.201   7.753  0.7171  0.2854  0.3849
   57MOL0     C 7399   6.335   6.299   7.668 -0.0464 -0.8626 -0.0999
   57MOL0     O 7400   6.309   6.435   7.692 -0.2467 -0.5239  0.0813
   57MOL0     C 7401   6.345   6.536   7.594  0.1545 -0.4890  0.1186
   57MOL0     C 7402   6.268   6.666   7.602 -0.1338  0.6894  0.0869
   57MOL0     C 7403   6.124   6.641   7.598  1.4206 -0.3701  0.3541
   57MOL0     C 7404   6.053   6.772   7.599 -0.0741 -0.8142  0.5764
   57MOL0     C 7405   5.904   6.754   7.577 -0.3111 -0.8442 -0.3170
   57MOL0     C 7406   5.841   6.887   7.629  0.4634  0.2093  0.1845
   57MOL0     C 7407   5.685   6.853   7.630  0.5568 -0.2702  0.2637
   57MOL0     C 7408   5.612   6.956   7.712  0.5309  0.4879  0.0805
   57MOL0     N 7409   5.597   7.080   7.634  0.1120 -1.1425  0.2357
   57MOL0     C 7410   5.634   7.210   7.669 -0.0600  0.0750  0.2594
   57MOL0     C 7411   5.592   7.300   7.572 -0.0653  0.3613 -1.3908
   57MOL0     C 7412   5.613   7.448   7.593  0.6996  0.1969  0.1891
   57MOL0     C 7413   5.547   7.508   7.723 -0.0013  0.1345  0.5649
   57MOL0     C 7414   5.642   7.622   7.772 -0.3734  0.9795 -0.2836
   57MOL0     C 7415   5.660   7.731   7.665  0.3994 -0.2926 -0.0190
   57MOL0     O 7416   5.529   7.797   7.636 -0.1743  0.3961 -0.0653
   57MOL0     C 7417   5.532   7.880   7.534 -0.1274 -0.6529  0.7124
   57MOL0     C 7418   5.435   7.870   7.434 -0.0033  0.2098 -0.4033
   57MOL0     C 7419   5.436   7.947   7.321  0.9675 -0.0379  0.0802
   57MOL0     C 7420   5.529   8.052   7.299 -0.5064  0.8400 -0.3115
   57MOL0     C 7421   5.536   8.131   7.183 -0.3964 -0.0436  0.1773
   57MOL0     O 7422   5.469   8.081   7.082  0.2820  0.0427  0.4510
   57MOL0     C 7423   5.472   8.136   6.962 -0.7330 -0.1536  1.0093
   57MOL0     C 7424   5.586   8.198   6.896 -0.0009  0.5930  0.0824
   57MOL0     C 7425   5.594   8.244   6.761  0.2504  0.4154 -0.1632
   57MOL0     C 7426   5.462   8.238   6.692 -0.4370 -1.0333 -0.2515
   57MOL0     O 7427   5.430   8.302   6.579  0.6778 -0.7435  0.0621
   57MOL0     C 7428   5.543   8.366   6.516  1.0552  1.0079 -0.4500
   57MOL0     C 7429   5.500   8.420   6.386 -0.5091  0.6682  0.3134
   57MOL0     C 7430   5.377   8.509   6.395 -0.8927  0.5080 -0.8065
   57MOL0     C 7431   5.361   8.589   6.259 -0.3198  0.8102 -0.3234
   57MOL0     C 7432   5.233   8.669   6.236 -0.5761  0.3649  0.4767
   57MOL0     C 7433   5.105   8.581   6.237 -1.0308  0.2670 -0.4782
   57MOL0     C 7434   4.999   8.656   6.166  0.7361  0.8656 -0.5546
   57MOL0     C 7435   4.863   8.589   6.195  0.8348 -0.8721 -0.3815
   57MOL0    Cl 7436   4.804   8.613   6.357 -0.1453  0.2376 -0.2515
   57MOL0     C 7437   5.353   8.165   6.758 -0.7580  0.3086  0.1646
   57MOL0     C 7438   5.355   8.119   6.888  0.5189  0.1770  0.3921
   57MOL0     O 7439   5.603   8.239   7.182  0.6041  0.0822 -0.1899
   57MOL0     C 7440   5.624   8.067   7.405 -0.8799 -0.1634 -1.0679
   57MOL0     C 7441   5.628   7.984   7.518  0.9468 -0.1676 -0.1786
   57MOL0     N 7442   5.541   7.216   7.472 -0.8114  0.1446 -0.3513
   57MOL0     N 7443   5.542   7.087   7.505 -0.6368 -0.1199  0.4875
   57MOL0     C 7444   6.432   6.268   7.567 -0.4669 -0.3431  1.1364
   57MOL0     C 7445   6.473   6.127   7.559  0.2807 -0.1675 -0.3610
   57MOL0     C 7446   6.497   5.686   7.565 -0.9444  0.5464 -0.4634
   57MOL0     C 7447   6.485   5.581   7.470 -0.3792  0.0281  0.5403
   57MOL0     C 7448   6.555   5.458   7.486  0.7257 -0.2144  0.1192
   57MOL0     C 7449   6.628   5.430   7.602 -0.0590  0.3716 -0.7217
   57MOL0     O 7450   6.684   5.310   7.639 -0.0338  0.6106 -0.4483
   57MOL0     C 7451   6.655   5.200   7.543  0.3564 -0.7761 -0.4165
   57MOL0     C 7452   6.729   5.081   7.583 -0.9671  0.8779  0.2106
   57MOL0     C 7453   6.755   4.991   7.467 -0.0922  0.0142  0.0701
   57MOL0     C 7454   6.633   4.911   7.428  1.0916  0.9705  1.0802
   57MOL0     C 7455   6.657   4.847   7.298 -1.2261  0.2418  0.8867
   57MOL0     C 7456   6.679   4.775   7.201  0.4846  0.1041 -0.2192
   57MOL0     C 7457   6.649   5.536   7.691  0.6532  0.1301 -0.3546
   57MOL0     C 7458   6.577   5.656   7.679  0.1583  0.4142 -0.3972
   57MOL0     H 7459   6.292   5.995   7.817 -0.9600 -0.1314 -0.5351
   57MOL0     H 7460   6.225   6.234   7.839 -1.1397  2.2386 -1.5107
   57MOL0     H 7461   6.325   6.510   7.489  1.4060 -0.9265 -0.0268
   57MOL0     H 7462   6.452   6.561   7.593  0.7401 -2.7827  0.0994
   57MOL0     H 7463   6.298   6.738   7.526 -2.9937  1.9030 -0.0277
   57MOL0     H 7464   6.292   6.722   7.693 -0.6302 -1.3546  1.5646
   57MOL0     H 7465   6.084   6.585   7.683 -0.3850  2.4513  1.4993
   57MOL0     H 7466   6.101   6.592   7.503  4.0209  0.0879 -0.5949
   57MOL0     H 7467   6.078   6.827   7.689  1.5952  0.4640 -0.6072
   57MOL0     H 7468   6.092   6.826   7.512 -4.8944  0.2795 -1.2337
   57MOL0     H 7469   5.868   6.685   7.655 -0.9408  2.2816  2.4038
   57MOL0     H 7470   5.884   6.728   7.473 -0.5020  0.3235 -0.5846
   57MOL0     H 7471   5.849   6.971   7.559 -3.5050  2.0162  1.6034
   57MOL0     H 7472   5.866   6.933   7.725 -0.3637 -1.4684  1.2747
   57MOL0     H 7473   5.644   6.841   7.529  0.4316 -2.0792  0.4963
   57MOL0     H 7474   5.669   6.752   7.667  0.8575 -1.7842 -3.3140
   57MOL0     H 7475   5.659   6.980   7.808  0.1141  0.9987  0.1631
   57MOL0     H 7476   5.510   6.917   7.719 -0.1792  2.1412 -0.4008
   57MOL0     H 7477   5.671   7.232   7.768 -2.6905 -2.0854  1.8562
   57MOL0     H 7478   5.567   7.487   7.502  1.5612  2.5232  0.6910
   57MOL0     H 7479   5.720   7.469   7.589  1.1390 -1.2122  2.6148
   57MOL0     H 7480   5.530   7.435   7.803 -3.6020 -0.6231 -0.7227
   57MOL0     H 7481   5.450   7.552   7.696 -1.3486  0.4889  5.1184
   57MOL0     H 7482   5.604   7.666   7.864 -2.1577 -0.8380 -0.0692
   57MOL0     H 7483   5.733   7.567   7.798 -2.1006 -2.7119 -1.2382
   57MOL0     H 7484   5.700   7.687   7.573 -1.3338 -0.5461 -0.6801
   57MOL0     H 7485   5.741   7.799   7.693 -0.1229  0.7683 -1.0035
   57MOL0     H 7486   5.362   7.790   7.444  0.9098 -0.9021 -2.2178
   57MOL0     H 7487   5.347   7.942   7.258 -0.5527  3.8870  1.5821
   57MOL0     H 7488   5.684   8.205   6.942  0.4932  2.1821 -1.1055
   57MOL0     H 7489   5.687   8.280   6.720  1.9719 -2.3988  0.9606
   57MOL0     H 7490   5.628   8.300   6.501  0.7265  1.1801 -3.6234
   57MOL0     H 7491   5.580   8.449   6.577  1.2949  1.4275 -1.1560
   57MOL0     H 7492   5.480   8.333   6.322  0.9179  0.6408 -0.1228
   57MOL0     H 7493   5.587   8.474   6.349  0.9736 -1.2898  0.7370
   57MOL0     H 7494   5.384   8.583   6.475  0.5701  0.2538 -0.6700
   57MOL0     H 7495   5.287   8.450   6.410 -1.1470  0.9188 -0.6981
   57MOL0     H 7496   5.451   8.650   6.259  1.4704 -1.6211  1.3700
   57MOL0     H 7497   5.383   8.522   6.176  4.4290  2.6576 -0.8412
   57MOL0     H 7498   5.249   8.698   6.132 -1.9994 -0.9505 -0.1401
   57MOL0     H 7499   5.237   8.758   6.300  3.2755  1.0082 -0.3843
   57MOL0     H 7500   5.078   8.543   6.336 -2.5328  2.9635  0.2500
   57MOL0     H 7501   5.115   8.492   6.175  0.8463 -1.2879  1.8631
   57MOL0     H 7502   4.984   8.758   6.202  0.3183  0.8230 -0.6044
   57MOL0     H 7503   5.020   8.659   6.058  1.1904 -0.6840 -0.5256
   57MOL0     H 7504   4.866   8.481   6.182 -1.5683 -0.9608 -0.7903
   57MOL0     H 7505   4.780   8.619   6.130 -1.4152 -3.4724  1.0923
   57MOL0     H 7506   5.266   8.141   6.697  4.2103 -5.1709 -6.3753
   57MOL0     H 7507   5.271   8.063   6.927  0.2444 -1.9416 -2.7985
   57MOL0     H 7508   5.707   8.134   7.386 -1.4829  0.3619 -1.9780
   57MOL0     H 7509   5.707   7.987   7.593  1.3358 -2.0875 -0.4512
   57MOL0     H 7510   6.491   6.331   7.502  1.3798 -2.4886  0.6237
   57MOL0     H 7511   6.554   6.116   7.488  1.8018 -1.8884  1.5322
   57MOL0     H 7512   6.412   5.597   7.391  3.5850  1.7611 -3.1909
   57MOL0     H 7513   6.514   5.381   7.422 -1.8041  1.0566  0.0671
   57MOL0     H 7514   6.690   5.238   7.447  1.1723  2.8569  1.1395
   57MOL0     H 7515   6.547   5.188   7.539 -0.1074  1.8293  1.4248
   57MOL0     H 7516   6.827   5.103   7.626 -0.4491 -0.9364  0.0494
   57MOL0     H 7517   6.677   5.026   7.662  1.6091  0.3757  1.6675
   57MOL0     H 7518   6.826   4.910   7.489  0.1077 -0.2440 -1.3746
   57MOL0     H 7519   6.812   5.033   7.383  0.5382 -0.4768  0.2431
   57MOL0     H 7520   6.598   4.833   7.495  1.2696  1.1679  1.4094
   57MOL0     H 7521   6.553   4.984   7.412  1.2902  0.6167 -2.2367
   57MOL0     H 7522   6.705   4.717   7.115 -1.0295 -1.7620  0.5081
   57MOL0     H 7523   6.709   5.513   7.778  3.1771 -1.7588 -2.4320
   57MOL0     H 7524   6.592   5.728   7.760 -0.7153  0.3576 -0.1708
   58MOL0     O 7525   1.510   2.356   9.440 -1.2288 -0.5440 -0.1028
   58MOL0     C 7526   1.417   2.414   9.499 -0.0366  0.6610  0.6756
   58MOL0     O 7527   1.335   2.510   9.446 -0.0676 -0.5664 -0.6937
   58MOL0     C 7528   1.332   2.536   9.315  0.8493 -1.5917 -1.0203
   58MOL0     C 7529   1.304   2.669   9.265  0.7189  0.5666  0.2929
   58MOL0     C 7530   1.297   2.701   9.135 -0.4034 -1.0369 -0.3824
   58MOL0     C 7531   1.329   2.606   9.046 -0.0570 -1.2969  0.1662
   58MOL0     O 7532   1.353   2.653   8.922  0.0867  0.1054  0.4369
   58MOL0     C 7533   1.292   2.590   8.814  0.3647  0.0910 -0.6908
   58MOL0     C 7534   1.147   2.636   8.794 -0.2725 -0.2933  0.2316
   58MOL0     C 7535   1.046   2.526   8.841  0.4242  0.7434 -0.2228
   58MOL0     C 7536   0.900   2.575   8.815 -0.3730 -0.5550  0.1374
   58MOL0     C 7537   0.795   2.460   8.846 -0.1402  0.3093 -0.2405
   58MOL0     C 7538   0.649   2.525   8.829 -0.8050  0.8324 -0.2229
   58MOL0     C 7539   0.525   2.427   8.854 -0.4997 -0.1288 -0.1565
   58MOL0     C 7540   0.514   2.388   9.004 -0.4847 -0.1169 -0.0279
   58MOL0     N 7541   0.414   2.280   9.014  0.5280  0.2206  0.3757
   58MOL0     C 7542   0.319   2.260   9.110  0.2115  0.7610 -0.0316
   58MOL0     C 7543   0.254   2.148   9.082  0.0874  0.1764 -0.4970
   58MOL0     C 7544   0.155   2.076   9.168 -0.4312 -1.8045  0.1777
   58MOL0     C 7545   0.184   1.933   9.183  0.5170  0.5715  0.2700
   58MOL0     C 7546   0.315   1.912   9.256 -0.2485  0.2178  0.7363
   58MOL0     C 7547   0.331   1.964   9.398 -0.2031 -0.5003 -0.0701
   58MOL0     O 7548   0.233   1.906   9.492 -0.0888 -0.4231  0.5826
   58MOL0     C 7549   0.264   1.931   9.624  0.3052  0.0735  0.0822
   58MOL0     C 7550   0.212   2.041   9.685  0.0938 -0.6282 -0.0752
   58MOL0     C 7551   0.241   2.084   9.819  0.6996  0.7510 -0.0293
   58MOL0     C 7552   0.330   1.993   9.891 -0.2403 -0.2200  1.3346
   58MOL0     C 7553   0.374   2.019  10.033 -0.1527  0.3712  0.1750
   58MOL0     O 7554   0.474   1.948  10.085  0.7787  0.7863 -0.1267
   58MOL0     C 7555   0.512   1.975  10.217 -0.2381  0.0120 -0.4733
   58MOL0     C 7556   0.422   1.960  10.322  0.4947  0.7795 -0.9121
   58MOL0     C 7557   0.459   1.993  10.452  0.4279 -0.2064  0.6566
   58MOL0     C 7558   0.590   2.041  10.473  0.2599  0.5538  0.4115
   58MOL0     O 7559   0.640   2.085  10.593 -0.4411 -0.5155 -0.0836
   58MOL0     C 7560   0.614   2.020  10.721 -0.3721 -0.2944 -1.1019
   58MOL0     C 7561   0.714   2.057  10.835 -0.9504  0.3330 -0.5641
   58MOL0     C 7562   0.743   2.207  10.856 -0.3187  0.1478  0.2679
   58MOL0     C 7563   0.626   2.283  10.932 -0.1244  0.1000 -0.6291
   58MOL0     C 7564   0.592   2.213  11.064  0.0411 -0.5994  0.2964
   58MOL0     C 7565   0.509   2.286  11.168  0.8426 -0.0599 -0.3424
   58MOL0     C 7566   0.475   2.205  11.292 -1.2934 -0.0419  0.1112
   58MOL0     C 7567   0.385   2.278  11.391  0.0190 -0.5581 -0.4251
   58MOL0    Cl 7568   0.472   2.409  11.491  0.7541  0.4158  0.3532
   58MOL0     C 7569   0.673   2.069  10.358 -0.0182 -0.0596  0.3311
   58MOL0     C 7570   0.639   2.032  10.235  0.0887  0.4802 -0.4166
   58MOL0     O 7571   0.302   2.101  10.093  0.3203 -0.6165 -0.4009
   58MOL0     C 7572   0.383   1.875   9.824  0.9867  0.0068 -0.4132
   58MOL0     C 7573   0.344   1.842   9.699  0.9187  0.6560 -0.1566
   58MOL0     N 7574   0.290   2.105   8.958 -0.0403 -0.7394  0.1710
   58MOL0     N 7575   0.400   2.170   8.924  0.3947 -0.6836  0.0278
   58MOL0     C 7576   1.364   2.479   9.091 -0.8898 -0.5246 -0.9040
   58MOL0     C 7577   1.347   2.435   9.215 -0.2160 -0.2287 -0.7014
   58MOL0     C 7578   1.391   2.367   9.638 -0.8540  0.2441 -0.0162
   58MOL0     C 7579   1.284   2.417   9.712  0.1091  0.2359  0.3514
   58MOL0     C 7580   1.258   2.360   9.837 -0.3678 -0.2337 -0.6759
   58MOL0     C 7581   1.351   2.285   9.909  0.5459 -0.0505  0.3483
   58MOL0     O 7582   1.320   2.251  10.035 -0.5362 -0.4141  0.0385
   58MOL0     C 7583   1.417   2.237  10.139  0.6816 -0.0593  0.8046
   58MOL0     C 7584   1.384   2.329  10.247 -0.0961 -0.7558 -0.5622
   58MOL0     C 7585   1.250   2.287  10.322 -1.1523 -0.4577 -0.3692
   58MOL0     C 7586   1.141   2.398  10.320 -1.2085 -0.0772  0.4890
   58MOL0     C 7587   1.196   2.522  10.371 -0.1278  0.0187 -0.6938
   58MOL0     C 7588   1.223   2.630  10.414 -0.3890 -0.3954  0.4818
   58MOL0     C 7589   1.464   2.250   9.843 -0.0105 -0.9195  0.7557
   58MOL0     C 7590   1.483   2.281   9.710 -0.1511  0.5224  0.5366
   58MOL0     H 7591   1.294   2.747   9.340  1.1070 -0.3499  1.3196
   58MOL0     H 7592   1.269   2.803   9.111 -0.0756 -0.6954  0.6617
   58MOL0     H 7593   1.303   2.481   8.824  0.6256  0.1739 -0.0363
   58MOL0     H 7594   1.349   2.610   8.723  1.6113 -3.0292 -0.7464
   58MOL0     H 7595   1.116   2.676   8.698 -2.1522 -0.5669  0.6763
   58MOL0     H 7596   1.144   2.722   8.861  1.7036  0.1459 -0.1846
   58MOL0     H 7597   1.055   2.490   8.944 -0.2253  1.3006  0.0387
   58MOL0     H 7598   1.060   2.435   8.783 -1.7571 -0.1051  0.4703
   58MOL0     H 7599   0.887   2.662   8.880  1.0948 -1.1563  1.3012
   58MOL0     H 7600   0.907   2.614   8.713 -1.3339  0.6262  0.5024
   58MOL0     H 7601   0.817   2.424   8.947  1.2800  3.9764  0.9413
   58MOL0     H 7602   0.808   2.375   8.779 -0.8515 -0.5823  0.7167
   58MOL0     H 7603   0.648   2.572   8.730 -4.6439 -1.1972 -1.3302
   58MOL0     H 7604   0.635   2.613   8.892 -0.3487  1.4690 -0.9853
   58MOL0     H 7605   0.437   2.470   8.805  0.3076  1.6745 -0.1219
   58MOL0     H 7606   0.542   2.338   8.793  1.2635  1.4424 -2.1642
   58MOL0     H 7607   0.488   2.467   9.075 -0.2908 -1.1087  1.1619
   58MOL0     H 7608   0.611   2.356   9.043 -1.7186 -2.0758  1.6393
   58MOL0     H 7609   0.297   2.303   9.208 -2.4713  1.9965 -1.0741
   58MOL0     H 7610   0.062   2.111   9.121 -0.8243  2.3593  3.4695
   58MOL0     H 7611   0.171   2.124   9.265  2.4058  0.4029 -1.2287
   58MOL0     H 7612   0.173   1.886   9.085 -2.5861  1.9050 -0.1545
   58MOL0     H 7613   0.114   1.884   9.251 -0.8460  0.5290 -1.1064
   58MOL0     H 7614   0.331   1.804   9.257 -1.2350  0.0603  0.4731
   58MOL0     H 7615   0.409   1.937   9.206 -0.1102 -0.7677  0.4791
   58MOL0     H 7616   0.308   2.071   9.399  1.1508 -0.0712  4.1951
   58MOL0     H 7617   0.433   1.957   9.435  0.5182  0.1773 -1.7887
   58MOL0     H 7618   0.131   2.087   9.630 -0.7552  2.5524  3.3817
   58MOL0     H 7619   0.206   2.181   9.852  0.2248  0.8759 -0.8658
   58MOL0     H 7620   0.328   1.917  10.291  0.7066  1.0244 -1.9582
   58MOL0     H 7621   0.394   1.960  10.532 -1.2075  1.9275  0.3005
   58MOL0     H 7622   0.614   1.912  10.703 -0.2374 -0.1460 -2.0478
   58MOL0     H 7623   0.517   2.062  10.750 -2.1010 -3.7395 -1.3737
   58MOL0     H 7624   0.814   2.017  10.816 -2.6881 -4.7478 -0.5961
   58MOL0     H 7625   0.667   2.019  10.927 -0.9536  1.1016 -0.2410
   58MOL0     H 7626   0.759   2.272  10.769 -1.9274  1.0387  0.5949
   58MOL0     H 7627   0.832   2.212  10.920  0.6277  0.3159 -1.0191
   58MOL0     H 7628   0.633   2.391  10.948  1.4845 -0.1784  0.7265
   58MOL0     H 7629   0.537   2.288  10.868  1.3175  4.4927 -2.7521
   58MOL0     H 7630   0.685   2.193  11.117 -0.3718 -2.6624  0.3310
   58MOL0     H 7631   0.537   2.121  11.043 -0.8654  0.2900 -1.4748
   58MOL0     H 7632   0.408   2.319  11.141 -2.1678 -2.7506  5.6942
   58MOL0     H 7633   0.575   2.368  11.199  1.4779 -1.4652  2.2406
   58MOL0     H 7634   0.427   2.110  11.269 -0.1629 -0.6865  0.3804
   58MOL0     H 7635   0.574   2.186  11.333 -0.4298  0.0143 -1.8296
   58MOL0     H 7636   0.352   2.204  11.465  1.7928  2.5373  3.8303
   58MOL0     H 7637   0.297   2.321  11.341  1.2445  2.1288 -0.4377
   58MOL0     H 7638   0.772   2.102  10.385 -1.5152  0.7624  6.1819
   58MOL0     H 7639   0.707   2.059  10.155 -1.2352  2.4293 -0.9430
   58MOL0     H 7640   0.447   1.809   9.881 -2.8640 -1.1226  3.1454
   58MOL0     H 7641   0.390   1.758   9.648  0.0712  0.9521 -1.4644
   58MOL0     H 7642   1.393   2.407   9.015  2.2905  0.6980 -1.0246
   58MOL0     H 7643   1.376   2.332   9.234  0.6170  0.2370  0.6848
   58MOL0     H 7644   1.217   2.484   9.659 -0.0877  1.7330  2.3998
   58MOL0     H 7645   1.165   2.380   9.890 -1.1817 -0.9989 -1.7761
   58MOL0     H 7646   1.514   2.270  10.099 -0.3326  1.4468 -0.5545
   58MOL0     H 7647   1.433   2.138  10.182 -0.5425  0.7435  3.2627
   58MOL0     H 7648   1.466   2.334  10.320 -1.2252  2.4019  0.6246
   58MOL0     H 7649   1.378   2.422  10.190  1.1901 -0.5806 -0.4442
   58MOL0     H 7650   1.281   2.266  10.425 -0.9165 -1.8633 -0.7095
   58MOL0     H 7651   1.214   2.190  10.285  0.7455 -0.6297 -1.9667
   58MOL0     H 7652   1.097   2.411  10.221 -1.5632 -2.6509  0.2425
   58MOL0     H 7653   1.064   2.367  10.391 -1.5275 -1.7982 -0.5564
   58MOL0     H 7654   1.228   2.731  10.450 -2.3193 -0.0516 -0.1051
   58MOL0     H 7655   1.540   2.185   9.886  1.6119  0.9603  0.8725
   58MOL0     H 7656   1.574   2.255   9.657  1.8405  0.1951  3.8541
   59MOL0     O 7657   1.694   4.298   9.958  0.5667  0.0378 -0.1944
   59MOL0     C 7658   1.638   4.204  10.012  1.1848 -0.4489  0.5575
   59MOL0     O 7659   1.614   4.183  10.138 -0.5539  0.0781 -0.9321
   59MOL0     C 7660   1.651   4.279  10.228 -0.3696 -1.0608  0.0152
   59MOL0     C 7661   1.613   4.410  10.230 -0.7082 -0.9249 -0.3815
   59MOL0     C 7662   1.671   4.506  10.316  0.1655  0.1917  0.0481
   59MOL0     C 7663   1.765   4.469  10.411  0.6347  0.0166 -0.8051
   59MOL0     O 7664   1.796   4.565  10.508  0.1134 -0.0722  0.9324
   59MOL0     C 7665   1.926   4.546  10.585  1.0547  0.7439  0.4630
   59MOL0     C 7666   1.889   4.516  10.732 -0.2387 -0.0804  0.6416
   59MOL0     C 7667   1.774   4.604  10.775  0.1295 -0.4375  0.3263
   59MOL0     C 7668   1.771   4.619  10.924  0.9835  0.9543 -0.6403
   59MOL0     C 7669   1.662   4.710  10.987 -0.1346 -0.3535 -0.1774
   59MOL0     C 7670   1.521   4.673  10.938  0.2777 -1.0471 -0.2099
   59MOL0     C 7671   1.482   4.539  10.990  0.4988 -0.0405 -0.4568
   59MOL0     C 7672   1.333   4.520  11.006  0.5822  0.3691  0.5787
   59MOL0     N 7673   1.307   4.406  11.098 -0.6905 -0.3323  0.6073
   59MOL0     C 7674   1.272   4.411  11.232  0.1533  0.8522 -0.4930
   59MOL0     C 7675   1.252   4.275  11.261 -0.1054 -0.1362 -0.0415
   59MOL0     C 7676   1.204   4.210  11.386 -0.0826 -0.4896  0.4508
   59MOL0     C 7677   1.055   4.184  11.402 -0.8613 -0.4402 -0.2752
   59MOL0     C 7678   0.994   4.094  11.290 -0.4362 -0.4335  0.5056
   59MOL0     C 7679   1.062   3.954  11.283 -0.5195  0.5748  0.4230
   59MOL0     O 7680   0.964   3.873  11.228  0.2964  1.2960 -0.6881
   59MOL0     C 7681   0.971   3.743  11.234  0.2630  0.1879  0.0847
   59MOL0     C 7682   1.094   3.675  11.261  0.2224 -0.2123  0.0021
   59MOL0     C 7683   1.104   3.537  11.254  0.3473 -0.6898 -0.3175
   59MOL0     C 7684   0.984   3.465  11.260  0.0287  0.5715  0.2893
   59MOL0     C 7685   0.993   3.324  11.288  1.2335 -0.1890  1.0149
   59MOL0     O 7686   1.111   3.273  11.324 -0.2995 -0.2507 -0.2814
   59MOL0     C 7687   1.126   3.141  11.347 -1.6060  0.4031  0.0679
   59MOL0     C 7688   1.040   3.032  11.378  0.1612 -0.1095 -0.1587
   59MOL0     C 7689   1.095   2.904  11.384  0.8791  0.3202  0.3605
   59MOL0     C 7690   1.228   2.876  11.345 -0.4350  1.2519  0.4696
   59MOL0     O 7691   1.270   2.745  11.328  0.3084  1.4894 -0.1217
   59MOL0     C 7692   1.198   2.675  11.225  0.6230 -0.0313 -0.6065
   59MOL0     C 7693   1.216   2.749  11.099  0.9474  0.8194  0.3158
   59MOL0     C 7694   1.150   2.678  10.984  0.3459  0.1051  0.1786
   59MOL0     C 7695   1.254   2.624  10.885 -0.0821  0.2470 -0.9440
   59MOL0     C 7696   1.191   2.530  10.769  0.6540 -0.7349 -0.5638
   59MOL0     C 7697   1.139   2.388  10.803  0.9233  0.6086 -0.6367
   59MOL0     C 7698   1.127   2.306  10.676  0.1312 -0.2866  1.0633
   59MOL0     C 7699   1.158   2.164  10.692 -0.2125  0.2727 -0.5345
   59MOL0    Cl 7700   1.146   2.063  10.545 -0.0475  0.0743  0.9944
   59MOL0     C 7701   1.313   2.979  11.328 -0.7011  0.8942  0.4239
   59MOL0     C 7702   1.266   3.111  11.324 -0.6203 -0.0921 -0.5245
   59MOL0     O 7703   0.890   3.261  11.250  0.2569  0.2382  0.6237
   59MOL0     C 7704   0.857   3.530  11.239  0.1395 -0.4164  0.9268
   59MOL0     C 7705   0.853   3.666  11.213 -0.3795  0.2584 -0.0452
   59MOL0     N 7706   1.279   4.198  11.144 -0.9385 -0.2653  0.5370
   59MOL0     N 7707   1.307   4.286  11.044  0.3059  0.5033 -0.0724
   59MOL0     C 7708   1.815   4.337  10.419  0.6573  0.3637 -0.7799
   59MOL0     C 7709   1.762   4.248  10.318 -0.1205 -0.1821 -0.3876
   59MOL0     C 7710   1.616   4.097   9.908  1.1459  0.0738 -0.0663
   59MOL0     C 7711   1.594   3.967   9.944 -0.6935  0.1357 -0.7160
   59MOL0     C 7712   1.558   3.872   9.854 -0.2799  0.9525 -0.8298
   59MOL0     C 7713   1.539   3.904   9.719  0.0466  0.3885  0.7324
   59MOL0     O 7714   1.511   3.809   9.624 -0.3248  0.3207 -0.5854
   59MOL0     C 7715   1.608   3.770   9.526 -0.1880 -0.2020  0.3483
   59MOL0     C 7716   1.565   3.832   9.394 -0.4089  0.5667 -0.1201
   59MOL0     C 7717   1.668   3.832   9.285 -0.3030  0.1310  0.7439
   59MOL0     C 7718   1.746   3.962   9.253  0.6382  0.1543 -0.0155
   59MOL0     C 7719   1.822   4.011   9.370  1.4297  0.0286  0.9222
   59MOL0     C 7720   1.889   4.046   9.466 -0.6032  0.1525  1.0034
   59MOL0     C 7721   1.565   4.033   9.675  0.1303  0.0653 -0.1842
   59MOL0     C 7722   1.603   4.123   9.775  0.6418 -0.6531  0.7137
   59MOL0     H 7723   1.545   4.452  10.157  0.9732  0.9945 -0.9470
   59MOL0     H 7724   1.647   4.612  10.307 -1.9030 -0.1618  0.9407
   59MOL0     H 7725   1.980   4.640  10.565 -1.2639  1.7854 -1.3709
   59MOL0     H 7726   1.981   4.461  10.543 -0.4173 -3.1194  5.4516
   59MOL0     H 7727   1.977   4.530  10.794 -0.3624  1.3201  0.5365
   59MOL0     H 7728   1.844   4.417  10.735 -0.0948 -0.2459 -1.3331
   59MOL0     H 7729   1.678   4.563  10.743  1.5254 -0.8646 -3.8348
   59MOL0     H 7730   1.788   4.698  10.720 -0.0623 -1.8738 -2.3202
   59MOL0     H 7731   1.751   4.514  10.949 -1.4234  0.2940 -4.4890
   59MOL0     H 7732   1.875   4.640  10.952  0.8294 -0.7833  1.4919
   59MOL0     H 7733   1.684   4.806  10.939  1.3515 -0.8531 -0.5425
   59MOL0     H 7734   1.654   4.714  11.096 -1.7969  2.0473 -0.2968
   59MOL0     H 7735   1.503   4.674  10.830 -0.0796  0.3021 -0.1474
   59MOL0     H 7736   1.458   4.750  10.983  0.1237 -0.2837 -1.6673
   59MOL0     H 7737   1.529   4.471  10.919  1.1688 -1.3044  1.1360
   59MOL0     H 7738   1.518   4.522  11.092 -0.2135  3.7296  0.5593
   59MOL0     H 7739   1.290   4.494  10.909 -0.5718 -0.4043  1.2878
   59MOL0     H 7740   1.279   4.607  11.045 -2.3365 -1.3513  0.6311
   59MOL0     H 7741   1.264   4.498  11.297 -1.1019  1.5464 -1.5264
   59MOL0     H 7742   1.232   4.273  11.471 -3.4023  2.1135 -0.1791
   59MOL0     H 7743   1.267   4.120  11.396  2.0763  0.8531 -0.3332
   59MOL0     H 7744   1.014   4.285  11.400  1.3143  0.4873 -0.3681
   59MOL0     H 7745   1.042   4.132  11.497  0.7333 -3.6522 -1.6806
   59MOL0     H 7746   0.886   4.077  11.295 -0.0271 -3.8206  0.2059
   59MOL0     H 7747   1.008   4.147  11.196  0.5207 -1.9329 -0.2324
   59MOL0     H 7748   1.088   3.929  11.386  2.8189  1.3414 -0.1261
   59MOL0     H 7749   1.154   3.958  11.224 -0.5966  1.6538  0.3499
   59MOL0     H 7750   1.180   3.738  11.286  0.4740 -0.2257 -0.7878
   59MOL0     H 7751   1.203   3.494  11.259  1.4517  1.7005 -0.2101
   59MOL0     H 7752   0.942   3.053  11.419  0.6219 -0.8486  1.4114
   59MOL0     H 7753   1.017   2.831  11.404 -2.8039  3.5146 -1.1180
   59MOL0     H 7754   1.093   2.669  11.254  1.5871 -2.3781  3.1547
   59MOL0     H 7755   1.233   2.571  11.220  0.3465 -0.1878  0.4470
   59MOL0     H 7756   1.317   2.784  11.074  1.3437 -0.0235  0.6905
   59MOL0     H 7757   1.155   2.840  11.105 -3.4924 -1.6830 -2.0723
   59MOL0     H 7758   1.105   2.749  10.914 -1.1173 -1.2887 -0.3773
   59MOL0     H 7759   1.063   2.617  11.010 -3.6088  4.0664 -2.3979
   59MOL0     H 7760   1.302   2.708  10.833  1.5247  0.1899  0.3686
   59MOL0     H 7761   1.336   2.576  10.940 -0.9215  0.4372  0.5055
   59MOL0     H 7762   1.276   2.517  10.703 -0.2810 -1.1971 -1.7133
   59MOL0     H 7763   1.111   2.588  10.721 -1.4083 -2.9123  0.0495
   59MOL0     H 7764   1.043   2.401  10.855  1.5741 -1.1696  1.1530
   59MOL0     H 7765   1.199   2.342  10.883  0.2869 -0.4054 -0.7208
   59MOL0     H 7766   1.026   2.307  10.634  0.3867  1.5155  0.3623
   59MOL0     H 7767   1.190   2.356  10.602 -1.1805  2.7780  1.8178
   59MOL0     H 7768   1.091   2.123  10.767 -0.7010  2.6594  0.4453
   59MOL0     H 7769   1.262   2.152  10.723 -0.6989 -3.2980  0.0848
   59MOL0     H 7770   1.415   2.957  11.302 -1.6697 -4.2834 -0.0404
   59MOL0     H 7771   1.340   3.190  11.311  0.3346 -0.6578  1.1612
   59MOL0     H 7772   0.763   3.476  11.247  0.4146 -1.8636 -3.2731
   59MOL0     H 7773   0.758   3.716  11.200  1.4599  3.5844 -2.3484
   59MOL0     H 7774   1.892   4.293  10.483 -2.5278 -4.0522  0.5600
   59MOL0     H 7775   1.804   4.148  10.310  1.7284  0.4344  0.9042
   59MOL0     H 7776   1.604   3.941  10.049 -1.2562  1.5089 -0.2929
   59MOL0     H 7777   1.542   3.773   9.896  1.3620  2.3190  3.5059
   59MOL0     H 7778   1.601   3.661   9.532  1.2780 -0.3562 -0.2547
   59MOL0     H 7779   1.710   3.806   9.546 -0.2120  0.4296 -0.6237
   59MOL0     H 7780   1.471   3.783   9.365  0.0702 -0.1386 -0.4978
   59MOL0     H 7781   1.541   3.939   9.406  0.5764  0.5990  1.7686
   59MOL0     H 7782   1.623   3.827   9.185 -1.7289  3.3215  1.1007
   59MOL0     H 7783   1.720   3.737   9.281 -2.3953 -1.0558 -1.2736
   59MOL0     H 7784   1.811   3.951   9.166  1.4793  0.3547  0.5671
   59MOL0     H 7785   1.681   4.045   9.225  1.2648  1.3917  1.9901
   59MOL0     H 7786   1.957   4.082   9.541 -0.2714  2.7594 -0.4185
   59MOL0     H 7787   1.541   4.068   9.575 -2.2565 -0.8319  0.0103
   59MOL0     H 7788   1.619   4.227   9.747  1.7513 -0.2251  2.7572
   60MOL0     O 7789   2.214   2.167   7.013  0.4819  0.2631  0.5922
   60MOL0     C 7790   2.156   2.152   7.121 -0.6688  1.0452  0.3432
   60MOL0     O 7791   2.196   2.219   7.238 -0.5581  0.4189 -0.2339
   60MOL0     C 7792   2.318   2.285   7.239  0.6139  0.5274  0.8463
   60MOL0     C 7793   2.339   2.410   7.284  0.1885 -0.7378  0.2317
   60MOL0     C 7794   2.471   2.464   7.308  1.2715 -1.0887  1.3112
   60MOL0     C 7795   2.586   2.389   7.269  0.8220 -1.1850 -0.8072
   60MOL0     O 7796   2.711   2.438   7.281 -0.0455  0.4946  0.1200
   60MOL0     C 7797   2.733   2.556   7.361  0.5993  0.4978 -0.7515
   60MOL0     C 7798   2.728   2.515   7.522 -0.3473 -0.1067  0.3061
   60MOL0     C 7799   2.775   2.634   7.627 -0.3260 -0.0947  0.2504
   60MOL0     C 7800   2.781   2.572   7.760  0.4119 -0.1915  0.4419
   60MOL0     C 7801   2.785   2.684   7.863 -0.0971  0.4248  0.0480
   60MOL0     C 7802   2.759   2.631   8.003  0.2929  0.4452 -0.3592
   60MOL0     C 7803   2.788   2.730   8.117  0.4760 -0.3652 -0.6816
   60MOL0     C 7804   2.767   2.671   8.248  0.9559 -1.2682 -0.0086
   60MOL0     N 7805   2.627   2.672   8.293 -0.3491 -0.7511 -0.0869
   60MOL0     C 7806   2.534   2.567   8.313 -0.0701  0.1589 -0.8974
   60MOL0     C 7807   2.418   2.626   8.345 -0.5661  0.0881 -0.1043
   60MOL0     C 7808   2.289   2.552   8.368  0.0462  0.4004  0.4424
   60MOL0     C 7809   2.305   2.394   8.364 -0.5478  0.6475  0.1303
   60MOL0     C 7810   2.307   2.342   8.216  0.4499  0.0660 -0.4781
   60MOL0     C 7811   2.293   2.187   8.210 -0.7506  0.2857  0.1549
   60MOL0     O 7812   2.403   2.134   8.297  0.0688  0.4444 -0.2413
   60MOL0     C 7813   2.455   2.010   8.273  0.6948 -0.3549 -0.1080
   60MOL0     C 7814   2.409   1.923   8.164 -0.4988 -1.0689 -0.4672
   60MOL0     C 7815   2.450   1.793   8.156 -0.0039 -0.2317 -0.4175
   60MOL0     C 7816   2.545   1.738   8.248 -0.0640 -0.5890 -0.3675
   60MOL0     C 7817   2.605   1.604   8.236 -0.1157  0.6812  0.1293
   60MOL0     O 7818   2.682   1.558   8.345  0.3055  0.6791 -0.4682
   60MOL0     C 7819   2.766   1.455   8.326 -0.5855  1.9013  0.0257
   60MOL0     C 7820   2.716   1.325   8.339 -0.9440 -0.5317 -0.4857
   60MOL0     C 7821   2.808   1.214   8.327  0.5336  0.3938 -0.6302
   60MOL0     C 7822   2.933   1.229   8.281 -0.1504  0.4307  0.4623
   60MOL0     O 7823   3.013   1.116   8.263  0.0061 -0.3116 -0.0646
   60MOL0     C 7824   3.115   1.117   8.155  0.3084  0.2527 -0.1499
   60MOL0     C 7825   3.121   0.978   8.085 -0.1663 -0.2496  0.1662
   60MOL0     C 7826   3.223   0.985   7.974 -0.0144  0.9886 -0.0966
   60MOL0     C 7827   3.155   1.015   7.842 -0.1959 -0.6169  0.2408
   60MOL0     C 7828   3.240   1.012   7.727  0.5573  0.3585  0.1322
   60MOL0     C 7829   3.292   0.869   7.696  0.0154  0.2592  0.4498
   60MOL0     C 7830   3.451   0.855   7.730 -0.3982 -0.6943  0.3926
   60MOL0     C 7831   3.520   0.729   7.683  0.2816  0.0774 -0.3753
   60MOL0    Cl 7832   3.618   0.649   7.802 -0.3007 -0.5030 -0.8068
   60MOL0     C 7833   2.974   1.361   8.247 -0.1178 -0.3094 -0.2856
   60MOL0     C 7834   2.895   1.470   8.277 -0.3597  0.1339 -0.3315
   60MOL0     O 7835   2.583   1.544   8.130  0.3820 -0.0573  0.0026
   60MOL0     C 7836   2.598   1.823   8.355  0.0129 -0.3384  0.6163
   60MOL0     C 7837   2.549   1.955   8.369 -0.4833  0.1079  0.5042
   60MOL0     N 7838   2.427   2.761   8.344 -0.9043 -0.0423  0.4612
   60MOL0     N 7839   2.546   2.784   8.302 -0.1403 -0.4695  0.4736
   60MOL0     C 7840   2.567   2.265   7.223  0.7140  0.0092  0.5633
   60MOL0     C 7841   2.430   2.213   7.201 -0.9700  0.1888  0.8959
   60MOL0     C 7842   2.037   2.069   7.125 -0.3439  0.4591  0.0941
   60MOL0     C 7843   2.001   1.989   7.017  0.8388  0.2378  0.2313
   60MOL0     C 7844   1.885   1.918   7.011 -0.4041 -0.3448 -0.6332
   60MOL0     C 7845   1.800   1.915   7.125  0.7076 -0.7310 -0.2282
   60MOL0     O 7846   1.689   1.835   7.144  1.4577 -0.1850  0.1519
   60MOL0     C 7847   1.675   1.725   7.051  0.6050 -0.6195 -0.2944
   60MOL0     C 7848   1.581   1.756   6.937 -0.2350  0.4520  0.0949
   60MOL0     C 7849   1.557   1.638   6.850  0.5263 -0.5861 -0.5340
   60MOL0     C 7850   1.443   1.650   6.753  0.8585 -1.1319  0.2328
   60MOL0     C 7851   1.312   1.657   6.816 -0.8876 -0.1422  0.6144
   60MOL0     C 7852   1.200   1.676   6.860 -0.6433 -0.1459 -0.2374
   60MOL0     C 7853   1.834   2.006   7.234  0.4833 -0.1446 -0.0179
   60MOL0     C 7854   1.945   2.081   7.229  0.8784  0.3297 -1.2588
   60MOL0     H 7855   2.258   2.472   7.320 -0.7048 -1.0817 -1.1001
   60MOL0     H 7856   2.471   2.571   7.329 -1.3823 -1.1223  1.7740
   60MOL0     H 7857   2.660   2.633   7.332 -0.9858 -1.0853 -1.1298
   60MOL0     H 7858   2.834   2.596   7.351  0.1207  1.8694 -0.4196
   60MOL0     H 7859   2.800   2.432   7.530  1.4449  1.1899 -1.3239
   60MOL0     H 7860   2.629   2.478   7.551 -0.0914 -2.0326 -1.0352
   60MOL0     H 7861   2.708   2.720   7.615  3.6666  3.8225  2.9249
   60MOL0     H 7862   2.877   2.664   7.604  0.6316 -1.3852  2.4974
   60MOL0     H 7863   2.686   2.521   7.778 -0.9312  2.9708  3.4983
   60MOL0     H 7864   2.869   2.511   7.780  1.5181  0.2864 -2.3878
   60MOL0     H 7865   2.708   2.756   7.833 -0.7795 -0.2234  0.2124
   60MOL0     H 7866   2.880   2.738   7.859 -0.4222  0.9225 -2.1433
   60MOL0     H 7867   2.808   2.534   8.020 -4.9576 -2.4619  0.4837
   60MOL0     H 7868   2.654   2.607   8.018  0.4619  1.5612  4.0221
   60MOL0     H 7869   2.894   2.755   8.109  0.2453  0.7778 -0.3518
   60MOL0     H 7870   2.730   2.821   8.098 -0.9156 -2.0351 -6.2138
   60MOL0     H 7871   2.811   2.729   8.330  2.3342 -1.7415 -0.3721
   60MOL0     H 7872   2.817   2.575   8.263  1.1621 -1.0552  0.7150
   60MOL0     H 7873   2.559   2.462   8.310  0.3584  0.2134  0.2367
   60MOL0     H 7874   2.208   2.571   8.297  0.2162  0.5688  0.2926
   60MOL0     H 7875   2.268   2.590   8.468  0.2088  3.1324 -0.4601
   60MOL0     H 7876   2.225   2.341   8.418  0.4378 -0.7344  0.2882
   60MOL0     H 7877   2.399   2.363   8.409 -0.2388  0.3431 -0.7048
   60MOL0     H 7878   2.218   2.382   8.166 -0.7160  0.0438  1.4664
   60MOL0     H 7879   2.395   2.383   8.165  0.5701 -0.1667 -0.4596
   60MOL0     H 7880   2.301   2.160   8.105 -0.4518 -2.9652  0.8974
   60MOL0     H 7881   2.197   2.154   8.252  1.2751 -1.1152  4.2849
   60MOL0     H 7882   2.320   1.943   8.105  0.1324  3.1249 -0.3127
   60MOL0     H 7883   2.411   1.729   8.077 -1.1999 -0.0269 -0.0164
   60MOL0     H 7884   2.616   1.310   8.377 -0.9277  1.1525  0.2703
   60MOL0     H 7885   2.758   1.119   8.344 -0.3233  0.5845 -1.9043
   60MOL0     H 7886   3.208   1.156   8.195 -1.2321  0.4152  3.7167
   60MOL0     H 7887   3.104   1.193   8.077 -2.2599 -1.9316 -2.1663
   60MOL0     H 7888   3.024   0.950   8.044 -2.7844  4.7119  2.0988
   60MOL0     H 7889   3.160   0.910   8.162  0.4366  0.2192  0.2825
   60MOL0     H 7890   3.265   0.884   7.970  2.0042  1.8268 -1.7644
   60MOL0     H 7891   3.300   1.059   7.999  3.1851 -1.8319 -0.8038
   60MOL0     H 7892   3.070   0.947   7.833  0.3923 -1.6671  2.0442
   60MOL0     H 7893   3.115   1.114   7.865 -2.9208 -1.5433 -0.1669
   60MOL0     H 7894   3.328   1.074   7.746  2.4283 -2.1031 -0.0645
   60MOL0     H 7895   3.186   1.037   7.635 -2.5136 -0.3787  1.5963
   60MOL0     H 7896   3.270   0.859   7.589 -2.9504  3.4000  0.5721
   60MOL0     H 7897   3.232   0.787   7.738  0.0252 -2.8429 -4.6620
   60MOL0     H 7898   3.512   0.934   7.684  1.4722 -2.8674 -1.1073
   60MOL0     H 7899   3.460   0.876   7.837  0.6719  3.3878 -0.3180
   60MOL0     H 7900   3.574   0.735   7.588 -0.9756 -0.9625 -1.1770
   60MOL0     H 7901   3.438   0.661   7.662 -0.1821  0.5347 -0.0727
   60MOL0     H 7902   3.075   1.388   8.218 -0.1130  0.8857  0.7683
   60MOL0     H 7903   2.928   1.571   8.254 -5.0353  2.1487  0.7173
   60MOL0     H 7904   2.660   1.774   8.429  0.9027 -0.6190 -0.2926
   60MOL0     H 7905   2.576   2.011   8.459 -0.6125 -1.5126  1.5927
   60MOL0     H 7906   2.647   2.200   7.188 -0.9951 -1.5853 -0.5205
   60MOL0     H 7907   2.413   2.112   7.163  1.9019 -0.0308  0.0001
   60MOL0     H 7908   2.051   1.985   6.921 -0.0147 -1.0204 -0.1785
   60MOL0     H 7909   1.858   1.852   6.929 -3.9731 -1.6943  1.3972
   60MOL0     H 7910   1.615   1.653   7.108 -2.2875  1.4239 -0.5095
   60MOL0     H 7911   1.776   1.695   7.023  0.4097 -0.3963 -1.2774
   60MOL0     H 7912   1.489   1.797   6.980 -0.0809  1.3242 -0.3930
   60MOL0     H 7913   1.617   1.841   6.878 -1.5265  2.5023  2.1179
   60MOL0     H 7914   1.532   1.557   6.919  1.0468  0.7644  1.3278
   60MOL0     H 7915   1.643   1.611   6.789  0.5658 -3.3047  0.5719
   60MOL0     H 7916   1.473   1.735   6.692 -1.8512 -1.5878 -1.9801
   60MOL0     H 7917   1.443   1.570   6.678  1.8093  0.6403 -1.7500
   60MOL0     H 7918   1.106   1.696   6.907  0.4599  2.3325  1.0799
   60MOL0     H 7919   1.765   1.990   7.317 -0.1336 -0.8541 -0.6599
   60MOL0     H 7920   1.946   2.157   7.307 -2.8355  1.9237 -2.5003
   61MOL0     O 7921   4.143   4.506   6.172  0.2481  0.4755  0.0014
   61MOL0     C 7922   4.208   4.453   6.259  0.6277 -0.9007  0.0129
   61MOL0     O 7923   4.154   4.404   6.376  0.6094 -0.3793  0.4586
   61MOL0     C 7924   4.022   4.439   6.421 -0.1718  0.0311 -0.8943
   61MOL0     C 7925   3.925   4.333   6.438 -0.2435 -0.3306  0.1235
   61MOL0     C 7926   3.790   4.362   6.467 -0.2468  0.6249  0.0871
   61MOL0     C 7927   3.755   4.492   6.494  0.9687 -0.0449 -0.6518
   61MOL0     O 7928   3.630   4.518   6.546 -0.6476 -0.4111  0.8782
   61MOL0     C 7929   3.527   4.412   6.549 -1.0243 -1.0260 -0.6622
   61MOL0     C 7930   3.397   4.482   6.604 -0.6856 -0.7723  0.1250
   61MOL0     C 7931   3.414   4.489   6.758  1.0899 -0.2664 -0.5062
   61MOL0     C 7932   3.275   4.517   6.828  0.0080 -0.1827  1.0716
   61MOL0     C 7933   3.277   4.505   6.975  0.6297 -0.4387  0.0352
   61MOL0     C 7934   3.264   4.354   7.008  0.1116 -0.3145  0.0813
   61MOL0     C 7935   3.281   4.325   7.158  0.1930  0.1671  0.6968
   61MOL0     C 7936   3.150   4.343   7.240 -0.9016 -0.5709  0.0407
   61MOL0     N 7937   3.061   4.230   7.228 -0.1101 -0.1419 -0.2425
   61MOL0     C 7938   2.927   4.227   7.207  0.9010 -0.1602 -0.6160
   61MOL0     C 7939   2.879   4.101   7.206  0.3829 -0.1640  1.3198
   61MOL0     C 7940   2.735   4.056   7.204 -0.9089  0.0483  1.5105
   61MOL0     C 7941   2.681   4.028   7.338  1.0872 -0.3347  0.0841
   61MOL0     C 7942   2.729   4.125   7.448 -0.1328 -0.6908  0.0096
   61MOL0     C 7943   2.654   4.125   7.576 -0.1044 -0.1384 -0.6416
   61MOL0     O 7944   2.511   4.120   7.559 -0.2399 -0.4552 -0.2834
   61MOL0     C 7945   2.440   4.134   7.674  0.4007 -0.5913  0.9570
   61MOL0     C 7946   2.493   4.167   7.801  0.3024 -0.1238  0.0584
   61MOL0     C 7947   2.416   4.158   7.907  0.3800  0.7544  0.5606
   61MOL0     C 7948   2.284   4.117   7.905  0.9207  1.2209 -0.3259
   61MOL0     C 7949   2.211   4.094   8.032  0.6461 -1.1111  0.2981
   61MOL0     O 7950   2.285   4.094   8.147 -0.0454 -0.3165 -0.2651
   61MOL0     C 7951   2.237   4.086   8.275  0.2568 -0.1150  0.6348
   61MOL0     C 7952   2.101   4.096   8.314  0.0949  0.2097  0.4850
   61MOL0     C 7953   2.062   4.105   8.449 -0.4488 -0.4100 -0.2385
   61MOL0     C 7954   2.162   4.098   8.553  0.1497  0.2863 -0.2196
   61MOL0     O 7955   2.133   4.080   8.688  0.1874  0.7584  0.5713
   61MOL0     C 7956   2.007   4.118   8.758 -0.8619 -0.3501  0.0711
   61MOL0     C 7957   1.899   4.015   8.734  0.2355  0.0268 -0.6839
   61MOL0     C 7958   1.770   4.047   8.810  0.1631  0.2893  0.3239
   61MOL0     C 7959   1.680   3.933   8.843  0.0253  0.9241 -1.0031
   61MOL0     C 7960   1.530   3.966   8.835  0.4273 -1.0807  0.2313
   61MOL0     C 7961   1.455   3.845   8.891  0.3620  0.7383 -0.2048
   61MOL0     C 7962   1.303   3.865   8.892 -1.7275 -0.7780 -0.2234
   61MOL0     C 7963   1.242   3.726   8.925  0.5438 -0.9828 -0.2125
   61MOL0    Cl 7964   1.278   3.663   9.097 -0.4584  0.0035 -0.1009
   61MOL0     C 7965   2.295   4.089   8.511 -0.9064  0.1777 -0.1746
   61MOL0     C 7966   2.334   4.076   8.377  0.4374 -0.5267 -0.1407
   61MOL0     O 7967   2.087   4.058   8.024 -0.4393 -0.5979  0.0773
   61MOL0     C 7968   2.225   4.116   7.776  0.0889 -0.2835 -0.1069
   61MOL0     C 7969   2.307   4.125   7.662  0.2822  0.3415  0.4104
   61MOL0     N 7970   2.991   4.027   7.208  0.4196 -0.7650 -0.4587
   61MOL0     N 7971   3.101   4.099   7.225 -0.1481  0.7067  0.6213
   61MOL0     C 7972   3.844   4.594   6.488  0.5314 -0.0652 -0.2628
   61MOL0     C 7973   3.973   4.572   6.442 -0.8816 -0.3817  0.6035
   61MOL0     C 7974   4.358   4.436   6.240 -0.1046 -0.2605  0.5831
   61MOL0     C 7975   4.416   4.465   6.113 -0.2328 -0.2494 -0.1788
   61MOL0     C 7976   4.550   4.448   6.096  0.7629  0.5574 -0.8170
   61MOL0     C 7977   4.637   4.419   6.199  0.5158  0.3167 -0.8291
   61MOL0     O 7978   4.768   4.401   6.166 -0.4696  0.1930  0.2547
   61MOL0     C 7979   4.857   4.333   6.252 -0.0245 -0.2636  0.3151
   61MOL0     C 7980   4.997   4.388   6.229  0.0540  0.1534  0.3314
   61MOL0     C 7981   5.108   4.327   6.327 -0.1041 -0.3488  0.1899
   61MOL0     C 7982   5.258   4.369   6.307 -0.7173  0.4603  1.1635
   61MOL0     C 7983   5.266   4.512   6.319  1.4059 -0.6134  0.8568
   61MOL0     C 7984   5.278   4.634   6.316  0.6145 -0.8258  0.6204
   61MOL0     C 7985   4.580   4.403   6.334  0.1867 -0.1883 -0.5727
   61MOL0     C 7986   4.439   4.409   6.351 -0.2250  1.0737 -0.4881
   61MOL0     H 7987   3.952   4.229   6.423 -0.0209  0.0607 -2.8319
   61MOL0     H 7988   3.715   4.283   6.475  0.0940  0.4266  1.9397
   61MOL0     H 7989   3.561   4.325   6.607  0.1231 -1.5995 -2.1480
   61MOL0     H 7990   3.492   4.386   6.449 -1.2117  0.9362 -1.1493
   61MOL0     H 7991   3.307   4.423   6.583 -1.0957  0.3149 -1.3048
   61MOL0     H 7992   3.398   4.583   6.561 -0.9907 -1.4129 -1.4382
   61MOL0     H 7993   3.486   4.565   6.789  0.5851  0.5414 -1.2566
   61MOL0     H 7994   3.448   4.393   6.799 -0.4525 -0.0875  1.3688
   61MOL0     H 7995   3.255   4.622   6.805  0.9436 -0.4623 -1.2690
   61MOL0     H 7996   3.193   4.455   6.792 -2.5290  1.9786  2.7133
   61MOL0     H 7997   3.188   4.555   7.015 -0.1529 -2.5220  1.0680
   61MOL0     H 7998   3.370   4.548   7.014 -0.4944  3.4826 -1.1205
   61MOL0     H 7999   3.344   4.298   6.959 -2.1424 -1.1540 -2.9542
   61MOL0     H 8000   3.160   4.323   6.997 -0.0261 -0.1265  0.8128
   61MOL0     H 8001   3.339   4.234   7.174 -1.4034 -1.0878 -0.2935
   61MOL0     H 8002   3.344   4.405   7.198  0.1212 -0.0632  1.2806
   61MOL0     H 8003   3.095   4.433   7.209 -0.6446 -0.3964  0.0879
   61MOL0     H 8004   3.163   4.358   7.347 -1.2316 -1.0056  0.1416
   61MOL0     H 8005   2.852   4.305   7.203  0.3815 -0.5752  0.5310
   61MOL0     H 8006   2.721   3.979   7.128  1.0747  0.8112  0.2895
   61MOL0     H 8007   2.677   4.137   7.160 -0.6488 -0.9966 -0.8936
   61MOL0     H 8008   2.708   3.927   7.372 -0.4499  0.7915  5.6690
   61MOL0     H 8009   2.573   4.030   7.322  0.4920 -2.7038  2.8065
   61MOL0     H 8010   2.835   4.105   7.465 -0.6566 -2.2574  1.8076
   61MOL0     H 8011   2.708   4.220   7.399  0.5157 -1.8980 -2.8251
   61MOL0     H 8012   2.670   4.221   7.627 -0.3948 -1.8903  3.0618
   61MOL0     H 8013   2.693   4.042   7.636  1.8318  1.4223  0.3692
   61MOL0     H 8014   2.598   4.185   7.825 -0.3120  0.2751  2.7531
   61MOL0     H 8015   2.475   4.164   7.997 -0.8511  2.0000  1.3268
   61MOL0     H 8016   2.022   4.104   8.240  1.5467 -0.2360 -1.1841
   61MOL0     H 8017   1.957   4.110   8.476  0.1435  1.7718  2.0191
   61MOL0     H 8018   1.975   4.214   8.715 -1.3327 -0.1080  0.9278
   61MOL0     H 8019   2.028   4.123   8.866  1.9947 -1.8089 -0.3397
   61MOL0     H 8020   1.937   3.918   8.769  3.0809  1.0170 -0.7920
   61MOL0     H 8021   1.889   4.000   8.626 -0.4755 -1.9010 -0.4003
   61MOL0     H 8022   1.717   4.128   8.757  0.7729  0.2841 -0.3081
   61MOL0     H 8023   1.799   4.090   8.906 -0.9460  3.3031 -0.5614
   61MOL0     H 8024   1.703   3.854   8.771  0.0816  2.0471 -2.2379
   61MOL0     H 8025   1.699   3.891   8.943  1.1174  0.2820 -1.4679
   61MOL0     H 8026   1.499   3.967   8.730 -0.8171 -2.1843  0.5592
   61MOL0     H 8027   1.500   4.052   8.896 -0.0178 -2.3723  1.9237
   61MOL0     H 8028   1.494   3.834   8.992 -1.9824  2.1583  0.9393
   61MOL0     H 8029   1.474   3.751   8.838 -3.3033 -0.9596  1.1261
   61MOL0     H 8030   1.278   3.948   8.958 -0.7318  0.8234 -1.7580
   61MOL0     H 8031   1.272   3.901   8.794  0.6763 -0.0568 -0.7934
   61MOL0     H 8032   1.272   3.648   8.855 -2.5977 -1.9657 -0.6380
   61MOL0     H 8033   1.135   3.745   8.910 -0.4907 -4.6585  1.2797
   61MOL0     H 8034   2.371   4.065   8.585  0.6122 -1.5469 -2.1504
   61MOL0     H 8035   2.440   4.072   8.357  0.3777 -2.3385 -0.3240
   61MOL0     H 8036   2.118   4.099   7.766  0.5627 -3.5982 -0.6901
   61MOL0     H 8037   2.254   4.121   7.568 -0.5105  0.9683  0.8072
   61MOL0     H 8038   3.804   4.693   6.510 -3.1659 -0.8009 -2.5980
   61MOL0     H 8039   4.040   4.654   6.418  0.0188 -1.9200 -2.8793
   61MOL0     H 8040   4.341   4.503   6.046 -1.5769 -0.1212  1.3313
   61MOL0     H 8041   4.577   4.485   5.997  2.4836  1.0805 -0.1946
   61MOL0     H 8042   4.870   4.229   6.221 -4.0860 -0.8246  0.0117
   61MOL0     H 8043   4.840   4.337   6.360 -1.2225 -0.0787  0.1345
   61MOL0     H 8044   5.022   4.364   6.126 -1.6591  2.9417 -0.8650
   61MOL0     H 8045   5.007   4.497   6.228 -2.0246  0.4111  1.3675
   61MOL0     H 8046   5.110   4.219   6.341 -0.0206 -0.0974  2.3996
   61MOL0     H 8047   5.072   4.363   6.423  0.3617  1.6662 -0.3336
   61MOL0     H 8048   5.332   4.333   6.380  0.5956 -0.3163 -0.4786
   61MOL0     H 8049   5.292   4.342   6.207 -1.2578 -2.7292  1.7225
   61MOL0     H 8050   5.290   4.740   6.306 -1.4895 -0.3379  2.4707
   61MOL0     H 8051   4.638   4.382   6.423  0.0667  2.2802  0.1518
   61MOL0     H 8052   4.398   4.391   6.450  1.2590 -0.0598 -0.0496
   62MOL0     O 8053   4.395   4.076  11.153  0.4374 -0.6118 -1.0418
   62MOL0     C 8054   4.473   3.995  11.208  0.5691  1.3581  0.0274
   62MOL0     O 8055   4.451   3.946  11.334  0.0737  0.2288 -0.3356
   62MOL0     C 8056   4.366   3.998  11.427  1.4393  0.9385  0.2297
   62MOL0     C 8057   4.349   4.126  11.467 -0.0993 -0.0137 -0.6679
   62MOL0     C 8058   4.294   4.166  11.581 -0.6013 -0.4060 -0.3018
   62MOL0     C 8059   4.242   4.076  11.671  1.1646 -0.3909  0.6361
   62MOL0     O 8060   4.168   4.121  11.775 -0.1838  0.1905  0.0270
   62MOL0     C 8061   4.138   4.042  11.899 -0.7306  0.1655  0.5019
   62MOL0     C 8062   4.052   4.103  12.009  0.2856 -0.1169 -0.1756
   62MOL0     C 8063   3.915   4.143  11.959 -0.1634 -0.3723  0.2015
   62MOL0     C 8064   3.809   4.172  12.067  1.3006  0.5361  0.8489
   62MOL0     C 8065   3.854   4.244  12.187 -0.3294  0.8517 -0.8937
   62MOL0     C 8066   3.875   4.387  12.146  0.1534 -0.5816  0.6349
   62MOL0     C 8067   3.909   4.483  12.258 -0.1451 -0.9092  0.2416
   62MOL0     C 8068   3.909   4.621  12.187  0.8347 -0.8772  0.8152
   62MOL0     N 8069   3.949   4.723  12.278 -0.0785  0.1489  0.1382
   62MOL0     C 8070   3.858   4.771  12.374 -0.5118 -1.4345  0.7617
   62MOL0     C 8071   3.925   4.881  12.439  0.3325  0.0310 -0.5973
   62MOL0     C 8072   3.881   4.979  12.545  0.9051  0.8873 -0.0754
   62MOL0     C 8073   3.776   4.915  12.651  0.0971  0.0641 -0.3228
   62MOL0     C 8074   3.774   4.997  12.781 -0.5262  0.3426 -0.1872
   62MOL0     C 8075   3.659   4.941  12.863  0.2248  0.3025 -0.0976
   62MOL0     O 8076   3.672   4.969  13.003  0.2865  0.0585 -0.1431
   62MOL0     C 8077   3.569   4.955  13.090 -0.0188 -0.4267 -0.4171
   62MOL0     C 8078   3.565   5.033  13.211 -0.6669  1.1115 -0.6891
   62MOL0     C 8079   3.448   5.027  13.297  0.0375 -0.0598  0.4374
   62MOL0     C 8080   3.344   4.938  13.264 -0.5315  0.3526  0.0232
   62MOL0     C 8081   3.225   4.920  13.345  0.5623  0.3681 -0.7160
   62MOL0     O 8082   3.135   4.821  13.309 -0.5301  0.0041 -0.0161
   62MOL0     C 8083   3.010   4.797  13.367  1.1902 -0.3521 -0.3654
   62MOL0     C 8084   2.931   4.711  13.298 -0.1534 -0.4534 -0.7980
   62MOL0     C 8085   2.804   4.676  13.346 -0.0027 -0.6392 -0.5784
   62MOL0     C 8086   2.749   4.736  13.459 -0.1594 -0.1062 -0.5039
   62MOL0     O 8087   2.626   4.687  13.515  0.2335 -0.5240  0.0550
   62MOL0     C 8088   2.572   4.762  13.622 -0.3137  0.0418  0.3308
   62MOL0     C 8089   2.428   4.700  13.636 -0.5198 -0.5045  0.8303
   62MOL0     C 8090   2.421   4.573  13.721  1.1949 -0.5103  0.3433
   62MOL0     C 8091   2.275   4.529  13.700  0.6035 -0.0194  0.9156
   62MOL0     C 8092   2.230   4.374  13.742 -0.1002 -1.2087  1.3197
   62MOL0     C 8093   2.232   4.358  13.891  0.8949 -0.3528  0.0600
   62MOL0     C 8094   2.126   4.257  13.950  0.5856  0.6645  1.1090
   62MOL0     C 8095   1.989   4.313  13.962 -0.5440  0.8814 -0.3715
   62MOL0    Cl 8096   1.885   4.174  14.023 -0.1184 -0.2927 -0.2074
   62MOL0     C 8097   2.833   4.833  13.531 -0.4697 -0.8125  1.0329
   62MOL0     C 8098   2.952   4.860  13.479  0.0792 -0.0260 -0.2568
   62MOL0     O 8099   3.216   4.977  13.453  0.0256 -0.0734 -0.2549
   62MOL0     C 8100   3.358   4.864  13.149  0.5317  0.7496  0.1632
   62MOL0     C 8101   3.458   4.877  13.058 -0.7661 -0.4085  0.0491
   62MOL0     N 8102   4.041   4.889  12.371  0.4355  0.4801  0.2979
   62MOL0     N 8103   4.054   4.807  12.270  0.4533  0.1212  0.5563
   62MOL0     C 8104   4.245   3.941  11.635  0.6272  0.2999  0.2528
   62MOL0     C 8105   4.306   3.901  11.510  0.1668 -0.6706  0.4694
   62MOL0     C 8106   4.596   3.945  11.150  0.0515 -0.0322  0.5413
   62MOL0     C 8107   4.718   3.936  11.228 -0.3308  0.2737  0.9969
   62MOL0     C 8108   4.847   3.883  11.168  0.0311 -0.2644  0.1161
   62MOL0     C 8109   4.857   3.851  11.034 -0.7026  0.1515 -0.7306
   62MOL0     O 8110   4.970   3.814  10.969 -0.7418 -0.4177  0.3254
   62MOL0     C 8111   5.052   3.927  10.935  0.1365 -0.0526 -0.4832
   62MOL0     C 8112   5.190   3.866  10.945  0.2200  0.3123  0.0653
   62MOL0     C 8113   5.222   3.780  10.822  0.0719 -0.0852 -0.8127
   62MOL0     C 8114   5.363   3.714  10.830 -0.3005 -0.8754  0.7963
   62MOL0     C 8115   5.467   3.823  10.834  0.1677  0.0301 -0.1097
   62MOL0     C 8116   5.555   3.910  10.835  0.3676  0.4523  0.4259
   62MOL0     C 8117   4.733   3.859  10.967  0.5547  0.3337  0.9857
   62MOL0     C 8118   4.615   3.905  11.011  0.1557  1.3948 -0.1467
   62MOL0     H 8119   4.394   4.197  11.398  1.0997  0.1996  0.2838
   62MOL0     H 8120   4.285   4.273  11.600 -0.5510 -0.5737  0.7073
   62MOL0     H 8121   4.231   4.020  11.951  0.7213 -0.2675 -2.1096
   62MOL0     H 8122   4.090   3.950  11.865  1.9109 -0.4721 -1.8560
   62MOL0     H 8123   4.099   4.191  12.054  1.6593 -0.2348 -1.2872
   62MOL0     H 8124   4.036   4.021  12.079  0.2181 -2.1923 -2.5071
   62MOL0     H 8125   3.879   4.063  11.893 -0.0510  1.0343 -1.6507
   62MOL0     H 8126   3.926   4.231  11.895 -2.3301 -1.1904 -1.4529
   62MOL0     H 8127   3.718   4.214  12.025  0.5140 -0.4714  1.5045
   62MOL0     H 8128   3.781   4.072  12.104  1.2258 -0.2611 -1.2553
   62MOL0     H 8129   3.947   4.200  12.225 -0.2011  0.0120 -2.1465
   62MOL0     H 8130   3.787   4.254  12.273 -2.6470 -1.7411 -2.2525
   62MOL0     H 8131   3.795   4.424  12.082  0.2072 -1.0833  0.2722
   62MOL0     H 8132   3.957   4.386  12.074  0.3243 -0.8214  0.8299
   62MOL0     H 8133   3.843   4.483  12.346 -1.3028  1.9798 -0.4821
   62MOL0     H 8134   4.011   4.463  12.290  0.7302  1.4723 -0.7861
   62MOL0     H 8135   3.810   4.646  12.149  0.2477 -1.8708  1.6513
   62MOL0     H 8136   3.983   4.627  12.107 -0.1721  2.8648 -0.0001
   62MOL0     H 8137   3.760   4.733  12.398 -0.1668 -1.8567  1.5100
   62MOL0     H 8138   3.822   5.055  12.493  3.3680  2.4561 -0.7480
   62MOL0     H 8139   3.966   5.032  12.589  0.0313  0.9555  1.6235
   62MOL0     H 8140   3.802   4.810  12.660  0.8177  0.2530 -0.1900
   62MOL0     H 8141   3.679   4.925  12.601  0.2415  0.3357 -0.5556
   62MOL0     H 8142   3.867   4.971  12.833 -0.5969  1.4244  0.5153
   62MOL0     H 8143   3.763   5.102  12.754  5.0545  0.7600 -2.1101
   62MOL0     H 8144   3.655   4.832  12.851  1.1027  0.3603 -1.1578
   62MOL0     H 8145   3.569   4.977  12.813  1.0933  1.9549 -0.5354
   62MOL0     H 8146   3.650   5.094  13.241  0.0020 -0.7693  1.5682
   62MOL0     H 8147   3.438   5.096  13.380  1.1338  1.1488 -0.4132
   62MOL0     H 8148   2.981   4.653  13.221 -2.1176  0.2630 -2.7081
   62MOL0     H 8149   2.743   4.601  13.296  0.8785 -2.2702  0.6743
   62MOL0     H 8150   2.571   4.866  13.589 -1.5712  0.3210  1.1753
   62MOL0     H 8151   2.622   4.752  13.719  1.2425  1.6288 -0.2408
   62MOL0     H 8152   2.377   4.687  13.540 -1.7859 -2.5223  1.7095
   62MOL0     H 8153   2.371   4.777  13.688  4.3117  2.1958  2.6707
   62MOL0     H 8154   2.444   4.583  13.827  1.9000 -0.5675  0.2008
   62MOL0     H 8155   2.488   4.504  13.668 -0.9552 -0.3793 -2.8066
   62MOL0     H 8156   2.213   4.597  13.759  0.9162 -1.0894  2.5161
   62MOL0     H 8157   2.255   4.537  13.593  1.9995 -1.7235  0.4835
   62MOL0     H 8158   2.289   4.298  13.690 -0.6045  0.6787 -2.3201
   62MOL0     H 8159   2.129   4.367  13.702  1.2225 -1.5382 -2.2980
   62MOL0     H 8160   2.226   4.457  13.938 -0.8044  1.2265 -3.1476
   62MOL0     H 8161   2.326   4.321  13.932  1.8842  0.2064 -1.6138
   62MOL0     H 8162   2.094   4.173  13.887 -1.2347  2.0260  0.1515
   62MOL0     H 8163   2.162   4.216  14.045 -1.7370 -0.7925  1.4411
   62MOL0     H 8164   1.954   4.339  13.861 -0.8477  2.3240  0.0870
   62MOL0     H 8165   1.997   4.405  14.021  3.6717  2.3714 -2.8245
   62MOL0     H 8166   2.813   4.890  13.622  4.5981 -2.7466  3.8011
   62MOL0     H 8167   3.012   4.909  13.556 -1.1094 -3.1226  2.9475
   62MOL0     H 8168   3.285   4.791  13.115  0.0575  2.0109 -1.6954
   62MOL0     H 8169   3.435   4.836  12.960 -1.5099  0.2005 -0.0419
   62MOL0     H 8170   4.200   3.863  11.695 -1.1345 -0.5144 -1.9890
   62MOL0     H 8171   4.314   3.797  11.480 -2.0693 -0.5748 -0.5974
   62MOL0     H 8172   4.701   3.963  11.332 -4.6405 -0.9055  0.8011
   62MOL0     H 8173   4.923   3.876  11.245 -0.5308 -1.6840  0.5906
   62MOL0     H 8174   5.050   4.006  11.011 -0.2225 -0.8944  0.4078
   62MOL0     H 8175   5.031   3.964  10.834 -2.7469  0.4690  0.2188
   62MOL0     H 8176   5.263   3.943  10.971  0.1881  0.2162  0.4483
   62MOL0     H 8177   5.183   3.793  11.026 -1.0342 -0.5241 -0.7550
   62MOL0     H 8178   5.215   3.836  10.728 -0.8165  0.7400 -0.2736
   62MOL0     H 8179   5.139   3.709  10.822 -0.0009 -0.0134 -1.6219
   62MOL0     H 8180   5.358   3.649  10.918  0.7275 -3.5423 -0.9766
   62MOL0     H 8181   5.398   3.648  10.750  0.5368  1.0582 -0.5135
   62MOL0     H 8182   5.616   3.997  10.847 -1.2967  1.4341  2.5839
   62MOL0     H 8183   4.729   3.836  10.861  0.6954 -0.3939  1.1346
   62MOL0     H 8184   4.529   3.907  10.945  0.2595 -1.3249 -0.4624
   63MOL0     O 8185   7.676   1.322  10.846  0.4163  0.4685 -0.0233
   63MOL0     C 8186   7.797   1.313  10.864 -0.1020 -1.0849  0.1100
   63MOL0     O 8187   7.882   1.425  10.885 -0.3434  0.8007 -0.6274
   63MOL0     C 8188   7.822   1.550  10.886 -0.4381 -0.3147  0.2591
   63MOL0     C 8189   7.756   1.598  11.002 -0.7242  0.2942  0.6488
   63MOL0     C 8190   7.707   1.732  11.000  0.8995  0.3841  0.6505
   63MOL0     C 8191   7.696   1.808  10.886 -0.2200  1.1453 -0.0824
   63MOL0     O 8192   7.657   1.938  10.886  0.1776 -0.0706 -0.0834
   63MOL0     C 8193   7.593   1.993  10.996  0.3848 -0.1056 -0.0400
   63MOL0     C 8194   7.527   2.130  10.951 -0.2218  0.2188  0.7914
   63MOL0     C 8195   7.588   2.262  11.007 -0.0786  0.2854  0.1156
   63MOL0     C 8196   7.724   2.299  10.935 -0.2886 -0.7425  0.7462
   63MOL0     C 8197   7.714   2.358  10.799  0.0015 -0.0303  0.0780
   63MOL0     C 8198   7.640   2.496  10.795 -0.6408  0.4813  0.4747
   63MOL0     C 8199   7.691   2.570  10.673 -0.0376  0.5959 -0.9133
   63MOL0     C 8200   7.614   2.704  10.656 -0.4291 -0.9282  0.1543
   63MOL0     N 8201   7.671   2.781  10.547 -0.3001  0.6250  0.0674
   63MOL0     C 8202   7.634   2.911  10.529  0.0645  0.6748 -0.2449
   63MOL0     C 8203   7.674   2.948  10.409 -0.3301  0.8296  0.1360
   63MOL0     C 8204   7.623   3.070  10.331  0.6248  0.0793 -0.6003
   63MOL0     C 8205   7.495   3.031  10.250 -0.1427  0.5303 -0.0587
   63MOL0     C 8206   7.423   3.153  10.198  0.7636 -0.3002  0.4979
   63MOL0     C 8207   7.291   3.129  10.121  0.0703  0.3569  0.9200
   63MOL0     O 8208   7.201   3.094  10.226  0.4255  0.3343 -0.2632
   63MOL0     C 8209   7.064   3.087  10.204 -0.1531 -0.6206 -0.2139
   63MOL0     C 8210   7.011   3.082  10.076  0.4741  0.6883  0.0915
   63MOL0     C 8211   6.878   3.059  10.054 -0.2131  0.4629 -0.3047
   63MOL0     C 8212   6.791   3.065  10.165 -0.1563  0.1523  0.5357
   63MOL0     C 8213   6.648   3.042  10.132  0.0661 -0.6384 -0.0145
   63MOL0     O 8214   6.627   2.984  10.010  0.0162 -0.0545 -0.1894
   63MOL0     C 8215   6.507   2.951   9.975 -0.0227 -0.1080 -0.3717
   63MOL0     C 8216   6.428   3.035   9.909 -0.2467  0.4605  0.6816
   63MOL0     C 8217   6.305   2.991   9.848 -1.1432 -0.0043 -0.1169
   63MOL0     C 8218   6.280   2.845   9.852 -0.1873 -0.4320 -1.2264
   63MOL0     O 8219   6.167   2.783   9.813  1.0622  0.0437  0.3218
   63MOL0     C 8220   6.052   2.858   9.761 -0.2611 -0.2628  0.6181
   63MOL0     C 8221   5.939   2.771   9.718  0.9016  1.0055  0.3280
   63MOL0     C 8222   5.888   2.686   9.834  0.3136 -0.1624 -0.0323
   63MOL0     C 8223   5.751   2.624   9.801  0.7859  0.2308 -1.3976
   63MOL0     C 8224   5.688   2.527   9.911 -0.3282  0.2716 -0.8310
   63MOL0     C 8225   5.724   2.388   9.864 -0.7819 -0.1207 -0.3644
   63MOL0     C 8226   5.689   2.268   9.964  0.2290 -0.3338 -0.2096
   63MOL0     C 8227   5.539   2.238   9.998 -0.4145 -0.3380  0.6615
   63MOL0    Cl 8228   5.540   2.121  10.131  0.2218  0.3117  0.4310
   63MOL0     C 8229   6.367   2.760   9.923 -0.0905 -0.7745  0.4622
   63MOL0     C 8230   6.476   2.812   9.984 -0.2006 -0.4559 -0.7613
   63MOL0     O 8231   6.570   3.047  10.225  0.6210 -0.2200  0.1354
   63MOL0     C 8232   6.844   3.068  10.286  0.2688 -0.3737  0.2556
   63MOL0     C 8233   6.975   3.079  10.310 -0.5963  0.0704 -0.3718
   63MOL0     N 8234   7.728   2.838  10.351 -0.3473  0.2578 -0.5086
   63MOL0     N 8235   7.723   2.739  10.432 -0.3591 -1.1324  1.2535
   63MOL0     C 8236   7.752   1.754  10.771  0.2994  0.1317 -0.7906
   63MOL0     C 8237   7.827   1.632  10.776 -0.7621 -0.2591  1.0991
   63MOL0     C 8238   7.853   1.179  10.851 -0.2473  0.9670 -0.8298
   63MOL0     C 8239   7.769   1.063  10.835  0.7257  1.1600 -0.8033
   63MOL0     C 8240   7.820   0.937  10.829 -0.1281 -0.7253  0.1971
   63MOL0     C 8241   7.960   0.915  10.833 -0.3096 -0.3070 -0.0264
   63MOL0     O 8242   8.012   0.794  10.836  0.0950 -0.3850 -0.7834
   63MOL0     C 8243   8.153   0.776  10.817 -0.1669 -0.0660 -0.1680
   63MOL0     C 8244   8.179   0.625  10.789  1.1014  1.1204 -0.1332
   63MOL0     C 8245   8.162   0.530  10.911  0.4574  1.0467 -0.6977
   63MOL0     C 8246   8.257   0.402  10.884  0.6737  0.5002  0.0049
   63MOL0     C 8247   8.202   0.319  10.777  0.3597 -0.8046 -0.0500
   63MOL0     C 8248   8.189   0.253  10.682 -0.5001  0.9306  1.1537
   63MOL0     C 8249   8.046   1.032  10.845  0.9436 -0.5143 -0.2097
   63MOL0     C 8250   7.991   1.155  10.862 -0.7483 -0.5340 -0.4454
   63MOL0     H 8251   7.756   1.528  11.085 -1.3927 -1.3065 -0.6534
   63MOL0     H 8252   7.685   1.786  11.092  0.0982  2.1855 -0.5397
   63MOL0     H 8253   7.658   2.020  11.080  0.1008  3.0557 -0.6939
   63MOL0     H 8254   7.515   1.923  11.028 -1.6580  2.0388 -0.0920
   63MOL0     H 8255   7.436   2.135  11.012 -0.9757  2.2771 -0.4231
   63MOL0     H 8256   7.511   2.133  10.843  1.9487  1.8652  0.4400
   63MOL0     H 8257   7.609   2.259  11.114 -2.2292 -0.3444  0.5590
   63MOL0     H 8258   7.521   2.348  11.008 -0.3251  0.1007  1.8227
   63MOL0     H 8259   7.775   2.365  11.005 -3.0121  2.7637 -0.3094
   63MOL0     H 8260   7.776   2.204  10.920 -0.3439 -0.4136 -1.8867
   63MOL0     H 8261   7.653   2.294  10.734 -0.1856  1.2926 -1.1109
   63MOL0     H 8262   7.814   2.373  10.758  1.0766  2.0150  3.1627
   63MOL0     H 8263   7.654   2.560  10.882  0.2197 -1.3587  1.7634
   63MOL0     H 8264   7.538   2.461  10.775 -0.2056 -1.6475  1.6156
   63MOL0     H 8265   7.796   2.601  10.685  0.2752 -0.7599  0.0025
   63MOL0     H 8266   7.680   2.511  10.581 -0.2893  0.6162 -0.8968
   63MOL0     H 8267   7.609   2.753  10.754 -1.4895 -1.4423  0.3728
   63MOL0     H 8268   7.515   2.678  10.618 -0.5256 -1.2979  0.6546
   63MOL0     H 8269   7.573   2.971  10.596 -1.2648  0.0001 -0.8161
   63MOL0     H 8270   7.696   3.113  10.262 -0.4276  2.2760 -0.4647
   63MOL0     H 8271   7.598   3.158  10.393  1.4393  3.0563 -4.1430
   63MOL0     H 8272   7.428   2.969  10.312 -0.2003  0.7620  0.1125
   63MOL0     H 8273   7.536   2.964  10.174  1.8314  0.7855  0.7407
   63MOL0     H 8274   7.412   3.228  10.278 -1.0623  1.6973 -1.5025
   63MOL0     H 8275   7.483   3.201  10.120 -0.2424 -0.3244 -0.3098
   63MOL0     H 8276   7.299   3.051  10.045 -1.6875 -1.7011  2.7102
   63MOL0     H 8277   7.271   3.226  10.074  5.1222  1.4590  0.4469
   63MOL0     H 8278   7.084   3.092   9.997  2.0810  0.2986  1.4679
   63MOL0     H 8279   6.829   3.041   9.959  0.1038 -0.0647 -0.3705
   63MOL0     H 8280   6.454   3.141   9.910  0.8284  0.2096  1.7979
   63MOL0     H 8281   6.238   3.059   9.796  0.3437 -0.0388 -2.2138
   63MOL0     H 8282   6.077   2.901   9.664  1.5118 -1.3113  0.5818
   63MOL0     H 8283   6.016   2.927   9.839 -0.0106  0.4192  0.1403
   63MOL0     H 8284   5.977   2.708   9.638 -1.6744  0.4564 -0.5543
   63MOL0     H 8285   5.856   2.830   9.679  1.0028  3.0081  2.8371
   63MOL0     H 8286   5.872   2.750   9.921 -0.1976 -0.4642  0.1064
   63MOL0     H 8287   5.958   2.608   9.864  2.1370  1.8993  1.3317
   63MOL0     H 8288   5.673   2.697   9.778  1.4304  0.7754 -1.9201
   63MOL0     H 8289   5.777   2.565   9.713  2.3146  1.5377 -1.8749
   63MOL0     H 8290   5.579   2.531   9.901 -0.9452 -4.2620  1.2677
   63MOL0     H 8291   5.701   2.551  10.017 -1.8987  2.9908 -1.1755
   63MOL0     H 8292   5.831   2.381   9.844 -0.6917  1.0516 -0.3993
   63MOL0     H 8293   5.674   2.376   9.768  1.1149  1.5332 -1.6265
   63MOL0     H 8294   5.734   2.175   9.929 -1.4616 -1.6480  0.9410
   63MOL0     H 8295   5.729   2.297  10.061 -1.8163 -0.5365  0.7556
   63MOL0     H 8296   5.485   2.180   9.923 -0.9713 -1.5413  1.9618
   63MOL0     H 8297   5.500   2.335  10.031 -1.7453 -0.6963  0.1981
   63MOL0     H 8298   6.355   2.653   9.934 -1.2463 -0.4565  2.9364
   63MOL0     H 8299   6.556   2.747  10.017 -0.8830 -0.2513  1.4667
   63MOL0     H 8300   6.783   3.067  10.376  1.9440 -1.7950  1.4541
   63MOL0     H 8301   6.996   3.116  10.409  0.5564 -0.3166 -0.4566
   63MOL0     H 8302   7.761   1.815  10.681 -0.9635  4.9315  1.9682
   63MOL0     H 8303   7.899   1.625  10.695 -3.1093 -0.8587 -1.0863
   63MOL0     H 8304   7.661   1.070  10.835  0.6806  2.8816  3.2845
   63MOL0     H 8305   7.750   0.855  10.838 -0.2445 -0.5711  0.7387
   63MOL0     H 8306   8.218   0.814  10.896 -1.1314  1.6123 -0.1235
   63MOL0     H 8307   8.179   0.829  10.725 -2.4802  0.7802 -0.4184
   63MOL0     H 8308   8.118   0.594  10.703 -1.0045 -0.1313  1.6909
   63MOL0     H 8309   8.284   0.628  10.759  0.6986 -2.2737 -2.5148
   63MOL0     H 8310   8.059   0.492  10.911  1.6306 -2.6057  0.5857
   63MOL0     H 8311   8.201   0.581  11.000  1.2062 -2.6791  1.3217
   63MOL0     H 8312   8.358   0.438  10.865 -0.4101  4.8984  1.3230
   63MOL0     H 8313   8.256   0.357  10.984 -3.2982  4.0100  1.8834
   63MOL0     H 8314   8.168   0.192  10.596 -0.3908 -0.1920  1.9117
   63MOL0     H 8315   8.153   1.030  10.856  0.9233  0.9520  0.5989
   63MOL0     H 8316   8.057   1.241  10.871  2.1670 -2.5945 -0.4775
   64MOL0     O 8317   7.428   2.279   4.741 -0.2850  0.4174  0.1737
   64MOL0     C 8318   7.502   2.173   4.758  2.0034 -0.9666 -0.1315
   64MOL0     O 8319   7.466   2.057   4.803  1.2313  0.3848 -0.5301
   64MOL0     C 8320   7.332   2.032   4.823 -0.0870  0.2899  0.1308
   64MOL0     C 8321   7.284   2.060   4.952 -0.4931 -0.6896 -0.1474
   64MOL0     C 8322   7.155   2.026   4.994  0.4838  0.8549  0.5913
   64MOL0     C 8323   7.071   1.974   4.900 -0.9339  0.2242 -0.1720
   64MOL0     O 8324   6.949   1.958   4.961  1.1602  0.5537 -0.0151
   64MOL0     C 8325   6.841   1.891   4.896  0.6070  0.3909  0.5880
   64MOL0     C 8326   6.761   1.983   4.811  1.1116 -0.7784  0.7591
   64MOL0     C 8327   6.692   2.091   4.907  0.1337 -0.0338 -0.1191
   64MOL0     C 8328   6.644   2.056   5.043 -0.7584 -0.1104  0.5122
   64MOL0     C 8329   6.598   2.165   5.142 -0.1125 -0.0585 -0.1214
   64MOL0     C 8330   6.719   2.236   5.214  0.9781  0.2034 -0.2680
   64MOL0     C 8331   6.676   2.352   5.310 -0.6454  0.2800 -0.5108
   64MOL0     C 8332   6.576   2.449   5.242 -0.7956 -0.0327  0.0321
   64MOL0     N 8333   6.643   2.512   5.116 -0.2187 -1.3716  0.2843
   64MOL0     C 8334   6.683   2.640   5.124 -0.8442 -1.2059  0.4200
   64MOL0     C 8335   6.710   2.675   4.985  0.0996  0.5151  0.0862
   64MOL0     C 8336   6.760   2.818   4.951 -0.2673 -0.5985  0.2478
   64MOL0     C 8337   6.642   2.916   4.980 -0.1754 -0.7870 -0.0023
   64MOL0     C 8338   6.674   3.064   4.932 -0.3864  0.2081 -0.3851
   64MOL0     C 8339   6.594   3.174   5.005 -1.1873  0.5786  0.0079
   64MOL0     O 8340   6.686   3.283   5.024  0.1242  0.3485  0.9776
   64MOL0     C 8341   6.670   3.373   5.123 -0.2153 -0.3514 -0.1154
   64MOL0     C 8342   6.556   3.423   5.169 -0.2257  0.4726 -0.2919
   64MOL0     C 8343   6.546   3.527   5.255  0.5600  0.1169 -0.0175
   64MOL0     C 8344   6.657   3.597   5.287 -0.1085  0.5617 -0.3935
   64MOL0     C 8345   6.650   3.715   5.361 -0.1999 -0.4378  0.1264
   64MOL0     O 8346   6.606   3.835   5.307  0.4033  0.6617  0.7757
   64MOL0     C 8347   6.568   3.935   5.386  0.2477  0.3600 -0.4183
   64MOL0     C 8348   6.616   4.058   5.350 -0.0438  0.6143  0.2615
   64MOL0     C 8349   6.564   4.177   5.405  0.2519  0.8995 -0.4621
   64MOL0     C 8350   6.464   4.166   5.499  0.4126 -0.9529 -0.1909
   64MOL0     O 8351   6.388   4.266   5.553  0.7028 -0.1410 -0.4029
   64MOL0     C 8352   6.381   4.385   5.473  0.2835  1.1651  0.2640
   64MOL0     C 8353   6.316   4.504   5.527 -0.6384 -0.5037 -0.4824
   64MOL0     C 8354   6.162   4.490   5.529  0.0475 -0.2361  0.2399
   64MOL0     C 8355   6.075   4.613   5.542 -0.6370 -0.1198 -0.5056
   64MOL0     C 8356   5.928   4.586   5.551  0.6738  0.4182  0.5289
   64MOL0     C 8357   5.838   4.706   5.583  0.0590  0.1298  0.4275
   64MOL0     C 8358   5.689   4.676   5.590 -0.5226 -0.2293 -1.3654
   64MOL0     C 8359   5.610   4.798   5.640  0.3869  0.2396 -0.0313
   64MOL0    Cl 8360   5.652   4.816   5.806  0.2088  0.2399  0.0153
   64MOL0     C 8361   6.418   4.044   5.532  0.5169  1.1567  0.5011
   64MOL0     C 8362   6.465   3.929   5.474  0.1922  0.7590  0.4946
   64MOL0     O 8363   6.683   3.708   5.479  0.7338 -0.2651 -0.2035
   64MOL0     C 8364   6.783   3.549   5.250 -0.0744  0.2847 -0.1954
   64MOL0     C 8365   6.787   3.430   5.167 -0.3462  0.0134 -0.9326
   64MOL0     N 8366   6.669   2.567   4.911  0.1722  0.2131  0.2269
   64MOL0     N 8367   6.634   2.475   4.986 -0.1564  0.0337 -0.2262
   64MOL0     C 8368   7.110   1.943   4.767  0.3266 -0.1845 -0.5664
   64MOL0     C 8369   7.243   1.970   4.739 -0.4786  0.2811  0.1334
   64MOL0     C 8370   7.644   2.205   4.732  0.0519  0.9671 -0.2697
   64MOL0     C 8371   7.683   2.337   4.696 -0.2948  0.4197  0.9189
   64MOL0     C 8372   7.819   2.360   4.661 -0.2609  1.0262 -0.4869
   64MOL0     C 8373   7.916   2.264   4.655  0.2495 -1.4052 -0.4400
   64MOL0     O 8374   8.040   2.285   4.604 -0.2776  0.0265 -0.2763
   64MOL0     C 8375   8.128   2.312   4.712  0.9313 -0.5511 -0.7371
   64MOL0     C 8376   8.119   2.453   4.777 -0.0930 -0.1788 -0.6085
   64MOL0     C 8377   8.190   2.556   4.684 -0.0509 -0.2603  0.3791
   64MOL0     C 8378   8.083   2.669   4.648  0.0863  0.1485 -0.9944
   64MOL0     C 8379   8.130   2.748   4.536  0.6239 -0.0581 -1.0246
   64MOL0     C 8380   8.172   2.812   4.437  0.0652  0.6350  0.0686
   64MOL0     C 8381   7.881   2.147   4.709  0.3794  0.8601  0.2138
   64MOL0     C 8382   7.749   2.115   4.749  1.5454  0.8224 -0.0990
   64MOL0     H 8383   7.358   2.110   5.014 -1.6254  2.4458 -1.1648
   64MOL0     H 8384   7.122   2.066   5.089 -2.1151  1.3450 -0.4533
   64MOL0     H 8385   6.779   1.832   4.963 -0.1453 -0.5798 -0.8954
   64MOL0     H 8386   6.875   1.809   4.831 -2.7172 -2.7423  2.4032
   64MOL0     H 8387   6.682   1.918   4.773  0.1856  0.8562 -0.2341
   64MOL0     H 8388   6.818   2.042   4.739  3.5842  0.8392  3.8019
   64MOL0     H 8389   6.620   2.146   4.846  1.1416 -1.3790 -2.6881
   64MOL0     H 8390   6.775   2.162   4.911 -0.8831  1.2670 -1.1889
   64MOL0     H 8391   6.559   1.990   5.022  0.2661 -0.1671 -4.7919
   64MOL0     H 8392   6.716   1.994   5.098 -0.3939 -4.1272 -3.8027
   64MOL0     H 8393   6.533   2.122   5.220 -2.0283  1.7069 -0.6552
   64MOL0     H 8394   6.545   2.242   5.086  1.4726  2.2419  1.3864
   64MOL0     H 8395   6.792   2.260   5.137 -0.3680 -4.0297 -3.2816
   64MOL0     H 8396   6.765   2.156   5.272 -0.6661 -2.1465 -1.9806
   64MOL0     H 8397   6.622   2.316   5.398 -2.0273  3.0894 -0.1016
   64MOL0     H 8398   6.768   2.395   5.351 -0.2269 -0.2048 -0.9137
   64MOL0     H 8399   6.557   2.535   5.307 -1.8275 -0.1284 -0.1265
   64MOL0     H 8400   6.476   2.419   5.209 -1.3494 -1.2248  2.5870
   64MOL0     H 8401   6.681   2.708   5.208 -2.2529 -0.3382 -0.2961
   64MOL0     H 8402   6.782   2.809   4.844 -2.2325  0.0404 -0.2468
   64MOL0     H 8403   6.846   2.863   5.003 -1.8619  0.7624  1.8422
   64MOL0     H 8404   6.614   2.915   5.085  1.0219 -0.3229  0.3317
   64MOL0     H 8405   6.557   2.892   4.915  0.4193 -1.1681 -0.6619
   64MOL0     H 8406   6.780   3.080   4.952 -0.3032 -2.5813  2.2238
   64MOL0     H 8407   6.657   3.056   4.824  0.6802 -1.7487 -0.4496
   64MOL0     H 8408   6.550   3.138   5.099  0.0748 -1.1930 -0.0352
   64MOL0     H 8409   6.518   3.208   4.933 -1.2351  0.7953  0.1594
   64MOL0     H 8410   6.460   3.394   5.128 -1.0866  1.9826  0.5577
   64MOL0     H 8411   6.446   3.549   5.291  0.9989 -0.6573  1.7969
   64MOL0     H 8412   6.706   4.058   5.289 -1.6685  2.8392 -2.3214
   64MOL0     H 8413   6.611   4.267   5.367 -0.8000  0.4592 -3.0362
   64MOL0     H 8414   6.329   4.358   5.380 -1.1466 -2.7321  1.9818
   64MOL0     H 8415   6.484   4.417   5.457 -0.1856  1.3995 -2.9890
   64MOL0     H 8416   6.343   4.592   5.468  0.9174  0.3110  1.3023
   64MOL0     H 8417   6.353   4.525   5.628 -2.8767 -0.5187  0.3875
   64MOL0     H 8418   6.143   4.431   5.620 -0.3216 -3.2700 -1.6560
   64MOL0     H 8419   6.119   4.431   5.448 -1.3883 -0.3589  1.0644
   64MOL0     H 8420   6.091   4.663   5.638  0.4432 -2.3093  0.5307
   64MOL0     H 8421   6.091   4.676   5.454 -2.7349 -1.1250 -1.7075
   64MOL0     H 8422   5.904   4.508   5.623 -0.2740 -1.5760 -1.7959
   64MOL0     H 8423   5.898   4.534   5.459  1.9306 -1.7223  1.2597
   64MOL0     H 8424   5.844   4.770   5.495  0.4278 -2.5102 -1.5939
   64MOL0     H 8425   5.873   4.752   5.676  1.2186 -0.6082  0.3750
   64MOL0     H 8426   5.657   4.645   5.490  2.0732  3.2838 -3.5438
   64MOL0     H 8427   5.674   4.592   5.659 -2.0723 -0.4047 -1.8908
   64MOL0     H 8428   5.504   4.772   5.641  0.0528  1.3120  2.5216
   64MOL0     H 8429   5.636   4.887   5.582  2.0805  0.8643  1.5817
   64MOL0     H 8430   6.334   4.048   5.601  0.0469  0.9141 -0.0453
   64MOL0     H 8431   6.427   3.831   5.500  2.6738  0.0408  1.6950
   64MOL0     H 8432   6.873   3.606   5.270  2.3223 -2.7190 -1.5146
   64MOL0     H 8433   6.881   3.389   5.131 -1.1247 -2.8254 -0.0191
   64MOL0     H 8434   7.036   1.916   4.692 -0.0559 -1.3688  0.2170
   64MOL0     H 8435   7.287   1.958   4.641  0.3445  1.9587  0.2602
   64MOL0     H 8436   7.621   2.426   4.693 -0.3142  0.6762 -5.5654
   64MOL0     H 8437   7.861   2.454   4.628  0.2013  1.6134  1.6493
   64MOL0     H 8438   8.230   2.301   4.675  1.2661 -0.7534  0.2039
   64MOL0     H 8439   8.121   2.238   4.793  4.9909  1.0356  1.3332
   64MOL0     H 8440   8.017   2.486   4.802 -1.1776 -2.6143 -1.5136
   64MOL0     H 8441   8.176   2.458   4.871  0.1251  2.8511 -0.8124
   64MOL0     H 8442   8.221   2.504   4.593  0.1551  1.6201 -0.6662
   64MOL0     H 8443   8.277   2.591   4.740  0.7637 -4.0519  1.8113
   64MOL0     H 8444   7.984   2.622   4.643  0.2599 -0.7073  1.7331
   64MOL0     H 8445   8.082   2.724   4.742 -0.0605 -0.7311 -0.4682
   64MOL0     H 8446   8.214   2.857   4.350 -2.8963  0.1916 -1.7427
   64MOL0     H 8447   7.957   2.070   4.718  0.1761  0.3198 -2.1043
   64MOL0     H 8448   7.726   2.012   4.775  5.2251 -0.1000  0.1448
   65MOL0     O 8449   3.293   6.044   6.726 -0.3798  0.0389 -0.6521
   65MOL0     C 8450   3.224   6.038   6.826  0.3485 -0.3158  0.3569
   65MOL0     O 8451   3.121   5.938   6.841  0.3597 -0.7052 -0.0879
   65MOL0     C 8452   3.108   5.827   6.764 -0.1383 -0.9725 -0.2659
   65MOL0     C 8453   3.209   5.761   6.701 -0.1039 -0.7695  0.0191
   65MOL0     C 8454   3.182   5.657   6.610  0.2106 -1.5748  0.4636
   65MOL0     C 8455   3.048   5.623   6.586  0.0731  0.0336 -0.2225
   65MOL0     O 8456   3.011   5.534   6.488 -0.7850 -0.0230  0.1803
   65MOL0     C 8457   3.091   5.417   6.494  0.1943 -0.3465  0.9659
   65MOL0     C 8458   3.012   5.297   6.459 -0.1895  0.6900 -1.5606
   65MOL0     C 8459   2.916   5.255   6.571 -0.3909 -0.4304 -0.3218
   65MOL0     C 8460   2.819   5.135   6.534  0.1651 -0.0050  0.0429
   65MOL0     C 8461   2.738   5.086   6.659 -0.1930 -0.1061  0.6102
   65MOL0     C 8462   2.826   5.004   6.753 -0.4209 -0.6635  0.0690
   65MOL0     C 8463   2.748   4.892   6.823  0.2082  0.0359 -0.6251
   65MOL0     C 8464   2.854   4.785   6.874 -0.9823 -1.4273  0.5886
   65MOL0     N 8465   2.805   4.645   6.905  0.1544  0.4889 -0.4705
   65MOL0     C 8466   2.685   4.604   6.945  0.3202  0.2524  0.0012
   65MOL0     C 8467   2.691   4.474   6.969 -0.1471 -0.1737 -0.3950
   65MOL0     C 8468   2.573   4.394   7.018  0.1102 -0.6190 -0.5216
   65MOL0     C 8469   2.511   4.427   7.159 -0.2781 -0.7038  0.6061
   65MOL0     C 8470   2.362   4.402   7.173 -0.9550 -0.1882  0.3070
   65MOL0     C 8471   2.315   4.358   7.312 -0.1454  0.0822  0.3698
   65MOL0     O 8472   2.299   4.482   7.396  0.5774 -0.8236 -0.2574
   65MOL0     C 8473   2.362   4.494   7.516 -0.3582  0.3998  0.2869
   65MOL0     C 8474   2.292   4.529   7.631  0.2343  0.3056  0.0616
   65MOL0     C 8475   2.361   4.562   7.736  0.3602  0.2902 -0.6568
   65MOL0     C 8476   2.492   4.527   7.753 -0.3619 -0.0913 -0.7713
   65MOL0     C 8477   2.557   4.545   7.892 -0.3134  0.6534 -0.3842
   65MOL0     O 8478   2.485   4.561   8.011 -0.4973 -0.6402 -0.0019
   65MOL0     C 8479   2.524   4.539   8.138 -0.1863  0.2478 -0.2340
   65MOL0     C 8480   2.474   4.434   8.200  1.6268  0.5149  0.2039
   65MOL0     C 8481   2.489   4.431   8.337  0.2190 -1.0031 -0.5569
   65MOL0     C 8482   2.553   4.532   8.415 -0.1730  0.3476  0.5758
   65MOL0     O 8483   2.568   4.532   8.552 -0.1796 -0.3135  0.1248
   65MOL0     C 8484   2.472   4.458   8.636 -1.0655 -0.4987 -0.1176
   65MOL0     C 8485   2.525   4.320   8.689  0.0021 -1.2585 -0.3619
   65MOL0     C 8486   2.439   4.280   8.811 -0.8508 -0.4542 -0.0030
   65MOL0     C 8487   2.468   4.137   8.856 -0.4121  0.6467  0.7201
   65MOL0     C 8488   2.361   4.077   8.936 -0.5693 -0.3908 -0.2783
   65MOL0     C 8489   2.377   3.926   8.975 -0.3050  0.5124 -0.3540
   65MOL0     C 8490   2.278   3.873   9.085  0.1018 -0.4288  0.5989
   65MOL0     C 8491   2.148   3.834   9.023  0.3619  0.3676 -0.0079
   65MOL0    Cl 8492   2.038   3.800   9.158 -0.0583 -0.2686 -0.2055
   65MOL0     C 8493   2.630   4.626   8.343 -0.3037  0.0387  0.6247
   65MOL0     C 8494   2.605   4.634   8.209  0.4565  0.0698 -0.1321
   65MOL0     O 8495   2.679   4.531   7.890 -0.2445  0.7600 -0.1620
   65MOL0     C 8496   2.567   4.497   7.644 -0.4686 -0.6530 -0.2205
   65MOL0     C 8497   2.503   4.482   7.524 -0.9308  1.2698 -0.5143
   65MOL0     N 8498   2.831   4.438   6.957  0.2127 -1.0556 -0.0403
   65MOL0     N 8499   2.896   4.542   6.906 -0.9180  0.4398 -0.5555
   65MOL0     C 8500   2.950   5.682   6.658 -0.1433 -0.1844 -0.8483
   65MOL0     C 8501   2.976   5.784   6.745  0.5389 -0.5352 -0.1497
   65MOL0     C 8502   3.239   6.141   6.930  0.1350 -0.1141  0.9292
   65MOL0     C 8503   3.180   6.127   7.054  1.0253 -0.1024 -0.0721
   65MOL0     C 8504   3.204   6.231   7.141  0.0717 -0.1494 -0.2677
   65MOL0     C 8505   3.258   6.350   7.114  0.6347  0.2786  0.6492
   65MOL0     O 8506   3.266   6.464   7.196  0.3286 -0.5061  0.3433
   65MOL0     C 8507   3.228   6.439   7.335 -0.9017 -0.4253 -0.3438
   65MOL0     C 8508   3.280   6.539   7.435  0.1849 -0.3704 -0.5869
   65MOL0     C 8509   3.238   6.688   7.417  0.2146 -1.0029 -0.2122
   65MOL0     C 8510   3.352   6.787   7.459  0.4356 -0.6997  0.6598
   65MOL0     C 8511   3.370   6.794   7.602 -0.0426  0.1750  0.7517
   65MOL0     C 8512   3.400   6.800   7.719 -0.7914  0.8256  1.1145
   65MOL0     C 8513   3.298   6.369   6.987 -0.0597  0.3835  0.8531
   65MOL0     C 8514   3.290   6.272   6.889  0.4601  0.2816 -0.1045
   65MOL0     H 8515   3.315   5.779   6.709 -0.3954  1.2161 -0.1855
   65MOL0     H 8516   3.274   5.614   6.570  0.1579  1.4802 -3.5572
   65MOL0     H 8517   3.144   5.399   6.588 -0.9833 -1.8777  1.3794
   65MOL0     H 8518   3.169   5.429   6.418  0.1116  0.9864  1.0720
   65MOL0     H 8519   3.062   5.202   6.439  0.6355  0.6424  0.4186
   65MOL0     H 8520   2.957   5.332   6.371  0.3011  0.6500 -1.8883
   65MOL0     H 8521   2.866   5.346   6.605  2.1036  0.0701  2.4154
   65MOL0     H 8522   2.987   5.222   6.648  4.1782  1.8878 -3.0930
   65MOL0     H 8523   2.748   5.172   6.459 -0.4090  0.8197  0.9692
   65MOL0     H 8524   2.881   5.058   6.487  0.1905 -0.1318  0.2831
   65MOL0     H 8525   2.652   5.028   6.626 -1.2428  0.7294  1.7925
   65MOL0     H 8526   2.707   5.178   6.708  0.1536 -0.3204  1.2569
   65MOL0     H 8527   2.864   5.077   6.825 -0.6836 -1.2072  0.7738
   65MOL0     H 8528   2.912   4.968   6.696  1.3517  2.4638  0.5266
   65MOL0     H 8529   2.691   4.929   6.909  2.1655 -1.5246  1.4569
   65MOL0     H 8530   2.681   4.852   6.747 -0.2581  0.5887 -0.5085
   65MOL0     H 8531   2.933   4.832   6.934  0.2784 -0.3221 -1.7960
   65MOL0     H 8532   2.910   4.778   6.780 -4.1930  0.9314 -1.7181
   65MOL0     H 8533   2.604   4.669   6.979 -1.6306 -2.2543  0.4600
   65MOL0     H 8534   2.607   4.290   7.012  2.7027  0.1624 -0.7497
   65MOL0     H 8535   2.499   4.419   6.941 -0.8670 -0.0214  0.5910
   65MOL0     H 8536   2.527   4.532   7.188 -0.2195 -0.3189 -0.7553
   65MOL0     H 8537   2.565   4.366   7.231 -2.3260 -0.7555  2.1802
   65MOL0     H 8538   2.309   4.493   7.143  0.1355 -0.3512 -2.3936
   65MOL0     H 8539   2.344   4.324   7.099  2.3892 -0.6811 -0.1537
   65MOL0     H 8540   2.381   4.275   7.340  3.5671  2.2050 -1.4213
   65MOL0     H 8541   2.214   4.320   7.292  0.0378 -0.1688 -0.0982
   65MOL0     H 8542   2.183   4.530   7.627  0.0427  3.4966  2.0884
   65MOL0     H 8543   2.313   4.597   7.827  4.5555  1.4798  1.3805
   65MOL0     H 8544   2.420   4.356   8.148  2.8099 -1.3815  1.6806
   65MOL0     H 8545   2.449   4.341   8.382  0.1828  0.9030  3.6812
   65MOL0     H 8546   2.379   4.450   8.578 -0.9000  0.3759 -0.5242
   65MOL0     H 8547   2.451   4.512   8.729 -1.9863 -1.0094 -0.0225
   65MOL0     H 8548   2.630   4.328   8.720 -0.4268  2.1865  0.6587
   65MOL0     H 8549   2.524   4.251   8.605  0.9889 -0.2307 -1.2585
   65MOL0     H 8550   2.333   4.292   8.787 -0.7925 -1.6913 -0.9302
   65MOL0     H 8551   2.454   4.350   8.894 -5.4230 -0.4821  1.1138
   65MOL0     H 8552   2.486   4.068   8.773  2.5642  2.2777 -0.1418
   65MOL0     H 8553   2.561   4.134   8.914 -0.8420  0.1481  1.4039
   65MOL0     H 8554   2.266   4.075   8.880  0.4052  1.1154 -2.1102
   65MOL0     H 8555   2.337   4.135   9.026 -1.1757 -1.2617  0.1303
   65MOL0     H 8556   2.479   3.898   9.003 -0.3413  1.9877  1.4494
   65MOL0     H 8557   2.364   3.869   8.882 -0.9658  1.6909 -1.0043
   65MOL0     H 8558   2.310   3.782   9.137 -0.4502 -0.8507  0.2084
   65MOL0     H 8559   2.250   3.958   9.147 -0.1016 -0.8822  1.1329
   65MOL0     H 8560   2.151   3.747   8.956  2.6925  0.1607  0.2894
   65MOL0     H 8561   2.105   3.911   8.958 -0.5624 -2.1784 -2.6233
   65MOL0     H 8562   2.700   4.699   8.382  2.2122 -1.4829 -0.7666
   65MOL0     H 8563   2.661   4.712   8.160  2.2551  0.4707  2.3710
   65MOL0     H 8564   2.676   4.489   7.638 -0.4843 -1.1679  0.1180
   65MOL0     H 8565   2.564   4.444   7.442 -0.6926 -2.0008  1.0245
   65MOL0     H 8566   2.844   5.657   6.649 -0.2357 -1.9992  2.9977
   65MOL0     H 8567   2.896   5.840   6.791  1.2204  0.0484  0.3536
   65MOL0     H 8568   3.132   6.038   7.094  0.3508  1.2311  2.3165
   65MOL0     H 8569   3.153   6.216   7.235 -1.6617  1.2242 -0.9211
   65MOL0     H 8570   3.264   6.345   7.378  1.4500  1.6051  2.6464
   65MOL0     H 8571   3.119   6.434   7.345 -0.7599  0.6680  5.7038
   65MOL0     H 8572   3.239   6.504   7.530  0.3641  2.2876  0.5558
   65MOL0     H 8573   3.390   6.538   7.432  0.3054  2.2911  0.0657
   65MOL0     H 8574   3.155   6.716   7.483  1.3064 -1.5656  1.4740
   65MOL0     H 8575   3.207   6.719   7.317 -0.7277  6.1484  1.7089
   65MOL0     H 8576   3.444   6.752   7.411  2.0370  0.5268  2.6475
   65MOL0     H 8577   3.339   6.889   7.423 -0.2125 -0.3753  1.7537
   65MOL0     H 8578   3.436   6.808   7.820  1.3025  0.6193  0.4449
   65MOL0     H 8579   3.346   6.463   6.962  0.2547  0.3018  1.1357
   65MOL0     H 8580   3.318   6.293   6.787  1.7261  0.9972  0.3743
   66MOL0     O 8581   2.066   0.029   4.934 -0.1407  0.2095  0.4279
   66MOL0     C 8582   2.018   0.128   4.877  0.3547  0.6689  1.0645
   66MOL0     O 8583   1.959   0.234   4.926 -0.4609  0.5977 -0.4995
   66MOL0     C 8584   1.955   0.264   5.051 -0.4797  0.6629 -0.6319
   66MOL0     C 8585   1.840   0.336   5.104 -0.7950 -0.3534 -0.3423
   66MOL0     C 8586   1.855   0.387   5.240  0.4447  0.1225  0.5837
   66MOL0     C 8587   1.956   0.349   5.319  0.2774  0.2288 -0.1009
   66MOL0     O 8588   1.945   0.379   5.451 -0.7178  0.0894 -0.6667
   66MOL0     C 8589   2.056   0.370   5.535  0.0743  0.4042  0.1274
   66MOL0     C 8590   2.015   0.427   5.668  0.2600 -0.1531 -0.7872
   66MOL0     C 8591   1.933   0.555   5.660  0.6896  0.3246 -0.1219
   66MOL0     C 8592   1.926   0.611   5.803  0.3088 -0.1312 -1.0785
   66MOL0     C 8593   1.867   0.749   5.812 -0.6366  0.1467 -0.1524
   66MOL0     C 8594   1.733   0.765   5.741 -0.2837  0.5019 -0.1418
   66MOL0     C 8595   1.674   0.897   5.764 -0.1232 -0.3554 -0.0495
   66MOL0     C 8596   1.728   1.002   5.666  1.2567 -0.1843  0.1729
   66MOL0     N 8597   1.669   1.129   5.712  0.1280 -0.2361 -0.0249
   66MOL0     C 8598   1.690   1.194   5.838  0.0737  0.1932 -0.3502
   66MOL0     C 8599   1.648   1.324   5.810 -0.3684  0.6906 -0.0868
   66MOL0     C 8600   1.635   1.437   5.908  0.1545  0.1917 -0.4635
   66MOL0     C 8601   1.764   1.518   5.908 -0.2230  1.1411 -0.1914
   66MOL0     C 8602   1.741   1.621   6.012 -0.4143 -0.8972 -1.1026
   66MOL0     C 8603   1.877   1.700   6.035  0.4734  0.7801  0.6039
   66MOL0     O 8604   1.832   1.814   6.119  0.2580 -1.6784 -0.5512
   66MOL0     C 8605   1.923   1.901   6.174  0.1307 -1.0251  0.4958
   66MOL0     C 8606   2.057   1.875   6.191 -0.2606  1.0092 -0.2983
   66MOL0     C 8607   2.148   1.962   6.246 -0.9675  0.1940 -0.2875
   66MOL0     C 8608   2.098   2.075   6.309  0.8734 -0.4959  0.3852
   66MOL0     C 8609   2.183   2.158   6.388 -0.2360  0.1057  0.4049
   66MOL0     O 8610   2.316   2.128   6.398  0.2815 -0.4081 -0.2812
   66MOL0     C 8611   2.397   2.192   6.489 -0.9536  0.8518  0.1598
   66MOL0     C 8612   2.530   2.208   6.458  0.7782  0.4292  0.3208
   66MOL0     C 8613   2.613   2.269   6.545  0.1109 -0.9117 -0.2355
   66MOL0     C 8614   2.574   2.319   6.662  0.2813  0.2724 -0.8211
   66MOL0     O 8615   2.654   2.383   6.757  0.3264 -1.0209  0.1878
   66MOL0     C 8616   2.603   2.453   6.879  0.8996  0.2197  0.6690
   66MOL0     C 8617   2.524   2.577   6.840  0.0259  0.1844 -0.3152
   66MOL0     C 8618   2.467   2.652   6.963 -0.7630  0.0074 -0.5547
   66MOL0     C 8619   2.584   2.728   7.060  0.3180  0.1335  0.1639
   66MOL0     C 8620   2.648   2.850   6.991 -0.5583  0.3382 -0.3909
   66MOL0     C 8621   2.552   2.966   6.977  0.1967  0.8080  0.5579
   66MOL0     C 8622   2.619   3.075   6.894 -0.0877  0.2683 -0.4590
   66MOL0     C 8623   2.543   3.213   6.892  0.0047 -0.5834  0.8817
   66MOL0    Cl 8624   2.369   3.203   6.839 -0.1555  0.2548 -0.7632
   66MOL0     C 8625   2.445   2.289   6.703  0.4667 -0.3632  1.0768
   66MOL0     C 8626   2.357   2.228   6.611 -0.1113 -0.2959 -0.1674
   66MOL0     O 8627   2.137   2.264   6.424 -0.6016 -0.0821 -1.0024
   66MOL0     C 8628   1.958   2.104   6.309  0.2157  0.2423 -0.5451
   66MOL0     C 8629   1.869   2.009   6.239  0.6759 -0.2546  0.0208
   66MOL0     N 8630   1.598   1.332   5.684 -0.0359  0.0070  0.2059
   66MOL0     N 8631   1.608   1.218   5.625 -0.1937  0.5293 -1.0462
   66MOL0     C 8632   2.057   0.273   5.263 -0.2811  0.2642 -0.6955
   66MOL0     C 8633   2.066   0.236   5.133  0.2032  0.7867  0.0842
   66MOL0     C 8634   2.062   0.159   4.733  0.2663 -0.7334 -0.5571
   66MOL0     C 8635   2.060   0.292   4.681 -0.0959 -0.6015 -0.9441
   66MOL0     C 8636   2.109   0.321   4.549 -0.1837  0.4461 -0.0164
   66MOL0     C 8637   2.154   0.222   4.462 -0.4989  0.2324 -0.2415
   66MOL0     O 8638   2.186   0.238   4.330  0.5253  0.4554 -0.1262
   66MOL0     C 8639   2.314   0.310   4.305  0.6206 -0.5597 -0.5846
   66MOL0     C 8640   2.406   0.235   4.209 -0.9547 -0.6861  0.3274
   66MOL0     C 8641   2.469   0.114   4.270 -0.2204  0.6736  0.0392
   66MOL0     C 8642   2.541   0.016   4.167 -0.4022 -0.2803 -0.0220
   66MOL0     C 8643   2.575  -0.107   4.237  0.0823 -0.1480  0.1461
   66MOL0     C 8644   2.623  -0.205   4.294 -0.1048  1.0004  0.4800
   66MOL0     C 8645   2.151   0.091   4.513 -0.6401  0.1372  0.7749
   66MOL0     C 8646   2.112   0.066   4.647  0.5209  0.2614 -1.1126
   66MOL0     H 8647   1.768   0.364   5.028  0.1371  3.7305  0.0470
   66MOL0     H 8648   1.770   0.439   5.283  1.7139 -0.2767  3.8653
   66MOL0     H 8649   2.128   0.443   5.496 -2.7744  2.4873 -1.6209
   66MOL0     H 8650   2.094   0.268   5.542 -0.5355  0.2748  2.3787
   66MOL0     H 8651   2.104   0.431   5.730  0.5830  0.4419 -1.2783
   66MOL0     H 8652   1.945   0.356   5.714  0.1546  0.8735  0.6715
   66MOL0     H 8653   1.833   0.535   5.621 -0.4076  0.2994  2.5622
   66MOL0     H 8654   1.991   0.636   5.613  2.0302  0.8129  2.2284
   66MOL0     H 8655   1.868   0.537   5.857  1.0035  0.0342 -0.0805
   66MOL0     H 8656   2.026   0.606   5.846 -0.8413  0.5792  1.9398
   66MOL0     H 8657   1.933   0.820   5.761 -1.1475 -0.7378 -2.1531
   66MOL0     H 8658   1.867   0.782   5.916  0.4773  0.3859 -0.2168
   66MOL0     H 8659   1.661   0.689   5.773 -2.0864  2.4536  0.6556
   66MOL0     H 8660   1.745   0.750   5.634 -0.4151 -0.2756 -0.0527
   66MOL0     H 8661   1.565   0.894   5.768 -0.0888 -1.8602  3.0651
   66MOL0     H 8662   1.703   0.928   5.865  2.5517  0.9960 -1.1254
   66MOL0     H 8663   1.705   0.970   5.564 -0.5233  1.8099 -0.1094
   66MOL0     H 8664   1.836   1.001   5.684  0.8781 -1.4627  2.7048
   66MOL0     H 8665   1.741   1.164   5.929  0.1465 -1.4698 -0.9163
   66MOL0     H 8666   1.609   1.399   6.008  1.5458  2.1616  0.7211
   66MOL0     H 8667   1.556   1.501   5.867  2.4863  1.7148 -2.8832
   66MOL0     H 8668   1.777   1.565   5.810  3.4344  0.9835  0.0835
   66MOL0     H 8669   1.849   1.456   5.939 -0.6823 -0.1460 -1.4074
   66MOL0     H 8670   1.665   1.699   5.999 -1.4940 -0.8987  3.3243
   66MOL0     H 8671   1.717   1.582   6.112  0.1691  1.7966  0.1790
   66MOL0     H 8672   1.933   1.725   5.944  0.6755 -0.3133  0.4184
   66MOL0     H 8673   1.946   1.636   6.090  1.3431  2.0120  0.9816
   66MOL0     H 8674   2.101   1.780   6.165  1.3413  1.1235  1.7405
   66MOL0     H 8675   2.254   1.944   6.231 -1.2015  0.7183 -3.0616
   66MOL0     H 8676   2.557   2.167   6.361 -1.5128  0.0978 -0.2424
   66MOL0     H 8677   2.716   2.265   6.512  0.0683 -4.5710 -0.3850
   66MOL0     H 8678   2.686   2.486   6.942 -0.9626  1.7292  2.4687
   66MOL0     H 8679   2.538   2.378   6.926 -0.8407  0.1602 -1.6657
   66MOL0     H 8680   2.434   2.536   6.794 -0.8516 -0.0527  1.5224
   66MOL0     H 8681   2.579   2.643   6.772  1.1266  0.4819  0.8201
   66MOL0     H 8682   2.421   2.573   7.023  1.6262 -1.0764 -0.0532
   66MOL0     H 8683   2.387   2.722   6.939 -1.7618 -1.9308 -3.4339
   66MOL0     H 8684   2.540   2.761   7.154 -2.5045  1.3261 -1.4501
   66MOL0     H 8685   2.654   2.653   7.097  1.1436  0.1755 -1.2204
   66MOL0     H 8686   2.691   2.827   6.893  2.7876  2.0944  0.5418
   66MOL0     H 8687   2.732   2.890   7.048 -1.6035  1.1271  0.6338
   66MOL0     H 8688   2.516   3.009   7.071 -5.5201  0.4883 -1.1300
   66MOL0     H 8689   2.454   2.943   6.935 -1.1654  0.5413  3.6183
   66MOL0     H 8690   2.725   3.089   6.916  1.2820 -2.2666 -4.2436
   66MOL0     H 8691   2.615   3.029   6.794 -1.7778 -0.6314 -0.0179
   66MOL0     H 8692   2.602   3.284   6.833  0.8911 -0.3080  2.0690
   66MOL0     H 8693   2.535   3.243   6.997  0.1156  1.1096  0.4358
   66MOL0     H 8694   2.412   2.314   6.804  2.8885  3.1620  1.1715
   66MOL0     H 8695   2.257   2.201   6.643 -0.2241  0.7871  0.4595
   66MOL0     H 8696   1.910   2.192   6.350 -2.0675 -1.3966  0.5290
   66MOL0     H 8697   1.764   2.036   6.242  0.9546  0.8847  0.0223
   66MOL0     H 8698   2.146   0.258   5.323 -0.2077 -0.6321 -1.0251
   66MOL0     H 8699   2.150   0.174   5.105 -0.0195 -0.2248  1.5214
   66MOL0     H 8700   2.033   0.379   4.741 -1.3095 -3.0746  2.3924
   66MOL0     H 8701   2.098   0.423   4.513 -0.2854  0.0284 -1.2097
   66MOL0     H 8702   2.363   0.346   4.396  1.7790 -0.7044 -1.1307
   66MOL0     H 8703   2.294   0.400   4.246  0.4015 -1.6507 -2.2384
   66MOL0     H 8704   2.339   0.210   4.126 -1.9450 -0.0046  0.8998
   66MOL0     H 8705   2.492   0.289   4.169 -2.1980  1.4163  0.3789
   66MOL0     H 8706   2.380   0.064   4.310 -1.0233  1.3281 -0.8942
   66MOL0     H 8707   2.530   0.142   4.356  1.3114  0.4299 -0.9350
   66MOL0     H 8708   2.477  -0.008   4.082 -1.3069 -0.6411  0.7332
   66MOL0     H 8709   2.633   0.062   4.130  3.4176 -4.9665  2.5352
   66MOL0     H 8710   2.673  -0.289   4.337  4.0641  0.4847 -4.4094
   66MOL0     H 8711   2.191   0.017   4.445 -2.4849 -0.5746  0.4237
   66MOL0     H 8712   2.130  -0.029   4.696  0.3028 -0.3919 -2.2709
   67MOL0     O 8713   0.396   9.310   2.674 -0.6156 -0.0444  0.3735
   67MOL0     C 8714   0.454   9.302   2.784 -0.6576 -0.4279 -0.0657
   67MOL0     O 8715   0.395   9.293   2.902 -0.6765 -0.0709  0.0492
   67MOL0     C 8716   0.257   9.296   2.921 -1.3602  0.7383  0.2549
   67MOL0     C 8717   0.164   9.347   2.830  0.5618 -0.8929 -0.3742
   67MOL0     C 8718   0.027   9.337   2.856  0.3492 -0.2011  0.1451
   67MOL0     C 8719  -0.021   9.281   2.966  0.0264  0.3619 -0.2551
   67MOL0     O 8720  -0.155   9.266   2.997 -0.2668 -0.0360 -0.5881
   67MOL0     C 8721  -0.258   9.309   2.917  0.6537  0.6263 -0.0972
   67MOL0     C 8722  -0.387   9.246   2.973 -0.1499  0.1955 -0.5578
   67MOL0     C 8723  -0.437   9.324   3.092 -0.6959 -0.5240 -0.5470
   67MOL0     C 8724  -0.556   9.254   3.163  1.0863  0.1690  0.6687
   67MOL0     C 8725  -0.644   9.348   3.248 -0.5756 -0.2624 -0.1028
   67MOL0     C 8726  -0.740   9.263   3.331  0.0954  0.7668 -0.5677
   67MOL0     C 8727  -0.836   9.337   3.425  0.3886  0.4834  0.2485
   67MOL0     C 8728  -0.769   9.389   3.544 -0.0631  0.6869  0.8764
   67MOL0     N 8729  -0.782   9.287   3.650 -0.0050 -0.5529  0.5840
   67MOL0     C 8730  -0.689   9.194   3.685  0.2292 -0.7606  0.1315
   67MOL0     C 8731  -0.751   9.113   3.764  0.3385  0.5029 -0.5210
   67MOL0     C 8732  -0.701   8.986   3.815 -0.1591  0.0574  0.6789
   67MOL0     C 8733  -0.757   8.976   3.960 -0.5401  0.2596  0.1840
   67MOL0     C 8734  -0.701   8.875   4.054 -0.3034  0.4590  0.6194
   67MOL0     C 8735  -0.555   8.895   4.070 -0.5991  0.2988 -0.3033
   67MOL0     O 8736  -0.522   9.029   4.124 -0.1958  0.3571 -0.3201
   67MOL0     C 8737  -0.593   9.063   4.248 -0.8666 -0.3551 -0.1363
   67MOL0     C 8738  -0.631   9.196   4.276 -0.6273 -0.6676  0.1418
   67MOL0     C 8739  -0.692   9.245   4.398  0.3900  0.1728  0.3179
   67MOL0     C 8740  -0.711   9.159   4.505  0.1129 -0.3467  0.2804
   67MOL0     C 8741  -0.758   9.211   4.628  0.1575 -0.0608  0.4641
   67MOL0     O 8742  -0.745   9.129   4.733 -1.0016 -0.4860  0.6662
   67MOL0     C 8743  -0.765   9.172   4.859 -0.8589 -0.0844 -0.5118
   67MOL0     C 8744  -0.670   9.245   4.933 -0.6072 -0.0824  0.0029
   67MOL0     C 8745  -0.692   9.276   5.066 -0.3786 -0.1279  0.2830
   67MOL0     C 8746  -0.822   9.239   5.126 -0.0302 -0.2122  0.2890
   67MOL0     O 8747  -0.859   9.252   5.254 -0.8190 -0.0153  0.0296
   67MOL0     C 8748  -0.741   9.260   5.343 -0.3783 -0.3713  0.4734
   67MOL0     C 8749  -0.691   9.117   5.373 -1.0276  0.3631 -0.1321
   67MOL0     C 8750  -0.560   9.118   5.460  0.0547  0.3619  0.4378
   67MOL0     C 8751  -0.445   9.199   5.399 -0.4501  0.7309  0.2838
   67MOL0     C 8752  -0.299   9.159   5.440 -0.1728  0.0014  0.3633
   67MOL0     C 8753  -0.208   9.272   5.409  0.1028  0.9550 -0.5811
   67MOL0     C 8754  -0.165   9.285   5.262 -0.5954  0.9901  0.1639
   67MOL0     C 8755  -0.114   9.159   5.196  0.1152  0.6283 -0.1229
   67MOL0    Cl 8756  -0.112   9.193   5.015 -0.1921  0.3269 -0.2208
   67MOL0     C 8757  -0.912   9.172   5.048 -0.6344 -0.9230  0.5693
   67MOL0     C 8758  -0.887   9.138   4.917 -0.0378  0.4313  0.6790
   67MOL0     O 8759  -0.806   9.325   4.633 -0.2233  0.2110  0.3924
   67MOL0     C 8760  -0.684   9.017   4.474  0.0058  0.1099 -0.8346
   67MOL0     C 8761  -0.629   8.974   4.352  0.4533 -0.3229  0.6391
   67MOL0     N 8762  -0.878   9.166   3.793 -1.0858  0.6330 -0.5746
   67MOL0     N 8763  -0.893   9.256   3.711  0.5137  0.6849  0.5302
   67MOL0     C 8764   0.068   9.220   3.058  0.7097  0.8691  0.3569
   67MOL0     C 8765   0.207   9.233   3.033  0.4915  0.5386 -0.3589
   67MOL0     C 8766   0.599   9.314   2.783 -0.9972  1.1917  0.8941
   67MOL0     C 8767   0.665   9.369   2.661 -1.1615  0.6804 -0.4521
   67MOL0     C 8768   0.806   9.360   2.660  0.6080  0.0166  0.8713
   67MOL0     C 8769   0.882   9.331   2.774  0.7614  0.1379  0.6087
   67MOL0     O 8770   1.020   9.344   2.761  0.0352  0.0934  0.4652
   67MOL0     C 8771   1.100   9.257   2.841 -0.0387  0.3883  0.3261
   67MOL0     C 8772   1.226   9.225   2.757 -0.4540 -0.0351 -0.4925
   67MOL0     C 8773   1.319   9.346   2.769 -0.4083 -0.4926 -0.1567
   67MOL0     C 8774   1.424   9.331   2.662  0.1701 -0.5274  0.0722
   67MOL0     C 8775   1.543   9.273   2.711 -0.9810 -0.8041  0.9195
   67MOL0     C 8776   1.658   9.246   2.746  0.6444 -0.7505 -0.0760
   67MOL0     C 8777   0.819   9.287   2.887 -0.0987  0.7211  0.1767
   67MOL0     C 8778   0.681   9.264   2.896 -0.0523  0.7396 -1.1638
   67MOL0     H 8779   0.191   9.407   2.744  0.1331 -0.1495  0.0039
   67MOL0     H 8780  -0.036   9.394   2.789 -0.5181 -0.4764  0.7093
   67MOL0     H 8781  -0.258   9.268   2.815 -2.0694 -2.0089  0.8298
   67MOL0     H 8782  -0.241   9.416   2.926  2.1045  0.4887 -0.7953
   67MOL0     H 8783  -0.377   9.138   2.989  1.6189  0.3482 -0.4589
   67MOL0     H 8784  -0.462   9.250   2.893 -0.0166 -2.2231 -0.8765
   67MOL0     H 8785  -0.450   9.428   3.061  1.7669  0.9282  2.6890
   67MOL0     H 8786  -0.360   9.330   3.169  1.2076  0.9126 -2.4383
   67MOL0     H 8787  -0.625   9.205   3.093  0.9788 -1.2597  1.7241
   67MOL0     H 8788  -0.507   9.174   3.219  1.7143 -0.3268 -0.5450
   67MOL0     H 8789  -0.697   9.412   3.176  0.4028 -0.0236 -0.6312
   67MOL0     H 8790  -0.581   9.411   3.310 -2.0923  2.5680 -1.2565
   67MOL0     H 8791  -0.689   9.178   3.377 -1.2644  0.9793  1.5239
   67MOL0     H 8792  -0.800   9.209   3.258  1.1178 -0.0440 -0.8257
   67MOL0     H 8793  -0.887   9.411   3.363 -1.7583 -0.8134  0.3687
   67MOL0     H 8794  -0.922   9.278   3.460  1.3317 -0.1732  1.5416
   67MOL0     H 8795  -0.830   9.477   3.565 -0.5656  1.1268 -1.9954
   67MOL0     H 8796  -0.668   9.425   3.524 -0.1666  1.6629  1.9678
   67MOL0     H 8797  -0.589   9.172   3.649  1.3644 -0.2844  2.8031
   67MOL0     H 8798  -0.592   8.974   3.820 -0.3460 -2.7037 -0.1330
   67MOL0     H 8799  -0.735   8.909   3.746  2.7006 -1.6676  1.0325
   67MOL0     H 8800  -0.866   8.976   3.953 -0.6661  0.8981  1.8204
   67MOL0     H 8801  -0.742   9.070   4.013 -0.1782  1.7830 -2.4124
   67MOL0     H 8802  -0.760   8.880   4.145 -0.8076 -1.9857  0.4895
   67MOL0     H 8803  -0.723   8.776   4.014 -2.8099  0.7572  1.1382
   67MOL0     H 8804  -0.494   8.881   3.981 -0.6812 -0.8504 -0.1916
   67MOL0     H 8805  -0.513   8.816   4.132  0.7750 -0.2056 -1.8128
   67MOL0     H 8806  -0.618   9.273   4.200 -1.6929 -2.6604 -2.1907
   67MOL0     H 8807  -0.713   9.351   4.406  0.2816  0.1613  0.2063
   67MOL0     H 8808  -0.570   9.260   4.896 -0.2819 -0.9915  0.4863
   67MOL0     H 8809  -0.610   9.320   5.121  1.0194 -3.7391  1.4006
   67MOL0     H 8810  -0.774   9.313   5.433 -0.1311  1.3755 -0.4164
   67MOL0     H 8811  -0.662   9.322   5.300  0.7518 -2.7851 -1.1789
   67MOL0     H 8812  -0.671   9.068   5.277  0.5467  0.0453  0.3245
   67MOL0     H 8813  -0.769   9.076   5.437 -2.5579  2.0004 -0.8759
   67MOL0     H 8814  -0.530   9.013   5.473  2.0229  0.7318 -0.6955
   67MOL0     H 8815  -0.580   9.163   5.557  2.0532  0.5412  0.7970
   67MOL0     H 8816  -0.445   9.170   5.293 -4.9092 -0.2902  0.3863
   67MOL0     H 8817  -0.449   9.306   5.420 -1.4415  0.4622  1.5801
   67MOL0     H 8818  -0.278   9.062   5.392  0.5193  0.9493 -1.3433
   67MOL0     H 8819  -0.289   9.138   5.547 -1.5184 -2.2308  0.1152
   67MOL0     H 8820  -0.119   9.261   5.472 -0.3273  0.9314  0.0298
   67MOL0     H 8821  -0.253   9.363   5.450 -4.2431 -1.3774  0.4717
   67MOL0     H 8822  -0.253   9.321   5.207 -1.7435 -3.1612 -1.0988
   67MOL0     H 8823  -0.081   9.355   5.267  1.1927 -1.0782  0.5520
   67MOL0     H 8824  -0.177   9.072   5.216  3.0865 -1.5557  0.3763
   67MOL0     H 8825  -0.016   9.131   5.236 -0.6305 -2.1581 -0.0684
   67MOL0     H 8826  -1.005   9.136   5.090 -1.3314 -1.7411 -1.5086
   67MOL0     H 8827  -0.948   9.075   4.854  3.6021 -2.6367 -0.1824
   67MOL0     H 8828  -0.701   8.949   4.557 -0.6360  1.0887 -0.1406
   67MOL0     H 8829  -0.598   8.870   4.350  0.1693 -0.4027  0.2773
   67MOL0     H 8830   0.030   9.165   3.144  0.1357  1.5290  0.5347
   67MOL0     H 8831   0.276   9.197   3.108 -1.3966  1.6233  2.0632
   67MOL0     H 8832   0.621   9.409   2.570 -0.7915 -0.3605 -1.1076
   67MOL0     H 8833   0.849   9.401   2.569  0.4643  1.3184  1.3611
   67MOL0     H 8834   1.061   9.157   2.862 -0.5446  0.1970 -1.3694
   67MOL0     H 8835   1.119   9.301   2.939 -0.7186 -1.9505  1.5954
   67MOL0     H 8836   1.275   9.147   2.816  0.5593  0.6910 -0.3566
   67MOL0     H 8837   1.205   9.192   2.655 -2.9702  0.5329 -0.2334
   67MOL0     H 8838   1.360   9.346   2.870  0.1122 -1.7285 -0.3544
   67MOL0     H 8839   1.270   9.443   2.755  3.9646  2.0515  0.3391
   67MOL0     H 8840   1.382   9.281   2.574 -1.7128  3.2098 -1.4064
   67MOL0     H 8841   1.449   9.431   2.625  1.8207 -1.0572 -0.3218
   67MOL0     H 8842   1.762   9.220   2.751  0.4751 -1.2719  0.8899
   67MOL0     H 8843   0.879   9.255   2.973 -1.0041 -0.7997  0.2804
   67MOL0     H 8844   0.633   9.220   2.983  1.1941 -2.8907 -2.1254
   68MOL0     O 8845   9.630   7.108   8.503  0.4533 -0.3256 -0.3712
   68MOL0     C 8846   9.704   7.060   8.590 -0.0693 -0.1146  0.5206
   68MOL0     O 8847   9.673   6.976   8.698 -0.8668 -0.4479 -0.4588
   68MOL0     C 8848   9.542   6.917   8.713  0.1056 -0.6076 -0.1730
   68MOL0     C 8849   9.505   6.872   8.843  0.0361  0.1381  0.1442
   68MOL0     C 8850   9.374   6.816   8.864  0.6131 -0.5378  1.1319
   68MOL0     C 8851   9.284   6.807   8.756 -0.0657  0.1679 -0.7418
   68MOL0     O 8852   9.156   6.746   8.748 -0.2204 -0.0402 -0.6281
   68MOL0     C 8853   9.128   6.665   8.861  0.4454 -0.9345 -1.2839
   68MOL0     C 8854   8.998   6.592   8.830 -0.4882 -0.9213  0.7007
   68MOL0     C 8855   8.990   6.470   8.927  0.2081 -0.1856 -0.2056
   68MOL0     C 8856   8.912   6.353   8.865 -0.4703 -0.3065  0.2269
   68MOL0     C 8857   8.912   6.229   8.961  0.4529  0.8699  0.4093
   68MOL0     C 8858   9.036   6.145   8.954  1.1672 -0.1704  0.4828
   68MOL0     C 8859   9.059   6.088   8.815  0.0550  1.1890 -0.1819
   68MOL0     C 8860   9.153   5.971   8.815  0.6308  0.0675  0.1553
   68MOL0     N 8861   9.267   6.002   8.910  0.0796 -0.0787 -0.3401
   68MOL0     C 8862   9.370   6.098   8.901  0.3519 -0.7218 -0.4474
   68MOL0     C 8863   9.460   6.062   8.995  0.1752 -0.1336  0.4119
   68MOL0     C 8864   9.581   6.149   9.037  0.4787 -0.2243 -0.2465
   68MOL0     C 8865   9.693   6.082   9.105 -0.7509  0.1034 -0.6773
   68MOL0     C 8866   9.803   6.188   9.127 -0.5784  0.1945  0.2068
   68MOL0     C 8867   9.935   6.132   9.189 -0.4320 -0.0318  0.3939
   68MOL0     O 8868  10.030   6.231   9.149 -0.4379 -1.1901 -0.3819
   68MOL0     C 8869  10.164   6.211   9.168  0.2515 -0.1374 -0.5228
   68MOL0     C 8870  10.239   6.298   9.086 -0.4539  0.6260  0.2675
   68MOL0     C 8871  10.372   6.290   9.088 -0.0992 -0.4039 -0.2198
   68MOL0     C 8872  10.437   6.201   9.171  0.4888 -0.0653  0.6451
   68MOL0     C 8873  10.585   6.199   9.179  0.0151  0.3760  0.1993
   68MOL0     O 8874  10.657   6.082   9.167  0.2179 -0.0465 -0.1263
   68MOL0     C 8875  10.784   6.090   9.174  0.1526 -0.1447 -0.2708
   68MOL0     C 8876  10.850   6.159   9.073  0.2571  0.2534 -0.7282
   68MOL0     C 8877  10.989   6.180   9.078  0.1712  0.5397  0.1988
   68MOL0     C 8878  11.061   6.132   9.188  0.4987  0.1871  0.5501
   68MOL0     O 8879  11.203   6.129   9.200  0.6597  0.2540 -0.2500
   68MOL0     C 8880  11.288   6.190   9.103  0.3055  0.3100 -0.9163
   68MOL0     C 8881  11.430   6.195   9.169  0.2804 -0.4255  1.0310
   68MOL0     C 8882  11.447   6.318   9.265 -0.1393  0.3423  1.4238
   68MOL0     C 8883  11.444   6.459   9.204 -0.1169 -0.5096  0.3758
   68MOL0     C 8884  11.480   6.572   9.291  0.5127 -1.8227 -0.4048
   68MOL0     C 8885  11.527   6.701   9.212 -0.2285 -0.2725  1.0572
   68MOL0     C 8886  11.567   6.817   9.302 -0.5903  0.1245  0.3187
   68MOL0     C 8887  11.564   6.948   9.225  0.5497 -0.2118 -0.1176
   68MOL0    Cl 8888  11.657   6.948   9.068 -0.6870 -0.2574  0.6020
   68MOL0     C 8889  10.997   6.063   9.287 -0.7483  0.0806 -0.0181
   68MOL0     C 8890  10.857   6.036   9.282  0.0742  0.1887 -1.4791
   68MOL0     O 8891  10.631   6.312   9.202 -0.1627 -0.2926  0.4917
   68MOL0     C 8892  10.358   6.108   9.240 -0.2805  0.2501  0.0532
   68MOL0     C 8893  10.219   6.114   9.245 -0.4250  0.5318  0.0846
   68MOL0     N 8894   9.428   5.943   9.054 -0.2566 -0.3240  1.0538
   68MOL0     N 8895   9.315   5.912   9.002  0.0606  0.1255  0.2375
   68MOL0     C 8896   9.328   6.843   8.634  0.8654  0.2951  0.2211
   68MOL0     C 8897   9.448   6.904   8.605  0.1406 -0.6172 -0.8566
   68MOL0     C 8898   9.845   7.084   8.564 -0.0015 -0.0661  0.6615
   68MOL0     C 8899   9.891   7.159   8.457  0.1518 -1.3826  0.5629
   68MOL0     C 8900  10.026   7.183   8.441 -0.1967 -0.0926 -0.0374
   68MOL0     C 8901  10.127   7.123   8.525  0.6607  0.4060  0.5184
   68MOL0     O 8902  10.260   7.154   8.496 -1.0592  0.1759 -0.3387
   68MOL0     C 8903  10.359   7.103   8.591 -0.8391 -0.1013 -0.0893
   68MOL0     C 8904  10.374   7.191   8.711 -0.4516 -0.2967 -1.0179
   68MOL0     C 8905  10.472   7.129   8.810 -0.6274 -0.2013 -0.3896
   68MOL0     C 8906  10.620   7.172   8.774 -0.2618  0.6531 -1.1339
   68MOL0     C 8907  10.732   7.124   8.862  0.1097 -0.3460 -0.0582
   68MOL0     C 8908  10.801   7.083   8.949 -0.5768 -0.1868  0.7401
   68MOL0     C 8909  10.076   7.053   8.636 -0.4881 -0.2140  0.6568
   68MOL0     C 8910   9.942   7.037   8.654  0.1146 -0.0986  0.3575
   68MOL0     H 8911   9.584   6.893   8.915  1.4456  2.0828 -1.8154
   68MOL0     H 8912   9.333   6.770   8.953 -3.9342 -1.8520 -1.2833
   68MOL0     H 8913   9.107   6.729   8.947  0.9168 -4.7821  2.0093
   68MOL0     H 8914   9.205   6.601   8.904  0.5086  0.6653  1.1827
   68MOL0     H 8915   9.001   6.544   8.732 -0.5405 -3.2692  1.7581
   68MOL0     H 8916   8.913   6.660   8.834  1.8431  2.1180  2.6800
   68MOL0     H 8917   8.957   6.507   9.024  1.1948 -1.5190  0.6752
   68MOL0     H 8918   9.086   6.424   8.952 -1.1816 -3.5094 -0.4547
   68MOL0     H 8919   8.810   6.390   8.852 -1.8242 -2.4378  3.3514
   68MOL0     H 8920   8.951   6.331   8.765  3.1368  3.3695  0.5677
   68MOL0     H 8921   8.831   6.160   8.936  1.1570 -0.4168  1.5987
   68MOL0     H 8922   8.884   6.263   9.061  1.4623  3.8702 -0.2028
   68MOL0     H 8923   9.004   6.074   9.030  1.7843  0.9310  1.8149
   68MOL0     H 8924   9.118   6.193   9.008  2.3994 -3.7767  2.0633
   68MOL0     H 8925   8.968   6.065   8.759  0.0269  3.8245 -1.3775
   68MOL0     H 8926   9.108   6.168   8.759  4.0601 -2.4131 -2.4589
   68MOL0     H 8927   9.194   5.942   8.718  1.0652  1.1319 -0.0022
   68MOL0     H 8928   9.101   5.881   8.849  0.6944 -0.2610 -0.6083
   68MOL0     H 8929   9.372   6.192   8.846 -1.6493  0.9731  2.1529
   68MOL0     H 8930   9.552   6.225   9.110  1.6829  0.4931 -0.4879
   68MOL0     H 8931   9.607   6.208   8.949  0.1066 -0.6644 -0.6532
   68MOL0     H 8932   9.740   5.999   9.053  0.6309 -0.1811  0.9496
   68MOL0     H 8933   9.658   6.040   9.199  0.2495 -0.8879 -0.7422
   68MOL0     H 8934   9.806   6.222   9.023  0.1822  0.7098  0.3979
   68MOL0     H 8935   9.769   6.270   9.191  1.6482  3.3639 -2.3480
   68MOL0     H 8936   9.959   6.032   9.153 -0.4482 -0.0087  0.3205
   68MOL0     H 8937   9.928   6.136   9.298 -0.4469  0.1960  0.3846
   68MOL0     H 8938  10.181   6.363   9.021 -1.4326  1.9514  2.3591
   68MOL0     H 8939  10.437   6.359   9.035  0.6552  0.6510  1.9424
   68MOL0     H 8940  10.785   6.187   8.990 -1.1172  2.3179  0.9436
   68MOL0     H 8941  11.037   6.239   9.001 -3.4953  0.9111 -2.0472
   68MOL0     H 8942  11.263   6.294   9.082  1.5305  1.0723  1.1210
   68MOL0     H 8943  11.280   6.139   9.007 -4.1686  3.1659 -2.3622
   68MOL0     H 8944  11.503   6.195   9.088 -0.2768 -2.4840  0.4678
   68MOL0     H 8945  11.460   6.103   9.219 -2.0127 -2.7146 -1.4491
   68MOL0     H 8946  11.549   6.316   9.306  0.0686 -4.4980  1.2163
   68MOL0     H 8947  11.373   6.306   9.344 -0.2707  0.5594  1.3375
   68MOL0     H 8948  11.511   6.451   9.117  0.2518 -2.5410  0.8015
   68MOL0     H 8949  11.344   6.475   9.163  0.7704  1.8529 -1.0992
   68MOL0     H 8950  11.567   6.542   9.349 -0.5717 -1.7693  1.2906
   68MOL0     H 8951  11.397   6.598   9.356 -1.9018 -2.0058 -3.2086
   68MOL0     H 8952  11.461   6.744   9.137  2.4511  0.5620 -0.9615
   68MOL0     H 8953  11.618   6.676   9.156 -0.9203  0.7483 -0.6057
   68MOL0     H 8954  11.501   6.827   9.390 -1.2158  0.7384 -0.2006
   68MOL0     H 8955  11.663   6.795   9.349 -0.1579  2.3301  0.5933
   68MOL0     H 8956  11.603   7.027   9.289  1.0601 -0.1811 -0.4675
   68MOL0     H 8957  11.459   6.976   9.212  0.3660 -0.4951  0.7181
   68MOL0     H 8958  11.058   6.015   9.363 -1.6558  0.9335  1.2991
   68MOL0     H 8959  10.812   5.974   9.359 -2.0967  2.1797 -1.0000
   68MOL0     H 8960  10.414   6.046   9.309  0.6205  2.7290  1.7105
   68MOL0     H 8961  10.156   6.045   9.300 -1.6310 -0.0727 -1.9581
   68MOL0     H 8962   9.260   6.828   8.550  1.0028  1.0416 -0.0365
   68MOL0     H 8963   9.472   6.943   8.506  1.9885  2.3857  0.6176
   68MOL0     H 8964   9.822   7.207   8.389 -1.4671 -2.3677  1.4354
   68MOL0     H 8965  10.053   7.243   8.355 -1.5351  2.0001  0.9176
   68MOL0     H 8966  10.458   7.099   8.544  1.5974 -1.8334  4.5662
   68MOL0     H 8967  10.337   7.001   8.621  5.0761 -0.4677  5.1908
   68MOL0     H 8968  10.428   7.280   8.677 -0.2716 -0.3976 -0.9997
   68MOL0     H 8969  10.283   7.217   8.766  0.2899 -0.6484  0.4208
   68MOL0     H 8970  10.453   7.022   8.807 -0.9780 -0.2355  1.7184
   68MOL0     H 8971  10.455   7.163   8.913  0.1418  2.1502 -0.9706
   68MOL0     H 8972  10.645   7.146   8.671 -1.8298  1.2384 -1.6824
   68MOL0     H 8973  10.629   7.280   8.786 -0.8901  0.6067 -0.1228
   68MOL0     H 8974  10.857   7.062   9.038 -1.0596  1.8402  1.5783
   68MOL0     H 8975  10.125   7.005   8.720 -0.3671  0.0847  0.7585
   68MOL0     H 8976   9.923   6.972   8.738  3.3155  1.9879  2.9313
   69MOL0     O 8977   9.613   6.411   3.048  0.2875 -0.8501  1.2602
   69MOL0     C 8978   9.550   6.520   3.031 -0.8500  0.9671 -0.0030
   69MOL0     O 8979   9.613   6.643   2.998 -0.5014  0.4515 -0.2760
   69MOL0     C 8980   9.756   6.651   3.005  0.0520 -0.3593  0.0923
   69MOL0     C 8981   9.823   6.739   3.093 -0.9295  0.1537  0.3025
   69MOL0     C 8982   9.964   6.744   3.094 -0.2489  0.1545  0.1044
   69MOL0     C 8983  10.039   6.675   3.001  0.3571  0.3201 -0.4922
   69MOL0     O 8984  10.171   6.700   2.991  0.1318 -0.5060  0.8850
   69MOL0     C 8985  10.253   6.625   2.898  0.3973 -0.1641  0.4693
   69MOL0     C 8986  10.398   6.686   2.891  0.0410  0.4514  0.1790
   69MOL0     C 8987  10.479   6.624   2.784  0.1350 -0.5923  1.0949
   69MOL0     C 8988  10.629   6.649   2.799 -1.4131  0.7418 -0.3325
   69MOL0     C 8989  10.707   6.530   2.857 -0.3063 -0.0391  0.0762
   69MOL0     C 8990  10.761   6.562   3.006 -0.4848 -0.1970  0.6574
   69MOL0     C 8991  10.862   6.682   3.012  0.7318  1.0669 -0.7954
   69MOL0     C 8992  10.949   6.657   3.141 -0.7356  0.0058  0.4977
   69MOL0     N 8993  11.053   6.764   3.170  0.6115  0.7532  0.1095
   69MOL0     C 8994  11.105   6.770   3.296 -0.2813 -0.1761 -0.3743
   69MOL0     C 8995  11.199   6.874   3.286  0.5223 -0.0224 -0.3472
   69MOL0     C 8996  11.280   6.952   3.389 -0.1867  0.1798  0.0509
   69MOL0     C 8997  11.412   6.887   3.421  0.2303  0.0597  0.6795
   69MOL0     C 8998  11.463   6.881   3.564 -0.5194 -0.1562 -0.5155
   69MOL0     C 8999  11.596   6.809   3.569 -0.2334  0.3852  0.6109
   69MOL0     O 9000  11.701   6.897   3.520  0.3191  0.0223 -0.2994
   69MOL0     C 9001  11.796   6.959   3.598  0.9847  0.9048  0.7299
   69MOL0     C 9002  11.870   7.059   3.547 -0.9165 -0.2279  0.1762
   69MOL0     C 9003  11.988   7.110   3.605  0.7905  0.2344 -1.0131
   69MOL0     C 9004  12.014   7.067   3.732 -1.2037 -0.6632  0.1790
   69MOL0     C 9005  12.139   7.111   3.792  0.1989 -0.8741 -0.7605
   69MOL0     O 9006  12.143   7.090   3.930  0.6042 -0.4106  0.0229
   69MOL0     C 9007  12.246   7.142   4.000 -0.4196 -0.1384  0.6826
   69MOL0     C 9008  12.252   7.280   4.016  0.7789 -0.0803  0.0759
   69MOL0     C 9009  12.354   7.334   4.096  0.1000  0.0254 -1.0503
   69MOL0     C 9010  12.458   7.249   4.146 -1.3332 -0.5042  0.9505
   69MOL0     O 9011  12.562   7.321   4.204 -0.0177  0.4596  0.5862
   69MOL0     C 9012  12.613   7.257   4.320 -0.1726  0.5641 -0.2930
   69MOL0     C 9013  12.733   7.342   4.364 -0.4091  0.7120 -0.1712
   69MOL0     C 9014  12.826   7.289   4.473  0.2399 -0.7034  0.0451
   69MOL0     C 9015  12.775   7.258   4.620  0.0429  0.3441  0.1099
   69MOL0     C 9016  12.750   7.107   4.637 -0.1788 -0.4747 -0.4853
   69MOL0     C 9017  12.747   7.077   4.790 -0.0878  0.8731  0.7257
   69MOL0     C 9018  12.707   6.936   4.828  0.0633  0.2147  0.7163
   69MOL0     C 9019  12.701   6.923   4.972  0.7571 -0.0555  0.2711
   69MOL0    Cl 9020  12.667   6.744   5.017 -0.7262 -0.1279 -0.4005
   69MOL0     C 9021  12.451   7.110   4.126 -1.3269  0.0775 -0.2358
   69MOL0     C 9022  12.344   7.058   4.059 -0.4980  0.2621  1.5578
   69MOL0     O 9023  12.237   7.155   3.730 -0.0288 -0.5340 -0.2843
   69MOL0     C 9024  11.939   6.978   3.796  0.1515  0.2914  0.5712
   69MOL0     C 9025  11.825   6.923   3.729 -0.5033  0.1942 -0.4338
   69MOL0     N 9026  11.220   6.901   3.161  0.1769  0.0044 -0.1220
   69MOL0     N 9027  11.128   6.834   3.087  0.2785  0.7349  0.7617
   69MOL0     C 9028   9.966   6.587   2.915 -0.0883 -1.1143 -0.5650
   69MOL0     C 9029   9.830   6.574   2.925 -0.7011 -1.3688  0.3128
   69MOL0     C 9030   9.414   6.533   3.079 -0.5016 -0.3758 -0.4191
   69MOL0     C 9031   9.332   6.423   3.111  0.0182 -0.4507 -0.4235
   69MOL0     C 9032   9.204   6.449   3.168  0.8236 -0.5050 -0.1775
   69MOL0     C 9033   9.149   6.579   3.189  0.0191  0.3849 -0.0366
   69MOL0     O 9034   9.019   6.592   3.232  0.1068 -0.1023 -0.1831
   69MOL0     C 9035   9.014   6.564   3.375 -0.9756  0.6272 -0.6088
   69MOL0     C 9036   8.998   6.693   3.457  0.8603 -0.4821  0.5367
   69MOL0     C 9037   9.026   6.664   3.609  0.0557  1.0084 -0.1980
   69MOL0     C 9038   9.175   6.645   3.633 -0.5941  0.7945 -0.4186
   69MOL0     C 9039   9.212   6.668   3.775  0.0549  1.2212  0.5166
   69MOL0     C 9040   9.217   6.678   3.896  0.0511 -0.8041 -0.5489
   69MOL0     C 9041   9.228   6.679   3.153  0.2316  0.1331 -0.9270
   69MOL0     C 9042   9.362   6.656   3.111 -0.0469 -0.0411  0.0973
   69MOL0     H 9043   9.763   6.794   3.165  0.3651  0.7510  0.9466
   69MOL0     H 9044  10.009   6.807   3.170  1.1551 -0.0344 -0.5300
   69MOL0     H 9045  10.200   6.617   2.803  0.1486  1.1490  0.4777
   69MOL0     H 9046  10.253   6.521   2.933 -4.4457 -1.0585 -1.5037
   69MOL0     H 9047  10.433   6.668   2.994 -1.2198  4.2935  1.4550
   69MOL0     H 9048  10.402   6.794   2.880  0.3130  0.4442  0.1880
   69MOL0     H 9049  10.454   6.674   2.690  0.3223 -0.1526  1.2801
   69MOL0     H 9050  10.452   6.519   2.765  0.1207 -0.1189 -2.1982
   69MOL0     H 9051  10.666   6.675   2.700 -0.3849 -0.0886 -0.1928
   69MOL0     H 9052  10.646   6.740   2.856 -0.3020  1.3584 -1.6077
   69MOL0     H 9053  10.793   6.512   2.792 -1.8671  2.1980 -2.8853
   69MOL0     H 9054  10.651   6.436   2.853  1.8056 -1.3349 -0.4669
   69MOL0     H 9055  10.798   6.470   3.052  2.9088  0.6061 -0.1681
   69MOL0     H 9056  10.674   6.579   3.069 -0.5781 -0.3840  0.5809
   69MOL0     H 9057  10.934   6.670   2.930  0.6926 -4.8602 -0.4415
   69MOL0     H 9058  10.808   6.777   3.013 -0.6427  0.3132 -0.9916
   69MOL0     H 9059  10.997   6.558   3.138  0.0728  0.3757  0.8531
   69MOL0     H 9060  10.878   6.654   3.224 -0.8238 -0.3605  0.4106
   69MOL0     H 9061  11.055   6.724   3.380 -3.5656  2.2416 -0.7576
   69MOL0     H 9062  11.223   6.952   3.482  1.8420  1.5452  1.3564
   69MOL0     H 9063  11.291   7.056   3.358  1.0321 -0.5746 -2.2940
   69MOL0     H 9064  11.489   6.927   3.355  1.3828 -1.7821  0.8584
   69MOL0     H 9065  11.383   6.787   3.387  0.1073  0.5558 -0.7202
   69MOL0     H 9066  11.474   6.979   3.612 -1.5502  0.1745 -0.9416
   69MOL0     H 9067  11.388   6.819   3.615 -0.5424 -0.9272 -1.4480
   69MOL0     H 9068  11.599   6.720   3.506  5.1362 -0.9763  2.2672
   69MOL0     H 9069  11.607   6.778   3.674 -1.8397  1.1429  1.0327
   69MOL0     H 9070  11.852   7.111   3.453 -2.9363 -0.0800  0.5936
   69MOL0     H 9071  12.049   7.181   3.549  0.3123  0.0079 -1.8506
   69MOL0     H 9072  12.174   7.342   3.972 -0.2017 -1.4495 -0.1750
   69MOL0     H 9073  12.360   7.442   4.104 -1.6090  0.0095  1.8737
   69MOL0     H 9074  12.635   7.153   4.292  0.3902  0.7471 -0.5399
   69MOL0     H 9075  12.539   7.254   4.401 -1.7259 -0.4193 -1.6841
   69MOL0     H 9076  12.689   7.439   4.386 -1.8495  0.1534 -0.4840
   69MOL0     H 9077  12.801   7.349   4.279  0.8892 -1.6512  0.5860
   69MOL0     H 9078  12.897   7.371   4.489 -0.3808 -0.3161  0.8838
   69MOL0     H 9079  12.890   7.207   4.438 -1.1995 -1.3036 -1.2756
   69MOL0     H 9080  12.849   7.304   4.686 -0.9178  0.0860  1.3888
   69MOL0     H 9081  12.677   7.300   4.643 -0.1916 -1.2493  2.3135
   69MOL0     H 9082  12.834   7.059   4.585  0.9707  2.2563 -1.3048
   69MOL0     H 9083  12.653   7.074   4.600 -0.7302  0.8579 -0.2847
   69MOL0     H 9084  12.684   7.145   4.848 -0.3431  1.9563 -0.7596
   69MOL0     H 9085  12.846   7.099   4.833 -0.1452  1.3457  0.6253
   69MOL0     H 9086  12.617   6.896   4.781  0.2079  1.5909 -0.8031
   69MOL0     H 9087  12.788   6.868   4.800  0.3435  0.3438  1.2002
   69MOL0     H 9088  12.619   6.992   4.994  2.2904  2.4008 -1.1969
   69MOL0     H 9089  12.798   6.950   5.015  2.4144 -4.2975 -0.3167
   69MOL0     H 9090  12.526   7.038   4.155 -0.6326  0.9278  0.1439
   69MOL0     H 9091  12.332   6.951   4.048 -1.4402  0.5280 -0.5133
   69MOL0     H 9092  11.944   6.958   3.902  1.2278  2.7330  1.0336
   69MOL0     H 9093  11.766   6.851   3.786 -2.0012  0.1042 -2.0312
   69MOL0     H 9094  10.016   6.526   2.841 -0.2923  2.2145 -3.7572
   69MOL0     H 9095   9.771   6.502   2.869 -1.0823 -1.3633  0.6951
   69MOL0     H 9096   9.367   6.321   3.098 -0.7125 -0.7311 -0.2459
   69MOL0     H 9097   9.142   6.366   3.200 -1.3897  1.3715  0.6697
   69MOL0     H 9098   9.111   6.519   3.397 -0.4563  0.1857 -3.4471
   69MOL0     H 9099   8.947   6.480   3.397  0.9410 -0.8285 -0.0463
   69MOL0     H 9100   9.068   6.763   3.411  3.7662 -2.9327  0.8738
   69MOL0     H 9101   8.899   6.736   3.438  3.9932  7.5290 -1.7794
   69MOL0     H 9102   8.960   6.579   3.629  0.1641 -0.1280 -3.8596
   69MOL0     H 9103   9.000   6.754   3.665  2.0184  1.2285  0.4140
   69MOL0     H 9104   9.203   6.544   3.602 -2.3000  0.2213 -0.2515
   69MOL0     H 9105   9.236   6.719   3.582  3.1247  0.4183  2.9849
   69MOL0     H 9106   9.214   6.696   4.001  0.1331  2.6207 -1.0399
   69MOL0     H 9107   9.196   6.782   3.164  3.3107  0.9217  4.8737
   69MOL0     H 9108   9.416   6.748   3.086 -1.0677  0.6414  0.3483
   70MOL0     O 9109   2.833   0.596   9.368 -0.1314  0.1974 -0.1274
   70MOL0     C 9110   2.831   0.697   9.435 -0.2172 -0.1260 -1.0830
   70MOL0     O 9111   2.883   0.709   9.559  0.2909  0.1732  0.1777
   70MOL0     C 9112   2.918   0.588   9.622 -0.6414 -0.8408  0.8512
   70MOL0     C 9113   3.051   0.577   9.673  0.7467 -1.0830  0.2987
   70MOL0     C 9114   3.093   0.463   9.729  0.1043  0.0732  0.7948
   70MOL0     C 9115   3.004   0.355   9.749 -0.0764  0.2729  0.0750
   70MOL0     O 9116   3.064   0.238   9.798  0.3992  0.0044 -0.5657
   70MOL0     C 9117   2.997   0.106   9.796 -0.3096 -0.5539  0.2555
   70MOL0     C 9118   2.921   0.072   9.916  0.8208 -0.0493 -1.1934
   70MOL0     C 9119   2.879  -0.076   9.910  0.9045  0.7834 -0.9712
   70MOL0     C 9120   2.784  -0.112  10.024  0.0265 -0.0312  0.5646
   70MOL0     C 9121   2.717  -0.245  10.000 -0.1092  0.1653 -0.1607
   70MOL0     C 9122   2.800  -0.375  10.034 -0.4441 -0.2866 -0.3486
   70MOL0     C 9123   2.691  -0.482  10.027  0.3636  0.4237 -0.3370
   70MOL0     C 9124   2.757  -0.613  10.077  0.6088 -0.1843  0.2951
   70MOL0     N 9125   2.663  -0.727  10.058 -0.5936 -0.3956 -0.3418
   70MOL0     C 9126   2.582  -0.788  10.145  0.2233  0.8312 -0.6825
   70MOL0     C 9127   2.503  -0.866  10.071  0.1767 -0.9665  0.3821
   70MOL0     C 9128   2.392  -0.960  10.104 -0.2583 -0.4351 -0.9772
   70MOL0     C 9129   2.258  -0.878  10.115 -0.6977 -0.8778 -0.7802
   70MOL0     C 9130   2.147  -0.954  10.175 -0.0253 -0.8938  0.7616
   70MOL0     C 9131   2.022  -0.872  10.214 -0.6796 -0.4773  0.1269
   70MOL0     O 9132   2.040  -0.804  10.332 -0.0073  0.6335  0.0488
   70MOL0     C 9133   2.100  -0.678  10.333 -0.0791 -0.4746  0.0561
   70MOL0     C 9134   2.217  -0.656  10.414  0.0215  1.0038  0.0765
   70MOL0     C 9135   2.265  -0.528  10.418 -0.1493  0.1418 -0.1795
   70MOL0     C 9136   2.212  -0.412  10.346  0.1270  0.1321 -0.0079
   70MOL0     C 9137   2.274  -0.275  10.351  0.5198 -0.3901  0.0926
   70MOL0     O 9138   2.400  -0.266  10.391 -0.0416  0.3185  0.2266
   70MOL0     C 9139   2.485  -0.167  10.361 -0.0052 -0.2004  0.8801
   70MOL0     C 9140   2.458  -0.043  10.288  0.1371  0.1517  0.3731
   70MOL0     C 9141   2.556   0.063  10.280  0.3339 -0.1163  0.0714
   70MOL0     C 9142   2.679   0.046  10.348  0.2220 -0.8631 -0.0481
   70MOL0     O 9143   2.769   0.148  10.350  0.2627 -0.3076  0.0524
   70MOL0     C 9144   2.769   0.241  10.241 -0.3211 -0.4389  0.0450
   70MOL0     C 9145   2.894   0.326  10.254 -0.5470 -0.8432 -0.5737
   70MOL0     C 9146   2.863   0.451  10.177 -0.2924  0.4831 -0.3816
   70MOL0     C 9147   2.988   0.533  10.155 -0.0286  1.3005 -1.5510
   70MOL0     C 9148   2.970   0.671  10.102 -0.0611  0.6416 -1.8405
   70MOL0     C 9149   3.096   0.713  10.020  0.4275 -0.0551 -0.8065
   70MOL0     C 9150   3.227   0.728  10.100 -0.0620 -0.0556 -0.4446
   70MOL0     C 9151   3.314   0.614  10.112 -0.1758  0.4688 -0.3762
   70MOL0    Cl 9152   3.396   0.603   9.953 -0.1605  0.2663  0.3208
   70MOL0     C 9153   2.712  -0.077  10.406  0.5247  0.8466 -0.1011
   70MOL0     C 9154   2.614  -0.178  10.408  0.4603 -0.1571 -0.3417
   70MOL0     O 9155   2.214  -0.179  10.317 -0.8607 -0.4823  0.8580
   70MOL0     C 9156   2.095  -0.437  10.271  0.4894  0.7258 -0.5326
   70MOL0     C 9157   2.045  -0.570  10.269 -0.5392 -0.6230  0.0885
   70MOL0     N 9158   2.536  -0.846   9.943  0.2844 -0.5621 -0.0465
   70MOL0     N 9159   2.634  -0.769   9.941 -0.8256 -0.4611  0.8071
   70MOL0     C 9160   2.874   0.368   9.699 -0.9157 -0.4715  0.8379
   70MOL0     C 9161   2.834   0.485   9.634  0.7151  0.5522  0.2045
   70MOL0     C 9162   2.757   0.816   9.398  0.1582  0.6118  0.8886
   70MOL0     C 9163   2.669   0.808   9.284  0.4336  0.0058 -0.3798
   70MOL0     C 9164   2.620   0.930   9.249 -0.8885  0.3512  0.4871
   70MOL0     C 9165   2.642   1.051   9.310  0.5376 -0.0986  0.2897
   70MOL0     O 9166   2.605   1.180   9.271  0.3548 -0.3103  0.2319
   70MOL0     C 9167   2.493   1.206   9.169 -0.4087  0.3061 -0.4112
   70MOL0     C 9168   2.497   1.343   9.103 -0.1950 -0.0426  0.3772
   70MOL0     C 9169   2.585   1.348   8.972  0.0267  0.7700  0.0862
   70MOL0     C 9170   2.583   1.495   8.920  0.3297  0.9651  0.1820
   70MOL0     C 9171   2.665   1.503   8.795  1.0673  0.3496  0.4542
   70MOL0     C 9172   2.734   1.511   8.694 -0.1824  1.1427 -0.0195
   70MOL0     C 9173   2.730   1.052   9.420 -0.3040  0.5322  0.1943
   70MOL0     C 9174   2.794   0.942   9.454 -1.0802  0.8450 -0.0950
   70MOL0     H 9175   3.123   0.657   9.664  1.3324 -1.7695 -1.5274
   70MOL0     H 9176   3.192   0.462   9.772  0.2488  4.5665  1.0647
   70MOL0     H 9177   3.078   0.033   9.788 -2.4360 -2.8349 -3.1339
   70MOL0     H 9178   2.950   0.084   9.700  0.1299 -2.3892  0.4324
   70MOL0     H 9179   2.831   0.133   9.923 -1.0596 -2.8257  1.4509
   70MOL0     H 9180   2.979   0.100  10.005 -1.9569 -0.9160  1.0434
   70MOL0     H 9181   2.969  -0.139   9.914  0.1857 -0.1780  1.0455
   70MOL0     H 9182   2.836  -0.083   9.810  1.4537  0.6935 -1.2067
   70MOL0     H 9183   2.837  -0.114  10.120 -2.1138 -0.5575  1.8120
   70MOL0     H 9184   2.708  -0.034  10.028 -0.1268 -0.0996 -0.6076
   70MOL0     H 9185   2.687  -0.234   9.895 -3.0701 -1.3066  0.4282
   70MOL0     H 9186   2.620  -0.237  10.051  0.2034 -2.5804  1.0402
   70MOL0     H 9187   2.835  -0.354  10.135  2.0933  0.1815 -1.2342
   70MOL0     H 9188   2.886  -0.399   9.970 -0.6820 -0.8250 -0.4674
   70MOL0     H 9189   2.599  -0.468  10.085  0.0844 -0.1273 -0.6351
   70MOL0     H 9190   2.662  -0.509   9.925  1.3604 -3.6461  0.2862
   70MOL0     H 9191   2.785  -0.602  10.183  1.3096 -0.1075  0.1055
   70MOL0     H 9192   2.846  -0.620  10.013  0.4448  2.2157 -0.2553
   70MOL0     H 9193   2.588  -0.809  10.251 -4.1499 -4.2176 -0.9676
   70MOL0     H 9194   2.409  -0.999  10.204 -1.0770  0.3929 -0.5037
   70MOL0     H 9195   2.385  -1.044  10.034  1.8843  0.9185 -2.9858
   70MOL0     H 9196   2.228  -0.845  10.015 -1.2494  2.1617  0.2893
   70MOL0     H 9197   2.280  -0.781  10.160 -1.1081 -0.8055 -0.7343
   70MOL0     H 9198   2.118  -1.027  10.099 -0.3471  1.8596 -1.9587
   70MOL0     H 9199   2.180  -1.002  10.268  2.4319 -0.2013  0.3209
   70MOL0     H 9200   1.930  -0.932  10.219 -1.4614  0.5777 -1.0510
   70MOL0     H 9201   2.007  -0.811  10.124 -0.3373 -0.3079  0.1860
   70MOL0     H 9202   2.262  -0.740  10.465 -0.3120 -1.2688 -3.0911
   70MOL0     H 9203   2.354  -0.499  10.473 -0.5028  2.5575 -0.7591
   70MOL0     H 9204   2.364  -0.016  10.241  0.4402  3.6599  1.5136
   70MOL0     H 9205   2.521   0.159  10.242 -2.6391 -0.5290  1.4661
   70MOL0     H 9206   2.677   0.300  10.240  0.8486  1.4650 -0.6613
   70MOL0     H 9207   2.757   0.188  10.146 -1.6706 -2.3738  1.2331
   70MOL0     H 9208   2.976   0.270  10.210 -1.4243 -3.5493  1.0025
   70MOL0     H 9209   2.904   0.359  10.358  0.3831 -0.0154 -0.9130
   70MOL0     H 9210   2.794   0.509  10.239 -3.4987 -1.1111 -2.1814
   70MOL0     H 9211   2.818   0.419  10.082  1.4660  1.1670 -1.4980
   70MOL0     H 9212   3.050   0.533  10.245 -2.4285 -1.8862  0.3415
   70MOL0     H 9213   3.053   0.481  10.084 -0.4217 -0.6968 -0.5268
   70MOL0     H 9214   2.953   0.729  10.193  2.2913  0.7480 -1.4046
   70MOL0     H 9215   2.880   0.693  10.045 -1.5129  2.3012  0.9108
   70MOL0     H 9216   3.060   0.806   9.973 -1.2605  0.6319  1.6387
   70MOL0     H 9217   3.101   0.649   9.931 -1.1961 -0.8624 -0.3636
   70MOL0     H 9218   3.288   0.809  10.059 -1.4287  1.5551  0.5510
   70MOL0     H 9219   3.219   0.754  10.206  2.3704 -0.7857 -0.0400
   70MOL0     H 9220   3.256   0.522  10.124  1.3390 -0.3476  0.8888
   70MOL0     H 9221   3.376   0.627  10.201 -0.0469 -0.0875 -0.3810
   70MOL0     H 9222   2.804  -0.095  10.460 -0.5896  0.2339  1.7055
   70MOL0     H 9223   2.635  -0.265  10.470 -0.1946 -0.4618 -0.5265
   70MOL0     H 9224   2.036  -0.365  10.216  0.3983  1.6408  0.7280
   70MOL0     H 9225   1.953  -0.583  10.213  0.9620 -0.7649 -2.5163
   70MOL0     H 9226   2.793   0.296   9.703 -0.7626 -0.7751 -0.9047
   70MOL0     H 9227   2.729   0.490   9.605  0.7044  1.1987  0.3503
   70MOL0     H 9228   2.634   0.719   9.233 -2.2722  1.7094 -1.7603
   70MOL0     H 9229   2.576   0.922   9.151 -0.1565  1.0024  0.0952
   70MOL0     H 9230   2.397   1.206   9.223 -1.7056  1.1138 -2.5774
   70MOL0     H 9231   2.473   1.134   9.089 -3.0327  2.2499 -1.6807
   70MOL0     H 9232   2.394   1.367   9.075 -0.3992 -2.6139 -1.4467
   70MOL0     H 9233   2.542   1.418   9.168  2.5363 -1.2000 -0.0744
   70MOL0     H 9234   2.547   1.290   8.888 -0.8064  0.0218  0.9537
   70MOL0     H 9235   2.687   1.316   8.997 -0.0217  1.0979  0.7403
   70MOL0     H 9236   2.482   1.528   8.892  0.5174  0.1033 -1.6574
   70MOL0     H 9237   2.625   1.562   8.995 -2.0747  1.3323  1.3103
   70MOL0     H 9238   2.804   1.527   8.614  2.6777 -0.6666  1.9159
   70MOL0     H 9239   2.754   1.149   9.463 -1.8649  0.5147  1.1981
   70MOL0     H 9240   2.865   0.952   9.535  0.2775 -0.3829 -1.0823
   71MOL0     O 9241   6.315   6.340   4.002  0.2012  0.3587 -0.1038
   71MOL0     C 9242   6.241   6.246   3.983 -0.4701  1.0308  0.8776
   71MOL0     O 9243   6.170   6.179   4.080  0.2102 -1.4521 -0.1059
   71MOL0     C 9244   6.192   6.200   4.211 -0.8934  0.4991 -0.4721
   71MOL0     C 9245   6.313   6.246   4.276  0.4050 -0.2736 -0.0332
   71MOL0     C 9246   6.310   6.264   4.416 -0.4075  0.3262 -0.1970
   71MOL0     C 9247   6.201   6.236   4.495 -0.4684  0.4328 -0.6408
   71MOL0     O 9248   6.211   6.261   4.627  0.1448 -0.4175 -0.0284
   71MOL0     C 9249   6.137   6.183   4.730 -0.6438 -1.5446 -0.1893
   71MOL0     C 9250   6.231   6.193   4.854 -1.0114  0.3163 -0.0048
   71MOL0     C 9251   6.178   6.160   4.990  0.7452  0.7092 -0.3243
   71MOL0     C 9252   6.092   6.278   5.040  0.5146  1.3960 -0.7316
   71MOL0     C 9253   6.053   6.248   5.173 -0.5274  0.5632 -0.4544
   71MOL0     C 9254   5.985   6.362   5.234  0.1412  0.7756  0.4585
   71MOL0     C 9255   5.898   6.304   5.351  1.2943 -0.4569 -0.1402
   71MOL0     C 9256   5.846   6.408   5.453 -0.5645 -0.4598  0.1876
   71MOL0     N 9257   5.762   6.508   5.391  0.2674 -0.3593 -1.1036
   71MOL0     C 9258   5.794   6.620   5.318 -0.2085  0.7016 -0.4995
   71MOL0     C 9259   5.678   6.670   5.275  0.0874 -0.2522  0.8865
   71MOL0     C 9260   5.643   6.797   5.201  0.0179 -0.4426 -0.0437
   71MOL0     C 9261   5.604   6.773   5.060 -0.6443 -0.1725 -1.0209
   71MOL0     C 9262   5.582   6.912   4.996 -0.1923  0.9306  0.7809
   71MOL0     C 9263   5.523   6.886   4.846 -0.4463 -0.2013 -0.2039
   71MOL0     O 9264   5.611   6.796   4.770  0.4536 -0.9891 -0.5353
   71MOL0     C 9265   5.715   6.848   4.689  0.2277  0.1425 -0.1120
   71MOL0     C 9266   5.757   6.989   4.694 -0.2474 -0.8509 -0.1034
   71MOL0     C 9267   5.852   7.030   4.606 -0.2379  1.1408 -0.0972
   71MOL0     C 9268   5.905   6.941   4.509  1.0089 -0.4604  0.9978
   71MOL0     C 9269   6.010   6.985   4.416 -1.6463  1.5054  0.2269
   71MOL0     O 9270   6.086   7.085   4.454  0.1285  0.1652 -0.2973
   71MOL0     C 9271   6.195   7.137   4.396  0.3496  0.1972  0.6114
   71MOL0     C 9272   6.251   7.094   4.268 -0.2537  0.2575 -0.1686
   71MOL0     C 9273   6.362   7.151   4.211  0.0312  1.2430  0.7540
   71MOL0     C 9274   6.424   7.255   4.275  0.3626 -0.3096 -0.5788
   71MOL0     O 9275   6.544   7.311   4.223 -0.1647 -0.1608 -0.3502
   71MOL0     C 9276   6.647   7.352   4.322  0.0182  0.1632  0.9404
   71MOL0     C 9277   6.782   7.346   4.243  0.0279  0.6304  0.9689
   71MOL0     C 9278   6.781   7.448   4.137 -0.1021  0.0872  0.0058
   71MOL0     C 9279   6.901   7.443   4.041  0.1464  0.7704  0.3117
   71MOL0     C 9280   7.023   7.506   4.085 -1.0818  0.1107  0.7223
   71MOL0     C 9281   7.017   7.664   4.105  0.4355 -0.4349  0.1376
   71MOL0     C 9282   7.160   7.715   4.111 -0.0240  0.5445  0.7320
   71MOL0     C 9283   7.187   7.865   4.148 -1.3623 -0.0178 -0.2128
   71MOL0    Cl 9284   7.146   7.875   4.325 -0.1894 -0.0596 -0.4236
   71MOL0     C 9285   6.368   7.310   4.396 -0.1785  0.2452 -0.8004
   71MOL0     C 9286   6.263   7.246   4.453 -0.2669 -0.0102  0.1754
   71MOL0     O 9287   6.025   6.916   4.312 -0.7132 -0.7325  0.0126
   71MOL0     C 9288   5.866   6.811   4.506  0.6971  0.4640 -0.1261
   71MOL0     C 9289   5.772   6.757   4.607  0.0735 -0.7771 -0.8967
   71MOL0     N 9290   5.571   6.597   5.331  0.5155  0.3836 -0.2870
   71MOL0     N 9291   5.624   6.504   5.397 -0.7326  0.0908 -0.6749
   71MOL0     C 9292   6.082   6.196   4.437  0.1537 -0.0828  0.0622
   71MOL0     C 9293   6.080   6.177   4.296 -0.6824  0.0304  0.1330
   71MOL0     C 9294   6.236   6.194   3.844  0.9606  0.5055 -0.1749
   71MOL0     C 9295   6.302   6.270   3.745 -0.1351  0.3407 -0.7536
   71MOL0     C 9296   6.309   6.231   3.609  0.0659 -0.3612  0.4366
   71MOL0     C 9297   6.228   6.121   3.574  0.1079 -0.5666  0.2891
   71MOL0     O 9298   6.218   6.073   3.441 -0.3985 -0.7324  0.4251
   71MOL0     C 9299   6.124   6.151   3.362 -0.0539 -1.1205 -0.0620
   71MOL0     C 9300   6.121   6.117   3.213 -0.5931 -0.1317  0.5514
   71MOL0     C 9301   6.258   6.086   3.141 -0.4806  0.4722 -0.2646
   71MOL0     C 9302   6.231   6.072   2.993 -0.2359 -0.7853 -1.0561
   71MOL0     C 9303   6.353   6.026   2.928  0.4325  0.4098 -0.9102
   71MOL0     C 9304   6.422   5.943   2.867 -0.3384  0.1324 -0.2968
   71MOL0     C 9305   6.156   6.036   3.667 -0.1478  0.0511 -0.0965
   71MOL0     C 9306   6.156   6.080   3.800 -0.2090 -0.2442 -0.3223
   71MOL0     H 9307   6.406   6.261   4.223  0.4261  0.1253  0.1184
   71MOL0     H 9308   6.402   6.288   4.468 -0.3758 -1.9082  0.9320
   71MOL0     H 9309   6.109   6.083   4.697  0.7182 -1.7109 -0.9233
   71MOL0     H 9310   6.046   6.228   4.771  1.2099 -0.7003  3.4353
   71MOL0     H 9311   6.281   6.289   4.866  1.7683 -1.1479  0.8664
   71MOL0     H 9312   6.317   6.130   4.830 -2.2072 -1.9264  1.2886
   71MOL0     H 9313   6.252   6.128   5.065  2.6186 -1.8585 -3.0476
   71MOL0     H 9314   6.116   6.070   4.996 -1.9821  2.5690  2.0141
   71MOL0     H 9315   6.142   6.375   5.032  1.1838  1.0532 -0.7456
   71MOL0     H 9316   6.001   6.293   4.981 -2.4925 -0.5339  3.0048
   71MOL0     H 9317   6.134   6.219   5.240 -0.8970  3.9704  1.7216
   71MOL0     H 9318   5.987   6.161   5.162 -0.8002  1.0340 -3.6157
   71MOL0     H 9319   5.929   6.410   5.153  1.0279 -1.6033 -1.7255
   71MOL0     H 9320   6.060   6.425   5.282  0.2554 -1.2186  3.1518
   71MOL0     H 9321   5.821   6.241   5.305 -0.1700  1.5038 -0.5014
   71MOL0     H 9322   5.959   6.243   5.419 -1.7674 -0.9892  2.3414
   71MOL0     H 9323   5.934   6.460   5.493 -0.8405 -0.6124  1.0123
   71MOL0     H 9324   5.782   6.361   5.528  0.4252 -0.6341  0.9435
   71MOL0     H 9325   5.892   6.663   5.305  1.9801 -3.7682 -0.7337
   71MOL0     H 9326   5.715   6.878   5.210 -0.6521  0.4682 -2.2576
   71MOL0     H 9327   5.548   6.840   5.235 -0.8095 -1.3584 -1.1354
   71MOL0     H 9328   5.507   6.725   5.046 -1.2986  1.3520 -2.0283
   71MOL0     H 9329   5.688   6.734   5.002  2.0284  0.4185  2.1489
   71MOL0     H 9330   5.524   6.972   5.067  1.6979 -0.1323  3.3604
   71MOL0     H 9331   5.671   6.976   4.987 -1.3130  2.5143  0.4330
   71MOL0     H 9332   5.476   6.964   4.786 -0.7407 -1.4274 -1.6491
   71MOL0     H 9333   5.438   6.821   4.870  2.0980 -3.6014  0.4159
   71MOL0     H 9334   5.703   7.060   4.756 -3.6340 -1.3104 -2.2386
   71MOL0     H 9335   5.890   7.132   4.608 -2.0828  1.9062 -1.4475
   71MOL0     H 9336   6.207   7.008   4.218  0.0580 -0.1474  0.2405
   71MOL0     H 9337   6.405   7.104   4.123 -2.2592  1.4944 -0.6003
   71MOL0     H 9338   6.661   7.274   4.398  2.2473  0.7622  1.2139
   71MOL0     H 9339   6.625   7.451   4.364  0.2325 -0.1464  1.8182
   71MOL0     H 9340   6.805   7.246   4.205 -2.1861  0.9135 -1.3601
   71MOL0     H 9341   6.852   7.383   4.318  1.0815  2.4456 -0.8288
   71MOL0     H 9342   6.770   7.548   4.182  1.3983  2.0190 -3.5043
   71MOL0     H 9343   6.692   7.442   4.073 -0.6234  0.8145  0.6282
   71MOL0     H 9344   6.920   7.338   4.019  1.3569  1.4251 -2.1196
   71MOL0     H 9345   6.867   7.489   3.947  1.7434 -0.8116 -1.1073
   71MOL0     H 9346   7.099   7.490   4.008 -2.4873  1.6997 -1.0822
   71MOL0     H 9347   7.056   7.460   4.179  0.1549  2.2176  1.3866
   71MOL0     H 9348   6.982   7.681   4.207  3.1146 -2.9191  1.6230
   71MOL0     H 9349   6.951   7.724   4.041  2.4423  0.9725 -0.6989
   71MOL0     H 9350   7.211   7.652   4.184 -1.0970  0.1937  1.1935
   71MOL0     H 9351   7.200   7.688   4.013 -1.7597 -0.2790  0.2035
   71MOL0     H 9352   7.123   7.937   4.096 -0.5600 -0.3651 -1.7320
   71MOL0     H 9353   7.293   7.883   4.126 -1.5896  1.8057  0.0959
   71MOL0     H 9354   6.422   7.388   4.449  1.1420 -0.6210 -0.8105
   71MOL0     H 9355   6.226   7.286   4.547 -1.5339 -0.6506 -0.0170
   71MOL0     H 9356   5.902   6.734   4.438  0.7661  1.3012 -1.0467
   71MOL0     H 9357   5.747   6.652   4.609  2.7680 -1.4874 -0.0980
   71MOL0     H 9358   5.990   6.196   4.496  1.6877  2.9193  2.7590
   71MOL0     H 9359   5.992   6.144   4.241  0.2076 -0.1183 -1.2446
   71MOL0     H 9360   6.363   6.356   3.770  2.4032 -1.1562 -1.4400
   71MOL0     H 9361   6.377   6.282   3.540  1.5606 -2.2088  0.4610
   71MOL0     H 9362   6.157   6.255   3.366  1.2289 -1.5130  0.0327
   71MOL0     H 9363   6.021   6.141   3.397  0.2013  3.9049  3.1637
   71MOL0     H 9364   6.058   6.029   3.206  0.4379 -0.8089 -0.6172
   71MOL0     H 9365   6.071   6.197   3.157  3.1868  1.4869 -0.8748
   71MOL0     H 9366   6.305   5.997   3.185  0.0292  1.0608  0.4137
   71MOL0     H 9367   6.316   6.178   3.156 -1.3607  1.3841 -2.1497
   71MOL0     H 9368   6.139   6.015   2.979 -0.6880 -0.1881 -0.5404
   71MOL0     H 9369   6.201   6.170   2.954  1.2387  0.5174  0.8862
   71MOL0     H 9370   6.484   5.869   2.822  2.0712  2.3546 -0.8445
   71MOL0     H 9371   6.099   5.946   3.646  1.1863 -1.0440  0.7424
   71MOL0     H 9372   6.096   6.014   3.862  1.9410 -2.8199 -0.7637
   72MOL0     O 9373   2.964   1.979   4.867 -1.0116 -0.4169  0.3445
   72MOL0     C 9374   3.034   1.880   4.843  0.7384 -0.2657  0.7222
   72MOL0     O 9375   3.093   1.802   4.929  0.4138 -0.1149 -0.4389
   72MOL0     C 9376   3.059   1.820   5.064 -0.3532 -0.0813  1.1631
   72MOL0     C 9377   2.982   1.716   5.119 -0.3749 -0.1025  0.5171
   72MOL0     C 9378   2.944   1.718   5.246  0.7278 -0.5057 -0.0746
   72MOL0     C 9379   3.002   1.829   5.320  0.4809  0.7455 -0.3374
   72MOL0     O 9380   2.960   1.840   5.450  0.8696 -0.3952  0.4354
   72MOL0     C 9381   2.822   1.843   5.479  0.8874 -0.0398 -1.0840
   72MOL0     C 9382   2.804   1.907   5.618  0.1238 -0.0128  0.5566
   72MOL0     C 9383   2.654   1.910   5.655 -0.0089  0.0402  0.1544
   72MOL0     C 9384   2.632   1.931   5.810  0.0848 -0.1416  0.1226
   72MOL0     C 9385   2.486   1.930   5.841  0.7737 -0.4038  0.4909
   72MOL0     C 9386   2.405   2.037   5.773 -0.2094  0.6177  0.2619
   72MOL0     C 9387   2.304   1.974   5.678  0.3248  0.1553 -0.1112
   72MOL0     C 9388   2.168   1.943   5.748 -0.4997  0.5899 -0.1109
   72MOL0     N 9389   2.071   1.873   5.662  0.9439  0.1781  0.0984
   72MOL0     C 9390   2.043   1.908   5.541 -1.0563 -0.2278  0.8957
   72MOL0     C 9391   1.953   1.816   5.490 -0.0856 -0.9451  1.2492
   72MOL0     C 9392   1.896   1.812   5.350 -0.8711 -0.2094  0.0536
   72MOL0     C 9393   1.754   1.853   5.371 -0.0729  0.3118  0.9050
   72MOL0     C 9394   1.691   1.884   5.238  0.4111 -0.3324  0.0168
   72MOL0     C 9395   1.535   1.905   5.240  1.5786  0.7201  0.1922
   72MOL0     O 9396   1.474   1.908   5.110  0.5858  0.0177 -0.4150
   72MOL0     C 9397   1.342   1.958   5.100 -0.5323 -0.2101 -0.6233
   72MOL0     C 9398   1.297   2.072   5.171  0.3852  0.1802  0.1487
   72MOL0     C 9399   1.170   2.122   5.154 -0.2611 -0.4852 -0.0057
   72MOL0     C 9400   1.087   2.062   5.062  0.0978 -0.6190 -0.2908
   72MOL0     C 9401   0.949   2.106   5.051 -1.5803  0.0776  0.6567
   72MOL0     O 9402   0.840   2.023   5.028  0.2912  0.3778 -1.1109
   72MOL0     C 9403   0.721   2.089   5.002 -0.4435  0.0396  0.4190
   72MOL0     C 9404   0.711   2.205   4.925 -0.6985  0.3241  0.0273
   72MOL0     C 9405   0.587   2.275   4.902  0.0363  0.7620 -0.7718
   72MOL0     C 9406   0.470   2.210   4.952 -0.0087  0.2278  0.5387
   72MOL0     O 9407   0.357   2.273   4.913  0.2431  0.3241 -1.1635
   72MOL0     C 9408   0.228   2.246   4.971 -0.5570 -0.2051  0.4725
   72MOL0     C 9409   0.114   2.319   4.909  0.9391 -1.5371 -0.2188
   72MOL0     C 9410  -0.021   2.252   4.952  0.0569 -0.2881  0.2898
   72MOL0     C 9411  -0.131   2.346   4.903 -0.3283 -0.4292  0.1901
   72MOL0     C 9412  -0.276   2.291   4.931 -0.7897  0.4050  0.4318
   72MOL0     C 9413  -0.380   2.397   4.922  0.5185 -0.5476  0.2576
   72MOL0     C 9414  -0.514   2.347   4.976 -0.9215  0.3172 -1.0406
   72MOL0     C 9415  -0.604   2.464   5.008  0.7943 -0.4402 -0.5567
   72MOL0    Cl 9416  -0.738   2.424   5.113 -0.3011  0.0116 -0.0078
   72MOL0     C 9417   0.484   2.095   5.032  0.3966 -0.0098 -0.6765
   72MOL0     C 9418   0.602   2.032   5.058 -0.5200 -0.0552 -0.1169
   72MOL0     O 9419   0.949   2.230   5.066  0.1780 -0.7473  0.1008
   72MOL0     C 9420   1.130   1.952   4.992  0.1615  0.5056  0.4453
   72MOL0     C 9421   1.256   1.894   5.014 -0.0995  0.3684  0.3063
   72MOL0     N 9422   1.920   1.728   5.593 -0.4088 -0.5162  0.6705
   72MOL0     N 9423   2.000   1.767   5.700  0.7360  0.3017  0.2295
   72MOL0     C 9424   3.077   1.936   5.264 -0.1651 -0.3829 -0.7299
   72MOL0     C 9425   3.102   1.927   5.134 -0.1167 -0.1381 -0.7317
   72MOL0     C 9426   3.028   1.849   4.703  0.0053  0.4399  0.9936
   72MOL0     C 9427   3.077   1.728   4.654 -0.7932 -0.0982 -0.3956
   72MOL0     C 9428   3.064   1.699   4.526  0.2788  0.7025 -0.2436
   72MOL0     C 9429   3.007   1.786   4.436  0.7912 -0.0778 -0.3465
   72MOL0     O 9430   3.005   1.749   4.309 -0.3693  0.4311  0.4472
   72MOL0     C 9431   2.906   1.814   4.230  0.1028  1.1488 -1.0842
   72MOL0     C 9432   2.878   1.733   4.106  0.7099 -1.1069 -0.1083
   72MOL0     C 9433   2.831   1.582   4.135 -0.3867 -0.9675  0.3944
   72MOL0     C 9434   2.823   1.493   4.015  0.4772  0.1669 -0.6863
   72MOL0     C 9435   2.731   1.560   3.918  0.5584  0.8193  0.5227
   72MOL0     C 9436   2.661   1.631   3.849 -0.1043  0.3893 -0.9492
   72MOL0     C 9437   2.969   1.911   4.479  0.5505 -0.4430 -0.0764
   72MOL0     C 9438   2.979   1.943   4.610  0.1295  0.1264 -1.5018
   72MOL0     H 9439   2.947   1.638   5.053 -0.3472 -0.5317  0.9998
   72MOL0     H 9440   2.869   1.645   5.274 -1.0300  0.9598 -0.6952
   72MOL0     H 9441   2.786   1.740   5.487 -0.8439  0.6743  1.4876
   72MOL0     H 9442   2.760   1.911   5.419 -2.2393 -1.3616  0.4164
   72MOL0     H 9443   2.856   2.004   5.623 -0.9016  0.5407  0.7233
   72MOL0     H 9444   2.854   1.852   5.698  0.9407  0.0421  0.1006
   72MOL0     H 9445   2.600   1.820   5.625  3.1411 -1.4914 -1.3837
   72MOL0     H 9446   2.614   1.992   5.594 -0.9449 -1.7410 -1.7374
   72MOL0     H 9447   2.676   1.853   5.873  0.6259  0.1916  0.1590
   72MOL0     H 9448   2.688   2.021   5.837  3.3470 -1.9463 -0.1009
   72MOL0     H 9449   2.487   1.940   5.950  2.5428 -0.3732  0.5000
   72MOL0     H 9450   2.441   1.834   5.815  1.4372  0.0859 -2.8071
   72MOL0     H 9451   2.465   2.121   5.736  0.2964  0.0957 -0.1153
   72MOL0     H 9452   2.349   2.091   5.849 -2.2253  0.3098 -0.9347
   72MOL0     H 9453   2.284   2.046   5.597 -0.5355 -1.8029 -1.7249
   72MOL0     H 9454   2.334   1.878   5.636  3.9559 -0.0642  2.5085
   72MOL0     H 9455   2.129   2.042   5.772 -2.7659 -0.2503 -0.0171
   72MOL0     H 9456   2.181   1.879   5.836  0.4123  0.7636 -0.1105
   72MOL0     H 9457   2.074   1.997   5.487 -0.4598  0.6337  2.6117
   72MOL0     H 9458   1.904   1.713   5.303 -4.3317 -0.8243  0.4764
   72MOL0     H 9459   1.952   1.882   5.288  1.8749 -1.6087  0.8084
   72MOL0     H 9460   1.737   1.942   5.432 -0.2142 -0.0078  1.3442
   72MOL0     H 9461   1.694   1.778   5.424 -0.5733  0.7466  0.9532
   72MOL0     H 9462   1.728   1.973   5.185 -1.2611 -0.2010 -0.9933
   72MOL0     H 9463   1.705   1.797   5.174  2.0799  0.1180 -0.3049
   72MOL0     H 9464   1.531   1.996   5.301  2.3633  1.2815 -0.5598
   72MOL0     H 9465   1.512   1.809   5.288  3.4101 -0.2770 -0.7845
   72MOL0     H 9466   1.358   2.134   5.237  2.2860 -1.7957  0.3551
   72MOL0     H 9467   1.145   2.212   5.208 -0.2931 -0.0725 -0.6931
   72MOL0     H 9468   0.800   2.238   4.873 -0.9202 -3.2316 -3.0058
   72MOL0     H 9469   0.586   2.366   4.843  2.7135  0.1283 -1.9740
   72MOL0     H 9470   0.229   2.256   5.080 -1.4615 -4.7304  1.0898
   72MOL0     H 9471   0.205   2.140   4.960 -0.4567 -0.5065  2.6981
   72MOL0     H 9472   0.112   2.329   4.801 -1.2177  2.8475  0.0010
   72MOL0     H 9473   0.117   2.419   4.953  3.6836 -1.2291 -0.9357
   72MOL0     H 9474  -0.025   2.226   5.059 -2.0891 -3.7531 -0.4699
   72MOL0     H 9475  -0.027   2.155   4.903  1.0635 -0.0970 -0.2168
   72MOL0     H 9476  -0.127   2.436   4.964 -1.9255  0.4467 -0.9279
   72MOL0     H 9477  -0.111   2.377   4.800  2.9552 -4.6272 -0.7621
   72MOL0     H 9478  -0.275   2.245   5.030 -3.7736  0.0554  0.3729
   72MOL0     H 9479  -0.312   2.211   4.866 -4.6421  2.0622  0.2335
   72MOL0     H 9480  -0.392   2.437   4.821 -1.5224  0.7939  0.9643
   72MOL0     H 9481  -0.343   2.478   4.986  0.5445 -1.4800  1.4616
   72MOL0     H 9482  -0.559   2.270   4.913  1.5415 -2.2925  0.1388
   72MOL0     H 9483  -0.490   2.296   5.070 -0.7835 -4.3935 -3.3084
   72MOL0     H 9484  -0.640   2.495   4.910  0.4221  3.2300  0.5779
   72MOL0     H 9485  -0.538   2.540   5.050 -2.0498  0.9086  1.8486
   72MOL0     H 9486   0.398   2.041   5.069  1.7603 -0.9964  1.2459
   72MOL0     H 9487   0.610   1.948   5.126 -1.2372  1.1064  1.4676
   72MOL0     H 9488   1.067   1.896   4.923  2.2186 -5.0712  2.4644
   72MOL0     H 9489   1.272   1.801   4.961 -1.9901  1.5191 -2.5273
   72MOL0     H 9490   3.120   2.012   5.329 -3.8088  2.4316 -1.2927
   72MOL0     H 9491   3.158   2.011   5.093  0.3850  0.2360  0.6766
   72MOL0     H 9492   3.125   1.660   4.724  0.7816 -1.2231 -2.4832
   72MOL0     H 9493   3.111   1.612   4.481 -0.5048  0.6733 -1.0408
   72MOL0     H 9494   2.946   1.912   4.206 -0.1683  0.7268 -3.5405
   72MOL0     H 9495   2.816   1.824   4.292 -0.6439  1.8045 -2.2415
   72MOL0     H 9496   2.814   1.795   4.043  3.4044 -1.2346 -3.2522
   72MOL0     H 9497   2.976   1.717   4.060  0.8438 -1.0374  0.1545
   72MOL0     H 9498   2.734   1.580   4.186 -1.6332 -1.2969 -1.8161
   72MOL0     H 9499   2.901   1.543   4.209  0.3766  1.7520  1.1987
   72MOL0     H 9500   2.917   1.466   3.966  0.2830 -3.2097  0.5173
   72MOL0     H 9501   2.788   1.396   4.051  0.6880  0.1632 -0.4894
   72MOL0     H 9502   2.599   1.692   3.786  1.3983  1.1880 -1.7109
   72MOL0     H 9503   2.944   1.993   4.412  1.2128  2.1673  2.6545
   72MOL0     H 9504   2.965   2.044   4.646  1.6185 -0.4296  0.8762
   73MOL0     O 9505   5.746  10.326   6.472 -0.2446 -0.0059  0.2210
   73MOL0     C 9506   5.764  10.393   6.373  0.9329 -0.2604  0.1277
   73MOL0     O 9507   5.853  10.487   6.358 -1.1531  0.2984  0.2970
   73MOL0     C 9508   5.924  10.558   6.454  0.2427  0.5232  0.2187
   73MOL0     C 9509   5.902  10.549   6.598  0.4396  0.4591  0.9616
   73MOL0     C 9510   5.977  10.635   6.684 -0.6576  0.0925 -0.9542
   73MOL0     C 9511   6.070  10.721   6.637 -0.0452 -0.9426 -0.3827
   73MOL0     O 9512   6.133  10.795   6.729 -0.4788 -1.3620  0.2518
   73MOL0     C 9513   6.269  10.850   6.706  0.6252  0.3567  0.2408
   73MOL0     C 9514   6.337  10.884   6.836  0.0299  0.2590  0.7123
   73MOL0     C 9515   6.477  10.958   6.822  0.4557 -0.0777 -0.4845
   73MOL0     C 9516   6.466  11.102   6.775 -0.6966 -0.8316  0.6015
   73MOL0     C 9517   6.595  11.171   6.784 -0.3563  0.5157 -0.0473
   73MOL0     C 9518   6.585  11.326   6.743 -0.5680  0.2385  0.8373
   73MOL0     C 9519   6.623  11.339   6.594 -0.5890 -0.1550 -0.7267
   73MOL0     C 9520   6.631  11.480   6.533  1.0267  1.3038 -0.9214
   73MOL0     N 9521   6.754  11.547   6.567  0.0697  1.0518 -0.1135
   73MOL0     C 9522   6.886  11.529   6.516 -0.0249 -0.8324  0.5713
   73MOL0     C 9523   6.959  11.629   6.568  0.7157  1.0703  0.0392
   73MOL0     C 9524   7.105  11.670   6.538 -0.0992 -1.0215  0.0557
   73MOL0     C 9525   7.193  11.542   6.499 -0.2746  0.4162 -0.2949
   73MOL0     C 9526   7.246  11.463   6.615  1.1333  0.3293 -0.1115
   73MOL0     C 9527   7.133  11.425   6.714  1.1534 -0.0226  0.2748
   73MOL0     O 9528   7.193  11.336   6.812 -0.1721 -0.2148 -0.6461
   73MOL0     C 9529   7.137  11.209   6.823 -0.5257 -0.6649  0.3027
   73MOL0     C 9530   6.997  11.181   6.816  0.8507  0.3419 -0.5160
   73MOL0     C 9531   6.943  11.051   6.824 -0.5552 -0.4971  0.2910
   73MOL0     C 9532   7.034  10.949   6.832  0.2517  0.2792 -0.5817
   73MOL0     C 9533   6.977  10.816   6.841  0.4614 -1.3013 -0.2725
   73MOL0     O 9534   7.052  10.723   6.897 -0.2328  0.0072  0.4901
   73MOL0     C 9535   7.001  10.598   6.886 -0.2896 -0.2101 -0.2237
   73MOL0     C 9536   6.969  10.519   6.993 -0.3382  0.7295  0.0121
   73MOL0     C 9537   6.935  10.383   6.972  0.3424 -0.3561 -0.0086
   73MOL0     C 9538   6.926  10.330   6.844 -0.3302 -1.1283 -0.4059
   73MOL0     O 9539   6.896  10.199   6.829 -0.6035 -0.2189 -0.1466
   73MOL0     C 9540   6.815  10.144   6.722 -0.2107  0.8936 -0.0305
   73MOL0     C 9541   6.724  10.023   6.779 -0.1521  0.6038  0.0617
   73MOL0     C 9542   6.710  10.038   6.936 -0.2316 -0.1125  0.3666
   73MOL0     C 9543   6.828   9.997   7.031 -0.8858 -0.8252  0.6153
   73MOL0     C 9544   6.814  10.006   7.186 -0.1210  0.2289 -0.5754
   73MOL0     C 9545   6.662   9.984   7.213 -0.5968  0.5774 -0.7518
   73MOL0     C 9546   6.640   9.982   7.359 -0.2866  0.3330 -0.2043
   73MOL0     C 9547   6.675  10.107   7.446  0.0364  0.3336 -0.9814
   73MOL0    Cl 9548   6.657  10.085   7.625  0.1530 -0.3554  0.0071
   73MOL0     C 9549   6.963  10.405   6.742 -0.0113 -0.9734  0.2635
   73MOL0     C 9550   6.998  10.542   6.756  0.3546 -0.3531  0.4124
   73MOL0     O 9551   6.877  10.800   6.779  0.6903 -0.4062 -0.8197
   73MOL0     C 9552   7.168  10.965   6.848  0.6139  0.0117  1.4309
   73MOL0     C 9553   7.217  11.094   6.829 -0.5224 -0.2434 -0.5419
   73MOL0     N 9554   6.874  11.715   6.637  1.2377 -0.3095  0.7661
   73MOL0     N 9555   6.755  11.660   6.637 -1.3061 -0.9471 -0.3497
   73MOL0     C 9556   6.096  10.719   6.498  0.2641 -0.8761 -0.0761
   73MOL0     C 9557   6.020  10.643   6.403  0.8407 -0.2431 -0.4209
   73MOL0     C 9558   5.684  10.366   6.248 -0.6079 -1.2970 -1.0826
   73MOL0     C 9559   5.672  10.464   6.160 -0.4911 -0.3647  0.0225
   73MOL0     C 9560   5.599  10.435   6.041  0.5543  0.0962 -0.2369
   73MOL0     C 9561   5.537  10.310   6.024 -1.0439  0.2925  0.3086
   73MOL0     O 9562   5.468  10.286   5.909 -0.0569  0.1410  0.0117
   73MOL0     C 9563   5.506  10.171   5.835  0.3304 -0.2054 -0.0426
   73MOL0     C 9564   5.395  10.079   5.849 -0.3206 -0.3174  0.0356
   73MOL0     C 9565   5.250  10.143   5.821 -0.6006 -0.1368  0.0813
   73MOL0     C 9566   5.225  10.211   5.689 -0.8475  1.2031 -0.1292
   73MOL0     C 9567   5.252  10.123   5.571  0.1057 -0.5777  0.0590
   73MOL0     C 9568   5.245  10.043   5.482 -0.0102  0.2322 -1.3063
   73MOL0     C 9569   5.551  10.213   6.123 -0.5656 -0.2736  0.0987
   73MOL0     C 9570   5.629  10.243   6.233 -0.0434  0.6281 -0.7377
   73MOL0     H 9571   5.818  10.489   6.632  0.9814  0.0819  1.6775
   73MOL0     H 9572   5.964  10.623   6.791 -0.3525 -2.4523 -1.1495
   73MOL0     H 9573   6.260  10.940   6.645  0.7948  0.7321  0.7616
   73MOL0     H 9574   6.321  10.771   6.650 -0.1355  0.3335 -0.4448
   73MOL0     H 9575   6.364  10.789   6.884 -1.4117 -0.6563 -0.2310
   73MOL0     H 9576   6.269  10.942   6.899  0.8965  2.9350 -0.6552
   73MOL0     H 9577   6.536  10.902   6.748  1.9473 -1.0502  1.3387
   73MOL0     H 9578   6.526  10.962   6.920 -1.6230  0.0071  0.6069
   73MOL0     H 9579   6.429  11.109   6.672  2.1436 -1.8774 -0.5936
   73MOL0     H 9580   6.393  11.153   6.838  0.1486  0.4581  0.5756
   73MOL0     H 9581   6.659  11.113   6.717  0.5988 -2.4294  3.1482
   73MOL0     H 9582   6.640  11.169   6.884  0.1713 -1.9525 -0.2849
   73MOL0     H 9583   6.670  11.376   6.788 -0.6649  1.6477 -0.4749
   73MOL0     H 9584   6.490  11.370   6.775 -0.6391  0.4572  0.3305
   73MOL0     H 9585   6.715  11.286   6.567 -0.8935 -1.0140 -0.1465
   73MOL0     H 9586   6.545  11.286   6.537 -1.5374 -2.1362  2.1485
   73MOL0     H 9587   6.543  11.542   6.554 -2.0900 -1.4635 -4.3479
   73MOL0     H 9588   6.624  11.464   6.425 -0.0055  0.8884 -0.8081
   73MOL0     H 9589   6.912  11.441   6.458 -3.9072 -1.6366 -0.2973
   73MOL0     H 9590   7.152  11.725   6.620  2.1423 -0.8940 -1.2459
   73MOL0     H 9591   7.117  11.743   6.457  1.5999  0.8401  1.8673
   73MOL0     H 9592   7.276  11.586   6.442 -0.6845  2.7193  0.8109
   73MOL0     H 9593   7.143  11.471   6.432 -0.1286 -2.0172  2.0075
   73MOL0     H 9594   7.290  11.371   6.577  0.4890 -0.6521  1.4355
   73MOL0     H 9595   7.315  11.524   6.675 -2.3897 -0.3807  5.4067
   73MOL0     H 9596   7.044  11.383   6.666 -0.0005  2.8536 -0.2823
   73MOL0     H 9597   7.100  11.511   6.772  0.0424  0.2141 -0.6733
   73MOL0     H 9598   6.917  11.253   6.804  0.1931 -0.1505  0.7030
   73MOL0     H 9599   6.836  11.032   6.816 -1.3259  2.7846  1.0419
   73MOL0     H 9600   6.959  10.553   7.096  0.0073 -0.3815  0.4249
   73MOL0     H 9601   6.903  10.318   7.053  1.2152 -1.6218 -0.6420
   73MOL0     H 9602   6.872  10.116   6.633 -0.1606  0.1854  0.2139
   73MOL0     H 9603   6.750  10.223   6.684 -3.2745 -0.7501  1.4052
   73MOL0     H 9604   6.775   9.929   6.755 -0.6356  1.3586 -5.0274
   73MOL0     H 9605   6.625  10.022   6.731 -1.4056  1.9338  2.4429
   73MOL0     H 9606   6.626   9.969   6.946 -1.1765  0.9069 -0.2889
   73MOL0     H 9607   6.672  10.137   6.963  0.8462 -0.0674  1.8982
   73MOL0     H 9608   6.844   9.891   7.009 -3.6685 -1.6571  2.0961
   73MOL0     H 9609   6.921  10.047   7.003  0.3981 -0.7611  4.4735
   73MOL0     H 9610   6.832  10.110   7.216  2.1772  0.5659 -2.7568
   73MOL0     H 9611   6.868   9.934   7.249 -2.1212 -0.3884  0.5062
   73MOL0     H 9612   6.633   9.889   7.166  1.4129  0.3986 -1.7465
   73MOL0     H 9613   6.610  10.067   7.165 -1.4251  1.0480  0.8795
   73MOL0     H 9614   6.532   9.970   7.369 -1.4660  5.1250 -3.6096
   73MOL0     H 9615   6.681   9.889   7.399 -1.0484  0.0773  0.0027
   73MOL0     H 9616   6.606  10.186   7.414  1.2906  1.5897 -0.6489
   73MOL0     H 9617   6.776  10.139   7.421  0.9791  0.8650  2.9473
   73MOL0     H 9618   6.960  10.370   6.639 -2.1612  0.4302 -0.2227
   73MOL0     H 9619   7.036  10.592   6.667  0.4474  1.7056  1.5527
   73MOL0     H 9620   7.242  10.886   6.860  0.8937  0.5613  3.9717
   73MOL0     H 9621   7.321  11.122   6.809  0.1802  0.5875  3.4279
   73MOL0     H 9622   6.170  10.790   6.461  0.4983 -0.3631  1.2844
   73MOL0     H 9623   6.020  10.647   6.295 -2.7292 -0.1655 -0.5205
   73MOL0     H 9624   5.724  10.558   6.172  0.2896 -0.7922  0.0487
   73MOL0     H 9625   5.580  10.500   5.955 -4.0374 -2.9184 -1.8583
   73MOL0     H 9626   5.595  10.122   5.875 -0.9105 -1.1581  1.7126
   73MOL0     H 9627   5.520  10.208   5.733  0.0728 -2.5844 -0.9900
   73MOL0     H 9628   5.408   9.995   5.780 -1.3316 -2.2120  1.9901
   73MOL0     H 9629   5.406  10.036   5.949  2.9176 -1.1403 -0.5564
   73MOL0     H 9630   5.228  10.214   5.901 -0.2286 -1.2730  1.2270
   73MOL0     H 9631   5.173  10.067   5.838 -2.1247  1.5365  0.9263
   73MOL0     H 9632   5.119  10.235   5.688 -0.5714  3.1067  2.7193
   73MOL0     H 9633   5.295  10.295   5.682 -0.6758  1.0903  0.1548
   73MOL0     H 9634   5.251   9.958   5.418 -0.9811  1.9311 -3.8153
   73MOL0     H 9635   5.490  10.124   6.115 -1.3110  0.4022 -2.7603
   73MOL0     H 9636   5.647  10.169   6.310 -2.9040 -0.2351 -0.7854
   74MOL0     O 9637   5.751  10.718   2.220 -0.3160  0.2475 -0.0175
   74MOL0     C 9638   5.671  10.784   2.289 -0.0611  0.8616 -0.0591
   74MOL0     O 9639   5.551  10.728   2.329 -0.5899 -0.4106  0.2178
   74MOL0     C 9640   5.517  10.602   2.287 -0.3480 -0.8002  0.7277
   74MOL0     C 9641   5.561  10.488   2.362  0.1431 -0.5666  0.3222
   74MOL0     C 9642   5.528  10.363   2.320 -0.0024 -0.1161 -0.6159
   74MOL0     C 9643   5.432  10.342   2.219 -0.6751  0.4900  0.6403
   74MOL0     O 9644   5.386  10.219   2.185  0.1940  0.0383  0.2579
   74MOL0     C 9645   5.407  10.103   2.266  0.0136 -1.0012 -0.5090
   74MOL0     C 9646   5.354   9.974   2.201 -0.0667 -0.9960  0.2540
   74MOL0     C 9647   5.416   9.846   2.268  0.4972 -0.9083  0.3813
   74MOL0     C 9648   5.349   9.722   2.194  0.3270 -0.1650 -0.1139
   74MOL0     C 9649   5.388   9.590   2.266 -0.3614  0.3096 -0.2803
   74MOL0     C 9650   5.317   9.455   2.230 -0.1374  0.1161 -0.5409
   74MOL0     C 9651   5.312   9.423   2.082 -0.0748  0.4089 -0.4520
   74MOL0     C 9652   5.440   9.403   2.016 -0.1109  0.0100 -0.0836
   74MOL0     N 9653   5.432   9.378   1.864 -0.8235 -0.0825  0.2897
   74MOL0     C 9654   5.421   9.258   1.804 -0.1679 -0.2792 -0.5057
   74MOL0     C 9655   5.413   9.278   1.662  0.4020 -0.2307 -0.8251
   74MOL0     C 9656   5.372   9.169   1.558  0.9221  0.5453 -0.6522
   74MOL0     C 9657   5.450   9.166   1.427  0.0289 -0.6332  0.2220
   74MOL0     C 9658   5.598   9.135   1.463 -0.2439 -0.5468  0.0209
   74MOL0     C 9659   5.682   9.254   1.501 -0.2996 -0.4971 -1.0806
   74MOL0     O 9660   5.813   9.211   1.564  0.1049 -0.5290 -0.2844
   74MOL0     C 9661   5.810   9.198   1.701  0.2159 -0.0525 -0.2043
   74MOL0     C 9662   5.807   9.312   1.784  0.0300 -0.9888 -0.2416
   74MOL0     C 9663   5.800   9.297   1.917  0.1491  0.2892 -0.0695
   74MOL0     C 9664   5.806   9.169   1.987  0.3667 -0.6879  0.9546
   74MOL0     C 9665   5.800   9.158   2.131 -0.3150  0.3826  0.3862
   74MOL0     O 9666   5.786   9.272   2.201 -1.2492  0.6090 -0.0052
   74MOL0     C 9667   5.781   9.254   2.339 -0.0943  1.1355 -0.2166
   74MOL0     C 9668   5.897   9.256   2.416 -0.2916  0.2063 -0.0063
   74MOL0     C 9669   5.902   9.275   2.554 -0.6221 -0.1937 -0.0359
   74MOL0     C 9670   5.780   9.284   2.619  0.4580 -0.7129  0.1853
   74MOL0     O 9671   5.778   9.284   2.753 -0.6368  0.4923 -0.6627
   74MOL0     C 9672   5.895   9.295   2.837 -0.6295 -0.3402 -0.8339
   74MOL0     C 9673   5.842   9.320   2.980 -0.7860  0.7910 -0.0358
   74MOL0     C 9674   5.867   9.466   3.012  0.3761  0.4502 -0.5687
   74MOL0     C 9675   5.766   9.508   3.122  0.7860  0.1091  0.2498
   74MOL0     C 9676   5.773   9.659   3.147  0.2362  0.5395 -0.8473
   74MOL0     C 9677   5.677   9.688   3.273  0.1225 -0.3294  0.1453
   74MOL0     C 9678   5.666   9.840   3.323 -0.8348  0.5593  0.1825
   74MOL0     C 9679   5.614   9.918   3.204 -0.1580 -0.4977  0.2189
   74MOL0    Cl 9680   5.443   9.905   3.181  0.3257 -0.2729 -0.3721
   74MOL0     C 9681   5.658   9.278   2.547  0.1309 -1.0838  0.5766
   74MOL0     C 9682   5.655   9.262   2.403 -0.1277  0.1096 -0.1290
   74MOL0     O 9683   5.801   9.043   2.176  0.5821 -0.9984 -0.6049
   74MOL0     C 9684   5.796   9.063   1.899 -0.5017  0.9288  0.0932
   74MOL0     C 9685   5.800   9.073   1.761 -0.3381  0.0379  0.2375
   74MOL0     N 9686   5.433   9.414   1.645 -0.6439  0.6603 -0.5172
   74MOL0     N 9687   5.437   9.467   1.765 -0.2836 -0.3651  0.6716
   74MOL0     C 9688   5.377  10.448   2.151 -0.0974 -0.2855 -0.5364
   74MOL0     C 9689   5.423  10.577   2.186  0.1498  0.4392  0.1903
   74MOL0     C 9690   5.716  10.905   2.352 -0.6762 -0.1779  0.4137
   74MOL0     C 9691   5.642  10.977   2.453  0.4482 -0.9310  0.4424
   74MOL0     C 9692   5.698  11.086   2.512  0.8176 -0.2246 -0.3397
   74MOL0     C 9693   5.828  11.137   2.487  0.2283  0.1419  0.9359
   74MOL0     O 9694   5.872  11.238   2.563  0.2711  0.7212  0.6349
   74MOL0     C 9695   6.002  11.286   2.571  0.4258 -0.7053 -0.2031
   74MOL0     C 9696   6.020  11.402   2.468  0.1030 -0.4548 -0.2398
   74MOL0     C 9697   6.157  11.424   2.407 -1.0291  0.0797  0.0340
   74MOL0     C 9698   6.265  11.438   2.521  0.4150  0.5542  0.0987
   74MOL0     C 9699   6.369  11.534   2.482 -0.5134 -0.1579  0.4626
   74MOL0     C 9700   6.463  11.611   2.470  1.0602  0.4635 -0.0175
   74MOL0     C 9701   5.898  11.077   2.381 -0.0904 -0.4986 -0.5270
   74MOL0     C 9702   5.838  10.965   2.311 -0.1532  0.2444 -0.1879
   74MOL0     H 9703   5.637  10.486   2.440 -0.4381 -0.2540  0.9084
   74MOL0     H 9704   5.563  10.279   2.380 -2.7195  0.2081  1.6252
   74MOL0     H 9705   5.333  10.121   2.344 -1.6173  0.3981 -2.2802
   74MOL0     H 9706   5.506  10.103   2.313 -0.8154 -2.0734  1.3236
   74MOL0     H 9707   5.361   9.971   2.092 -0.7789  1.7463  0.0558
   74MOL0     H 9708   5.248   9.962   2.227 -0.4406  2.3039  0.7964
   74MOL0     H 9709   5.412   9.840   2.378  0.9181 -1.8631  0.3477
   74MOL0     H 9710   5.520   9.852   2.236  0.1068  0.9425 -0.6687
   74MOL0     H 9711   5.240   9.726   2.193 -0.0256 -4.4854 -2.8935
   74MOL0     H 9712   5.380   9.718   2.089 -1.2077  0.1527 -0.6119
   74MOL0     H 9713   5.372   9.601   2.374 -0.4638  1.9875 -0.4449
   74MOL0     H 9714   5.495   9.594   2.244 -0.4756  0.2650 -0.8532
   74MOL0     H 9715   5.216   9.452   2.271 -0.0926 -3.3481 -0.3813
   74MOL0     H 9716   5.373   9.373   2.277 -0.7429 -0.6404 -1.1090
   74MOL0     H 9717   5.264   9.325   2.080  0.5762  0.0184  1.3170
   74MOL0     H 9718   5.244   9.489   2.027 -2.2337 -2.4658 -1.4406
   74MOL0     H 9719   5.490   9.319   2.066  0.5901  0.1264 -0.5762
   74MOL0     H 9720   5.507   9.487   2.035  0.6443 -0.8114  1.0635
   74MOL0     H 9721   5.403   9.166   1.858  0.2711 -0.9666 -1.4977
   74MOL0     H 9722   5.264   9.177   1.540 -0.2555 -2.2365  3.4891
   74MOL0     H 9723   5.388   9.075   1.612  2.0645  1.4215  0.5928
   74MOL0     H 9724   5.440   9.254   1.364 -2.3894 -1.2057 -0.2753
   74MOL0     H 9725   5.392   9.089   1.375 -2.2050  2.4222 -2.1180
   74MOL0     H 9726   5.598   9.047   1.528  4.5174 -2.1377 -1.7028
   74MOL0     H 9727   5.653   9.095   1.378 -1.6527 -1.1971 -0.6272
   74MOL0     H 9728   5.633   9.317   1.575 -2.3230 -2.0168 -1.0491
   74MOL0     H 9729   5.711   9.306   1.409  1.7779  0.4529  0.0300
   74MOL0     H 9730   5.812   9.410   1.737 -0.8157 -1.1028 -0.5979
   74MOL0     H 9731   5.809   9.381   1.985  2.6514  0.5623 -0.6364
   74MOL0     H 9732   5.994   9.252   2.366 -1.0458  1.6379 -1.6939
   74MOL0     H 9733   6.003   9.287   2.591 -0.4521  2.1544 -1.0843
   74MOL0     H 9734   5.966   9.373   2.808  0.3004 -1.2187 -0.9723
   74MOL0     H 9735   5.950   9.200   2.840  1.0011  0.5997  1.6340
   74MOL0     H 9736   5.894   9.259   3.054  3.9060  6.0145  1.6793
   74MOL0     H 9737   5.735   9.301   2.978 -0.4298 -1.4835 -1.1539
   74MOL0     H 9738   5.839   9.524   2.923  0.7099 -0.3507 -1.2168
   74MOL0     H 9739   5.971   9.484   3.040  0.6217 -0.3482 -0.9284
   74MOL0     H 9740   5.662   9.483   3.100  0.8376  1.3303 -1.5958
   74MOL0     H 9741   5.788   9.453   3.214 -1.1503 -0.4403  0.4339
   74MOL0     H 9742   5.741   9.709   3.055  0.0486 -0.0403 -1.1069
   74MOL0     H 9743   5.879   9.673   3.171  0.1306 -0.6630  0.4480
   74MOL0     H 9744   5.719   9.622   3.349  0.0297 -0.8086 -0.2127
   74MOL0     H 9745   5.576   9.649   3.257 -1.1991  2.0241  2.2335
   74MOL0     H 9746   5.601   9.840   3.411 -1.1461 -3.8702  0.1895
   74MOL0     H 9747   5.762   9.874   3.361 -0.5013  0.4207 -0.5153
   74MOL0     H 9748   5.682   9.909   3.119  1.1141  0.8475  1.0314
   74MOL0     H 9749   5.628  10.024   3.228  1.1762 -0.8166  0.9765
   74MOL0     H 9750   5.566   9.281   2.605 -1.2586 -4.9741 -1.1143
   74MOL0     H 9751   5.563   9.277   2.346  0.9343  4.7049 -1.0511
   74MOL0     H 9752   5.787   8.959   1.929  0.8406  0.0727 -2.2065
   74MOL0     H 9753   5.785   8.983   1.703 -2.2023 -1.2245  2.4837
   74MOL0     H 9754   5.310  10.443   2.066 -0.8885 -3.7083  0.1113
   74MOL0     H 9755   5.388  10.662   2.129  0.8868  1.4029  1.1204
   74MOL0     H 9756   5.555  10.919   2.483  1.7898 -4.0609 -1.2486
   74MOL0     H 9757   5.640  11.132   2.591  1.3516 -1.1920  0.6529
   74MOL0     H 9758   6.061  11.198   2.544 -0.4430 -0.5633 -2.7843
   74MOL0     H 9759   6.023  11.323   2.672 -0.7894  0.6930 -0.4358
   74MOL0     H 9760   5.948  11.383   2.388  0.5396 -2.2613 -0.2345
   74MOL0     H 9761   5.983  11.481   2.535  0.9747 -2.5754  2.9885
   74MOL0     H 9762   6.162  11.517   2.350 -1.9142 -1.0953 -2.0951
   74MOL0     H 9763   6.190  11.335   2.352 -0.2363 -1.7364  3.2480
   74MOL0     H 9764   6.220  11.473   2.614 -0.7748  0.8102 -0.5516
   74MOL0     H 9765   6.311  11.340   2.537  0.9579  0.5595 -1.2690
   74MOL0     H 9766   6.550  11.672   2.467  2.4490 -1.4223 -2.3342
   74MOL0     H 9767   6.000  11.107   2.359  0.0917 -1.9897 -1.7866
   74MOL0     H 9768   5.891  10.905   2.238 -1.7571  1.7304 -2.7537
   75MOL0     O 9769   5.709   0.533   6.430 -0.5785  0.5600 -1.0440
   75MOL0     C 9770   5.734   0.642   6.479 -0.2897  0.1180 -0.4781
   75MOL0     O 9771   5.643   0.707   6.570 -0.4535 -0.1416 -0.0097
   75MOL0     C 9772   5.537   0.655   6.632  0.7160  0.1724  0.7156
   75MOL0     C 9773   5.432   0.579   6.569  1.0006 -1.1107 -0.4646
   75MOL0     C 9774   5.317   0.535   6.638  0.7355  1.1321  0.8331
   75MOL0     C 9775   5.318   0.557   6.783 -1.4761  1.0387  1.2554
   75MOL0     O 9776   5.215   0.498   6.846 -1.0462  0.1508  0.6671
   75MOL0     C 9777   5.197   0.484   6.986 -0.1802  0.5388  0.4909
   75MOL0     C 9778   5.096   0.369   7.033 -0.8908  0.4252  1.6786
   75MOL0     C 9779   4.959   0.369   6.949 -0.8593  0.5794 -0.4912
   75MOL0     C 9780   4.865   0.262   7.021 -0.3349 -0.3570  0.5212
   75MOL0     C 9781   4.927   0.127   7.047 -0.0955  0.3676 -0.2762
   75MOL0     C 9782   4.935   0.039   6.921  0.0966 -0.6785 -0.2094
   75MOL0     C 9783   4.798   0.020   6.861 -0.3906 -0.1698  0.0478
   75MOL0     C 9784   4.813  -0.086   6.744  1.4678 -0.2085  0.7386
   75MOL0     N 9785   4.692  -0.094   6.670 -0.0519  0.2274 -0.8187
   75MOL0     C 9786   4.682  -0.143   6.544 -0.1994 -0.2424  0.1096
   75MOL0     C 9787   4.547  -0.155   6.524 -0.5099 -0.5499 -0.2646
   75MOL0     C 9788   4.488  -0.183   6.386 -0.1841  0.0345  0.4944
   75MOL0     C 9789   4.452  -0.327   6.357  0.2530 -0.9168 -0.0687
   75MOL0     C 9790   4.550  -0.431   6.342  0.4046 -0.0206  0.0729
   75MOL0     C 9791   4.493  -0.567   6.311  0.1332 -0.0103  0.3376
   75MOL0     O 9792   4.409  -0.620   6.414  0.0487  0.0334  0.1009
   75MOL0     C 9793   4.390  -0.752   6.402 -0.4589 -0.4604  0.3124
   75MOL0     C 9794   4.324  -0.814   6.298  0.1585 -0.0425  0.1585
   75MOL0     C 9795   4.301  -0.950   6.299  0.2777  0.6066  0.2506
   75MOL0     C 9796   4.331  -1.026   6.415  0.2694  0.5580  0.0472
   75MOL0     C 9797   4.310  -1.181   6.416  0.0017 -0.1009 -0.3466
   75MOL0     O 9798   4.366  -1.252   6.525  0.1634 -0.6865  0.8722
   75MOL0     C 9799   4.301  -1.376   6.553 -1.3153  0.0533 -0.8782
   75MOL0     C 9800   4.328  -1.490   6.481 -0.3853 -0.6367  0.9852
   75MOL0     C 9801   4.266  -1.612   6.513  0.2127  0.2197  0.0831
   75MOL0     C 9802   4.168  -1.615   6.614  0.3144  1.1947  0.3265
   75MOL0     O 9803   4.087  -1.720   6.642 -0.2638 -0.3607  1.1118
   75MOL0     C 9804   4.111  -1.845   6.581  0.5271 -0.0027  0.0184
   75MOL0     C 9805   3.977  -1.916   6.619 -0.3299 -0.6355 -0.2355
   75MOL0     C 9806   3.988  -2.066   6.582  0.5563 -1.1527 -0.9675
   75MOL0     C 9807   4.071  -2.164   6.678  1.4890  1.2912  0.4965
   75MOL0     C 9808   4.079  -2.312   6.637  0.3686  0.1409 -0.3015
   75MOL0     C 9809   4.077  -2.340   6.483  0.1256  0.2016 -0.6299
   75MOL0     C 9810   4.072  -2.486   6.449 -0.4845  0.3211 -0.0656
   75MOL0     C 9811   3.932  -2.543   6.468  0.8802 -0.1710  0.4724
   75MOL0    Cl 9812   3.917  -2.691   6.360  0.5270  0.4665  0.6723
   75MOL0     C 9813   4.141  -1.493   6.679  0.0965 -0.5535 -0.4844
   75MOL0     C 9814   4.215  -1.375   6.661  0.2650 -0.3965  0.8001
   75MOL0     O 9815   4.236  -1.224   6.328  0.3241  0.6251  0.2817
   75MOL0     C 9816   4.398  -0.964   6.520 -0.3066  0.3868  0.3354
   75MOL0     C 9817   4.425  -0.829   6.513 -0.7105  0.0144  1.0511
   75MOL0     N 9818   4.487  -0.144   6.647  0.0867  0.6251 -0.0740
   75MOL0     N 9819   4.579  -0.108   6.734 -0.3930 -0.6669 -0.8601
   75MOL0     C 9820   5.422   0.627   6.846 -0.4650  0.0347  0.3406
   75MOL0     C 9821   5.526   0.678   6.775 -0.8449  0.6022  1.2296
   75MOL0     C 9822   5.852   0.704   6.441 -0.3441 -0.9952 -0.0685
   75MOL0     C 9823   5.873   0.839   6.465  0.5461 -0.2989  0.5526
   75MOL0     C 9824   5.995   0.905   6.428  0.5886  0.1275  0.0981
   75MOL0     C 9825   6.087   0.842   6.346  0.7402 -0.6758  0.6864
   75MOL0     O 9826   6.188   0.907   6.283 -0.3652 -0.0094 -0.0089
   75MOL0     C 9827   6.161   1.044   6.237 -0.0224 -0.5355 -1.2905
   75MOL0     C 9828   6.163   1.046   6.085 -0.0450 -1.3107 -0.6004
   75MOL0     C 9829   6.065   0.958   6.022  0.7991  1.3337 -0.0318
   75MOL0     C 9830   6.070   0.929   5.872  0.5527  0.5847 -0.5257
   75MOL0     C 9831   5.993   0.805   5.839  0.1887  0.0824  0.3856
   75MOL0     C 9832   5.923   0.706   5.818  0.4283  0.8094 -1.1229
   75MOL0     C 9833   6.077   0.711   6.326  0.2714  0.9810  0.0199
   75MOL0     C 9834   5.958   0.634   6.370 -0.4306  0.7602  0.5518
   75MOL0     H 9835   5.410   0.597   6.464 -2.9712  2.5900  0.7054
   75MOL0     H 9836   5.236   0.484   6.587  1.7730  0.6709 -0.4144
   75MOL0     H 9837   5.186   0.579   7.040  1.2265  0.1266  1.5744
   75MOL0     H 9838   5.293   0.443   7.020  0.0726  0.0179 -0.8065
   75MOL0     H 9839   5.084   0.365   7.142  0.4724 -0.6215  1.8144
   75MOL0     H 9840   5.161   0.283   7.012  1.4643  2.0544  1.9110
   75MOL0     H 9841   4.983   0.337   6.847  1.9655  0.8495  0.0183
   75MOL0     H 9842   4.914   0.468   6.955  1.4567  2.0145 -3.7071
   75MOL0     H 9843   4.830   0.309   7.113 -2.6766  1.5508 -1.2267
   75MOL0     H 9844   4.769   0.259   6.969 -2.4628  0.6680  3.9986
   75MOL0     H 9845   4.862   0.074   7.117  0.1872 -0.2367 -0.4678
   75MOL0     H 9846   5.021   0.124   7.102 -1.0564 -0.3427  1.3892
   75MOL0     H 9847   4.974  -0.055   6.961 -1.0057  0.1141  3.0132
   75MOL0     H 9848   5.015   0.076   6.856  2.4702  0.5171  3.1514
   75MOL0     H 9849   4.734  -0.015   6.943  1.7379  0.9998  2.3373
   75MOL0     H 9850   4.754   0.115   6.829 -1.1424 -0.1609  1.0562
   75MOL0     H 9851   4.826  -0.187   6.783 -0.1361 -1.4694 -1.6673
   75MOL0     H 9852   4.889  -0.064   6.668 -0.3451 -0.4947 -1.2674
   75MOL0     H 9853   4.761  -0.170   6.475 -0.4335 -0.1164 -0.2170
   75MOL0     H 9854   4.563  -0.157   6.310  0.7791 -1.8044  0.7486
   75MOL0     H 9855   4.413  -0.108   6.360  0.4440  0.4222 -0.2666
   75MOL0     H 9856   4.385  -0.341   6.272  0.9926 -1.5436 -0.5657
   75MOL0     H 9857   4.386  -0.354   6.439 -1.2804  0.6693 -0.6988
   75MOL0     H 9858   4.617  -0.401   6.260  3.2141  0.7558  2.4566
   75MOL0     H 9859   4.608  -0.420   6.434 -0.4181  4.6594  0.3039
   75MOL0     H 9860   4.567  -0.638   6.275  1.7775  1.4450  0.6984
   75MOL0     H 9861   4.428  -0.550   6.224 -1.5952 -0.2882  1.5417
   75MOL0     H 9862   4.284  -0.752   6.219  1.3350 -0.3971 -0.7289
   75MOL0     H 9863   4.248  -0.991   6.214 -3.3684 -0.1305  2.6289
   75MOL0     H 9864   4.400  -1.481   6.401  0.9047  3.0580  2.3360
   75MOL0     H 9865   4.302  -1.696   6.455  1.3276 -1.5858  3.1313
   75MOL0     H 9866   4.202  -1.891   6.620  0.7069 -1.3793 -1.8719
   75MOL0     H 9867   4.096  -1.839   6.473 -1.9639 -0.9217  0.2404
   75MOL0     H 9868   3.901  -1.863   6.559  1.0476  1.2891 -0.3751
   75MOL0     H 9869   3.955  -1.895   6.724 -0.4865 -0.0903 -0.3701
   75MOL0     H 9870   3.997  -2.065   6.473 -2.5266  3.3062 -1.4708
   75MOL0     H 9871   3.889  -2.112   6.591  1.4021 -2.9387 -0.2311
   75MOL0     H 9872   4.175  -2.135   6.693  0.7510  3.9832  0.9036
   75MOL0     H 9873   4.032  -2.166   6.780  1.4292  1.7030  0.4832
   75MOL0     H 9874   4.002  -2.364   6.695 -2.2069  3.6271 -0.2932
   75MOL0     H 9875   4.168  -2.356   6.683 -0.3203 -1.8810 -0.8041
   75MOL0     H 9876   4.171  -2.303   6.440  2.2588 -3.1812  0.8112
   75MOL0     H 9877   3.991  -2.291   6.435 -1.3975 -1.6913  0.0452
   75MOL0     H 9878   4.102  -2.500   6.344  0.2410  1.8076 -0.0835
   75MOL0     H 9879   4.140  -2.549   6.506  0.5613  1.9249  0.5245
   75MOL0     H 9880   3.870  -2.460   6.432  3.6962  1.1251 -1.8403
   75MOL0     H 9881   3.925  -2.565   6.575  0.8026  0.1603  0.5382
   75MOL0     H 9882   4.057  -1.479   6.747  0.8809  0.8390  0.2222
   75MOL0     H 9883   4.195  -1.295   6.732  2.0860 -1.2953  2.4554
   75MOL0     H 9884   4.416  -1.016   6.614 -1.0657  0.6041  0.6061
   75MOL0     H 9885   4.495  -0.790   6.586 -0.2256 -0.1708  0.6932
   75MOL0     H 9886   5.422   0.626   6.955 -0.6164  1.3927  0.3706
   75MOL0     H 9887   5.614   0.727   6.815  3.6126 -3.6598 -2.0310
   75MOL0     H 9888   5.792   0.881   6.523  2.0849  1.5027  1.5120
   75MOL0     H 9889   6.014   1.009   6.454  2.4701 -0.0463 -0.4176
   75MOL0     H 9890   6.230   1.111   6.290 -0.2760 -2.0957  1.1608
   75MOL0     H 9891   6.065   1.092   6.261  0.8891 -0.1000  2.1043
   75MOL0     H 9892   6.145   1.150   6.057 -1.0927 -0.8329  1.6825
   75MOL0     H 9893   6.257   1.015   6.037  0.4877  1.4980 -1.5733
   75MOL0     H 9894   5.968   1.007   6.032  0.0883  0.2681 -1.4139
   75MOL0     H 9895   6.061   0.862   6.073  1.6069  1.8350  1.0117
   75MOL0     H 9896   6.016   1.008   5.819 -1.0149  1.5222  2.2270
   75MOL0     H 9897   6.174   0.905   5.848  1.4916  2.5010  1.2129
   75MOL0     H 9898   5.856   0.626   5.792 -0.3058  1.6193 -1.8058
   75MOL0     H 9899   6.163   0.680   6.267 -0.9728  2.1889 -2.5652
   75MOL0     H 9900   5.946   0.529   6.343 -1.5168  0.8150  0.7724
   76MOL0     O 9901  10.779   4.260   6.188 -0.6992  0.1295  0.5162
   76MOL0     C 9902  10.745   4.379   6.180 -0.0721 -0.0385  0.2367
   76MOL0     O 9903  10.835   4.480   6.157  0.6831  0.4677 -0.2639
   76MOL0     C 9904  10.958   4.445   6.115 -0.3643  0.9986  0.7448
   76MOL0     C 9905  10.980   4.347   6.020  0.6914 -0.1335  1.3574
   76MOL0     C 9906  11.110   4.312   5.988 -0.5576  0.4511 -0.1452
   76MOL0     C 9907  11.221   4.361   6.044 -1.0447 -1.2372 -0.5162
   76MOL0     O 9908  11.337   4.296   6.002  0.2652 -0.5818  0.7263
   76MOL0     C 9909  11.463   4.367   6.014  0.5810 -0.3864 -0.1125
   76MOL0     C 9910  11.582   4.295   5.936 -0.2582  0.1761 -0.2273
   76MOL0     C 9911  11.553   4.312   5.783 -0.0700  0.7141  0.2448
   76MOL0     C 9912  11.670   4.254   5.695  0.1898 -0.9712 -1.0167
   76MOL0     C 9913  11.669   4.326   5.559  0.3286 -0.2348 -0.2015
   76MOL0     C 9914  11.564   4.261   5.464  0.1678 -0.1656 -0.0863
   76MOL0     C 9915  11.604   4.133   5.404  0.2503  0.5623 -0.8279
   76MOL0     C 9916  11.499   4.065   5.323  0.2373 -0.5679 -0.8176
   76MOL0     N 9917  11.552   3.953   5.249  0.1774 -0.5899  0.1722
   76MOL0     C 9918  11.620   3.852   5.303 -0.2004 -0.3793  0.4813
   76MOL0     C 9919  11.652   3.763   5.209 -0.0895  0.5184 -0.6599
   76MOL0     C 9920  11.715   3.620   5.230  0.7781 -0.0901  0.9456
   76MOL0     C 9921  11.608   3.527   5.286 -0.2058  0.3977  0.5713
   76MOL0     C 9922  11.510   3.486   5.179  0.3793  0.4694  0.5830
   76MOL0     C 9923  11.433   3.359   5.214 -0.0927 -0.3219  0.3193
   76MOL0     O 9924  11.387   3.371   5.348 -0.1462 -0.2166  0.3213
   76MOL0     C 9925  11.264   3.421   5.375 -0.3001  0.5297  0.2113
   76MOL0     C 9926  11.184   3.487   5.284  0.1779 -0.5821  0.1253
   76MOL0     C 9927  11.071   3.554   5.323 -0.0770  0.5993 -0.7475
   76MOL0     C 9928  11.026   3.568   5.455  0.8534  0.3004 -0.0968
   76MOL0     C 9929  10.895   3.635   5.485  0.1060  0.1496  0.5307
   76MOL0     O 9930  10.831   3.704   5.386 -0.2381 -0.4421  0.7756
   76MOL0     C 9931  10.701   3.749   5.403  0.2554 -1.0939  0.1393
   76MOL0     C 9932  10.668   3.872   5.337  0.3020 -0.2834 -0.1724
   76MOL0     C 9933  10.544   3.924   5.349 -0.3810 -0.3624 -0.7052
   76MOL0     C 9934  10.446   3.855   5.418 -0.2374  0.2783  0.0430
   76MOL0     O 9935  10.325   3.894   5.453  0.2288  1.2364 -0.2366
   76MOL0     C 9936  10.284   4.020   5.409  0.2821  0.8740  0.0487
   76MOL0     C 9937  10.141   4.040   5.471  0.0456 -0.9042  0.0979
   76MOL0     C 9938  10.023   3.967   5.415  0.0077 -0.3267  0.5941
   76MOL0     C 9939  10.018   3.940   5.266 -0.3642 -0.6577  0.8779
   76MOL0     C 9940   9.941   3.814   5.240 -0.4159  1.5248 -0.6881
   76MOL0     C 9941   9.947   3.762   5.098 -0.8834 -1.6630  0.1407
   76MOL0     C 9942   9.905   3.862   4.986 -0.9693 -0.1026 -0.5460
   76MOL0     C 9943   9.757   3.889   4.996  0.2740  0.0279  0.6564
   76MOL0    Cl 9944   9.672   3.744   4.991  0.2505 -0.0967 -0.5979
   76MOL0     C 9945  10.474   3.728   5.463  0.1222 -0.9902 -0.4604
   76MOL0     C 9946  10.599   3.677   5.447 -0.3267 -0.3827  0.5639
   76MOL0     O 9947  10.843   3.619   5.600 -0.3155  0.3329 -0.6843
   76MOL0     C 9948  11.099   3.506   5.548 -0.5907  0.4798  0.0694
   76MOL0     C 9949  11.216   3.431   5.513  0.4006  0.1064  0.1406
   76MOL0     N 9950  11.610   3.822   5.092 -0.1606  1.0150 -0.6431
   76MOL0     N 9951  11.549   3.927   5.114  0.8470 -0.4953 -1.0310
   76MOL0     C 9952  11.195   4.463   6.143  0.3617 -0.1368  0.7333
   76MOL0     C 9953  11.068   4.499   6.179  0.7809 -0.6617  0.0226
   76MOL0     C 9954  10.619   4.416   6.246 -0.1894  0.5976  0.5744
   76MOL0     C 9955  10.522   4.327   6.298 -0.5529  0.1865  0.7170
   76MOL0     C 9956  10.401   4.375   6.351  1.0110 -0.7656  0.8139
   76MOL0     C 9957  10.373   4.511   6.356  0.6095 -0.3074 -1.3302
   76MOL0     O 9958  10.262   4.569   6.416  0.0258  0.1342 -0.1111
   76MOL0     C 9959  10.206   4.499   6.528 -0.2671  0.5544  0.4723
   76MOL0     C 9960  10.057   4.459   6.495 -0.1483  0.0827 -0.0653
   76MOL0     C 9961   9.993   4.383   6.615 -0.0252  1.2426  0.1140
   76MOL0     C 9962   9.846   4.368   6.633  0.3250  0.5037 -0.9579
   76MOL0     C 9963   9.805   4.335   6.773 -0.1841  0.3110 -0.8666
   76MOL0     C 9964   9.757   4.290   6.876  0.7306  0.8570  0.0661
   76MOL0     C 9965  10.471   4.597   6.318 -0.8149 -0.2768  0.7727
   76MOL0     C 9966  10.595   4.555   6.261  0.3882  0.2220 -0.1459
   76MOL0     H 9967  10.892   4.322   5.961  1.8772  1.5973 -1.3353
   76MOL0     H 9968  11.120   4.239   5.908  0.6005 -2.8490  2.7540
   76MOL0     H 9969  11.496   4.374   6.118  1.6687 -1.5373 -0.3547
   76MOL0     H 9970  11.441   4.469   5.981  0.8448 -0.3593 -0.2083
   76MOL0     H 9971  11.580   4.188   5.957  0.2111  0.5202  1.7923
   76MOL0     H 9972  11.676   4.339   5.972  0.6957 -2.6161  0.9383
   76MOL0     H 9973  11.540   4.419   5.764  0.0843  0.6818 -0.0541
   76MOL0     H 9974  11.464   4.253   5.758  0.3796 -1.7451  3.8015
   76MOL0     H 9975  11.760   4.285   5.748 -0.9022 -0.1440  0.4512
   76MOL0     H 9976  11.662   4.145   5.692  0.6239 -1.1321  1.6357
   76MOL0     H 9977  11.769   4.311   5.518  0.8059  1.3954  0.2805
   76MOL0     H 9978  11.654   4.432   5.583 -1.8986 -1.1876  3.4445
   76MOL0     H 9979  11.542   4.334   5.384 -0.4369  2.8072  2.5766
   76MOL0     H 9980  11.474   4.232   5.519 -1.9929 -2.1839 -4.1949
   76MOL0     H 9981  11.687   4.159   5.337  2.7292  0.5447  1.9938
   76MOL0     H 9982  11.639   4.057   5.475  4.3367  1.8741 -1.1420
   76MOL0     H 9983  11.456   4.132   5.248 -1.1471 -1.0585 -0.4956
   76MOL0     H 9984  11.422   4.024   5.389  2.1694 -2.7093  0.2669
   76MOL0     H 9985  11.633   3.840   5.410 -0.9778  1.5923  0.8334
   76MOL0     H 9986  11.798   3.634   5.300  1.3441 -0.3336  0.3260
   76MOL0     H 9987  11.746   3.578   5.134 -0.7555 -1.1398  0.8637
   76MOL0     H 9988  11.554   3.584   5.362 -0.0910  1.2662  0.0180
   76MOL0     H 9989  11.657   3.440   5.330 -1.3086 -1.7628 -2.1985
   76MOL0     H 9990  11.437   3.568   5.177  2.0240  2.0005  0.4811
   76MOL0     H 9991  11.558   3.490   5.081 -3.1319  0.9271 -1.2921
   76MOL0     H 9992  11.510   3.281   5.212 -0.2889 -0.5097 -1.4060
   76MOL0     H 9993  11.355   3.333   5.141  2.0262 -1.2975 -1.7125
   76MOL0     H 9994  11.216   3.503   5.181 -0.2453 -1.1562 -0.1091
   76MOL0     H 9995  11.008   3.610   5.255  0.0520  2.9826  0.9742
   76MOL0     H 9996  10.753   3.916   5.286  0.2199 -0.6180 -0.6013
   76MOL0     H 9997  10.518   4.015   5.294  4.9529 -0.3432 -3.8614
   76MOL0     H 9998  10.287   4.032   5.300 -0.0348 -0.6088 -0.1486
   76MOL0     H 9999  10.349   4.093   5.458 -0.2812  1.0745  0.4988
   76MOL0     H10000  10.111   4.145   5.473  2.7739  0.0624 -2.2309
   76MOL0     H10001  10.151   4.014   5.576 -1.4331  0.8337  0.7310
   76MOL0     H10002   9.936   4.019   5.456  1.9840  2.0579  2.0455
   76MOL0     H10003  10.031   3.875   5.475 -1.1424 -0.5806  0.3912
   76MOL0     H10004   9.981   4.028   5.212  1.2306  0.3175  1.2785
   76MOL0     H10005  10.114   3.926   5.217 -0.6083 -0.0811  0.2069
   76MOL0     H10006   9.837   3.825   5.271 -0.0789 -1.2143  1.9022
   76MOL0     H10007   9.984   3.731   5.298 -2.3733 -0.1801 -1.5363
   76MOL0     H10008   9.884   3.672   5.093  0.2949 -2.4656 -1.5683
   76MOL0     H10009  10.046   3.718   5.080 -0.4494  0.2889 -3.0135
   76MOL0     H10010   9.951   3.961   5.000 -0.1363 -0.7489  1.6553
   76MOL0     H10011   9.939   3.814   4.894  1.7821  0.1259  0.2576
   76MOL0     H10012   9.726   3.939   4.904  2.2342  1.0329  0.4772
   76MOL0     H10013   9.734   3.953   5.082 -0.0947 -0.5891  1.0248
   76MOL0     H10014  10.395   3.668   5.508 -2.0049  1.9184 -0.0724
   76MOL0     H10015  10.625   3.576   5.476  1.9614 -0.7044 -2.1338
   76MOL0     H10016  11.103   3.510   5.657  0.3268  0.8447  0.0383
   76MOL0     H10017  11.276   3.397   5.596 -0.6269  2.7872  2.1534
   76MOL0     H10018  11.272   4.509   6.204 -0.3234 -4.0177  5.1344
   76MOL0     H10019  11.048   4.578   6.252  0.1390 -0.0862 -0.7589
   76MOL0     H10020  10.539   4.220   6.303 -0.4450  0.2256  1.3395
   76MOL0     H10021  10.327   4.303   6.385 -0.1245  0.0238  0.0928
   76MOL0     H10022  10.203   4.578   6.604  5.9181  4.6557 -2.7045
   76MOL0     H10023  10.265   4.412   6.560 -0.0854 -2.2114 -5.8689
   76MOL0     H10024  10.005   4.554   6.479  0.1804  0.4522  0.9986
   76MOL0     H10025  10.059   4.398   6.403 -0.9104 -1.0634  0.6512
   76MOL0     H10026  10.047   4.395   6.709  0.8968 -1.5127  0.0118
   76MOL0     H10027  10.015   4.281   6.582 -2.7647  0.1641  1.3742
   76MOL0     H10028   9.800   4.460   6.597  0.8054  1.1544  0.0529
   76MOL0     H10029   9.810   4.284   6.573  2.1091  1.4531 -3.5563
   76MOL0     H10030   9.711   4.261   6.968  1.1053  1.0480  0.3184
   76MOL0     H10031  10.455   4.703   6.334  2.1787  0.6721 -1.5219
   76MOL0     H10032  10.663   4.636   6.243 -1.8628  1.6400 -3.0440
   77MOL0     O10033   8.890   7.452   0.214  0.3458  0.1862 -0.2120
   77MOL0     C10034   9.006   7.459   0.259  0.6034 -2.1521 -0.4380
   77MOL0     O10035   9.073   7.365   0.320  0.3883 -0.2097 -0.5802
   77MOL0     C10036   9.018   7.235   0.322 -0.0535  0.0295  0.6364
   77MOL0     C10037   8.907   7.208   0.398  1.1120 -1.2684 -0.2813
   77MOL0     C10038   8.864   7.078   0.413 -0.1844  0.7579 -0.8490
   77MOL0     C10039   8.935   6.970   0.365  0.9675  0.0736 -0.1507
   77MOL0     O10040   8.884   6.838   0.393 -0.1755 -0.2207  0.7370
   77MOL0     C10041   8.845   6.755   0.279  0.4076 -0.3412 -0.5520
   77MOL0     C10042   8.710   6.791   0.216  0.7997  0.0012  0.1068
   77MOL0     C10043   8.590   6.786   0.308  0.4684 -0.5491  0.2271
   77MOL0     C10044   8.544   6.649   0.357  0.4944  0.2408  0.6221
   77MOL0     C10045   8.423   6.646   0.455 -0.3886  0.0725 -0.6522
   77MOL0     C10046   8.366   6.502   0.470 -0.5903 -1.0175 -0.1030
   77MOL0     C10047   8.222   6.497   0.513 -0.3973 -0.5753 -0.1580
   77MOL0     C10048   8.190   6.357   0.562 -0.7993  0.3493 -0.3265
   77MOL0     N10049   8.043   6.348   0.595  0.0717 -0.7469 -0.2968
   77MOL0     C10050   7.932   6.338   0.501 -0.2311  1.2801 -0.3007
   77MOL0     C10051   7.824   6.341   0.595  0.3196  0.9730 -0.5300
   77MOL0     C10052   7.681   6.341   0.554 -0.0879 -0.2845 -0.7532
   77MOL0     C10053   7.636   6.195   0.545 -0.6009  0.4016 -0.6787
   77MOL0     C10054   7.656   6.105   0.663  1.2256  0.4113 -0.4522
   77MOL0     C10055   7.556   6.136   0.771  1.0841 -0.1748  0.8704
   77MOL0     O10056   7.444   6.062   0.732  0.1347 -0.3740 -0.4967
   77MOL0     C10057   7.406   5.976   0.832  0.5332 -0.5786  0.5909
   77MOL0     C10058   7.392   5.844   0.801 -0.7318  0.1565 -0.2864
   77MOL0     C10059   7.337   5.751   0.883  0.4501  0.4410  0.0739
   77MOL0     C10060   7.287   5.789   1.015 -0.9990 -0.3974 -0.7041
   77MOL0     C10061   7.254   5.686   1.114 -0.7341 -0.5026 -0.0354
   77MOL0     O10062   7.196   5.575   1.066 -0.1530  0.1913 -0.1006
   77MOL0     C10063   7.172   5.472   1.155  0.2452  1.0540  0.6240
   77MOL0     C10064   7.250   5.349   1.142 -0.4970 -0.1813  0.2058
   77MOL0     C10065   7.226   5.240   1.221 -0.1090  1.0189 -0.3941
   77MOL0     C10066   7.111   5.240   1.299  0.9316 -0.6941 -0.1297
   77MOL0     O10067   7.067   5.128   1.372  0.0080  1.2147  0.0024
   77MOL0     C10068   6.925   5.100   1.380 -0.7791 -0.5906 -1.0157
   77MOL0     C10069   6.848   5.114   1.253 -0.6255 -0.5429 -1.2634
   77MOL0     C10070   6.892   5.015   1.145 -0.3749  0.8417 -0.2100
   77MOL0     C10071   6.837   4.875   1.184 -0.5575  0.3838  0.2873
   77MOL0     C10072   6.896   4.751   1.103  0.0579 -0.2896 -0.2508
   77MOL0     C10073   6.941   4.774   0.961  0.5276 -0.3009  0.1432
   77MOL0     C10074   7.009   4.656   0.900 -0.0190 -0.3551  0.0252
   77MOL0     C10075   6.918   4.531   0.871 -0.1090 -0.7704  0.0726
   77MOL0    Cl10076   6.791   4.592   0.761  0.8594  0.3807  0.2681
   77MOL0     C10077   7.036   5.362   1.317 -0.0496  0.6021  0.0229
   77MOL0     C10078   7.066   5.471   1.234  0.6011 -0.3192 -0.0313
   77MOL0     O10079   7.309   5.692   1.231 -0.0036  0.1685  0.1094
   77MOL0     C10080   7.313   5.921   1.055  1.2020 -0.2695 -0.1908
   77MOL0     C10081   7.363   6.015   0.959  1.2618 -0.8690 -1.2471
   77MOL0     N10082   7.877   6.350   0.728 -0.4143  0.0911  0.2892
   77MOL0     N10083   8.005   6.343   0.725 -0.4442 -0.4600  0.6654
   77MOL0     C10084   9.041   6.998   0.283 -0.7951  0.6553  0.0996
   77MOL0     C10085   9.090   7.129   0.267 -1.0721 -0.2206  0.0499
   77MOL0     C10086   9.068   7.584   0.207 -0.4942 -0.6748  0.2560
   77MOL0     C10087   9.208   7.593   0.184 -0.1923  0.6590 -1.2808
   77MOL0     C10088   9.269   7.706   0.121  0.7537 -0.2176  0.3750
   77MOL0     C10089   9.193   7.820   0.096 -1.3540  0.1003 -0.1678
   77MOL0     O10090   9.263   7.926   0.033 -0.2223 -0.4694 -0.1183
   77MOL0     C10091   9.199   8.048   0.012 -0.3118  0.8578 -0.9699
   77MOL0     C10092   9.306   8.154  -0.023  1.0816  0.1779  0.6612
   77MOL0     C10093   9.255   8.298  -0.060 -0.6830 -0.0830  0.0258
   77MOL0     C10094   9.382   8.387  -0.062 -0.2394 -0.1114  0.9619
   77MOL0     C10095   9.359   8.525  -0.111  0.6118 -0.1985  0.3363
   77MOL0     C10096   9.339   8.644  -0.138 -0.1399 -0.0441 -0.4835
   77MOL0     C10097   9.060   7.820   0.143  0.1866  1.0882 -0.2391
   77MOL0     C10098   8.997   7.705   0.201  0.1004 -0.3570  0.2230
   77MOL0     H10099   8.844   7.291   0.429 -1.0194 -1.4452 -3.5923
   77MOL0     H10100   8.767   7.059   0.459  1.0216  1.6332  2.3272
   77MOL0     H10101   8.857   6.655   0.321  0.4776  0.8559  2.5737
   77MOL0     H10102   8.919   6.766   0.199 -0.6380  0.4104 -1.4477
   77MOL0     H10103   8.696   6.730   0.127  0.1800 -0.3316  0.4243
   77MOL0     H10104   8.717   6.891   0.171  1.0521  0.5347  1.2882
   77MOL0     H10105   8.498   6.831   0.272 -1.8079  0.3620  6.0433
   77MOL0     H10106   8.619   6.841   0.398 -0.1759  2.3297 -1.2217
   77MOL0     H10107   8.513   6.599   0.266  0.8710  0.5705  0.3062
   77MOL0     H10108   8.626   6.595   0.406 -0.4225 -2.1119 -0.3167
   77MOL0     H10109   8.343   6.713   0.423 -1.4273 -0.5439  0.5380
   77MOL0     H10110   8.446   6.692   0.551 -2.4901  0.0987 -0.1029
   77MOL0     H10111   8.434   6.448   0.537  1.5373 -0.3624 -1.6126
   77MOL0     H10112   8.371   6.444   0.378  0.4591 -2.1209  0.6167
   77MOL0     H10113   8.215   6.564   0.599 -0.1871 -0.1343 -0.4844
   77MOL0     H10114   8.156   6.521   0.429 -2.2134  0.4443  1.4749
   77MOL0     H10115   8.249   6.322   0.648 -1.9025 -1.6348 -0.3229
   77MOL0     H10116   8.213   6.298   0.473  2.4797  2.0237 -0.7568
   77MOL0     H10117   7.918   6.312   0.396 -0.0422 -4.2075  0.7401
   77MOL0     H10118   7.679   6.387   0.455 -2.6953 -0.5897 -0.9111
   77MOL0     H10119   7.608   6.389   0.621 -2.2413  1.1913 -3.9139
   77MOL0     H10120   7.703   6.143   0.475  1.9885 -2.3218  3.3862
   77MOL0     H10121   7.529   6.206   0.523 -1.3986  1.6956  3.1297
   77MOL0     H10122   7.638   6.005   0.624  0.4832  0.3818 -0.0579
   77MOL0     H10123   7.757   6.110   0.705  1.8900 -2.5182 -1.4997
   77MOL0     H10124   7.525   6.241   0.774  0.3624 -0.2646 -1.4377
   77MOL0     H10125   7.599   6.106   0.866  0.8502 -0.1577  0.9826
   77MOL0     H10126   7.435   5.806   0.709 -2.4740 -2.0569 -0.2516
   77MOL0     H10127   7.332   5.645   0.857  0.3024 -0.3399  2.9481
   77MOL0     H10128   7.334   5.343   1.074  0.7300  2.5858  1.3137
   77MOL0     H10129   7.280   5.147   1.208 -0.5050  1.0723 -2.9800
   77MOL0     H10130   6.869   5.168   1.446 -1.6738 -1.1558 -1.1668
   77MOL0     H10131   6.912   5.003   1.431 -4.9144  1.5163  2.7211
   77MOL0     H10132   6.868   5.217   1.222 -3.1553  0.0898 -0.9992
   77MOL0     H10133   6.746   5.105   1.290 -0.8554  0.3041 -1.6728
   77MOL0     H10134   7.001   5.016   1.134 -0.4050  1.8971 -0.4675
   77MOL0     H10135   6.843   5.045   1.052  1.0809 -0.6789 -1.5504
   77MOL0     H10136   6.855   4.867   1.292  4.8298  1.5078 -0.2261
   77MOL0     H10137   6.728   4.872   1.174 -0.6218  1.7912  0.3119
   77MOL0     H10138   6.823   4.671   1.112 -1.0251  0.6011 -0.7719
   77MOL0     H10139   6.980   4.713   1.161 -0.3896 -1.0670 -0.1105
   77MOL0     H10140   7.012   4.855   0.980 -0.1159  0.9482 -2.4087
   77MOL0     H10141   6.860   4.814   0.900 -0.0985  1.7557  2.1534
   77MOL0     H10142   7.050   4.711   0.815 -1.3907  3.2863  1.5353
   77MOL0     H10143   7.089   4.617   0.963  1.4894 -2.0889 -2.7825
   77MOL0     H10144   6.882   4.473   0.956  1.7901 -3.1957 -0.6708
   77MOL0     H10145   6.978   4.456   0.818 -2.5205 -2.9669  0.2343
   77MOL0     H10146   6.951   5.364   1.383  0.2286 -0.1650  0.4069
   77MOL0     H10147   7.001   5.558   1.224  1.7082  0.7131  1.3278
   77MOL0     H10148   7.303   5.957   1.157  1.6200 -3.2678  1.0079
   77MOL0     H10149   7.386   6.116   0.991  1.4474 -0.4013 -2.7790
   77MOL0     H10150   9.117   6.925   0.258  1.6015  2.0014  2.8171
   77MOL0     H10151   9.187   7.140   0.219 -0.9465 -1.6309 -0.0620
   77MOL0     H10152   9.256   7.502   0.218 -3.7203 -0.1137  2.4433
   77MOL0     H10153   9.373   7.702   0.089  0.2939 -1.5692 -1.0346
   77MOL0     H10154   9.145   8.073   0.103  2.0547 -1.1123  1.1051
   77MOL0     H10155   9.141   8.038  -0.081  2.9750 -0.9086 -3.0335
   77MOL0     H10156   9.366   8.164   0.068  0.7341  2.3368  0.6903
   77MOL0     H10157   9.364   8.124  -0.111  0.1182  1.4957 -0.4613
   77MOL0     H10158   9.174   8.341  -0.001 -0.5430  3.0850 -1.8890
   77MOL0     H10159   9.209   8.288  -0.159 -0.6649  0.0966 -0.0007
   77MOL0     H10160   9.434   8.384   0.034  0.7669 -3.8199  0.4589
   77MOL0     H10161   9.457   8.347  -0.130  0.9636  3.9974 -0.4562
   77MOL0     H10162   9.333   8.751  -0.131  0.3292 -0.0219 -0.3805
   77MOL0     H10163   9.002   7.908   0.118  0.3765  0.2937 -4.0863
   77MOL0     H10164   8.895   7.721   0.236  0.2064  2.1806 -0.4207
   78MOL0     O10165   2.474   7.096  10.127  0.3948 -0.6559 -0.0874
   78MOL0     C10166   2.358   7.140  10.150 -0.5445  0.1443 -0.0372
   78MOL0     O10167   2.313   7.192  10.269 -0.0484  0.0026  0.8365
   78MOL0     C10168   2.402   7.221  10.368 -0.6271  0.6783 -0.3192
   78MOL0     C10169   2.388   7.342  10.420 -0.6399  0.6146  0.3905
   78MOL0     C10170   2.459   7.380  10.535 -0.0127  0.1103  0.7664
   78MOL0     C10171   2.541   7.293  10.602  1.1081  0.3023  0.3834
   78MOL0     O10172   2.581   7.345  10.718 -0.1725 -0.7839 -0.4538
   78MOL0     C10173   2.674   7.276  10.809  0.6092  1.0440 -0.3613
   78MOL0     C10174   2.682   7.351  10.942  0.6389  0.0338 -0.0847
   78MOL0     C10175   2.794   7.299  11.038 -0.4887 -0.2656  0.7999
   78MOL0     C10176   2.822   7.406  11.145 -0.4369 -0.0271 -1.0328
   78MOL0     C10177   2.943   7.377  11.217  0.8503 -0.0941  0.2647
   78MOL0     C10178   3.036   7.490  11.281 -0.2279 -0.0693  0.6218
   78MOL0     C10179   3.088   7.589  11.172  0.2158 -0.3077  0.0397
   78MOL0     C10180   3.130   7.727  11.235  0.3277  1.1651 -0.3292
   78MOL0     N10181   3.207   7.712  11.360  0.4448  0.4419  0.6923
   78MOL0     C10182   3.160   7.727  11.488 -0.2223  0.1247 -0.0725
   78MOL0     C10183   3.273   7.727  11.561 -0.0986  0.6229 -1.0508
   78MOL0     C10184   3.268   7.737  11.715  0.3337 -0.3328  0.2697
   78MOL0     C10185   3.196   7.859  11.775 -0.0079 -0.5632  1.2056
   78MOL0     C10186   3.177   7.846  11.925 -0.9233  0.4277  0.2316
   78MOL0     C10187   3.143   7.971  12.005 -0.3075 -0.1163  0.0782
   78MOL0     O10188   3.027   7.946  12.078  0.8052 -0.4204  0.0723
   78MOL0     C10189   2.998   8.028  12.182  0.5000  0.3892  0.1600
   78MOL0     C10190   2.865   8.063  12.195  0.2437 -0.3800  0.7460
   78MOL0     C10191   2.828   8.167  12.285  0.8932  0.4423 -0.1140
   78MOL0     C10192   2.918   8.219  12.382  0.6196 -0.4858 -0.0774
   78MOL0     C10193   2.866   8.314  12.467 -0.1708 -0.4847 -0.2471
   78MOL0     O10194   2.748   8.380  12.429 -0.0978 -0.0647 -0.3733
   78MOL0     C10195   2.688   8.469  12.514  0.5865 -0.4024 -0.4849
   78MOL0     C10196   2.560   8.444  12.553  0.4142 -0.9147 -0.8544
   78MOL0     C10197   2.495   8.545  12.625  0.2053 -0.4457 -0.1612
   78MOL0     C10198   2.564   8.663  12.669  0.1070  0.5045 -0.2401
   78MOL0     O10199   2.491   8.757  12.737 -0.0356 -0.3208  0.1987
   78MOL0     C10200   2.462   8.748  12.878 -0.0615  0.1047  0.6235
   78MOL0     C10201   2.520   8.848  12.969 -0.2389 -0.9018  0.2206
   78MOL0     C10202   2.670   8.810  12.990 -0.1671 -0.1028 -0.8644
   78MOL0     C10203   2.732   8.918  13.075 -1.7033  0.6241  0.4785
   78MOL0     C10204   2.880   8.892  13.105  0.0078 -0.4119 -0.5155
   78MOL0     C10205   2.888   8.770  13.203 -1.4846 -0.0435 -0.0701
   78MOL0     C10206   3.013   8.777  13.281  0.4618  1.2584 -1.1229
   78MOL0     C10207   3.039   8.660  13.382  0.1475  0.7898  0.3294
   78MOL0    Cl10208   3.193   8.676  13.451  0.3069  0.2368  0.1105
   78MOL0     C10209   2.692   8.681  12.632 -0.3279 -0.4887 -0.3477
   78MOL0     C10210   2.750   8.586  12.548  0.0302  0.7135  0.7180
   78MOL0     O10211   2.924   8.332  12.570 -0.2239  0.5640 -0.2931
   78MOL0     C10212   3.047   8.156  12.381  0.0046  0.0696 -0.4565
   78MOL0     C10213   3.087   8.065  12.282 -0.7018 -0.3377 -1.7121
   78MOL0     N10214   3.384   7.721  11.485 -0.5632 -0.0065  0.0162
   78MOL0     N10215   3.339   7.710  11.369  0.7868 -1.1336  0.3903
   78MOL0     C10216   2.560   7.165  10.552  0.9997  1.5367  0.7241
   78MOL0     C10217   2.487   7.133  10.436 -0.8046 -0.5367 -0.4336
   78MOL0     C10218   2.259   7.110  10.047  0.6989  0.4811  0.6251
   78MOL0     C10219   2.134   7.058  10.067  0.9229 -0.0140 -0.9682
   78MOL0     C10220   2.044   7.041   9.955  0.7267 -0.4731  0.4958
   78MOL0     C10221   2.091   7.048   9.819 -0.1676  0.0367  0.1020
   78MOL0     O10222   2.018   7.032   9.700 -0.1440  0.4506 -0.3132
   78MOL0     C10223   1.903   6.948   9.696  0.0961 -0.8630 -0.3789
   78MOL0     C10224   1.779   7.033   9.711  0.2005 -0.0325 -0.3556
   78MOL0     C10225   1.647   6.952   9.737  0.0119  0.9819 -0.4638
   78MOL0     C10226   1.505   7.021   9.743  0.1165  0.0749  0.1575
   78MOL0     C10227   1.480   7.084   9.618 -0.4079  0.5185  0.0212
   78MOL0     C10228   1.442   7.137   9.511  0.0306 -0.9506  0.4303
   78MOL0     C10229   2.219   7.099   9.803 -0.2811  0.7162  0.3242
   78MOL0     C10230   2.294   7.125   9.910 -1.0125  0.1482 -0.5216
   78MOL0     H10231   2.313   7.396  10.363  0.7496  1.4548 -0.7076
   78MOL0     H10232   2.415   7.473  10.570 -3.9520 -1.0995 -0.3973
   78MOL0     H10233   2.770   7.248  10.764 -1.1102 -0.3003 -3.5973
   78MOL0     H10234   2.637   7.173  10.822 -1.7163  1.7573 -0.8097
   78MOL0     H10235   2.593   7.351  11.005  1.3235 -2.8812  1.0538
   78MOL0     H10236   2.704   7.453  10.911  2.8130 -0.0263  1.0381
   78MOL0     H10237   2.888   7.276  10.988  1.3554  1.8396  3.0422
   78MOL0     H10238   2.770   7.203  11.085  2.4883 -0.7763  1.4576
   78MOL0     H10239   2.823   7.500  11.089 -2.1172  0.0254 -1.0408
   78MOL0     H10240   2.741   7.421  11.218 -0.2725  3.5398 -1.3747
   78MOL0     H10241   3.011   7.325  11.149  2.1488  2.0322 -0.1230
   78MOL0     H10242   2.909   7.311  11.298  0.7785 -0.5670 -0.1440
   78MOL0     H10243   3.129   7.451  11.323  2.0735  1.4534 -2.6058
   78MOL0     H10244   2.969   7.542  11.350 -0.1648  0.1220  0.5393
   78MOL0     H10245   3.164   7.528  11.123  1.3400 -1.8155  3.3288
   78MOL0     H10246   3.009   7.603  11.098  1.3746 -0.4085 -1.2478
   78MOL0     H10247   3.045   7.791  11.263 -1.6391 -0.1311 -2.9621
   78MOL0     H10248   3.185   7.785  11.160 -0.6254  3.1859  0.4337
   78MOL0     H10249   3.059   7.744  11.524 -0.6189  0.9427 -1.5308
   78MOL0     H10250   3.370   7.721  11.750  0.8167  0.8495 -0.5377
   78MOL0     H10251   3.213   7.649  11.750  0.0717 -1.1956 -2.1070
   78MOL0     H10252   3.108   7.874  11.712  1.5035  0.9229 -0.6659
   78MOL0     H10253   3.256   7.948  11.756  0.2709 -1.0903 -0.5258
   78MOL0     H10254   3.101   7.767  11.937  0.2947 -0.6254  1.3250
   78MOL0     H10255   3.269   7.803  11.965 -0.2293  1.6242 -0.0304
   78MOL0     H10256   3.138   8.060  11.942  1.1673  0.0595  0.1733
   78MOL0     H10257   3.232   7.995  12.064  2.4115 -1.4424 -3.1063
   78MOL0     H10258   2.781   8.024  12.139 -0.2593  1.6078  0.0565
   78MOL0     H10259   2.720   8.183  12.285  0.4599 -2.0372  0.0008
   78MOL0     H10260   2.505   8.352  12.536  0.3895 -0.5110 -3.4418
   78MOL0     H10261   2.392   8.531  12.658  0.5734 -0.7271  0.9152
   78MOL0     H10262   2.498   8.653  12.917  1.5566  1.2333  1.9747
   78MOL0     H10263   2.354   8.757  12.896  0.0566  3.0585  0.3024
   78MOL0     H10264   2.463   8.869  13.060  1.1348  3.7899  0.2897
   78MOL0     H10265   2.520   8.940  12.910 -2.7087 -0.9936 -0.0102
   78MOL0     H10266   2.735   8.803  12.902 -0.4511 -0.2415 -1.0633
   78MOL0     H10267   2.667   8.709  13.031 -1.1886  0.0429 -0.5586
   78MOL0     H10268   2.737   9.015  13.025 -0.9433 -0.8974 -2.5736
   78MOL0     H10269   2.671   8.933  13.165 -1.8046  1.8479  0.2204
   78MOL0     H10270   2.922   8.984  13.147 -0.7002  0.7060 -2.1521
   78MOL0     H10271   2.938   8.877  13.013 -0.0737 -0.2983 -0.5859
   78MOL0     H10272   2.891   8.680  13.141  1.3369  0.1648 -0.3672
   78MOL0     H10273   2.792   8.764  13.255 -1.5728  3.6476  0.4598
   78MOL0     H10274   3.101   8.775  13.216  1.3833 -2.9498 -0.1099
   78MOL0     H10275   3.001   8.871  13.335  0.3654  0.0318  1.1425
   78MOL0     H10276   3.017   8.566  13.330  1.6500  0.3552  0.4482
   78MOL0     H10277   2.965   8.661  13.463 -0.0904 -0.8743  0.1804
   78MOL0     H10278   2.750   8.772  12.648  0.4916 -0.6100 -2.3264
   78MOL0     H10279   2.852   8.597  12.512 -0.0984  1.1317  0.4735
   78MOL0     H10280   3.124   8.181  12.453 -0.7688  0.1110  0.3668
   78MOL0     H10281   3.188   8.024  12.289 -1.3933 -1.8304  0.3939
   78MOL0     H10282   2.590   7.079  10.612 -1.0783 -1.2081 -1.8553
   78MOL0     H10283   2.483   7.034  10.391 -0.4117 -0.1099 -1.4492
   78MOL0     H10284   2.104   7.023  10.165  2.6665 -2.0118 -1.0848
   78MOL0     H10285   1.941   7.012   9.974  1.0341 -0.3042  2.6899
   78MOL0     H10286   1.908   6.868   9.771  2.0277  1.3198  2.0089
   78MOL0     H10287   1.896   6.897   9.600  0.3407  3.0466 -2.6722
   78MOL0     H10288   1.793   7.101   9.795  5.0630 -0.0765 -0.8512
   78MOL0     H10289   1.764   7.087   9.617 -1.0734  0.2582  0.0006
   78MOL0     H10290   1.664   6.897   9.830  1.1892 -0.2272 -1.3476
   78MOL0     H10291   1.633   6.882   9.655  0.6337 -2.5858  2.2535
   78MOL0     H10292   1.423   6.948   9.747 -1.4558  1.4813 -2.6062
   78MOL0     H10293   1.480   7.089   9.824 -1.8127  1.7159 -1.6735
   78MOL0     H10294   1.417   7.193   9.422  0.4454  1.4877  1.7518
   78MOL0     H10295   2.260   7.110   9.703 -4.1871  1.4702 -1.3850
   78MOL0     H10296   2.393   7.158   9.878 -0.9413 -1.7799 -2.5142
   79MOL0     O10297   9.846   8.391  11.171 -0.7349  0.1234 -0.2306
   79MOL0     C10298   9.946   8.360  11.243  0.7143  0.5913 -0.3308
   79MOL0     O10299  10.062   8.308  11.194  0.2421  0.9233 -0.1028
   79MOL0     C10300  10.095   8.321  11.066  0.6006 -0.5923  0.1821
   79MOL0     C10301  10.160   8.441  11.024 -0.3121  0.6317  0.5549
   79MOL0     C10302  10.204   8.448  10.891 -0.6653 -1.0537  0.0173
   79MOL0     C10303  10.185   8.346  10.807  0.1126 -0.4316  0.0150
   79MOL0     O10304  10.235   8.357  10.678  0.1125 -0.6164  0.4190
   79MOL0     C10305  10.140   8.370  10.571 -0.8573 -1.1909  0.5335
   79MOL0     C10306  10.072   8.237  10.524  0.6033  0.0981 -0.3725
   79MOL0     C10307   9.970   8.253  10.411  0.2177 -0.3895  0.3623
   79MOL0     C10308   9.887   8.129  10.407  0.0692 -0.3460 -0.0288
   79MOL0     C10309   9.789   8.135  10.284  0.0323  0.6856  0.2436
   79MOL0     C10310   9.712   8.001  10.268 -0.5197  0.1936  0.0691
   79MOL0     C10311   9.630   7.982  10.136 -0.0771  0.9171  0.6155
   79MOL0     C10312   9.686   7.860  10.064  0.0592 -0.3757  0.0636
   79MOL0     N10313   9.589   7.820   9.957  0.1729  0.7238  0.4395
   79MOL0     C10314   9.617   7.701   9.892  0.1163 -0.6071 -0.0547
   79MOL0     C10315   9.493   7.667   9.854  0.4921 -1.0408  0.3414
   79MOL0     C10316   9.449   7.530   9.820  0.4013 -0.5705  0.8155
   79MOL0     C10317   9.320   7.497   9.910 -0.5741 -0.2874  0.1371
   79MOL0     C10318   9.276   7.352   9.879  0.1597 -0.3407 -0.6856
   79MOL0     C10319   9.231   7.318   9.732  0.1190 -0.4143 -0.9567
   79MOL0     O10320   9.227   7.175   9.713 -0.0192 -0.3216 -0.3806
   79MOL0     C10321   9.171   7.129   9.598  0.8577 -0.8643 -0.1655
   79MOL0     C10322   9.142   7.202   9.479 -0.0008 -0.4150  1.7733
   79MOL0     C10323   9.083   7.144   9.373 -0.6757  0.0334  0.5367
   79MOL0     C10324   9.047   7.006   9.378  0.7586  0.9165 -0.1342
   79MOL0     C10325   8.975   6.941   9.265  0.1523 -0.2846 -0.0345
   79MOL0     O10326   8.973   7.017   9.151 -0.0923  0.3672  0.7768
   79MOL0     C10327   8.906   6.979   9.037  0.7320 -0.7309 -0.0737
   79MOL0     C10328   8.770   6.935   9.041 -0.0560 -0.3826 -0.0167
   79MOL0     C10329   8.711   6.883   8.923 -0.6177 -0.4233 -0.2831
   79MOL0     C10330   8.773   6.900   8.795 -0.2089  1.4473  0.4093
   79MOL0     O10331   8.702   6.853   8.691  0.9780 -0.5301  0.4229
   79MOL0     C10332   8.767   6.871   8.559  0.6808  0.5740  0.1382
   79MOL0     C10333   8.669   6.805   8.457  0.9512 -0.0726 -0.4001
   79MOL0     C10334   8.552   6.890   8.423 -0.2804  0.3871 -0.3478
   79MOL0     C10335   8.435   6.806   8.403  0.5316 -0.9675  0.1692
   79MOL0     C10336   8.305   6.890   8.380  0.0887  0.4422 -0.1963
   79MOL0     C10337   8.243   6.929   8.519 -0.2489  0.2216  0.3215
   79MOL0     C10338   8.171   6.821   8.597 -0.7376  0.0227 -1.1301
   79MOL0     C10339   8.088   6.864   8.719 -0.4431 -0.4197  0.1233
   79MOL0    Cl10340   8.002   6.730   8.803 -0.4342  0.0712  0.1075
   79MOL0     C10341   8.904   6.941   8.793 -0.4657  0.7047  0.2874
   79MOL0     C10342   8.972   6.975   8.918 -0.1254 -0.3806 -0.0236
   79MOL0     O10343   8.928   6.829   9.278 -0.0265 -0.2286  0.1251
   79MOL0     C10344   9.091   6.926   9.484 -0.0195 -0.7707 -1.1552
   79MOL0     C10345   9.136   6.997   9.605  0.6979  0.4460 -0.4804
   79MOL0     N10346   9.400   7.775   9.865  0.1363  0.2046  0.1316
   79MOL0     N10347   9.466   7.869   9.941 -0.3805  0.8389 -0.3258
   79MOL0     C10348  10.128   8.225  10.851  0.1088  0.5926  0.9228
   79MOL0     C10349  10.079   8.218  10.982 -0.6033  0.0139  0.2813
   79MOL0     C10350   9.928   8.368  11.392 -0.1645 -0.0804  0.2723
   79MOL0     C10351  10.048   8.353  11.471  0.7799  1.3437  0.5040
   79MOL0     C10352  10.035   8.359  11.610  0.0899  0.1527 -0.6921
   79MOL0     C10353   9.909   8.369  11.669 -0.4993 -0.9634 -0.1203
   79MOL0     O10354   9.914   8.355  11.802  0.0944  0.4012 -0.2642
   79MOL0     C10355   9.809   8.400  11.889 -0.9753  0.1993 -0.7729
   79MOL0     C10356   9.846   8.363  12.039  0.4857  0.1714  0.5909
   79MOL0     C10357   9.855   8.215  12.073  0.1080 -0.3820 -0.1013
   79MOL0     C10358   9.732   8.132  12.035  0.0262  0.5974  0.2786
   79MOL0     C10359   9.607   8.173  12.106 -0.7743 -0.0396  0.2007
   79MOL0     C10360   9.519   8.227  12.156 -0.0371  0.3962 -0.2734
   79MOL0     C10361   9.797   8.408  11.594  0.2240  0.3053  0.1970
   79MOL0     C10362   9.806   8.405  11.452 -0.7879 -0.5134  0.0151
   79MOL0     H10363  10.195   8.509  11.102  0.7447  0.4834  0.2178
   79MOL0     H10364  10.261   8.535  10.861 -0.4503 -1.3799 -0.5491
   79MOL0     H10365  10.202   8.412  10.492 -0.8511 -0.0782  1.1143
   79MOL0     H10366  10.073   8.446  10.612  1.1193 -0.2652  2.2442
   79MOL0     H10367  10.020   8.184  10.605 -0.7087  3.0669  0.9009
   79MOL0     H10368  10.142   8.166  10.480 -0.8021 -0.9513 -1.0043
   79MOL0     H10369  10.013   8.269  10.312 -2.5640 -0.0743 -0.8709
   79MOL0     H10370   9.904   8.339  10.427 -3.1425 -1.9872 -3.2805
   79MOL0     H10371   9.941   8.034  10.398  0.0098 -0.4920  1.0960
   79MOL0     H10372   9.835   8.140  10.502  1.2627 -1.5549  0.8022
   79MOL0     H10373   9.837   8.159  10.189 -0.6335 -0.3122 -0.3584
   79MOL0     H10374   9.713   8.212  10.299  0.4942  1.2980 -0.4760
   79MOL0     H10375   9.649   7.980  10.356  1.4247  1.0721  1.7375
   79MOL0     H10376   9.791   7.927  10.256 -0.6896  0.3556 -2.8678
   79MOL0     H10377   9.524   7.966  10.156 -1.4180  2.2717 -4.0957
   79MOL0     H10378   9.631   8.068  10.069 -1.8503 -0.0552 -0.7451
   79MOL0     H10379   9.696   7.774  10.131 -0.6734 -0.3266  0.2448
   79MOL0     H10380   9.782   7.885  10.018  2.8666 -3.9609  3.3094
   79MOL0     H10381   9.708   7.643   9.892  0.2995 -0.4850  2.9783
   79MOL0     H10382   9.537   7.465   9.823  0.5089 -0.4528  0.2983
   79MOL0     H10383   9.425   7.523   9.713  0.9219 -2.3157  0.7775
   79MOL0     H10384   9.240   7.570   9.892 -0.5350 -0.3460 -0.2849
   79MOL0     H10385   9.348   7.503  10.015 -1.2940 -5.2281  0.8362
   79MOL0     H10386   9.365   7.293   9.901  0.5512  0.6308  0.4949
   79MOL0     H10387   9.196   7.326   9.948 -0.8169  1.6974 -0.9597
   79MOL0     H10388   9.296   7.364   9.657 -1.7131  0.5930 -1.9920
   79MOL0     H10389   9.138   7.374   9.722  1.2560  1.5378 -1.1827
   79MOL0     H10390   9.162   7.309   9.484  1.5862 -0.5988  0.4275
   79MOL0     H10391   9.044   7.200   9.288 -2.3132  1.5571  2.2072
   79MOL0     H10392   8.724   6.927   9.139 -0.4568 -3.3445 -0.3472
   79MOL0     H10393   8.613   6.838   8.932 -1.1927  0.6032 -1.0504
   79MOL0     H10394   8.857   6.811   8.576 -0.0025 -0.8488 -1.0183
   79MOL0     H10395   8.772   6.978   8.536 -1.8825  0.7048 -0.0639
   79MOL0     H10396   8.651   6.704   8.495 -0.1923  0.5447  0.7597
   79MOL0     H10397   8.733   6.802   8.368  0.5825  0.2909 -0.6789
   79MOL0     H10398   8.574   6.946   8.331 -0.6579 -1.3690 -1.5393
   79MOL0     H10399   8.530   6.963   8.502  0.5538  1.2110 -0.8504
   79MOL0     H10400   8.456   6.747   8.313 -1.4915 -1.8450  0.2273
   79MOL0     H10401   8.433   6.741   8.491  4.3492 -2.0216 -0.3523
   79MOL0     H10402   8.235   6.821   8.332  0.9408  0.7243 -1.9282
   79MOL0     H10403   8.321   6.972   8.310 -3.8226  1.6132  0.0541
   79MOL0     H10404   8.163   6.999   8.494 -1.0358 -0.5665  0.5832
   79MOL0     H10405   8.315   6.986   8.579 -0.5679 -0.1356  1.0544
   79MOL0     H10406   8.090   6.792   8.530 -2.6445  1.6719  0.3235
   79MOL0     H10407   8.243   6.748   8.636 -0.8900  1.1309  1.4077
   79MOL0     H10408   8.032   6.952   8.688 -0.9491  0.4990  3.2649
   79MOL0     H10409   8.159   6.898   8.795  2.9407 -1.3156 -2.4094
   79MOL0     H10410   8.961   6.965   8.704  0.6305  2.2276  1.3630
   79MOL0     H10411   9.077   7.001   8.912 -0.5460  1.3341 -0.5656
   79MOL0     H10412   9.075   6.819   9.495 -0.4705 -0.5745  0.3684
   79MOL0     H10413   9.145   6.931   9.691  3.9169  0.6152 -0.5634
   79MOL0     H10414  10.126   8.135  10.790  1.3099  2.9258 -2.9685
   79MOL0     H10415  10.020   8.132  11.012 -0.0428  0.0458  1.5302
   79MOL0     H10416  10.146   8.350  11.424  0.4459  1.7486 -0.2382
   79MOL0     H10417  10.128   8.346  11.665 -2.2461 -0.6800  3.5619
   79MOL0     H10418   9.715   8.349  11.865 -2.1074  2.2047 -0.8649
   79MOL0     H10419   9.784   8.505  11.875  0.1207  0.2922 -2.2664
   79MOL0     H10420   9.943   8.402  12.073  1.2187 -1.9001  1.0135
   79MOL0     H10421   9.776   8.405  12.112  2.9378  2.0502  2.0157
   79MOL0     H10422   9.872   8.202  12.180  1.2229  1.4370 -0.0100
   79MOL0     H10423   9.939   8.183  12.009 -1.1870  0.4569 -2.3379
   79MOL0     H10424   9.725   8.128  11.925  0.2785  2.1136  0.1866
   79MOL0     H10425   9.757   8.030  12.066  5.0329  2.0579  1.9141
   79MOL0     H10426   9.440   8.286  12.198 -2.0599 -0.9599 -1.9989
   79MOL0     H10427   9.698   8.423  11.637 -0.2371 -0.5746 -0.5029
   79MOL0     H10428   9.723   8.414  11.383 -2.4493  0.9125  2.0699
   80MOL0     O10429   6.654   6.277   4.962 -0.4984  0.0938  0.1089
   80MOL0     C10430   6.552   6.344   4.964  0.0788  0.0471 -0.1192
   80MOL0     O10431   6.506   6.413   4.856 -0.1473 -0.3686 -0.8423
   80MOL0     C10432   6.577   6.395   4.741  0.0696 -0.3765 -0.6997
   80MOL0     C10433   6.594   6.265   4.681 -0.1101 -0.7722  0.1223
   80MOL0     C10434   6.660   6.264   4.555  0.2839 -0.8961 -0.0052
   80MOL0     C10435   6.725   6.378   4.491 -0.7995  0.6239 -1.0400
   80MOL0     O10436   6.792   6.359   4.370 -0.6017 -0.8054 -0.3221
   80MOL0     C10437   6.867   6.239   4.348  0.2443  0.1857  0.5773
   80MOL0     C10438   6.990   6.233   4.435  1.3047  1.2457 -0.3075
   80MOL0     C10439   7.086   6.358   4.423 -0.1562  0.2686  0.2841
   80MOL0     C10440   7.071   6.457   4.540 -0.2851  0.1359  0.7612
   80MOL0     C10441   7.159   6.584   4.511  0.6122  0.2956  0.4907
   80MOL0     C10442   7.308   6.555   4.542  0.8851  0.0886 -0.8472
   80MOL0     C10443   7.397   6.671   4.504  0.3101 -0.2510 -0.8782
   80MOL0     C10444   7.546   6.635   4.532  0.2815 -0.5263  0.6431
   80MOL0     N10445   7.592   6.596   4.671 -0.1151  0.8784  0.6130
   80MOL0     C10446   7.543   6.660   4.778 -0.1604  0.2247 -0.5471
   80MOL0     C10447   7.609   6.609   4.886 -0.1152 -0.2789 -0.9429
   80MOL0     C10448   7.577   6.638   5.025  1.1818 -0.3943 -0.3883
   80MOL0     C10449   7.450   6.723   5.039  0.9698  0.1306 -0.6699
   80MOL0     C10450   7.392   6.725   5.188 -0.1930 -0.1601  0.1528
   80MOL0     C10451   7.308   6.597   5.218  0.0160  0.0982 -0.5689
   80MOL0     O10452   7.264   6.596   5.356  0.4163  0.5894 -1.1256
   80MOL0     C10453   7.186   6.690   5.402  1.1268 -1.0571 -0.3205
   80MOL0     C10454   7.065   6.735   5.344  0.4989 -0.1378  0.2414
   80MOL0     C10455   6.985   6.830   5.404  0.2026  0.5449  0.0857
   80MOL0     C10456   7.037   6.907   5.513  1.0932 -0.7225 -0.2839
   80MOL0     C10457   6.961   7.023   5.551 -1.1093 -0.6827 -0.1114
   80MOL0     O10458   6.999   7.074   5.670  0.4462  0.2253 -0.1884
   80MOL0     C10459   6.938   7.187   5.712 -0.0660  0.1004  0.2897
   80MOL0     C10460   6.992   7.316   5.676  0.0798 -0.2316 -0.3187
   80MOL0     C10461   6.946   7.431   5.741  1.0365 -0.4389 -0.3135
   80MOL0     C10462   6.827   7.419   5.824 -0.0751  0.2683 -0.3426
   80MOL0     O10463   6.770   7.529   5.886 -0.2665 -0.0758  0.4399
   80MOL0     C10464   6.634   7.560   5.863  1.1801 -0.1466  0.8179
   80MOL0     C10465   6.588   7.567   6.011 -0.1309  0.5882 -1.1783
   80MOL0     C10466   6.639   7.691   6.077  0.1283 -0.2869  0.1647
   80MOL0     C10467   6.574   7.711   6.211 -0.5007 -0.0119 -0.6185
   80MOL0     C10468   6.612   7.847   6.289 -0.3136 -0.6191  0.1780
   80MOL0     C10469   6.744   7.840   6.369  1.3044  0.0898  0.1371
   80MOL0     C10470   6.718   7.846   6.519 -1.2950 -0.2658  0.9153
   80MOL0     C10471   6.644   7.737   6.590 -0.0193 -0.1454 -0.2041
   80MOL0    Cl10472   6.722   7.585   6.579  0.2225  0.0152  0.0982
   80MOL0     C10473   6.769   7.297   5.842  0.8722 -0.7808  0.7362
   80MOL0     C10474   6.825   7.178   5.787  0.8015  0.3338  0.8977
   80MOL0     O10475   6.871   7.071   5.483  0.1198 -0.1647 -0.2431
   80MOL0     C10476   7.151   6.858   5.579 -1.0666  0.7526  0.0004
   80MOL0     C10477   7.227   6.749   5.520  0.5844 -0.2457 -0.5501
   80MOL0     N10478   7.704   6.521   4.836 -0.3321 -0.2993 -0.2051
   80MOL0     N10479   7.704   6.528   4.712  0.0552  0.0660 -0.4838
   80MOL0     C10480   6.706   6.501   4.557 -0.2492  0.0480 -0.1639
   80MOL0     C10481   6.636   6.503   4.677  0.8767  0.7779 -0.6155
   80MOL0     C10482   6.491   6.376   5.098 -0.0227  0.0470  1.4440
   80MOL0     C10483   6.410   6.492   5.097  1.1972  0.2825  0.2074
   80MOL0     C10484   6.342   6.539   5.214  0.1844  0.4816 -0.3673
   80MOL0     C10485   6.358   6.476   5.336 -0.6528 -0.5361  0.8053
   80MOL0     O10486   6.319   6.530   5.448  0.1379 -0.5380 -0.1651
   80MOL0     C10487   6.279   6.670   5.450 -0.6020 -0.0436  0.6264
   80MOL0     C10488   6.401   6.762   5.440  0.2188  0.0900 -0.3863
   80MOL0     C10489   6.514   6.722   5.542  0.6951  0.6682  1.0911
   80MOL0     C10490   6.614   6.830   5.574  0.6343  0.6471 -0.0867
   80MOL0     C10491   6.698   6.787   5.694 -0.0905 -0.3706 -0.4728
   80MOL0     C10492   6.764   6.768   5.801 -0.3008 -0.6052 -1.1862
   80MOL0     C10493   6.441   6.366   5.335 -0.3207  0.3818 -0.0677
   80MOL0     C10494   6.511   6.316   5.224 -0.7095  0.4580  0.3550
   80MOL0     H10495   6.537   6.181   4.719  0.9915 -1.8798 -0.6227
   80MOL0     H10496   6.657   6.163   4.515 -1.1579 -0.3145 -1.4942
   80MOL0     H10497   6.892   6.234   4.242 -0.5907 -0.5359  0.4014
   80MOL0     H10498   6.796   6.156   4.358 -1.9062  1.9402  0.7792
   80MOL0     H10499   7.050   6.150   4.397  2.0180  2.1287 -1.1635
   80MOL0     H10500   6.959   6.204   4.536  2.6573  0.9830  0.0578
   80MOL0     H10501   7.068   6.408   4.328  0.2596  0.6005  0.3809
   80MOL0     H10502   7.188   6.320   4.415 -0.4972 -0.3901 -1.6339
   80MOL0     H10503   6.965   6.477   4.562 -0.0243  0.8259  1.4190
   80MOL0     H10504   7.113   6.399   4.622  2.3666 -0.2030 -0.7271
   80MOL0     H10505   7.109   6.663   4.567  1.1185  2.1571 -1.5136
   80MOL0     H10506   7.144   6.609   4.406  0.1367 -1.3722  0.1302
   80MOL0     H10507   7.340   6.467   4.485 -0.8276 -0.1006 -1.5916
   80MOL0     H10508   7.330   6.538   4.647 -0.9598  0.1688 -0.4090
   80MOL0     H10509   7.383   6.698   4.398  0.6828  2.5702 -0.2962
   80MOL0     H10510   7.365   6.763   4.554 -1.3922 -0.1447 -2.0787
   80MOL0     H10511   7.613   6.712   4.492  0.7724 -0.8328  0.8583
   80MOL0     H10512   7.559   6.552   4.461 -0.8095  0.9166 -1.3450
   80MOL0     H10513   7.472   6.742   4.779 -0.2850  0.1879  2.4343
   80MOL0     H10514   7.662   6.680   5.081  0.8922  0.6315 -0.6835
   80MOL0     H10515   7.560   6.545   5.079 -0.5507  0.6551  0.9994
   80MOL0     H10516   7.367   6.677   4.986 -0.1438  1.3123 -0.0001
   80MOL0     H10517   7.458   6.825   4.999  0.3162 -0.3824 -2.1505
   80MOL0     H10518   7.472   6.726   5.262  1.3191 -3.9632 -1.2245
   80MOL0     H10519   7.335   6.818   5.199  3.5839  2.2799  0.7179
   80MOL0     H10520   7.363   6.505   5.197 -0.4016  0.6735 -5.4386
   80MOL0     H10521   7.222   6.599   5.150  1.4633  1.2254 -2.4572
   80MOL0     H10522   7.034   6.703   5.245  0.3773  1.7997 -0.3790
   80MOL0     H10523   6.902   6.862   5.342 -0.9698  1.4927  2.0540
   80MOL0     H10524   7.076   7.322   5.607  0.9780  3.4365  0.8841
   80MOL0     H10525   6.970   7.535   5.721  0.9590 -0.0143  1.6367
   80MOL0     H10526   6.581   7.476   5.816  2.8059 -1.6645  1.5674
   80MOL0     H10527   6.612   7.652   5.808 -1.5523 -0.6809  0.8538
   80MOL0     H10528   6.633   7.489   6.073  0.4068  2.2895  0.6931
   80MOL0     H10529   6.480   7.555   6.020 -0.0970  0.3567 -1.0677
   80MOL0     H10530   6.633   7.772   6.004  2.2808 -0.5825 -0.4116
   80MOL0     H10531   6.743   7.670   6.105  0.0987 -1.0452 -0.2656
   80MOL0     H10532   6.467   7.706   6.191 -1.0202 -3.7997  1.9964
   80MOL0     H10533   6.600   7.632   6.281 -3.4250 -0.9924 -0.5200
   80MOL0     H10534   6.522   7.872   6.347 -2.0448  1.7191 -3.2050
   80MOL0     H10535   6.639   7.922   6.215  1.5209  0.1601  1.5840
   80MOL0     H10536   6.809   7.923   6.339 -1.7990  1.2810 -4.3624
   80MOL0     H10537   6.799   7.747   6.351 -1.5215 -2.0333  1.5546
   80MOL0     H10538   6.822   7.850   6.553 -0.2165 -0.8307 -2.0168
   80MOL0     H10539   6.674   7.945   6.536 -1.9073  0.0235 -1.8995
   80MOL0     H10540   6.549   7.708   6.543 -1.6892 -1.7561  3.7120
   80MOL0     H10541   6.626   7.769   6.693 -0.2609 -0.4435 -0.1502
   80MOL0     H10542   6.687   7.294   5.912  0.2672 -1.9301  0.0120
   80MOL0     H10543   6.782   7.087   5.828  3.6845 -2.9455 -2.5726
   80MOL0     H10544   7.195   6.923   5.654 -0.6448  1.4028 -0.7899
   80MOL0     H10545   7.318   6.715   5.569  1.2789  0.5701 -1.2217
   80MOL0     H10546   6.758   6.583   4.507 -1.1214 -0.5564 -2.1905
   80MOL0     H10547   6.634   6.599   4.728  4.1762  0.6065  0.0346
   80MOL0     H10548   6.397   6.548   5.005  0.1895 -1.0873 -0.5115
   80MOL0     H10549   6.282   6.628   5.193  1.7841  1.4471 -1.0375
   80MOL0     H10550   6.219   6.697   5.538 -0.4920  2.9735 -0.0944
   80MOL0     H10551   6.206   6.694   5.372 -2.1492  1.3789  2.4076
   80MOL0     H10552   6.452   6.758   5.343 -1.7516  2.4615 -1.6412
   80MOL0     H10553   6.365   6.863   5.458 -0.4838 -0.3350  0.6913
   80MOL0     H10554   6.578   6.636   5.523  0.9562 -0.0369  4.4923
   80MOL0     H10555   6.450   6.707   5.630 -3.0711  4.2833 -0.6501
   80MOL0     H10556   6.679   6.854   5.489 -1.1334  1.7489 -1.1712
   80MOL0     H10557   6.569   6.918   5.620  2.3623  1.3327  0.3851
   80MOL0     H10558   6.805   6.767   5.900 -0.8422 -1.0037 -0.9569
   80MOL0     H10559   6.453   6.321   5.434 -1.9588  2.0890  0.9655
   80MOL0     H10560   6.571   6.227   5.244  1.1109  1.4729 -0.4026
   81MOL0     O10561   0.136   4.874   0.565  0.1146  0.0201 -0.5419
   81MOL0     C10562   0.120   4.752   0.579  0.0209  0.1350  0.6321
   81MOL0     O10563   0.200   4.667   0.643  0.4750 -0.3259 -0.9953
   81MOL0     C10564   0.316   4.700   0.714  0.0832  0.2686  1.2599
   81MOL0     C10565   0.340   4.821   0.765 -0.4143 -1.0611  0.3703
   81MOL0     C10566   0.464   4.848   0.839  0.1327 -0.1384  0.1035
   81MOL0     C10567   0.554   4.744   0.852 -0.2564  0.9740 -0.6988
   81MOL0     O10568   0.658   4.776   0.941 -0.1518  0.4917  0.0558
   81MOL0     C10569   0.781   4.693   0.931  0.4460 -0.4230  0.7057
   81MOL0     C10570   0.908   4.762   0.977 -0.5321  1.0549 -0.4715
   81MOL0     C10571   0.993   4.659   1.045  0.7115  0.2994 -0.9326
   81MOL0     C10572   1.137   4.709   1.061 -0.8151  0.0757  0.1464
   81MOL0     C10573   1.233   4.607   1.137  0.5203  1.5411 -0.2192
   81MOL0     C10574   1.285   4.501   1.036  0.1543 -0.6595  0.7189
   81MOL0     C10575   1.363   4.375   1.070 -0.4393 -0.7556 -0.6797
   81MOL0     C10576   1.489   4.397   1.152 -0.7775 -0.4978 -0.1008
   81MOL0     N10577   1.564   4.269   1.170  0.6506 -0.6979 -0.2355
   81MOL0     C10578   1.658   4.221   1.084  0.5985  0.4206 -0.4685
   81MOL0     C10579   1.696   4.107   1.142  1.1451  0.6745  0.5421
   81MOL0     C10580   1.781   4.002   1.078  0.6123  0.2652 -1.0154
   81MOL0     C10581   1.913   4.052   1.022 -0.0703  1.0480  0.1458
   81MOL0     C10582   1.902   4.085   0.874 -0.1022 -0.5301 -1.1362
   81MOL0     C10583   1.888   3.961   0.787  1.1162  0.0442  0.4593
   81MOL0     O10584   2.011   3.901   0.739  0.3250 -0.1415 -0.3063
   81MOL0     C10585   2.013   3.817   0.632 -0.2898  0.1068 -0.3351
   81MOL0     C10586   2.138   3.805   0.569  1.0775  0.0376 -0.3681
   81MOL0     C10587   2.150   3.722   0.453  0.5193  0.5039 -0.6402
   81MOL0     C10588   2.040   3.657   0.391 -0.4112 -0.5442  0.0922
   81MOL0     C10589   2.054   3.577   0.263  1.2378 -0.6910 -0.3615
   81MOL0     O10590   2.179   3.581   0.199  0.6583  0.6644  0.4433
   81MOL0     C10591   2.202   3.545   0.065  0.0553 -0.4688  0.0841
   81MOL0     C10592   2.335   3.510   0.019  0.1765 -0.1340 -0.2671
   81MOL0     C10593   2.361   3.482  -0.108 -0.1597 -0.4119 -0.5421
   81MOL0     C10594   2.269   3.498  -0.210 -0.3463  0.9665 -0.7863
   81MOL0     O10595   2.286   3.485  -0.342 -0.8172 -0.2570 -1.2684
   81MOL0     C10596   2.388   3.389  -0.367  0.0959 -0.6150  0.0201
   81MOL0     C10597   2.402   3.387  -0.523 -0.7817  0.1490 -0.1207
   81MOL0     C10598   2.507   3.277  -0.550 -0.3795 -0.4211  0.5171
   81MOL0     C10599   2.600   3.308  -0.671  0.4586  0.0287  0.2241
   81MOL0     C10600   2.726   3.231  -0.683 -0.2122 -0.1558  0.2539
   81MOL0     C10601   2.807   3.274  -0.806  0.5037 -0.1062  0.1934
   81MOL0     C10602   2.965   3.280  -0.781 -0.9671  0.4469  0.7802
   81MOL0     C10603   3.037   3.339  -0.895  0.0892  0.2508  0.0527
   81MOL0    Cl10604   3.219   3.330  -0.864 -0.4597  0.3651  0.2691
   81MOL0     C10605   2.137   3.527  -0.172 -0.6740 -1.3332 -0.8116
   81MOL0     C10606   2.109   3.539  -0.031  0.6541  0.4091  0.9848
   81MOL0     O10607   1.953   3.506   0.230 -0.1582 -0.9704  0.7109
   81MOL0     C10608   1.912   3.683   0.452  0.3880 -0.2275 -0.9451
   81MOL0     C10609   1.903   3.760   0.572  0.0714  0.1799  0.4304
   81MOL0     N10610   1.625   4.091   1.265  0.1144  0.2088 -0.1307
   81MOL0     N10611   1.539   4.185   1.269  0.2780 -0.1547 -0.8637
   81MOL0     C10612   0.540   4.620   0.782 -0.3190 -0.3987 -0.2093
   81MOL0     C10613   0.418   4.599   0.712 -0.3107 -0.2228  1.0949
   81MOL0     C10614  -0.012   4.689   0.544  0.2542  0.4399  0.6440
   81MOL0     C10615  -0.109   4.761   0.467  0.1763 -0.1614  0.6917
   81MOL0     C10616  -0.232   4.715   0.424 -0.9322 -0.0467 -0.2324
   81MOL0     C10617  -0.264   4.582   0.469 -0.2838 -0.1472 -0.1448
   81MOL0     O10618  -0.381   4.508   0.439 -0.1251  0.1262  0.8430
   81MOL0     C10619  -0.494   4.567   0.372  0.3694 -0.5380 -0.7557
   81MOL0     C10620  -0.591   4.476   0.302 -0.6013  1.0472 -0.7580
   81MOL0     C10621  -0.531   4.372   0.200 -0.1576  0.6870  0.4532
   81MOL0     C10622  -0.602   4.382   0.064 -0.3784  0.5808  0.6274
   81MOL0     C10623  -0.748   4.339   0.077 -0.5657 -0.5151  0.6832
   81MOL0     C10624  -0.861   4.311   0.095  0.4808 -0.2680 -1.1022
   81MOL0     C10625  -0.167   4.502   0.536  0.2414  0.1675 -0.7078
   81MOL0     C10626  -0.045   4.551   0.571 -0.2758  0.6905  0.3248
   81MOL0     H10627   0.266   4.901   0.758  1.2799  0.8942  2.8690
   81MOL0     H10628   0.484   4.946   0.881  0.0739 -1.1924  2.7912
   81MOL0     H10629   0.803   4.662   0.828 -0.6440 -1.5670  0.7893
   81MOL0     H10630   0.759   4.606   0.994  3.5716  0.0851  2.7704
   81MOL0     H10631   0.883   4.838   1.052  0.9696  0.8104  0.3152
   81MOL0     H10632   0.961   4.810   0.895  0.4030 -0.3758 -0.7381
   81MOL0     H10633   0.995   4.566   0.988 -0.2166  0.7534 -1.7324
   81MOL0     H10634   0.957   4.632   1.145  0.2369  2.0973 -0.5792
   81MOL0     H10635   1.187   4.716   0.964  1.7489  1.9009  1.4636
   81MOL0     H10636   1.141   4.803   1.117 -0.3765 -0.6586  1.3963
   81MOL0     H10637   1.184   4.556   1.221  3.2237  3.0456  2.4402
   81MOL0     H10638   1.326   4.654   1.166  0.7259  1.9736 -1.4955
   81MOL0     H10639   1.345   4.557   0.964  2.5103 -1.9973  1.5318
   81MOL0     H10640   1.195   4.467   0.982  0.8349  0.2669 -1.0639
   81MOL0     H10641   1.304   4.306   1.131 -0.8674 -0.2395 -0.4922
   81MOL0     H10642   1.393   4.326   0.977  0.7511 -2.3311  0.4800
   81MOL0     H10643   1.480   4.430   1.256 -1.3410 -3.3342  0.8423
   81MOL0     H10644   1.553   4.470   1.100 -0.9340 -0.9932 -1.0121
   81MOL0     H10645   1.695   4.262   0.991  3.5141 -1.6592 -0.4044
   81MOL0     H10646   1.718   3.936   1.018  0.5672 -1.9428  1.3367
   81MOL0     H10647   1.803   3.938   1.163  0.5334 -1.0004 -1.9181
   81MOL0     H10648   1.985   3.970   1.025 -0.3561  0.6473 -2.0148
   81MOL0     H10649   1.961   4.125   1.088  1.9783  0.3517 -0.4763
   81MOL0     H10650   1.815   4.150   0.867  0.6279  0.4411 -1.5074
   81MOL0     H10651   1.989   4.145   0.843 -0.0430  0.1108  0.1928
   81MOL0     H10652   1.833   4.002   0.702 -0.2880  0.7521  1.6521
   81MOL0     H10653   1.820   3.889   0.833 -0.4223  0.8665 -0.4331
   81MOL0     H10654   2.228   3.854   0.606 -0.5445  3.5583 -0.7153
   81MOL0     H10655   2.241   3.690   0.403 -0.9311 -3.3299 -1.1699
   81MOL0     H10656   2.415   3.508   0.092  0.7391 -0.5756 -0.8904
   81MOL0     H10657   2.466   3.464  -0.129 -0.2249  0.2913 -1.5438
   81MOL0     H10658   2.351   3.291  -0.335 -1.2912 -0.3337 -0.6241
   81MOL0     H10659   2.479   3.423  -0.317 -0.4200  0.6591  0.1263
   81MOL0     H10660   2.437   3.487  -0.550  0.9995 -0.3660  0.1288
   81MOL0     H10661   2.309   3.382  -0.581 -0.0285  1.4127 -1.5207
   81MOL0     H10662   2.468   3.176  -0.564  1.3506 -0.8969 -1.3166
   81MOL0     H10663   2.570   3.267  -0.461 -0.5886 -0.0522  0.7096
   81MOL0     H10664   2.544   3.299  -0.764 -1.9342  1.0118  1.4593
   81MOL0     H10665   2.625   3.414  -0.658 -3.5713  1.3325 -1.1531
   81MOL0     H10666   2.711   3.123  -0.674 -2.1412  0.0069 -0.6328
   81MOL0     H10667   2.783   3.258  -0.593  1.6866  1.1164 -1.2607
   81MOL0     H10668   2.776   3.377  -0.827 -0.3822 -0.6798 -1.4959
   81MOL0     H10669   2.771   3.210  -0.887 -0.7671  0.1569  0.5341
   81MOL0     H10670   2.990   3.342  -0.695  2.0733 -3.3438  2.9701
   81MOL0     H10671   3.002   3.178  -0.762  1.6968  1.0198 -0.7492
   81MOL0     H10672   2.993   3.429  -0.938  0.1242 -0.7833 -2.3029
   81MOL0     H10673   3.012   3.275  -0.980 -1.3264  0.7927  0.0258
   81MOL0     H10674   2.079   3.562  -0.257  2.9250  1.6143 -2.3342
   81MOL0     H10675   2.010   3.574  -0.001  0.1069  1.5442 -1.8219
   81MOL0     H10676   1.830   3.630   0.405  0.7235 -2.1520  0.5265
   81MOL0     H10677   1.803   3.775   0.613 -1.6289 -1.7798 -2.5238
   81MOL0     H10678   0.616   4.543   0.786 -0.4584 -0.6479 -1.7693
   81MOL0     H10679   0.393   4.497   0.683  2.4836 -0.9309  0.8926
   81MOL0     H10680  -0.088   4.867   0.461 -3.6194  0.6391 -1.7042
   81MOL0     H10681  -0.304   4.772   0.368  0.9215  0.0095 -2.7429
   81MOL0     H10682  -0.459   4.648   0.308  0.7008  0.2480  0.4094
   81MOL0     H10683  -0.563   4.611   0.444  0.8087  0.2987 -0.8410
   81MOL0     H10684  -0.631   4.411   0.380 -1.7293  0.8224 -1.5074
   81MOL0     H10685  -0.679   4.526   0.261 -1.1917  0.4964 -0.1700
   81MOL0     H10686  -0.546   4.270   0.236  2.6816  0.5214  1.3812
   81MOL0     H10687  -0.426   4.395   0.182 -1.0488  3.8902 -1.6923
   81MOL0     H10688  -0.594   4.485   0.029 -2.3535  0.1544 -1.3277
   81MOL0     H10689  -0.554   4.310  -0.003 -0.5771 -0.7971  1.8868
   81MOL0     H10690  -0.959   4.279   0.127 -0.0926 -0.2686 -2.7562
   81MOL0     H10691  -0.201   4.404   0.567 -0.3720  1.0566  1.6519
   81MOL0     H10692   0.029   4.482   0.610 -0.5978 -0.3156 -0.7594
   82MOL0     O10693   1.664   9.568   5.232  0.1233  0.3914 -0.0853
   82MOL0     C10694   1.705   9.573   5.115 -0.5746  0.7118 -0.7158
   82MOL0     O10695   1.685   9.467   5.028 -1.3399 -0.1405  1.0972
   82MOL0     C10696   1.636   9.355   5.068 -0.0755  0.7224 -0.0955
   82MOL0     C10697   1.713   9.248   5.115 -0.1076 -0.7516 -0.1716
   82MOL0     C10698   1.654   9.124   5.137  0.5881 -0.1071 -1.1360
   82MOL0     C10699   1.524   9.101   5.093  0.5471  0.2368  0.6930
   82MOL0     O10700   1.461   8.983   5.127 -0.2828  0.0756 -0.2197
   82MOL0     C10701   1.535   8.866   5.131 -0.6995  0.1729 -0.3926
   82MOL0     C10702   1.453   8.745   5.107 -0.0579  0.5133 -0.0576
   82MOL0     C10703   1.363   8.715   5.223 -0.6587  0.1047 -0.3559
   82MOL0     C10704   1.280   8.595   5.199  0.2989  0.5467  0.1034
   82MOL0     C10705   1.234   8.524   5.323 -0.2074  0.0283 -0.4099
   82MOL0     C10706   1.129   8.422   5.286  0.2142  0.0760 -0.4908
   82MOL0     C10707   1.098   8.317   5.396 -0.1412 -0.2122  0.2285
   82MOL0     C10708   0.987   8.224   5.371  0.6976  0.8357  1.8124
   82MOL0     N10709   1.000   8.110   5.458 -0.2968 -1.4752  0.2669
   82MOL0     C10710   0.918   8.083   5.572  0.3890  0.0527 -0.3276
   82MOL0     C10711   0.954   7.955   5.595 -0.6769  0.1201  0.5176
   82MOL0     C10712   0.890   7.874   5.711  0.0848  0.5684  0.3873
   82MOL0     C10713   0.752   7.824   5.673  0.0213 -0.0265  0.4433
   82MOL0     C10714   0.732   7.675   5.738  0.4273 -0.5476 -0.1642
   82MOL0     C10715   0.581   7.654   5.750  0.9500  0.1472 -0.4611
   82MOL0     O10716   0.532   7.722   5.870  0.0865 -0.4629  0.9990
   82MOL0     C10717   0.398   7.748   5.872 -0.2014  0.0412  0.3244
   82MOL0     C10718   0.289   7.667   5.914  0.3097  0.0098 -0.8500
   82MOL0     C10719   0.157   7.723   5.929  0.1735  0.5147 -0.5277
   82MOL0     C10720   0.139   7.855   5.896 -0.1627 -0.4766 -0.1563
   82MOL0     C10721   0.010   7.924   5.932  0.2669 -0.1353 -0.1922
   82MOL0     O10722  -0.001   8.062   5.917 -0.2416 -1.2707 -0.0651
   82MOL0     C10723  -0.115   8.133   5.950  0.2006  0.1820  0.1629
   82MOL0     C10724  -0.223   8.089   6.032 -0.3079 -0.8645  0.6019
   82MOL0     C10725  -0.342   8.159   6.040  0.8223  0.2642 -0.0988
   82MOL0     C10726  -0.355   8.291   5.979 -0.5313  0.3581 -0.1790
   82MOL0     O10727  -0.462   8.368   5.987  0.6821  0.2933 -0.3288
   82MOL0     C10728  -0.559   8.340   6.097 -1.4273  0.1186  0.2309
   82MOL0     C10729  -0.676   8.276   6.029  0.2341  0.2770 -0.0161
   82MOL0     C10730  -0.725   8.364   5.927  0.2101  0.6659  0.5085
   82MOL0     C10731  -0.846   8.310   5.854  0.4060  0.6286  0.4593
   82MOL0     C10732  -0.923   8.413   5.765 -0.3461 -0.1745 -0.3713
   82MOL0     C10733  -1.051   8.357   5.719 -0.0727 -0.0317  0.3686
   82MOL0     C10734  -1.051   8.305   5.574 -0.1276  0.4383  0.1836
   82MOL0     C10735  -1.180   8.213   5.556 -0.5833  1.0905 -0.1764
   82MOL0    Cl10736  -1.165   8.114   5.399  0.3498 -0.4812 -0.0983
   82MOL0     C10737  -0.244   8.339   5.920 -0.3228  1.0132  0.4846
   82MOL0     C10738  -0.131   8.256   5.895 -0.9577 -0.0813 -0.4118
   82MOL0     O10739  -0.084   7.847   5.962  0.0588  0.0318 -0.2628
   82MOL0     C10740   0.256   7.937   5.864  0.4706 -0.0810 -0.3423
   82MOL0     C10741   0.377   7.879   5.852 -0.4037  0.1888  1.1371
   82MOL0     N10742   1.053   7.915   5.508  0.1126  0.3538 -0.1442
   82MOL0     N10743   1.077   8.003   5.417 -0.5671 -0.7730  0.4804
   82MOL0     C10744   1.443   9.214   5.052  0.0218  0.9292  0.3517
   82MOL0     C10745   1.502   9.338   5.037  0.2645 -0.1513  0.3147
   82MOL0     C10746   1.755   9.702   5.065 -0.7993 -0.3303  0.5439
   82MOL0     C10747   1.754   9.820   5.150 -0.7883 -0.7583  0.3890
   82MOL0     C10748   1.835   9.931   5.114  0.7753  0.3899 -0.0305
   82MOL0     C10749   1.914   9.918   4.995  0.1153  0.2292  0.3713
   82MOL0     O10750   1.990  10.028   4.977  0.8338  0.1423  0.2813
   82MOL0     C10751   2.110  10.017   4.887 -0.2047  0.0997 -0.6619
   82MOL0     C10752   2.194  10.133   4.931 -0.0947 -0.4875 -0.5184
   82MOL0     C10753   2.223  10.226   4.811 -0.0988 -0.1494  0.0812
   82MOL0     C10754   2.302  10.346   4.844  1.2088  0.8214  0.6039
   82MOL0     C10755   2.221  10.436   4.934 -0.1003 -0.0282  0.5067
   82MOL0     C10756   2.173  10.529   5.005 -0.5762  0.8254  0.2335
   82MOL0     C10757   1.904   9.811   4.909 -0.9781  0.6638  0.1296
   82MOL0     C10758   1.831   9.700   4.954 -0.1053 -0.2540 -0.6777
   82MOL0     H10759   1.817   9.269   5.136 -0.2793  0.5878 -0.5340
   82MOL0     H10760   1.712   9.037   5.165 -0.2359  0.5640  3.3506
   82MOL0     H10761   1.592   8.843   5.221 -2.7966 -1.4020  0.6070
   82MOL0     H10762   1.606   8.876   5.049 -1.3218 -2.2667 -1.2935
   82MOL0     H10763   1.515   8.656   5.092  0.1882  0.9286 -1.7011
   82MOL0     H10764   1.396   8.773   5.018 -0.3254  2.2961  0.6311
   82MOL0     H10765   1.289   8.790   5.252 -1.5375 -0.6206 -0.6875
   82MOL0     H10766   1.425   8.701   5.312 -0.0680 -1.1304 -0.9331
   82MOL0     H10767   1.190   8.613   5.140 -0.6069 -2.2298  0.4995
   82MOL0     H10768   1.347   8.526   5.148  0.4153  0.9307 -0.2712
   82MOL0     H10769   1.203   8.598   5.397 -1.4696  1.8617 -2.6355
   82MOL0     H10770   1.324   8.469   5.354 -1.1718 -3.3189 -2.9192
   82MOL0     H10771   1.161   8.369   5.196 -2.4204 -3.9254  0.6565
   82MOL0     H10772   1.035   8.478   5.284 -0.3435 -0.8216  0.0449
   82MOL0     H10773   1.192   8.262   5.408  0.1853  0.7600  2.7512
   82MOL0     H10774   1.079   8.376   5.486  1.0183 -0.3330  0.5640
   82MOL0     H10775   0.995   8.192   5.267 -0.7359  5.2149  0.1271
   82MOL0     H10776   0.888   8.269   5.378 -0.5778 -0.5644 -3.0857
   82MOL0     H10777   0.848   8.136   5.636 -0.4024  2.9692 -3.3259
   82MOL0     H10778   0.868   7.940   5.796 -2.0900 -0.3160  0.5720
   82MOL0     H10779   0.953   7.791   5.745 -0.9597 -1.0420 -1.4761
   82MOL0     H10780   0.737   7.838   5.565  3.8100 -0.7431 -0.3235
   82MOL0     H10781   0.677   7.888   5.720 -1.9495 -1.2273 -0.9173
   82MOL0     H10782   0.778   7.606   5.667 -1.5453 -1.6619 -0.4299
   82MOL0     H10783   0.777   7.673   5.838  0.8672 -0.9083 -0.3660
   82MOL0     H10784   0.555   7.549   5.769 -3.0767  1.5003  2.9583
   82MOL0     H10785   0.534   7.691   5.659  0.3528  0.5872  0.0172
   82MOL0     H10786   0.311   7.565   5.941 -4.1009 -0.7456  0.6762
   82MOL0     H10787   0.067   7.677   5.969  0.6173 -0.1897 -0.3256
   82MOL0     H10788  -0.213   7.999   6.091  2.0159 -1.1003 -0.0529
   82MOL0     H10789  -0.431   8.115   6.084 -0.9994  2.6997 -1.1007
   82MOL0     H10790  -0.586   8.437   6.141 -0.3433  1.8507 -2.6591
   82MOL0     H10791  -0.512   8.276   6.172  0.3834 -0.0325 -0.9784
   82MOL0     H10792  -0.751   8.239   6.100  0.9560 -0.0331  0.5902
   82MOL0     H10793  -0.648   8.177   5.992 -2.0206 -0.4849  0.1286
   82MOL0     H10794  -0.650   8.393   5.853  1.5445 -4.1905 -0.3871
   82MOL0     H10795  -0.754   8.460   5.972 -0.1090  1.6488 -1.6619
   82MOL0     H10796  -0.824   8.220   5.797 -0.8661  0.9026 -0.5055
   82MOL0     H10797  -0.910   8.284   5.938  0.6147 -0.8638  0.1749
   82MOL0     H10798  -0.871   8.451   5.676 -0.3692  0.1644 -0.2404
   82MOL0     H10799  -0.947   8.504   5.821  0.6414 -0.8143  1.1607
   82MOL0     H10800  -1.130   8.432   5.732 -0.8359 -1.3267  5.2549
   82MOL0     H10801  -1.099   8.283   5.784 -3.5645  0.4936 -1.3902
   82MOL0     H10802  -1.051   8.382   5.497 -1.6901 -2.4604 -2.9811
   82MOL0     H10803  -0.957   8.250   5.564 -1.7326 -2.4198 -0.0304
   82MOL0     H10804  -1.274   8.270   5.553 -1.3488 -0.1758 -1.5701
   82MOL0     H10805  -1.191   8.138   5.635  0.0911  0.7362 -0.4116
   82MOL0     H10806  -0.244   8.443   5.889 -1.9985  1.2500  1.2170
   82MOL0     H10807  -0.052   8.296   5.832 -1.0552  1.0749  0.1722
   82MOL0     H10808   0.253   8.044   5.845 -0.3758 -0.4292 -2.4983
   82MOL0     H10809   0.464   7.936   5.820 -0.4072 -1.0081 -1.2359
   82MOL0     H10810   1.340   9.195   5.026  0.0243  2.0112 -0.5064
   82MOL0     H10811   1.447   9.425   5.003  0.3973  1.2608  3.3819
   82MOL0     H10812   1.716   9.819   5.252  0.1562 -3.1025  0.7899
   82MOL0     H10813   1.829  10.024   5.170  0.8632 -2.1541  4.7593
   82MOL0     H10814   2.077  10.043   4.786  0.8445  1.2442 -0.7376
   82MOL0     H10815   2.175   9.930   4.878 -3.3470 -2.4533 -0.2025
   82MOL0     H10816   2.142  10.196   5.003 -2.5246  0.9836 -3.3210
   82MOL0     H10817   2.291  10.100   4.968  0.5471  0.4535 -1.2943
   82MOL0     H10818   2.128  10.266   4.772  0.7699  1.4594 -0.4823
   82MOL0     H10819   2.273  10.179   4.726 -0.6011  1.2759 -1.0540
   82MOL0     H10820   2.389  10.320   4.905 -0.3925 -0.3436  2.5025
   82MOL0     H10821   2.338  10.400   4.756 -0.3734  1.0042  0.0488
   82MOL0     H10822   2.129  10.616   5.050 -1.6147  0.6890 -0.4877
   82MOL0     H10823   1.964   9.819   4.819 -1.2994  1.5071 -0.0233
   82MOL0     H10824   1.832   9.608   4.895  1.7987 -0.4890 -0.3356
   83MOL0     O10825  10.912   0.797   0.027 -0.0158  0.0515  0.1812
   83MOL0     C10826  10.956   0.684   0.057  1.1177  0.0448  0.2787
   83MOL0     O10827  10.887   0.570   0.026  0.4848  0.4327  0.6215
   83MOL0     C10828  10.749   0.575   0.020  0.0262  0.9255 -0.4927
   83MOL0     C10829  10.681   0.554  -0.110 -0.4907  0.6936  0.0285
   83MOL0     C10830  10.544   0.545  -0.108 -0.4361 -0.9172  0.5112
   83MOL0     C10831  10.466   0.553   0.000  0.7055 -1.2967  0.0047
   83MOL0     O10832  10.328   0.555  -0.029 -0.4994  0.1880 -0.1550
   83MOL0     C10833  10.233   0.566   0.082  0.6676  0.6294  0.2102
   83MOL0     C10834  10.091   0.543   0.027  0.1213 -0.8651 -0.5302
   83MOL0     C10835   9.991   0.643   0.098  1.5777  0.6785 -0.6917
   83MOL0     C10836   9.845   0.604   0.063  1.1312  0.0227  0.4297
   83MOL0     C10837   9.747   0.685   0.154 -0.3724  0.0713  0.4845
   83MOL0     C10838   9.620   0.611   0.198 -0.1316  0.1748 -0.0343
   83MOL0     C10839   9.520   0.696   0.275 -0.1325  0.1620 -0.0167
   83MOL0     C10840   9.376   0.627   0.310 -0.8779 -0.3679 -0.4712
   83MOL0     N10841   9.370   0.586   0.453 -0.7250  0.1143  0.1231
   83MOL0     C10842   9.456   0.493   0.518 -0.2539 -0.1652 -0.2232
   83MOL0     C10843   9.401   0.477   0.640 -0.3766 -0.3332 -0.7996
   83MOL0     C10844   9.442   0.366   0.731  0.5980 -1.3134 -1.2616
   83MOL0     C10845   9.410   0.235   0.678  0.0666  0.0554 -0.1187
   83MOL0     C10846   9.258   0.219   0.668 -0.3499 -0.3399 -0.0900
   83MOL0     C10847   9.207   0.077   0.630  1.3075  0.3508 -0.6583
   83MOL0     O10848   9.243   0.049   0.494  0.1429  0.5062 -0.1652
   83MOL0     C10849   9.203  -0.080   0.447 -0.4882 -0.6499  0.3363
   83MOL0     C10850   9.210  -0.104   0.305 -0.6476 -0.9965  0.1222
   83MOL0     C10851   9.186  -0.225   0.249 -0.4959 -0.3805  0.3242
   83MOL0     C10852   9.146  -0.328   0.329  0.0401  0.2356 -0.2140
   83MOL0     C10853   9.111  -0.451   0.251 -0.2577  0.5317  0.5624
   83MOL0     O10854   9.095  -0.445   0.114  0.0787  0.3079 -0.1562
   83MOL0     C10855   9.107  -0.556   0.034  0.1554  0.1925 -1.1749
   83MOL0     C10856   9.018  -0.558  -0.079 -0.2870 -1.5367 -0.6917
   83MOL0     C10857   9.016  -0.677  -0.157 -0.1248  0.8099  0.2215
   83MOL0     C10858   9.105  -0.785  -0.147  0.4471 -0.6778  0.6150
   83MOL0     O10859   9.073  -0.886  -0.231 -0.8187 -0.3443  0.3432
   83MOL0     C10860   9.171  -0.982  -0.246 -0.6492 -0.1725  0.3092
   83MOL0     C10861   9.142  -1.116  -0.309  0.4043  0.2569 -0.2194
   83MOL0     C10862   9.268  -1.206  -0.315  0.5100  0.6702  0.2275
   83MOL0     C10863   9.223  -1.344  -0.285  0.0984 -1.0570  0.6499
   83MOL0     C10864   9.336  -1.444  -0.297 -0.0934 -0.6846 -0.2157
   83MOL0     C10865   9.275  -1.590  -0.279 -0.3703 -0.4483  0.6219
   83MOL0     C10866   9.364  -1.704  -0.331 -0.4526 -0.5113  0.0886
   83MOL0     C10867   9.292  -1.837  -0.352 -0.3839  0.0002 -0.2467
   83MOL0    Cl10868   9.193  -1.832  -0.491  0.5581  0.2272 -0.3852
   83MOL0     C10869   9.191  -0.778  -0.037 -0.8772 -0.8977  0.0096
   83MOL0     C10870   9.195  -0.671   0.053 -0.1838 -0.3104  0.1366
   83MOL0     O10871   9.124  -0.550   0.314  0.2557  0.0388 -0.6729
   83MOL0     C10872   9.127  -0.305   0.460  0.7056  0.0562  0.0593
   83MOL0     C10873   9.154  -0.186   0.516  0.8175  0.4608 -0.9582
   83MOL0     N10874   9.292   0.562   0.651 -0.3735  0.5729 -0.0951
   83MOL0     N10875   9.261   0.615   0.541  0.9586 -0.1189  0.0534
   83MOL0     C10876  10.528   0.576   0.125 -0.3960 -0.2178 -0.3893
   83MOL0     C10877  10.668   0.585   0.133 -0.5054 -0.3308 -0.2664
   83MOL0     C10878  11.091   0.682   0.115 -0.1769  0.1821  0.5184
   83MOL0     C10879  11.169   0.799   0.107 -0.0457  0.3419 -1.2356
   83MOL0     C10880  11.306   0.787   0.149 -0.1160  0.3044 -0.3930
   83MOL0     C10881  11.361   0.678   0.203 -1.3744  0.5346 -0.1615
   83MOL0     O10882  11.495   0.687   0.242  0.4539 -0.1955 -0.6216
   83MOL0     C10883  11.566   0.577   0.312  0.5485 -0.1478 -0.0443
   83MOL0     C10884  11.537   0.571   0.464  1.1740  0.0242 -0.3031
   83MOL0     C10885  11.609   0.448   0.523  0.0882 -0.9067  0.1286
   83MOL0     C10886  11.661   0.480   0.665  0.2340  1.2729 -0.2949
   83MOL0     C10887  11.566   0.542   0.750 -0.2416 -0.6726 -0.1680
   83MOL0     C10888  11.475   0.591   0.820 -0.3466  0.1575 -0.7661
   83MOL0     C10889  11.274   0.575   0.239 -0.6225 -0.3506  0.1524
   83MOL0     C10890  11.146   0.570   0.185 -0.1932  0.4302 -0.2570
   83MOL0     H10891  10.734   0.522  -0.199 -2.5336 -0.1997 -0.9195
   83MOL0     H10892  10.494   0.523  -0.201 -2.1254  3.3943  0.1785
   83MOL0     H10893  10.236   0.659   0.139 -1.4534  0.1839  1.1764
   83MOL0     H10894  10.243   0.486   0.155 -0.9566  1.4441  1.3969
   83MOL0     H10895  10.052   0.441   0.030  0.9087 -1.1638  2.4784
   83MOL0     H10896  10.099   0.577  -0.077  1.4705 -3.2161 -1.2793
   83MOL0     H10897  10.009   0.744   0.061  1.2402  0.7237 -0.7353
   83MOL0     H10898  10.002   0.633   0.207  0.5149  0.5137 -0.5868
   83MOL0     H10899   9.821   0.618  -0.043 -2.3159 -1.7258  0.8307
   83MOL0     H10900   9.843   0.495   0.078  2.6028  0.0643  1.0948
   83MOL0     H10901   9.715   0.776   0.102 -0.9578 -0.1476  0.4570
   83MOL0     H10902   9.798   0.715   0.246  1.4216  1.0507 -0.7680
   83MOL0     H10903   9.649   0.526   0.260 -0.1018 -1.4026 -2.0650
   83MOL0     H10904   9.577   0.566   0.107  2.4113  0.0432 -1.2552
   83MOL0     H10905   9.570   0.751   0.355  0.3818  1.8362 -1.4039
   83MOL0     H10906   9.491   0.771   0.200  0.7283  0.4181 -0.1095
   83MOL0     H10907   9.360   0.541   0.243  0.0486 -1.3555  0.5355
   83MOL0     H10908   9.294   0.697   0.291  0.6290  1.1813 -1.5309
   83MOL0     H10909   9.535   0.444   0.462  3.4612  3.0521  1.6956
   83MOL0     H10910   9.386   0.375   0.824  3.5558  0.7133  0.4952
   83MOL0     H10911   9.545   0.392   0.759 -0.8137  0.1751  3.5407
   83MOL0     H10912   9.458   0.170   0.751  1.4218  2.5783  1.3617
   83MOL0     H10913   9.437   0.205   0.576  1.0220  0.0653  0.1239
   83MOL0     H10914   9.224   0.244   0.769  2.6699 -0.3520  1.0117
   83MOL0     H10915   9.222   0.288   0.591 -0.0388  0.6545  0.6307
   83MOL0     H10916   9.099   0.080   0.646  1.4774 -0.7403  0.8605
   83MOL0     H10917   9.249   0.006   0.702  0.0692 -1.4910 -1.6828
   83MOL0     H10918   9.247  -0.023   0.243 -3.1234 -0.9653 -1.4325
   83MOL0     H10919   9.191  -0.238   0.141 -1.4422 -1.5118  0.3953
   83MOL0     H10920   8.966  -0.464  -0.094  1.3642  0.7722  5.0565
   83MOL0     H10921   8.937  -0.700  -0.227 -1.0534 -5.0920  2.6265
   83MOL0     H10922   9.196  -1.007  -0.142 -0.3266 -2.5547 -0.2721
   83MOL0     H10923   9.255  -0.951  -0.308 -3.3264  0.9719 -3.0906
   83MOL0     H10924   9.095  -1.120  -0.408 -0.0156  3.4477 -0.2571
   83MOL0     H10925   9.064  -1.152  -0.241  1.1888 -1.9450 -0.4039
   83MOL0     H10926   9.343  -1.183  -0.239  2.0028  0.1886 -1.0454
   83MOL0     H10927   9.319  -1.192  -0.410  1.8261  3.2379  1.2273
   83MOL0     H10928   9.189  -1.352  -0.181 -3.4005  0.5762 -0.2348
   83MOL0     H10929   9.135  -1.349  -0.349  0.2513  0.2163  0.3003
   83MOL0     H10930   9.407  -1.430  -0.215 -0.7305  2.7706 -0.0883
   83MOL0     H10931   9.390  -1.434  -0.392 -1.2639 -2.3078 -1.0997
   83MOL0     H10932   9.179  -1.593  -0.331  0.7296 -1.6421 -1.4501
   83MOL0     H10933   9.260  -1.609  -0.172  3.8279  1.7904  1.8551
   83MOL0     H10934   9.393  -1.674  -0.432 -0.7210 -1.4966 -0.2939
   83MOL0     H10935   9.452  -1.706  -0.265 -1.0264  2.1838  1.0403
   83MOL0     H10936   9.220  -1.849  -0.270 -1.1314 -1.6029 -1.1002
   83MOL0     H10937   9.363  -1.920  -0.347 -0.1768  0.0819 -1.5548
   83MOL0     H10938   9.247  -0.866  -0.007 -1.6822 -1.1344  0.8452
   83MOL0     H10939   9.254  -0.671   0.144  0.3073  0.3192 -0.1766
   83MOL0     H10940   9.093  -0.388   0.521  0.2587  0.1772 -0.0232
   83MOL0     H10941   9.137  -0.183   0.623 -0.4442 -0.2954 -1.1164
   83MOL0     H10942  10.479   0.573   0.222  1.5141 -1.2185  0.6150
   83MOL0     H10943  10.714   0.586   0.231  1.0561  0.8318 -0.9556
   83MOL0     H10944  11.131   0.888   0.058 -0.4001 -2.7464 -7.8043
   83MOL0     H10945  11.366   0.871   0.115  1.0705 -0.1806  0.4454
   83MOL0     H10946  11.674   0.592   0.311  1.5452 -4.9044  3.0769
   83MOL0     H10947  11.543   0.482   0.263 -0.0918  1.7988 -3.9458
   83MOL0     H10948  11.574   0.663   0.510 -0.5862  0.3204  0.6040
   83MOL0     H10949  11.429   0.560   0.479  1.1420  2.1975  1.5399
   83MOL0     H10950  11.693   0.429   0.455 -0.3331 -1.2781 -0.2946
   83MOL0     H10951  11.535   0.367   0.520 -1.7697  0.5876  1.9935
   83MOL0     H10952  11.687   0.385   0.712  1.1252  1.8486  0.4121
   83MOL0     H10953  11.752   0.540   0.657  0.5914  0.4839 -3.4707
   83MOL0     H10954  11.393   0.650   0.856  0.5242 -0.4181  2.5408
   83MOL0     H10955  11.306   0.483   0.286  1.1228  0.4514  0.6053
   83MOL0     H10956  11.096   0.476   0.207  3.8543 -2.8528 -3.5784
   84MOL0     O10957   7.284   4.469   8.152  0.7545  0.6150 -0.0275
   84MOL0     C10958   7.354   4.379   8.109  0.2434  1.0189  0.9487
   84MOL0     O10959   7.491   4.384   8.097 -0.4400 -0.1525  0.3242
   84MOL0     C10960   7.555   4.507   8.092 -0.2995  1.0151 -0.1743
   84MOL0     C10961   7.647   4.529   8.194 -0.0838  0.1670 -0.8834
   84MOL0     C10962   7.720   4.644   8.192 -0.1798  0.5986  0.6622
   84MOL0     C10963   7.717   4.725   8.079  0.3609  0.0416  0.2514
   84MOL0     O10964   7.783   4.844   8.081  0.4096 -0.2121  0.3356
   84MOL0     C10965   7.860   4.873   7.964  0.1047  0.8339 -0.5242
   84MOL0     C10966   7.984   4.951   8.010  0.2629 -0.0380  0.3276
   84MOL0     C10967   8.094   4.965   7.901  0.4813 -0.4378 -0.1082
   84MOL0     C10968   8.036   5.022   7.770 -1.0436  0.3181  0.3820
   84MOL0     C10969   8.148   5.055   7.669  0.1669 -0.3800  0.5360
   84MOL0     C10970   8.247   5.164   7.697 -0.2505 -0.3947 -0.1300
   84MOL0     C10971   8.341   5.171   7.576 -0.3008 -0.9790  0.2178
   84MOL0     C10972   8.441   5.275   7.585 -0.7363 -0.6286 -1.6563
   84MOL0     N10973   8.496   5.291   7.720  1.4076  0.4588  0.6690
   84MOL0     C10974   8.609   5.220   7.762  0.3976  0.0256 -1.7277
   84MOL0     C10975   8.618   5.255   7.893  0.1231 -0.9229  0.1384
   84MOL0     C10976   8.721   5.184   7.987  0.0247  0.1557 -0.0671
   84MOL0     C10977   8.851   5.250   8.004  0.0291  0.4346 -0.7149
   84MOL0     C10978   8.889   5.370   7.921 -0.3761 -0.7900  1.1117
   84MOL0     C10979   8.815   5.499   7.957 -0.1360  1.0352 -0.2725
   84MOL0     O10980   8.810   5.510   8.101  0.3444 -0.3101 -0.4520
   84MOL0     C10981   8.747   5.628   8.141  0.4056  1.1470  0.5375
   84MOL0     C10982   8.805   5.756   8.120 -0.5378  0.3391  0.3973
   84MOL0     C10983   8.732   5.869   8.125 -0.4250 -0.2720 -0.0273
   84MOL0     C10984   8.594   5.864   8.163 -0.1176  1.0450  0.2042
   84MOL0     C10985   8.504   5.984   8.159  0.1816  0.4817  0.1883
   84MOL0     O10986   8.365   5.972   8.206 -0.9184 -0.3588 -0.9075
   84MOL0     C10987   8.295   6.087   8.200  0.4083 -0.4639  0.3811
   84MOL0     C10988   8.320   6.186   8.290  0.5199 -0.2983 -0.3244
   84MOL0     C10989   8.258   6.308   8.277 -0.0477 -0.5934  0.1670
   84MOL0     C10990   8.159   6.331   8.182 -0.3287 -0.2331  0.1796
   84MOL0     O10991   8.109   6.453   8.161  0.2458  0.6677  0.5706
   84MOL0     C10992   8.003   6.500   8.242  0.4866 -0.5868 -0.2975
   84MOL0     C10993   7.911   6.601   8.170  0.3212 -0.4199  0.6715
   84MOL0     C10994   7.794   6.642   8.259  0.4574  0.6744 -0.8265
   84MOL0     C10995   7.836   6.737   8.368  0.0508 -0.5703 -0.3600
   84MOL0     C10996   7.714   6.813   8.438  0.6540  0.2634  1.6921
   84MOL0     C10997   7.769   6.930   8.527  0.5137  0.6710 -0.2769
   84MOL0     C10998   7.650   6.999   8.587 -0.2390  0.5688  0.0470
   84MOL0     C10999   7.684   7.103   8.697  0.4831 -0.8182  0.2986
   84MOL0    Cl11000   7.790   7.246   8.630 -0.0110 -0.1734  0.7132
   84MOL0     C11001   8.130   6.221   8.104  0.7025 -0.2973 -0.0688
   84MOL0     C11002   8.201   6.105   8.109  0.9808  0.6819  0.7409
   84MOL0     O11003   8.565   6.081   8.120  0.0018  0.3635 -0.4672
   84MOL0     C11004   8.542   5.735   8.200  0.0111  0.6805  0.5866
   84MOL0     C11005   8.620   5.619   8.194 -0.3626  0.3133 -0.2287
   84MOL0     N11006   8.519   5.356   7.919  0.4127 -0.0823  0.3535
   84MOL0     N11007   8.457   5.380   7.815 -0.3728  0.0429  0.1757
   84MOL0     C11008   7.642   4.689   7.963 -0.8376 -0.6445 -0.5091
   84MOL0     C11009   7.557   4.579   7.979 -0.2454  0.2880  0.1626
   84MOL0     C11010   7.283   4.253   8.068 -0.3218  0.1357  0.5916
   84MOL0     C11011   7.147   4.252   8.023 -0.2594 -0.0823 -0.2255
   84MOL0     C11012   7.066   4.135   8.010  0.4701 -0.9896  1.3311
   84MOL0     C11013   7.130   4.007   8.027  0.2471 -0.6357 -0.2652
   84MOL0     O11014   7.048   3.895   8.029  0.1462 -0.6172 -0.1200
   84MOL0     C11015   7.101   3.767   8.062  0.3483 -0.8682 -1.1910
   84MOL0     C11016   6.983   3.681   8.117  0.2788  0.0950 -0.4563
   84MOL0     C11017   6.875   3.639   8.014  0.6045  0.1763 -0.2628
   84MOL0     C11018   6.894   3.516   7.919  0.2409 -0.5793  0.1245
   84MOL0     C11019   7.028   3.501   7.873 -1.0663 -0.3935  0.1761
   84MOL0     C11020   7.133   3.524   7.818 -0.1589  0.1684 -0.0316
   84MOL0     C11021   7.269   4.007   8.059 -0.5479  1.2597  1.0673
   84MOL0     C11022   7.342   4.129   8.077 -0.0376  0.5311  1.1631
   84MOL0     H11023   7.665   4.465   8.279  2.5658 -4.3719 -4.4235
   84MOL0     H11024   7.775   4.675   8.280  1.5467 -3.2108  1.1253
   84MOL0     H11025   7.808   4.934   7.890  1.1006  1.2831 -0.8748
   84MOL0     H11026   7.891   4.776   7.924 -0.2016  0.3422  0.3880
   84MOL0     H11027   8.040   4.916   8.097  2.6615  2.8887  0.1251
   84MOL0     H11028   7.949   5.051   8.036  1.1581  1.4929 -3.5519
   84MOL0     H11029   8.128   4.863   7.881  1.2879 -0.5055  1.4656
   84MOL0     H11030   8.174   5.020   7.951  0.1730 -0.8869  0.9087
   84MOL0     H11031   7.971   4.950   7.722  0.4729 -1.6556  1.1456
   84MOL0     H11032   7.985   5.114   7.799  0.9611  1.3976  0.6848
   84MOL0     H11033   8.082   5.077   7.585  2.9437 -1.0873 -2.0292
   84MOL0     H11034   8.197   4.961   7.641  0.4248 -0.3079  0.7428
   84MOL0     H11035   8.296   5.145   7.793  1.0347 -3.6396 -1.2672
   84MOL0     H11036   8.192   5.258   7.705  0.8078  0.1419  1.2367
   84MOL0     H11037   8.383   5.070   7.577  2.9694  0.2327  2.1853
   84MOL0     H11038   8.286   5.181   7.482 -0.4762 -1.6766  0.2413
   84MOL0     H11039   8.397   5.371   7.554  0.4482 -0.3935 -2.7229
   84MOL0     H11040   8.527   5.260   7.519 -0.2393  2.9987 -2.0621
   84MOL0     H11041   8.667   5.153   7.699  4.8656  2.2280 -0.3743
   84MOL0     H11042   8.741   5.091   7.932 -2.0425 -1.1365  1.2483
   84MOL0     H11043   8.672   5.169   8.084  1.3118 -0.2977  0.5398
   84MOL0     H11044   8.931   5.177   7.992 -0.2992 -0.4839  2.0493
   84MOL0     H11045   8.857   5.279   8.109 -0.7494 -3.2246  0.4627
   84MOL0     H11046   8.997   5.382   7.932 -0.4291 -1.0153  1.9601
   84MOL0     H11047   8.863   5.366   7.815  1.0185 -2.8756  0.7886
   84MOL0     H11048   8.716   5.502   7.911 -0.3073 -4.7363 -1.0456
   84MOL0     H11049   8.875   5.583   7.921  2.9975 -1.2475 -0.7680
   84MOL0     H11050   8.911   5.763   8.099 -1.0552  0.5101 -2.5858
   84MOL0     H11051   8.788   5.962   8.119 -5.0071  2.9480  1.0809
   84MOL0     H11052   8.401   6.160   8.357  4.9960  3.5185 -3.5554
   84MOL0     H11053   8.285   6.391   8.342 -0.5390 -1.3988  1.4194
   84MOL0     H11054   8.048   6.545   8.331  2.4605 -0.8925 -1.0876
   84MOL0     H11055   7.948   6.412   8.277  1.5840 -0.1050  2.9356
   84MOL0     H11056   7.871   6.550   8.082 -1.1165 -1.6234  1.9703
   84MOL0     H11057   7.966   6.685   8.126  2.2161 -1.9439 -0.0167
   84MOL0     H11058   7.738   6.557   8.300 -0.1580  1.0715 -0.8346
   84MOL0     H11059   7.721   6.695   8.197 -0.0845  0.6652 -0.2074
   84MOL0     H11060   7.907   6.701   8.444  0.6259  1.3747  0.0869
   84MOL0     H11061   7.887   6.818   8.316 -1.8013 -0.7061 -2.5183
   84MOL0     H11062   7.665   6.737   8.500  0.4745 -0.3248  0.8479
   84MOL0     H11063   7.652   6.857   8.361  0.9562 -1.3443  0.4731
   84MOL0     H11064   7.828   6.988   8.455  0.2074  0.2736 -0.8551
   84MOL0     H11065   7.827   6.891   8.611  1.4144  2.2436 -0.1134
   84MOL0     H11066   7.595   7.037   8.500 -0.5592 -3.2416 -1.6417
   84MOL0     H11067   7.583   6.923   8.628  0.6638 -1.3385 -1.8024
   84MOL0     H11068   7.740   7.060   8.780 -0.6279 -2.8704  0.0711
   84MOL0     H11069   7.586   7.133   8.734  0.1228 -0.1595 -1.1197
   84MOL0     H11070   8.061   6.246   8.024 -0.8114 -0.5231  1.1047
   84MOL0     H11071   8.192   6.030   8.031  0.2223 -0.6232  2.0271
   84MOL0     H11072   8.443   5.728   8.244 -0.4400 -2.8473 -0.7289
   84MOL0     H11073   8.578   5.520   8.208  0.5076  0.1907  1.8912
   84MOL0     H11074   7.637   4.755   7.876  1.5081  0.7219  0.2884
   84MOL0     H11075   7.490   4.544   7.901 -2.5228  1.6300  1.4306
   84MOL0     H11076   7.093   4.345   8.009 -1.1560 -0.5319  0.1448
   84MOL0     H11077   6.967   4.134   7.964  1.0783  0.2257 -0.0816
   84MOL0     H11078   7.168   3.785   8.146  1.2589 -1.2609 -1.8084
   84MOL0     H11079   7.166   3.727   7.983  0.4699 -0.3326 -1.3684
   84MOL0     H11080   7.031   3.590   8.153 -2.7804 -1.3119  0.4265
   84MOL0     H11081   6.924   3.722   8.200 -0.2306  1.7625 -1.5684
   84MOL0     H11082   6.853   3.728   7.954 -0.1956 -1.2060 -2.1227
   84MOL0     H11083   6.779   3.626   8.065 -0.0353  3.5772 -0.3792
   84MOL0     H11084   6.856   3.436   7.983 -4.7967  1.3657 -0.0585
   84MOL0     H11085   6.833   3.532   7.831 -3.2809  1.4492  2.6718
   84MOL0     H11086   7.222   3.543   7.761 -2.5710  2.5394 -3.3763
   84MOL0     H11087   7.321   3.912   8.072 -3.1046 -0.6049 -1.2327
   84MOL0     H11088   7.448   4.119   8.099  1.4287  4.0268 -2.9640
   85MOL0     O11089   1.923   5.488   5.313 -0.0347  0.6034  0.1922
   85MOL0     C11090   1.973   5.411   5.392 -0.4298  0.5204 -0.7224
   85MOL0     O11091   1.923   5.292   5.433  0.0289 -0.0140 -0.0194
   85MOL0     C11092   1.797   5.254   5.383  0.4369  1.7693  0.0571
   85MOL0     C11093   1.774   5.253   5.246  0.6161  0.5443 -1.0459
   85MOL0     C11094   1.660   5.193   5.202  0.6168 -0.2523  0.4879
   85MOL0     C11095   1.571   5.128   5.286  0.1774 -0.8290 -0.0848
   85MOL0     O11096   1.465   5.070   5.233 -0.4355  0.1149  0.1643
   85MOL0     C11097   1.435   4.932   5.241 -0.0291 -0.3673  0.1711
   85MOL0     C11098   1.543   4.860   5.155 -0.0336 -0.3541  0.3240
   85MOL0     C11099   1.533   4.894   5.012 -0.9168 -0.2952 -0.2110
   85MOL0     C11100   1.427   4.813   4.935  0.2848  0.4406  1.7176
   85MOL0     C11101   1.486   4.682   4.864 -0.0953 -0.2991 -0.4467
   85MOL0     C11102   1.418   4.644   4.738  0.7958  0.4828  1.1671
   85MOL0     C11103   1.294   4.561   4.776 -0.0605 -0.2697 -0.0081
   85MOL0     C11104   1.163   4.652   4.779  0.4547  0.3003 -0.3474
   85MOL0     N11105   1.051   4.572   4.836 -0.4447 -0.6282  0.3046
   85MOL0     C11106   1.012   4.451   4.788 -0.7805 -0.0536  0.6262
   85MOL0     C11107   0.892   4.435   4.845  0.0037 -0.5622  0.6862
   85MOL0     C11108   0.798   4.327   4.805  1.2370 -0.0535 -0.3832
   85MOL0     C11109   0.879   4.193   4.828 -0.5350  0.0733 -0.3060
   85MOL0     C11110   0.936   4.181   4.963  0.3187 -0.5944 -0.2048
   85MOL0     C11111   0.960   4.038   5.005 -0.2500 -0.5192 -0.1552
   85MOL0     O11112   1.069   3.993   4.919  0.4377  0.5414 -0.3391
   85MOL0     C11113   1.150   3.901   4.990  0.8808  0.3418 -0.5548
   85MOL0     C11114   1.100   3.773   5.025 -0.6882  1.1437  0.7761
   85MOL0     C11115   1.168   3.685   5.113 -0.2779  0.3595  0.1597
   85MOL0     C11116   1.293   3.713   5.171  0.5273  0.5431  1.1363
   85MOL0     C11117   1.367   3.609   5.246 -0.2845  0.0764  0.2135
   85MOL0     O11118   1.482   3.648   5.311  0.1403  0.2045  0.2531
   85MOL0     C11119   1.545   3.560   5.386  0.0876  0.2203 -0.2185
   85MOL0     C11120   1.673   3.523   5.356  0.2516  0.7531 -0.4974
   85MOL0     C11121   1.750   3.442   5.436 -0.0291 -0.6659  1.1028
   85MOL0     C11122   1.688   3.389   5.547  0.3790  0.3327  0.8425
   85MOL0     O11123   1.765   3.305   5.621 -0.2205  0.6768  0.4657
   85MOL0     C11124   1.703   3.168   5.627 -0.0747 -0.0159  0.0175
   85MOL0     C11125   1.759   3.086   5.747  0.3189  0.4229 -0.1510
   85MOL0     C11126   1.660   3.060   5.864  0.0663  0.2030 -0.2871
   85MOL0     C11127   1.716   3.044   6.002 -0.3787 -0.6844 -0.3037
   85MOL0     C11128   1.806   2.919   6.025  0.2906 -0.2117 -0.4927
   85MOL0     C11129   1.820   2.885   6.175  0.1737 -0.0971  0.0291
   85MOL0     C11130   1.871   2.743   6.191  0.4646 -0.4793  0.0744
   85MOL0     C11131   1.911   2.699   6.327  0.3060  0.7678 -0.2017
   85MOL0    Cl11132   1.768   2.709   6.440 -0.0162  0.4158 -0.0714
   85MOL0     C11133   1.549   3.429   5.576  0.2502 -0.5923  0.7280
   85MOL0     C11134   1.485   3.519   5.500  0.0359 -1.0154 -0.8172
   85MOL0     O11135   1.319   3.496   5.250 -0.4706 -0.2333  0.1186
   85MOL0     C11136   1.346   3.842   5.128  0.0197  0.4517 -0.6198
   85MOL0     C11137   1.275   3.931   5.053  0.7936  1.1552 -0.2853
   85MOL0     N11138   0.871   4.543   4.931 -0.0463 -0.9630 -1.4998
   85MOL0     N11139   0.962   4.629   4.916  0.4974  0.5085  1.0932
   85MOL0     C11140   1.599   5.126   5.425  0.8090  0.2017  0.0969
   85MOL0     C11141   1.712   5.191   5.473  0.1324 -0.4516  0.2380
   85MOL0     C11142   2.102   5.440   5.443 -0.1050 -0.3717 -0.5544
   85MOL0     C11143   2.168   5.342   5.527 -0.2922 -0.1205 -0.5126
   85MOL0     C11144   2.304   5.355   5.574  0.0227 -0.4145  0.2523
   85MOL0     C11145   2.368   5.465   5.531  0.2341  0.5536 -0.6761
   85MOL0     O11146   2.497   5.484   5.574  0.3986 -0.5682  0.4459
   85MOL0     C11147   2.566   5.395   5.663  0.7397  0.2052  1.1916
   85MOL0     C11148   2.497   5.407   5.804 -0.9118 -0.8561  1.3382
   85MOL0     C11149   2.603   5.365   5.909  1.0337 -0.2733  0.4962
   85MOL0     C11150   2.599   5.215   5.934  0.0743  0.0128 -0.8936
   85MOL0     C11151   2.692   5.198   6.048  0.1764  0.4032  0.2064
   85MOL0     C11152   2.769   5.192   6.134  0.2589  0.3078  0.3850
   85MOL0     C11153   2.302   5.567   5.454 -0.7520 -0.1817  0.2151
   85MOL0     C11154   2.172   5.556   5.408 -0.6887 -0.2841  1.1625
   85MOL0     H11155   1.856   5.287   5.183  0.7018  2.5249  0.0432
   85MOL0     H11156   1.648   5.177   5.096 -0.1036  0.2979  0.4779
   85MOL0     H11157   1.335   4.923   5.197 -1.5646 -4.5546  3.7797
   85MOL0     H11158   1.428   4.895   5.344  1.9226 -0.9872  0.1212
   85MOL0     H11159   1.514   4.754   5.159  0.6332 -0.5081  2.6165
   85MOL0     H11160   1.644   4.871   5.196  0.6752 -0.2871 -1.3642
   85MOL0     H11161   1.631   4.869   4.970  1.5158  3.4249  2.5544
   85MOL0     H11162   1.527   5.002   4.993  5.8959  0.2051 -2.3388
   85MOL0     H11163   1.343   4.786   4.999 -1.4178  0.9719 -0.2042
   85MOL0     H11164   1.399   4.882   4.854  2.0531  2.1440  2.4626
   85MOL0     H11165   1.499   4.606   4.941 -5.1687 -0.1134  0.9490
   85MOL0     H11166   1.584   4.719   4.831 -0.4488 -0.3522 -1.6096
   85MOL0     H11167   1.485   4.582   4.678  1.2258  1.6991  0.3647
   85MOL0     H11168   1.390   4.734   4.683 -1.6464 -0.7476  0.2301
   85MOL0     H11169   1.281   4.476   4.709  2.0348 -0.5722 -0.1151
   85MOL0     H11170   1.303   4.527   4.879  2.5280 -0.6118 -0.2704
   85MOL0     H11171   1.146   4.693   4.679  3.6991  0.3487 -0.9879
   85MOL0     H11172   1.174   4.743   4.840  0.7479  0.1228 -0.1296
   85MOL0     H11173   1.065   4.402   4.707  0.4222  0.9301  0.7823
   85MOL0     H11174   0.750   4.343   4.708 -0.3134 -4.2070 -0.5252
   85MOL0     H11175   0.711   4.314   4.870  1.9174 -0.6133  0.4258
   85MOL0     H11176   0.959   4.191   4.753 -0.7442  1.1620 -0.5836
   85MOL0     H11177   0.814   4.106   4.817  1.7859 -2.3020  2.8301
   85MOL0     H11178   1.032   4.234   4.966 -0.6687  1.6342 -3.3811
   85MOL0     H11179   0.874   4.219   5.045  0.6045  3.3274 -1.5989
   85MOL0     H11180   0.880   3.964   5.000  0.9536 -2.0270  1.7578
   85MOL0     H11181   0.999   4.044   5.107 -0.8436  2.0406 -0.0072
   85MOL0     H11182   1.000   3.745   4.991  0.3410 -2.8016  0.5369
   85MOL0     H11183   1.110   3.596   5.134  0.6231  0.0099  1.2316
   85MOL0     H11184   1.720   3.567   5.269  3.3012 -0.5048  0.3969
   85MOL0     H11185   1.841   3.416   5.382 -0.6630  0.5236 -0.6313
   85MOL0     H11186   1.725   3.127   5.528 -1.2737 -0.4989 -0.0643
   85MOL0     H11187   1.594   3.159   5.636  0.0037  0.9365  2.9271
   85MOL0     H11188   1.836   3.147   5.795  0.2876 -0.0608  0.5308
   85MOL0     H11189   1.800   2.988   5.719  1.8596  0.8192  0.5881
   85MOL0     H11190   1.599   2.975   5.835  1.0268 -1.0626  1.2630
   85MOL0     H11191   1.605   3.152   5.887 -0.2944 -0.7255  3.0454
   85MOL0     H11192   1.778   3.127   6.036 -1.2078 -0.1112 -0.1548
   85MOL0     H11193   1.626   3.054   6.064 -0.8879 -1.4837 -0.8892
   85MOL0     H11194   1.901   2.945   5.978 -0.2989  0.7546 -1.1648
   85MOL0     H11195   1.749   2.838   5.978 -1.1308  0.6415 -0.2980
   85MOL0     H11196   1.725   2.897   6.227 -1.7391  2.7335 -3.6522
   85MOL0     H11197   1.888   2.966   6.203  0.3239  0.7463 -2.5560
   85MOL0     H11198   1.804   2.669   6.146  2.6698 -0.9983 -2.6771
   85MOL0     H11199   1.958   2.740   6.125 -0.3946  0.9022 -1.1951
   85MOL0     H11200   1.993   2.760   6.364  0.8072 -0.4519  0.7759
   85MOL0     H11201   1.941   2.594   6.331 -0.0392  0.6791  4.2894
   85MOL0     H11202   1.490   3.397   5.661 -0.9752 -3.0046 -0.8954
   85MOL0     H11203   1.378   3.537   5.508  0.4464  1.7908 -0.3263
   85MOL0     H11204   1.440   3.875   5.171  0.1241  0.1055 -0.5721
   85MOL0     H11205   1.309   4.032   5.030  1.3811  1.3695  1.3951
   85MOL0     H11206   1.540   5.069   5.497  0.8165 -2.0502 -1.5797
   85MOL0     H11207   1.734   5.189   5.579 -0.3158  1.6921  0.4091
   85MOL0     H11208   2.116   5.250   5.553 -1.9024  0.7010 -0.7006
   85MOL0     H11209   2.335   5.272   5.637 -0.4693 -2.5449 -2.1674
   85MOL0     H11210   2.668   5.434   5.666  0.8818  0.1958 -1.3342
   85MOL0     H11211   2.582   5.294   5.625  0.2137  0.1981  0.9711
   85MOL0     H11212   2.464   5.508   5.827  2.4349  0.1791  2.1211
   85MOL0     H11213   2.406   5.348   5.823 -1.3787  0.0044  1.8510
   85MOL0     H11214   2.572   5.411   6.003 -0.4669  2.2607 -1.1215
   85MOL0     H11215   2.705   5.393   5.883  0.3023  2.2582  0.1195
   85MOL0     H11216   2.501   5.182   5.971  0.8584 -0.7685  0.5731
   85MOL0     H11217   2.630   5.163   5.843  1.0588 -1.1575  0.0817
   85MOL0     H11218   2.845   5.187   6.209 -0.3549 -2.8935  0.9499
   85MOL0     H11219   2.354   5.657   5.424 -0.0933 -0.4329  0.5989
   85MOL0     H11220   2.138   5.627   5.333  1.6679  0.8862  1.1378
   86MOL0     O11221   6.828   7.453   2.143  0.2907  0.4601 -1.0568
   86MOL0     C11222   6.904   7.361   2.145 -0.5058  0.0164 -0.8507
   86MOL0     O11223   7.038   7.372   2.143 -0.2013  0.9670  0.2960
   86MOL0     C11224   7.097   7.489   2.125 -0.3108  0.0089  0.1727
   86MOL0     C11225   7.170   7.518   2.008  0.3318  0.4252  0.0727
   86MOL0     C11226   7.246   7.633   1.994  0.3787 -0.8922 -0.4536
   86MOL0     C11227   7.269   7.719   2.108 -1.0178 -0.0928  1.2233
   86MOL0     O11228   7.359   7.826   2.081  0.3360 -0.1525 -0.6240
   86MOL0     C11229   7.395   7.912   2.188 -0.9876  0.7963 -0.3709
   86MOL0     C11230   7.513   8.002   2.132 -0.0296 -0.1691 -0.5259
   86MOL0     C11231   7.648   7.939   2.147  0.1874  1.2389  0.7468
   86MOL0     C11232   7.751   7.999   2.054  0.0116 -0.2120 -0.7503
   86MOL0     C11233   7.890   7.936   2.054  0.0944 -0.7906 -0.0856
   86MOL0     C11234   7.965   7.987   1.925  0.3090  0.3193 -0.3627
   86MOL0     C11235   8.105   7.945   1.930 -0.1505  0.3590 -0.9555
   86MOL0     C11236   8.123   7.808   1.864  1.2514 -0.6054  0.5711
   86MOL0     N11237   8.272   7.789   1.837  0.4837  0.3754  0.3639
   86MOL0     C11238   8.360   7.754   1.937 -0.1216  0.1565 -0.0591
   86MOL0     C11239   8.467   7.737   1.874 -0.5558 -0.2358  0.5432
   86MOL0     C11240   8.606   7.711   1.947  0.5977 -0.5367  0.4294
   86MOL0     C11241   8.709   7.764   1.858 -0.8233  0.1768 -0.1856
   86MOL0     C11242   8.840   7.718   1.915 -0.2685 -0.2720 -0.2237
   86MOL0     C11243   8.958   7.787   1.868  0.0443 -0.4259  0.7267
   86MOL0     O11244   9.086   7.765   1.930  0.5320 -0.4209 -0.3537
   86MOL0     C11245   9.143   7.639   1.926  0.1764 -0.0900  0.9298
   86MOL0     C11246   9.143   7.550   1.807 -1.1719  0.1301  0.8173
   86MOL0     C11247   9.195   7.420   1.809 -0.5753 -0.2594 -0.2614
   86MOL0     C11248   9.261   7.368   1.924 -0.0647  0.5846  0.6179
   86MOL0     C11249   9.322   7.229   1.925  0.2603 -0.2275  0.1140
   86MOL0     O11250   9.398   7.204   2.035 -0.4128 -0.8680 -0.2086
   86MOL0     C11251   9.488   7.102   2.025 -0.5203 -0.0742  0.3645
   86MOL0     C11252   9.606   7.131   1.949 -0.6715  0.0539  0.4118
   86MOL0     C11253   9.707   7.038   1.955  0.2985  0.2245  0.6303
   86MOL0     C11254   9.696   6.920   2.019  0.6111  0.0664  0.6098
   86MOL0     O11255   9.796   6.829   2.000  0.4487  0.2302  0.0787
   86MOL0     C11256   9.779   6.686   2.025  0.0941 -1.2774 -0.2906
   86MOL0     C11257   9.910   6.613   2.011  0.0837  0.0838 -0.7967
   86MOL0     C11258   9.908   6.475   2.067  0.9989 -0.1704  1.4323
   86MOL0     C11259  10.048   6.407   2.059 -0.1555 -0.0144  0.5580
   86MOL0     C11260  10.094   6.340   2.185  0.3815  0.9373 -0.2364
   86MOL0     C11261  10.152   6.435   2.293 -0.7414  1.4980  0.4442
   86MOL0     C11262  10.173   6.344   2.427  0.4526 -0.0565  0.0766
   86MOL0     C11263  10.271   6.398   2.541 -0.6841 -0.0248 -0.1053
   86MOL0    Cl11264  10.234   6.303   2.679  0.3415  0.3842 -0.1169
   86MOL0     C11265   9.577   6.891   2.092 -0.6597 -0.0705 -0.5779
   86MOL0     C11266   9.472   6.980   2.089  0.8684  0.0956 -0.1618
   86MOL0     O11267   9.283   7.142   1.847 -0.0512 -0.3127  0.6246
   86MOL0     C11268   9.262   7.465   2.031 -0.2426  0.1675  0.1245
   86MOL0     C11269   9.210   7.593   2.030 -0.6093 -0.0895 -1.1326
   86MOL0     N11270   8.447   7.752   1.736 -0.1752  0.3357  0.2824
   86MOL0     N11271   8.330   7.789   1.715 -0.5166 -0.4206 -0.3060
   86MOL0     C11272   7.199   7.691   2.229  0.5577  0.3179  0.4314
   86MOL0     C11273   7.107   7.580   2.231 -0.0889  0.0682 -0.5391
   86MOL0     C11274   6.841   7.225   2.164  0.3343 -1.0572  0.9108
   86MOL0     C11275   6.705   7.204   2.172 -0.6296 -1.1092 -0.6413
   86MOL0     C11276   6.645   7.074   2.179 -0.0007  0.4972 -0.3409
   86MOL0     C11277   6.727   6.972   2.170  0.8562  0.1429  0.1375
   86MOL0     O11278   6.677   6.843   2.166  0.9571  0.2909  0.5860
   86MOL0     C11279   6.530   6.800   2.175  0.2986 -0.4150  0.2933
   86MOL0     C11280   6.483   6.803   2.029  1.1603 -0.2767 -1.1277
   86MOL0     C11281   6.558   6.694   1.954 -0.6085 -0.1920  0.2908
   86MOL0     C11282   6.536   6.712   1.807  0.1070  0.0125  0.1326
   86MOL0     C11283   6.572   6.592   1.727 -0.3827  0.1653  0.1927
   86MOL0     C11284   6.599   6.504   1.652  0.0713  0.1262 -0.3051
   86MOL0     C11285   6.864   6.986   2.165  0.6363 -0.3364 -0.2182
   86MOL0     C11286   6.921   7.115   2.163 -0.2701  0.0462  0.0709
   86MOL0     H11287   7.182   7.437   1.936  1.7798 -0.8383  1.6707
   86MOL0     H11288   7.313   7.655   1.912  0.1914 -1.8014 -0.8618
   86MOL0     H11289   7.431   7.851   2.272  2.8907 -0.1489 -2.4474
   86MOL0     H11290   7.318   7.979   2.226  1.8927  2.1222  3.9331
   86MOL0     H11291   7.506   8.087   2.201  1.3908 -1.1325  0.8639
   86MOL0     H11292   7.492   8.038   2.031  0.0390 -2.5272 -1.4487
   86MOL0     H11293   7.646   7.832   2.123  4.4042  1.2864 -0.5284
   86MOL0     H11294   7.685   7.942   2.249  0.7650  0.1859  0.5828
   86MOL0     H11295   7.713   7.980   1.954 -0.2218 -0.8680 -0.5421
   86MOL0     H11296   7.749   8.108   2.066 -1.7387 -0.2849 -0.0980
   86MOL0     H11297   7.897   7.828   2.069  3.4217 -0.5827  0.5225
   86MOL0     H11298   7.929   7.973   2.149 -1.8493 -0.7121  0.7360
   86MOL0     H11299   7.948   8.095   1.938  1.4381  0.4062  0.5754
   86MOL0     H11300   7.913   7.960   1.833  1.3066 -1.2998 -0.4961
   86MOL0     H11301   8.162   8.025   1.881 -1.4312 -0.0897 -3.3832
   86MOL0     H11302   8.146   7.944   2.031 -2.2135  2.0825 -0.0244
   86MOL0     H11303   8.057   7.813   1.777  1.9603  0.8151  0.0784
   86MOL0     H11304   8.084   7.725   1.924 -0.4756 -1.6108 -1.7782
   86MOL0     H11305   8.339   7.733   2.042 -0.3800 -0.7710 -0.2816
   86MOL0     H11306   8.614   7.612   1.995 -1.6948 -1.3799 -0.7452
   86MOL0     H11307   8.605   7.771   2.038 -0.6002  1.6938 -0.9754
   86MOL0     H11308   8.685   7.871   1.862  0.0126  0.3533  0.4733
   86MOL0     H11309   8.699   7.718   1.759  1.4652  2.8911 -1.8570
   86MOL0     H11310   8.835   7.753   2.019  2.5421  0.5373 -0.2771
   86MOL0     H11311   8.850   7.609   1.917  3.4267 -0.0379  1.5752
   86MOL0     H11312   8.947   7.896   1.868  2.8204 -0.0008 -2.1311
   86MOL0     H11313   8.972   7.767   1.761  0.0128  1.3082  0.3567
   86MOL0     H11314   9.099   7.601   1.722 -3.3162 -1.4906  0.8469
   86MOL0     H11315   9.190   7.369   1.713 -1.7876  2.2595 -1.6230
   86MOL0     H11316   9.626   7.228   1.903  1.6737  0.6306  2.4128
   86MOL0     H11317   9.794   7.057   1.893 -1.8772  0.0164 -2.7569
   86MOL0     H11318   9.716   6.639   1.950  2.2587 -1.8570 -1.8169
   86MOL0     H11319   9.732   6.677   2.124 -2.4457  2.4098 -0.9415
   86MOL0     H11320   9.984   6.675   2.063 -0.4209 -0.2151  0.2884
   86MOL0     H11321   9.944   6.607   1.907 -0.5398 -1.4352 -0.9381
   86MOL0     H11322   9.840   6.406   2.016 -0.9794  3.7007 -1.8332
   86MOL0     H11323   9.873   6.480   2.170  2.5022  0.9154  1.9193
   86MOL0     H11324  10.041   6.341   1.972 -0.9747  0.2754  0.3895
   86MOL0     H11325  10.125   6.480   2.031 -0.1193 -1.4703 -3.9563
   86MOL0     H11326  10.171   6.265   2.162  0.2603 -0.1545  2.5632
   86MOL0     H11327  10.013   6.277   2.222  0.7894  0.8584  0.5486
   86MOL0     H11328  10.087   6.522   2.307 -2.4244  0.1400  1.5228
   86MOL0     H11329  10.252   6.453   2.252 -0.1551 -3.6452 -1.1919
   86MOL0     H11330  10.073   6.319   2.464 -0.0162 -0.3776 -1.3498
   86MOL0     H11331  10.210   6.247   2.393 -2.2903 -1.7247  1.5157
   86MOL0     H11332  10.242   6.498   2.573  1.8188  0.3451  1.1837
   86MOL0     H11333  10.372   6.367   2.513 -1.1537 -2.2381  0.4239
   86MOL0     H11334   9.570   6.794   2.139  1.0892  0.0439 -0.0121
   86MOL0     H11335   9.388   6.945   2.149 -0.4232  1.9251 -0.8255
   86MOL0     H11336   9.319   7.430   2.117  2.6560  1.8359 -0.9860
   86MOL0     H11337   9.221   7.655   2.119 -1.1545 -1.5743  0.0205
   86MOL0     H11338   7.212   7.762   2.310  1.6026  0.9073 -0.2255
   86MOL0     H11339   7.054   7.559   2.323 -1.6564  2.4241 -0.8371
   86MOL0     H11340   6.642   7.291   2.186 -0.8062 -0.8721 -2.6465
   86MOL0     H11341   6.539   7.064   2.197  0.1066  1.2309  0.8230
   86MOL0     H11342   6.468   6.869   2.233  2.3678  1.2980  0.5881
   86MOL0     H11343   6.529   6.694   2.203 -0.2191 -0.3003  0.7339
   86MOL0     H11344   6.374   6.796   2.018  1.3722 -2.1543 -2.4016
   86MOL0     H11345   6.508   6.899   1.983 -4.7757  1.9685 -0.6373
   86MOL0     H11346   6.532   6.597   1.997  0.6405 -0.1707  1.1497
   86MOL0     H11347   6.665   6.709   1.970  0.2240 -2.6500 -2.2593
   86MOL0     H11348   6.429   6.733   1.799 -0.0929 -0.7677  0.5577
   86MOL0     H11349   6.585   6.798   1.763 -0.9704 -1.1222 -3.6135
   86MOL0     H11350   6.618   6.413   1.599 -0.5526  0.5085 -1.2101
   86MOL0     H11351   6.920   6.893   2.153 -1.5958 -1.5197 -2.0903
   86MOL0     H11352   7.029   7.114   2.149 -0.3893 -0.3981 -0.9253
   87MOL0     O11353   0.797   4.999   8.982 -0.0111 -0.0042  0.1353
   87MOL0     C11354   0.745   4.989   9.089  0.1822  1.0381 -0.5855
   87MOL0     O11355   0.692   5.099   9.156 -1.0902 -0.3781 -0.3573
   87MOL0     C11356   0.643   5.090   9.278  0.8952 -0.6389  0.0337
   87MOL0     C11357   0.512   5.052   9.287  0.3346 -0.3165 -0.3810
   87MOL0     C11358   0.450   5.051   9.414  0.5361 -1.2969  0.1391
   87MOL0     C11359   0.523   5.083   9.528  0.1180  0.9138  0.2268
   87MOL0     O11360   0.461   5.083   9.646  0.3765  0.4091  0.2036
   87MOL0     C11361   0.383   4.970   9.686  0.5730 -0.0405 -0.1670
   87MOL0     C11362   0.450   4.840   9.668  0.4900 -0.5474  0.2808
   87MOL0     C11363   0.384   4.732   9.751 -0.3438 -0.0297 -0.3839
   87MOL0     C11364   0.466   4.594   9.766  1.0774  0.5992  0.3230
   87MOL0     C11365   0.375   4.483   9.822 -0.1095 -0.4111  0.7114
   87MOL0     C11366   0.346   4.502   9.976  0.5883  0.2031  1.0016
   87MOL0     C11367   0.309   4.370  10.033 -0.2083  0.3970 -0.3384
   87MOL0     C11368   0.286   4.375  10.195 -0.1928 -0.0880  0.0860
   87MOL0     N11369   0.141   4.403  10.234 -0.4652  0.0931 -1.2365
   87MOL0     C11370   0.064   4.504  10.193  0.1339  0.0727 -0.2659
   87MOL0     C11371  -0.040   4.511  10.285 -0.0849 -0.5498 -0.2165
   87MOL0     C11372  -0.158   4.609  10.277 -0.4285  0.3699 -0.5744
   87MOL0     C11373  -0.273   4.531  10.218  0.2455 -0.6295 -0.3041
   87MOL0     C11374  -0.413   4.597  10.219  0.0802  0.6527 -0.1958
   87MOL0     C11375  -0.531   4.502  10.174  0.2232 -0.8594 -1.1784
   87MOL0     O11376  -0.639   4.592  10.174  0.1483  0.5542  0.4508
   87MOL0     C11377  -0.768   4.550  10.165 -1.2623 -0.2194 -0.3713
   87MOL0     C11378  -0.809   4.408  10.175 -0.0025 -0.1081  0.3638
   87MOL0     C11379  -0.939   4.371  10.129 -0.4951  0.7036 -0.7022
   87MOL0     C11380  -1.026   4.471  10.080  1.1413 -1.4396  0.1048
   87MOL0     C11381  -1.156   4.421  10.033 -1.2536  0.2088  0.9274
   87MOL0     O11382  -1.178   4.297  10.047  0.3568  0.3210  0.4130
   87MOL0     C11383  -1.276   4.264  10.135  0.0560 -1.2116 -0.1357
   87MOL0     C11384  -1.349   4.362  10.212 -0.6979 -0.2138  0.3314
   87MOL0     C11385  -1.445   4.327  10.311 -0.0894  0.4183  0.7178
   87MOL0     C11386  -1.477   4.201  10.342  0.0893  1.1699 -1.2861
   87MOL0     O11387  -1.580   4.174  10.431 -0.2989  0.1930  0.5644
   87MOL0     C11388  -1.581   4.062  10.518  0.0219  0.1510 -0.3658
   87MOL0     C11389  -1.672   3.945  10.468  0.3801 -0.1479 -0.6324
   87MOL0     C11390  -1.694   3.828  10.570  0.2131  0.6522 -0.4537
   87MOL0     C11391  -1.786   3.713  10.520  0.8398 -0.2635 -0.1257
   87MOL0     C11392  -1.800   3.596  10.627 -0.0226 -0.2754  0.6511
   87MOL0     C11393  -1.682   3.502  10.610 -0.0225 -1.0640 -0.3559
   87MOL0     C11394  -1.690   3.414  10.491 -0.0352  0.6948  0.5435
   87MOL0     C11395  -1.587   3.300  10.502 -0.1445 -0.6609  0.2575
   87MOL0    Cl11396  -1.420   3.358  10.522 -0.1720  0.3766  0.0748
   87MOL0     C11397  -1.423   4.104  10.261 -0.6237  0.3670  0.9072
   87MOL0     C11398  -1.331   4.143  10.151  0.6204 -0.0071  0.2688
   87MOL0     O11399  -1.226   4.492   9.964  0.8037 -0.4735 -0.3640
   87MOL0     C11400  -0.995   4.604  10.090 -0.7469  0.1226  0.7493
   87MOL0     C11401  -0.867   4.648  10.137 -0.9720  0.1975  0.2006
   87MOL0     N11402  -0.019   4.410  10.380  0.6674  0.1761 -0.3579
   87MOL0     N11403   0.086   4.342  10.347 -0.4097 -1.1198  0.6417
   87MOL0     C11404   0.654   5.118   9.515 -0.6244  0.1171  0.2716
   87MOL0     C11405   0.715   5.123   9.392 -1.3092 -0.8284  0.3385
   87MOL0     C11406   0.734   4.836   9.140  0.7697  0.0718  0.0760
   87MOL0     C11407   0.701   4.739   9.047 -0.6789 -0.1106 -0.5313
   87MOL0     C11408   0.696   4.601   9.088 -0.6508 -0.7356 -0.6063
   87MOL0     C11409   0.732   4.559   9.220 -0.1419 -1.1570  0.0711
   87MOL0     O11410   0.729   4.425   9.249  0.5049  0.6700  0.1685
   87MOL0     C11411   0.740   4.380   9.393  0.0763 -0.7902 -0.8340
   87MOL0     C11412   0.603   4.384   9.462 -0.0880 -0.2417  0.3123
   87MOL0     C11413   0.506   4.275   9.398 -0.6077 -0.4541 -0.0891
   87MOL0     C11414   0.366   4.264   9.450 -0.8146 -0.2135  0.5428
   87MOL0     C11415   0.305   4.135   9.455 -0.8335  1.0762 -1.0438
   87MOL0     C11416   0.242   4.036   9.452 -0.1705 -0.0118  0.7060
   87MOL0     C11417   0.759   4.660   9.311 -0.7320  0.4161 -0.1069
   87MOL0     C11418   0.752   4.797   9.278 -0.4059  0.2582  0.1881
   87MOL0     H11419   0.469   5.008   9.198 -1.1699 -0.2941  0.3126
   87MOL0     H11420   0.343   5.035   9.423  0.1733  0.6911 -0.2189
   87MOL0     H11421   0.279   4.972   9.652  0.6907  2.0556 -0.5232
   87MOL0     H11422   0.363   4.993   9.791  0.3697 -0.3002 -0.1495
   87MOL0     H11423   0.557   4.854   9.685  0.6940 -1.0748 -0.5115
   87MOL0     H11424   0.431   4.811   9.564 -2.4797  0.3689  0.4622
   87MOL0     H11425   0.285   4.705   9.710 -0.1027 -0.4695 -0.6892
   87MOL0     H11426   0.361   4.763   9.853 -1.2646  0.0059 -0.5863
   87MOL0     H11427   0.492   4.561   9.665  4.3551  2.3900  0.4263
   87MOL0     H11428   0.557   4.607   9.825  2.3652  0.5067 -1.5423
   87MOL0     H11429   0.419   4.385   9.803  1.0195  0.6067 -2.5793
   87MOL0     H11430   0.278   4.477   9.771  2.0126 -0.1090 -3.7735
   87MOL0     H11431   0.270   4.578   9.995 -1.2965 -1.0157 -1.1522
   87MOL0     H11432   0.442   4.529  10.021  0.1548  0.9913  1.4649
   87MOL0     H11433   0.210   4.346   9.994 -0.6268 -1.7158  1.8005
   87MOL0     H11434   0.372   4.285  10.006 -3.3122 -1.5754 -1.8852
   87MOL0     H11435   0.352   4.449  10.241 -1.1976  0.7907  0.1628
   87MOL0     H11436   0.310   4.279  10.241 -1.5985 -0.9353 -0.8745
   87MOL0     H11437   0.078   4.563  10.103  1.2537 -0.6345 -0.5808
   87MOL0     H11438  -0.138   4.695  10.213 -0.0323  0.5528 -0.2077
   87MOL0     H11439  -0.196   4.637  10.376 -1.5960 -1.3702 -0.4691
   87MOL0     H11440  -0.286   4.437  10.273  0.5112  0.4630  1.7216
   87MOL0     H11441  -0.258   4.495  10.116  2.0633 -3.8735  0.9482
   87MOL0     H11442  -0.439   4.649  10.312  2.1845  2.5026 -0.5366
   87MOL0     H11443  -0.400   4.683  10.153  2.0028 -0.0142 -0.7564
   87MOL0     H11444  -0.544   4.430  10.255  1.6828  0.5180  0.3623
   87MOL0     H11445  -0.518   4.448  10.079  4.1055 -0.1529 -1.1957
   87MOL0     H11446  -0.739   4.330  10.203  0.0268 -0.1688  0.1219
   87MOL0     H11447  -0.966   4.266  10.126  1.1637  0.2678 -1.7322
   87MOL0     H11448  -1.339   4.468  10.194  0.9625 -0.5282 -0.8804
   87MOL0     H11449  -1.508   4.402  10.358 -0.2407  0.9920 -0.3877
   87MOL0     H11450  -1.599   4.087  10.623  3.4433 -3.0863  1.2313
   87MOL0     H11451  -1.480   4.020  10.524  1.6048  3.6417 -0.6315
   87MOL0     H11452  -1.631   3.899  10.378 -0.9373 -0.4087 -1.1320
   87MOL0     H11453  -1.768   3.988  10.438  1.1594  2.7675  0.6888
   87MOL0     H11454  -1.736   3.875  10.659  3.3440 -0.1119  1.5884
   87MOL0     H11455  -1.599   3.780  10.595  0.5485  0.4070 -2.1108
   87MOL0     H11456  -1.885   3.759  10.508 -0.2380 -1.6925  2.4985
   87MOL0     H11457  -1.751   3.688  10.419  3.5102  2.1830  0.0588
   87MOL0     H11458  -1.905   3.569  10.609 -1.3911  2.9700  2.8452
   87MOL0     H11459  -1.801   3.643  10.725 -3.2514  1.7551 -0.1968
   87MOL0     H11460  -1.688   3.442  10.701  0.3826 -1.7872 -0.7971
   87MOL0     H11461  -1.582   3.544  10.623 -0.5928 -0.3067  2.1722
   87MOL0     H11462  -1.792   3.380  10.474 -0.3078  0.8296  1.8506
   87MOL0     H11463  -1.656   3.464  10.399  1.3682 -1.1317 -0.0081
   87MOL0     H11464  -1.595   3.228  10.420  1.2918 -1.4426  0.7783
   87MOL0     H11465  -1.603   3.244  10.594 -1.7260 -1.1215 -0.2654
   87MOL0     H11466  -1.458   4.002  10.274  0.1043  0.3207  2.7939
   87MOL0     H11467  -1.308   4.067  10.077 -1.5473  0.4396 -0.9312
   87MOL0     H11468  -1.062   4.686  10.068  0.1931  0.1789 -2.6251
   87MOL0     H11469  -0.834   4.751  10.141 -0.2118 -0.0052 -0.5156
   87MOL0     H11470   0.718   5.135   9.601  2.8501 -2.4156 -1.5284
   87MOL0     H11471   0.806   5.176   9.365 -2.2499  0.6579 -0.0556
   87MOL0     H11472   0.684   4.754   8.941 -2.1286  1.9705 -0.0557
   87MOL0     H11473   0.677   4.534   9.004  1.9170 -0.5113 -1.4423
   87MOL0     H11474   0.816   4.441   9.442  0.4739 -1.6769 -0.3186
   87MOL0     H11475   0.761   4.273   9.403 -1.6423 -0.9191  3.3791
   87MOL0     H11476   0.600   4.372   9.570 -0.2556 -2.2525  0.1109
   87MOL0     H11477   0.567   4.487   9.446  0.2211 -0.5369 -3.1020
   87MOL0     H11478   0.540   4.176   9.430  0.6741  0.0077  0.0505
   87MOL0     H11479   0.496   4.282   9.289 -1.5754 -2.9142 -0.2136
   87MOL0     H11480   0.379   4.310   9.549  0.1595 -0.8058  0.7035
   87MOL0     H11481   0.305   4.332   9.391 -1.5053 -0.1395  1.3254
   87MOL0     H11482   0.184   3.947   9.433  2.1061 -1.5118  0.4186
   87MOL0     H11483   0.772   4.644   9.418  1.1743  0.2758 -0.3276
   87MOL0     H11484   0.769   4.865   9.361 -0.5301  0.7843 -0.2153
   88MOL0     O11485   7.530  11.275   0.476 -0.1101  0.5480 -0.2068
   88MOL0     C11486   7.475  11.376   0.437 -0.2780  0.5528 -0.8726
   88MOL0     O11487   7.492  11.445   0.325 -0.1230  0.2894  1.3308
   88MOL0     C11488   7.568  11.403   0.223  0.2980  0.3309  0.6175
   88MOL0     C11489   7.587  11.491   0.118 -0.0456  0.3681  1.3331
   88MOL0     C11490   7.659  11.462  -0.006 -0.4026 -0.4588  0.0481
   88MOL0     C11491   7.702  11.327  -0.020 -0.7210 -0.6787  0.3460
   88MOL0     O11492   7.774  11.307  -0.139  0.4257  0.1275  0.1593
   88MOL0     C11493   7.812  11.173  -0.167  0.2991  0.1854 -0.1802
   88MOL0     C11494   7.810  11.158  -0.310  0.0468 -0.2896  0.4254
   88MOL0     C11495   7.852  11.022  -0.358  0.3969  0.1883 -0.1582
   88MOL0     C11496   7.922  11.014  -0.494  0.5535 -0.3280 -1.1677
   88MOL0     C11497   7.967  10.871  -0.530  0.2716 -0.1842  0.4339
   88MOL0     C11498   8.089  10.812  -0.450  0.8412  1.1656  0.2805
   88MOL0     C11499   8.156  10.715  -0.547  0.4833 -0.0383 -0.2189
   88MOL0     C11500   8.256  10.782  -0.644  0.0267  0.4653  0.5105
   88MOL0     N11501   8.322  10.692  -0.735  0.7795  0.5088 -0.3574
   88MOL0     C11502   8.251  10.624  -0.839 -0.4196  0.2902  0.0201
   88MOL0     C11503   8.346  10.544  -0.901  0.0047  0.8156  0.2651
   88MOL0     C11504   8.306  10.439  -1.005 -0.1855  0.4166 -0.2829
   88MOL0     C11505   8.209  10.324  -0.949 -0.1319 -0.4607 -1.2518
   88MOL0     C11506   8.280  10.215  -0.865  0.1622  0.6053  0.4862
   88MOL0     C11507   8.382  10.262  -0.761 -0.1296 -0.4411 -0.0757
   88MOL0     O11508   8.399  10.150  -0.675 -0.7106  0.5124 -0.4789
   88MOL0     C11509   8.479  10.158  -0.567  0.4565  0.2221  0.4533
   88MOL0     C11510   8.505  10.039  -0.506 -0.1440  0.5196  0.0342
   88MOL0     C11511   8.582  10.030  -0.397  0.2292  0.3388  0.2071
   88MOL0     C11512   8.637  10.149  -0.335  1.4893  0.5467  0.1034
   88MOL0     C11513   8.731  10.136  -0.220 -0.0135  0.3542 -0.0333
   88MOL0     O11514   8.755  10.252  -0.146  0.4792  0.2794  0.1536
   88MOL0     C11515   8.823  10.266  -0.029 -0.5211 -0.1175 -0.3770
   88MOL0     C11516   8.863  10.163   0.066  0.1922 -0.3096 -0.8472
   88MOL0     C11517   8.947  10.199   0.177  0.3884 -0.2976  0.6949
   88MOL0     C11518   8.980  10.329   0.202  0.2967  0.4233  0.2850
   88MOL0     O11519   9.071  10.356   0.299  0.0741 -0.3053 -0.6893
   88MOL0     C11520   9.050  10.465   0.391  1.0748 -0.1713 -0.4637
   88MOL0     C11521   9.134  10.441   0.519  0.7416  0.8346  1.1335
   88MOL0     C11522   9.292  10.467   0.493  0.2909  0.3542  0.9056
   88MOL0     C11523   9.313  10.616   0.482  0.6892 -0.3034  0.1657
   88MOL0     C11524   9.460  10.643   0.438  0.2739 -1.0390  0.5899
   88MOL0     C11525   9.462  10.778   0.374 -0.2417  0.6120  0.5079
   88MOL0     C11526   9.602  10.817   0.320 -0.0200 -0.6177  0.1495
   88MOL0     C11527   9.610  10.966   0.309  0.4117  0.3424 -0.2611
   88MOL0    Cl11528   9.485  11.029   0.193  0.2750 -0.1028  0.3441
   88MOL0     C11529   8.948  10.433   0.110  0.2442 -0.6514 -0.6795
   88MOL0     C11530   8.869  10.403  -0.007 -0.1155  0.5342 -0.4748
   88MOL0     O11531   8.787  10.030  -0.199  0.1962  0.1614 -0.4517
   88MOL0     C11532   8.608  10.263  -0.401  0.6404  0.4124  0.7878
   88MOL0     C11533   8.530  10.272  -0.513  0.6338 -0.2839 -0.1492
   88MOL0     N11534   8.470  10.567  -0.838  0.3777  0.3628  0.1170
   88MOL0     N11535   8.453  10.651  -0.735 -0.0975 -0.2770  0.3188
   88MOL0     C11536   7.679  11.233   0.082  0.2496 -0.4408  0.5961
   88MOL0     C11537   7.606  11.268   0.194 -0.1462 -0.1707 -0.3273
   88MOL0     C11538   7.375  11.437   0.531  0.8497  0.5718  0.5713
   88MOL0     C11539   7.313  11.562   0.505  0.3567 -0.5111  0.5422
   88MOL0     C11540   7.224  11.620   0.601 -0.4017 -0.8620 -0.4472
   88MOL0     C11541   7.195  11.556   0.719 -1.0686 -0.2311  0.8514
   88MOL0     O11542   7.100  11.594   0.808 -0.1874 -0.4440  0.2612
   88MOL0     C11543   7.099  11.729   0.846 -0.3510  0.2860  0.2398
   88MOL0     C11544   6.961  11.791   0.857  0.9059  0.4995  0.1994
   88MOL0     C11545   6.944  11.908   0.949 -0.0800  0.4287  0.5467
   88MOL0     C11546   6.800  11.961   0.955  0.5411  0.6956 -0.1945
   88MOL0     C11547   6.773  12.061   1.059  1.4831  0.2633  0.2718
   88MOL0     C11548   6.757  12.138   1.142  0.4323  1.6505 -0.6942
   88MOL0     C11549   7.261  11.443   0.753  0.7750  0.6403 -0.0936
   88MOL0     C11550   7.338  11.377   0.656  0.2021 -0.3818  0.1782
   88MOL0     H11551   7.540  11.588   0.117  2.6557  1.8102 -0.9638
   88MOL0     H11552   7.661  11.543  -0.077  2.9640  0.5900  1.1511
   88MOL0     H11553   7.730  11.108  -0.134  0.5232  0.6570  1.3469
   88MOL0     H11554   7.910  11.144  -0.128 -0.7344 -3.6011  0.0065
   88MOL0     H11555   7.883  11.229  -0.351  2.1344 -1.1224  2.4976
   88MOL0     H11556   7.714  11.201  -0.340  0.1792 -1.7764 -2.4875
   88MOL0     H11557   7.768  10.952  -0.359  0.6538 -0.1589  0.9779
   88MOL0     H11558   7.920  10.988  -0.280  0.7153  0.2579 -0.4043
   88MOL0     H11559   7.857  11.037  -0.579  3.0218 -1.7781 -3.6477
   88MOL0     H11560   8.009  11.079  -0.487  1.7017 -2.0231  2.2888
   88MOL0     H11561   8.000  10.868  -0.635  1.4147 -1.3234  0.8082
   88MOL0     H11562   7.883  10.802  -0.516 -0.6779  0.7670 -0.3770
   88MOL0     H11563   8.062  10.751  -0.363  0.1207  0.3436 -0.4941
   88MOL0     H11564   8.167  10.885  -0.425  2.3493 -0.2792 -0.0274
   88MOL0     H11565   8.209  10.632  -0.499  0.6308 -0.3390 -0.8983
   88MOL0     H11566   8.081  10.675  -0.615 -1.3611 -2.3519  2.8862
   88MOL0     H11567   8.326  10.850  -0.595  1.6256 -0.6802 -0.1112
   88MOL0     H11568   8.205  10.849  -0.714 -2.2687  0.0998  1.7212
   88MOL0     H11569   8.146  10.628  -0.865 -0.3356  0.6060 -0.2849
   88MOL0     H11570   8.399  10.406  -1.052 -1.8196 -1.7568 -2.1906
   88MOL0     H11571   8.255  10.497  -1.083  0.6017  2.8079  0.8803
   88MOL0     H11572   8.150  10.276  -1.027  0.8943 -2.7788 -0.6822
   88MOL0     H11573   8.140  10.364  -0.873 -0.9422 -0.8749 -1.7624
   88MOL0     H11574   8.202  10.165  -0.807  1.0449 -2.3952 -0.7571
   88MOL0     H11575   8.333  10.139  -0.923  3.9653  2.4174  1.2637
   88MOL0     H11576   8.344  10.340  -0.694 -0.0761 -0.5753  0.1090
   88MOL0     H11577   8.468  10.299  -0.817  0.9063 -1.3695  0.8582
   88MOL0     H11578   8.470   9.947  -0.550  0.3129  1.1364 -1.7289
   88MOL0     H11579   8.607   9.931  -0.358  0.5029  0.0529 -0.6709
   88MOL0     H11580   8.811  10.069   0.048  3.4076 -1.6840 -4.2072
   88MOL0     H11581   8.980  10.116   0.239  1.8250  0.1369  0.5474
   88MOL0     H11582   8.944  10.459   0.414  0.9989  0.2814 -0.6852
   88MOL0     H11583   9.062  10.563   0.343 -4.0729  2.0292  2.0258
   88MOL0     H11584   9.117  10.335   0.539  0.7307  0.6138 -0.0044
   88MOL0     H11585   9.114  10.514   0.598  2.3569  2.0551  0.4648
   88MOL0     H11586   9.344  10.412   0.415  4.1978  1.6931  2.2993
   88MOL0     H11587   9.350  10.434   0.580  1.1899  0.8579  0.5112
   88MOL0     H11588   9.240  10.666   0.418  1.6063 -0.4370 -1.0237
   88MOL0     H11589   9.309  10.643   0.588 -0.5047 -2.8757  0.8581
   88MOL0     H11590   9.487  10.568   0.364  0.8536 -0.1235 -0.1489
   88MOL0     H11591   9.518  10.640   0.531 -1.3858  3.0735  1.9935
   88MOL0     H11592   9.419  10.864   0.426  0.5694  0.5939  1.2243
   88MOL0     H11593   9.399  10.769   0.285  0.9170 -1.1811 -0.1894
   88MOL0     H11594   9.685  10.786   0.384 -0.0705 -0.7978  0.1302
   88MOL0     H11595   9.617  10.760   0.228  0.9588  1.3086 -0.9437
   88MOL0     H11596   9.711  10.986   0.273  0.6275 -0.1198  0.0774
   88MOL0     H11597   9.585  11.020   0.401  0.7687 -0.2284  0.1737
   88MOL0     H11598   8.988  10.530   0.136  0.3945 -0.6847 -0.7803
   88MOL0     H11599   8.843  10.475  -0.084 -2.9810 -2.0547 -2.0964
   88MOL0     H11600   8.660  10.357  -0.383  0.8562  0.1487  1.5920
   88MOL0     H11601   8.494  10.363  -0.560  0.7204 -0.0415  0.2477
   88MOL0     H11602   7.708  11.128   0.085 -1.0085 -0.8789 -0.8379
   88MOL0     H11603   7.587  11.183   0.259 -2.3913  0.4406 -0.0877
   88MOL0     H11604   7.332  11.618   0.413 -0.8882  3.1268  2.2935
   88MOL0     H11605   7.180  11.716   0.575 -1.4495 -1.3147 -0.3799
   88MOL0     H11606   7.162  11.792   0.782  1.6948  0.8262  2.6198
   88MOL0     H11607   7.156  11.746   0.938  2.0530 -0.3006 -1.0432
   88MOL0     H11608   6.915  11.808   0.760  0.9894 -1.2687 -0.1826
   88MOL0     H11609   6.910  11.707   0.905  3.5331 -1.8478 -0.8753
   88MOL0     H11610   7.026  11.976   0.923  1.6534 -1.0736  1.8235
   88MOL0     H11611   6.988  11.877   1.045  1.9131  0.3187 -0.3481
   88MOL0     H11612   6.770  11.993   0.855 -0.2152 -1.3853 -0.6833
   88MOL0     H11613   6.737  11.873   0.972  0.2657  1.3116  2.5391
   88MOL0     H11614   6.746  12.209   1.222  0.4561 -1.1458  1.9987
   88MOL0     H11615   7.255  11.406   0.855  2.4810  0.9127  0.1398
   88MOL0     H11616   7.375  11.280   0.688  1.1022 -0.1461 -0.1387
   89MOL0     O11617   7.905   3.579   2.121  0.1388 -0.5162  0.0554
   89MOL0     C11618   7.874   3.517   2.222 -0.1494  0.2683 -0.5968
   89MOL0     O11619   7.898   3.557   2.353  0.1629 -0.2590 -0.8869
   89MOL0     C11620   7.973   3.671   2.364 -0.4146 -0.4259 -0.5050
   89MOL0     C11621   8.106   3.644   2.407  0.9247  0.2830  0.5781
   89MOL0     C11622   8.192   3.754   2.429  0.7687 -0.4194 -0.7536
   89MOL0     C11623   8.153   3.889   2.421 -0.7720 -0.6443 -0.3013
   89MOL0     O11624   8.247   3.991   2.450  0.3889  0.4266  0.4690
   89MOL0     C11625   8.216   4.066   2.569  0.4487 -0.0917 -0.7440
   89MOL0     C11626   8.310   4.184   2.573 -0.2460  0.2318 -0.4824
   89MOL0     C11627   8.257   4.313   2.507 -0.2640  0.0677  0.0177
   89MOL0     C11628   8.231   4.275   2.360  0.9137  0.4557  0.7258
   89MOL0     C11629   8.185   4.391   2.265  0.1217  0.5006  0.4271
   89MOL0     C11630   8.186   4.340   2.120  0.1357 -0.2762  0.0180
   89MOL0     C11631   8.137   4.458   2.026  0.2301  0.1415  0.3013
   89MOL0     C11632   8.200   4.453   1.880  0.0143 -0.6905 -0.1655
   89MOL0     N11633   8.335   4.511   1.886 -0.2449  0.3686 -0.4993
   89MOL0     C11634   8.430   4.487   1.782 -0.2435  0.5809 -0.2488
   89MOL0     C11635   8.532   4.563   1.820 -0.2679 -1.3325 -0.7764
   89MOL0     C11636   8.657   4.593   1.735  0.5485 -0.4068 -0.6789
   89MOL0     C11637   8.767   4.518   1.816  1.2339 -0.0790  0.0896
   89MOL0     C11638   8.757   4.364   1.808  0.6581 -0.2809 -0.0652
   89MOL0     C11639   8.886   4.292   1.840 -0.5134  0.5307  1.2849
   89MOL0     O11640   8.933   4.290   1.973  0.4285  0.0445  0.5189
   89MOL0     C11641   9.071   4.279   1.990  0.5298  1.1033 -0.6846
   89MOL0     C11642   9.170   4.305   1.895  0.3200  0.2720 -0.0450
   89MOL0     C11643   9.304   4.298   1.928 -0.0555  0.9223 -0.3004
   89MOL0     C11644   9.337   4.259   2.060 -0.4486 -0.3925 -0.1537
   89MOL0     C11645   9.482   4.262   2.097  0.6710 -0.2449 -0.8857
   89MOL0     O11646   9.571   4.228   2.008  0.6352 -0.4394  0.0322
   89MOL0     C11647   9.702   4.261   2.040 -0.0695  0.1746  0.0194
   89MOL0     C11648   9.770   4.369   1.990  0.3367 -0.1050 -1.0110
   89MOL0     C11649   9.898   4.402   2.023 -0.3809  0.4446  0.3478
   89MOL0     C11650   9.968   4.323   2.115  0.8675  0.1183 -0.4652
   89MOL0     O11651  10.091   4.355   2.170 -0.6623  0.7064  0.4071
   89MOL0     C11652  10.173   4.433   2.085  0.4835 -0.2424 -0.3867
   89MOL0     C11653  10.297   4.468   2.162  0.3947 -0.0390 -0.4062
   89MOL0     C11654  10.391   4.343   2.187  0.2261  0.1936  0.1468
   89MOL0     C11655  10.531   4.390   2.248 -0.5521  0.0314 -0.7076
   89MOL0     C11656  10.650   4.297   2.213 -0.0173 -1.2701 -1.3021
   89MOL0     C11657  10.766   4.341   2.298 -0.0391 -1.3570  1.1727
   89MOL0     C11658  10.886   4.267   2.250  0.1695 -0.2762  0.3908
   89MOL0     C11659  11.016   4.317   2.311 -0.6895 -0.0866 -1.3067
   89MOL0    Cl11660  11.090   4.431   2.195 -0.1986  0.7054 -0.0850
   89MOL0     C11661   9.904   4.210   2.163 -1.4908  1.0762  0.4846
   89MOL0     C11662   9.775   4.175   2.125  0.8302 -0.3266  0.5258
   89MOL0     O11663   9.509   4.277   2.218  0.0757 -0.1145 -0.1809
   89MOL0     C11664   9.246   4.244   2.161  0.3492 -0.2976 -0.3461
   89MOL0     C11665   9.111   4.252   2.122  0.3872 -0.3558 -1.1761
   89MOL0     N11666   8.498   4.627   1.939  1.2934  0.3948  0.6658
   89MOL0     N11667   8.387   4.598   1.984 -0.3293 -0.4327 -1.3978
   89MOL0     C11668   8.018   3.908   2.377 -0.8708  0.1070  0.5608
   89MOL0     C11669   7.930   3.802   2.353  0.5951  0.3059  0.4777
   89MOL0     C11670   7.764   3.411   2.200  0.6545 -1.4194 -0.4887
   89MOL0     C11671   7.699   3.406   2.080 -0.0865 -0.1210  0.2519
   89MOL0     C11672   7.596   3.317   2.067 -0.1147  0.0999  0.4828
   89MOL0     C11673   7.547   3.237   2.161 -0.2726  0.0063 -0.6017
   89MOL0     O11674   7.453   3.148   2.127  0.0672  0.2642 -0.4555
   89MOL0     C11675   7.395   3.083   2.245 -1.0711  0.7039  0.1952
   89MOL0     C11676   7.257   3.020   2.207 -0.2608 -0.7730 -0.2006
   89MOL0     C11677   7.255   2.911   2.098 -0.7663 -0.1850  0.5745
   89MOL0     C11678   7.118   2.891   2.031 -0.2619  0.6968 -0.7853
   89MOL0     C11679   7.064   3.020   1.976  0.0976 -0.7061 -0.1316
   89MOL0     C11680   7.030   3.131   1.935  0.5090 -0.2199 -0.5678
   89MOL0     C11681   7.610   3.246   2.291  0.1134  0.1751  0.4118
   89MOL0     C11682   7.707   3.343   2.312 -0.4731 -0.1392  0.8772
   89MOL0     H11683   8.148   3.544   2.413  2.6324  1.0155  1.5802
   89MOL0     H11684   8.293   3.738   2.464  1.8222  5.2061 -0.4048
   89MOL0     H11685   8.240   4.011   2.660  0.4040 -1.3011 -1.4298
   89MOL0     H11686   8.112   4.099   2.571  0.5159  0.1062 -0.5337
   89MOL0     H11687   8.398   4.169   2.511 -1.3001  2.2483 -2.6285
   89MOL0     H11688   8.339   4.198   2.678 -0.1529  1.4674 -0.6632
   89MOL0     H11689   8.329   4.395   2.516  0.2080  0.1170 -3.0234
   89MOL0     H11690   8.164   4.350   2.551  1.3076  2.2737  1.7284
   89MOL0     H11691   8.313   4.210   2.328  2.3875 -0.0745  4.9999
   89MOL0     H11692   8.151   4.200   2.365  0.6415  0.7971  4.3111
   89MOL0     H11693   8.245   4.482   2.273  0.3436  0.6412 -1.9577
   89MOL0     H11694   8.085   4.403   2.307  0.7933 -0.2597  2.3290
   89MOL0     H11695   8.105   4.268   2.103 -0.2344 -0.4820  2.3461
   89MOL0     H11696   8.281   4.299   2.085  0.1275 -0.5854  0.3478
   89MOL0     H11697   8.028   4.450   2.015  0.2808 -0.5567  0.2266
   89MOL0     H11698   8.168   4.545   2.083 -0.5569 -0.9322  2.4843
   89MOL0     H11699   8.137   4.512   1.813 -1.5051 -0.7382  1.1674
   89MOL0     H11700   8.202   4.354   1.832  3.8601  0.1277 -2.1308
   89MOL0     H11701   8.423   4.452   1.679  2.7823  1.6712 -0.9467
   89MOL0     H11702   8.666   4.701   1.721 -0.2097 -0.3340 -0.6762
   89MOL0     H11703   8.647   4.553   1.633 -0.9969  1.2607 -1.2455
   89MOL0     H11704   8.762   4.556   1.919 -2.6860  2.6036 -0.8846
   89MOL0     H11705   8.859   4.556   1.771  0.7030  0.8717 -0.2183
   89MOL0     H11706   8.671   4.341   1.871 -1.9994  1.4576 -2.7310
   89MOL0     H11707   8.722   4.341   1.707 -0.8139  1.3758  0.0014
   89MOL0     H11708   8.954   4.340   1.769 -0.6455 -0.9840  0.0898
   89MOL0     H11709   8.887   4.187   1.812 -0.7818  0.6090  0.9732
   89MOL0     H11710   9.146   4.323   1.791  0.4630  4.2148  0.4690
   89MOL0     H11711   9.380   4.320   1.854 -0.5017 -0.9044 -1.3481
   89MOL0     H11712   9.701   4.434   1.938  1.8999  1.7167 -0.8983
   89MOL0     H11713   9.936   4.492   1.974 -5.9277  1.8891 -2.1860
   89MOL0     H11714  10.128   4.531   2.066 -1.7744 -0.8276  1.4300
   89MOL0     H11715  10.184   4.379   1.990 -0.3628 -0.4796 -0.3549
   89MOL0     H11716  10.294   4.505   2.265  3.2253  1.8953 -0.9081
   89MOL0     H11717  10.347   4.537   2.094 -1.0662 -1.0650 -2.6381
   89MOL0     H11718  10.406   4.283   2.097  2.1978  2.6188 -1.2808
   89MOL0     H11719  10.342   4.277   2.260  2.4374 -2.2425 -0.4383
   89MOL0     H11720  10.561   4.486   2.205 -0.6601  1.0984  1.4754
   89MOL0     H11721  10.507   4.403   2.354 -1.3870 -2.1570 -0.5769
   89MOL0     H11722  10.665   4.317   2.107  0.8892  0.2091 -0.9324
   89MOL0     H11723  10.643   4.190   2.233 -1.3975 -0.8614  0.7350
   89MOL0     H11724  10.741   4.321   2.402  1.4218 -0.9728  1.6334
   89MOL0     H11725  10.790   4.445   2.272  0.0608 -1.4176  1.0221
   89MOL0     H11726  10.868   4.164   2.282 -1.4621 -0.0240  0.3397
   89MOL0     H11727  10.897   4.273   2.141 -1.4357  1.0962  0.2559
   89MOL0     H11728  11.088   4.235   2.315  2.4028  2.2716 -3.7187
   89MOL0     H11729  10.998   4.374   2.403 -1.4399  1.0531 -2.1194
   89MOL0     H11730   9.953   4.146   2.236  1.9138  1.6809 -1.0607
   89MOL0     H11731   9.736   4.078   2.154  1.2270 -0.1054  1.8738
   89MOL0     H11732   9.265   4.223   2.266 -2.4687 -0.8196  0.1514
   89MOL0     H11733   9.030   4.234   2.192 -0.1249  0.6254 -1.4966
   89MOL0     H11734   7.991   4.013   2.370 -2.3699 -0.3186 -0.4984
   89MOL0     H11735   7.823   3.819   2.347  0.8303  1.6205 -0.8015
   89MOL0     H11736   7.736   3.457   1.992 -1.3593 -0.2623 -0.3766
   89MOL0     H11737   7.542   3.313   1.974  0.9189  2.3122 -0.2882
   89MOL0     H11738   7.388   3.158   2.323  1.4978  1.1911  0.0602
   89MOL0     H11739   7.452   2.995   2.276  1.5854  2.4540  0.5563
   89MOL0     H11740   7.218   2.978   2.301 -1.5360  0.7399 -0.0067
   89MOL0     H11741   7.197   3.107   2.178 -0.2858 -1.1232 -1.2430
   89MOL0     H11742   7.286   2.811   2.131 -3.5883 -1.6042 -0.6989
   89MOL0     H11743   7.326   2.950   2.026  0.4770 -1.4516  1.0650
   89MOL0     H11744   7.142   2.807   1.965  1.6481 -0.5094  1.2933
   89MOL0     H11745   7.051   2.848   2.107  0.3281 -0.6189 -0.9781
   89MOL0     H11746   6.996   3.227   1.901 -1.7179 -0.3750  0.9762
   89MOL0     H11747   7.569   3.185   2.371 -0.6083 -1.0490 -0.8490
   89MOL0     H11748   7.750   3.359   2.411  0.7457  0.9900  0.1942
   90MOL0     O11749   7.037  10.210   8.594  0.0745 -0.7713 -0.2060
   90MOL0     C11750   7.075  10.126   8.513  0.0520  0.6651  0.3924
   90MOL0     O11751   7.105  10.003   8.545 -0.3736  0.4236  0.4390
   90MOL0     C11752   7.114   9.969   8.675  0.3931  0.5033  1.2828
   90MOL0     C11753   7.221  10.024   8.751  0.6559 -1.0754  0.9530
   90MOL0     C11754   7.231  10.006   8.886  1.4850 -0.7749 -0.5014
   90MOL0     C11755   7.128   9.930   8.942  0.4606 -0.0013 -0.1475
   90MOL0     O11756   7.118   9.902   9.073  0.7422  0.2295 -0.4284
   90MOL0     C11757   7.233   9.833   9.125  0.2887  0.0165  1.3293
   90MOL0     C11758   7.204   9.799   9.271  0.8778 -0.2834 -0.8908
   90MOL0     C11759   7.294   9.687   9.331  0.3950 -0.1947 -0.6547
   90MOL0     C11760   7.424   9.727   9.402  0.1763 -0.7507  0.5844
   90MOL0     C11761   7.417   9.695   9.555 -1.3215  0.0150 -0.4798
   90MOL0     C11762   7.552   9.737   9.621 -0.0505 -0.0389  0.0968
   90MOL0     C11763   7.543   9.765   9.776  0.0838 -0.4114  0.1714
   90MOL0     C11764   7.670   9.842   9.819  0.0965  0.1317 -0.0436
   90MOL0     N11765   7.795   9.763   9.817 -0.2380  0.1866 -0.0939
   90MOL0     C11766   7.834   9.677   9.910 -0.2103 -0.1770  0.0170
   90MOL0     C11767   7.964   9.649   9.880 -0.9036  0.2739 -0.0763
   90MOL0     C11768   8.046   9.535   9.953  1.5853 -0.0964 -1.4063
   90MOL0     C11769   8.057   9.567  10.104  0.3463  0.1964 -0.1225
   90MOL0     C11770   8.127   9.447  10.170  0.8838  0.2317 -0.6023
   90MOL0     C11771   8.145   9.471  10.321 -0.0079  0.6533 -0.3355
   90MOL0     O11772   8.209   9.359  10.391  0.1297 -0.2164  0.5037
   90MOL0     C11773   8.176   9.322  10.518  0.0285  0.2620 -0.1212
   90MOL0     C11774   8.062   9.370  10.584 -0.6814  0.8470 -0.4469
   90MOL0     C11775   8.039   9.342  10.711 -0.5590 -1.5235  0.2730
   90MOL0     C11776   8.121   9.253  10.784 -0.2075 -0.0065 -0.3021
   90MOL0     C11777   8.077   9.227  10.923  0.0523  0.0664 -0.5756
   90MOL0     O11778   8.163   9.158  10.993  0.3888  0.5004  0.4002
   90MOL0     C11779   8.144   9.106  11.118 -0.2416  0.0561 -1.3952
   90MOL0     C11780   8.070   8.987  11.135 -0.7922  0.0102  0.0196
   90MOL0     C11781   8.069   8.935  11.255  1.2213  0.1843  0.1866
   90MOL0     C11782   8.135   8.989  11.371 -0.8163  0.1134  0.2292
   90MOL0     O11783   8.116   8.937  11.487 -0.7949  0.3633  0.0695
   90MOL0     C11784   8.184   8.993  11.601  0.4595  0.1986  0.8326
   90MOL0     C11785   8.189   8.893  11.715 -0.0582 -0.1861  0.2210
   90MOL0     C11786   8.278   8.940  11.835 -0.2737 -0.5622 -0.3128
   90MOL0     C11787   8.277   8.851  11.960  1.2293  0.2267  0.4470
   90MOL0     C11788   8.138   8.823  12.008  0.1276  0.2236 -1.4445
   90MOL0     C11789   8.135   8.820  12.161 -0.2857 -0.1723 -0.2845
   90MOL0     C11790   7.992   8.839  12.212 -0.0995  1.0915  0.0318
   90MOL0     C11791   7.964   8.856  12.366 -0.9040 -0.4269  0.7433
   90MOL0    Cl11792   7.954   9.027  12.397 -0.0894 -0.5350  0.4905
   90MOL0     C11793   8.222   9.098  11.349 -0.0727 -0.0042 -0.0297
   90MOL0     C11794   8.219   9.158  11.225  0.7781 -0.0097  0.2323
   90MOL0     O11795   7.967   9.264  10.970 -0.5678 -0.0703  0.0212
   90MOL0     C11796   8.242   9.209  10.731  0.5832  1.1306 -0.1776
   90MOL0     C11797   8.270   9.241  10.599  0.6145 -0.1504 -0.1424
   90MOL0     N11798   7.996   9.711   9.761 -0.6081 -0.0452  0.7145
   90MOL0     N11799   7.889   9.769   9.718  0.9309 -0.6209 -0.8733
   90MOL0     C11800   7.018   9.886   8.868 -0.0923 -0.1099 -0.2305
   90MOL0     C11801   7.011   9.903   8.732  0.8323 -0.3142 -0.9003
   90MOL0     C11802   7.089  10.170   8.370 -0.7965 -1.2260  0.5594
   90MOL0     C11803   7.101  10.305   8.333 -0.8322 -0.4780  0.5660
   90MOL0     C11804   7.099  10.332   8.206 -0.4536 -0.6206  0.4341
   90MOL0     C11805   7.089  10.241   8.109  1.7422  0.5883  0.8360
   90MOL0     O11806   7.083  10.286   7.976 -0.5675  0.4916 -0.4082
   90MOL0     C11807   7.114  10.197   7.868  0.8222 -0.0396 -0.5749
   90MOL0     C11808   7.015  10.225   7.752 -1.1257  0.1389 -0.1613
   90MOL0     C11809   7.003  10.373   7.697 -0.2778  0.9361 -0.1415
   90MOL0     C11810   6.960  10.380   7.547  0.7727  0.2743 -0.4838
   90MOL0     C11811   7.068  10.425   7.460  0.1977 -0.4048  0.0228
   90MOL0     C11812   7.162  10.473   7.402 -0.8317 -0.3196  0.1682
   90MOL0     C11813   7.077  10.107   8.144 -0.2513 -0.0624  0.7328
   90MOL0     C11814   7.071  10.067   8.274 -0.6274  0.1438  0.0503
   90MOL0     H11815   7.299  10.071   8.693 -0.2139 -1.2537 -0.3975
   90MOL0     H11816   7.311  10.047   8.948 -0.0168  0.7942  0.4761
   90MOL0     H11817   7.324   9.892   9.120  1.6732 -1.8855 -4.6251
   90MOL0     H11818   7.254   9.740   9.071 -0.7307  0.2482  0.4968
   90MOL0     H11819   7.101   9.762   9.274  0.8221 -0.0628  0.2833
   90MOL0     H11820   7.213   9.895   9.322  2.0872 -1.1648  0.6416
   90MOL0     H11821   7.313   9.601   9.267 -0.5853 -0.0481 -1.1620
   90MOL0     H11822   7.232   9.639   9.407  0.2141  1.0908  0.0399
   90MOL0     H11823   7.505   9.670   9.356  0.7786 -0.4144  1.1956
   90MOL0     H11824   7.449   9.833   9.387  1.0717 -0.6726  2.3745
   90MOL0     H11825   7.401   9.587   9.568 -0.2802 -0.1101 -0.1190
   90MOL0     H11826   7.347   9.755   9.614 -1.6004 -1.0372  0.2975
   90MOL0     H11827   7.595   9.821   9.565 -0.8653 -1.2861 -2.5470
   90MOL0     H11828   7.623   9.656   9.601  0.1360  0.3140 -0.7195
   90MOL0     H11829   7.455   9.829   9.778  1.4478  1.7588 -2.1085
   90MOL0     H11830   7.529   9.678   9.839 -1.5445  0.9188  1.7398
   90MOL0     H11831   7.652   9.863   9.925 -1.3949  2.4198 -0.6806
   90MOL0     H11832   7.684   9.931   9.758  2.0487 -1.7720 -2.5984
   90MOL0     H11833   7.773   9.637   9.990 -2.9184  0.7824 -1.4343
   90MOL0     H11834   8.148   9.539   9.913  1.5336 -0.4016 -1.5745
   90MOL0     H11835   7.990   9.446   9.923  1.4847 -0.5342  0.0193
   90MOL0     H11836   7.957   9.592  10.140  0.3189  1.1554 -0.8110
   90MOL0     H11837   8.124   9.651  10.122 -1.0923  1.5983 -0.9947
   90MOL0     H11838   8.066   9.357  10.166 -0.6724  1.2943 -3.3742
   90MOL0     H11839   8.221   9.431  10.116 -0.2720  2.1359 -3.3814
   90MOL0     H11840   8.045   9.483  10.365  1.5881  0.8828  3.6415
   90MOL0     H11841   8.204   9.562  10.334  0.0900  0.4323  0.9699
   90MOL0     H11842   7.982   9.417  10.527  2.1188  2.7314 -3.1941
   90MOL0     H11843   7.945   9.369  10.757  0.3924  0.7117  1.0239
   90MOL0     H11844   8.010   8.936  11.060 -2.7997  0.4726  1.2145
   90MOL0     H11845   8.014   8.843  11.271  1.3943 -0.2085 -1.3236
   90MOL0     H11846   8.117   9.076  11.624 -4.3273 -3.0283 -0.0725
   90MOL0     H11847   8.284   9.028  11.573  0.6381 -3.4759 -4.8319
   90MOL0     H11848   8.225   8.795  11.682 -2.3963 -1.1857  0.4306
   90MOL0     H11849   8.088   8.890  11.756  0.2221 -1.0348  0.8768
   90MOL0     H11850   8.249   9.041  11.867 -0.4215 -0.5894 -0.3614
   90MOL0     H11851   8.383   8.948  11.805 -0.7975 -0.2246 -2.2486
   90MOL0     H11852   8.312   8.748  11.943  1.6980  0.6439 -1.3307
   90MOL0     H11853   8.337   8.901  12.036 -1.0357 -0.8683  3.1418
   90MOL0     H11854   8.103   8.729  11.965 -1.7552  0.3151 -0.2127
   90MOL0     H11855   8.063   8.898  11.984 -1.3756 -0.1506  1.5776
   90MOL0     H11856   8.193   8.901  12.206  1.0175 -0.9048 -0.6123
   90MOL0     H11857   8.189   8.730  12.189  1.9613  1.6934  1.8155
   90MOL0     H11858   7.944   8.928  12.171  1.2409  1.9822  0.3525
   90MOL0     H11859   7.939   8.751  12.174 -0.8078  2.3751 -2.1319
   90MOL0     H11860   8.044   8.818  12.430 -0.4792 -1.5747 -0.4226
   90MOL0     H11861   7.873   8.807  12.401 -1.2013  0.3852  1.1247
   90MOL0     H11862   8.271   9.157  11.426 -0.2251  1.0259 -0.7023
   90MOL0     H11863   8.280   9.246  11.210  0.0714  0.4158 -0.2578
   90MOL0     H11864   8.309   9.143  10.784 -0.2300 -0.6037 -1.2164
   90MOL0     H11865   8.365   9.199  10.568  2.3469  1.3199  2.7282
   90MOL0     H11866   6.941   9.824   8.913  1.3318 -2.7997 -1.2504
   90MOL0     H11867   6.928   9.862   8.675 -2.3234  1.4754  2.0277
   90MOL0     H11868   7.102  10.386   8.406 -3.3785  2.9189 -2.7959
   90MOL0     H11869   7.101  10.436   8.175 -2.7742 -1.0991 -1.5962
   90MOL0     H11870   7.086  10.092   7.884 -2.9240  0.7272 -1.2468
   90MOL0     H11871   7.218  10.205   7.836  0.6516 -1.5862 -1.5971
   90MOL0     H11872   7.062  10.162   7.677  0.2010  2.2068 -1.1793
   90MOL0     H11873   6.925  10.181   7.795  0.3680 -3.1729 -0.1782
   90MOL0     H11874   7.100  10.419   7.715  0.2148  0.0293 -0.3968
   90MOL0     H11875   6.934  10.426   7.763 -2.1036  0.6379 -1.7235
   90MOL0     H11876   6.911  10.289   7.512 -1.9077  0.1569  3.0824
   90MOL0     H11877   6.893  10.466   7.542 -0.5092 -0.7312 -1.1256
   90MOL0     H11878   7.251  10.525   7.373 -1.2827 -1.5197 -3.8390
   90MOL0     H11879   7.057  10.023   8.078  0.1606 -1.0961  1.8871
   90MOL0     H11880   7.042   9.966   8.300  2.5789 -1.0090 -0.4632
   91MOL0     O11881  10.580   5.557   2.798 -0.1506  1.4043  0.2247
   91MOL0     C11882  10.635   5.582   2.687 -0.5935 -0.1471 -0.8696
   91MOL0     O11883  10.639   5.502   2.573  0.3729  0.4659  1.2228
   91MOL0     C11884  10.577   5.379   2.574  0.0573 -0.3376 -0.2880
   91MOL0     C11885  10.660   5.274   2.552 -0.0149  0.0127 -0.9455
   91MOL0     C11886  10.618   5.146   2.544 -0.4408  0.4224 -0.4069
   91MOL0     C11887  10.478   5.119   2.563 -0.7622 -0.0600  0.4529
   91MOL0     O11888  10.423   4.996   2.549 -0.0122  0.2361  0.7748
   91MOL0     C11889  10.503   4.881   2.544  1.0449  0.0201 -0.1407
   91MOL0     C11890  10.408   4.754   2.527 -0.4193 -0.5659  0.2834
   91MOL0     C11891  10.326   4.712   2.659 -0.7862 -0.9123 -0.2462
   91MOL0     C11892  10.199   4.798   2.675  0.5400 -0.2465  0.7085
   91MOL0     C11893  10.086   4.780   2.574  0.0731  0.1589 -0.4800
   91MOL0     C11894   9.952   4.867   2.590 -0.1638  0.4769  0.6373
   91MOL0     C11895   9.883   4.914   2.462  0.3225  0.2067 -0.2850
   91MOL0     C11896   9.762   5.004   2.495  0.0495  0.8507 -0.3491
   91MOL0     N11897   9.719   5.082   2.387 -0.4407 -0.7362 -0.8840
   91MOL0     C11898   9.649   5.043   2.280  0.2944 -0.5846  0.0107
   91MOL0     C11899   9.641   5.154   2.206 -0.1823 -0.7278  0.3769
   91MOL0     C11900   9.562   5.169   2.085 -0.0641 -0.0880 -0.4244
   91MOL0     C11901   9.572   5.053   1.983 -0.4422 -1.0702 -0.6029
   91MOL0     C11902   9.469   5.070   1.879 -0.0836  0.6653  0.5685
   91MOL0     C11903   9.532   5.013   1.753  0.5862  0.4372 -0.2116
   91MOL0     O11904   9.451   5.048   1.631 -0.6504 -0.2044 -0.2426
   91MOL0     C11905   9.335   4.981   1.594 -0.3157 -0.0885  0.2723
   91MOL0     C11906   9.281   4.882   1.663  0.2001  0.3075 -0.2837
   91MOL0     C11907   9.157   4.824   1.631  0.4959 -0.6415 -0.1755
   91MOL0     C11908   9.076   4.885   1.531  0.4323 -0.2748 -0.5788
   91MOL0     C11909   8.939   4.834   1.498  0.0428  0.5479  0.7462
   91MOL0     O11910   8.876   4.911   1.407  0.6615 -0.7630  0.3168
   91MOL0     C11911   8.746   4.885   1.369  0.8417  0.3916  0.0481
   91MOL0     C11912   8.647   4.876   1.469  0.2119  0.4526  1.0329
   91MOL0     C11913   8.517   4.863   1.432  0.7583  0.4982 -0.2188
   91MOL0     C11914   8.475   4.845   1.296 -0.9042  0.2932  0.5123
   91MOL0     O11915   8.344   4.830   1.262  0.4464  0.4464 -0.5829
   91MOL0     C11916   8.281   4.941   1.201  0.4363  0.3008  1.1020
   91MOL0     C11917   8.135   4.925   1.178  0.6297 -0.0412  0.6326
   91MOL0     C11918   8.088   4.783   1.123 -0.2179 -0.3612  2.0912
   91MOL0     C11919   7.935   4.764   1.138  0.1307 -0.0893  0.5143
   91MOL0     C11920   7.885   4.625   1.101 -0.0055 -0.1817  0.2223
   91MOL0     C11921   7.861   4.611   0.946 -0.1332  0.0809  0.1938
   91MOL0     C11922   7.802   4.469   0.912 -0.9942 -0.4140 -0.6841
   91MOL0     C11923   7.792   4.459   0.758 -0.1424  0.6142 -0.3507
   91MOL0    Cl11924   7.660   4.570   0.714 -0.2831 -0.6125  0.0628
   91MOL0     C11925   8.573   4.856   1.199 -0.8350 -0.6124  0.1588
   91MOL0     C11926   8.712   4.876   1.232  1.3917  0.3053 -0.2218
   91MOL0     O11927   8.900   4.724   1.539 -0.4079 -0.4447  0.5296
   91MOL0     C11928   9.125   4.990   1.460 -0.7024 -0.1329  0.5638
   91MOL0     C11929   9.254   5.036   1.491 -0.5653 -0.4681  0.1651
   91MOL0     N11930   9.706   5.255   2.266 -0.0693 -0.1746  0.5564
   91MOL0     N11931   9.736   5.217   2.382 -0.3839 -0.2987 -0.1595
   91MOL0     C11932  10.389   5.222   2.592 -0.0987 -0.5751  0.1553
   91MOL0     C11933  10.434   5.358   2.587 -0.2462 -0.6278 -0.8285
   91MOL0     C11934  10.726   5.688   2.684 -0.2764 -0.2210 -0.0636
   91MOL0     C11935  10.742   5.788   2.781 -0.1668  0.6575  0.0683
   91MOL0     C11936  10.837   5.892   2.766  0.6522  0.0116 -0.8722
   91MOL0     C11937  10.901   5.913   2.651  0.2614 -0.6553 -0.2906
   91MOL0     O11938  10.984   6.018   2.649  0.1804 -0.4816  0.1699
   91MOL0     C11939  11.101   6.024   2.569 -0.7455  1.3670 -0.0682
   91MOL0     C11940  11.232   6.094   2.631  0.0289 -0.5644  0.1815
   91MOL0     C11941  11.317   6.166   2.521 -0.2447  0.2642  0.6364
   91MOL0     C11942  11.421   6.255   2.592  0.8363  0.5277  0.0259
   91MOL0     C11943  11.371   6.363   2.672  0.1173 -0.6157 -1.0789
   91MOL0     C11944  11.325   6.453   2.739  0.0096  0.1518  0.3016
   91MOL0     C11945  10.882   5.827   2.547  0.1271 -0.6181 -0.6674
   91MOL0     C11946  10.796   5.721   2.566  0.2224 -0.2649  1.2951
   91MOL0     H11947  10.761   5.305   2.526  1.4990 -3.1384  0.6164
   91MOL0     H11948  10.697   5.077   2.515 -0.3040  1.5761 -3.0981
   91MOL0     H11949  10.558   4.865   2.637  0.2008 -1.5948  0.1262
   91MOL0     H11950  10.571   4.883   2.458 -1.1215 -2.5609 -2.1167
   91MOL0     H11951  10.471   4.672   2.493 -1.4649 -1.2086 -0.1499
   91MOL0     H11952  10.336   4.769   2.446  2.1928 -2.0434 -2.4693
   91MOL0     H11953  10.390   4.744   2.742  0.0609  0.8377 -1.5123
   91MOL0     H11954  10.301   4.606   2.670 -1.6650 -0.8685 -1.5251
   91MOL0     H11955  10.161   4.782   2.776  0.6419 -0.6908  0.6794
   91MOL0     H11956  10.208   4.907   2.673 -1.2921  0.1017  3.9031
   91MOL0     H11957  10.071   4.672   2.578  1.5711 -0.1585  5.3262
   91MOL0     H11958  10.117   4.809   2.473  1.0897 -0.2712 -0.3071
   91MOL0     H11959   9.980   4.961   2.638 -0.1803 -0.2249  2.0732
   91MOL0     H11960   9.881   4.816   2.656 -0.9901  3.1715  2.0002
   91MOL0     H11961   9.955   4.975   2.407  3.0566 -2.3092  0.2830
   91MOL0     H11962   9.855   4.836   2.390 -1.5178 -0.5243  1.1467
   91MOL0     H11963   9.796   5.065   2.579  0.2558 -4.2623  3.8462
   91MOL0     H11964   9.684   4.954   2.553  1.6881 -0.4688  0.8450
   91MOL0     H11965   9.594   4.952   2.260 -1.6441  0.4523  0.4253
   91MOL0     H11966   9.591   5.262   2.037 -0.1311  0.8952  1.3448
   91MOL0     H11967   9.462   5.174   2.130  0.6783  1.6140  1.1570
   91MOL0     H11968   9.551   4.955   2.028  0.8930 -0.5074  1.3520
   91MOL0     H11969   9.671   5.066   1.940  0.1829 -1.2165  0.7400
   91MOL0     H11970   9.371   5.026   1.898  0.0840 -0.0575 -0.2102
   91MOL0     H11971   9.452   5.174   1.852 -1.8408  0.0400 -0.9320
   91MOL0     H11972   9.547   4.904   1.755  2.1861  0.6322 -0.3275
   91MOL0     H11973   9.635   5.047   1.736  0.6001  0.1326 -0.7911
   91MOL0     H11974   9.339   4.853   1.750  0.0716 -0.8415 -0.5584
   91MOL0     H11975   9.134   4.728   1.676  2.7288 -0.8182  0.7152
   91MOL0     H11976   8.674   4.881   1.575 -2.9543  3.1987  1.8861
   91MOL0     H11977   8.433   4.867   1.500  2.0089 -1.3609  1.5865
   91MOL0     H11978   8.310   4.954   1.097  0.1204  1.8074  1.1789
   91MOL0     H11979   8.286   5.033   1.261 -4.0931  2.1745 -0.8902
   91MOL0     H11980   8.104   4.993   1.097  1.9491 -0.2110 -0.0534
   91MOL0     H11981   8.082   4.955   1.269 -2.2407  3.2761 -1.8478
   91MOL0     H11982   8.146   4.698   1.160 -0.3347 -1.2855  0.2484
   91MOL0     H11983   8.108   4.768   1.017 -2.2275 -3.5103  2.0455
   91MOL0     H11984   7.905   4.789   1.240 -2.4703  3.1686 -0.8506
   91MOL0     H11985   7.887   4.840   1.075 -1.7350 -1.2981  0.3694
   91MOL0     H11986   7.788   4.614   1.150 -0.4611 -0.4349 -0.7281
   91MOL0     H11987   7.952   4.542   1.129 -0.2110 -1.5692 -2.9888
   91MOL0     H11988   7.954   4.628   0.890 -0.5840  1.8286 -0.0898
   91MOL0     H11989   7.790   4.691   0.922 -0.4496 -1.1090 -3.5674
   91MOL0     H11990   7.864   4.384   0.942  0.3863  1.0614  0.9036
   91MOL0     H11991   7.701   4.450   0.949 -1.5283  0.8087 -1.4489
   91MOL0     H11992   7.768   4.361   0.718  0.0802  0.2055  0.4824
   91MOL0     H11993   7.882   4.500   0.711  1.8541 -0.9923  1.7714
   91MOL0     H11994   8.558   4.842   1.093 -2.2975  3.9770 -0.4203
   91MOL0     H11995   8.789   4.853   1.159  1.1763 -1.5653  0.1027
   91MOL0     H11996   9.063   5.047   1.392 -1.9069 -0.7730  1.1118
   91MOL0     H11997   9.299   5.126   1.448  1.9925  0.4362  4.2253
   91MOL0     H11998  10.289   5.186   2.613 -0.6191  1.0496  0.6207
   91MOL0     H11999  10.366   5.438   2.616  1.0495 -0.1430  1.0367
   91MOL0     H12000  10.693   5.786   2.878  0.1852 -0.6332  0.2358
   91MOL0     H12001  10.851   5.959   2.850  2.1060 -0.9426 -0.3152
   91MOL0     H12002  11.064   6.082   2.484  1.4337  2.6177 -0.2355
   91MOL0     H12003  11.128   5.924   2.534 -1.5755  1.0619  0.1272
   91MOL0     H12004  11.200   6.160   2.711 -3.3646 -0.2754 -1.2658
   91MOL0     H12005  11.301   6.027   2.683  1.6999  0.9069 -0.0431
   91MOL0     H12006  11.250   6.219   2.453  4.3574  3.2545 -2.0627
   91MOL0     H12007  11.365   6.080   2.475  1.6273 -0.1099  3.0851
   91MOL0     H12008  11.493   6.192   2.644  0.0308 -1.3393 -1.0475
   91MOL0     H12009  11.480   6.303   2.513  0.5012  1.4052  0.2960
   91MOL0     H12010  11.272   6.518   2.806 -0.4951 -0.5630  0.6102
   91MOL0     H12011  10.912   5.851   2.445  1.2074  1.7488  0.1199
   91MOL0     H12012  10.767   5.663   2.479 -0.4418 -1.2901  2.1656
   92MOL0     O12013   9.077   1.886   4.360  0.1618  0.3598  0.9038
   92MOL0     C12014   9.044   2.003   4.328  0.4337  0.6459 -0.0628
   92MOL0     O12015   8.954   2.039   4.223 -0.3104  0.8603 -0.7416
   92MOL0     C12016   8.884   1.933   4.167 -0.1271  0.0957  0.1565
   92MOL0     C12017   8.925   1.803   4.130 -0.5202  1.0079  0.2266
   92MOL0     C12018   8.827   1.705   4.077  0.4255  0.0228 -0.1618
   92MOL0     C12019   8.696   1.728   4.061 -0.5887  0.0567 -1.1165
   92MOL0     O12020   8.604   1.640   4.018 -0.6615  0.5412  0.6222
   92MOL0     C12021   8.645   1.564   3.897 -0.0007  0.0527 -0.0643
   92MOL0     C12022   8.716   1.642   3.795 -0.3595 -0.6220 -0.5536
   92MOL0     C12023   8.639   1.762   3.738  0.4536 -0.0092  0.4350
   92MOL0     C12024   8.689   1.785   3.600 -0.0581  0.6261  0.8081
   92MOL0     C12025   8.638   1.923   3.546  0.8001  0.4449  0.6077
   92MOL0     C12026   8.695   1.960   3.410  0.6715  0.5062 -0.2446
   92MOL0     C12027   8.694   2.106   3.398  0.7885  0.2216  0.5211
   92MOL0     C12028   8.751   2.142   3.250  0.5669 -0.5304  0.4941
   92MOL0     N12029   8.727   2.285   3.215  1.3996 -0.1626  0.2697
   92MOL0     C12030   8.622   2.363   3.259  0.1995 -0.4870  0.4756
   92MOL0     C12031   8.629   2.487   3.195 -0.2379 -1.3873  0.0464
   92MOL0     C12032   8.549   2.617   3.206 -0.1253  0.3748  0.0629
   92MOL0     C12033   8.497   2.627   3.352 -0.3112 -0.4102  0.0211
   92MOL0     C12034   8.435   2.759   3.374 -0.8471 -0.1280 -0.4800
   92MOL0     C12035   8.535   2.874   3.382 -0.6921 -0.0403  0.1434
   92MOL0     O12036   8.645   2.846   3.472  0.7249  1.2691  0.1271
   92MOL0     C12037   8.699   2.960   3.527  1.2459  1.0091  0.2235
   92MOL0     C12038   8.690   2.994   3.663 -0.6427  1.3004  0.6409
   92MOL0     C12039   8.768   3.104   3.716  0.0496  1.1539  0.2675
   92MOL0     C12040   8.858   3.167   3.633  1.3653 -0.5439  0.3620
   92MOL0     C12041   8.954   3.266   3.688  0.0637 -0.1623  0.7500
   92MOL0     O12042   8.934   3.307   3.821 -0.2401  0.4352  0.1212
   92MOL0     C12043   9.046   3.370   3.871  0.1415  0.2201 -0.1646
   92MOL0     C12044   9.027   3.503   3.916  0.8450  0.5725  0.8470
   92MOL0     C12045   9.131   3.576   3.964 -0.6443 -0.7031 -0.6799
   92MOL0     C12046   9.264   3.526   3.956 -0.4880 -0.5337 -0.3406
   92MOL0     O12047   9.362   3.615   3.999  0.5234  0.5482  0.5320
   92MOL0     C12048   9.500   3.573   4.010 -0.3988 -0.8931 -0.6606
   92MOL0     C12049   9.594   3.687   4.011  0.6966 -0.3516 -0.0364
   92MOL0     C12050   9.618   3.739   4.154  0.0124  0.6062  0.2760
   92MOL0     C12051   9.722   3.846   4.151 -0.3358  0.8941 -0.1670
   92MOL0     C12052   9.800   3.872   4.290 -0.3430  0.1116  0.0114
   92MOL0     C12053   9.721   3.919   4.405  0.2647 -0.6981 -0.0055
   92MOL0     C12054   9.790   3.960   4.534 -0.2602 -0.6080 -0.3486
   92MOL0     C12055   9.872   3.841   4.589 -0.0892 -1.3391  0.0144
   92MOL0    Cl12056   9.745   3.716   4.648  0.0601 -0.0864 -0.2470
   92MOL0     C12057   9.279   3.394   3.913 -0.8346 -0.1220 -0.0648
   92MOL0     C12058   9.173   3.320   3.872  0.1125 -0.1213 -0.4293
   92MOL0     O12059   9.049   3.298   3.617  1.6068 -0.6646 -0.2550
   92MOL0     C12060   8.864   3.132   3.497  0.6557 -0.8126 -0.0346
   92MOL0     C12061   8.783   3.031   3.446 -0.0262  0.5274 -0.0499
   92MOL0     N12062   8.741   2.472   3.110 -0.0281 -0.0701  0.2291
   92MOL0     N12063   8.801   2.359   3.136  0.2595 -0.0610 -0.0654
   92MOL0     C12064   8.648   1.854   4.114  0.0348 -0.1895  0.4645
   92MOL0     C12065   8.739   1.949   4.162 -0.0003  0.6945 -0.0887
   92MOL0     C12066   9.123   2.113   4.383 -0.2738  0.0203 -0.2302
   92MOL0     C12067   9.243   2.084   4.460  1.0529  0.9668  0.5157
   92MOL0     C12068   9.319   2.187   4.516 -0.4215 -0.2431  0.2030
   92MOL0     C12069   9.276   2.321   4.511  0.0271 -0.0771 -0.0065
   92MOL0     O12070   9.366   2.407   4.580 -0.1600 -0.2342 -0.1964
   92MOL0     C12071   9.297   2.505   4.661  0.1507 -0.5327  0.8653
   92MOL0     C12072   9.192   2.451   4.752 -0.9360 -1.0692 -1.0065
   92MOL0     C12073   9.265   2.363   4.870 -0.0977 -0.5362  0.2610
   92MOL0     C12074   9.159   2.292   4.963  0.1230 -0.2564  0.1611
   92MOL0     C12075   9.108   2.167   4.905 -0.5411  0.7500 -0.1550
   92MOL0     C12076   9.063   2.060   4.867  0.1303  0.2714  0.0947
   92MOL0     C12077   9.164   2.354   4.427 -0.2504  0.6211  0.6076
   92MOL0     C12078   9.080   2.250   4.371 -0.8618  0.9025  0.7405
   92MOL0     H12079   9.027   1.766   4.129 -1.2856 -1.2539  0.2835
   92MOL0     H12080   8.876   1.611   4.055  2.2916  0.6004  1.2764
   92MOL0     H12081   8.562   1.519   3.842 -0.3613 -1.6524  1.7656
   92MOL0     H12082   8.703   1.475   3.924  0.9718  0.7362  0.1265
   92MOL0     H12083   8.723   1.562   3.720  1.5754 -4.2930  3.1410
   92MOL0     H12084   8.817   1.666   3.828 -0.8261 -2.2742  2.4397
   92MOL0     H12085   8.650   1.853   3.796 -0.8720  1.6338 -1.7311
   92MOL0     H12086   8.532   1.743   3.731  0.8392 -2.0819 -0.9257
   92MOL0     H12087   8.797   1.773   3.598 -0.0135  0.8436  1.6064
   92MOL0     H12088   8.650   1.717   3.523 -0.2649  0.8924  0.6751
   92MOL0     H12089   8.685   1.986   3.623  2.3054 -0.9509  0.8761
   92MOL0     H12090   8.529   1.920   3.542  0.6956  1.7894  1.5194
   92MOL0     H12091   8.637   1.919   3.327 -0.8130  3.1083 -0.6114
   92MOL0     H12092   8.801   1.934   3.405  1.6804  4.2654 -3.6197
   92MOL0     H12093   8.591   2.141   3.399  0.0012 -1.9900  1.5533
   92MOL0     H12094   8.751   2.162   3.473  1.8016  0.8919 -0.7101
   92MOL0     H12095   8.709   2.078   3.172 -0.1394 -1.8721  1.9186
   92MOL0     H12096   8.859   2.132   3.247  0.9307  2.2389 -2.3379
   92MOL0     H12097   8.538   2.335   3.322 -2.6675 -0.2860 -2.8926
   92MOL0     H12098   8.464   2.616   3.136 -2.0931 -0.3970  2.3306
   92MOL0     H12099   8.615   2.699   3.179  2.0333 -0.1451  3.2461
   92MOL0     H12100   8.573   2.609   3.429 -2.4670  1.3186  2.7614
   92MOL0     H12101   8.428   2.545   3.374  2.3032 -2.9752 -0.7379
   92MOL0     H12102   8.366   2.783   3.293  1.1600 -0.5837 -2.4288
   92MOL0     H12103   8.377   2.758   3.467  1.0056 -0.6998  0.7244
   92MOL0     H12104   8.473   2.958   3.413 -3.9256 -1.0688 -2.8426
   92MOL0     H12105   8.569   2.898   3.281 -1.0222 -0.8803 -0.1751
   92MOL0     H12106   8.634   2.929   3.729  1.8354 -1.3813  0.3012
   92MOL0     H12107   8.753   3.128   3.821  0.8631 -1.0324  0.9420
   92MOL0     H12108   8.928   3.543   3.932  0.2688  0.8556 -2.7067
   92MOL0     H12109   9.105   3.671   4.009 -0.2077 -0.8633 -0.0857
   92MOL0     H12110   9.520   3.510   3.923 -2.5781 -3.5467  0.6249
   92MOL0     H12111   9.507   3.507   4.096 -2.3114 -2.7045 -1.7849
   92MOL0     H12112   9.565   3.771   3.947 -2.0205 -0.2750  1.1515
   92MOL0     H12113   9.683   3.642   3.966  0.7797 -0.5459  0.3138
   92MOL0     H12114   9.642   3.655   4.220 -0.6635 -0.9852 -1.4177
   92MOL0     H12115   9.526   3.789   4.185 -0.7059  1.3013 -2.7003
   92MOL0     H12116   9.792   3.827   4.069 -1.0395  0.6457 -0.7271
   92MOL0     H12117   9.686   3.948   4.135 -1.9732  0.6258  1.5100
   92MOL0     H12118   9.871   3.949   4.258  0.4907 -0.9364 -0.7534
   92MOL0     H12119   9.857   3.784   4.321  0.7139  0.3467 -1.1728
   92MOL0     H12120   9.641   3.848   4.427  0.6965 -0.9529  0.7928
   92MOL0     H12121   9.674   4.012   4.370 -1.0171 -2.3019 -2.9299
   92MOL0     H12122   9.833   4.061   4.535 -5.0664  1.7382  2.2048
   92MOL0     H12123   9.702   3.969   4.599  0.9710  2.2157  1.0985
   92MOL0     H12124   9.927   3.862   4.682  1.3308 -0.0903 -1.0364
   92MOL0     H12125   9.950   3.806   4.521  2.9807  0.2278  2.4593
   92MOL0     H12126   9.372   3.338   3.911 -0.4867  0.4749 -2.0990
   92MOL0     H12127   9.192   3.218   3.840  0.7515 -0.6905  1.6300
   92MOL0     H12128   8.928   3.193   3.433  3.6833  0.2395  3.5988
   92MOL0     H12129   8.813   3.000   3.346 -0.6219 -1.8726  0.4523
   92MOL0     H12130   8.540   1.863   4.108 -0.2418 -2.1854  1.4350
   92MOL0     H12131   8.695   2.038   4.206  0.4542  0.0476  1.7497
   92MOL0     H12132   9.271   1.979   4.464 -0.0035  0.4607 -2.7059
   92MOL0     H12133   9.400   2.169   4.587 -0.2485 -2.4470 -0.4726
   92MOL0     H12134   9.242   2.564   4.588  2.4417 -0.4283 -0.9163
   92MOL0     H12135   9.376   2.569   4.701  2.2638  0.7399 -4.5222
   92MOL0     H12136   9.152   2.543   4.797  0.4350 -0.6309 -0.6342
   92MOL0     H12137   9.109   2.407   4.696 -1.1730  0.8045 -2.2388
   92MOL0     H12138   9.321   2.429   4.937 -1.3059  1.6603 -0.8026
   92MOL0     H12139   9.349   2.303   4.833 -0.0133  0.2999 -0.9539
   92MOL0     H12140   9.203   2.268   5.060 -1.7744 -1.4606  0.7714
   92MOL0     H12141   9.072   2.353   4.985  1.7907  1.8838  1.1676
   92MOL0     H12142   9.025   1.968   4.828  1.0126  0.6482 -1.7934
   92MOL0     H12143   9.135   2.456   4.408  0.1895  0.4791 -0.9851
   92MOL0     H12144   8.991   2.283   4.319 -3.9868 -2.6820  3.2616
   93MOL0     O12145   8.951   7.826   8.900  0.2555  0.6490 -0.5276
   93MOL0     C12146   8.881   7.720   8.901  0.4322 -1.0192  0.3654
   93MOL0     O12147   8.837   7.658   8.789 -0.9813 -0.9217 -0.3037
   93MOL0     C12148   8.866   7.726   8.674  0.7464  0.0514 -0.0576
   93MOL0     C12149   8.762   7.806   8.626  0.0567  0.5051 -0.1277
   93MOL0     C12150   8.770   7.868   8.498  0.1019  0.3650 -1.5653
   93MOL0     C12151   8.891   7.854   8.424 -0.0271  0.4841  0.1952
   93MOL0     O12152   8.895   7.909   8.293  0.3466  0.0347 -0.3779
   93MOL0     C12153   9.016   7.955   8.249 -0.3740  0.2117  0.4779
   93MOL0     C12154   9.058   7.870   8.120  0.2102 -0.7712 -0.0355
   93MOL0     C12155   9.084   7.717   8.130  0.3427  1.1271 -0.1943
   93MOL0     C12156   9.221   7.679   8.159 -0.5839  0.7929 -0.7683
   93MOL0     C12157   9.240   7.530   8.181 -0.4945  0.4490 -0.4350
   93MOL0     C12158   9.382   7.496   8.186  1.1397  0.2014  0.6411
   93MOL0     C12159   9.413   7.346   8.183  0.0501  0.5083 -0.4318
   93MOL0     C12160   9.380   7.272   8.058  0.2116 -0.0519  0.0990
   93MOL0     N12161   9.432   7.129   8.070  0.6805  0.1486 -0.3245
   93MOL0     C12162   9.536   7.088   8.149 -0.5798  0.3114  1.0632
   93MOL0     C12163   9.537   6.950   8.135  0.7750 -0.2866  0.1844
   93MOL0     C12164   9.619   6.844   8.205  0.2308  0.9793  0.2393
   93MOL0     C12165   9.776   6.857   8.219 -0.4309  0.1292  1.1828
   93MOL0     C12166   9.830   6.772   8.338  0.6034 -0.6825  0.3218
   93MOL0     C12167   9.982   6.811   8.368  1.0256  0.4803  0.8966
   93MOL0     O12168  10.073   6.721   8.309 -0.6934 -0.0098  0.0123
   93MOL0     C12169  10.212   6.739   8.317  0.9505  0.5822 -0.0631
   93MOL0     C12170  10.290   6.618   8.307  0.6305 -0.7475  0.4876
   93MOL0     C12171  10.430   6.628   8.319  0.3813  0.3481  0.4812
   93MOL0     C12172  10.491   6.745   8.327 -0.1075  0.3784  0.5735
   93MOL0     C12173  10.641   6.745   8.339 -0.5730  0.7447 -0.2985
   93MOL0     O12174  10.706   6.624   8.299  0.3524 -0.6780  0.3721
   93MOL0     C12175  10.843   6.635   8.298  0.2887  0.3106  0.3400
   93MOL0     C12176  10.915   6.638   8.176 -0.5606  0.2199  0.5543
   93MOL0     C12177  11.057   6.624   8.178  0.6016 -0.0833  0.0357
   93MOL0     C12178  11.118   6.610   8.302  1.3507  0.9571 -0.6501
   93MOL0     O12179  11.258   6.601   8.317  0.4470 -0.3296  0.5920
   93MOL0     C12180  11.327   6.728   8.302  0.1742  0.8876  0.0542
   93MOL0     C12181  11.321   6.826   8.406  0.6534  0.1242 -0.7168
   93MOL0     C12182  11.367   6.773   8.540  0.6654  0.0368  0.3316
   93MOL0     C12183  11.502   6.687   8.535 -1.2415  0.3862  1.0301
   93MOL0     C12184  11.536   6.663   8.680 -0.0266  0.6486  0.0383
   93MOL0     C12185  11.645   6.562   8.722 -0.5216 -0.1910  0.4531
   93MOL0     C12186  11.659   6.579   8.880  0.2857  1.2509  0.4905
   93MOL0     C12187  11.769   6.487   8.938 -0.1547 -0.2931 -0.2171
   93MOL0    Cl12188  11.918   6.579   8.928 -0.3515  0.2908  0.0685
   93MOL0     C12189  11.049   6.621   8.422 -0.0933  0.6831  0.0186
   93MOL0     C12190  10.911   6.635   8.418  0.4093 -0.2746 -1.2668
   93MOL0     O12191  10.696   6.849   8.368  0.2504 -0.3073 -0.3776
   93MOL0     C12192  10.421   6.858   8.351 -0.6860  0.4419 -0.2735
   93MOL0     C12193  10.281   6.858   8.350  0.6279  0.6281 -0.2139
   93MOL0     N12194   9.443   6.926   8.034 -0.1586 -0.2473 -0.3312
   93MOL0     N12195   9.374   7.024   7.999 -0.1131  0.7647 -0.1681
   93MOL0     C12196   9.001   7.794   8.488 -0.0002  0.2571  0.1864
   93MOL0     C12197   8.981   7.734   8.608 -1.0864  0.1163  0.9379
   93MOL0     C12198   8.870   7.646   9.030 -1.1255 -0.3457  0.0354
   93MOL0     C12199   8.914   7.709   9.150  0.4603 -0.7412  0.0487
   93MOL0     C12200   8.906   7.640   9.277 -0.3890  0.4705 -0.0195
   93MOL0     C12201   8.877   7.506   9.288 -0.0469 -0.4428  0.2226
   93MOL0     O12202   8.870   7.437   9.408  0.7383 -0.7604 -0.2995
   93MOL0     C12203   8.746   7.480   9.486 -0.4934  0.8686  0.1807
   93MOL0     C12204   8.625   7.403   9.424 -0.3236 -0.2948 -0.0456
   93MOL0     C12205   8.635   7.259   9.423  0.3475  0.6062 -0.2051
   93MOL0     C12206   8.533   7.199   9.333 -0.4170  0.1111  0.5414
   93MOL0     C12207   8.560   7.211   9.182 -0.8038  0.0659  0.2088
   93MOL0     C12208   8.576   7.217   9.063 -0.9385  0.3406  0.6488
   93MOL0     C12209   8.839   7.448   9.171 -0.2353  0.6466  0.0998
   93MOL0     C12210   8.819   7.513   9.048 -0.6565 -1.8447  0.6976
   93MOL0     H12211   8.666   7.823   8.674 -0.6141  0.1206 -1.2862
   93MOL0     H12212   8.689   7.926   8.454  0.3611  0.3504 -2.0680
   93MOL0     H12213   9.099   7.967   8.319  2.6077 -2.6172 -2.2241
   93MOL0     H12214   8.983   8.053   8.215 -1.7656 -0.2034  0.5543
   93MOL0     H12215   9.141   7.918   8.068 -2.3846  1.6378 -2.2949
   93MOL0     H12216   8.976   7.885   8.050  0.3974  0.7639  0.0428
   93MOL0     H12217   9.067   7.666   8.034  1.0313  0.6367 -0.0625
   93MOL0     H12218   9.007   7.684   8.201 -1.2768  3.0042 -0.9645
   93MOL0     H12219   9.282   7.715   8.076 -0.5948  0.1947 -1.0349
   93MOL0     H12220   9.245   7.729   8.254 -2.8564  0.3165  0.1375
   93MOL0     H12221   9.199   7.483   8.091 -1.0676  1.5887 -0.7843
   93MOL0     H12222   9.179   7.490   8.262 -0.3050  1.5160  0.2558
   93MOL0     H12223   9.428   7.542   8.274  1.8298 -1.2188  1.0504
   93MOL0     H12224   9.429   7.544   8.100  1.3704 -2.9339 -1.1453
   93MOL0     H12225   9.518   7.336   8.211 -0.8462 -2.3987  2.4985
   93MOL0     H12226   9.363   7.302   8.270  0.3521  3.2211  1.2368
   93MOL0     H12227   9.412   7.320   7.965  2.9068  1.0625  1.4958
   93MOL0     H12228   9.275   7.244   8.049  0.3691 -0.2296 -1.6722
   93MOL0     H12229   9.612   7.138   8.209 -1.8021 -0.2584  3.1744
   93MOL0     H12230   9.588   6.748   8.161  0.1681  1.0476  0.1330
   93MOL0     H12231   9.584   6.847   8.309 -4.1363  1.3284 -1.0479
   93MOL0     H12232   9.799   6.961   8.241 -4.6617  0.9676  2.6374
   93MOL0     H12233   9.822   6.825   8.125 -2.3312 -0.4985  0.4197
   93MOL0     H12234   9.770   6.796   8.426  0.6115 -3.4436  1.1730
   93MOL0     H12235   9.811   6.666   8.320  0.4974 -0.2215 -2.8481
   93MOL0     H12236   9.988   6.793   8.475 -1.1834 -4.0244  0.5048
   93MOL0     H12237  10.003   6.913   8.335  1.1599  0.0078 -0.5747
   93MOL0     H12238  10.231   6.531   8.281  0.2275  0.4056 -2.8979
   93MOL0     H12239  10.477   6.532   8.301 -1.5376 -0.8957  1.6777
   93MOL0     H12240  10.854   6.628   8.087  0.0133 -1.6558  0.3296
   93MOL0     H12241  11.114   6.613   8.086  0.1930  1.4286 -0.4269
   93MOL0     H12242  11.284   6.773   8.211 -1.3110 -1.3517 -0.4376
   93MOL0     H12243  11.429   6.706   8.269 -0.7189  0.7506 -3.0060
   93MOL0     H12244  11.219   6.865   8.411  0.4144 -0.6959  1.6029
   93MOL0     H12245  11.382   6.910   8.370 -0.4054  2.3650  2.3022
   93MOL0     H12246  11.293   6.699   8.572 -1.1379  0.8820 -1.6273
   93MOL0     H12247  11.374   6.857   8.611 -0.9033  0.5570 -0.0766
   93MOL0     H12248  11.480   6.597   8.477 -0.9606  1.5254 -0.9385
   93MOL0     H12249  11.587   6.747   8.500 -0.2099 -1.0944  0.8724
   93MOL0     H12250  11.444   6.626   8.725 -1.3315  0.4767 -2.5402
   93MOL0     H12251  11.556   6.761   8.724  4.9746  0.2584 -0.7900
   93MOL0     H12252  11.746   6.585   8.688 -0.5018  0.8998  1.2055
   93MOL0     H12253  11.627   6.456   8.698 -0.6526 -0.4800  1.7585
   93MOL0     H12254  11.676   6.686   8.895  2.8123  1.5205 -2.9507
   93MOL0     H12255  11.564   6.541   8.917  1.1824 -1.1676  0.5050
   93MOL0     H12256  11.770   6.390   8.887  0.1402 -1.5621  2.0714
   93MOL0     H12257  11.757   6.460   9.043  0.4771 -1.1202 -0.3526
   93MOL0     H12258  11.116   6.629   8.506 -1.9994 -2.5825  2.0568
   93MOL0     H12259  10.860   6.638   8.514 -0.6318 -3.8373 -1.5354
   93MOL0     H12260  10.474   6.952   8.364  1.0591 -0.6160  0.7866
   93MOL0     H12261  10.235   6.954   8.372  2.0866  0.7270  3.0560
   93MOL0     H12262   9.095   7.789   8.435 -1.0678 -0.9477 -1.7092
   93MOL0     H12263   9.057   7.683   8.666 -0.1839  0.7389  0.3151
   93MOL0     H12264   8.949   7.810   9.169 -0.1823  0.0262 -2.4945
   93MOL0     H12265   8.941   7.682   9.370  3.4904 -1.0944 -0.5638
   93MOL0     H12266   8.727   7.588   9.485  0.4176  1.0427  0.7406
   93MOL0     H12267   8.760   7.457   9.592  2.2016 -0.8077 -0.4701
   93MOL0     H12268   8.537   7.443   9.475  0.2626  2.1558 -0.7935
   93MOL0     H12269   8.610   7.428   9.318  3.1306 -4.4813 -1.8316
   93MOL0     H12270   8.606   7.229   9.525 -3.5037  0.9343 -1.0262
   93MOL0     H12271   8.736   7.227   9.398  0.0756  0.2132 -0.8135
   93MOL0     H12272   8.520   7.093   9.358 -0.7856 -0.9415 -3.4881
   93MOL0     H12273   8.438   7.252   9.338 -0.1295  0.5537  1.4966
   93MOL0     H12274   8.597   7.231   8.959 -1.7297  5.5517  0.9266
   93MOL0     H12275   8.811   7.343   9.175  0.5680  0.4128 -0.1162
   93MOL0     H12276   8.781   7.456   8.964 -0.4661  0.7309 -1.2634
   94MOL0     O12277   1.662   2.164   7.723  0.5805 -1.0932  0.7872
   94MOL0     C12278   1.741   2.132   7.810 -0.5754 -1.1457  0.8710
   94MOL0     O12279   1.769   1.999   7.841  0.6568 -0.9302 -0.0717
   94MOL0     C12280   1.735   1.899   7.750 -0.2533 -1.4236  0.2419
   94MOL0     C12281   1.749   1.906   7.599  0.5627 -0.2899  0.1044
   94MOL0     C12282   1.706   1.798   7.524  0.2064  0.2926 -0.0543
   94MOL0     C12283   1.666   1.677   7.585 -0.1460 -0.5288 -0.2504
   94MOL0     O12284   1.635   1.551   7.532  1.1171  0.2312  0.6277
   94MOL0     C12285   1.594   1.554   7.396 -0.4631  0.2678  1.1223
   94MOL0     C12286   1.515   1.429   7.360 -0.2604 -0.1929  0.0773
   94MOL0     C12287   1.465   1.427   7.218  0.6264 -0.1075 -0.5735
   94MOL0     C12288   1.412   1.287   7.185  0.2419 -1.4215  0.8416
   94MOL0     C12289   1.347   1.315   7.049  0.2080  0.0212 -0.2392
   94MOL0     C12290   1.265   1.198   7.001 -0.5926  0.2713  0.0567
   94MOL0     C12291   1.221   1.243   6.860  0.4248  0.8251 -0.5297
   94MOL0     C12292   1.326   1.236   6.744  0.3669  0.9764 -0.0874
   94MOL0     N12293   1.256   1.187   6.625  0.2916  0.2805  0.5792
   94MOL0     C12294   1.148   1.261   6.583 -0.6092 -0.1241 -0.3365
   94MOL0     C12295   1.132   1.224   6.460  0.1163 -0.1371  1.3067
   94MOL0     C12296   1.020   1.270   6.371 -0.2552  0.2541 -0.6933
   94MOL0     C12297   0.878   1.229   6.412 -0.6958 -0.8872  0.3072
   94MOL0     C12298   0.848   1.080   6.378 -0.0576 -0.6390 -0.0097
   94MOL0     C12299   0.853   1.055   6.227  0.0741  0.2818 -0.1484
   94MOL0     O12300   0.715   1.079   6.176 -0.5326 -0.1938  0.3251
   94MOL0     C12301   0.695   1.087   6.046 -0.5395  0.2720  0.4064
   94MOL0     C12302   0.790   1.033   5.952 -0.5724 -0.3428 -0.5899
   94MOL0     C12303   0.749   1.048   5.815 -0.0676  0.6560 -0.5466
   94MOL0     C12304   0.636   1.126   5.772  0.7460  0.4910 -0.7106
   94MOL0     C12305   0.616   1.157   5.628  0.3218  0.0794  0.1370
   94MOL0     O12306   0.499   1.201   5.603  0.0222 -0.0045 -0.3076
   94MOL0     C12307   0.463   1.255   5.482 -0.8327 -0.8789  0.0741
   94MOL0     C12308   0.325   1.293   5.475  0.8137 -1.1145 -0.1657
   94MOL0     C12309   0.272   1.362   5.359  0.1309  0.6782 -0.6554
   94MOL0     C12310   0.356   1.395   5.253  1.0604  0.3472  0.0499
   94MOL0     O12311   0.274   1.458   5.153 -0.7328  0.2379 -0.0527
   94MOL0     C12312   0.346   1.539   5.061 -0.6531 -0.0385 -0.2874
   94MOL0     C12313   0.249   1.614   4.975  0.2413  0.8422 -0.0649
   94MOL0     C12314   0.322   1.704   4.873  0.5531  0.7267 -0.5451
   94MOL0     C12315   0.222   1.779   4.788  1.1454 -0.3506  0.0617
   94MOL0     C12316   0.285   1.884   4.701 -0.3243 -0.0987 -0.6533
   94MOL0     C12317   0.173   1.946   4.607  1.8433  0.1173  0.8279
   94MOL0     C12318   0.223   2.035   4.494 -0.8495 -0.6040 -0.3819
   94MOL0     C12319   0.113   2.119   4.424 -0.2447 -0.4400  0.2839
   94MOL0    Cl12320   0.174   2.183   4.271 -0.4150 -0.0511 -0.3084
   94MOL0     C12321   0.488   1.363   5.257 -0.7185 -0.6440  0.8779
   94MOL0     C12322   0.538   1.290   5.367  0.1295 -1.1722 -0.2298
   94MOL0     O12323   0.708   1.148   5.554 -0.3588 -0.6177  0.0130
   94MOL0     C12324   0.547   1.170   5.864  0.0238  0.0463  0.1434
   94MOL0     C12325   0.583   1.159   5.997  0.0829  0.1873 -0.3599
   94MOL0     N12326   1.209   1.109   6.433 -0.2297  0.0772  0.2157
   94MOL0     N12327   1.282   1.083   6.541  0.8571  0.3341 -0.7763
   94MOL0     C12328   1.656   1.675   7.727  0.2374  0.3058  0.6157
   94MOL0     C12329   1.691   1.780   7.802 -0.6573 -0.8787 -0.5253
   94MOL0     C12330   1.799   2.222   7.908  0.5886 -0.0177  0.4599
   94MOL0     C12331   1.737   2.342   7.921  0.0182 -0.9341  0.3815
   94MOL0     C12332   1.770   2.442   8.027 -0.3594  0.2509  0.1654
   94MOL0     C12333   1.868   2.405   8.121 -0.4951 -0.3746 -0.3241
   94MOL0     O12334   1.898   2.490   8.227 -0.8424 -0.4197 -0.5545
   94MOL0     C12335   1.851   2.622   8.227 -0.9624  0.3967 -0.3360
   94MOL0     C12336   1.929   2.692   8.341  0.3945  0.4970  0.8946
   94MOL0     C12337   1.890   2.837   8.360  0.0931 -0.1858 -0.0905
   94MOL0     C12338   1.959   2.896   8.486  0.8066 -0.3757 -0.2351
   94MOL0     C12339   1.930   3.041   8.478 -0.4004 -0.3256 -0.0771
   94MOL0     C12340   1.926   3.163   8.495 -0.3676 -0.5744 -0.8504
   94MOL0     C12341   1.927   2.277   8.113  1.2841 -0.2555 -0.3626
   94MOL0     C12342   1.901   2.192   8.005  0.1279  1.5504  0.2152
   94MOL0     H12343   1.793   1.995   7.554  1.5235 -0.1504  1.2498
   94MOL0     H12344   1.697   1.810   7.417  3.2705 -2.5632 -0.8294
   94MOL0     H12345   1.681   1.581   7.336 -1.2213  0.4339  0.0666
   94MOL0     H12346   1.525   1.637   7.378  0.1746  0.8491  1.3021
   94MOL0     H12347   1.435   1.409   7.431 -0.7741  0.2254 -0.3792
   94MOL0     H12348   1.587   1.347   7.376 -0.4114  0.1508  2.9199
   94MOL0     H12349   1.550   1.447   7.152  0.3131  1.0041 -0.6605
   94MOL0     H12350   1.389   1.502   7.196  0.6382 -0.1483 -0.7569
   94MOL0     H12351   1.486   1.208   7.171  1.2615 -0.4824  0.8113
   94MOL0     H12352   1.331   1.254   7.251  0.7476 -0.2943  2.0613
   94MOL0     H12353   1.424   1.327   6.971  0.8273  4.6077  0.8097
   94MOL0     H12354   1.287   1.406   7.046 -0.0243  0.0843  3.1182
   94MOL0     H12355   1.169   1.183   7.052 -0.4600 -3.2562 -0.4313
   94MOL0     H12356   1.313   1.100   6.990  0.1988  0.9317 -5.6008
   94MOL0     H12357   1.132   1.183   6.840 -1.5083  3.6589 -1.1149
   94MOL0     H12358   1.178   1.344   6.854 -1.6202  0.0229 -0.4307
   94MOL0     H12359   1.410   1.172   6.776  0.5644  0.2851 -1.8558
   94MOL0     H12360   1.377   1.332   6.734  0.9376  0.8160  1.1048
   94MOL0     H12361   1.102   1.342   6.639  0.4279 -1.0805  2.0024
   94MOL0     H12362   1.050   1.246   6.268  0.3996  2.1606 -0.9943
   94MOL0     H12363   1.015   1.380   6.367 -1.8005  0.3662  1.9892
   94MOL0     H12364   0.806   1.294   6.362 -0.5560 -1.7842 -1.1322
   94MOL0     H12365   0.882   1.228   6.521  1.0059 -1.7133  0.2836
   94MOL0     H12366   0.915   1.009   6.427 -0.3607 -0.6982  0.3246
   94MOL0     H12367   0.748   1.045   6.406  0.4962 -0.7583  1.9297
   94MOL0     H12368   0.867   0.946   6.226 -1.8958 -0.0283  1.0794
   94MOL0     H12369   0.928   1.105   6.165  0.4940 -1.0710 -0.7817
   94MOL0     H12370   0.868   0.977   6.002 -0.1986  3.3913  3.6455
   94MOL0     H12371   0.817   1.005   5.743  2.0188  1.8690  0.6193
   94MOL0     H12372   0.264   1.283   5.565 -2.1971  4.0240 -1.2223
   94MOL0     H12373   0.167   1.387   5.358 -0.2222 -0.0313  3.2878
   94MOL0     H12374   0.409   1.480   4.993  0.1694  3.6300 -3.0234
   94MOL0     H12375   0.413   1.615   5.101 -0.7894 -0.3216  0.4912
   94MOL0     H12376   0.188   1.677   5.039 -1.5412 -1.7551  0.9245
   94MOL0     H12377   0.196   1.535   4.922  0.4706  0.8058 -0.2419
   94MOL0     H12378   0.381   1.638   4.810 -1.4360 -2.3626  0.5962
   94MOL0     H12379   0.388   1.765   4.935  1.0415 -1.1545  0.8861
   94MOL0     H12380   0.173   1.703   4.727  1.7662 -1.1607  0.5473
   94MOL0     H12381   0.140   1.818   4.850  2.0915  0.0173  1.1225
   94MOL0     H12382   0.362   1.857   4.628 -0.1593  2.4581 -1.5320
   94MOL0     H12383   0.338   1.951   4.769  1.1642 -1.2778 -0.6107
   94MOL0     H12384   0.104   2.011   4.662  2.0165  2.8619 -1.9287
   94MOL0     H12385   0.119   1.860   4.567  1.8541  0.8162 -0.7534
   94MOL0     H12386   0.301   2.101   4.532 -3.5924  1.8959  1.3814
   94MOL0     H12387   0.276   1.974   4.421 -0.0860 -0.9889  0.4724
   94MOL0     H12388   0.089   2.194   4.501  5.8276 -0.5799  2.8557
   94MOL0     H12389   0.028   2.053   4.402 -0.5069 -0.3029  0.8666
   94MOL0     H12390   0.575   1.386   5.197  2.8106 -1.2151  5.2901
   94MOL0     H12391   0.647   1.285   5.370  0.1610 -1.0700 -1.0389
   94MOL0     H12392   0.463   1.231   5.831  2.7479  2.3749 -3.2330
   94MOL0     H12393   0.516   1.197   6.073 -2.0734 -3.2731 -0.3061
   94MOL0     H12394   1.597   1.592   7.763  0.9663 -0.8148 -0.6501
   94MOL0     H12395   1.687   1.774   7.910  1.8812  0.1953 -0.2847
   94MOL0     H12396   1.655   2.368   7.854  0.7540  1.7658  0.3923
   94MOL0     H12397   1.715   2.535   8.034 -1.7051 -0.6023  1.6486
   94MOL0     H12398   1.745   2.625   8.254 -0.6820  1.4398  0.7453
   94MOL0     H12399   1.855   2.681   8.135  0.6346  0.2801 -0.3753
   94MOL0     H12400   1.920   2.649   8.441  2.2017 -1.2067  0.4137
   94MOL0     H12401   2.031   2.685   8.301 -0.0655 -1.2807 -0.0600
   94MOL0     H12402   1.782   2.845   8.378 -0.1747 -0.3018 -1.5465
   94MOL0     H12403   1.919   2.882   8.264  1.8638 -2.5197 -0.7437
   94MOL0     H12404   1.920   2.854   8.579  0.8851  1.9303  0.9203
   94MOL0     H12405   2.065   2.876   8.467  1.7208  5.0164 -2.8480
   94MOL0     H12406   1.904   3.268   8.500 -2.5268 -0.9353 -1.8968
   94MOL0     H12407   1.978   2.250   8.205 -3.2804  0.0002  2.5644
   94MOL0     H12408   1.962   2.102   8.006 -2.1671 -0.1035  1.0950
   95MOL0     O12409  10.863   3.683   6.678  0.6704 -0.4216  0.4388
   95MOL0     C12410  10.815   3.733   6.781 -0.3506 -0.4410  0.1959
   95MOL0     O12411  10.890   3.799   6.882 -0.7589 -0.3050 -0.1694
   95MOL0     C12412  11.033   3.813   6.879  0.0169  0.6746  0.8832
   95MOL0     C12413  11.121   3.725   6.818  0.6802 -0.4447  0.4085
   95MOL0     C12414  11.261   3.748   6.836 -0.1270  0.4894  0.0904
   95MOL0     C12415  11.307   3.859   6.905  0.5316 -0.1044 -0.6971
   95MOL0     O12416  11.435   3.905   6.905  0.3198 -0.0030 -0.1231
   95MOL0     C12417  11.545   3.843   6.822  0.1292  0.3542  0.0402
   95MOL0     C12418  11.599   3.707   6.878  0.0651  1.7098 -0.1354
   95MOL0     C12419  11.750   3.691   6.869 -0.5284  0.1540 -0.4825
   95MOL0     C12420  11.812   3.558   6.924  0.5868 -0.4181  0.8366
   95MOL0     C12421  11.972   3.544   6.903  0.1538 -0.8149  0.8667
   95MOL0     C12422  12.040   3.630   7.007 -0.1493  0.4436 -0.3059
   95MOL0     C12423  12.192   3.666   6.950  0.3924  0.7914 -0.2930
   95MOL0     C12424  12.290   3.596   7.040  0.2204 -0.0189 -0.3497
   95MOL0     N12425  12.431   3.648   7.017  0.1964  0.6427 -0.6386
   95MOL0     C12426  12.473   3.770   7.048  0.5850 -0.4509 -0.5374
   95MOL0     C12427  12.602   3.779   7.016  0.0880 -0.9446 -0.0796
   95MOL0     C12428  12.681   3.903   7.035  0.7755  0.1995 -0.2288
   95MOL0     C12429  12.639   4.029   6.953 -0.8574  0.7364 -0.1716
   95MOL0     C12430  12.700   4.027   6.810 -0.1325  0.4704 -0.0546
   95MOL0     C12431  12.624   3.947   6.701 -0.1467 -0.0882 -0.0219
   95MOL0     O12432  12.486   3.968   6.712  0.1667 -0.0596  0.5358
   95MOL0     C12433  12.399   3.961   6.606  0.8015 -1.4816  0.0633
   95MOL0     C12434  12.434   3.896   6.493 -0.1791  0.6545  0.0457
   95MOL0     C12435  12.353   3.888   6.376 -0.0662 -0.1840  0.1311
   95MOL0     C12436  12.223   3.948   6.373 -0.6448 -0.7426  1.0896
   95MOL0     C12437  12.147   3.953   6.243 -1.2016 -0.9195 -0.1596
   95MOL0     O12438  12.232   3.952   6.128 -0.6055 -0.3723 -0.2212
   95MOL0     C12439  12.166   3.956   6.012 -0.0068 -0.4441  0.1686
   95MOL0     C12440  12.115   4.071   5.948 -0.3972  0.0231  0.2739
   95MOL0     C12441  12.024   4.057   5.845  0.4188  0.0582 -0.4306
   95MOL0     C12442  11.993   3.936   5.799  0.5278 -0.3584  1.0992
   95MOL0     O12443  11.903   3.927   5.688 -0.0987 -0.1451 -0.3622
   95MOL0     C12444  11.931   3.830   5.594 -0.9617 -0.5122  0.7181
   95MOL0     C12445  11.953   3.886   5.459  0.4862 -0.3136  0.3675
   95MOL0     C12446  11.954   4.042   5.430 -0.7376 -0.0724  0.0220
   95MOL0     C12447  11.942   4.070   5.275 -0.7367 -0.2888  0.4291
   95MOL0     C12448  11.954   4.214   5.239  0.4559  0.3310  0.4315
   95MOL0     C12449  11.896   4.267   5.104  0.1973  0.8251  0.7975
   95MOL0     C12450  11.882   4.413   5.108  0.7768  0.0874  0.4124
   95MOL0     C12451  11.777   4.459   5.200 -0.6114 -0.4398 -0.0876
   95MOL0    Cl12452  11.722   4.627   5.171  0.2728 -0.7654  0.1582
   95MOL0     C12453  12.048   3.819   5.863 -0.1641  0.2605  0.2542
   95MOL0     C12454  12.142   3.827   5.965  0.2618 -0.2016 -0.3774
   95MOL0     O12455  12.026   3.976   6.246 -0.0284  0.6441 -0.2075
   95MOL0     C12456  12.182   4.022   6.483 -0.4282 -0.1854 -0.0231
   95MOL0     C12457  12.266   4.024   6.602 -0.2767  0.4154  0.1268
   95MOL0     N12458  12.638   3.655   6.976 -0.4117 -0.0420 -0.0360
   95MOL0     N12459  12.532   3.582   6.961  0.0405  0.2836 -0.4369
   95MOL0     C12460  11.220   3.949   6.945  0.2541 -1.9385  0.3923
   95MOL0     C12461  11.079   3.926   6.931 -0.0905 -0.3209 -0.0627
   95MOL0     C12462  10.670   3.729   6.790 -0.1534 -1.2238 -1.3731
   95MOL0     C12463  10.607   3.816   6.886 -1.4567 -0.2962  0.1160
   95MOL0     C12464  10.466   3.819   6.898  1.2110  0.7139  1.2984
   95MOL0     C12465  10.390   3.725   6.821 -0.4933 -0.2774 -0.0648
   95MOL0     O12466  10.256   3.712   6.824 -1.0391 -0.4667 -0.2459
   95MOL0     C12467  10.194   3.721   6.954  0.5996 -0.3140  0.5478
   95MOL0     C12468  10.192   3.593   7.027 -0.1813 -0.3685 -0.0175
   95MOL0     C12469  10.155   3.609   7.172  0.5257  0.6159  0.2342
   95MOL0     C12470  10.154   3.473   7.242  0.2431  0.1010 -0.4712
   95MOL0     C12471  10.039   3.395   7.187  0.6419 -0.1873  0.1791
   95MOL0     C12472   9.958   3.324   7.124  0.0121 -0.1362  0.1281
   95MOL0     C12473  10.451   3.645   6.729 -0.5856 -0.0745  0.0907
   95MOL0     C12474  10.588   3.642   6.721 -0.6992  0.0824  0.2044
   95MOL0     H12475  11.084   3.640   6.762 -1.3144  2.7017 -3.5259
   95MOL0     H12476  11.337   3.683   6.795  0.1996  1.5062 -0.9579
   95MOL0     H12477  11.624   3.918   6.814 -0.4127  0.9270 -0.1095
   95MOL0     H12478  11.516   3.825   6.717 -1.6954 -0.0451  0.5685
   95MOL0     H12479  11.550   3.622   6.829  0.1354 -0.0991  2.7023
   95MOL0     H12480  11.574   3.692   6.983 -2.1784 -1.5502 -0.9691
   95MOL0     H12481  11.797   3.773   6.923  0.7997 -3.1146  3.9139
   95MOL0     H12482  11.779   3.709   6.765  1.4394  0.7455  0.1350
   95MOL0     H12483  11.782   3.550   7.029 -3.5212  2.0957  0.0813
   95MOL0     H12484  11.768   3.466   6.884  1.4682 -0.8597  0.8694
   95MOL0     H12485  11.995   3.577   6.801 -2.7272  0.4670  0.5303
   95MOL0     H12486  12.012   3.442   6.911 -1.5563 -1.7443 -1.3044
   95MOL0     H12487  12.048   3.563   7.093 -1.0126  0.0331 -0.5316
   95MOL0     H12488  11.980   3.718   7.030  2.3501  2.0472  0.4983
   95MOL0     H12489  12.210   3.643   6.844  0.6917  2.0447 -0.5371
   95MOL0     H12490  12.214   3.772   6.965  3.2664  0.3077 -0.6084
   95MOL0     H12491  12.299   3.489   7.020  0.3093 -0.4170  1.6272
   95MOL0     H12492  12.275   3.603   7.148  3.3957 -2.8199  0.4477
   95MOL0     H12493  12.413   3.840   7.105 -0.2488 -2.3914  1.1064
   95MOL0     H12494  12.788   3.884   7.026  0.0272 -3.9401 -3.4330
   95MOL0     H12495  12.661   3.930   7.139 -4.0645  2.6494 -1.4743
   95MOL0     H12496  12.694   4.103   7.011 -0.1260  1.0020 -1.1735
   95MOL0     H12497  12.534   4.057   6.948 -0.6676  1.2910 -1.6418
   95MOL0     H12498  12.723   4.126   6.769  0.5122  1.0909  1.7185
   95MOL0     H12499  12.799   3.979   6.812 -0.1894  0.3481  1.8567
   95MOL0     H12500  12.641   3.840   6.713  2.1086  0.4029  1.9662
   95MOL0     H12501  12.671   3.974   6.606  2.0021 -1.3803  0.6087
   95MOL0     H12502  12.533   3.852   6.484 -0.4878 -1.1032  3.5307
   95MOL0     H12503  12.407   3.856   6.287  1.4565  0.6475  0.7404
   95MOL0     H12504  12.133   4.173   5.980  0.3757 -0.0977  0.2337
   95MOL0     H12505  11.986   4.150   5.806 -1.0701 -0.1013  0.5566
   95MOL0     H12506  11.845   3.763   5.604 -3.1176  2.0506  0.2739
   95MOL0     H12507  12.017   3.763   5.609  0.5661  1.1502 -0.2154
   95MOL0     H12508  11.871   3.856   5.392  1.0219 -0.4009 -0.2533
   95MOL0     H12509  12.045   3.843   5.418  1.1225  0.9193  0.4578
   95MOL0     H12510  12.042   4.086   5.478 -2.2374 -0.2034  3.0989
   95MOL0     H12511  11.873   4.094   5.481  0.5661  1.3388  0.7310
   95MOL0     H12512  12.011   4.008   5.218 -0.4663  1.3271 -1.0850
   95MOL0     H12513  11.841   4.033   5.253 -0.5489  0.3238 -1.6701
   95MOL0     H12514  12.060   4.237   5.255  0.8917 -1.0882 -0.2694
   95MOL0     H12515  11.898   4.275   5.311 -1.1772  2.2282 -2.2437
   95MOL0     H12516  11.795   4.229   5.088 -0.4546  1.5402  2.8727
   95MOL0     H12517  11.960   4.247   5.017 -0.9211  3.0401 -0.6311
   95MOL0     H12518  11.977   4.460   5.133  0.0667  2.5903 -1.1890
   95MOL0     H12519  11.859   4.448   5.007 -1.1163 -0.1456  0.7257
   95MOL0     H12520  11.811   4.454   5.304  0.9950 -0.3183 -0.5939
   95MOL0     H12521  11.694   4.388   5.201 -0.2010 -0.9865  2.5131
   95MOL0     H12522  12.023   3.720   5.826  0.8124  0.5960 -1.4149
   95MOL0     H12523  12.198   3.737   5.991 -0.7987 -1.5523 -2.4558
   95MOL0     H12524  12.086   4.067   6.503 -1.8184 -2.9088 -0.1033
   95MOL0     H12525  12.232   4.094   6.677 -1.0560  1.3902 -1.1097
   95MOL0     H12526  11.250   4.049   6.975 -0.5851 -2.3812  2.8891
   95MOL0     H12527  11.005   3.999   6.960 -0.3733  0.6297 -2.8761
   95MOL0     H12528  10.662   3.888   6.946 -1.2673 -2.4724  2.7299
   95MOL0     H12529  10.413   3.892   6.959  1.2983  0.8630  1.1967
   95MOL0     H12530  10.092   3.756   6.934  0.9036  0.3275  0.0821
   95MOL0     H12531  10.246   3.795   7.014 -0.2330  2.0927 -1.4785
   95MOL0     H12532  10.117   3.532   6.975 -0.6526  1.2307 -1.3267
   95MOL0     H12533  10.289   3.545   7.020  0.1642 -0.1698  2.4967
   95MOL0     H12534  10.058   3.659   7.176 -0.1018 -0.5474 -0.1206
   95MOL0     H12535  10.243   3.655   7.219 -0.3623  2.6900 -0.0367
   95MOL0     H12536  10.245   3.418   7.216  0.7070  1.1974 -1.2709
   95MOL0     H12537  10.139   3.491   7.348  2.0508  1.7858 -0.4359
   95MOL0     H12538   9.898   3.275   7.051  1.4928 -2.6012  0.4791
   95MOL0     H12539  10.386   3.575   6.678  1.1615 -0.5360 -1.6269
   95MOL0     H12540  10.641   3.570   6.659 -1.1714  1.7310 -2.2734
   96MOL0     O12541   3.792   3.244   5.721 -0.1768 -0.2796  0.7132
   96MOL0     C12542   3.902   3.227   5.672  0.6769  0.2478 -0.3152
   96MOL0     O12543   3.927   3.211   5.537  0.5219  0.1731  0.2157
   96MOL0     C12544   3.835   3.221   5.436  0.9129  0.2666  0.0452
   96MOL0     C12545   3.703   3.206   5.442  1.4781 -0.0089  0.2189
   96MOL0     C12546   3.618   3.255   5.339  0.1467 -0.1398 -0.8486
   96MOL0     C12547   3.670   3.298   5.214  0.0469  0.4976  0.9308
   96MOL0     O12548   3.599   3.354   5.110  0.2943  0.4949 -0.5385
   96MOL0     C12549   3.460   3.333   5.125 -0.1381 -0.2223  0.2229
   96MOL0     C12550   3.387   3.345   4.992  0.7186 -0.4454  0.0322
   96MOL0     C12551   3.339   3.488   4.967 -0.2192  1.4071 -0.0582
   96MOL0     C12552   3.304   3.498   4.812  0.1496  0.4663 -0.0136
   96MOL0     C12553   3.169   3.559   4.787  0.7256 -0.0224 -0.4299
   96MOL0     C12554   3.166   3.711   4.840 -0.3673 -0.8147 -0.3971
   96MOL0     C12555   3.035   3.752   4.893  0.2321  0.0804 -0.4330
   96MOL0     C12556   3.005   3.899   4.917 -0.3633 -0.2271 -0.1335
   96MOL0     N12557   3.017   3.983   4.803  0.5660  0.7459  0.4699
   96MOL0     C12558   3.072   4.105   4.799  0.0816 -0.0628  0.8158
   96MOL0     C12559   3.043   4.153   4.684  0.3282 -0.1129  0.6346
   96MOL0     C12560   3.088   4.276   4.616  0.1151  0.4088 -0.6455
   96MOL0     C12561   3.188   4.252   4.513 -0.0025 -1.1371 -0.4105
   96MOL0     C12562   3.210   4.373   4.439 -0.2628  0.0087 -0.1159
   96MOL0     C12563   3.265   4.359   4.291  0.3601  0.3461  0.5165
   96MOL0     O12564   3.386   4.280   4.283  0.0377 -0.1239  0.0032
   96MOL0     C12565   3.408   4.230   4.158 -0.5982 -0.0943  0.5957
   96MOL0     C12566   3.323   4.136   4.107 -0.0497  0.5839  0.6689
   96MOL0     C12567   3.336   4.096   3.975 -0.3377  0.5096  0.3469
   96MOL0     C12568   3.441   4.146   3.891  0.6736 -0.5128 -0.3100
   96MOL0     C12569   3.445   4.114   3.749 -0.2686  0.2324  0.7813
   96MOL0     O12570   3.358   4.025   3.709  1.0293  0.0765 -0.5672
   96MOL0     C12571   3.335   3.980   3.581 -0.2145 -0.5366  0.0971
   96MOL0     C12572   3.302   3.849   3.545 -0.1173 -0.6671 -0.6712
   96MOL0     C12573   3.298   3.798   3.417 -0.2978 -0.4773 -0.1321
   96MOL0     C12574   3.337   3.889   3.313  0.1125 -0.6640  0.3448
   96MOL0     O12575   3.366   3.856   3.183 -0.1411  0.4463  0.3650
   96MOL0     C12576   3.342   3.724   3.138  0.6121 -0.3178 -0.1483
   96MOL0     C12577   3.461   3.626   3.175  0.2588 -0.6588 -2.1685
   96MOL0     C12578   3.431   3.484   3.148 -1.3998  0.7263 -0.3960
   96MOL0     C12579   3.338   3.427   3.250  0.4243 -0.2301 -0.4270
   96MOL0     C12580   3.308   3.276   3.228  0.4756 -0.7964 -0.7946
   96MOL0     C12581   3.201   3.235   3.317  0.4076  0.8162  0.6051
   96MOL0     C12582   3.155   3.092   3.284 -0.0430  0.4630  0.1347
   96MOL0     C12583   3.057   3.028   3.390 -0.1820 -0.7849 -0.4699
   96MOL0    Cl12584   2.891   3.115   3.387  0.0919  0.2186  0.0442
   96MOL0     C12585   3.350   4.026   3.338  0.4426  0.8248 -0.3308
   96MOL0     C12586   3.343   4.072   3.473 -0.6859  0.8725  0.9408
   96MOL0     O12587   3.528   4.165   3.675  0.3257 -0.2774  0.3134
   96MOL0     C12588   3.527   4.234   3.954  1.1432 -0.8001 -0.2931
   96MOL0     C12589   3.518   4.280   4.092  0.9807  0.6002  0.4975
   96MOL0     N12590   2.964   4.067   4.613  1.0125  0.0322 -0.1977
   96MOL0     N12591   2.951   3.964   4.684 -0.2745  0.0177 -0.1195
   96MOL0     C12592   3.807   3.294   5.202  0.1683  0.5872  0.0448
   96MOL0     C12593   3.888   3.257   5.308  0.2017 -0.3945  0.4947
   96MOL0     C12594   4.017   3.199   5.759  0.0188 -0.3896  0.6927
   96MOL0     C12595   4.027   3.253   5.892  1.3585  0.3889 -0.4526
   96MOL0     C12596   4.128   3.204   5.977  0.3569 -0.6369 -0.0143
   96MOL0     C12597   4.203   3.088   5.950 -1.6319 -0.0808 -0.3094
   96MOL0     O12598   4.294   3.034   6.031 -0.0482  0.6247 -0.5764
   96MOL0     C12599   4.399   3.119   6.077 -0.0130  0.7679 -0.6018
   96MOL0     C12600   4.534   3.034   6.070 -0.3446  0.3296 -0.3644
   96MOL0     C12601   4.540   2.917   6.161 -0.0441  0.7247 -0.8509
   96MOL0     C12602   4.519   2.959   6.302  0.4111 -0.5277 -0.0303
   96MOL0     C12603   4.541   2.856   6.413  0.1423 -0.1986 -0.5711
   96MOL0     C12604   4.547   2.772   6.501 -0.3682 -0.5717 -0.8792
   96MOL0     C12605   4.185   3.032   5.828  0.0418 -0.1784  1.0086
   96MOL0     C12606   4.104   3.092   5.729  0.9857 -0.3098  0.5260
   96MOL0     H12607   3.645   3.184   5.530  3.4021  0.5109  1.6843
   96MOL0     H12608   3.513   3.272   5.362  0.5086  0.2287  0.5680
   96MOL0     H12609   3.413   3.402   5.196  0.8631  1.6810 -0.8797
   96MOL0     H12610   3.441   3.231   5.162  1.7571 -0.6104  0.2176
   96MOL0     H12611   3.293   3.291   5.007  1.8998 -2.0459  2.1865
   96MOL0     H12612   3.455   3.301   4.919  0.5502  1.1588 -1.1623
   96MOL0     H12613   3.423   3.557   4.974  0.5235  0.3698  3.5521
   96MOL0     H12614   3.260   3.523   5.035  0.1767 -0.5662  1.5109
   96MOL0     H12615   3.380   3.555   4.758 -0.5100  1.9801  0.5906
   96MOL0     H12616   3.312   3.396   4.775  1.0071  1.3409 -2.4320
   96MOL0     H12617   3.092   3.499   4.836 -1.6150  2.1268 -1.2523
   96MOL0     H12618   3.138   3.557   4.682  0.8053 -2.3641 -0.4552
   96MOL0     H12619   3.200   3.774   4.757  0.4327 -0.4706  0.1809
   96MOL0     H12620   3.234   3.734   4.923 -1.6516 -2.2475  1.1276
   96MOL0     H12621   2.968   3.721   4.812  0.0513 -0.5646 -0.0377
   96MOL0     H12622   3.007   3.687   4.975 -0.1823  1.1820  0.3261
   96MOL0     H12623   3.068   3.952   4.989  0.8815  0.9018 -1.9768
   96MOL0     H12624   2.902   3.894   4.954  0.2883  2.1350  2.3424
   96MOL0     H12625   3.138   4.154   4.870 -1.4451 -0.5401  2.6675
   96MOL0     H12626   3.135   4.336   4.695  1.9068  1.4150 -2.3962
   96MOL0     H12627   3.004   4.331   4.571  2.1085  2.0570 -2.5496
   96MOL0     H12628   3.152   4.172   4.448 -1.8837 -1.6331  1.1265
   96MOL0     H12629   3.280   4.217   4.561  1.4257  2.4456 -0.1988
   96MOL0     H12630   3.120   4.433   4.421  2.0225  3.1002 -2.5422
   96MOL0     H12631   3.289   4.431   4.489  0.6370 -0.1517 -1.2965
   96MOL0     H12632   3.274   4.458   4.246  1.8972  0.6444  1.4359
   96MOL0     H12633   3.196   4.299   4.230  0.8103 -1.6238  1.8497
   96MOL0     H12634   3.246   4.101   4.175  1.7220  3.1837  4.3759
   96MOL0     H12635   3.271   4.020   3.932  0.7597  0.2479 -0.9226
   96MOL0     H12636   3.286   3.772   3.620 -1.9882  0.4619  0.1543
   96MOL0     H12637   3.265   3.697   3.395 -0.7033 -0.2382 -0.6539
   96MOL0     H12638   3.336   3.735   3.029  1.3116 -0.6005 -0.2221
   96MOL0     H12639   3.244   3.693   3.176  0.7901 -1.6943 -0.7475
   96MOL0     H12640   3.485   3.644   3.280  0.9704 -2.6224 -1.9684
   96MOL0     H12641   3.542   3.662   3.111  0.7765  1.5525 -0.3943
   96MOL0     H12642   3.517   3.421   3.126 -0.8263  2.6439 -4.3964
   96MOL0     H12643   3.389   3.482   3.047  1.3069  1.8215 -1.6133
   96MOL0     H12644   3.387   3.447   3.346  5.8044 -2.4866 -2.3203
   96MOL0     H12645   3.242   3.475   3.232 -1.1905 -1.8804  2.8732
   96MOL0     H12646   3.400   3.221   3.250  1.6309  0.3183 -2.5917
   96MOL0     H12647   3.277   3.252   3.126  1.1863 -2.7540 -0.5958
   96MOL0     H12648   3.116   3.304   3.313 -2.0858 -2.1353 -0.5936
   96MOL0     H12649   3.235   3.240   3.421 -0.9461  2.7951  1.0195
   96MOL0     H12650   3.110   3.090   3.185 -1.9589  1.8209  0.9165
   96MOL0     H12651   3.239   3.021   3.291 -2.0888 -2.1362 -0.1279
   96MOL0     H12652   3.099   3.039   3.490  4.4250  4.2125 -2.4334
   96MOL0     H12653   3.034   2.923   3.373  2.0984 -1.8720  2.3902
   96MOL0     H12654   3.355   4.091   3.252  0.7962 -1.7364 -2.3688
   96MOL0     H12655   3.342   4.180   3.483 -1.9148  1.1588 -1.5192
   96MOL0     H12656   3.605   4.281   3.894 -0.6369  0.9564 -1.3897
   96MOL0     H12657   3.592   4.342   4.143 -3.6485  4.6075  3.1950
   96MOL0     H12658   3.837   3.347   5.113 -2.3759 -0.3222 -1.4710
   96MOL0     H12659   3.990   3.278   5.278 -1.3566  2.0652 -3.8621
   96MOL0     H12660   3.956   3.333   5.910  0.7782 -0.4026  0.9705
   96MOL0     H12661   4.140   3.258   6.070 -1.0329 -2.0475  1.0390
   96MOL0     H12662   4.388   3.159   6.178  0.9138  0.6202 -0.4281
   96MOL0     H12663   4.407   3.217   6.028  0.7531  2.9286  3.4110
   96MOL0     H12664   4.559   2.999   5.969  3.7709 -0.7183  0.8372
   96MOL0     H12665   4.607   3.111   6.097 -0.4646 -0.3407  2.1077
   96MOL0     H12666   4.645   2.888   6.155  1.2311  4.9218 -2.5216
   96MOL0     H12667   4.457   2.851   6.131 -0.0744  1.0954 -1.6022
   96MOL0     H12668   4.574   3.052   6.319 -1.6529  0.7170  0.0787
   96MOL0     H12669   4.413   2.980   6.315  1.1039  1.5475  4.0636
   96MOL0     H12670   4.561   2.688   6.565  0.9140 -1.0575 -1.7457
   96MOL0     H12671   4.247   2.949   5.795  4.1082  2.8057  0.3061
   96MOL0     H12672   4.087   3.037   5.637  3.2823  1.6295 -1.1638
   97MOL0     O12673  11.454   7.774   6.499  0.2961  0.6707 -0.5570
   97MOL0     C12674  11.571   7.785   6.511 -0.1918 -0.3631  0.2200
   97MOL0     O12675  11.647   7.761   6.624  1.0990 -0.3905 -0.2833
   97MOL0     C12676  11.591   7.720   6.739 -0.3932  0.0988 -0.3421
   97MOL0     C12677  11.640   7.605   6.803  1.1575 -0.4620  1.0612
   97MOL0     C12678  11.582   7.574   6.925 -0.3390  0.3682 -0.0713
   97MOL0     C12679  11.479   7.646   6.984 -0.1879  0.0120  0.5255
   97MOL0     O12680  11.449   7.593   7.101  0.3717  0.6753 -0.1316
   97MOL0     C12681  11.310   7.610   7.134 -0.2285 -0.0438  1.1593
   97MOL0     C12682  11.276   7.527   7.259 -0.1141 -0.2360  0.0808
   97MOL0     C12683  11.284   7.373   7.245  0.0161 -0.3956  0.5368
   97MOL0     C12684  11.220   7.290   7.361  0.3003  0.6051  0.8843
   97MOL0     C12685  11.299   7.165   7.403 -0.0081  0.4463  0.0194
   97MOL0     C12686  11.222   7.078   7.495  0.5629 -0.4014 -0.2359
   97MOL0     C12687  11.094   7.019   7.452  0.2794 -1.0107 -0.3595
   97MOL0     C12688  11.041   6.915   7.547 -0.3395  0.6925  0.4969
   97MOL0     N12689  10.917   6.874   7.510 -0.6388  0.3392  0.1059
   97MOL0     C12690  10.899   6.762   7.430  0.3579  0.1528 -1.0310
   97MOL0     C12691  10.768   6.757   7.398 -0.5162  0.7022 -0.3480
   97MOL0     C12692  10.698   6.689   7.287 -1.4263 -0.1523  0.3819
   97MOL0     C12693  10.581   6.605   7.326  1.2717 -0.2954 -0.1306
   97MOL0     C12694  10.519   6.561   7.200 -0.2687  0.0103  0.0773
   97MOL0     C12695  10.405   6.481   7.223  0.4172 -0.6771 -0.2293
   97MOL0     O12696  10.448   6.368   7.313  0.2436 -1.0262 -0.0147
   97MOL0     C12697  10.487   6.246   7.255  0.1812 -1.4889 -0.9390
   97MOL0     C12698  10.519   6.224   7.118 -0.5803  0.3905 -0.3233
   97MOL0     C12699  10.580   6.100   7.085 -0.0374  0.5200 -0.1404
   97MOL0     C12700  10.601   6.003   7.187 -0.5612  0.0344 -0.1340
   97MOL0     C12701  10.660   5.865   7.156 -0.1363 -0.0535  1.2743
   97MOL0     O12702  10.626   5.810   7.030  0.6855  0.8071 -0.6061
   97MOL0     C12703  10.650   5.675   7.022 -0.3934  0.2261 -0.6133
   97MOL0     C12704  10.775   5.617   6.986  0.8467  1.0001  0.4476
   97MOL0     C12705  10.776   5.478   6.975 -0.2945 -0.4017 -0.7514
   97MOL0     C12706  10.674   5.397   7.011 -1.2174  0.9679  0.1019
   97MOL0     O12707  10.692   5.263   6.983  0.0052 -0.6489 -0.3102
   97MOL0     C12708  10.579   5.186   6.957  0.3707  0.0113  0.2975
   97MOL0     C12709  10.612   5.049   6.903  0.3989 -0.5564  0.7476
   97MOL0     C12710  10.678   4.959   7.003 -0.4240  0.6514 -0.9573
   97MOL0     C12711  10.706   4.813   6.955  0.1082  0.1918 -0.4862
   97MOL0     C12712  10.786   4.743   7.063  0.2835  0.3395  0.0624
   97MOL0     C12713  10.833   4.606   7.015  0.2931 -0.2338  1.1409
   97MOL0     C12714  10.933   4.554   7.114  0.2517  0.1086 -0.2633
   97MOL0     C12715  10.959   4.406   7.086 -0.4835  0.3106 -0.4118
   97MOL0    Cl12716  11.114   4.349   7.169  0.3149  0.0546 -0.5654
   97MOL0     C12717  10.553   5.450   7.047  0.3123  0.2068 -0.1310
   97MOL0     C12718  10.546   5.591   7.060 -0.7384  1.1659 -0.2483
   97MOL0     O12719  10.741   5.810   7.236  0.0079 -0.7454 -0.5259
   97MOL0     C12720  10.558   6.024   7.317  0.6652  0.9955 -0.7846
   97MOL0     C12721  10.504   6.148   7.346 -0.9783  1.1651 -0.1467
   97MOL0     N12722  10.707   6.862   7.459  0.1611  0.7275  1.2628
   97MOL0     N12723  10.799   6.925   7.528  0.5135  0.2207 -0.1409
   97MOL0     C12724  11.424   7.759   6.913  0.9813 -0.7096 -0.5471
   97MOL0     C12725  11.500   7.803   6.801  0.7322 -0.3954 -0.0133
   97MOL0     C12726  11.635   7.857   6.408 -0.8287  0.7143  0.4082
   97MOL0     C12727  11.777   7.876   6.402  0.1400  0.7413  0.0137
   97MOL0     C12728  11.838   7.974   6.322  0.3550 -0.4238  0.1183
   97MOL0     C12729  11.760   8.056   6.238 -0.3628 -0.1663 -0.1814
   97MOL0     O12730  11.823   8.158   6.177 -0.9824  0.0004  0.0557
   97MOL0     C12731  11.742   8.280   6.158  0.2102  0.2877  0.0727
   97MOL0     C12732  11.791   8.378   6.047  0.6921 -0.2891  0.1381
   97MOL0     C12733  11.940   8.418   6.063  0.0758 -0.2613  0.0843
   97MOL0     C12734  11.992   8.512   5.961 -0.7400 -0.2389  0.4666
   97MOL0     C12735  11.927   8.640   5.951 -0.1344 -1.3459  0.2074
   97MOL0     C12736  11.866   8.740   5.929  0.2015 -0.0560  0.6770
   97MOL0     C12737  11.621   8.026   6.222 -1.2410 -0.1533  1.0173
   97MOL0     C12738  11.563   7.927   6.301 -0.0026 -1.0225  0.7079
   97MOL0     H12739  11.733   7.563   6.764  2.8057  3.2496  0.4617
   97MOL0     H12740  11.624   7.497   6.989 -0.3759  2.7127  2.9996
   97MOL0     H12741  11.243   7.574   7.054  1.8198 -0.4286 -0.4647
   97MOL0     H12742  11.303   7.713   7.168 -3.8004 -0.6614  2.7817
   97MOL0     H12743  11.172   7.553   7.282  0.2439  0.5741  0.8331
   97MOL0     H12744  11.345   7.568   7.333 -0.9297  0.9754  0.1963
   97MOL0     H12745  11.392   7.359   7.255  0.3827  2.9535  2.7385
   97MOL0     H12746  11.239   7.345   7.148 -0.6064  0.1246  0.6698
   97MOL0     H12747  11.209   7.365   7.441 -3.3143 -1.2549  2.3864
   97MOL0     H12748  11.116   7.266   7.335  0.5650  2.2394 -2.1119
   97MOL0     H12749  11.388   7.210   7.449 -0.6321  1.4975  0.2326
   97MOL0     H12750  11.332   7.103   7.319  0.1640  0.0451  0.3833
   97MOL0     H12751  11.196   7.135   7.585  1.1256  2.3691 -1.7191
   97MOL0     H12752  11.283   6.993   7.527 -0.8710 -1.7745 -0.9977
   97MOL0     H12753  11.028   7.106   7.455 -0.1046 -1.3212  0.8598
   97MOL0     H12754  11.101   6.979   7.351  1.5061  0.8556 -1.0680
   97MOL0     H12755  11.029   6.953   7.649  0.7869 -0.6457  1.1534
   97MOL0     H12756  11.107   6.828   7.551 -1.0611  0.1166  0.1315
   97MOL0     H12757  10.977   6.700   7.387  1.1711  1.9986 -2.3169
   97MOL0     H12758  10.774   6.616   7.259  3.0480  4.7606 -2.0480
   97MOL0     H12759  10.686   6.758   7.203 -1.8665  0.5725  1.0292
   97MOL0     H12760  10.506   6.653   7.390 -0.3053  0.0655 -2.1401
   97MOL0     H12761  10.624   6.523   7.383  0.3407 -1.4885 -1.0879
   97MOL0     H12762  10.493   6.655   7.150 -1.8361 -1.3156 -1.7183
   97MOL0     H12763  10.597   6.508   7.144 -1.3304  0.4125 -1.8503
   97MOL0     H12764  10.364   6.441   7.130  1.7444 -1.8654 -0.3409
   97MOL0     H12765  10.335   6.539   7.283  0.9123 -1.2406  0.9228
   97MOL0     H12766  10.505   6.294   7.036  0.5460  0.4164 -0.5136
   97MOL0     H12767  10.616   6.063   6.990 -0.0662 -0.3404  0.1752
   97MOL0     H12768  10.870   5.668   6.971  1.6421  0.3336  2.6917
   97MOL0     H12769  10.862   5.415   6.954  0.6359 -0.7647  3.4203
   97MOL0     H12770  10.528   5.245   6.880 -1.4377 -0.8527  0.7819
   97MOL0     H12771  10.508   5.175   7.040 -2.0160 -2.2305 -1.8548
   97MOL0     H12772  10.690   5.058   6.826  0.8030  0.4797  1.2551
   97MOL0     H12773  10.522   5.001   6.863  1.3165 -0.7957 -1.1677
   97MOL0     H12774  10.616   4.959   7.093  0.7210 -2.8345 -0.0144
   97MOL0     H12775  10.766   5.009   7.044 -0.2395 -1.0500  0.8743
   97MOL0     H12776  10.613   4.762   6.929  0.5726  0.7233 -3.7349
   97MOL0     H12777  10.750   4.811   6.854 -4.3831 -3.1942 -2.7633
   97MOL0     H12778  10.736   4.727   7.159 -0.9774 -1.2429 -0.8062
   97MOL0     H12779  10.873   4.800   7.095 -1.0264  0.6755  3.4254
   97MOL0     H12780  10.883   4.600   6.917 -0.3949  0.9112  0.7018
   97MOL0     H12781  10.750   4.536   7.001 -1.8624  2.3908 -0.0854
   97MOL0     H12782  11.027   4.609   7.103  1.7547 -2.5676 -1.9320
   97MOL0     H12783  10.891   4.575   7.213 -1.1588  1.9231 -1.1905
   97MOL0     H12784  10.982   4.409   6.979 -0.5420 -0.0539 -0.4356
   97MOL0     H12785  10.875   4.341   7.113  1.3051 -1.0153  2.4992
   97MOL0     H12786  10.460   5.399   7.069 -1.2897  2.6683 -0.6867
   97MOL0     H12787  10.453   5.635   7.095 -2.4526 -1.1698 -1.5618
   97MOL0     H12788  10.581   5.944   7.386 -3.0318 -1.0911 -1.7467
   97MOL0     H12789  10.473   6.167   7.449  1.8556 -1.8029  1.4760
   97MOL0     H12790  11.344   7.818   6.956  0.3871 -0.0752 -2.4611
   97MOL0     H12791  11.479   7.899   6.755  2.0488 -0.3761 -0.6085
   97MOL0     H12792  11.841   7.825   6.473 -0.8843  1.2459  1.3312
   97MOL0     H12793  11.946   7.983   6.317  0.2546  2.3445  1.1412
   97MOL0     H12794  11.756   8.348   6.243  1.3542  0.1584  0.0048
   97MOL0     H12795  11.633   8.268   6.149  0.5155 -2.1935 -1.1193
   97MOL0     H12796  11.771   8.322   5.956  0.3067 -0.8390  0.5527
   97MOL0     H12797  11.732   8.470   6.052  2.9869  1.2620  0.3078
   97MOL0     H12798  11.991   8.322   6.059  0.4694 -0.0419 -0.2184
   97MOL0     H12799  11.949   8.466   6.161 -1.5270  2.1717 -0.8491
   97MOL0     H12800  12.093   8.532   5.997  0.0636 -0.3003 -1.6463
   97MOL0     H12801  11.998   8.471   5.860 -1.3451 -0.4657  0.5199
   97MOL0     H12802  11.828   8.838   5.908  1.9406  0.6009  0.4291
   97MOL0     H12803  11.567   8.073   6.140 -2.4154 -2.0572  0.6310
   97MOL0     H12804  11.458   7.912   6.277  0.8335 -1.2644 -3.5245
   98MOL0     O12805  10.568   3.364   9.202 -0.2728 -0.0159 -0.5520
   98MOL0     C12806  10.682   3.314   9.195  0.7170 -0.1680 -0.1455
   98MOL0     O12807  10.708   3.184   9.161 -0.5058  0.4600 -0.2159
   98MOL0     C12808  10.625   3.086   9.207 -0.1624 -0.5288  0.4884
   98MOL0     C12809  10.579   2.992   9.113 -0.6012 -0.5587 -0.1781
   98MOL0     C12810  10.494   2.891   9.155  0.7628  1.3641  0.3084
   98MOL0     C12811  10.442   2.892   9.286  0.1357 -0.5043 -0.9230
   98MOL0     O12812  10.351   2.796   9.323 -0.1845 -0.5518 -0.6187
   98MOL0     C12813  10.383   2.663   9.299 -0.3491  0.4717  0.4858
   98MOL0     C12814  10.318   2.588   9.422  0.1192  0.5513 -0.2695
   98MOL0     C12815  10.404   2.469   9.451 -1.3270  0.1649  0.5180
   98MOL0     C12816  10.328   2.370   9.538 -0.6725 -0.1912 -0.3791
   98MOL0     C12817  10.391   2.231   9.554 -0.1020  0.1796  0.8755
   98MOL0     C12818  10.446   2.147   9.432 -0.3314  0.2427  0.4941
   98MOL0     C12819  10.459   1.994   9.473  0.2497 -0.8932  0.3768
   98MOL0     C12820  10.544   1.928   9.359 -0.9014 -0.3702  0.3873
   98MOL0     N12821  10.630   1.825   9.408 -0.7676 -1.0320  0.3103
   98MOL0     C12822  10.747   1.843   9.470  0.5077  0.8051  0.1537
   98MOL0     C12823  10.790   1.725   9.528  0.0413  0.9510  0.2863
   98MOL0     C12824  10.901   1.681   9.620 -0.2129  0.3927 -1.2309
   98MOL0     C12825  10.921   1.777   9.727 -0.0524  0.4377  0.1749
   98MOL0     C12826  10.814   1.761   9.840 -0.4474 -0.2625 -0.0237
   98MOL0     C12827  10.827   1.643   9.935  0.4061  0.8951 -0.4140
   98MOL0     O12828  10.935   1.657  10.020 -0.4254 -0.4606 -0.9022
   98MOL0     C12829  10.945   1.587  10.137 -0.6464  0.0265  0.1543
   98MOL0     C12830  11.078   1.570  10.177  0.0397  0.3088 -0.4863
   98MOL0     C12831  11.109   1.493  10.289  0.5196  0.0425 -0.4908
   98MOL0     C12832  11.009   1.425  10.366  0.7668 -0.1282  0.3468
   98MOL0     C12833  11.030   1.357  10.496 -0.0922 -0.3623 -0.1783
   98MOL0     O12834  11.133   1.403  10.563  0.1812  0.4087 -0.3591
   98MOL0     C12835  11.167   1.352  10.689 -0.1364 -0.5828 -0.4677
   98MOL0     C12836  11.302   1.357  10.709 -0.1406 -0.4920  0.5291
   98MOL0     C12837  11.362   1.318  10.826 -0.4170  0.9815 -0.0549
   98MOL0     C12838  11.291   1.261  10.929 -0.0406  0.0764 -0.3222
   98MOL0     O12839  11.348   1.217  11.046 -0.6624  0.4512 -0.3598
   98MOL0     C12840  11.488   1.200  11.059 -0.2989  0.7524 -0.1553
   98MOL0     C12841  11.536   1.124  11.188  0.0013 -1.0805  0.0565
   98MOL0     C12842  11.493   0.981  11.180 -0.7698 -0.1025 -0.1091
   98MOL0     C12843  11.526   0.916  11.324  0.3723  0.5975  1.3187
   98MOL0     C12844  11.526   0.761  11.302  0.1994  0.2092 -0.1011
   98MOL0     C12845  11.393   0.705  11.253 -0.0855  0.4026  0.0869
   98MOL0     C12846  11.369   0.555  11.299  0.4011 -0.1880 -0.4783
   98MOL0     C12847  11.241   0.502  11.251  1.1101 -0.3095 -0.4476
   98MOL0    Cl12848  11.240   0.483  11.069 -0.0360  0.0353 -0.1616
   98MOL0     C12849  11.153   1.258  10.910  0.5184 -0.0971  0.2369
   98MOL0     C12850  11.083   1.309  10.792 -0.4593  0.3646 -0.0001
   98MOL0     O12851  10.948   1.273  10.540  0.6177  0.3380 -0.4348
   98MOL0     C12852  10.876   1.441  10.318  0.1411 -0.2228 -0.4790
   98MOL0     C12853  10.843   1.522  10.207 -0.4413 -0.6854  0.3065
   98MOL0     N12854  10.695   1.635   9.489  0.9674 -0.6781  1.4503
   98MOL0     N12855  10.595   1.692   9.422 -0.1101  0.0693 -0.1558
   98MOL0     C12856  10.493   2.976   9.379 -0.6516  1.1427  0.1249
   98MOL0     C12857  10.583   3.076   9.335 -0.3407 -0.2439 -0.6274
   98MOL0     C12858  10.792   3.399   9.244  0.0577  0.0248  0.3424
   98MOL0     C12859  10.773   3.539   9.243 -0.5655 -0.2995 -0.4793
   98MOL0     C12860  10.888   3.624   9.253 -0.4925 -0.4405 -0.4171
   98MOL0     C12861  11.011   3.570   9.295  0.2477  0.1460  0.4712
   98MOL0     O12862  11.110   3.657   9.333  0.8810 -0.3261  0.5000
   98MOL0     C12863  11.234   3.611   9.395 -0.3076 -0.7741 -0.3999
   98MOL0     C12864  11.329   3.744   9.405  0.7049  0.3958 -0.8027
   98MOL0     C12865  11.452   3.716   9.487 -0.1455  1.2210  0.5599
   98MOL0     C12866  11.462   3.799   9.617  0.0696  0.5152  0.5194
   98MOL0     C12867  11.356   3.756   9.716 -0.1326 -0.8400  0.6275
   98MOL0     C12868  11.254   3.734   9.776  0.4732 -0.2328  0.6168
   98MOL0     C12869  11.024   3.426   9.313 -0.3348  0.4681  0.3064
   98MOL0     C12870  10.915   3.344   9.285  0.5748  0.8299  0.0577
   98MOL0     H12871  10.618   3.005   9.012  0.5045  0.0836  0.3146
   98MOL0     H12872  10.448   2.809   9.101  0.6901 -1.0220  3.6906
   98MOL0     H12873  10.491   2.643   9.299 -0.3948  0.0013 -1.7907
   98MOL0     H12874  10.343   2.620   9.207  1.6124 -1.7373  0.5710
   98MOL0     H12875  10.213   2.563   9.402 -0.0506  2.4004 -1.9022
   98MOL0     H12876  10.315   2.647   9.515  3.4340  1.0663 -0.3672
   98MOL0     H12877  10.501   2.490   9.497 -0.2594 -4.0890  0.6310
   98MOL0     H12878  10.415   2.426   9.351 -1.7498  0.8294  0.1761
   98MOL0     H12879  10.295   2.415   9.632  0.7594  0.4401 -0.1597
   98MOL0     H12880  10.242   2.349   9.474  0.2209  0.3430 -1.8114
   98MOL0     H12881  10.319   2.171   9.611  0.8634 -0.0749  1.8698
   98MOL0     H12882  10.477   2.243   9.621  0.4144 -0.8281  0.4192
   98MOL0     H12883  10.548   2.184   9.415 -0.6878  0.5582 -1.1068
   98MOL0     H12884  10.389   2.163   9.340 -0.7921 -2.5966  0.1986
   98MOL0     H12885  10.509   1.988   9.570  1.7095  1.8197 -0.1141
   98MOL0     H12886  10.359   1.951   9.482 -0.6841  1.1007  0.0371
   98MOL0     H12887  10.603   2.010   9.316 -3.7649  3.0839  2.4668
   98MOL0     H12888  10.478   1.886   9.282 -0.2854  0.3825 -0.5725
   98MOL0     H12889  10.792   1.941   9.479  3.0311 -0.2463 -0.2239
   98MOL0     H12890  10.988   1.665   9.555 -0.1233 -1.2880 -0.7337
   98MOL0     H12891  10.883   1.586   9.670 -1.5393  1.2938  0.0803
   98MOL0     H12892  10.918   1.875   9.678 -1.5038 -0.2471 -1.1849
   98MOL0     H12893  11.024   1.776   9.766  0.0936  5.3946  0.5421
   98MOL0     H12894  10.817   1.846   9.909  0.8434 -1.4719  1.4965
   98MOL0     H12895  10.710   1.762   9.805 -1.5468  3.4826  2.6870
   98MOL0     H12896  10.841   1.552   9.876 -0.0944  1.1227 -0.8892
   98MOL0     H12897  10.738   1.623   9.995 -0.6236  0.6440 -1.9858
   98MOL0     H12898  11.150   1.633  10.125  1.0670  0.5758  1.1935
   98MOL0     H12899  11.211   1.474  10.323  0.4420 -0.3597 -0.4735
   98MOL0     H12900  11.362   1.400  10.630 -0.0372 -0.5482  0.5777
   98MOL0     H12901  11.468   1.337  10.839 -0.4128 -0.5517  2.8181
   98MOL0     H12902  11.525   1.302  11.065  0.2578  0.5886 -0.7040
   98MOL0     H12903  11.522   1.145  10.971 -0.0344 -1.3264  1.1707
   98MOL0     H12904  11.486   1.175  11.271 -0.7832 -1.9577  0.1391
   98MOL0     H12905  11.641   1.153  11.196 -0.4863  0.5109  1.0324
   98MOL0     H12906  11.535   0.926  11.096 -0.7658 -1.4640  0.7540
   98MOL0     H12907  11.386   0.984  11.159 -1.1066 -1.1182  1.3127
   98MOL0     H12908  11.626   0.950  11.351  1.5506  0.6100 -2.4235
   98MOL0     H12909  11.462   0.923  11.412  0.3288 -0.0121  1.3386
   98MOL0     H12910  11.545   0.707  11.396 -1.1996 -1.0053 -0.4699
   98MOL0     H12911  11.607   0.742  11.231  1.0542  0.3322  0.8183
   98MOL0     H12912  11.391   0.719  11.145  4.5978 -3.5358 -0.8469
   98MOL0     H12913  11.317   0.771  11.297 -0.3535  1.8733 -2.4023
   98MOL0     H12914  11.461   0.501  11.275  2.1032  1.3844  2.1105
   98MOL0     H12915  11.372   0.562  11.408  1.6616  1.1984 -0.5764
   98MOL0     H12916  11.165   0.571  11.288  3.0926  1.8034 -0.1024
   98MOL0     H12917  11.233   0.400  11.290  1.5188 -0.2931 -0.3177
   98MOL0     H12918  11.102   1.201  10.987  3.7745 -1.6423  1.4331
   98MOL0     H12919  10.976   1.316  10.774 -0.1764  1.7174 -1.3390
   98MOL0     H12920  10.791   1.396  10.367  0.5600 -1.2014 -0.6274
   98MOL0     H12921  10.737   1.541  10.190 -0.1254  1.3863  0.3552
   98MOL0     H12922  10.461   2.972   9.483 -0.5730  0.7819  0.1335
   98MOL0     H12923  10.621   3.153   9.401 -1.5442 -0.5329  0.4598
   98MOL0     H12924  10.679   3.591   9.228  0.0233  1.0546  0.3502
   98MOL0     H12925  10.874   3.732   9.258  0.1108 -0.3901  0.2355
   98MOL0     H12926  11.286   3.538   9.332 -1.0690 -2.9076  1.2847
   98MOL0     H12927  11.219   3.561   9.492 -0.3994  0.4734  0.2531
   98MOL0     H12928  11.373   3.775   9.309  2.8674  3.2013  0.9404
   98MOL0     H12929  11.277   3.834   9.438  3.1209  1.2538  0.9931
   98MOL0     H12930  11.541   3.713   9.423 -0.1575 -1.0815  0.5566
   98MOL0     H12931  11.459   3.612   9.519  0.5440  0.9678 -0.3602
   98MOL0     H12932  11.546   3.790   9.687 -0.4087 -1.0912  0.9416
   98MOL0     H12933  11.437   3.901   9.588  2.1826  1.4379  1.6675
   98MOL0     H12934  11.173   3.727   9.845 -0.9479  0.2639 -0.9193
   98MOL0     H12935  11.111   3.382   9.361 -0.7320  0.8918  1.4583
   98MOL0     H12936  10.925   3.236   9.285 -0.2354  0.7523 -0.8245
   99MOL0     O12937   2.123   8.625   1.449  0.5796  0.2527  0.7336
   99MOL0     C12938   2.117   8.538   1.366  0.1275 -0.4301 -0.7668
   99MOL0     O12939   2.048   8.558   1.244 -0.8736  0.1077  0.2152
   99MOL0     C12940   2.017   8.688   1.221 -0.5641  0.9669 -0.2471
   99MOL0     C12941   2.117   8.781   1.186  0.1577  0.6799 -0.1880
   99MOL0     C12942   2.087   8.913   1.167  0.2988  0.1851 -0.6259
   99MOL0     C12943   1.958   8.961   1.197  0.5271  0.1375  0.7054
   99MOL0     O12944   1.930   9.090   1.208  0.9873  0.3857  0.3559
   99MOL0     C12945   1.995   9.186   1.122  0.7528  0.0411 -0.8745
   99MOL0     C12946   1.923   9.326   1.128 -0.2678  0.5050 -0.4464
   99MOL0     C12947   1.777   9.309   1.089 -0.3334  0.6206 -0.5545
   99MOL0     C12948   1.695   9.426   1.145 -0.1744 -0.5471 -1.2248
   99MOL0     C12949   1.545   9.411   1.123  0.4087 -0.2710  0.7868
   99MOL0     C12950   1.486   9.294   1.198  0.2983 -0.2805  0.2758
   99MOL0     C12951   1.347   9.344   1.251 -0.7170 -0.0419 -1.0132
   99MOL0     C12952   1.242   9.365   1.143 -0.4071  0.9398 -0.3688
   99MOL0     N12953   1.229   9.261   1.037  0.7675 -0.2500  0.6078
   99MOL0     C12954   1.304   9.261   0.917 -0.8090  0.4222  0.0705
   99MOL0     C12955   1.280   9.143   0.862 -0.0413  0.4900  0.3929
   99MOL0     C12956   1.356   9.099   0.743  0.8314 -0.5093 -0.0534
   99MOL0     C12957   1.455   8.981   0.767  0.6558  0.5893 -0.3148
   99MOL0     C12958   1.555   9.022   0.879  0.4523  0.9329  0.2015
   99MOL0     C12959   1.697   8.956   0.873 -0.3558  0.7194  0.2667
   99MOL0     O12960   1.686   8.819   0.847  0.1080  0.8810  0.0421
   99MOL0     C12961   1.785   8.728   0.841 -0.5702  1.1131  0.3900
   99MOL0     C12962   1.742   8.596   0.793 -1.9010 -0.0865  0.1751
   99MOL0     C12963   1.836   8.489   0.786  0.6568 -0.3209 -0.0746
   99MOL0     C12964   1.960   8.501   0.835  0.2070  0.1883  0.5239
   99MOL0     C12965   2.051   8.379   0.825  0.9370 -0.1881 -0.5309
   99MOL0     O12966   2.167   8.390   0.880  0.1026 -0.3430 -0.1001
   99MOL0     C12967   2.243   8.277   0.870  0.2216  0.3795  0.4038
   99MOL0     C12968   2.236   8.177   0.971  1.2888 -0.6246 -0.2680
   99MOL0     C12969   2.323   8.069   0.965 -0.3313  0.1260 -0.6405
   99MOL0     C12970   2.436   8.064   0.886 -0.4814  0.5948 -0.3227
   99MOL0     O12971   2.515   7.951   0.869  0.5494  0.4333 -0.2180
   99MOL0     C12972   2.445   7.826   0.842  0.5987 -0.1148 -0.5728
   99MOL0     C12973   2.528   7.729   0.761  0.1868 -0.4994  0.4101
   99MOL0     C12974   2.572   7.800   0.622 -0.1643  0.2622  0.4753
   99MOL0     C12975   2.674   7.716   0.541  0.0855  0.7339  0.2666
   99MOL0     C12976   2.709   7.784   0.414  0.4390 -0.3093  0.0118
   99MOL0     C12977   2.787   7.672   0.332  1.2276 -0.8726 -0.1032
   99MOL0     C12978   2.838   7.732   0.201  0.2483  0.1985 -0.1460
   99MOL0     C12979   2.735   7.746   0.099 -0.0639  0.6079  0.9885
   99MOL0    Cl12980   2.835   7.773  -0.062  0.0556 -0.1250 -0.0886
   99MOL0     C12981   2.436   8.165   0.794 -0.9344 -0.0418 -0.9663
   99MOL0     C12982   2.345   8.270   0.776 -0.4496 -0.2712  0.1315
   99MOL0     O12983   2.000   8.269   0.789 -0.6778 -0.2537 -0.0439
   99MOL0     C12984   2.002   8.620   0.888 -0.0500 -0.3688 -0.4093
   99MOL0     C12985   1.921   8.733   0.880  0.5100 -0.3347  0.5057
   99MOL0     N12986   1.188   9.072   0.939  0.3544 -0.2787 -0.5966
   99MOL0     N12987   1.159   9.144   1.046  0.6379  0.1092  0.3834
   99MOL0     C12988   1.855   8.870   1.227 -1.1142  0.1155 -0.2510
   99MOL0     C12989   1.888   8.736   1.234  0.9276 -0.2593 -1.5679
   99MOL0     C12990   2.170   8.395   1.405  0.7306 -0.2766  1.2172
   99MOL0     C12991   2.144   8.298   1.316  0.2922  0.7483 -0.2898
   99MOL0     C12992   2.188   8.171   1.347  0.1237 -0.0369  0.3874
   99MOL0     C12993   2.254   8.134   1.464 -1.0412 -0.1048 -0.0738
   99MOL0     O12994   2.277   8.001   1.495  0.3303 -0.3615 -0.2517
   99MOL0     C12995   2.389   7.967   1.568  0.5095  0.7887 -0.2352
   99MOL0     C12996   2.399   7.808   1.577  0.6125 -0.1384  0.1871
   99MOL0     C12997   2.294   7.753   1.664  0.0377  0.5773  0.1299
   99MOL0     C12998   2.184   7.687   1.582  0.3126 -0.5699 -0.8300
   99MOL0     C12999   2.226   7.568   1.507  0.1801  0.4681 -0.4997
   99MOL0     C13000   2.246   7.459   1.442  0.3267  0.7164  0.6798
   99MOL0     C13001   2.281   8.247   1.551  0.0321 -0.2773 -0.3502
   99MOL0     C13002   2.240   8.378   1.527  0.1435 -0.3547  1.0710
   99MOL0     H13003   2.217   8.740   1.181  0.1034  0.6444 -3.8515
   99MOL0     H13004   2.168   8.979   1.139  0.1900 -0.3323 -2.2978
   99MOL0     H13005   1.985   9.157   1.017 -1.4571 -1.4676 -0.3098
   99MOL0     H13006   2.101   9.193   1.148  0.3506 -4.2144  3.0975
   99MOL0     H13007   1.977   9.393   1.061  2.3943  1.2560  2.2326
   99MOL0     H13008   1.935   9.367   1.228 -0.6870 -3.6195  1.5138
   99MOL0     H13009   1.736   9.210   1.113  2.3403  0.0528  2.3321
   99MOL0     H13010   1.779   9.300   0.980  2.6204 -0.9200 -0.4737
   99MOL0     H13011   1.704   9.422   1.254  0.7554  4.6380 -0.8433
   99MOL0     H13012   1.732   9.522   1.107 -1.3299 -0.9091 -3.4498
   99MOL0     H13013   1.527   9.395   1.016 -1.3623  0.3854  0.9448
   99MOL0     H13014   1.488   9.502   1.145  0.6440  0.0894 -0.0555
   99MOL0     H13015   1.553   9.261   1.278  1.1796 -0.4180 -0.4962
   99MOL0     H13016   1.467   9.217   1.124 -1.7705 -0.2697  0.7495
   99MOL0     H13017   1.324   9.270   1.328  0.7146  2.0611  1.5844
   99MOL0     H13018   1.357   9.438   1.305 -1.2097  0.1841 -1.3084
   99MOL0     H13019   1.274   9.455   1.089  3.7287  0.1744  0.4924
   99MOL0     H13020   1.144   9.380   1.190 -0.5213  3.6073 -1.2386
   99MOL0     H13021   1.376   9.334   0.881 -1.7388  2.2677  1.7546
   99MOL0     H13022   1.423   9.183   0.720 -0.2920  0.4909  0.2461
   99MOL0     H13023   1.290   9.081   0.657 -0.2749  0.1432  0.6425
   99MOL0     H13024   1.517   8.958   0.680  2.1794 -0.4821  0.9994
   99MOL0     H13025   1.405   8.891   0.803 -0.7116  0.3400 -2.6374
   99MOL0     H13026   1.586   9.127   0.870 -1.6016  1.6520  0.8410
   99MOL0     H13027   1.508   9.002   0.975  0.0357 -4.0719 -0.7617
   99MOL0     H13028   1.741   8.974   0.971  2.1734  0.0619 -0.6684
   99MOL0     H13029   1.756   9.015   0.803 -1.2265  3.4860  1.6881
   99MOL0     H13030   1.645   8.574   0.748  0.1572 -0.4051 -4.8367
   99MOL0     H13031   1.791   8.396   0.752  0.2017  0.2498 -1.0567
   99MOL0     H13032   2.142   8.170   1.025 -0.2004 -2.7308 -2.8432
   99MOL0     H13033   2.311   7.978   1.023  0.6594  0.2300 -0.2456
   99MOL0     H13034   2.355   7.843   0.782 -0.4491  0.0157  0.9755
   99MOL0     H13035   2.420   7.775   0.935  2.2548 -0.0403 -0.0557
   99MOL0     H13036   2.471   7.639   0.735 -0.7198 -1.0377  3.7918
   99MOL0     H13037   2.619   7.693   0.811 -0.2363 -1.4610  0.5061
   99MOL0     H13038   2.619   7.895   0.651 -2.5810  1.2916  1.3004
   99MOL0     H13039   2.477   7.815   0.569  0.7314 -0.8348 -1.4966
   99MOL0     H13040   2.774   7.719   0.585  0.1567 -2.1599  0.4881
   99MOL0     H13041   2.628   7.616   0.541  0.2142  0.6558  2.0352
   99MOL0     H13042   2.755   7.881   0.437 -1.7900  0.5910  0.9507
   99MOL0     H13043   2.616   7.799   0.358 -1.1090 -0.3373  2.4155
   99MOL0     H13044   2.724   7.584   0.318  1.7179 -0.8712 -2.7315
   99MOL0     H13045   2.873   7.631   0.386  2.3711  0.6510 -0.6794
   99MOL0     H13046   2.890   7.827   0.218  3.0448 -1.4643  1.2263
   99MOL0     H13047   2.915   7.664   0.163 -0.7893 -0.5103 -1.0260
   99MOL0     H13048   2.671   7.835   0.096 -0.8336  0.0620  0.9663
   99MOL0     H13049   2.668   7.660   0.089 -0.9142  1.1632  1.8294
   99MOL0     H13050   2.514   8.157   0.719  0.7884 -2.0722  0.9142
   99MOL0     H13051   2.363   8.354   0.709  0.6921  0.5290  1.4109
   99MOL0     H13052   2.102   8.620   0.932 -2.2083 -1.6124  5.4367
   99MOL0     H13053   1.952   8.830   0.917  1.7145 -1.0891  1.5275
   99MOL0     H13054   1.759   8.921   1.230 -1.0699  0.1800  0.3019
   99MOL0     H13055   1.811   8.670   1.272  0.6646  2.3588  3.2493
   99MOL0     H13056   2.093   8.320   1.223 -3.4484 -0.8951  1.1849
   99MOL0     H13057   2.158   8.093   1.277  2.6137 -0.1381 -0.6463
   99MOL0     H13058   2.397   8.012   1.667 -2.0409 -1.1634  0.9714
   99MOL0     H13059   2.478   7.994   1.511  0.4303  0.9533 -0.2846
   99MOL0     H13060   2.398   7.763   1.478  1.0967 -0.1247  0.1742
   99MOL0     H13061   2.491   7.781   1.630 -0.1642 -0.8908  1.1776
   99MOL0     H13062   2.248   7.828   1.727  1.8297  1.3323  0.6141
   99MOL0     H13063   2.332   7.678   1.734 -1.6840 -0.4421  0.0202
   99MOL0     H13064   2.099   7.662   1.647 -0.0547  0.5856 -0.8455
   99MOL0     H13065   2.143   7.760   1.512 -2.1912  0.1912  1.2545
   99MOL0     H13066   2.240   7.367   1.387  0.2490 -0.5351  2.7002
   99MOL0     H13067   2.339   8.221   1.639  2.1178  3.4944 -0.3915
   99MOL0     H13068   2.262   8.461   1.594  0.2646  1.2601 -0.8793
  100MOL0     O13069   5.615   3.768   0.590  0.5328  0.5580 -0.0379
  100MOL0     C13070   5.590   3.885   0.584  0.0459 -0.0573 -0.0235
  100MOL0     O13071   5.638   3.972   0.501 -0.0619  0.1414  0.3640
  100MOL0     C13072   5.746   3.934   0.418  0.2974 -0.4696  0.0579
  100MOL0     C13073   5.720   3.913   0.279  0.6189 -0.6891 -0.9391
  100MOL0     C13074   5.814   3.872   0.187 -0.6609  0.6160 -0.8495
  100MOL0     C13075   5.942   3.836   0.242 -0.6824 -0.1942  0.0400
  100MOL0     O13076   6.051   3.787   0.171 -1.1147  0.1460  0.0275
  100MOL0     C13077   6.025   3.662   0.111 -0.7409 -0.7181  0.1833
  100MOL0     C13078   6.131   3.569   0.175 -0.0828 -0.5202  0.1656
  100MOL0     C13079   6.093   3.518   0.324 -0.7580 -0.0536  0.8526
  100MOL0     C13080   5.958   3.459   0.340 -0.0873  0.6684  0.2270
  100MOL0     C13081   5.939   3.401   0.483  0.0985 -1.2103  0.0697
  100MOL0     C13082   5.804   3.358   0.509  0.5861  0.3978  0.5415
  100MOL0     C13083   5.783   3.318   0.653  0.2868 -0.6905 -0.1036
  100MOL0     C13084   5.663   3.396   0.711 -0.1491 -0.4957 -0.0642
  100MOL0     N13085   5.639   3.355   0.855  0.3803  0.0637  0.2506
  100MOL0     C13086   5.737   3.344   0.951 -0.6903 -0.6429  0.8841
  100MOL0     C13087   5.669   3.322   1.065  0.0472  0.8405 -0.4772
  100MOL0     C13088   5.723   3.310   1.207 -0.2650 -0.2371  0.0476
  100MOL0     C13089   5.800   3.438   1.253  0.3377  0.1341 -0.4168
  100MOL0     C13090   5.939   3.467   1.170  0.7461 -0.1737  0.1162
  100MOL0     C13091   6.027   3.556   1.270  0.6743 -0.1826 -0.0533
  100MOL0     O13092   6.158   3.539   1.217 -0.0042  0.2568  0.2070
  100MOL0     C13093   6.262   3.614   1.270 -0.2945  0.2135  0.0329
  100MOL0     C13094   6.381   3.592   1.208 -0.3421 -0.8230 -0.8866
  100MOL0     C13095   6.498   3.658   1.260 -0.0403  0.4889  1.3965
  100MOL0     C13096   6.489   3.743   1.373  0.0542 -0.6336 -0.6026
  100MOL0     C13097   6.608   3.810   1.437  0.2994  1.1676  0.2037
  100MOL0     O13098   6.579   3.882   1.546 -0.1398 -0.8610  0.0748
  100MOL0     C13099   6.672   3.920   1.630 -0.2733 -0.7563  1.4777
  100MOL0     C13100   6.660   3.897   1.767 -0.0888  0.4672 -0.8582
  100MOL0     C13101   6.750   3.960   1.858  0.2302 -0.3383  0.0956
  100MOL0     C13102   6.857   4.043   1.810  0.9779  0.5930 -0.4298
  100MOL0     O13103   6.928   4.088   1.915 -0.3510 -0.7935  0.1243
  100MOL0     C13104   7.012   4.198   1.894 -0.1177  0.1105  0.8092
  100MOL0     C13105   7.080   4.245   2.024  0.3759  1.1124 -1.4027
  100MOL0     C13106   6.975   4.272   2.138 -0.6684 -1.2194  0.5858
  100MOL0     C13107   7.045   4.335   2.252  0.2567 -1.2448  0.6134
  100MOL0     C13108   6.942   4.368   2.369  0.4013  0.0177  0.0567
  100MOL0     C13109   7.003   4.439   2.480 -0.4218 -0.0739 -0.1021
  100MOL0     C13110   7.074   4.564   2.442  0.2191  0.0898  0.2868
  100MOL0     C13111   7.102   4.658   2.564  0.3696 -1.0819 -0.7314
  100MOL0    Cl13112   7.261   4.606   2.618  0.1647  0.5887  0.1050
  100MOL0     C13113   6.871   4.055   1.673 -0.3071 -0.0195 -0.2317
  100MOL0     C13114   6.785   3.988   1.583  1.6914 -0.6024  0.2386
  100MOL0     O13115   6.724   3.779   1.392 -0.0098 -0.0743 -0.1777
  100MOL0     C13116   6.359   3.767   1.425 -0.3999 -0.2678  0.1672
  100MOL0     C13117   6.249   3.700   1.376  1.0399  0.1895  0.2209
  100MOL0     N13118   5.538   3.318   1.040 -0.5912  0.1365 -0.4817
  100MOL0     N13119   5.518   3.327   0.911  0.0112 -0.7053 -0.4363
  100MOL0     C13120   5.973   3.863   0.379  0.0769  0.7983  0.4630
  100MOL0     C13121   5.874   3.914   0.468  0.3237  0.3915 -0.4497
  100MOL0     C13122   5.474   3.922   0.663  0.8219 -1.3225 -0.4128
  100MOL0     C13123   5.410   3.822   0.756 -0.5647 -0.3262 -0.2218
  100MOL0     C13124   5.298   3.856   0.832 -0.1720 -0.0757  0.8824
  100MOL0     C13125   5.242   3.979   0.822 -0.4347 -0.0649  0.4212
  100MOL0     O13126   5.145   4.008   0.910 -0.0148 -0.1432  0.6648
  100MOL0     C13127   5.075   4.133   0.901 -0.3714 -0.5361  0.8438
  100MOL0     C13128   4.961   4.136   0.789  0.4107 -0.1411  0.2575
  100MOL0     C13129   4.868   4.022   0.824 -0.1817  0.9748  0.7965
  100MOL0     C13130   4.751   4.025   0.730 -0.0691  0.3236 -0.1641
  100MOL0     C13131   4.682   4.147   0.746  1.2567 -0.7230  0.0565
  100MOL0     C13132   4.638   4.261   0.752  0.4263  0.0172  0.0469
  100MOL0     C13133   5.298   4.071   0.725  0.8927  0.1056  0.5339
  100MOL0     C13134   5.418   4.054   0.650  0.3308 -0.8870 -0.4733
  100MOL0     H13135   5.625   3.951   0.242  0.1227  2.3071  2.7264
  100MOL0     H13136   5.787   3.858   0.083  2.4293 -1.2257 -1.5236
  100MOL0     H13137   6.036   3.666   0.003 -1.1196  0.7409  0.1769
  100MOL0     H13138   5.922   3.626   0.124 -0.7824 -0.8190 -0.3859
  100MOL0     H13139   6.225   3.624   0.187 -1.1242  1.0071  1.7881
  100MOL0     H13140   6.147   3.480   0.114  0.1254  0.3214 -1.0501
  100MOL0     H13141   6.098   3.609   0.384 -3.0210 -1.0396  2.6713
  100MOL0     H13142   6.176   3.461   0.365 -1.4154  1.1362  4.1392
  100MOL0     H13143   5.877   3.525   0.310 -0.8488 -0.4164 -0.1732
  100MOL0     H13144   5.960   3.383   0.261 -0.8326  0.1624  0.6814
  100MOL0     H13145   5.964   3.488   0.544  0.2002 -0.8285 -0.5141
  100MOL0     H13146   6.010   3.319   0.503  1.1033 -0.2190  0.6908
  100MOL0     H13147   5.787   3.264   0.455 -1.5281 -0.6338  2.8147
  100MOL0     H13148   5.736   3.432   0.467  0.7542 -0.4463 -1.3257
  100MOL0     H13149   5.751   3.215   0.671 -2.3959  0.3549  1.8063
  100MOL0     H13150   5.875   3.334   0.709 -0.2084  1.2466  0.2222
  100MOL0     H13151   5.566   3.373   0.665 -0.8468  0.6879  0.7484
  100MOL0     H13152   5.682   3.503   0.701  1.0492 -0.3732  2.6912
  100MOL0     H13153   5.843   3.355   0.931 -1.1269  0.5530 -0.9905
  100MOL0     H13154   5.804   3.237   1.217  0.4104  0.4626 -0.2331
  100MOL0     H13155   5.632   3.293   1.264 -2.0500 -1.4290 -2.9431
  100MOL0     H13156   5.801   3.436   1.363  2.6189 -0.4502 -0.4014
  100MOL0     H13157   5.729   3.516   1.223  2.6950  1.8882 -1.7038
  100MOL0     H13158   6.004   3.382   1.145  0.5015  0.1752 -1.7932
  100MOL0     H13159   5.916   3.522   1.079  3.4754  0.7239 -0.1118
  100MOL0     H13160   6.025   3.533   1.377  4.0094 -3.1819 -0.4532
  100MOL0     H13161   5.994   3.660   1.266 -0.8318 -0.6458 -0.0446
  100MOL0     H13162   6.392   3.536   1.116 -4.8354 -2.1916 -0.8242
  100MOL0     H13163   6.594   3.655   1.210 -0.1305 -0.9417  1.2499
  100MOL0     H13164   6.575   3.843   1.806  1.9131 -2.7062 -0.5441
  100MOL0     H13165   6.726   3.945   1.963  0.5943  0.6064  0.3227
  100MOL0     H13166   6.959   4.286   1.859 -1.4843  0.4292  3.3850
  100MOL0     H13167   7.094   4.184   1.823 -1.3358  0.5523 -0.7073
  100MOL0     H13168   7.123   4.343   1.999 -0.0381  1.5023 -0.6410
  100MOL0     H13169   7.161   4.174   2.044  0.6757  1.4052 -1.5518
  100MOL0     H13170   6.924   4.182   2.175  0.7481 -2.1820  0.2758
  100MOL0     H13171   6.900   4.341   2.098  0.7498  0.2024  0.2744
  100MOL0     H13172   7.130   4.277   2.291  0.1875 -1.1820  0.8622
  100MOL0     H13173   7.085   4.431   2.219 -0.1380 -1.2822  0.0329
  100MOL0     H13174   6.894   4.273   2.394  1.4682 -1.0443 -1.7258
  100MOL0     H13175   6.855   4.428   2.338  2.2909  2.3784 -0.9415
  100MOL0     H13176   7.074   4.373   2.530  0.8700  1.2467 -0.1343
  100MOL0     H13177   6.923   4.470   2.548  0.3586  0.9967  0.3462
  100MOL0     H13178   7.169   4.532   2.396 -0.0363  2.1651 -1.9033
  100MOL0     H13179   7.012   4.619   2.371 -3.1982 -3.1264  0.4367
  100MOL0     H13180   7.030   4.651   2.647  1.0718  0.6003  0.0655
  100MOL0     H13181   7.116   4.757   2.521 -2.7648 -1.3481 -2.7551
  100MOL0     H13182   6.957   4.101   1.625  0.1885 -0.5877  0.0987
  100MOL0     H13183   6.814   4.008   1.480  2.8754 -0.9794  0.4765
  100MOL0     H13184   6.339   3.844   1.499  0.1392  0.2013 -0.1668
  100MOL0     H13185   6.152   3.709   1.424 -0.4430 -2.7973 -1.8553
  100MOL0     H13186   6.075   3.848   0.414 -1.2816 -1.1045  4.0653
  100MOL0     H13187   5.881   3.914   0.576 -2.2145 -0.0479 -0.2224
  100MOL0     H13188   5.446   3.720   0.762 -1.0269 -0.6493 -2.1785
  100MOL0     H13189   5.254   3.786   0.901  0.6424 -0.5924  0.8926
  100MOL0     H13190   5.147   4.215   0.887 -0.5381 -0.1503  2.1053
  100MOL0     H13191   5.038   4.154   1.001  1.5953 -1.9128  1.9279
  100MOL0     H13192   4.920   4.236   0.806 -0.3287 -0.4251  0.1690
  100MOL0     H13193   5.012   4.118   0.694  0.2244 -2.8745  0.5704
  100MOL0     H13194   4.847   4.033   0.931  0.2067  1.1231  0.8600
  100MOL0     H13195   4.917   3.925   0.815 -1.4512  0.4965 -1.8910
  100MOL0     H13196   4.786   4.023   0.627 -1.1073  0.0561 -0.5285
  100MOL0     H13197   4.679   3.944   0.744  0.9537 -0.9010 -1.6932
  100MOL0     H13198   4.607   4.363   0.758  2.1483  0.8196 -2.7842
  100MOL0     H13199   5.246   4.162   0.697  1.4063  0.3846  0.4811
  100MOL0     H13200   5.452   4.136   0.588  2.8722 -0.1096  1.7459
  101MOL0     O13201   1.155   5.767   5.655  0.5101 -0.5014 -0.2866
  101MOL0     C13202   1.063   5.812   5.723 -0.8847  0.2914 -1.1582
  101MOL0     O13203   1.083   5.880   5.838 -0.0807  2.1062 -0.4484
  101MOL0     C13204   1.209   5.893   5.894  0.3635  0.4523  0.1196
  101MOL0     C13205   1.303   5.783   5.896  0.6595 -0.0160  0.7186
  101MOL0     C13206   1.440   5.799   5.923 -0.9541  0.4624 -0.4022
  101MOL0     C13207   1.481   5.921   5.973  0.4467  0.5019 -0.8865
  101MOL0     O13208   1.609   5.948   6.019 -0.0095  0.3273 -0.1669
  101MOL0     C13209   1.693   5.848   6.075 -0.9500  0.5498 -0.0093
  101MOL0     C13210   1.828   5.884   6.026  0.8299 -0.0386 -0.2524
  101MOL0     C13211   1.885   5.991   6.124 -0.1961 -0.3825 -0.3729
  101MOL0     C13212   2.030   6.031   6.084 -0.2293 -0.3537 -0.5225
  101MOL0     C13213   2.074   6.147   6.176 -0.1581 -0.1594 -0.3739
  101MOL0     C13214   2.082   6.105   6.320  0.1350  0.8407  0.5191
  101MOL0     C13215   2.148   6.216   6.395  0.2487  0.2042  0.6740
  101MOL0     C13216   2.161   6.194   6.547  0.0216  0.2154  0.3329
  101MOL0     N13217   2.270   6.103   6.597  0.4771 -0.0221 -0.0303
  101MOL0     C13218   2.265   5.993   6.675  0.3669  0.4516 -0.3897
  101MOL0     C13219   2.395   5.950   6.695 -0.7825  0.4405 -0.1686
  101MOL0     C13220   2.427   5.818   6.748 -0.4941 -0.2850 -0.4717
  101MOL0     C13221   2.418   5.792   6.898 -0.0037  0.4623  0.3596
  101MOL0     C13222   2.429   5.642   6.939 -0.6180  0.2797  0.1729
  101MOL0     C13223   2.560   5.567   6.872  1.1142 -0.3554  0.0837
  101MOL0     O13224   2.680   5.639   6.902  0.9686 -1.2539  1.0120
  101MOL0     C13225   2.751   5.599   7.010 -1.1377  0.3043  1.0712
  101MOL0     C13226   2.817   5.477   7.028 -0.2412 -0.4905  0.0969
  101MOL0     C13227   2.875   5.434   7.149  0.0911  0.6114  0.1023
  101MOL0     C13228   2.897   5.529   7.248  0.7268 -0.9199 -0.4931
  101MOL0     C13229   2.981   5.516   7.367  0.3802  0.3301 -0.3592
  101MOL0     O13230   3.028   5.388   7.378  0.5978 -0.2079  0.4883
  101MOL0     C13231   3.098   5.348   7.487 -0.2531 -0.6752  0.0027
  101MOL0     C13232   3.023   5.309   7.599  0.7320  0.3302 -0.3177
  101MOL0     C13233   3.094   5.279   7.726  1.1656  0.4874 -0.3701
  101MOL0     C13234   3.230   5.284   7.743 -0.0821  0.9527  0.2241
  101MOL0     O13235   3.294   5.263   7.865  0.0874 -0.5363 -0.5770
  101MOL0     C13236   3.239   5.169   7.955 -0.2250 -0.6427  0.1385
  101MOL0     C13237   3.347   5.110   8.041 -0.1148 -0.2645 -0.0853
  101MOL0     C13238   3.453   5.032   7.956  0.6925 -0.8079  0.3120
  101MOL0     C13239   3.386   4.945   7.837 -0.4038 -0.0375  0.1599
  101MOL0     C13240   3.486   4.832   7.788 -0.9269  0.6965  0.3228
  101MOL0     C13241   3.420   4.740   7.681 -0.3959  0.1088 -0.2670
  101MOL0     C13242   3.378   4.810   7.548 -0.3422  0.0074  0.0559
  101MOL0     C13243   3.277   4.744   7.460 -0.1429  0.6840  0.1482
  101MOL0    Cl13244   3.326   4.598   7.370  0.0825  0.1658  0.4420
  101MOL0     C13245   3.305   5.327   7.633  0.6865  0.1070  0.5101
  101MOL0     C13246   3.236   5.359   7.507 -0.0970  1.4491  0.2597
  101MOL0     O13247   3.012   5.610   7.442 -0.3743 -0.8553  0.1389
  101MOL0     C13248   2.840   5.660   7.226 -0.7605  0.3105  0.3116
  101MOL0     C13249   2.771   5.694   7.113 -0.5702 -0.1493  0.4107
  101MOL0     N13250   2.470   6.037   6.615 -0.6376  1.0450  0.0067
  101MOL0     N13251   2.394   6.120   6.556  0.1369  1.4120  0.4274
  101MOL0     C13252   1.396   6.034   5.971  0.2614 -0.1135  0.4988
  101MOL0     C13253   1.259   6.025   5.927 -0.4649 -0.4368 -1.0607
  101MOL0     C13254   0.927   5.771   5.682  0.1336 -0.4485  0.1747
  101MOL0     C13255   0.915   5.660   5.597 -0.4412  0.2346 -0.4554
  101MOL0     C13256   0.794   5.612   5.548  0.7510  0.4295  0.6480
  101MOL0     C13257   0.678   5.646   5.607  0.6316 -0.0144  0.1004
  101MOL0     O13258   0.551   5.604   5.588  0.3228 -0.0624  0.9471
  101MOL0     C13259   0.523   5.513   5.484 -0.3469  0.3415 -0.1179
  101MOL0     C13260   0.390   5.449   5.520  0.6733  0.2770  0.5465
  101MOL0     C13261   0.403   5.322   5.616 -0.0354 -0.4260 -0.5205
  101MOL0     C13262   0.269   5.261   5.653 -0.0658  0.4529  0.5414
  101MOL0     C13263   0.274   5.144   5.748  0.6689 -0.2660  1.0796
  101MOL0     C13264   0.260   5.051   5.822  0.9044  0.2910 -0.3430
  101MOL0     C13265   0.682   5.754   5.704  0.1884 -0.4404 -0.1293
  101MOL0     C13266   0.810   5.814   5.739  0.4831 -0.4645  0.4015
  101MOL0     H13267   1.262   5.686   5.868 -1.2771  0.9177  0.2159
  101MOL0     H13268   1.509   5.717   5.912 -2.2236 -0.2760 -4.3281
  101MOL0     H13269   1.669   5.748   6.039  1.1419  0.9930 -2.9816
  101MOL0     H13270   1.694   5.860   6.184 -4.1332  0.2746  0.1556
  101MOL0     H13271   1.827   5.917   5.922  1.6086 -3.5072 -1.5053
  101MOL0     H13272   1.884   5.791   6.037 -2.3919 -1.9480  1.6273
  101MOL0     H13273   1.887   5.950   6.226  2.6634 -0.7266 -0.4787
  101MOL0     H13274   1.818   6.078   6.130 -3.7784 -2.9496  0.3690
  101MOL0     H13275   2.101   5.948   6.070 -0.0903  0.0590 -2.7034
  101MOL0     H13276   2.018   6.063   5.980  2.9716 -4.2014 -2.3828
  101MOL0     H13277   2.029   6.245   6.158  1.5568  0.5008 -1.3527
  101MOL0     H13278   2.180   6.172   6.162  0.1816  0.6087  2.8368
  101MOL0     H13279   2.137   6.011   6.325 -0.2999  0.5493 -0.0741
  101MOL0     H13280   1.982   6.091   6.361 -0.1040  1.7384  0.2527
  101MOL0     H13281   2.251   6.232   6.360  0.6591  1.5783  2.3932
  101MOL0     H13282   2.097   6.310   6.376  0.1916  0.3218  1.3972
  101MOL0     H13283   2.064   6.159   6.585  1.0703 -4.4602 -0.6609
  101MOL0     H13284   2.193   6.291   6.586 -0.2481  0.6303 -0.4584
  101MOL0     H13285   2.185   5.934   6.719  1.1045  0.1023  0.5340
  101MOL0     H13286   2.530   5.790   6.725 -0.8766 -2.1360 -0.1771
  101MOL0     H13287   2.367   5.749   6.687  1.6749 -0.8710 -2.0908
  101MOL0     H13288   2.314   5.825   6.907 -0.0851 -0.1861  2.1940
  101MOL0     H13289   2.498   5.847   6.948  2.1271  1.1335 -3.4001
  101MOL0     H13290   2.431   5.632   7.047 -2.0290 -1.4417  0.0814
  101MOL0     H13291   2.348   5.586   6.891  0.4086 -0.2833 -0.9820
  101MOL0     H13292   2.536   5.587   6.767  1.2944  1.0463  0.2832
  101MOL0     H13293   2.569   5.459   6.883  0.3335 -0.6248 -1.6452
  101MOL0     H13294   2.817   5.404   6.947  3.5341 -0.6349  0.0484
  101MOL0     H13295   2.909   5.331   7.156  0.4947  0.8344  1.8216
  101MOL0     H13296   2.914   5.308   7.602  0.5918 -2.2739 -2.3450
  101MOL0     H13297   3.045   5.262   7.822  1.2760  1.7372 -0.0781
  101MOL0     H13298   3.184   5.093   7.900  1.9007  0.1845 -3.4818
  101MOL0     H13299   3.164   5.222   8.014 -0.5340 -1.2293  0.2767
  101MOL0     H13300   3.296   5.058   8.123  2.0929  0.2074  1.6905
  101MOL0     H13301   3.396   5.192   8.094  0.1082  0.5436 -1.5021
  101MOL0     H13302   3.495   4.964   8.030  0.0960  0.6850  2.1095
  101MOL0     H13303   3.528   5.100   7.915 -0.1648 -1.1967 -2.0885
  101MOL0     H13304   3.296   4.893   7.871  1.5888 -1.8893  3.0409
  101MOL0     H13305   3.367   5.026   7.765  0.5902 -0.2948 -0.4072
  101MOL0     H13306   3.516   4.762   7.866  1.4801  1.6795  0.3651
  101MOL0     H13307   3.576   4.886   7.755 -1.1497 -0.2985 -2.0884
  101MOL0     H13308   3.336   4.691   7.731 -0.0983  0.4999  0.6340
  101MOL0     H13309   3.490   4.657   7.666  0.6180  0.0856  3.6663
  101MOL0     H13310   3.327   4.906   7.566 -1.1707 -0.6436  1.3628
  101MOL0     H13311   3.468   4.834   7.490 -0.5365 -1.5947 -0.9490
  101MOL0     H13312   3.252   4.811   7.377  1.5903  1.5806  0.3138
  101MOL0     H13313   3.183   4.719   7.510 -1.1778 -0.4674 -2.1924
  101MOL0     H13314   3.413   5.327   7.627  0.6147 -0.0368 -3.5251
  101MOL0     H13315   3.302   5.400   7.431  0.1783 -0.9781 -0.8774
  101MOL0     H13316   2.866   5.732   7.303  1.9257 -2.7334  2.5617
  101MOL0     H13317   2.744   5.799   7.115 -1.3733 -0.1915  5.4146
  101MOL0     H13318   1.452   6.124   5.993 -0.8668  0.9461 -0.7687
  101MOL0     H13319   1.203   6.117   5.916  0.8822  0.3389 -1.6284
  101MOL0     H13320   0.999   5.607   5.553 -0.4084 -0.9275  0.9236
  101MOL0     H13321   0.797   5.535   5.472 -1.2021 -0.5758  1.5338
  101MOL0     H13322   0.597   5.438   5.454 -0.3835  1.5169 -3.7039
  101MOL0     H13323   0.507   5.575   5.395  0.2063  0.2646 -0.2778
  101MOL0     H13324   0.320   5.515   5.572  0.2068 -0.2782  0.6197
  101MOL0     H13325   0.343   5.407   5.431 -1.7036  3.2719  0.1925
  101MOL0     H13326   0.463   5.354   5.702  2.1413  0.3688 -2.2549
  101MOL0     H13327   0.452   5.236   5.569 -2.8812 -1.4735 -1.8016
  101MOL0     H13328   0.211   5.347   5.691 -1.2461  0.2471 -0.7002
  101MOL0     H13329   0.220   5.219   5.564  0.2774 -3.3202  1.9814
  101MOL0     H13330   0.232   4.976   5.894 -0.4932  2.3083  1.3754
  101MOL0     H13331   0.590   5.789   5.749  1.0806 -0.6305  1.9764
  101MOL0     H13332   0.815   5.897   5.808  2.1345 -0.5590  0.4161
  102MOL0     O13333   3.142   7.203   3.397  0.0706 -0.5634 -0.6367
  102MOL0     C13334   3.205   7.125   3.329 -0.1695 -1.2005  0.1246
  102MOL0     O13335   3.336   7.096   3.335 -0.3626 -0.2388  0.1391
  102MOL0     C13336   3.420   7.166   3.419  0.2656 -0.0182 -0.3360
  102MOL0     C13337   3.537   7.194   3.357 -0.2714 -0.1432  0.7873
  102MOL0     C13338   3.644   7.255   3.435  0.3637  0.0928 -0.1548
  102MOL0     C13339   3.632   7.280   3.572  0.1219 -0.6562 -0.2121
  102MOL0     O13340   3.724   7.332   3.658 -0.1211 -0.0055  0.6834
  102MOL0     C13341   3.859   7.360   3.614 -0.3324  0.4582 -0.1940
  102MOL0     C13342   3.913   7.448   3.721 -0.1843 -0.2691 -0.3818
  102MOL0     C13343   4.061   7.488   3.681 -0.1478 -0.0669  0.4607
  102MOL0     C13344   4.132   7.569   3.773  0.6899  1.0156  0.6248
  102MOL0     C13345   4.261   7.618   3.715  0.7248 -0.4187 -0.4618
  102MOL0     C13346   4.349   7.699   3.814 -0.1385  1.3691 -1.9727
  102MOL0     C13347   4.485   7.716   3.760  0.3115  0.5354  0.5877
  102MOL0     C13348   4.577   7.727   3.886 -0.2725  0.1862 -0.2955
  102MOL0     N13349   4.706   7.775   3.842 -0.4377 -0.3601  0.3009
  102MOL0     C13350   4.824   7.735   3.899 -0.7934  0.4937  1.3310
  102MOL0     C13351   4.916   7.799   3.817  0.4913  1.4555 -0.1861
  102MOL0     C13352   5.073   7.787   3.826  0.0561  0.5654 -0.1489
  102MOL0     C13353   5.111   7.671   3.724 -0.8197 -0.3561 -0.3996
  102MOL0     C13354   5.256   7.674   3.693 -0.2953  0.7617 -0.0054
  102MOL0     C13355   5.290   7.609   3.560 -0.7887 -0.7363  0.0316
  102MOL0     O13356   5.235   7.477   3.560  0.6663 -0.8082  0.4929
  102MOL0     C13357   5.261   7.396   3.449  0.8052 -0.2129 -1.7927
  102MOL0     C13358   5.191   7.277   3.454 -0.2870 -0.1750  0.4892
  102MOL0     C13359   5.190   7.196   3.339  1.3680  0.8779  0.6763
  102MOL0     C13360   5.269   7.227   3.223  0.2787 -0.2581 -0.6701
  102MOL0     C13361   5.273   7.132   3.119 -0.3472 -0.0443 -0.8668
  102MOL0     O13362   5.184   7.023   3.122  0.4946  0.8967  0.2695
  102MOL0     C13363   5.194   6.919   3.027  0.9165  0.3625 -0.8099
  102MOL0     C13364   5.316   6.856   2.990 -0.0300  0.3132  0.5273
  102MOL0     C13365   5.303   6.756   2.889 -0.1208 -0.4082  0.2605
  102MOL0     C13366   5.188   6.716   2.827 -0.1534  0.5445  1.1508
  102MOL0     O13367   5.175   6.614   2.744 -0.2427 -0.3980  0.3803
  102MOL0     C13368   5.256   6.641   2.626 -1.4506  0.2296  0.3340
  102MOL0     C13369   5.351   6.522   2.587 -0.7867  1.4091  0.1166
  102MOL0     C13370   5.426   6.550   2.446  0.2142 -0.4770  0.4529
  102MOL0     C13371   5.334   6.570   2.323  0.6220 -0.3534  0.5625
  102MOL0     C13372   5.255   6.447   2.277  0.0727 -0.4399  0.1113
  102MOL0     C13373   5.128   6.412   2.346 -0.1976 -0.4770 -0.4302
  102MOL0     C13374   5.044   6.295   2.283  0.8292  0.3168  0.6321
  102MOL0     C13375   4.950   6.242   2.381  0.4694 -0.3066 -0.7846
  102MOL0    Cl13376   5.036   6.178   2.529 -0.2662 -0.6837 -0.0447
  102MOL0     C13377   5.067   6.777   2.872 -0.3113 -1.3829 -0.2484
  102MOL0     C13378   5.071   6.868   2.985 -0.2489 -0.0555 -0.2764
  102MOL0     O13379   5.351   7.157   3.027  0.5033 -0.0932  0.2488
  102MOL0     C13380   5.348   7.345   3.231 -0.1885  0.3530  0.7813
  102MOL0     C13381   5.344   7.423   3.344  0.5270  0.0879  0.5390
  102MOL0     N13382   4.856   7.878   3.724 -0.2051  0.2528  0.6568
  102MOL0     N13383   4.724   7.854   3.731 -0.6632 -0.1310 -0.3289
  102MOL0     C13384   3.501   7.254   3.635 -0.2150 -1.1319 -0.2505
  102MOL0     C13385   3.396   7.208   3.552 -0.0047  0.0997  0.4965
  102MOL0     C13386   3.120   7.053   3.229  0.2265 -0.1145 -0.7141
  102MOL0     C13387   3.178   7.024   3.098  0.2875 -0.5521 -0.3129
  102MOL0     C13388   3.094   6.988   2.994 -1.1789  1.2668 -0.0373
  102MOL0     C13389   2.953   6.966   3.022 -0.4911 -0.4030 -0.2218
  102MOL0     O13390   2.866   6.909   2.932 -0.5912 -0.2278 -0.6159
  102MOL0     C13391   2.896   6.774   2.883  0.4280  0.8170 -0.1668
  102MOL0     C13392   2.862   6.676   2.998  0.4347 -0.0962  0.5751
  102MOL0     C13393   2.727   6.684   3.057  0.7122  0.7572  0.0639
  102MOL0     C13394   2.681   6.568   3.157 -0.0269 -0.4621  0.2387
  102MOL0     C13395   2.537   6.579   3.202  0.1027 -0.7729 -0.3015
  102MOL0     C13396   2.416   6.594   3.214  0.0414 -0.0205 -0.3285
  102MOL0     C13397   2.903   6.992   3.150 -0.1197 -0.0260  0.5482
  102MOL0     C13398   2.984   7.032   3.250 -0.1796 -0.1125 -0.5704
  102MOL0     H13399   3.558   7.161   3.256  0.1280 -1.7280  1.3555
  102MOL0     H13400   3.743   7.268   3.391 -1.5074  2.6953 -4.2023
  102MOL0     H13401   3.864   7.413   3.518  1.4432  2.1747  0.7631
  102MOL0     H13402   3.902   7.260   3.605  0.1764  0.6060  0.5491
  102MOL0     H13403   3.918   7.398   3.819  1.3454 -2.0304 -1.2865
  102MOL0     H13404   3.857   7.541   3.734  1.7219  1.0306 -1.0178
  102MOL0     H13405   4.068   7.555   3.595 -4.5243  0.5319  0.3374
  102MOL0     H13406   4.121   7.397   3.666  0.5643  0.1490  1.7655
  102MOL0     H13407   4.068   7.654   3.797  0.7345  0.4552  3.0322
  102MOL0     H13408   4.151   7.491   3.848  3.1788 -2.3485 -3.1087
  102MOL0     H13409   4.248   7.674   3.622  3.3058  3.8987  1.4911
  102MOL0     H13410   4.327   7.535   3.688 -1.4157 -2.5648  0.4797
  102MOL0     H13411   4.355   7.645   3.909  1.3134  1.6548 -1.8859
  102MOL0     H13412   4.308   7.796   3.843  4.1998  2.4794  1.6346
  102MOL0     H13413   4.514   7.634   3.694 -0.6458  0.4389  0.2688
  102MOL0     H13414   4.478   7.806   3.697 -1.1139 -1.0295 -1.6208
  102MOL0     H13415   4.594   7.638   3.947 -0.4329  1.9816  2.5569
  102MOL0     H13416   4.525   7.799   3.950  1.3561  0.0729  1.2591
  102MOL0     H13417   4.845   7.684   3.992  0.6723 -0.3316  0.5733
  102MOL0     H13418   5.108   7.766   3.927 -0.0718 -0.6165 -0.3362
  102MOL0     H13419   5.111   7.887   3.802  0.9830  0.5749  1.2469
  102MOL0     H13420   5.042   7.684   3.641 -0.5331 -0.9029 -0.7295
  102MOL0     H13421   5.091   7.577   3.776 -2.1460  2.1792  4.2598
  102MOL0     H13422   5.305   7.770   3.711  1.8438 -0.1535 -0.6804
  102MOL0     H13423   5.289   7.603   3.769 -2.0835  1.4596  1.4878
  102MOL0     H13424   5.395   7.610   3.531 -1.3318 -0.5699 -2.1584
  102MOL0     H13425   5.237   7.664   3.482 -0.2397  0.0379  0.1993
  102MOL0     H13426   5.132   7.264   3.544 -0.4025  0.4838  0.5145
  102MOL0     H13427   5.126   7.109   3.351  1.6386  0.8225  1.8185
  102MOL0     H13428   5.416   6.879   3.024  1.3595 -0.7656 -2.3849
  102MOL0     H13429   5.386   6.686   2.875  1.8768  1.2157  2.9761
  102MOL0     H13430   5.309   6.737   2.635 -3.5667  1.4276  0.7908
  102MOL0     H13431   5.188   6.663   2.543 -1.2932 -0.5267  0.0027
  102MOL0     H13432   5.303   6.423   2.588 -2.4994  2.1985 -0.8221
  102MOL0     H13433   5.431   6.510   2.660  0.5362  1.4688 -1.2813
  102MOL0     H13434   5.478   6.454   2.446  2.6123  0.7354  1.5457
  102MOL0     H13435   5.494   6.636   2.447  1.6856 -1.4885 -2.3866
  102MOL0     H13436   5.263   6.652   2.338  0.9330 -0.0303  0.2984
  102MOL0     H13437   5.402   6.602   2.243 -2.3570 -0.0192 -1.9990
  102MOL0     H13438   5.324   6.365   2.295 -1.6851 -1.4702  2.9078
  102MOL0     H13439   5.235   6.463   2.170  1.5907  1.6964  0.0794
  102MOL0     H13440   5.068   6.503   2.347 -1.0306 -1.0173  0.3510
  102MOL0     H13441   5.158   6.393   2.450  1.0163 -1.9658 -1.0097
  102MOL0     H13442   4.987   6.337   2.199  3.5021  3.7808  0.3022
  102MOL0     H13443   5.118   6.218   2.263  2.0534  1.4974  0.4436
  102MOL0     H13444   4.887   6.166   2.333 -0.8706  0.3915 -0.2001
  102MOL0     H13445   4.886   6.322   2.419  0.6104 -0.8808  0.7038
  102MOL0     H13446   4.966   6.744   2.850 -1.8123  0.2010  3.4703
  102MOL0     H13447   4.981   6.913   3.027  0.0233 -0.1843  0.4608
  102MOL0     H13448   5.411   7.373   3.148 -0.2931 -0.2975  0.4819
  102MOL0     H13449   5.397   7.516   3.329 -0.3040  0.1531 -2.8560
  102MOL0     H13450   3.502   7.265   3.743  1.0068  3.7689 -0.5314
  102MOL0     H13451   3.302   7.205   3.605 -0.2774  1.3011  0.1176
  102MOL0     H13452   3.286   7.025   3.085  0.3324 -1.3181 -0.0147
  102MOL0     H13453   3.122   6.968   2.891 -0.1327 -1.0079  0.6412
  102MOL0     H13454   3.001   6.750   2.868 -0.2403 -0.8423 -2.9048
  102MOL0     H13455   2.838   6.764   2.791 -1.7100  3.2008  0.8071
  102MOL0     H13456   2.875   6.576   2.955 -1.5134 -0.8758  1.6338
  102MOL0     H13457   2.937   6.694   3.076 -1.3782  3.9874  1.6308
  102MOL0     H13458   2.650   6.688   2.979 -0.0570 -1.1451  0.6560
  102MOL0     H13459   2.723   6.776   3.116  0.1703  0.9761 -0.3025
  102MOL0     H13460   2.708   6.469   3.121  1.4205 -0.4634  1.2456
  102MOL0     H13461   2.736   6.591   3.250  0.6404  1.5154 -0.5802
  102MOL0     H13462   2.317   6.630   3.236  0.6262  1.4559 -0.0207
  102MOL0     H13463   2.796   6.972   3.150 -0.0586 -0.7109 -1.9733
  102MOL0     H13464   2.936   7.057   3.344  0.4524  2.1906 -0.8149
  103MOL0     O13465  10.618   7.418   5.498  0.9491  0.6987  0.3921
  103MOL0     C13466  10.664   7.303   5.507 -0.6984 -0.1106  0.1530
  103MOL0     O13467  10.733   7.260   5.616  0.5879  0.0185 -0.2129
  103MOL0     C13468  10.728   7.349   5.724  0.7945  0.2770  0.3243
  103MOL0     C13469  10.615   7.361   5.810 -0.0763 -0.3278 -0.4922
  103MOL0     C13470  10.621   7.451   5.919 -0.1016  0.2762  0.9691
  103MOL0     C13471  10.741   7.515   5.956 -0.5086  0.3397 -0.3820
  103MOL0     O13472  10.742   7.592   6.069 -0.6487  0.7807 -1.1091
  103MOL0     C13473  10.751   7.734   6.054  0.0705  0.3122  0.1412
  103MOL0     C13474  10.698   7.814   6.192  0.2810 -0.2874 -0.0286
  103MOL0     C13475  10.692   7.969   6.173  0.5459  0.9088  0.3238
  103MOL0     C13476  10.659   8.037   6.305 -0.5984 -0.1075  1.1449
  103MOL0     C13477  10.512   8.073   6.320  0.7246  0.4156 -0.3610
  103MOL0     C13478  10.495   8.207   6.256  0.6207 -0.1155 -0.9539
  103MOL0     C13479  10.353   8.257   6.284  0.3001 -0.3082 -0.1824
  103MOL0     C13480  10.310   8.368   6.187 -1.0555  0.1330 -0.1328
  103MOL0     N13481  10.335   8.502   6.231 -0.7281  0.4703 -0.3331
  103MOL0     C13482  10.312   8.555   6.360  0.4087  0.1773  0.7025
  103MOL0     C13483  10.372   8.681   6.356 -0.3184  0.6155  0.7958
  103MOL0     C13484  10.354   8.782   6.463  0.7873 -0.5917 -1.0903
  103MOL0     C13485  10.201   8.792   6.500  0.3845  0.1109  0.0241
  103MOL0     C13486  10.113   8.827   6.382 -0.0587  0.4702  0.3001
  103MOL0     C13487   9.987   8.896   6.430 -0.5477 -0.3792 -0.8715
  103MOL0     O13488  10.014   9.029   6.468  0.7820 -0.1692  0.3058
  103MOL0     C13489   9.915   9.104   6.527  0.4342 -0.3415  0.1448
  103MOL0     C13490   9.950   9.217   6.601 -0.8600  0.8477 -0.2916
  103MOL0     C13491   9.849   9.303   6.666 -0.8185  0.8615  0.3146
  103MOL0     C13492   9.711   9.280   6.639 -0.1011  0.0387 -0.5913
  103MOL0     C13493   9.606   9.339   6.721  1.2829 -1.1164  0.2797
  103MOL0     O13494   9.495   9.266   6.769  0.4308 -0.3181 -0.0542
  103MOL0     C13495   9.426   9.314   6.879 -1.3888  0.1129  0.0567
  103MOL0     C13496   9.291   9.292   6.864  0.0433 -0.0385 -1.0879
  103MOL0     C13497   9.214   9.321   6.984  0.7365 -0.3421  0.0204
  103MOL0     C13498   9.275   9.378   7.098 -0.4490 -0.7742  0.4575
  103MOL0     O13499   9.192   9.426   7.197 -0.6035  0.4676 -0.1971
  103MOL0     C13500   9.219   9.546   7.254  0.9723 -0.1710 -1.5717
  103MOL0     C13501   9.261   9.551   7.403 -0.6343  0.1406 -0.3652
  103MOL0     C13502   9.389   9.472   7.450 -0.0731  0.0901  0.6625
  103MOL0     C13503   9.410   9.483   7.596 -0.3886  0.0859 -0.1865
  103MOL0     C13504   9.541   9.416   7.646 -0.9146 -0.4802 -0.1887
  103MOL0     C13505   9.673   9.437   7.576 -0.1653 -0.5297 -0.4185
  103MOL0     C13506   9.779   9.380   7.675 -0.5726 -0.3579  0.9556
  103MOL0     C13507   9.908   9.350   7.603 -0.2586  0.0311 -0.8173
  103MOL0    Cl13508   9.887   9.198   7.511  0.3290 -0.5163  0.2910
  103MOL0     C13509   9.413   9.398   7.101  0.1575  0.1383  0.3287
  103MOL0     C13510   9.491   9.361   6.991 -0.0623  1.0960 -1.2044
  103MOL0     O13511   9.637   9.455   6.754  0.3506 -0.3323 -0.2007
  103MOL0     C13512   9.669   9.167   6.570 -1.3274  0.9122  0.0433
  103MOL0     C13513   9.773   9.077   6.525 -1.5416 -0.0214  0.9172
  103MOL0     N13514  10.425   8.701   6.227 -0.6411  0.2188 -0.1383
  103MOL0     N13515  10.402   8.596   6.155  0.4163  0.9873 -0.8734
  103MOL0     C13516  10.858   7.492   5.885  0.0941 -0.8181 -0.4736
  103MOL0     C13517  10.847   7.412   5.769  0.1098  0.3661 -0.4994
  103MOL0     C13518  10.679   7.220   5.385 -0.1211  0.3716  0.5071
  103MOL0     C13519  10.621   7.257   5.259 -0.4968 -0.1257 -0.8861
  103MOL0     C13520  10.617   7.158   5.156 -0.0776 -0.0954 -0.5794
  103MOL0     C13521  10.673   7.028   5.166 -0.1607 -0.0884 -0.3319
  103MOL0     O13522  10.642   6.945   5.065 -0.1041 -0.4729 -0.1788
  103MOL0     C13523  10.664   6.807   5.089 -0.8951 -0.2006  0.2641
  103MOL0     C13524  10.605   6.739   4.967 -0.5690  0.0193  0.5317
  103MOL0     C13525  10.459   6.738   4.968 -0.5192  0.5878  0.2155
  103MOL0     C13526  10.404   6.723   4.823  0.7378  0.3935 -0.8861
  103MOL0     C13527  10.278   6.798   4.812  0.6182 -1.0130  0.4472
  103MOL0     C13528  10.171   6.859   4.793 -0.0187  0.0922 -0.4022
  103MOL0     C13529  10.746   6.999   5.287  0.3181 -0.8212  0.7800
  103MOL0     C13530  10.741   7.096   5.388  0.0809 -0.1898  0.1610
  103MOL0     H13531  10.519   7.317   5.785  0.0483 -0.4740 -0.7146
  103MOL0     H13532  10.535   7.482   5.977  0.1671  0.6480  1.1673
  103MOL0     H13533  10.680   7.748   5.972  1.9194  1.1456 -1.4106
  103MOL0     H13534  10.848   7.768   6.017 -0.9739  5.2524  1.2403
  103MOL0     H13535  10.758   7.802   6.283 -0.4579  3.0485  1.0305
  103MOL0     H13536  10.597   7.786   6.224 -0.3303  3.1716  1.4849
  103MOL0     H13537  10.612   7.972   6.098 -0.8896 -0.9696  1.6782
  103MOL0     H13538  10.793   7.998   6.143  1.3105  0.9487  2.7216
  103MOL0     H13539  10.703   7.983   6.390  4.2529 -0.0531 -0.9789
  103MOL0     H13540  10.721   8.128   6.301 -1.8369  0.7263 -0.0018
  103MOL0     H13541  10.493   8.081   6.427 -4.8913 -0.6194 -1.0039
  103MOL0     H13542  10.441   7.997   6.286 -1.3975  1.7814  0.8470
  103MOL0     H13543  10.506   8.201   6.147  0.4772  0.8218 -1.0247
  103MOL0     H13544  10.562   8.281   6.300 -0.7923  0.1844  0.7803
  103MOL0     H13545  10.289   8.170   6.263 -0.5718  0.4702 -0.8339
  103MOL0     H13546  10.341   8.281   6.390 -0.7882 -2.5230  0.2488
  103MOL0     H13547  10.202   8.354   6.193 -1.1970  1.4346  0.7238
  103MOL0     H13548  10.354   8.356   6.088  2.2030  2.2310  0.8871
  103MOL0     H13549  10.260   8.504   6.440  1.4853 -2.0765  0.0587
  103MOL0     H13550  10.390   8.881   6.434  0.8198 -0.1228  0.4671
  103MOL0     H13551  10.415   8.746   6.546  0.6512  0.2356 -0.6144
  103MOL0     H13552  10.195   8.880   6.566 -0.8229 -0.5345  0.8058
  103MOL0     H13553  10.158   8.711   6.559  1.6159  1.5223  3.0887
  103MOL0     H13554  10.172   8.884   6.310 -0.7441  3.2243  1.7972
  103MOL0     H13555  10.096   8.732   6.330  4.1407  0.4763 -1.4292
  103MOL0     H13556   9.944   8.857   6.522  1.2974  2.1012  1.1955
  103MOL0     H13557   9.915   8.889   6.348  1.2526 -3.3199 -2.3663
  103MOL0     H13558  10.057   9.234   6.601 -0.5500 -0.5757 -3.1454
  103MOL0     H13559   9.890   9.378   6.734  0.2700 -1.1227  1.9559
  103MOL0     H13560   9.251   9.237   6.780 -4.0806  0.3615  0.4125
  103MOL0     H13561   9.106   9.331   6.982  0.7721  0.7784 -4.1365
  103MOL0     H13562   9.122   9.596   7.255  1.8218  1.9557  2.7500
  103MOL0     H13563   9.293   9.604   7.197  0.5609  4.2231  1.7524
  103MOL0     H13564   9.183   9.509   7.468  0.7779 -1.3498  0.4463
  103MOL0     H13565   9.278   9.656   7.426  2.6718 -0.2382 -0.6548
  103MOL0     H13566   9.479   9.498   7.394  0.4695 -1.6410  0.6691
  103MOL0     H13567   9.378   9.364   7.440 -1.5090 -0.1044  3.3328
  103MOL0     H13568   9.403   9.590   7.621 -1.1371  0.6819 -2.6171
  103MOL0     H13569   9.336   9.425   7.651 -1.9497 -0.3303 -2.5907
  103MOL0     H13570   9.522   9.310   7.663  1.9523 -1.0002  0.2328
  103MOL0     H13571   9.552   9.467   7.743 -2.6573  0.5090 -0.4677
  103MOL0     H13572   9.697   9.544   7.569  0.1669 -0.4420  1.3962
  103MOL0     H13573   9.668   9.384   7.481 -2.6334 -1.1941  0.0209
  103MOL0     H13574   9.799   9.445   7.762 -1.7669  0.3180  0.7521
  103MOL0     H13575   9.755   9.282   7.716 -0.3484 -1.6042 -1.7117
  103MOL0     H13576   9.990   9.326   7.671 -1.9328 -0.0764  1.2519
  103MOL0     H13577   9.939   9.443   7.554  2.3046 -0.0633  0.4450
  103MOL0     H13578   9.465   9.430   7.191  0.3079 -1.0093  0.6582
  103MOL0     H13579   9.598   9.373   7.002 -0.1007  0.2771  0.4023
  103MOL0     H13580   9.566   9.134   6.557 -1.9709  2.4807  0.8374
  103MOL0     H13581   9.742   8.990   6.468 -3.4140  0.5690  0.9816
  103MOL0     H13582  10.952   7.536   5.916 -0.5131 -0.7716  1.4302
  103MOL0     H13583  10.937   7.399   5.710  0.4249  0.3451 -0.0266
  103MOL0     H13584  10.568   7.352   5.253 -0.8384  0.5225  5.4484
  103MOL0     H13585  10.553   7.193   5.075 -1.1056  1.1334  0.7181
  103MOL0     H13586  10.603   6.774   5.174 -0.0581 -2.2737  0.1104
  103MOL0     H13587  10.766   6.774   5.110 -0.1077  0.4288 -2.2467
  103MOL0     H13588  10.648   6.786   4.878 -4.1847  2.2457 -0.2122
  103MOL0     H13589  10.641   6.636   4.965  0.7758  0.4704 -1.4224
  103MOL0     H13590  10.430   6.841   4.991 -3.6991 -0.4461  1.3339
  103MOL0     H13591  10.415   6.676   5.046 -1.0094 -1.1373 -1.3495
  103MOL0     H13592  10.474   6.754   4.744 -0.7123  2.1880 -1.5346
  103MOL0     H13593  10.390   6.615   4.813  2.1396  0.0694  0.2017
  103MOL0     H13594  10.079   6.907   4.768 -0.2223  0.3516  0.7625
  103MOL0     H13595  10.800   6.906   5.304  3.9919  1.1953  1.3964
  103MOL0     H13596  10.778   7.067   5.486 -0.4399  1.7027  0.9640
  104MOL0     O13597   7.197   3.549   3.908  0.1500  0.6428  0.1614
  104MOL0     C13598   7.168   3.457   3.993 -0.4904 -0.7144  0.0974
  104MOL0     O13599   7.060   3.456   4.073 -0.4226  0.1190  0.2858
  104MOL0     C13600   6.958   3.541   4.059  0.3598 -0.3175 -0.3676
  104MOL0     C13601   6.924   3.640   3.957 -0.7418  0.0918  0.4816
  104MOL0     C13602   6.823   3.737   3.982  0.2876 -0.3560 -0.2739
  104MOL0     C13603   6.755   3.746   4.105 -0.7214  0.8564 -0.1605
  104MOL0     O13604   6.666   3.851   4.123 -0.3841 -0.2165  0.2850
  104MOL0     C13605   6.630   3.880   4.262  0.6121 -0.4470 -0.5471
  104MOL0     C13606   6.594   4.033   4.241 -0.0918  0.1042 -0.3340
  104MOL0     C13607   6.462   4.052   4.162 -0.3625 -0.3436  0.2618
  104MOL0     C13608   6.434   4.209   4.163 -0.0236  0.2246  0.3688
  104MOL0     C13609   6.301   4.229   4.085  0.6363 -0.7089 -0.3471
  104MOL0     C13610   6.256   4.372   4.066  0.6622 -0.5111  1.3537
  104MOL0     C13611   6.226   4.458   4.189 -0.3471 -1.0783 -0.8634
  104MOL0     C13612   6.157   4.588   4.136  0.0985  0.4679  0.2110
  104MOL0     N13613   6.193   4.712   4.218 -1.1189 -0.1149 -0.0276
  104MOL0     C13614   6.328   4.728   4.262  0.5294  0.6049  0.1548
  104MOL0     C13615   6.334   4.839   4.338 -0.2391 -1.3231  0.1509
  104MOL0     C13616   6.466   4.900   4.390 -0.2005  0.3413  0.3247
  104MOL0     C13617   6.574   4.811   4.453  0.2499 -1.1628  0.2655
  104MOL0     C13618   6.515   4.735   4.570 -0.1056 -0.1824  0.2091
  104MOL0     C13619   6.627   4.664   4.644  0.3013  0.1334  0.0271
  104MOL0     O13620   6.702   4.751   4.734 -0.8696 -0.0963 -0.3308
  104MOL0     C13621   6.689   4.733   4.876  0.4001 -0.3738  0.5456
  104MOL0     C13622   6.675   4.606   4.943 -0.4997 -0.0797 -0.4772
  104MOL0     C13623   6.675   4.594   5.085 -0.2037  0.1799 -0.4336
  104MOL0     C13624   6.697   4.707   5.161  0.3642 -0.9119 -0.5128
  104MOL0     C13625   6.696   4.712   5.311 -0.2716  0.3324 -0.7997
  104MOL0     O13626   6.685   4.842   5.366  0.0671  0.2869 -0.3720
  104MOL0     C13627   6.651   4.856   5.500 -0.8307  0.2932 -0.0565
  104MOL0     C13628   6.563   4.772   5.581 -0.3996 -0.0386  0.0663
  104MOL0     C13629   6.540   4.804   5.711  0.2709  0.5474 -0.4424
  104MOL0     C13630   6.597   4.922   5.769  0.8028 -0.2575  0.6003
  104MOL0     O13631   6.574   4.934   5.903 -0.1656  0.0148  0.7592
  104MOL0     C13632   6.504   5.053   5.944 -0.3379  0.6210  0.0492
  104MOL0     C13633   6.608   5.147   6.036  1.2964  0.8753  1.3278
  104MOL0     C13634   6.536   5.277   6.074  0.3795  0.6459 -0.0482
  104MOL0     C13635   6.653   5.364   6.131  0.7875 -0.4327 -0.1068
  104MOL0     C13636   6.618   5.432   6.261  0.1104 -0.9591  0.3471
  104MOL0     C13637   6.613   5.352   6.392 -0.5169 -0.4751 -0.1093
  104MOL0     C13638   6.751   5.327   6.451  0.3939  0.2658  0.3979
  104MOL0     C13639   6.729   5.254   6.580 -1.0793 -0.1353 -0.0116
  104MOL0    Cl13640   6.903   5.211   6.645  0.4601  0.0897  0.2924
  104MOL0     C13641   6.690   5.007   5.699 -0.2436  0.8780  0.1419
  104MOL0     C13642   6.712   4.973   5.566 -0.8539  0.2140  1.2991
  104MOL0     O13643   6.706   4.603   5.373 -1.0201 -0.8410  0.0297
  104MOL0     C13644   6.724   4.821   5.091  0.4138  0.4619  0.5761
  104MOL0     C13645   6.711   4.840   4.953  0.5066  0.7494  0.0207
  104MOL0     N13646   6.210   4.900   4.319  0.2536 -0.3155 -0.2037
  104MOL0     N13647   6.125   4.828   4.245 -0.4756  0.0810 -0.0698
  104MOL0     C13648   6.783   3.639   4.201 -0.5020 -1.4657 -0.5551
  104MOL0     C13649   6.878   3.539   4.177 -0.1245 -0.3240 -0.4191
  104MOL0     C13650   7.263   3.347   4.010 -0.0368  0.1658  0.0632
  104MOL0     C13651   7.223   3.233   4.077 -0.1981 -0.1227  0.2191
  104MOL0     C13652   7.314   3.135   4.111 -0.3876 -0.4708 -0.5257
  104MOL0     C13653   7.447   3.158   4.075  0.9418  0.6619  0.5812
  104MOL0     O13654   7.538   3.060   4.094  0.6840 -0.5710 -0.4097
  104MOL0     C13655   7.521   2.963   3.986 -0.4055  0.0776  0.1817
  104MOL0     C13656   7.648   2.866   3.969  0.0350 -0.9381 -0.6081
  104MOL0     C13657   7.787   2.929   3.964 -0.3765  0.3030 -0.3267
  104MOL0     C13658   7.900   2.813   3.945  0.8132 -0.1141 -0.4727
  104MOL0     C13659   8.030   2.851   4.001 -0.9046  0.7450  0.7139
  104MOL0     C13660   8.127   2.906   4.053 -0.5875 -0.9299  0.0862
  104MOL0     C13661   7.488   3.266   4.000  0.3124  0.1258 -0.4626
  104MOL0     C13662   7.399   3.364   3.966  0.7833 -0.2310 -0.9896
  104MOL0     H13663   6.981   3.643   3.865  0.4486 -1.5981  1.0865
  104MOL0     H13664   6.807   3.818   3.910  2.5998  1.5558  1.2188
  104MOL0     H13665   6.717   3.888   4.327  1.2992  1.2856 -1.6182
  104MOL0     H13666   6.540   3.825   4.291  1.7258 -1.8795  0.2791
  104MOL0     H13667   6.675   4.079   4.184  0.3849 -1.5451 -1.0599
  104MOL0     H13668   6.584   4.081   4.339 -1.5397 -1.1773  0.1902
  104MOL0     H13669   6.382   3.998   4.215  2.9287 -4.8061  1.2102
  104MOL0     H13670   6.461   4.020   4.058 -0.7678  3.0142 -0.9030
  104MOL0     H13671   6.438   4.245   4.266 -0.7087 -0.9631  0.8172
  104MOL0     H13672   6.513   4.262   4.108 -1.6126  0.5975 -1.6791
  104MOL0     H13673   6.217   4.183   4.139 -2.7063  2.9407 -1.9789
  104MOL0     H13674   6.305   4.182   3.986  0.1220  0.4047 -0.9162
  104MOL0     H13675   6.177   4.382   3.992  0.8914  2.6471  1.3977
  104MOL0     H13676   6.341   4.411   4.009 -0.2623 -0.7408 -0.2257
  104MOL0     H13677   6.165   4.418   4.271 -0.0038 -2.7867 -1.3934
  104MOL0     H13678   6.317   4.473   4.247 -1.6881  0.5199  0.9604
  104MOL0     H13679   6.051   4.560   4.146  0.6020 -0.8605  2.3785
  104MOL0     H13680   6.190   4.615   4.035  0.8610 -2.7994 -0.5015
  104MOL0     H13681   6.399   4.650   4.236 -0.0812  0.2705 -0.5538
  104MOL0     H13682   6.444   4.986   4.453 -3.1096  1.0673 -1.4646
  104MOL0     H13683   6.502   4.946   4.298 -1.7527  3.0496  0.9680
  104MOL0     H13684   6.653   4.882   4.478 -2.0285  1.7741 -0.4222
  104MOL0     H13685   6.611   4.749   4.371 -0.8972  0.0862 -1.2423
  104MOL0     H13686   6.472   4.812   4.634 -2.8763 -0.8107 -0.7649
  104MOL0     H13687   6.438   4.665   4.536 -0.4575  0.1755  0.2639
  104MOL0     H13688   6.699   4.615   4.578  2.1870  0.1939  1.9470
  104MOL0     H13689   6.572   4.590   4.703  0.3110  0.3960  0.3680
  104MOL0     H13690   6.658   4.523   4.875  0.2640  0.4093 -1.2801
  104MOL0     H13691   6.667   4.494   5.128  2.1795 -1.1283 -2.7344
  104MOL0     H13692   6.541   4.672   5.545 -0.6815 -0.8064  2.2296
  104MOL0     H13693   6.474   4.740   5.768 -0.8646  2.3976  0.4330
  104MOL0     H13694   6.416   5.033   6.004 -0.2799  0.7808  0.1890
  104MOL0     H13695   6.469   5.107   5.855 -2.3976 -0.9016 -0.1327
  104MOL0     H13696   6.702   5.166   5.983  0.0473 -0.2258 -1.5104
  104MOL0     H13697   6.610   5.083   6.125 -0.6746 -1.2124 -0.0137
  104MOL0     H13698   6.447   5.262   6.136  0.8962  0.1164  0.5621
  104MOL0     H13699   6.497   5.335   5.989  0.5774  3.7850  1.8468
  104MOL0     H13700   6.742   5.306   6.161  0.5460 -0.5524  0.3908
  104MOL0     H13701   6.696   5.420   6.048 -0.0629 -2.3369 -1.9107
  104MOL0     H13702   6.519   5.479   6.256  0.4803 -0.2185 -0.2725
  104MOL0     H13703   6.690   5.513   6.270  1.2695 -2.1072  1.9295
  104MOL0     H13704   6.556   5.258   6.381 -4.3261  1.2687  2.3440
  104MOL0     H13705   6.565   5.420   6.463  2.7178  1.1433  0.7139
  104MOL0     H13706   6.817   5.274   6.382  1.4879  1.1902  0.7231
  104MOL0     H13707   6.801   5.423   6.465  0.2304  0.1019  2.4264
  104MOL0     H13708   6.666   5.165   6.571 -0.1206 -0.9664  1.2174
  104MOL0     H13709   6.665   5.307   6.651 -2.3115 -0.6177 -0.7395
  104MOL0     H13710   6.754   5.080   5.747  2.2049 -2.4403  2.3737
  104MOL0     H13711   6.762   5.036   5.493 -2.6042 -1.1001 -1.1729
  104MOL0     H13712   6.738   4.915   5.144 -0.2162  1.6104 -1.2007
  104MOL0     H13713   6.744   4.929   4.900 -1.9964  2.1931  0.7466
  104MOL0     H13714   6.726   3.629   4.293  1.8505 -0.5837  1.0919
  104MOL0     H13715   6.896   3.460   4.248 -0.1198 -1.4976 -1.6874
  104MOL0     H13716   7.121   3.223   4.114 -1.0432  4.5579 -0.2000
  104MOL0     H13717   7.285   3.043   4.161  1.4530 -0.0666  1.4600
  104MOL0     H13718   7.505   3.018   3.893  0.4882 -1.1336 -0.7328
  104MOL0     H13719   7.421   2.923   4.003 -2.6580  5.3224  1.3697
  104MOL0     H13720   7.653   2.797   4.053  1.1013 -1.8502 -1.3923
  104MOL0     H13721   7.649   2.797   3.884  0.6543 -4.3486  1.9752
  104MOL0     H13722   7.820   2.976   4.057  1.4255 -1.9253  0.2274
  104MOL0     H13723   7.787   3.003   3.883  1.1877  0.9825  0.2696
  104MOL0     H13724   7.872   2.724   4.002  1.0355 -1.4244 -2.3315
  104MOL0     H13725   7.917   2.785   3.841  0.2995  0.1291 -0.6230
  104MOL0     H13726   8.220   2.953   4.077 -2.3710  3.9429 -1.3313
  104MOL0     H13727   7.592   3.278   3.974  0.7572  0.4968  1.3710
  104MOL0     H13728   7.425   3.460   3.924  1.0123  1.0180  1.7519
  105MOL0     O13729   1.960   9.534   6.333  0.6657 -0.2956 -0.7945
  105MOL0     C13730   1.955   9.469   6.438  0.0717  0.2511  0.0791
  105MOL0     O13731   2.068   9.433   6.499 -0.0827 -0.1815  0.3433
  105MOL0     C13732   2.188   9.467   6.451  0.1857 -0.8083 -0.5486
  105MOL0     C13733   2.235   9.601   6.434  0.0382 -0.7791 -0.4997
  105MOL0     C13734   2.367   9.623   6.394  0.0980  1.6257 -0.1716
  105MOL0     C13735   2.457   9.513   6.370  0.1735 -0.1751  0.3634
  105MOL0     O13736   2.586   9.556   6.345  0.7391  0.1774  0.7329
  105MOL0     C13737   2.695   9.509   6.417 -0.1324  0.3130  0.6720
  105MOL0     C13738   2.817   9.602   6.419 -0.6276 -1.1377 -0.2349
  105MOL0     C13739   2.878   9.600   6.276  0.1260  0.4196  0.2460
  105MOL0     C13740   3.019   9.654   6.260  0.0516 -0.1077  0.5846
  105MOL0     C13741   3.020   9.806   6.218  0.2233  0.7902  0.3284
  105MOL0     C13742   3.164   9.862   6.209  1.0738 -0.6263  0.7444
  105MOL0     C13743   3.183   9.966   6.084 -0.2306  0.5234  0.4494
  105MOL0     C13744   3.170   9.893   5.947  0.0079  0.9585 -0.3462
  105MOL0     N13745   3.236   9.761   5.961 -0.7065 -0.2097 -0.4360
  105MOL0     C13746   3.193   9.646   5.922 -0.3507 -0.6052  0.8781
  105MOL0     C13747   3.301   9.574   5.911  0.6017  0.4851  1.0091
  105MOL0     C13748   3.280   9.440   5.863  0.0757 -0.3397  0.6108
  105MOL0     C13749   3.406   9.367   5.814  0.3207  0.2154 -0.0796
  105MOL0     C13750   3.370   9.219   5.780  1.0298  0.1089 -0.7442
  105MOL0     C13751   3.471   9.123   5.732 -0.5078  0.2523  0.1914
  105MOL0     O13752   3.524   9.175   5.614 -1.4072 -0.0056 -0.3457
  105MOL0     C13753   3.628   9.112   5.551 -0.8393  0.1128 -0.6046
  105MOL0     C13754   3.681   9.188   5.445 -0.4257  0.5744 -0.8301
  105MOL0     C13755   3.785   9.130   5.364 -0.5566 -0.7136  0.0199
  105MOL0     C13756   3.847   9.012   5.408 -0.0857  0.6413 -0.1901
  105MOL0     C13757   3.958   8.955   5.328 -0.7106  1.2649 -0.0363
  105MOL0     O13758   3.964   8.988   5.198  0.4842 -0.1079 -0.2532
  105MOL0     C13759   4.065   8.951   5.111  0.6550 -1.0873 -0.3108
  105MOL0     C13760   4.189   8.990   5.143  0.7064  0.3181 -0.1366
  105MOL0     C13761   4.291   8.963   5.062 -0.0512  0.0790 -0.2920
  105MOL0     C13762   4.281   8.900   4.933 -0.6113 -0.2270 -0.2893
  105MOL0     O13763   4.401   8.907   4.854  0.9155  0.5964  0.1856
  105MOL0     C13764   4.375   8.950   4.718 -0.1486 -0.1378 -0.1612
  105MOL0     C13765   4.384   9.101   4.715 -0.6631 -0.0109 -0.4038
  105MOL0     C13766   4.476   9.132   4.598  0.7279  0.7198  0.8378
  105MOL0     C13767   4.405   9.091   4.465 -0.2702 -0.7246  0.0327
  105MOL0     C13768   4.434   9.190   4.361 -0.1257  0.3617  0.3057
  105MOL0     C13769   4.402   9.142   4.219 -0.5204  0.0509 -0.5714
  105MOL0     C13770   4.518   9.064   4.152  0.5107 -0.3237  0.5704
  105MOL0     C13771   4.498   9.064   3.999 -0.4421 -0.2865 -0.6320
  105MOL0    Cl13772   4.655   9.013   3.941  0.7541  0.1834  0.0442
  105MOL0     C13773   4.148   8.877   4.892 -0.0213 -0.5200  0.4698
  105MOL0     C13774   4.039   8.890   4.985 -0.5807 -0.6858 -0.4710
  105MOL0     O13775   4.026   8.862   5.382 -0.1666 -0.6395 -0.0299
  105MOL0     C13776   3.792   8.943   5.520 -0.0967 -0.2605 -0.8541
  105MOL0     C13777   3.681   8.998   5.588 -0.5583  1.4023 -0.3251
  105MOL0     N13778   3.417   9.642   5.938  0.7744  0.7453 -0.5910
  105MOL0     N13779   3.380   9.756   5.981  0.3446 -0.3804  0.4658
  105MOL0     C13780   2.409   9.384   6.391  1.4437 -0.3093  0.0660
  105MOL0     C13781   2.275   9.365   6.430  0.2557  0.5586 -1.0079
  105MOL0     C13782   1.835   9.388   6.476  0.7020  0.1741 -0.0467
  105MOL0     C13783   1.806   9.360   6.614  0.0279 -0.2922  0.4668
  105MOL0     C13784   1.694   9.280   6.642  0.5924  0.0183 -0.5763
  105MOL0     C13785   1.592   9.248   6.552 -0.0236 -1.0708 -0.2467
  105MOL0     O13786   1.461   9.214   6.591  0.4731  0.1014 -0.0241
  105MOL0     C13787   1.435   9.144   6.718 -0.1530 -0.9375 -0.1957
  105MOL0     C13788   1.282   9.130   6.759 -0.0647 -0.1557  1.0467
  105MOL0     C13789   1.198   9.040   6.666 -0.1657 -0.1967 -0.1981
  105MOL0     C13790   1.050   9.047   6.690 -0.3748  0.1697  0.6031
  105MOL0     C13791   0.983   8.953   6.604  0.0187  0.3584  0.5624
  105MOL0     C13792   0.915   8.872   6.554  0.5696 -0.2480  0.9684
  105MOL0     C13793   1.616   9.294   6.418  0.4200 -0.5979  1.4943
  105MOL0     C13794   1.741   9.342   6.380  0.0272 -0.9551 -0.2785
  105MOL0     H13795   2.161   9.680   6.430  0.9283  0.2321  1.5101
  105MOL0     H13796   2.390   9.729   6.396  1.1768  1.3976  1.5499
  105MOL0     H13797   2.717   9.406   6.388  2.8043  1.0096  0.1477
  105MOL0     H13798   2.656   9.505   6.519  0.1018  0.6512  0.7782
  105MOL0     H13799   2.881   9.574   6.503 -1.7747  0.5602  1.2990
  105MOL0     H13800   2.780   9.704   6.436 -2.0552 -1.3743 -1.6537
  105MOL0     H13801   2.818   9.668   6.215  1.3499  2.2744  1.0444
  105MOL0     H13802   2.871   9.492   6.255 -0.4204  0.6229 -0.6610
  105MOL0     H13803   3.075   9.640   6.353  0.6649  2.2326  0.6385
  105MOL0     H13804   3.083   9.598   6.191  0.1745  1.2883 -0.4879
  105MOL0     H13805   2.970   9.872   6.289  0.8567  0.3340  1.2266
  105MOL0     H13806   2.980   9.816   6.117 -2.5850  1.2496  1.3723
  105MOL0     H13807   3.239   9.782   6.206 -2.5523 -4.3621 -2.1438
  105MOL0     H13808   3.172   9.919   6.302  1.4908 -0.8607  0.8522
  105MOL0     H13809   3.130  10.061   6.089 -1.2625  0.0735 -0.9901
  105MOL0     H13810   3.287   9.999   6.089 -0.8037  2.9053 -1.5625
  105MOL0     H13811   3.226   9.946   5.870 -1.7830  0.6848 -1.9361
  105MOL0     H13812   3.067   9.878   5.910  0.4854 -0.6709 -1.1180
  105MOL0     H13813   3.086   9.633   5.909 -0.3777 -0.1941  0.6801
  105MOL0     H13814   3.221   9.461   5.773  0.1442 -0.4279  0.5446
  105MOL0     H13815   3.227   9.379   5.937 -2.9227 -0.6900 -1.6104
  105MOL0     H13816   3.485   9.375   5.888  0.4814  0.7964 -0.3070
  105MOL0     H13817   3.441   9.417   5.723 -2.4054 -1.2768 -2.1165
  105MOL0     H13818   3.325   9.181   5.872 -0.8900  2.6434 -0.5176
  105MOL0     H13819   3.282   9.225   5.715  1.5305  1.4473 -1.3277
  105MOL0     H13820   3.420   9.029   5.712  0.6764 -0.7551  1.7242
  105MOL0     H13821   3.547   9.118   5.810 -0.2598  0.5387 -0.0279
  105MOL0     H13822   3.649   9.291   5.435 -1.6959  0.4938  1.5279
  105MOL0     H13823   3.822   9.194   5.285  1.8610  3.5473  4.0748
  105MOL0     H13824   4.207   9.049   5.232  5.6569  1.5207 -1.6399
  105MOL0     H13825   4.392   8.990   5.088 -0.7376  1.3467  1.1867
  105MOL0     H13826   4.272   8.926   4.690 -0.0914 -0.5013 -0.0654
  105MOL0     H13827   4.435   8.898   4.644  0.3126  1.0773 -0.6647
  105MOL0     H13828   4.425   9.150   4.803 -1.0099  0.4613 -0.5019
  105MOL0     H13829   4.292   9.159   4.704  0.9967  3.4710  2.2557
  105MOL0     H13830   4.574   9.084   4.606 -0.2066 -1.6929 -0.9784
  105MOL0     H13831   4.484   9.241   4.597  0.7235  0.7699 -1.8796
  105MOL0     H13832   4.444   8.996   4.428  0.9092 -0.4840  0.6140
  105MOL0     H13833   4.296   9.081   4.465 -0.6905  2.2258 -2.2930
  105MOL0     H13834   4.541   9.212   4.364  0.7489 -3.1426 -0.6804
  105MOL0     H13835   4.392   9.287   4.388  0.8932  0.4134  1.8644
  105MOL0     H13836   4.377   9.229   4.159 -2.0824  1.9851  2.6006
  105MOL0     H13837   4.312   9.080   4.230 -0.2502 -0.0686  1.3157
  105MOL0     H13838   4.612   9.119   4.162 -0.0960  1.0155 -0.6731
  105MOL0     H13839   4.535   8.961   4.187  0.7751 -0.1387  0.9923
  105MOL0     H13840   4.484   9.167   3.968 -2.9816 -0.0163  1.1534
  105MOL0     H13841   4.422   8.995   3.961 -1.7328  1.2757 -0.9987
  105MOL0     H13842   4.122   8.802   4.818 -2.1206  0.9789 -0.3803
  105MOL0     H13843   3.942   8.869   4.942 -0.1702 -0.1812 -1.7169
  105MOL0     H13844   3.832   8.845   5.543 -1.8350 -1.4393 -2.4846
  105MOL0     H13845   3.644   8.937   5.670  0.9885 -0.6259 -1.0350
  105MOL0     H13846   2.471   9.296   6.379  0.1124 -1.0919 -1.4058
  105MOL0     H13847   2.246   9.262   6.449  0.7848  0.9275  2.4677
  105MOL0     H13848   1.872   9.394   6.693 -2.7276  3.8039  1.3433
  105MOL0     H13849   1.673   9.248   6.743 -1.2448  0.2359 -0.8576
  105MOL0     H13850   1.480   9.184   6.809 -4.6618  2.4434  0.9024
  105MOL0     H13851   1.487   9.050   6.696  0.5297 -1.0744  1.8443
  105MOL0     H13852   1.278   9.070   6.850 -6.8357 -2.3906 -0.1417
  105MOL0     H13853   1.226   9.223   6.771  3.3527  2.4496 -1.1107
  105MOL0     H13854   1.235   8.938   6.676  2.1376  0.7209  1.5969
  105MOL0     H13855   1.218   9.073   6.563  0.7372 -0.6120 -0.1665
  105MOL0     H13856   1.023   9.022   6.793  0.3988 -3.5610  0.0502
  105MOL0     H13857   1.018   9.150   6.671  1.3382  0.1786 -3.0847
  105MOL0     H13858   0.861   8.785   6.521  2.0196 -1.5535  1.9027
  105MOL0     H13859   1.544   9.271   6.340 -0.4735 -1.7613  2.6200
  105MOL0     H13860   1.787   9.355   6.282  0.9622  0.0311  0.2709
  106MOL0     O13861   1.128   2.888   8.538  0.3062 -0.3447 -0.2724
  106MOL0     C13862   1.124   2.966   8.450 -0.3717 -0.5497  0.6854
  106MOL0     O13863   1.177   2.950   8.323 -0.1154  0.2959 -0.3964
  106MOL0     C13864   1.242   2.831   8.294  0.0677  0.4304 -0.0161
  106MOL0     C13865   1.347   2.768   8.360 -0.0195  0.8429  0.6685
  106MOL0     C13866   1.399   2.652   8.307 -0.5489  0.6218  0.2760
  106MOL0     C13867   1.352   2.595   8.186  0.7385  0.1848  0.5243
  106MOL0     O13868   1.396   2.480   8.124 -0.5910 -0.1986  0.4439
  106MOL0     C13869   1.473   2.395   8.212 -0.8216 -0.2055  0.5175
  106MOL0     C13870   1.473   2.261   8.136 -0.9695 -0.4704  0.0559
  106MOL0     C13871   1.577   2.162   8.193 -0.1591  0.1343  0.6201
  106MOL0     C13872   1.537   2.031   8.133  0.3223  1.3065 -0.4947
  106MOL0     C13873   1.585   1.912   8.217 -0.7248  0.3197  0.1507
  106MOL0     C13874   1.735   1.899   8.198  0.0506  0.1119  0.7595
  106MOL0     C13875   1.796   1.812   8.302  0.1045  0.5402  0.5526
  106MOL0     C13876   1.944   1.819   8.308 -0.9213 -0.2258 -0.2207
  106MOL0     N13877   1.998   1.795   8.178  0.0318  0.0149  0.6360
  106MOL0     C13878   1.995   1.681   8.108  0.2394 -0.2837 -0.4801
  106MOL0     C13879   2.030   1.713   7.986 -1.0105 -0.6526  1.1223
  106MOL0     C13880   2.026   1.610   7.874  0.1985 -0.7132 -0.1529
  106MOL0     C13881   2.149   1.527   7.860  0.4592  0.1914 -0.2865
  106MOL0     C13882   2.251   1.607   7.787 -0.3398  0.5595  1.1236
  106MOL0     C13883   2.392   1.538   7.781  0.0581 -0.8147  0.2927
  106MOL0     O13884   2.390   1.419   7.702 -0.6290  0.3166  0.1959
  106MOL0     C13885   2.428   1.422   7.570 -0.4018  0.0432  1.2907
  106MOL0     C13886   2.342   1.471   7.473  0.2839  0.1790  1.0937
  106MOL0     C13887   2.377   1.494   7.339  0.4368  0.3037  0.0206
  106MOL0     C13888   2.499   1.443   7.289  0.7705 -0.0730  0.8476
  106MOL0     C13889   2.522   1.459   7.149 -0.3437  0.1738  0.9882
  106MOL0     O13890   2.580   1.352   7.082 -0.7224  0.1046 -0.1969
  106MOL0     C13891   2.612   1.346   6.942  0.1142  0.3112  0.3161
  106MOL0     C13892   2.652   1.218   6.893 -0.1799  0.0783  0.5537
  106MOL0     C13893   2.672   1.199   6.753 -0.4041  0.2153  0.1859
  106MOL0     C13894   2.666   1.314   6.671  0.0565 -0.2007  0.6686
  106MOL0     O13895   2.694   1.307   6.531  1.0608  0.4439  0.3651
  106MOL0     C13896   2.674   1.178   6.472  0.9548 -0.6811 -0.6852
  106MOL0     C13897   2.688   1.200   6.321  0.1303  0.1169  0.1919
  106MOL0     C13898   2.715   1.064   6.266  0.7453 -0.1299  0.2918
  106MOL0     C13899   2.727   1.078   6.117  0.0866  0.3078  0.1976
  106MOL0     C13900   2.766   0.952   6.035  0.3849 -0.0843 -1.6264
  106MOL0     C13901   2.764   0.961   5.885  0.1857 -0.1665 -0.7066
  106MOL0     C13902   2.628   1.011   5.828  0.7911  0.4705  0.8859
  106MOL0     C13903   2.615   1.025   5.676  0.2178 -0.6507 -0.4389
  106MOL0    Cl13904   2.722   1.161   5.634 -0.6491 -0.1197  0.2721
  106MOL0     C13905   2.638   1.434   6.723 -0.3933 -0.3806 -1.1451
  106MOL0     C13906   2.610   1.453   6.863  0.3951 -1.1015 -0.0812
  106MOL0     O13907   2.498   1.567   7.097 -0.6122  0.4957 -0.0239
  106MOL0     C13908   2.595   1.384   7.386 -0.1202  0.6968 -0.0570
  106MOL0     C13909   2.554   1.373   7.525 -0.1053 -1.2649  0.7738
  106MOL0     N13910   2.084   1.842   7.983  0.6351  0.4365 -0.8444
  106MOL0     N13911   2.062   1.891   8.104 -0.7150  0.5336  0.4092
  106MOL0     C13912   1.248   2.660   8.117 -0.1777 -0.2274 -0.2994
  106MOL0     C13913   1.204   2.788   8.165 -0.0224 -0.3726 -0.9811
  106MOL0     C13914   1.018   3.072   8.473 -0.4195  0.1487  0.1883
  106MOL0     C13915   0.952   3.073   8.590  0.1023 -0.5910 -0.5133
  106MOL0     C13916   0.852   3.163   8.607  0.1208 -1.7439  0.3092
  106MOL0     C13917   0.812   3.257   8.505  0.0612  0.8139  0.0635
  106MOL0     O13918   0.720   3.345   8.541 -0.4771 -0.6642 -0.1696
  106MOL0     C13919   0.595   3.349   8.473  1.2339 -0.6265 -0.1627
  106MOL0     C13920   0.484   3.368   8.579 -0.3356 -1.2198  1.6672
  106MOL0     C13921   0.483   3.497   8.653  0.0831 -0.7773  0.4042
  106MOL0     C13922   0.378   3.525   8.759  0.2502  0.9840 -0.3968
  106MOL0     C13923   0.246   3.549   8.702 -0.1431 -0.3420  0.1148
  106MOL0     C13924   0.151   3.594   8.650 -0.5274 -0.4357 -0.3624
  106MOL0     C13925   0.882   3.253   8.386 -0.2367  0.1394  0.5218
  106MOL0     C13926   0.983   3.154   8.369 -1.8796 -0.2448 -0.1767
  106MOL0     H13927   1.394   2.820   8.443  1.1194  1.2359 -0.1863
  106MOL0     H13928   1.483   2.597   8.349 -0.0580 -0.0809 -1.5382
  106MOL0     H13929   1.411   2.368   8.298 -0.1409 -0.0026  1.0895
  106MOL0     H13930   1.568   2.439   8.243 -0.4063 -1.8712  1.7405
  106MOL0     H13931   1.525   2.288   8.044 -1.3737  0.7482  0.1737
  106MOL0     H13932   1.373   2.220   8.120 -0.6108 -1.1348 -0.5244
  106MOL0     H13933   1.580   2.158   8.302  3.2178  0.3922  0.6277
  106MOL0     H13934   1.679   2.194   8.170  0.4176 -0.9337  1.5777
  106MOL0     H13935   1.429   2.021   8.116  0.4698 -2.6635 -0.1794
  106MOL0     H13936   1.571   2.042   8.030  0.4994 -0.2259 -0.6311
  106MOL0     H13937   1.518   1.832   8.185  0.5074  0.0433 -1.9774
  106MOL0     H13938   1.556   1.922   8.322 -0.0546  0.4959  0.3288
  106MOL0     H13939   1.772   2.001   8.184  0.2633 -0.3823 -3.9019
  106MOL0     H13940   1.770   1.864   8.101  1.8767  2.4333  0.4977
  106MOL0     H13941   1.754   1.849   8.397 -0.7678  0.9685  0.0133
  106MOL0     H13942   1.757   1.710   8.299 -0.8594  0.8666  1.1649
  106MOL0     H13943   1.970   1.750   8.390 -0.7541  0.7918  0.5989
  106MOL0     H13944   1.975   1.922   8.326  1.9790 -1.1232  0.3042
  106MOL0     H13945   1.947   1.585   8.127  0.8504 -1.2815 -3.3794
  106MOL0     H13946   2.002   1.664   7.782  2.5165 -0.7053 -0.8347
  106MOL0     H13947   1.947   1.540   7.901 -2.4034  2.1307  0.1286
  106MOL0     H13948   2.142   1.433   7.804  4.0433 -1.6732  1.9814
  106MOL0     H13949   2.180   1.499   7.961  2.5478  0.0076 -0.9363
  106MOL0     H13950   2.204   1.615   7.689 -0.4171 -1.1053  1.0020
  106MOL0     H13951   2.266   1.710   7.821 -0.8229  1.1426 -0.3833
  106MOL0     H13952   2.425   1.517   7.883  0.1979 -0.6208  0.2882
  106MOL0     H13953   2.462   1.608   7.734  0.9271 -2.4501 -0.9990
  106MOL0     H13954   2.249   1.518   7.505 -0.4193 -1.4281  1.4990
  106MOL0     H13955   2.308   1.546   7.273  2.2392 -0.5811 -2.7156
  106MOL0     H13956   2.666   1.129   6.953  0.4665  0.4024  0.8953
  106MOL0     H13957   2.693   1.098   6.718  0.4090  0.4034  0.1078
  106MOL0     H13958   2.573   1.144   6.495  1.1028 -0.6643  0.0206
  106MOL0     H13959   2.747   1.104   6.507  0.9356 -0.8526 -1.0062
  106MOL0     H13960   2.773   1.268   6.305 -0.3972  1.0962  1.3558
  106MOL0     H13961   2.598   1.239   6.272 -1.3071 -6.3415 -3.4538
  106MOL0     H13962   2.621   1.010   6.275  0.6292 -0.1793 -1.0433
  106MOL0     H13963   2.795   1.007   6.314  1.8132  0.7458 -0.3673
  106MOL0     H13964   2.625   1.105   6.088 -0.4485 -0.9911  0.7857
  106MOL0     H13965   2.791   1.164   6.096  1.6689 -1.3577 -2.2130
  106MOL0     H13966   2.688   0.877   6.045 -0.8495  1.2407 -0.9470
  106MOL0     H13967   2.857   0.914   6.083 -0.0504  0.8496  0.0328
  106MOL0     H13968   2.780   0.855   5.860  1.0579 -0.7495  2.0541
  106MOL0     H13969   2.845   1.031   5.864 -2.1143  2.5225 -1.2299
  106MOL0     H13970   2.551   0.938   5.854  0.5307  0.3976 -0.0820
  106MOL0     H13971   2.586   1.107   5.860 -1.7733  0.0858 -1.0037
  106MOL0     H13972   2.513   1.056   5.653  0.5802 -0.6386 -2.1743
  106MOL0     H13973   2.660   0.941   5.621  2.4413  0.3930 -0.3206
  106MOL0     H13974   2.624   1.514   6.650  0.2192 -0.3898 -1.2777
  106MOL0     H13975   2.583   1.553   6.895  1.8916 -1.1992  1.6550
  106MOL0     H13976   2.684   1.334   7.350 -1.2326  0.1612 -2.1984
  106MOL0     H13977   2.625   1.332   7.597  0.9787 -2.1213 -0.7228
  106MOL0     H13978   1.219   2.612   8.024 -0.0575 -1.1142  0.1122
  106MOL0     H13979   1.125   2.845   8.116  0.4779  1.6528  0.4582
  106MOL0     H13980   0.969   3.004   8.673 -1.3096  3.0053  3.1229
  106MOL0     H13981   0.811   3.163   8.708  0.6018 -4.1187  0.5692
  106MOL0     H13982   0.565   3.256   8.424 -5.6801  0.5842  0.7559
  106MOL0     H13983   0.596   3.425   8.394  0.3913 -0.9453 -0.4894
  106MOL0     H13984   0.387   3.366   8.529  0.3769 -3.2707  0.2214
  106MOL0     H13985   0.487   3.284   8.649  1.0490 -2.0303  0.6886
  106MOL0     H13986   0.473   3.566   8.569  0.6104  0.6153  1.4619
  106MOL0     H13987   0.585   3.511   8.688 -0.1331  0.0714  0.6987
  106MOL0     H13988   0.371   3.448   8.836 -3.2320  0.0350 -1.4731
  106MOL0     H13989   0.408   3.617   8.810 -0.5515  0.1838  1.6618
  106MOL0     H13990   0.070   3.657   8.620  0.1379  0.4111 -0.4207
  106MOL0     H13991   0.852   3.327   8.312  0.2968  0.1492  0.3079
  106MOL0     H13992   1.023   3.141   8.269  0.8412 -1.0086  0.9266
  107MOL0     O13993   2.015   6.140   3.141 -0.2901 -0.4304 -0.7601
  107MOL0     C13994   2.108   6.223   3.141 -0.9638 -0.1527 -0.7397
  107MOL0     O13995   2.092   6.357   3.149 -0.2161 -0.4889  0.2367
  107MOL0     C13996   1.965   6.411   3.146  0.0705  0.2662  0.5441
  107MOL0     C13997   1.928   6.515   3.053  0.0811 -0.0569 -0.3807
  107MOL0     C13998   1.801   6.559   3.063  0.5422 -0.3194  0.6070
  107MOL0     C13999   1.715   6.534   3.161  1.8160 -0.7029  0.0464
  107MOL0     O14000   1.594   6.606   3.158  0.4794  1.5220 -0.4442
  107MOL0     C14001   1.490   6.548   3.247  0.6446 -0.0943  0.4774
  107MOL0     C14002   1.358   6.619   3.217 -0.4775 -0.6641  0.0748
  107MOL0     C14003   1.345   6.755   3.289  1.1709 -0.2429 -0.1792
  107MOL0     C14004   1.448   6.864   3.235 -0.1788 -1.1432 -0.6182
  107MOL0     C14005   1.411   6.913   3.095  0.0133 -0.7143  0.5926
  107MOL0     C14006   1.510   7.007   3.032 -0.1107  0.3458  0.0399
  107MOL0     C14007   1.468   7.043   2.892  0.1343  0.2284 -0.8492
  107MOL0     C14008   1.556   7.157   2.835  0.4527 -0.0968 -0.3983
  107MOL0     N14009   1.699   7.121   2.824 -0.2133  0.2106  0.1785
  107MOL0     C14010   1.766   7.020   2.767 -0.0406  0.5562  0.3281
  107MOL0     C14011   1.894   7.042   2.784  0.1455 -0.3903 -0.6231
  107MOL0     C14012   1.989   6.943   2.740 -0.2133  0.8980  0.3696
  107MOL0     C14013   2.007   6.819   2.834  1.1164  0.1644  0.6749
  107MOL0     C14014   2.116   6.827   2.940  0.2687 -1.0281 -1.0456
  107MOL0     C14015   2.068   6.933   3.053 -0.0822  0.3452 -1.2104
  107MOL0     O14016   2.106   6.873   3.180  0.6279 -0.2172 -0.0236
  107MOL0     C14017   2.005   6.838   3.263  0.4524  0.8500 -0.2790
  107MOL0     C14018   2.010   6.707   3.326 -0.1407 -0.9941  0.3284
  107MOL0     C14019   1.922   6.671   3.427  0.0253 -0.4426  0.8546
  107MOL0     C14020   1.810   6.750   3.450 -0.4407  0.1347  0.7310
  107MOL0     C14021   1.722   6.707   3.551 -0.0174  0.0226  0.0483
  107MOL0     O14022   1.712   6.571   3.579 -0.3882  1.0019 -0.0421
  107MOL0     C14023   1.598   6.523   3.634  0.1147 -0.0455 -0.0027
  107MOL0     C14024   1.600   6.396   3.696 -0.7770 -0.1468  0.4221
  107MOL0     C14025   1.480   6.336   3.745 -0.1461  0.1884  0.7169
  107MOL0     C14026   1.352   6.396   3.745  0.5080  0.1973  0.0126
  107MOL0     O14027   1.247   6.347   3.816  0.3305 -0.1032  0.7004
  107MOL0     C14028   1.136   6.429   3.855  0.1760 -1.1071  0.1315
  107MOL0     C14029   1.029   6.340   3.914  0.7351  0.6067 -0.4682
  107MOL0     C14030   1.003   6.223   3.818  0.7403  0.3464  0.7460
  107MOL0     C14031   0.935   6.269   3.689  0.2689 -0.8638  0.6794
  107MOL0     C14032   0.901   6.158   3.594  0.6290 -0.1492  0.0769
  107MOL0     C14033   0.779   6.077   3.626  0.1229  0.7536  0.0272
  107MOL0     C14034   0.760   5.945   3.538  0.3912 -0.1205  0.4322
  107MOL0     C14035   0.618   5.932   3.483 -0.1821 -0.9205 -0.0493
  107MOL0    Cl14036   0.500   5.908   3.606  0.2843 -0.2858  0.0063
  107MOL0     C14037   1.353   6.521   3.688  0.1002 -0.6981  0.1561
  107MOL0     C14038   1.470   6.591   3.636  0.5676 -0.2118 -1.1242
  107MOL0     O14039   1.669   6.796   3.616 -0.3563  0.8001  0.2129
  107MOL0     C14040   1.794   6.868   3.379  0.0535  0.7923 -0.5175
  107MOL0     C14041   1.888   6.914   3.291  0.2052 -0.5560 -0.4360
  107MOL0     N14042   1.910   7.159   2.867 -0.3925  0.6905  0.3021
  107MOL0     N14043   1.792   7.206   2.879  0.3527  0.3493  0.7917
  107MOL0     C14044   1.755   6.440   3.262  0.3807 -0.2890 -0.0328
  107MOL0     C14045   1.882   6.378   3.253 -0.4140 -0.4738 -0.6560
  107MOL0     C14046   2.252   6.170   3.099 -0.3203 -0.2527 -0.4388
  107MOL0     C14047   2.271   6.031   3.070  0.6292  0.0352  0.0892
  107MOL0     C14048   2.391   5.977   3.027 -0.5646 -0.1671 -0.4108
  107MOL0     C14049   2.505   6.057   3.020  0.8516 -1.2179  0.1116
  107MOL0     O14050   2.625   6.011   2.982  0.9838 -0.3100  0.0068
  107MOL0     C14051   2.731   6.023   3.070 -0.6335 -0.0818 -0.5093
  107MOL0     C14052   2.775   5.879   3.101 -0.5538 -0.0671 -0.9663
  107MOL0     C14053   2.860   5.859   3.221  0.5094  0.5120 -0.0297
  107MOL0     C14054   3.007   5.817   3.191 -0.0098 -0.8685 -0.7405
  107MOL0     C14055   3.078   5.766   3.307 -1.0358  0.2458 -0.1382
  107MOL0     C14056   3.137   5.727   3.402 -0.3226  0.2128  0.2707
  107MOL0     C14057   2.489   6.198   3.057 -0.2049 -0.1897  1.2167
  107MOL0     C14058   2.363   6.252   3.083  0.6170  0.2704  0.3453
  107MOL0     H14059   1.987   6.552   2.969  0.9329  1.5532  0.8830
  107MOL0     H14060   1.779   6.636   2.989  0.1119  0.8207  1.8693
  107MOL0     H14061   1.506   6.562   3.354 -1.3321  2.3562  0.5169
  107MOL0     H14062   1.486   6.442   3.218  1.4919 -0.5526  1.9599
  107MOL0     H14063   1.270   6.557   3.237  1.9393 -3.5597  2.6514
  107MOL0     H14064   1.356   6.625   3.108 -0.0664 -1.1094  0.0441
  107MOL0     H14065   1.356   6.759   3.397  1.5463  4.4615 -0.1793
  107MOL0     H14066   1.242   6.790   3.279  0.2533 -2.2303  1.5265
  107MOL0     H14067   1.442   6.944   3.310  3.5408 -0.7954 -0.5102
  107MOL0     H14068   1.552   6.830   3.240  0.8254  1.2026 -2.8584
  107MOL0     H14069   1.305   6.942   3.104  0.2070  0.9492 -1.6593
  107MOL0     H14070   1.404   6.833   3.021  0.7628 -0.9936  0.8223
  107MOL0     H14071   1.609   6.961   3.028  0.1533  0.6525  2.0110
  107MOL0     H14072   1.518   7.096   3.096  2.3852  1.3316 -1.4852
  107MOL0     H14073   1.471   6.949   2.838  0.1912 -0.0662 -0.3362
  107MOL0     H14074   1.360   7.063   2.886  0.1436  0.6610  0.0987
  107MOL0     H14075   1.535   7.242   2.900 -1.4235 -0.7153 -0.1308
  107MOL0     H14076   1.513   7.184   2.738 -2.0554  0.1149  0.7134
  107MOL0     H14077   1.710   6.933   2.734 -1.0695  2.0136 -2.0001
  107MOL0     H14078   2.091   6.980   2.723  1.7648 -4.9569 -3.4079
  107MOL0     H14079   1.956   6.918   2.638  0.7343  3.1950 -0.5735
  107MOL0     H14080   2.034   6.736   2.768  0.2757 -0.0686  0.6155
  107MOL0     H14081   1.913   6.803   2.887 -0.0282  1.7457 -0.7696
  107MOL0     H14082   2.121   6.727   2.984  0.9643 -0.1720  0.9731
  107MOL0     H14083   2.208   6.866   2.895  0.3407 -0.2622 -0.2751
  107MOL0     H14084   1.965   6.968   3.044 -0.6636 -1.4873 -2.2590
  107MOL0     H14085   2.121   7.026   3.031 -0.7733  0.6400 -1.6724
  107MOL0     H14086   2.095   6.649   3.294 -1.5295 -3.1807  0.4069
  107MOL0     H14087   1.944   6.571   3.461  3.7043 -0.9425 -2.2407
  107MOL0     H14088   1.700   6.354   3.703 -0.7919 -0.5768 -1.3682
  107MOL0     H14089   1.502   6.241   3.792 -0.5025 -0.7570 -0.9624
  107MOL0     H14090   1.095   6.479   3.767 -0.3125  0.5726  1.2659
  107MOL0     H14091   1.165   6.490   3.941  0.6359 -2.7262  1.1829
  107MOL0     H14092   0.936   6.391   3.940 -1.2197 -1.4163 -2.9638
  107MOL0     H14093   1.069   6.295   4.006 -3.3531 -0.6600  0.8737
  107MOL0     H14094   0.945   6.152   3.878  2.4957  0.0231  2.1423
  107MOL0     H14095   1.089   6.167   3.781  1.1454  1.4241  0.0210
  107MOL0     H14096   0.836   6.307   3.716 -0.2062 -2.0451  0.6361
  107MOL0     H14097   0.996   6.337   3.630  3.8169 -2.4684  2.2142
  107MOL0     H14098   0.989   6.094   3.578  0.8617  0.5476 -1.6466
  107MOL0     H14099   0.889   6.205   3.496 -1.7861 -0.6512  0.0743
  107MOL0     H14100   0.685   6.131   3.615 -2.1356 -2.6226  0.9749
  107MOL0     H14101   0.780   6.054   3.733  0.8804  2.3417  0.3981
  107MOL0     H14102   0.816   5.962   3.445 -0.1599  1.7530  0.3948
  107MOL0     H14103   0.795   5.852   3.583  2.5089  0.9848  1.1880
  107MOL0     H14104   0.607   5.850   3.412  1.0593 -0.0164 -1.3553
  107MOL0     H14105   0.572   6.021   3.438  1.6511  1.2977  2.1374
  107MOL0     H14106   1.252   6.560   3.679 -0.8927 -2.8379  1.1420
  107MOL0     H14107   1.454   6.696   3.613  2.4670 -0.3192 -3.3149
  107MOL0     H14108   1.701   6.924   3.381 -0.0062  0.6733  0.2228
  107MOL0     H14109   1.872   7.010   3.244 -2.5367 -0.2737  0.8916
  107MOL0     H14110   1.692   6.416   3.347  0.7804  1.2623  0.7378
  107MOL0     H14111   1.920   6.303   3.322  0.0664  0.0762 -0.3105
  107MOL0     H14112   2.184   5.966   3.072 -1.9832  3.2795  0.3599
  107MOL0     H14113   2.413   5.873   3.003 -0.6166 -0.1022 -0.7511
  107MOL0     H14114   2.698   6.054   3.170 -2.3038 -3.9690  0.3379
  107MOL0     H14115   2.820   6.081   3.042 -0.3607 -0.3861 -0.2774
  107MOL0     H14116   2.687   5.817   3.118 -0.4943  0.3280  1.0161
  107MOL0     H14117   2.827   5.838   3.014  1.5470  0.9487 -0.2509
  107MOL0     H14118   2.822   5.782   3.289  2.8734 -1.6288 -0.9569
  107MOL0     H14119   2.862   5.948   3.285  2.7225  2.2835 -2.3230
  107MOL0     H14120   3.008   5.746   3.108  2.1942 -0.3639 -1.2133
  107MOL0     H14121   3.056   5.912   3.167  2.2722 -2.2042 -1.6339
  107MOL0     H14122   3.187   5.696   3.492  2.3040 -1.2088 -1.5300
  107MOL0     H14123   2.584   6.251   3.062  0.2982 -0.5922 -1.9646
  107MOL0     H14124   2.349   6.359   3.095 -0.3296  0.2507 -0.4566
  108MOL0     O14125   0.716   2.305   6.361  0.2193  0.8705  0.3822
  108MOL0     C14126   0.623   2.303   6.278 -0.6813  0.3017  0.2340
  108MOL0     O14127   0.635   2.278   6.149 -0.0909 -0.1504 -0.8993
  108MOL0     C14128   0.755   2.215   6.116  0.2297  0.0416  0.2144
  108MOL0     C14129   0.767   2.077   6.126  0.4235  0.8468 -0.1951
  108MOL0     C14130   0.889   2.017   6.094  0.9345  0.3957  1.2220
  108MOL0     C14131   1.002   2.096   6.052  0.2848  0.3733  0.8043
  108MOL0     O14132   1.116   2.037   5.999 -0.1028 -0.2341 -0.5353
  108MOL0     C14133   1.240   2.072   6.066  0.1709 -0.6198  0.3481
  108MOL0     C14134   1.251   1.985   6.188  0.7081 -1.6537  0.3548
  108MOL0     C14135   1.389   2.010   6.246  0.2011  0.1688 -0.1349
  108MOL0     C14136   1.397   1.978   6.396  0.1222 -0.2735  0.1193
  108MOL0     C14137   1.336   2.077   6.491 -0.6231 -0.2609 -0.1461
  108MOL0     C14138   1.360   2.030   6.635 -0.0932 -0.2836  0.1547
  108MOL0     C14139   1.279   2.107   6.748  0.0637  1.0225  0.8290
  108MOL0     C14140   1.279   2.028   6.880 -0.9775 -0.4993  0.0721
  108MOL0     N14141   1.190   2.098   6.977 -0.1084  0.5890  0.2255
  108MOL0     C14142   1.211   2.219   7.036  0.5950 -0.6102  0.4467
  108MOL0     C14143   1.095   2.220   7.114 -0.1024 -1.0750 -0.2467
  108MOL0     C14144   1.054   2.340   7.201 -1.1038 -0.1502 -0.4566
  108MOL0     C14145   1.143   2.352   7.324  0.4932 -0.0004 -1.5156
  108MOL0     C14146   1.140   2.493   7.387 -0.1425 -0.4338 -1.0156
  108MOL0     C14147   1.222   2.487   7.517  0.6475  0.1164 -0.0033
  108MOL0     O14148   1.360   2.511   7.494 -1.3627 -0.5294 -0.7057
  108MOL0     C14149   1.412   2.606   7.585 -0.4317 -0.3824 -0.0696
  108MOL0     C14150   1.416   2.575   7.717 -0.5888  1.1178  0.7920
  108MOL0     C14151   1.468   2.658   7.813 -0.2714 -0.1248 -0.4515
  108MOL0     C14152   1.509   2.787   7.766  0.1163  0.2034 -0.2349
  108MOL0     C14153   1.557   2.891   7.857  1.0517 -0.2711 -0.6378
  108MOL0     O14154   1.595   2.856   7.979  0.3992 -0.0497 -0.6212
  108MOL0     C14155   1.636   2.946   8.084  1.0226  0.5598  0.2459
  108MOL0     C14156   1.531   3.006   8.158  0.4210 -0.0350  0.1576
  108MOL0     C14157   1.545   3.112   8.242 -1.1603 -0.8527  0.3513
  108MOL0     C14158   1.677   3.169   8.231 -0.1531 -0.6538 -0.8808
  108MOL0     O14159   1.708   3.286   8.290 -0.4201 -0.4898  0.0371
  108MOL0     C14160   1.620   3.339   8.397 -0.3997  1.2060 -0.5766
  108MOL0     C14161   1.660   3.494   8.412 -0.6771  1.1187 -0.3712
  108MOL0     C14162   1.572   3.585   8.500 -0.0146  0.1435  0.1602
  108MOL0     C14163   1.608   3.734   8.489 -0.5668  0.4032  0.1985
  108MOL0     C14164   1.572   3.787   8.345  0.4275  0.5129 -0.4909
  108MOL0     C14165   1.557   3.940   8.344  0.7800  0.2005  1.2122
  108MOL0     C14166   1.692   4.013   8.357  0.5293  0.8164  0.4572
  108MOL0     C14167   1.700   4.158   8.312  0.6796 -0.5521 -0.8676
  108MOL0    Cl14168   1.623   4.253   8.437  0.3950 -0.2944 -0.0450
  108MOL0     C14169   1.787   3.109   8.172 -0.7148  0.6619 -0.2376
  108MOL0     C14170   1.762   2.998   8.083 -0.1854 -1.1659 -0.5939
  108MOL0     O14171   1.542   3.008   7.820 -0.6368  0.4307 -0.8182
  108MOL0     C14172   1.494   2.823   7.630  0.0544  0.2072 -0.2464
  108MOL0     C14173   1.460   2.734   7.539 -0.6149  0.2490  0.2067
  108MOL0     N14174   1.027   2.110   7.112 -0.0518 -0.1778  0.4332
  108MOL0     N14175   1.074   2.035   7.018  0.2410  0.3983  0.4894
  108MOL0     C14176   0.993   2.235   6.042 -0.1296 -0.0950 -0.6135
  108MOL0     C14177   0.862   2.293   6.068  0.2469  0.5413  0.1451
  108MOL0     C14178   0.498   2.353   6.332  0.4593 -0.0644 -0.3611
  108MOL0     C14179   0.480   2.386   6.469  0.4814  0.3398 -0.4061
  108MOL0     C14180   0.358   2.421   6.526 -0.6664 -0.0195  0.7489
  108MOL0     C14181   0.244   2.436   6.445 -0.0290 -0.2084  0.0388
  108MOL0     O14182   0.130   2.483   6.504 -0.7017 -0.7821  0.0202
  108MOL0     C14183   0.003   2.442   6.442  0.0758  0.3544 -0.5818
  108MOL0     C14184  -0.090   2.409   6.562  0.5530  0.3362  0.4427
  108MOL0     C14185  -0.244   2.418   6.521  0.3471 -0.3898  1.0857
  108MOL0     C14186  -0.336   2.368   6.626  0.7119  0.1452  0.3032
  108MOL0     C14187  -0.463   2.336   6.558 -0.0872 -0.0831 -1.4942
  108MOL0     C14188  -0.573   2.310   6.528 -0.0547 -1.0280  1.1963
  108MOL0     C14189   0.258   2.411   6.306 -0.5251  0.2729 -0.6719
  108MOL0     C14190   0.386   2.373   6.247  0.5012  0.7584 -1.1385
  108MOL0     H14191   0.683   2.013   6.151  1.7818 -0.8606  0.2439
  108MOL0     H14192   0.910   1.912   6.082  0.5411  0.5974 -2.4521
  108MOL0     H14193   1.234   2.176   6.099 -2.3489  0.6175 -3.4502
  108MOL0     H14194   1.324   2.061   5.997  1.9059  2.3835  1.7876
  108MOL0     H14195   1.231   1.881   6.163  0.3772 -1.7978  1.2069
  108MOL0     H14196   1.167   2.003   6.255 -1.6122 -0.2326 -2.6792
  108MOL0     H14197   1.418   2.113   6.227  0.5475 -0.2605 -2.0888
  108MOL0     H14198   1.457   1.939   6.198 -0.3313  0.1679 -0.9029
  108MOL0     H14199   1.357   1.878   6.417 -0.0869 -0.4121 -0.8638
  108MOL0     H14200   1.502   1.978   6.425 -0.6421 -1.2355  3.1802
  108MOL0     H14201   1.228   2.085   6.482 -0.6473  1.9958  1.4357
  108MOL0     H14202   1.372   2.177   6.466 -1.9552 -0.4607 -3.2924
  108MOL0     H14203   1.467   2.048   6.648  0.2654 -0.0283 -2.5724
  108MOL0     H14204   1.352   1.922   6.649  0.6181 -0.5011 -1.0107
  108MOL0     H14205   1.312   2.211   6.759 -0.1481  0.9629  2.1547
  108MOL0     H14206   1.175   2.119   6.714  0.8612  1.3413 -1.7155
  108MOL0     H14207   1.385   2.032   6.908 -0.1193  1.7464 -2.9449
  108MOL0     H14208   1.263   1.920   6.870 -1.0151 -0.6414  1.4359
  108MOL0     H14209   1.302   2.278   7.031  0.7801 -0.8411  1.0477
  108MOL0     H14210   0.956   2.320   7.246  0.2130 -2.7169  1.4943
  108MOL0     H14211   1.064   2.430   7.140 -1.5595 -1.0220 -1.8688
  108MOL0     H14212   1.241   2.334   7.279  1.3428  2.4982 -0.8243
  108MOL0     H14213   1.110   2.283   7.402 -0.1934 -0.5683 -2.2985
  108MOL0     H14214   1.173   2.568   7.315 -0.6987 -0.9566 -1.8451
  108MOL0     H14215   1.040   2.525   7.418  0.4555  0.7554 -0.2877
  108MOL0     H14216   1.218   2.383   7.550 -0.6669 -0.2044 -1.0588
  108MOL0     H14217   1.177   2.546   7.597 -2.1431 -0.5755 -0.9357
  108MOL0     H14218   1.385   2.476   7.750  4.0633  0.3913  4.0680
  108MOL0     H14219   1.484   2.633   7.918  1.1373  0.5379 -0.4940
  108MOL0     H14220   1.438   2.949   8.159  0.1389  0.3726  2.7431
  108MOL0     H14221   1.461   3.149   8.300 -1.1379 -0.7938  0.3462
  108MOL0     H14222   1.655   3.277   8.481 -0.1841  0.9206 -0.8731
  108MOL0     H14223   1.513   3.329   8.378 -0.9524 -1.9386  2.9537
  108MOL0     H14224   1.649   3.545   8.316  3.4084  1.9454 -0.5957
  108MOL0     H14225   1.762   3.510   8.448 -0.6632 -1.1185  0.8211
  108MOL0     H14226   1.585   3.566   8.607 -1.1395  2.1473  0.7125
  108MOL0     H14227   1.466   3.582   8.475  0.3283  2.0059 -1.8690
  108MOL0     H14228   1.541   3.772   8.567 -3.3023 -3.9018  0.2931
  108MOL0     H14229   1.714   3.750   8.510 -0.9513  0.4284  2.3935
  108MOL0     H14230   1.475   3.739   8.331  0.6322 -2.2001  4.7959
  108MOL0     H14231   1.636   3.750   8.264 -0.5104  1.1269 -1.5459
  108MOL0     H14232   1.488   3.980   8.419  1.3238 -0.5142  2.1281
  108MOL0     H14233   1.514   3.974   8.249  0.7735 -0.2209  1.0616
  108MOL0     H14234   1.732   3.989   8.456  0.3631 -3.0886 -0.2540
  108MOL0     H14235   1.762   3.967   8.287  2.6822 -0.5213  3.3044
  108MOL0     H14236   1.656   4.180   8.214 -1.7119  2.0352  0.6591
  108MOL0     H14237   1.806   4.187   8.312  0.1890  1.7704 -3.5187
  108MOL0     H14238   1.881   3.162   8.183 -0.1501 -0.3905  0.1501
  108MOL0     H14239   1.841   2.962   8.019  1.8640  2.2887 -0.2205
  108MOL0     H14240   1.517   2.922   7.591  1.0073  1.8154  3.8595
  108MOL0     H14241   1.452   2.757   7.433 -2.1633 -1.1890 -0.0448
  108MOL0     H14242   1.075   2.288   5.995 -1.3264  0.5155 -2.0792
  108MOL0     H14243   0.843   2.398   6.050 -5.6384  0.0331  1.2742
  108MOL0     H14244   0.563   2.380   6.539 -0.4147  0.8218  0.7337
  108MOL0     H14245   0.351   2.444   6.632 -0.3585  0.7033  0.6175
  108MOL0     H14246   0.021   2.350   6.386  1.0703  1.2908 -1.8325
  108MOL0     H14247  -0.047   2.510   6.373 -1.7139  0.3094  0.5913
  108MOL0     H14248  -0.073   2.307   6.599 -1.2097 -1.2863 -2.8132
  108MOL0     H14249  -0.089   2.497   6.627  0.8726  1.7694 -1.3854
  108MOL0     H14250  -0.267   2.363   6.428 -2.4338 -2.5814  2.8891
  108MOL0     H14251  -0.265   2.522   6.496  1.8925 -1.0155 -4.0490
  108MOL0     H14252  -0.298   2.279   6.677  4.4308  1.2787 -0.1952
  108MOL0     H14253  -0.347   2.448   6.701 -0.0791 -0.2733  0.6384
  108MOL0     H14254  -0.679   2.305   6.512  0.2315  0.7724 -2.3058
  108MOL0     H14255   0.175   2.442   6.245 -0.5036  0.0763 -0.8019
  108MOL0     H14256   0.395   2.358   6.140  0.3006 -4.3751 -0.6925
  109MOL0     O14257   4.150  10.836   4.619  0.2448  0.1326 -0.7554
  109MOL0     C14258   4.163  10.802   4.736  0.4476 -0.5157 -0.2813
  109MOL0     O14259   4.063  10.781   4.824 -0.8864  0.5005 -0.0725
  109MOL0     C14260   3.968  10.687   4.795  0.0337  1.2407  0.6269
  109MOL0     C14261   3.953  10.617   4.673  0.8285 -0.5601 -0.6035
  109MOL0     C14262   3.853  10.518   4.658  0.1795  0.1866 -0.1030
  109MOL0     C14263   3.776  10.476   4.775 -0.3742 -0.5033  1.3818
  109MOL0     O14264   3.693  10.372   4.753  0.1102 -0.1688  0.2402
  109MOL0     C14265   3.759  10.248   4.758  0.1839  0.3126 -0.2808
  109MOL0     C14266   3.674  10.138   4.702  0.7864 -0.4924 -0.8106
  109MOL0     C14267   3.732   9.996   4.724 -0.6021  0.4036  0.2276
  109MOL0     C14268   3.634   9.876   4.716  0.8415 -0.7748 -0.0509
  109MOL0     C14269   3.713   9.748   4.720  0.7124 -0.9085 -0.9887
  109MOL0     C14270   3.618   9.627   4.731  0.5211  0.9086  0.2061
  109MOL0     C14271   3.514   9.613   4.612 -0.3441  0.5842  0.5280
  109MOL0     C14272   3.579   9.522   4.517  0.1280 -0.1574  0.5998
  109MOL0     N14273   3.509   9.516   4.388 -0.2806  0.9899  0.6756
  109MOL0     C14274   3.470   9.401   4.316 -0.1906  0.2105  0.3635
  109MOL0     C14275   3.409   9.448   4.205  0.0268  0.7641  0.7733
  109MOL0     C14276   3.336   9.387   4.088  0.5955  0.2200 -1.6916
  109MOL0     C14277   3.382   9.254   4.034 -0.5318 -0.2548  0.1022
  109MOL0     C14278   3.283   9.193   3.939  0.4488 -0.4168  0.2209
  109MOL0     C14279   3.179   9.112   3.994  1.0207 -0.2131 -0.1130
  109MOL0     O14280   3.094   9.086   3.883  0.2626 -0.3517 -0.4172
  109MOL0     C14281   2.974   9.032   3.930  0.1268  0.2725  0.0894
  109MOL0     C14282   2.964   8.923   4.026 -0.5984 -0.4401  1.5491
  109MOL0     C14283   2.841   8.887   4.078 -0.7440 -0.1327 -0.3499
  109MOL0     C14284   2.723   8.947   4.027  0.2456 -0.7629  0.1954
  109MOL0     C14285   2.593   8.904   4.081 -0.0940 -1.0380 -0.3433
  109MOL0     O14286   2.592   8.821   4.190 -0.4219 -0.1078 -0.0416
  109MOL0     C14287   2.471   8.773   4.230 -0.3751  0.2647 -0.1686
  109MOL0     C14288   2.374   8.724   4.136  1.0034 -0.2000  0.0767
  109MOL0     C14289   2.239   8.692   4.183  0.4246  0.0441  1.1891
  109MOL0     C14290   2.207   8.676   4.312  0.0089  0.3362 -0.2525
  109MOL0     O14291   2.081   8.639   4.366 -0.5129 -0.4955  0.6771
  109MOL0     C14292   1.979   8.646   4.275  1.0416 -0.0472  0.0913
  109MOL0     C14293   1.843   8.602   4.335 -0.0618  0.7261  0.3362
  109MOL0     C14294   1.846   8.455   4.367  0.2914 -0.0154 -0.0989
  109MOL0     C14295   1.716   8.394   4.418  1.0068  0.4790 -0.7187
  109MOL0     C14296   1.735   8.242   4.462  0.2950  1.1363 -0.2983
  109MOL0     C14297   1.808   8.191   4.588 -0.0657  0.4447  0.5403
  109MOL0     C14298   1.865   8.047   4.557  0.5367 -0.0645  0.3500
  109MOL0     C14299   1.936   7.976   4.678 -0.0020  0.2167  0.8311
  109MOL0    Cl14300   2.030   8.102   4.787  0.1838  0.0167  0.2872
  109MOL0     C14301   2.310   8.718   4.406 -0.6489  0.1774  0.6645
  109MOL0     C14302   2.435   8.770   4.365 -0.6117 -0.1160 -0.1814
  109MOL0     O14303   2.501   8.967   4.034  0.1855 -0.5048  0.7435
  109MOL0     C14304   2.729   9.041   3.925  0.3386 -0.0001 -0.6819
  109MOL0     C14305   2.854   9.073   3.873  0.0561  0.2486  0.2091
  109MOL0     N14306   3.404   9.581   4.216  0.1520  0.3222  0.2365
  109MOL0     N14307   3.468   9.623   4.318  0.3361 -0.5113 -0.5379
  109MOL0     C14308   3.790  10.543   4.896  0.2715 -0.2935 -0.6243
  109MOL0     C14309   3.875  10.655   4.899 -0.0931 -1.1402  0.5929
  109MOL0     C14310   4.296  10.804   4.811 -1.0346 -0.9863  0.3780
  109MOL0     C14311   4.409  10.814   4.727  0.9731  0.3013  0.1643
  109MOL0     C14312   4.531  10.819   4.789 -0.8480 -0.4998  0.2947
  109MOL0     C14313   4.550  10.807   4.930  0.2919 -0.1906 -0.5318
  109MOL0     O14314   4.675  10.786   4.985 -0.1822 -0.1968  0.3268
  109MOL0     C14315   4.753  10.903   5.005 -0.6319 -0.5972 -0.4437
  109MOL0     C14316   4.874  10.852   5.068 -0.8832 -0.0644 -0.1756
  109MOL0     C14317   4.970  10.769   4.971  0.1906  0.4171 -0.7209
  109MOL0     C14318   5.044  10.828   4.849 -0.7370 -0.7049 -0.4544
  109MOL0     C14319   4.965  10.884   4.742  0.7412 -0.2815  0.0310
  109MOL0     C14320   4.897  10.945   4.667 -0.3228  0.4732  0.1109
  109MOL0     C14321   4.439  10.788   5.003  0.9079 -0.2232  0.0943
  109MOL0     C14322   4.311  10.799   4.945 -0.4835 -0.4845 -0.6567
  109MOL0     H14323   4.012  10.632   4.584 -0.3427  0.4608 -1.2382
  109MOL0     H14324   3.844  10.484   4.556  0.7377  3.0641 -1.2101
  109MOL0     H14325   3.781  10.223   4.862 -4.2993  0.1053  0.8535
  109MOL0     H14326   3.851  10.247   4.699  0.2059  0.8453 -0.2597
  109MOL0     H14327   3.663  10.163   4.596  1.4561  1.0577 -0.5339
  109MOL0     H14328   3.580  10.140   4.759  2.2562 -0.1482  1.7744
  109MOL0     H14329   3.777  10.007   4.823  1.4885 -1.3788 -0.4582
  109MOL0     H14330   3.820   9.969   4.665 -1.0933 -2.8649  0.8415
  109MOL0     H14331   3.571   9.865   4.805  1.7755 -1.1031  0.5876
  109MOL0     H14332   3.564   9.889   4.633 -0.0136 -1.0036  0.6244
  109MOL0     H14333   3.777   9.752   4.809 -0.1951  2.1184 -0.3739
  109MOL0     H14334   3.788   9.741   4.641  1.0639 -1.3492 -0.6307
  109MOL0     H14335   3.561   9.621   4.824  0.6065 -0.8576  0.1802
  109MOL0     H14336   3.683   9.539   4.731  2.5631  2.3641  1.1432
  109MOL0     H14337   3.429   9.556   4.650  1.3994 -1.9023  0.9426
  109MOL0     H14338   3.474   9.700   4.560  0.5987  1.5846  1.4231
  109MOL0     H14339   3.588   9.422   4.560 -2.2646 -1.3553 -1.3660
  109MOL0     H14340   3.683   9.554   4.505 -0.2899  1.4054  0.9923
  109MOL0     H14341   3.480   9.299   4.351  3.0601  0.1705 -0.3555
  109MOL0     H14342   3.312   9.463   4.013 -2.8482 -0.3261 -1.3262
  109MOL0     H14343   3.232   9.372   4.121 -0.0714  0.7234 -3.4358
  109MOL0     H14344   3.407   9.187   4.117  1.3455 -0.9128 -0.9486
  109MOL0     H14345   3.479   9.272   3.988 -0.5591  1.5363  0.6935
  109MOL0     H14346   3.241   9.278   3.884  0.8140 -1.1863 -1.3022
  109MOL0     H14347   3.345   9.132   3.872 -2.4107 -0.5301 -2.5358
  109MOL0     H14348   3.124   9.171   4.068 -2.1727 -1.9703 -0.9063
  109MOL0     H14349   3.224   9.020   4.031  1.4564 -0.7687 -1.9079
  109MOL0     H14350   3.050   8.873   4.070 -0.1003  1.6309  3.0856
  109MOL0     H14351   2.839   8.819   4.162 -3.6021 -2.3652 -2.0496
  109MOL0     H14352   2.378   8.716   4.028 -1.7554 -2.5487  0.0124
  109MOL0     H14353   2.159   8.677   4.111  1.5028  1.2311 -0.3383
  109MOL0     H14354   1.996   8.564   4.204  4.7789 -1.8517  2.7723
  109MOL0     H14355   1.965   8.738   4.218 -0.1985 -1.3187 -1.7905
  109MOL0     H14356   1.760   8.622   4.267 -0.6502 -2.6768 -0.1233
  109MOL0     H14357   1.822   8.656   4.428 -0.8977  2.8500 -1.0193
  109MOL0     H14358   1.922   8.429   4.440  2.0033 -1.3290 -2.2340
  109MOL0     H14359   1.884   8.393   4.285  0.0933 -1.8078  1.0953
  109MOL0     H14360   1.696   8.460   4.504  1.0752  0.2816 -0.5515
  109MOL0     H14361   1.644   8.404   4.336  0.2421 -4.9413 -1.0389
  109MOL0     H14362   1.789   8.193   4.380  0.1754 -2.8803  1.7935
  109MOL0     H14363   1.633   8.207   4.447  1.7159 -2.9305 -1.8902
  109MOL0     H14364   1.733   8.173   4.665 -3.9044 -0.5837 -3.1010
  109MOL0     H14365   1.893   8.256   4.609  1.3486 -1.5402  1.2840
  109MOL0     H14366   1.785   7.980   4.524  2.1412 -1.9298  0.0771
  109MOL0     H14367   1.932   8.048   4.470  1.5686  0.8221  1.1278
  109MOL0     H14368   2.015   7.913   4.638  0.7062  0.9350  1.0683
  109MOL0     H14369   1.865   7.922   4.741  1.1746 -3.1958 -0.5475
  109MOL0     H14370   2.278   8.704   4.509 -1.6025 -0.5171  0.2971
  109MOL0     H14371   2.511   8.800   4.436 -0.3886  2.2845 -1.3155
  109MOL0     H14372   2.638   9.063   3.870 -0.8979 -2.9989 -0.0636
  109MOL0     H14373   2.867   9.133   3.783  2.9211 -0.5488  0.0206
  109MOL0     H14374   3.728  10.503   4.975  0.4225  1.3165  0.3377
  109MOL0     H14375   3.882  10.711   4.992 -1.4125 -1.4790  0.9110
  109MOL0     H14376   4.401  10.820   4.619  0.7521  3.5459  0.2731
  109MOL0     H14377   4.620  10.824   4.727 -1.3606  0.4412 -0.3936
  109MOL0     H14378   4.708  10.962   5.085  0.7073 -0.6301  0.3768
  109MOL0     H14379   4.761  10.960   4.912  0.2311 -1.2100 -0.7550
  109MOL0     H14380   4.941  10.936   5.090  1.5425 -1.0282 -3.1377
  109MOL0     H14381   4.853  10.792   5.157  2.4514  0.7021  1.2834
  109MOL0     H14382   4.917  10.678   4.942 -3.3517  1.6966  1.1067
  109MOL0     H14383   5.045  10.730   5.040 -0.3952  1.9045  0.8273
  109MOL0     H14384   5.110  10.906   4.889  1.0926 -2.2823 -0.2259
  109MOL0     H14385   5.118  10.761   4.803  1.4317  0.8339  0.6027
  109MOL0     H14386   4.831  10.995   4.600 -1.3996 -0.4947  0.4079
  109MOL0     H14387   4.447  10.765   5.109 -1.8501  0.3506  0.5118
  109MOL0     H14388   4.217  10.811   4.998  1.7488  1.2973  3.3903
  110MOL0     O14389   1.884   9.799   9.098  0.5457 -0.5378  0.4121
  110MOL0     C14390   1.876   9.914   9.138 -0.1381  0.0570  0.5726
  110MOL0     O14391   1.958  10.021   9.087  0.3878  0.3097 -0.4314
  110MOL0     C14392   2.039   9.990   8.978  0.8866 -0.5072 -0.5100
  110MOL0     C14393   1.982   9.939   8.861  0.4696  0.1342  0.2522
  110MOL0     C14394   2.062   9.928   8.750 -0.0620 -0.3751  1.2849
  110MOL0     C14395   2.199   9.952   8.757 -0.1716 -0.8403 -0.1723
  110MOL0     O14396   2.265   9.933   8.640 -0.3634  0.2399 -0.5410
  110MOL0     C14397   2.342  10.035   8.582 -0.1238 -1.0905  1.0167
  110MOL0     C14398   2.492  10.025   8.606  0.2404  0.1635 -0.3674
  110MOL0     C14399   2.567   9.916   8.519 -0.3002  0.2360  0.2746
  110MOL0     C14400   2.726   9.939   8.525 -0.1778  0.6933  0.4636
  110MOL0     C14401   2.806   9.835   8.444 -0.3356 -0.2163 -0.5770
  110MOL0     C14402   2.774   9.832   8.291 -0.1085 -1.4492  0.0769
  110MOL0     C14403   2.886   9.788   8.193 -0.5045 -0.0282  1.4561
  110MOL0     C14404   2.927   9.637   8.203 -0.6692  0.2267 -0.1027
  110MOL0     N14405   2.810   9.554   8.174  0.2895  0.2390  0.1697
  110MOL0     C14406   2.696   9.529   8.252 -0.3399 -0.0496  0.8659
  110MOL0     C14407   2.645   9.415   8.213 -1.3210  0.4950  0.2805
  110MOL0     C14408   2.522   9.365   8.271 -0.2802 -0.6244 -0.4485
  110MOL0     C14409   2.485   9.218   8.246 -0.3283 -0.0954  0.2645
  110MOL0     C14410   2.452   9.186   8.096  0.7529  0.5410 -0.8922
  110MOL0     C14411   2.370   9.060   8.076 -1.0140 -0.7660 -0.9263
  110MOL0     O14412   2.229   9.090   8.093  0.5409  0.6479  0.4586
  110MOL0     C14413   2.169   9.017   8.191  0.2181 -0.4750  0.1967
  110MOL0     C14414   2.135   9.077   8.316 -0.2910  0.4119  0.5414
  110MOL0     C14415   2.093   9.000   8.427 -0.5999 -0.0239 -1.0607
  110MOL0     C14416   2.087   8.860   8.409  0.9304 -0.4791 -0.3228
  110MOL0     C14417   2.024   8.778   8.520 -0.3243 -0.2824 -0.4099
  110MOL0     O14418   1.943   8.680   8.473 -1.0867 -0.2204 -0.1101
  110MOL0     C14419   1.904   8.579   8.563  0.2562 -0.4952 -0.0448
  110MOL0     C14420   1.995   8.510   8.628 -1.3718 -0.1377 -0.4258
  110MOL0     C14421   1.958   8.411   8.717  0.5860 -0.3749  0.5122
  110MOL0     C14422   1.823   8.383   8.739 -1.2537 -0.1028 -0.9363
  110MOL0     O14423   1.786   8.275   8.815 -0.5745  0.6266  0.8888
  110MOL0     C14424   1.877   8.201   8.901 -0.2725  0.3930  0.3745
  110MOL0     C14425   1.794   8.123   9.003  0.5232  0.4726 -0.5679
  110MOL0     C14426   1.691   8.029   8.943  0.7640 -0.3392  0.1356
  110MOL0     C14427   1.742   7.883   8.925  0.7710  0.4033  0.3136
  110MOL0     C14428   1.629   7.802   8.858 -0.0709 -0.6125  0.0424
  110MOL0     C14429   1.670   7.656   8.827 -0.5892 -0.2199 -0.1984
  110MOL0     C14430   1.552   7.576   8.775 -0.3424  0.2137 -0.4623
  110MOL0     C14431   1.572   7.428   8.743 -0.2228  0.0511 -0.0169
  110MOL0    Cl14432   1.418   7.346   8.720 -0.0257 -0.1050 -0.2555
  110MOL0     C14433   1.733   8.438   8.668  0.2661 -0.3003  0.3249
  110MOL0     C14434   1.772   8.543   8.580  0.9246  0.4704 -0.1714
  110MOL0     O14435   2.038   8.810   8.639  0.0136  0.0027 -0.2183
  110MOL0     C14436   2.104   8.800   8.288 -0.6111  0.0129  0.1362
  110MOL0     C14437   2.152   8.876   8.181 -0.1969  0.9893 -0.5310
  110MOL0     N14438   2.712   9.372   8.101 -0.3783  0.5052  0.1153
  110MOL0     N14439   2.804   9.458   8.073  0.4762 -0.0190 -0.2013
  110MOL0     C14440   2.252  10.014   8.866  0.1832  0.1549 -0.4329
  110MOL0     C14441   2.174  10.033   8.982  0.0431 -1.2154  0.2857
  110MOL0     C14442   1.763   9.962   9.208 -0.4324  0.1567  0.4577
  110MOL0     C14443   1.734  10.101   9.225  0.2138  0.4176 -0.1669
  110MOL0     C14444   1.614  10.134   9.283  0.2585 -0.3368 -0.7084
  110MOL0     C14445   1.518  10.044   9.319 -1.3137 -0.9989 -0.6724
  110MOL0     O14446   1.409  10.085   9.392  0.3635 -0.2686  0.5815
  110MOL0     C14447   1.390  10.215   9.451  0.7349  0.2570 -0.3348
  110MOL0     C14448   1.247  10.230   9.502  0.2501  0.0364 -0.5020
  110MOL0     C14449   1.239  10.142   9.632 -0.4282  0.4191  0.0187
  110MOL0     C14450   1.108  10.167   9.710  0.0553  0.0588 -0.1996
  110MOL0     C14451   1.097  10.077   9.818 -0.9895  0.2014  0.7320
  110MOL0     C14452   1.084   9.983   9.891  0.4506  0.0148  0.3618
  110MOL0     C14453   1.538   9.904   9.302  0.2035 -1.0306 -0.6486
  110MOL0     C14454   1.666   9.862   9.253 -0.8721 -0.6181 -0.7460
  110MOL0     H14455   1.874   9.926   8.857  0.3710  1.0446 -0.4684
  110MOL0     H14456   2.031   9.901   8.650  0.2823  1.5040  0.6319
  110MOL0     H14457   2.314  10.136   8.615  1.1436 -0.1344 -0.6623
  110MOL0     H14458   2.332  10.028   8.473  2.3800 -2.0058  0.7844
  110MOL0     H14459   2.502   9.998   8.711  2.2816  0.4083 -0.4643
  110MOL0     H14460   2.544  10.120   8.591 -0.1980  0.2874 -1.1800
  110MOL0     H14461   2.528   9.923   8.417 -2.8835 -0.5968  1.1325
  110MOL0     H14462   2.545   9.818   8.562  1.4825  0.8368  2.7881
  110MOL0     H14463   2.755  10.039   8.494 -0.3278  0.5113 -0.2782
  110MOL0     H14464   2.755   9.931   8.630  2.3867 -2.5387 -0.2951
  110MOL0     H14465   2.787   9.741   8.497 -0.2797  0.7126  1.1695
  110MOL0     H14466   2.911   9.861   8.463 -0.7110 -0.1400  1.7059
  110MOL0     H14467   2.755   9.939   8.277  0.7980 -1.2633  0.1877
  110MOL0     H14468   2.681   9.778   8.271 -1.6033  1.0947 -0.2999
  110MOL0     H14469   2.859   9.824   8.093  2.3634 -1.5538  0.0016
  110MOL0     H14470   2.980   9.835   8.224 -0.2050  2.1084 -2.1731
  110MOL0     H14471   2.936   9.622   8.311  1.0314  2.9180  0.2362
  110MOL0     H14472   3.017   9.627   8.143 -2.1385  1.3023 -2.6411
  110MOL0     H14473   2.658   9.576   8.342 -4.1621 -1.8364  0.3837
  110MOL0     H14474   2.437   9.424   8.236 -1.1093  0.0159  2.3613
  110MOL0     H14475   2.534   9.388   8.377 -4.0353  2.7979 -0.5112
  110MOL0     H14476   2.402   9.182   8.307 -1.3922  0.6056 -0.7283
  110MOL0     H14477   2.569   9.150   8.263  1.0273  2.0217  2.5004
  110MOL0     H14478   2.400   9.260   8.034 -2.0325 -2.5293 -2.5807
  110MOL0     H14479   2.541   9.164   8.036 -0.3969 -0.7570 -2.2053
  110MOL0     H14480   2.398   8.969   8.131 -1.5701 -2.1051 -2.7750
  110MOL0     H14481   2.378   9.030   7.971 -0.2258 -0.5960 -0.9193
  110MOL0     H14482   2.159   9.183   8.322  0.7322  0.2786 -0.7707
  110MOL0     H14483   2.087   9.044   8.526  1.8486  0.9975 -1.2809
  110MOL0     H14484   2.100   8.539   8.635 -1.7559  0.9870  1.1347
  110MOL0     H14485   2.032   8.361   8.778  1.1462 -0.6696 -0.3871
  110MOL0     H14486   1.942   8.276   8.945  1.2927  0.0847 -1.2677
  110MOL0     H14487   1.927   8.127   8.838 -2.5547  0.5589 -1.8289
  110MOL0     H14488   1.747   8.198   9.067 -0.1725 -0.7459  0.4073
  110MOL0     H14489   1.856   8.062   9.069  1.1863 -1.8593 -3.1556
  110MOL0     H14490   1.658   8.068   8.847 -0.2851  1.6727  1.2557
  110MOL0     H14491   1.602   8.023   9.007  0.3340  0.7358 -0.3480
  110MOL0     H14492   1.830   7.884   8.861 -0.8632 -1.4075 -2.1429
  110MOL0     H14493   1.768   7.846   9.025 -2.9437  1.3936  1.8272
  110MOL0     H14494   1.605   7.851   8.763  1.1108 -0.1510 -0.0455
  110MOL0     H14495   1.538   7.797   8.918  1.9583 -0.3036  3.4200
  110MOL0     H14496   1.715   7.607   8.914 -0.6694 -0.0536 -0.0632
  110MOL0     H14497   1.743   7.649   8.746  0.4027 -1.7366  0.7602
  110MOL0     H14498   1.466   7.586   8.842 -0.8704 -2.6580 -0.5750
  110MOL0     H14499   1.532   7.606   8.671 -3.3880 -1.8630 -0.5951
  110MOL0     H14500   1.628   7.370   8.816 -1.2215  0.0602  0.7787
  110MOL0     H14501   1.625   7.420   8.647 -0.0181 -1.3740  0.1960
  110MOL0     H14502   1.627   8.438   8.691  0.3676  4.4182  1.8549
  110MOL0     H14503   1.695   8.596   8.525  1.8307 -0.0488 -2.0243
  110MOL0     H14504   2.099   8.692   8.280  0.0551 -0.0961  1.0049
  110MOL0     H14505   2.179   8.832   8.086 -0.1236  2.2396 -1.1188
  110MOL0     H14506   2.358  10.031   8.850  0.3170 -1.3670 -1.3370
  110MOL0     H14507   2.207  10.082   9.073 -1.1601 -0.0471  0.1317
  110MOL0     H14508   1.809  10.179   9.218 -0.1910  0.9134  0.8369
  110MOL0     H14509   1.593  10.241   9.285  0.9941 -0.1988  0.0648
  110MOL0     H14510   1.401  10.292   9.374 -1.2656  2.7065  1.6396
  110MOL0     H14511   1.467  10.231   9.526  1.5792 -1.0528 -0.8824
  110MOL0     H14512   1.230  10.337   9.523  2.9865  0.2918  0.8570
  110MOL0     H14513   1.172  10.192   9.432 -0.6666  2.5169 -1.0001
  110MOL0     H14514   1.323  10.169   9.696 -0.1978  2.6097 -1.0875
  110MOL0     H14515   1.238  10.035   9.607 -3.4240 -0.5142  3.3419
  110MOL0     H14516   1.112  10.270   9.747  2.7523  0.1623 -0.5581
  110MOL0     H14517   1.019  10.155   9.648  0.3251 -2.1611 -0.2371
  110MOL0     H14518   1.085   9.902   9.962 -4.4068 -0.1717  0.5721
  110MOL0     H14519   1.469   9.829   9.338  2.4512 -2.8216  0.2036
  110MOL0     H14520   1.694   9.758   9.242  0.6399 -0.5958  2.1053
  111MOL0     O14521   1.382   1.509   8.450 -0.2491  0.2526 -0.2059
  111MOL0     C14522   1.331   1.541   8.338 -0.1975  0.1582 -0.8500
  111MOL0     O14523   1.391   1.526   8.220  0.6343  0.2039 -0.0694
  111MOL0     C14524   1.513   1.468   8.205 -0.9792 -0.2197 -0.6478
  111MOL0     C14525   1.561   1.499   8.071 -0.5081  0.0138 -0.6488
  111MOL0     C14526   1.687   1.442   8.036 -0.0602 -1.2262 -0.1319
  111MOL0     C14527   1.761   1.365   8.127 -0.0925  0.2464  0.1144
  111MOL0     O14528   1.881   1.315   8.092  0.1460 -0.1250  0.4011
  111MOL0     C14529   1.879   1.181   8.034 -0.4546 -0.1808  0.0558
  111MOL0     C14530   2.017   1.142   7.962 -0.4123  0.2884 -0.3738
  111MOL0     C14531   2.144   1.167   8.050 -0.7036  0.5060 -0.0231
  111MOL0     C14532   2.262   1.109   7.980 -0.8659  0.6932  0.1096
  111MOL0     C14533   2.375   1.090   8.088 -0.1641 -0.3188  1.6468
  111MOL0     C14534   2.511   1.037   8.029  0.1090 -0.1244 -0.8176
  111MOL0     C14535   2.569   1.115   7.913 -0.7826  0.3451 -0.0734
  111MOL0     C14536   2.668   1.223   7.969 -0.1422 -0.4440 -0.1850
  111MOL0     N14537   2.743   1.273   7.849 -1.0473  0.0529  0.0205
  111MOL0     C14538   2.751   1.408   7.822 -0.1641  0.2964  0.2613
  111MOL0     C14539   2.867   1.426   7.761  0.1134 -0.0203 -0.1312
  111MOL0     C14540   2.941   1.544   7.708 -0.0034 -0.5506  0.3643
  111MOL0     C14541   3.039   1.577   7.820  0.9968  0.0221 -0.2557
  111MOL0     C14542   2.982   1.677   7.916 -0.1530  0.2593 -0.1226
  111MOL0     C14543   3.079   1.712   8.017 -0.6279 -0.3833 -0.7248
  111MOL0     O14544   3.019   1.761   8.133  0.7355 -0.4439 -0.0577
  111MOL0     C14545   3.097   1.843   8.217  1.0128  0.8289 -0.5437
  111MOL0     C14546   3.236   1.830   8.231 -0.7742 -0.3713  0.7417
  111MOL0     C14547   3.301   1.923   8.314 -0.0804 -0.3342 -1.2967
  111MOL0     C14548   3.236   2.015   8.397  0.7263 -0.5375  0.0663
  111MOL0     C14549   3.308   2.096   8.492 -0.1430  0.1026  0.0275
  111MOL0     O14550   3.221   2.142   8.591 -0.8816  0.4143 -0.0902
  111MOL0     C14551   3.258   2.239   8.682 -0.5373  1.2845 -0.1694
  111MOL0     C14552   3.319   2.362   8.641  0.6612  0.6977 -0.5597
  111MOL0     C14553   3.371   2.461   8.728  0.9680 -0.0047 -0.5163
  111MOL0     C14554   3.342   2.443   8.868 -0.5119  0.5858 -0.0097
  111MOL0     O14555   3.407   2.525   8.953 -0.1682 -0.2481 -0.1920
  111MOL0     C14556   3.493   2.463   9.049  0.2289  0.4647 -0.6089
  111MOL0     C14557   3.612   2.394   8.999  0.3128  0.0819 -0.6262
  111MOL0     C14558   3.699   2.484   8.909  1.4199  0.2984  0.2788
  111MOL0     C14559   3.776   2.389   8.815  0.0297 -0.3289  0.3644
  111MOL0     C14560   3.888   2.468   8.748 -0.2995  0.5154 -0.2045
  111MOL0     C14561   3.942   2.403   8.620 -0.7691 -0.4147  0.5909
  111MOL0     C14562   4.042   2.282   8.637 -0.0461 -0.4593 -0.4483
  111MOL0     C14563   4.062   2.202   8.512 -0.5478  0.2661  0.1911
  111MOL0    Cl14564   4.123   2.293   8.374  0.1582 -0.4425 -0.5179
  111MOL0     C14565   3.289   2.315   8.907  0.3543  0.8502  0.3425
  111MOL0     C14566   3.237   2.222   8.813 -0.3712 -0.2536  0.6495
  111MOL0     O14567   3.432   2.104   8.494 -0.5011 -0.0190  0.0300
  111MOL0     C14568   3.087   2.019   8.384 -0.3939 -0.7917 -1.0459
  111MOL0     C14569   3.023   1.937   8.292 -0.3375  0.8397 -0.3008
  111MOL0     N14570   2.918   1.300   7.745 -0.8442 -0.1717 -0.0027
  111MOL0     N14571   2.850   1.216   7.799  0.6672  0.4175 -0.0103
  111MOL0     C14572   1.711   1.341   8.259  0.1205  0.3298 -0.1405
  111MOL0     C14573   1.585   1.385   8.289  0.0698  1.2463 -0.1060
  111MOL0     C14574   1.193   1.604   8.330 -0.8908  0.4829  0.3314
  111MOL0     C14575   1.146   1.653   8.208 -0.2761  0.4238 -0.0916
  111MOL0     C14576   1.009   1.691   8.202 -0.1555 -0.1038  0.6171
  111MOL0     C14577   0.918   1.688   8.312  0.3974 -0.1878 -1.0896
  111MOL0     O14578   0.784   1.708   8.314  0.0996 -0.7746  0.5684
  111MOL0     C14579   0.711   1.735   8.195  0.5691 -0.7901 -0.4315
  111MOL0     C14580   0.666   1.881   8.200 -0.7871 -0.4406 -0.3529
  111MOL0     C14581   0.781   1.988   8.193 -0.5603 -0.4284 -1.0505
  111MOL0     C14582   0.746   2.128   8.207  0.0581 -0.2732 -0.0575
  111MOL0     C14583   0.852   2.229   8.172 -1.1669 -0.4749 -0.1882
  111MOL0     C14584   0.940   2.304   8.129 -0.3296 -0.2888  0.6693
  111MOL0     C14585   0.984   1.650   8.435  0.2570 -0.1868 -1.2510
  111MOL0     C14586   1.114   1.610   8.446 -0.1818  0.4375 -0.0839
  111MOL0     H14587   1.488   1.552   8.010 -1.3555 -0.3956 -0.0205
  111MOL0     H14588   1.749   1.472   7.952  1.9636 -2.2701  0.9128
  111MOL0     H14589   1.799   1.172   7.960  3.6345  2.0140 -5.2600
  111MOL0     H14590   1.873   1.119   8.125 -0.0057  0.6177  0.6411
  111MOL0     H14591   2.025   1.200   7.869  1.8498 -1.6003 -1.4272
  111MOL0     H14592   2.014   1.036   7.937  2.6067 -0.1034  0.6319
  111MOL0     H14593   2.141   1.111   8.144  2.0676 -2.5121 -1.5319
  111MOL0     H14594   2.155   1.272   8.077 -0.9561  0.8076 -1.0668
  111MOL0     H14595   2.235   1.008   7.948 -0.2005  1.2764 -2.5060
  111MOL0     H14596   2.277   1.175   7.895 -0.4996  2.8383  1.7683
  111MOL0     H14597   2.337   1.016   8.160 -0.9818 -2.4226 -0.7738
  111MOL0     H14598   2.391   1.181   8.146  2.9905 -0.1463  0.7174
  111MOL0     H14599   2.496   0.935   7.993  2.7771 -0.0055 -2.5907
  111MOL0     H14600   2.584   1.018   8.108  0.8915  3.3320 -0.5375
  111MOL0     H14601   2.615   1.038   7.851 -2.6962 -2.7532  2.0636
  111MOL0     H14602   2.494   1.177   7.864 -1.9900 -1.5571 -0.7406
  111MOL0     H14603   2.736   1.179   8.043 -0.5037  2.2600  1.8862
  111MOL0     H14604   2.617   1.306   8.017 -0.2799 -1.9251  2.3809
  111MOL0     H14605   2.682   1.486   7.853  0.4032  0.5929  0.7791
  111MOL0     H14606   2.871   1.625   7.684  0.4588 -0.4275 -0.6430
  111MOL0     H14607   2.996   1.519   7.617  1.4918 -0.2728  1.1589
  111MOL0     H14608   3.129   1.622   7.777 -1.0813  3.0041 -1.9024
  111MOL0     H14609   3.071   1.490   7.877  1.6152  0.3313 -0.1251
  111MOL0     H14610   2.956   1.768   7.860 -2.3737 -0.7048 -0.7737
  111MOL0     H14611   2.888   1.635   7.952 -0.2577  0.0577 -0.6224
  111MOL0     H14612   3.141   1.786   7.966 -0.9215  1.6102  1.5874
  111MOL0     H14613   3.151   1.632   8.040  0.8873  2.0515  4.9671
  111MOL0     H14614   3.278   1.766   8.155 -3.1346 -2.2905  0.9331
  111MOL0     H14615   3.409   1.919   8.324 -0.0531  1.6196 -0.5286
  111MOL0     H14616   3.331   2.362   8.533  1.6800 -2.0606 -0.5345
  111MOL0     H14617   3.422   2.551   8.696  1.6052 -0.0481  0.3679
  111MOL0     H14618   3.432   2.399   9.113  3.6399 -2.4095  0.1471
  111MOL0     H14619   3.519   2.539   9.123 -4.7600  3.7471 -1.7326
  111MOL0     H14620   3.577   2.307   8.943  4.7051  0.5270 -4.6732
  111MOL0     H14621   3.670   2.335   9.071  0.0799 -0.6460 -1.0277
  111MOL0     H14622   3.764   2.554   8.962 -0.3396  0.9494  1.6876
  111MOL0     H14623   3.647   2.550   8.841  0.1698  0.5538  1.4456
  111MOL0     H14624   3.807   2.288   8.844  0.5089 -0.2748  0.0512
  111MOL0     H14625   3.696   2.361   8.745  0.3680 -0.8552  0.1820
  111MOL0     H14626   3.957   2.494   8.830 -2.9275 -0.6758  2.5953
  111MOL0     H14627   3.838   2.558   8.713 -2.7104 -1.0495 -1.0515
  111MOL0     H14628   3.989   2.486   8.566 -3.2668  2.2320  2.1529
  111MOL0     H14629   3.860   2.372   8.555  0.6492  0.3415 -1.6826
  111MOL0     H14630   4.134   2.326   8.677 -0.3734 -0.3384  0.1839
  111MOL0     H14631   4.010   2.214   8.717 -0.2171  2.2019  1.8637
  111MOL0     H14632   3.972   2.154   8.474 -1.9765  2.3788  0.7555
  111MOL0     H14633   4.137   2.125   8.533  3.2765  3.7342  0.5386
  111MOL0     H14634   3.284   2.286   9.012  0.3383 -0.1021  0.0903
  111MOL0     H14635   3.192   2.131   8.850 -0.8381  0.1295  1.0453
  111MOL0     H14636   3.024   2.089   8.437  0.3295 -0.8012 -0.1586
  111MOL0     H14637   2.918   1.961   8.283  0.1717  2.4330 -3.1764
  111MOL0     H14638   1.770   1.290   8.334  2.1171  3.6169  0.7584
  111MOL0     H14639   1.543   1.347   8.381 -3.2484 -2.2457 -2.6946
  111MOL0     H14640   1.217   1.666   8.127  0.7206  1.1061  0.8479
  111MOL0     H14641   0.971   1.727   8.107 -0.3297  1.4192  1.2222
  111MOL0     H14642   0.619   1.676   8.191  0.9814 -1.4271 -0.7021
  111MOL0     H14643   0.754   1.725   8.095 -0.7845  4.2910 -1.8371
  111MOL0     H14644   0.599   1.902   8.116  0.0460  1.7381 -0.5382
  111MOL0     H14645   0.610   1.905   8.291  2.5027  1.8203  1.2756
  111MOL0     H14646   0.842   1.974   8.103 -2.0903 -2.2086 -1.8973
  111MOL0     H14647   0.854   1.965   8.271  0.6415  3.4335 -0.8427
  111MOL0     H14648   0.664   2.155   8.140  1.4550  0.6849 -1.4452
  111MOL0     H14649   0.723   2.147   8.313 -1.6734  1.8940 -0.7569
  111MOL0     H14650   1.012   2.376   8.095  0.6710 -1.7269 -0.4059
  111MOL0     H14651   0.942   1.657   8.535  3.5548  0.0744  0.2494
  111MOL0     H14652   1.153   1.593   8.545 -1.0677  3.8093  0.9843
  112MOL0     O14653   6.950  10.157  10.176  0.4200  0.0888 -0.7784
  112MOL0     C14654   6.891  10.185  10.076 -0.3442  0.1345  1.0087
  112MOL0     O14655   6.787  10.114  10.027  0.1638 -1.2728 -0.2942
  112MOL0     C14656   6.814  10.024   9.927  0.5993  0.3674 -0.1983
  112MOL0     C14657   6.709   9.940   9.888 -0.5596 -0.4245 -0.2708
  112MOL0     C14658   6.731   9.840   9.799  0.0801  0.2619  0.5494
  112MOL0     C14659   6.861   9.807   9.761  0.0691  0.0400  0.5410
  112MOL0     O14660   6.871   9.693   9.685 -0.0398  0.7512  0.6359
  112MOL0     C14661   6.870   9.575   9.758 -0.1409  0.3793  0.1300
  112MOL0     C14662   6.904   9.447   9.679  1.1364 -0.8107  0.3002
  112MOL0     C14663   7.034   9.450   9.604 -1.2917 -0.1127 -0.1990
  112MOL0     C14664   7.053   9.315   9.545  0.2747 -0.6814  0.6810
  112MOL0     C14665   7.169   9.307   9.439 -0.2294 -0.6826  0.2879
  112MOL0     C14666   7.126   9.331   9.293 -0.4081  0.6581 -0.6328
  112MOL0     C14667   7.239   9.314   9.190 -0.5505  0.9649  0.1305
  112MOL0     C14668   7.188   9.312   9.043 -0.8512 -0.1520 -0.0272
  112MOL0     N14669   7.299   9.305   8.935 -0.2321 -0.4095  0.1496
  112MOL0     C14670   7.378   9.199   8.906  0.5921  0.1474  0.3918
  112MOL0     C14671   7.458   9.241   8.803  0.0084  0.0011 -1.1515
  112MOL0     C14672   7.576   9.162   8.743  0.3147 -0.3791  0.4918
  112MOL0     C14673   7.532   9.046   8.655  0.7555  0.1000 -0.8994
  112MOL0     C14674   7.598   9.066   8.509 -0.8992  0.9070  1.0006
  112MOL0     C14675   7.544   8.968   8.407 -0.1588  0.3499 -0.7248
  112MOL0     O14676   7.583   8.824   8.430 -0.8157 -0.7805  0.5134
  112MOL0     C14677   7.696   8.788   8.353 -0.8047 -0.6842 -0.2119
  112MOL0     C14678   7.807   8.874   8.337 -0.1152  0.8906  0.3688
  112MOL0     C14679   7.919   8.832   8.272 -0.2879  0.4387 -0.1481
  112MOL0     C14680   7.922   8.698   8.209  0.6946 -0.4093  0.0603
  112MOL0     C14681   8.034   8.655   8.121 -0.0053 -0.5215 -0.1720
  112MOL0     O14682   8.149   8.623   8.170 -0.1483 -0.5950  0.3077
  112MOL0     C14683   8.183   8.690   8.279  0.7440 -0.3008  0.3759
  112MOL0     C14684   8.237   8.820   8.275  0.2711  0.2243  0.9959
  112MOL0     C14685   8.262   8.893   8.390  0.6338 -0.6483 -0.8031
  112MOL0     C14686   8.242   8.827   8.515  0.5885  0.7972  0.3780
  112MOL0     O14687   8.262   8.919   8.621  0.0728 -0.0060 -0.1242
  112MOL0     C14688   8.255   8.875   8.757 -0.3944 -0.4384  1.0756
  112MOL0     C14689   8.121   8.909   8.817 -0.3711 -0.1880 -0.4700
  112MOL0     C14690   8.101   9.056   8.834 -0.6687  0.5534  0.0949
  112MOL0     C14691   7.974   9.097   8.919  0.1405  0.2804 -0.2013
  112MOL0     C14692   7.977   9.244   8.938  0.3283 -0.7716  0.2708
  112MOL0     C14693   7.867   9.310   9.020 -0.3079  0.5280 -0.1606
  112MOL0     C14694   7.816   9.435   8.945  0.7282 -0.1386 -0.5570
  112MOL0     C14695   7.692   9.485   9.020 -0.9231  0.2179 -0.1777
  112MOL0    Cl14696   7.758   9.534   9.178 -0.5404 -0.0975  0.0379
  112MOL0     C14697   8.202   8.696   8.522  1.0965  0.1861  0.7755
  112MOL0     C14698   8.169   8.630   8.403  0.2664 -0.0110  1.5094
  112MOL0     O14699   8.008   8.616   8.009  0.3073 -0.3839  1.1056
  112MOL0     C14700   7.817   8.608   8.234  0.5548  0.0131 -0.8536
  112MOL0     C14701   7.699   8.657   8.297 -0.4976 -0.1648 -0.4947
  112MOL0     N14702   7.438   9.375   8.778  0.2667  0.2578 -0.6909
  112MOL0     N14703   7.350   9.412   8.866  0.1832  0.2946  0.2863
  112MOL0     C14704   6.969   9.888   9.798  1.5215  0.3046 -0.7189
  112MOL0     C14705   6.948   9.991   9.886  0.7581  0.3554  0.0205
  112MOL0     C14706   6.920  10.324  10.016 -0.5916  0.1881 -0.0085
  112MOL0     C14707   6.838  10.377   9.921 -0.3422 -0.2130 -0.0909
  112MOL0     C14708   6.857  10.508   9.870 -0.5079  0.8056  0.1923
  112MOL0     C14709   6.956  10.588   9.929 -0.1189 -0.2661  1.5117
  112MOL0     O14710   6.967  10.712   9.869  0.0466  0.6152  0.1558
  112MOL0     C14711   7.041  10.813   9.935  0.4045 -0.4479 -0.5097
  112MOL0     C14712   6.986  10.950   9.916  0.2157  0.0188 -0.7839
  112MOL0     C14713   7.085  11.061   9.951  0.3313  0.7078 -0.2710
  112MOL0     C14714   7.007  11.196   9.966 -0.2726 -0.2711 -0.5333
  112MOL0     C14715   7.099  11.306   9.992  0.4648  0.5015 -0.3185
  112MOL0     C14716   7.181  11.393  10.009  0.9769 -0.2104  0.5704
  112MOL0     C14717   7.040  10.539  10.029 -0.3816  0.4222  0.7264
  112MOL0     C14718   7.026  10.397  10.066 -0.3964  0.4868  0.2598
  112MOL0     H14719   6.612   9.954   9.935 -0.8611 -1.1855 -0.6516
  112MOL0     H14720   6.651   9.778   9.760 -0.0174  0.2974  0.6913
  112MOL0     H14721   6.773   9.554   9.804  0.7744 -4.6333  0.3340
  112MOL0     H14722   6.945   9.594   9.835 -0.1233  0.8368  0.0045
  112MOL0     H14723   6.830   9.428   9.601  0.3355 -0.0315  0.8577
  112MOL0     H14724   6.895   9.371   9.757 -0.5000  2.1554  3.2649
  112MOL0     H14725   7.111   9.477   9.678 -2.0014 -3.2626  1.8710
  112MOL0     H14726   7.028   9.527   9.527  3.1226  0.2035 -0.4820
  112MOL0     H14727   7.093   9.250   9.623  1.6335 -0.7186 -0.0035
  112MOL0     H14728   6.963   9.271   9.501  0.2027  0.8798 -0.8135
  112MOL0     H14729   7.217   9.210   9.437 -1.5996 -1.5678 -5.0415
  112MOL0     H14730   7.248   9.375   9.474  0.2581 -2.0178  1.9318
  112MOL0     H14731   7.087   9.431   9.273  3.2697  1.7304 -3.8465
  112MOL0     H14732   7.040   9.267   9.273  0.8422 -1.1546 -0.4765
  112MOL0     H14733   7.311   9.390   9.222 -0.4899 -0.4968  3.9970
  112MOL0     H14734   7.298   9.224   9.211  1.3731  2.3931  1.1873
  112MOL0     H14735   7.129   9.401   9.018 -1.8145 -0.7828 -0.0620
  112MOL0     H14736   7.119   9.228   9.035 -1.2394  0.2635 -1.3919
  112MOL0     H14737   7.380   9.102   8.954 -2.9524 -0.6919 -0.8915
  112MOL0     H14738   7.647   9.124   8.817  2.4044 -0.4079 -1.4063
  112MOL0     H14739   7.630   9.240   8.687 -0.1910 -1.5311 -1.7089
  112MOL0     H14740   7.422   9.045   8.657  0.6565  1.2539  2.7787
  112MOL0     H14741   7.568   8.954   8.702  2.5594  0.5831 -1.2577
  112MOL0     H14742   7.572   9.158   8.457 -0.1022 -0.5482 -2.2623
  112MOL0     H14743   7.706   9.056   8.528 -0.5773 -4.2669 -1.6495
  112MOL0     H14744   7.576   8.989   8.305  0.2076 -2.0279 -1.1697
  112MOL0     H14745   7.436   8.977   8.419  0.0521  2.9524 -0.3519
  112MOL0     H14746   7.816   8.975   8.374 -3.4833  1.3637  0.1931
  112MOL0     H14747   7.998   8.905   8.261  1.3328 -1.5259 -2.7794
  112MOL0     H14748   8.271   8.871   8.185  1.3316  1.4498  2.0330
  112MOL0     H14749   8.300   8.995   8.383 -1.0800 -0.0822 -2.6404
  112MOL0     H14750   8.331   8.923   8.819  2.2127 -1.4875 -1.1156
  112MOL0     H14751   8.262   8.766   8.770  1.4056 -0.6953 -1.3102
  112MOL0     H14752   8.129   8.866   8.918  1.0788  0.9119 -0.0883
  112MOL0     H14753   8.040   8.855   8.767  1.4365 -2.6302 -0.9502
  112MOL0     H14754   8.101   9.097   8.733  2.7019 -1.9671 -1.1041
  112MOL0     H14755   8.187   9.096   8.888 -2.9750  3.2722  2.0804
  112MOL0     H14756   7.885   9.061   8.867 -0.8880  0.5046  1.3371
  112MOL0     H14757   7.978   9.050   9.017 -2.9386 -0.2562 -0.2551
  112MOL0     H14758   7.970   9.283   8.837 -0.7241 -1.2099  0.1636
  112MOL0     H14759   8.071   9.268   8.987  0.4951 -2.3697  0.8051
  112MOL0     H14760   7.912   9.334   9.117  1.2456  2.1458 -1.2026
  112MOL0     H14761   7.783   9.243   9.040  0.8061 -1.2777 -1.3321
  112MOL0     H14762   7.888   9.516   8.934 -0.9749  1.4427 -0.5149
  112MOL0     H14763   7.776   9.401   8.849  2.5320 -2.7294 -0.4936
  112MOL0     H14764   7.616   9.408   9.032 -0.3295 -0.0650  2.6142
  112MOL0     H14765   7.633   9.568   8.981 -1.3711 -0.0439 -0.0629
  112MOL0     H14766   8.183   8.654   8.620  0.2691  0.1056  0.5864
  112MOL0     H14767   8.120   8.533   8.407 -0.6379  0.3695  0.1948
  112MOL0     H14768   7.830   8.505   8.206 -0.9646 -0.5594  0.3873
  112MOL0     H14769   7.614   8.594   8.321  0.6813 -1.2063  1.1361
  112MOL0     H14770   7.069   9.862   9.766  0.6666 -2.4950 -1.3416
  112MOL0     H14771   7.029  10.052   9.924  1.4160 -1.2714  1.4064
  112MOL0     H14772   6.765  10.307   9.881  0.2106 -1.0596  0.3323
  112MOL0     H14773   6.788  10.550   9.797 -2.1545  2.3723  2.5190
  112MOL0     H14774   7.143  10.821   9.896  0.6473 -2.4980 -0.4026
  112MOL0     H14775   7.049  10.796  10.043 -0.5667 -3.6079 -0.8389
  112MOL0     H14776   6.965  10.961   9.809  0.2590 -1.3830 -0.9613
  112MOL0     H14777   6.892  10.967   9.970  0.4154 -1.8280  0.2423
  112MOL0     H14778   7.156  11.068   9.868  0.1843  0.1258 -0.4445
  112MOL0     H14779   7.118  11.031  10.050 -3.0526 -0.6076  0.6104
  112MOL0     H14780   6.961  11.231   9.873  2.7695 -0.1658 -2.0917
  112MOL0     H14781   6.926  11.191  10.040 -1.6139 -1.3706 -1.9960
  112MOL0     H14782   7.252  11.469  10.034 -0.5984  1.5153  0.0105
  112MOL0     H14783   7.127  10.590  10.068  1.2625 -0.1344 -2.0285
  112MOL0     H14784   7.097  10.356  10.137 -0.3758 -1.1642 -0.6546
  113MOL0     O14785   6.130   4.641   0.370  0.0017 -0.0511  0.3530
  113MOL0     C14786   6.041   4.661   0.458 -0.2834 -0.2607  0.7755
  113MOL0     O14787   6.013   4.780   0.522 -0.8823 -0.0262  0.9282
  113MOL0     C14788   6.093   4.888   0.500 -0.5620  0.4842 -1.3184
  113MOL0     C14789   6.092   4.978   0.390  0.7275 -0.1857  0.2827
  113MOL0     C14790   6.174   5.092   0.375 -0.6857  0.1005  0.7247
  113MOL0     C14791   6.261   5.129   0.475 -0.8642  0.2035  0.4279
  113MOL0     O14792   6.351   5.233   0.480 -0.0020 -0.2561 -0.9460
  113MOL0     C14793   6.371   5.322   0.368  0.6392 -0.6056 -0.0764
  113MOL0     C14794   6.407   5.465   0.415 -0.6364  0.9933  0.3855
  113MOL0     C14795   6.293   5.512   0.509 -0.2845  0.2592 -0.2554
  113MOL0     C14796   6.297   5.663   0.525  0.3273  0.3228  0.3752
  113MOL0     C14797   6.179   5.719   0.605 -0.2037 -0.1526  0.6395
  113MOL0     C14798   6.042   5.723   0.535  0.4973  0.0757  0.7376
  113MOL0     C14799   5.974   5.850   0.573 -0.1098 -0.0285 -0.5259
  113MOL0     C14800   5.823   5.833   0.535  0.0362  0.0545  0.3924
  113MOL0     N14801   5.753   5.726   0.612 -0.1357 -0.1758 -0.0520
  113MOL0     C14802   5.640   5.665   0.555 -0.6684 -1.2453  0.1309
  113MOL0     C14803   5.566   5.620   0.653 -0.5223 -0.7335 -0.3498
  113MOL0     C14804   5.430   5.566   0.644  0.2411 -0.7248  0.1914
  113MOL0     C14805   5.441   5.406   0.646 -1.2159 -0.2515 -0.3626
  113MOL0     C14806   5.308   5.333   0.628  0.6669  0.5226 -1.0878
  113MOL0     C14807   5.216   5.391   0.521 -0.1295  0.3223 -0.5460
  113MOL0     O14808   5.252   5.353   0.386 -0.2424  0.5823  0.1815
  113MOL0     C14809   5.165   5.351   0.295  0.5737 -0.3411  0.6821
  113MOL0     C14810   5.187   5.286   0.170 -0.8225 -0.0257 -1.0703
  113MOL0     C14811   5.086   5.285   0.076 -0.2016 -0.3311  0.3583
  113MOL0     C14812   4.963   5.358   0.095 -0.5765 -0.2015  0.2008
  113MOL0     C14813   4.861   5.355  -0.013 -0.3055  0.1400  0.2398
  113MOL0     O14814   4.900   5.292  -0.130  0.0942  0.7346 -0.3882
  113MOL0     C14815   4.806   5.271  -0.225  0.3803  0.3201  0.4480
  113MOL0     C14816   4.737   5.150  -0.232  0.2636 -0.3118  0.0192
  113MOL0     C14817   4.625   5.138  -0.326 -0.5137  1.1309 -0.1957
  113MOL0     C14818   4.599   5.239  -0.410  0.1700  0.3651  0.7354
  113MOL0     O14819   4.491   5.224  -0.503  0.1375  0.7899  0.1027
  113MOL0     C14820   4.453   5.334  -0.588 -0.1914  0.2027  0.3673
  113MOL0     C14821   4.302   5.315  -0.617 -0.2820  0.3967 -0.3567
  113MOL0     C14822   4.277   5.184  -0.713  0.5359 -0.3435 -0.4300
  113MOL0     C14823   4.133   5.158  -0.747 -0.6268 -0.6788 -0.0567
  113MOL0     C14824   4.040   5.278  -0.766  0.4800 -0.6731  0.2321
  113MOL0     C14825   4.074   5.376  -0.882 -0.3085  0.9704 -0.4025
  113MOL0     C14826   3.983   5.501  -0.878 -0.2609 -0.3068  0.0701
  113MOL0     C14827   3.908   5.526  -1.014 -0.5646 -0.1881  0.0773
  113MOL0    Cl14828   3.789   5.658  -0.980  0.1826  0.0113 -0.0869
  113MOL0     C14829   4.673   5.358  -0.406 -1.7130  0.2070  0.8362
  113MOL0     C14830   4.775   5.369  -0.315  1.1431  0.1426 -0.1793
  113MOL0     O14831   4.753   5.416  -0.003  0.6829 -0.1995 -0.0846
  113MOL0     C14832   4.946   5.426   0.213 -0.4010 -0.1073  1.3048
  113MOL0     C14833   5.043   5.420   0.312 -0.2598 -0.5718  0.0637
  113MOL0     N14834   5.644   5.636   0.772 -0.4272 -0.5472 -0.7467
  113MOL0     N14835   5.744   5.708   0.745 -0.0653 -1.3644  0.1480
  113MOL0     C14836   6.269   5.043   0.587 -1.0088  0.8214 -0.8372
  113MOL0     C14837   6.187   4.928   0.595  0.5887 -0.0825 -0.0485
  113MOL0     C14838   5.942   4.548   0.502 -0.5255 -0.9846 -0.6905
  113MOL0     C14839   5.949   4.422   0.445  0.5125 -1.1345  0.8997
  113MOL0     C14840   5.878   4.307   0.493  0.3922  0.2479  0.0845
  113MOL0     C14841   5.790   4.323   0.599 -1.2773 -0.6252 -0.2165
  113MOL0     O14842   5.733   4.213   0.654  0.1809  0.1986  0.7369
  113MOL0     C14843   5.783   4.184   0.788 -0.2121 -0.5622  0.4878
  113MOL0     C14844   5.718   4.248   0.915  0.4216  0.2497 -0.0657
  113MOL0     C14845   5.585   4.186   0.928  0.2230 -0.5084 -1.0888
  113MOL0     C14846   5.473   4.273   0.987 -0.6276  0.0686 -1.0900
  113MOL0     C14847   5.438   4.362   0.883  0.5219 -0.4122 -0.0736
  113MOL0     C14848   5.413   4.439   0.793  0.4794 -0.5232 -0.4238
  113MOL0     C14849   5.773   4.458   0.650  0.4359  0.0802  0.9675
  113MOL0     C14850   5.842   4.563   0.604 -0.5237 -0.8629 -0.4776
  113MOL0     H14851   6.015   4.953   0.317  1.8923 -0.3347 -0.9340
  113MOL0     H14852   6.166   5.149   0.283  0.4047 -3.5627 -1.8654
  113MOL0     H14853   6.277   5.326   0.312  1.1327  1.6392 -0.8492
  113MOL0     H14854   6.447   5.289   0.297 -0.9082 -2.7569 -0.8360
  113MOL0     H14855   6.431   5.522   0.325 -1.5224 -2.8689 -2.5846
  113MOL0     H14856   6.492   5.431   0.474 -2.6190 -1.5568  1.9883
  113MOL0     H14857   6.293   5.438   0.590  2.1074  1.2577  0.7249
  113MOL0     H14858   6.203   5.491   0.450  0.6840  0.4028 -1.8527
  113MOL0     H14859   6.387   5.689   0.581  1.3978  1.0955 -1.6148
  113MOL0     H14860   6.318   5.707   0.427  0.8781 -0.9571 -0.0937
  113MOL0     H14861   6.218   5.818   0.632  2.7969 -1.2053  0.5713
  113MOL0     H14862   6.168   5.662   0.697  0.5491 -1.7499 -0.2204
  113MOL0     H14863   5.995   5.627   0.558  2.7992 -1.2101  0.3372
  113MOL0     H14864   6.049   5.724   0.426 -0.3442 -2.5143  0.5989
  113MOL0     H14865   5.979   5.861   0.682 -0.6238  0.3376 -0.5311
  113MOL0     H14866   6.029   5.939   0.540 -0.2450  0.6861  1.0652
  113MOL0     H14867   5.821   5.828   0.425  1.7022  3.0838  0.1172
  113MOL0     H14868   5.761   5.917   0.567 -1.2583 -0.7930  0.1956
  113MOL0     H14869   5.625   5.648   0.448 -0.1468 -3.0382  0.3158
  113MOL0     H14870   5.384   5.612   0.556  0.5856  4.4637  2.3215
  113MOL0     H14871   5.380   5.609   0.731  0.1616  0.6510 -0.5076
  113MOL0     H14872   5.488   5.370   0.738  4.5168 -0.2740 -2.9159
  113MOL0     H14873   5.501   5.366   0.563 -1.2929 -0.5909 -0.2561
  113MOL0     H14874   5.334   5.230   0.606  2.0076  0.7718 -0.7223
  113MOL0     H14875   5.248   5.332   0.720  0.8350  3.6401 -0.8264
  113MOL0     H14876   5.198   5.499   0.519 -2.0460  0.2322  3.0075
  113MOL0     H14877   5.123   5.337   0.544 -0.1104 -0.4695 -2.1526
  113MOL0     H14878   5.277   5.232   0.143  1.1850  2.4796  0.2265
  113MOL0     H14879   5.107   5.237  -0.019  4.1065  0.9590  0.4331
  113MOL0     H14880   4.752   5.075  -0.155 -0.0039 -2.4694 -1.9461
  113MOL0     H14881   4.569   5.046  -0.340 -0.4572  1.4320 -2.9646
  113MOL0     H14882   4.501   5.323  -0.686 -2.1489 -3.3639 -0.3723
  113MOL0     H14883   4.462   5.436  -0.552 -0.1260  1.1401 -2.1198
  113MOL0     H14884   4.262   5.402  -0.669  0.5206 -0.4683 -2.5265
  113MOL0     H14885   4.247   5.298  -0.523  0.0691  1.2339  0.0076
  113MOL0     H14886   4.311   5.100  -0.651 -0.0745 -0.9059 -0.8410
  113MOL0     H14887   4.350   5.197  -0.794  1.1584 -3.4031 -0.4987
  113MOL0     H14888   4.125   5.079  -0.821  1.9780 -1.7580  0.6720
  113MOL0     H14889   4.091   5.108  -0.659  1.1398 -3.1763 -0.5432
  113MOL0     H14890   4.036   5.332  -0.671 -3.1798 -1.5695  0.7398
  113MOL0     H14891   3.938   5.242  -0.783  0.0770  0.8283 -0.6761
  113MOL0     H14892   4.063   5.315  -0.972  0.8881 -0.2193  0.2147
  113MOL0     H14893   4.178   5.410  -0.877 -1.2406  4.2170 -0.9422
  113MOL0     H14894   3.913   5.491  -0.794 -1.1673  0.3477 -0.5857
  113MOL0     H14895   4.047   5.586  -0.856 -0.2612 -0.5751  1.2078
  113MOL0     H14896   3.859   5.432  -1.040  2.1054 -1.1322 -1.9801
  113MOL0     H14897   3.976   5.553  -1.095 -2.5347  1.1702 -1.1840
  113MOL0     H14898   4.638   5.442  -0.465  4.4463  1.2404 -2.0796
  113MOL0     H14899   4.814   5.469  -0.301 -0.1143  0.6975 -0.5411
  113MOL0     H14900   4.856   5.484   0.227 -1.7123 -0.9844 -2.3386
  113MOL0     H14901   5.010   5.474   0.400  1.5548 -0.8530  0.9584
  113MOL0     H14902   6.331   5.068   0.673 -2.2153  0.0751  0.2922
  113MOL0     H14903   6.186   4.863   0.682  1.2993 -4.1085 -2.7744
  113MOL0     H14904   6.020   4.424   0.363  0.4833 -0.5240  0.8795
  113MOL0     H14905   5.887   4.208   0.451 -0.2560  0.0230  0.4698
  113MOL0     H14906   5.891   4.198   0.783 -0.4757  1.6227 -4.8073
  113MOL0     H14907   5.772   4.075   0.793  0.0716 -0.5464  2.0573
  113MOL0     H14908   5.773   4.230   1.008  2.5348 -2.1490 -1.6481
  113MOL0     H14909   5.708   4.355   0.895 -1.9025  0.0337 -0.2719
  113MOL0     H14910   5.595   4.098   0.992 -0.1129  1.3687  1.7208
  113MOL0     H14911   5.542   4.151   0.833 -1.4647 -0.0435 -0.5377
  113MOL0     H14912   5.388   4.211   1.016 -0.8158  0.0874 -1.5931
  113MOL0     H14913   5.505   4.327   1.076  3.4082 -1.3279 -1.4435
  113MOL0     H14914   5.401   4.522   0.726  2.1004  1.1192  1.1674
  113MOL0     H14915   5.700   4.473   0.729 -0.9856  3.1311 -0.7493
  113MOL0     H14916   5.827   4.658   0.654  2.1611 -0.2719 -0.6317
  114MOL0     O14917   3.669   8.422   9.246 -0.0223 -0.6876  0.3957
  114MOL0     C14918   3.691   8.359   9.140  0.0255 -0.0494 -1.2791
  114MOL0     O14919   3.653   8.388   9.016 -0.0356  0.3177 -0.1107
  114MOL0     C14920   3.547   8.472   8.999  1.1650 -0.2685  0.3766
  114MOL0     C14921   3.422   8.426   8.972  0.0576  0.5056 -0.0283
  114MOL0     C14922   3.310   8.516   8.982  0.0670  0.9372  1.1097
  114MOL0     C14923   3.331   8.652   8.989  1.3436 -0.4153 -0.0136
  114MOL0     O14924   3.236   8.751   9.019  0.6668 -0.7722 -0.0625
  114MOL0     C14925   3.099   8.724   8.993  0.7024  0.3597 -0.4416
  114MOL0     C14926   3.003   8.833   9.044  0.3845 -0.6663 -0.0159
  114MOL0     C14927   2.852   8.781   9.045 -0.9069  0.5822  0.6320
  114MOL0     C14928   2.770   8.898   9.099  0.2032  0.1340  0.3329
  114MOL0     C14929   2.621   8.856   9.117 -0.9971  0.4484 -0.3554
  114MOL0     C14930   2.530   8.873   8.994  0.6835  0.1565 -0.0031
  114MOL0     C14931   2.389   8.830   9.020  0.3519  0.2460  0.8318
  114MOL0     C14932   2.296   8.864   8.896  1.5250  0.5487  0.2870
  114MOL0     N14933   2.286   9.005   8.867  0.6403 -0.0579  0.2962
  114MOL0     C14934   2.284   9.101   8.955  0.5419 -0.3630 -0.4866
  114MOL0     C14935   2.300   9.216   8.891  0.3773 -0.0904 -0.6409
  114MOL0     C14936   2.285   9.351   8.945 -0.9235 -0.8470  0.0801
  114MOL0     C14937   2.363   9.374   9.072  0.3307 -0.2132 -0.3964
  114MOL0     C14938   2.511   9.425   9.062  0.4481 -0.2033  0.8471
  114MOL0     C14939   2.579   9.437   9.197 -0.2123 -0.4322 -0.0999
  114MOL0     O14940   2.720   9.480   9.183  0.5113 -0.4774  0.3012
  114MOL0     C14941   2.807   9.496   9.290  0.0998 -0.1497  1.1203
  114MOL0     C14942   2.946   9.479   9.276  0.6471  1.4031  0.2141
  114MOL0     C14943   3.036   9.524   9.378  0.5690  0.0087  0.3852
  114MOL0     C14944   2.989   9.582   9.493  0.7010  0.2607  1.1453
  114MOL0     C14945   3.085   9.631   9.600  0.4430  1.1198  0.7317
  114MOL0     O14946   3.182   9.550   9.636  0.3112  0.3626  0.6069
  114MOL0     C14947   3.253   9.558   9.754 -0.8526  0.7083 -0.4083
  114MOL0     C14948   3.350   9.459   9.758 -0.2270  0.0662 -0.6602
  114MOL0     C14949   3.449   9.453   9.859 -0.0374  0.3170  0.8464
  114MOL0     C14950   3.452   9.539   9.959 -0.2646 -0.5047 -0.2805
  114MOL0     O14951   3.545   9.528  10.058 -0.0097  0.0814  0.1386
  114MOL0     C14952   3.577   9.642  10.141 -0.7441 -0.7448  0.5389
  114MOL0     C14953   3.688   9.603  10.240 -0.1438 -1.0453  0.0002
  114MOL0     C14954   3.699   9.692  10.373 -0.2234  0.6966 -0.0206
  114MOL0     C14955   3.767   9.619  10.488 -0.5345  0.4491  0.6366
  114MOL0     C14956   3.847   9.718  10.562 -0.3500 -0.3187 -0.4827
  114MOL0     C14957   3.914   9.658  10.679 -0.1088  0.5405 -0.5598
  114MOL0     C14958   3.985   9.764  10.773  0.0343 -0.2675  0.1520
  114MOL0     C14959   4.000   9.719  10.915  0.6990  0.0697 -0.3231
  114MOL0    Cl14960   4.073   9.560  10.928 -0.0783 -0.0559 -0.4482
  114MOL0     C14961   3.358   9.646   9.963  0.2188  0.4714 -0.3770
  114MOL0     C14962   3.261   9.661   9.857  0.9187 -0.1412  0.3133
  114MOL0     O14963   3.037   9.715   9.679  0.1416 -0.0368 -0.2999
  114MOL0     C14964   2.846   9.589   9.503  1.3779 -0.1721  0.0701
  114MOL0     C14965   2.756   9.548   9.412  0.1643  0.1379  0.5852
  114MOL0     N14966   2.318   9.187   8.755 -0.5174  1.0254 -0.1518
  114MOL0     N14967   2.303   9.059   8.740 -0.0519  0.1975  0.1271
  114MOL0     C14968   3.461   8.701   8.998  0.1106 -0.1734  0.6792
  114MOL0     C14969   3.572   8.608   8.999 -0.0598  0.4987 -0.5094
  114MOL0     C14970   3.805   8.264   9.149  0.1267  0.5425  0.4311
  114MOL0     C14971   3.896   8.273   9.259 -0.3424 -0.3948 -0.3618
  114MOL0     C14972   3.999   8.184   9.281  0.0286 -0.1579 -0.5798
  114MOL0     C14973   4.020   8.079   9.190  0.2329 -0.3533  0.8432
  114MOL0     O14974   4.129   8.001   9.218  0.2038  0.5032 -0.2599
  114MOL0     C14975   4.148   7.883   9.129 -0.4765 -0.8597 -0.8073
  114MOL0     C14976   4.242   7.783   9.199  0.3248 -0.2820  0.0831
  114MOL0     C14977   4.353   7.851   9.278 -0.4977  0.6865  0.0304
  114MOL0     C14978   4.467   7.917   9.196 -0.2187 -0.5361 -0.4975
  114MOL0     C14979   4.430   8.053   9.151  0.6991  0.5705 -0.5094
  114MOL0     C14980   4.403   8.164   9.106  0.2666  0.0624  0.2415
  114MOL0     C14981   3.936   8.069   9.077  0.8855 -0.3689 -0.4478
  114MOL0     C14982   3.830   8.160   9.050  0.9336  0.0011 -0.2197
  114MOL0     H14983   3.400   8.319   8.969  0.0970  0.5255 -1.8786
  114MOL0     H14984   3.206   8.487   8.969  0.5811  0.3964 -2.7448
  114MOL0     H14985   3.073   8.633   9.048  1.6150  1.0533  1.1791
  114MOL0     H14986   3.083   8.711   8.885 -2.1714  2.6528 -0.4228
  114MOL0     H14987   2.998   8.924   8.983 -3.8488  0.2195  1.3722
  114MOL0     H14988   3.028   8.873   9.143 -1.4146 -0.7299  0.4904
  114MOL0     H14989   2.843   8.690   9.105 -0.2173  0.1526  0.1077
  114MOL0     H14990   2.820   8.756   8.943 -1.5468 -3.1248  1.5946
  114MOL0     H14991   2.808   8.935   9.195  1.1180  0.5634 -0.1850
  114MOL0     H14992   2.783   8.976   9.023  0.8201  0.2917  0.5921
  114MOL0     H14993   2.579   8.924   9.192 -1.0920 -1.4277  1.3893
  114MOL0     H14994   2.602   8.756   9.157  1.7621  0.6046  1.6425
  114MOL0     H14995   2.578   8.815   8.915  0.6868 -0.0647  0.1580
  114MOL0     H14996   2.537   8.981   8.977 -1.1114  0.5990  1.6753
  114MOL0     H14997   2.399   8.722   9.034  1.7275  0.3322  0.6454
  114MOL0     H14998   2.361   8.870   9.117  2.1107 -0.1926  1.5650
  114MOL0     H14999   2.196   8.825   8.919  0.8956  0.6665 -1.9661
  114MOL0     H15000   2.322   8.805   8.808 -1.6680  1.8848 -1.7527
  114MOL0     H15001   2.273   9.099   9.063  1.1489  0.7271 -0.3901
  114MOL0     H15002   2.182   9.375   8.976 -0.5577  1.7438 -0.4726
  114MOL0     H15003   2.327   9.424   8.875 -0.5909 -0.2079  0.9291
  114MOL0     H15004   2.346   9.293   9.143 -2.0580  1.9779  1.7190
  114MOL0     H15005   2.299   9.453   9.112 -0.9702  0.0805 -2.8246
  114MOL0     H15006   2.561   9.362   8.989 -0.0372  0.8871 -0.4767
  114MOL0     H15007   2.517   9.527   9.024  0.6061 -0.5388 -0.0434
  114MOL0     H15008   2.573   9.344   9.255  1.1540 -2.2220 -2.6205
  114MOL0     H15009   2.515   9.507   9.251  1.2325  0.4568  0.5110
  114MOL0     H15010   2.977   9.432   9.183 -3.7264  3.8623 -2.8865
  114MOL0     H15011   3.141   9.499   9.365  1.0951  1.6852  1.1142
  114MOL0     H15012   3.353   9.384   9.679  1.1533  0.7131 -1.2600
  114MOL0     H15013   3.510   9.365   9.839 -1.2163  0.1183 -2.3519
  114MOL0     H15014   3.495   9.685  10.199 -0.9925  1.9075 -1.5960
  114MOL0     H15015   3.614   9.712  10.066 -0.7680 -1.2313  0.0647
  114MOL0     H15016   3.785   9.608  10.190  1.1687 -3.3238  2.0940
  114MOL0     H15017   3.668   9.505  10.283 -2.0593 -0.8700 -0.4028
  114MOL0     H15018   3.601   9.731  10.402 -0.7243 -1.7900  2.0323
  114MOL0     H15019   3.750   9.785  10.346  3.6924 -0.7731  1.6375
  114MOL0     H15020   3.700   9.563  10.553  2.4831  0.4548  4.0710
  114MOL0     H15021   3.826   9.538  10.444 -2.9833 -0.1545 -1.8035
  114MOL0     H15022   3.773   9.791  10.597 -0.2436 -2.1955  4.4558
  114MOL0     H15023   3.915   9.780  10.503 -0.2511 -0.3266 -0.3769
  114MOL0     H15024   3.984   9.579  10.651 -3.2342 -3.0488  0.7803
  114MOL0     H15025   3.843   9.602  10.740  0.4834 -0.4093 -0.7318
  114MOL0     H15026   4.078   9.794  10.725 -0.2530  1.0194  0.3585
  114MOL0     H15027   3.915   9.848  10.777 -0.1078 -0.2888 -1.3371
  114MOL0     H15028   3.902   9.708  10.964  1.6184 -0.6286  1.4629
  114MOL0     H15029   4.053   9.788  10.980  0.9426  0.1841 -0.6427
  114MOL0     H15030   3.359   9.729  10.034 -0.2870 -1.0600  1.4879
  114MOL0     H15031   3.200   9.750   9.845 -1.3799 -1.4735  1.4656
  114MOL0     H15032   2.788   9.634   9.583 -0.1019  3.6541 -2.8407
  114MOL0     H15033   2.651   9.554   9.442  0.9167 -1.9800  4.2645
  114MOL0     H15034   3.480   8.807   9.008 -3.9990  0.6875  1.0190
  114MOL0     H15035   3.671   8.646   9.024  0.5627 -1.4148  0.1367
  114MOL0     H15036   3.881   8.353   9.332 -1.1534 -3.1553  2.7300
  114MOL0     H15037   4.062   8.201   9.367 -1.4462  0.7036  0.3630
  114MOL0     H15038   4.199   7.903   9.035  1.2578 -0.0936  0.2520
  114MOL0     H15039   4.051   7.839   9.104 -0.2867 -1.3089 -0.7632
  114MOL0     H15040   4.179   7.747   9.281  0.1456 -1.7348 -0.6529
  114MOL0     H15041   4.281   7.706   9.133  0.6330 -0.9355  1.0032
  114MOL0     H15042   4.398   7.768   9.333 -2.6739 -2.8728 -3.0604
  114MOL0     H15043   4.306   7.926   9.342 -1.2153  2.2578 -2.2027
  114MOL0     H15044   4.559   7.918   9.256  1.0758  3.9363 -2.1683
  114MOL0     H15045   4.481   7.864   9.102 -1.4284  0.3216 -1.1927
  114MOL0     H15046   4.397   8.267   9.074 -0.7210  0.3401  1.2579
  114MOL0     H15047   3.947   7.985   9.009  3.3670 -0.7782  0.3258
  114MOL0     H15048   3.759   8.145   8.969 -1.4505 -0.7310  1.8633
  115MOL0     O15049   1.864   9.923   0.801 -0.1200 -0.0026 -0.4485
  115MOL0     C15050   1.959   9.949   0.740  0.1137  0.4058  0.1052
  115MOL0     O15051   2.020   9.864   0.646 -0.0162 -0.0500 -0.4789
  115MOL0     C15052   1.997   9.730   0.646  0.0776  0.6121 -0.1987
  115MOL0     C15053   1.959   9.640   0.755  0.6643 -0.7134 -0.2693
  115MOL0     C15054   1.937   9.507   0.728 -1.0430  0.2817  0.5466
  115MOL0     C15055   1.963   9.453   0.605 -1.0351  0.1211 -0.1410
  115MOL0     O15056   1.952   9.315   0.586 -0.0022  0.4046  0.6402
  115MOL0     C15057   1.890   9.290   0.456  0.4967  0.3792 -1.2538
  115MOL0     C15058   1.850   9.151   0.448 -0.5763  0.6053 -0.9269
  115MOL0     C15059   1.965   9.066   0.414 -0.0569 -0.2383 -0.2736
  115MOL0     C15060   1.932   8.916   0.473  0.0559 -1.0486 -0.4411
  115MOL0     C15061   2.039   8.817   0.426 -0.1995 -0.0759 -0.0103
  115MOL0     C15062   2.014   8.669   0.471  0.0562 -0.6563  0.0441
  115MOL0     C15063   2.140   8.580   0.429 -0.7900 -0.1809  0.2874
  115MOL0     C15064   2.280   8.619   0.481  0.5695 -0.8927 -0.0807
  115MOL0     N15065   2.378   8.535   0.409 -0.9829  0.1644  0.0078
  115MOL0     C15066   2.388   8.402   0.410  0.0135  0.8123  1.1890
  115MOL0     C15067   2.487   8.370   0.331 -0.6353  1.1001  0.7341
  115MOL0     C15068   2.545   8.237   0.308  0.5137 -0.1527  0.2974
  115MOL0     C15069   2.466   8.181   0.194  0.8244 -0.0094 -0.3405
  115MOL0     C15070   2.543   8.064   0.142 -0.2595  0.3771 -0.2254
  115MOL0     C15071   2.657   8.092   0.034  0.8336  0.3856 -0.6640
  115MOL0     O15072   2.787   8.091   0.090  0.0660  0.1519 -1.1255
  115MOL0     C15073   2.898   8.094  -0.005 -0.5499 -0.8687 -0.5650
  115MOL0     C15074   2.900   8.081  -0.140  0.6868  0.0004 -0.0670
  115MOL0     C15075   3.018   8.089  -0.223  0.3429 -0.5138 -0.3332
  115MOL0     C15076   3.142   8.089  -0.153 -0.6934 -0.1367 -0.6311
  115MOL0     C15077   3.261   8.089  -0.236 -1.2042 -0.3797  0.0275
  115MOL0     O15078   3.376   8.038  -0.169 -0.7065  0.6762 -0.1533
  115MOL0     C15079   3.485   8.033  -0.249 -0.2697  0.0859 -0.0409
  115MOL0     C15080   3.496   7.926  -0.338 -0.3197 -0.3171 -0.3281
  115MOL0     C15081   3.616   7.910  -0.414 -0.0055 -0.0319 -0.2715
  115MOL0     C15082   3.721   7.996  -0.403 -0.7876 -0.2628 -0.1744
  115MOL0     O15083   3.841   7.990  -0.468  0.2637  0.2725  0.0299
  115MOL0     C15084   3.850   7.905  -0.588  0.4214 -0.0452 -0.3762
  115MOL0     C15085   3.941   7.985  -0.682  0.3174 -0.5604  0.7956
  115MOL0     C15086   3.959   7.908  -0.817 -0.4132 -0.6736 -0.2853
  115MOL0     C15087   4.032   7.996  -0.932 -0.0889 -0.3053 -0.1963
  115MOL0     C15088   4.170   8.049  -0.903 -0.3313 -1.4365 -0.4583
  115MOL0     C15089   4.280   7.943  -0.900  0.2853 -0.1533 -0.7195
  115MOL0     C15090   4.417   8.017  -0.895  0.5064 -0.4762 -0.8393
  115MOL0     C15091   4.510   7.912  -0.827  0.2046 -0.5080 -0.5624
  115MOL0    Cl15092   4.665   7.996  -0.808 -0.3232  0.3368 -0.0207
  115MOL0     C15093   3.701   8.103  -0.323  0.1261  0.0374  0.2169
  115MOL0     C15094   3.590   8.125  -0.239  1.3049  0.4119  0.0756
  115MOL0     O15095   3.235   8.100  -0.360 -0.9886 -0.4030 -0.6419
  115MOL0     C15096   3.143   8.085  -0.011  0.3022 -0.1787  0.0243
  115MOL0     C15097   3.024   8.092   0.061  0.3713  0.3354  0.3325
  115MOL0     N15098   2.545   8.480   0.282 -0.0457  0.4071 -0.5930
  115MOL0     N15099   2.469   8.583   0.314 -0.2547  0.1413 -0.5769
  115MOL0     C15100   2.010   9.536   0.505 -0.4795  0.4002 -0.9710
  115MOL0     C15101   2.021   9.674   0.519  0.1538 -0.2165  0.4755
  115MOL0     C15102   2.041  10.061   0.782 -0.3709  0.1237 -0.2222
  115MOL0     C15103   1.986  10.166   0.848  0.4378  0.4721  0.8163
  115MOL0     C15104   2.055  10.289   0.864  0.0528 -0.6415  1.1123
  115MOL0     C15105   2.194  10.305   0.821  0.1703  0.0325 -0.0655
  115MOL0     O15106   2.264  10.422   0.834 -1.0485 -0.5009  0.4591
  115MOL0     C15107   2.211  10.548   0.883  0.1460 -0.1054 -0.2275
  115MOL0     C15108   2.202  10.531   1.034 -0.4716 -0.5966 -0.5320
  115MOL0     C15109   2.334  10.594   1.098  0.0524 -0.6655 -0.2739
  115MOL0     C15110   2.370  10.522   1.234 -0.6495 -0.9023 -0.1445
  115MOL0     C15111   2.307  10.599   1.344  0.6375  0.5034  0.2497
  115MOL0     C15112   2.240  10.658   1.434 -0.7101 -0.1459  0.1350
  115MOL0     C15113   2.250  10.192   0.763 -0.6626  0.0156 -0.9167
  115MOL0     C15114   2.174  10.071   0.746  0.0493  0.0939 -0.2018
  115MOL0     H15115   1.933   9.674   0.855 -0.8332  0.1331 -0.9070
  115MOL0     H15116   1.914   9.438   0.809 -1.2796 -0.6309 -0.2821
  115MOL0     H15117   1.944   9.309   0.363 -1.5915 -1.3544 -2.9330
  115MOL0     H15118   1.806   9.359   0.445  0.6527  0.4043 -2.3236
  115MOL0     H15119   1.772   9.119   0.379 -0.2606 -0.9911 -0.5964
  115MOL0     H15120   1.815   9.119   0.546  0.4356 -0.3050 -0.8359
  115MOL0     H15121   2.067   9.089   0.447  0.6714 -2.4506 -0.7898
  115MOL0     H15122   1.971   9.083   0.307  0.1405  1.3724 -0.0261
  115MOL0     H15123   1.962   8.935   0.577  0.5125  0.8719 -0.8913
  115MOL0     H15124   1.831   8.877   0.455 -0.1764 -1.4481  1.5053
  115MOL0     H15125   2.138   8.852   0.456 -0.7094  0.1932  1.4903
  115MOL0     H15126   2.033   8.812   0.317  1.0692  0.9527 -0.1448
  115MOL0     H15127   1.917   8.625   0.445 -0.6753 -0.7402  2.6206
  115MOL0     H15128   1.988   8.680   0.577 -2.7509 -0.0014 -0.6214
  115MOL0     H15129   2.128   8.475   0.459 -1.5711  0.3163  1.7973
  115MOL0     H15130   2.152   8.591   0.321  1.4409  2.4346  0.6819
  115MOL0     H15131   2.278   8.611   0.590 -0.0954 -0.7772 -0.0811
  115MOL0     H15132   2.302   8.722   0.452  0.1159 -0.7772 -0.0269
  115MOL0     H15133   2.328   8.334   0.470 -1.5471 -0.0275 -1.1961
  115MOL0     H15134   2.547   8.185   0.404  2.2358 -0.9092 -0.1125
  115MOL0     H15135   2.652   8.237   0.286  0.4429 -0.4851 -0.0495
  115MOL0     H15136   2.445   8.256   0.117  2.2153 -0.9230 -1.6768
  115MOL0     H15137   2.378   8.122   0.221  1.5793 -2.4499 -2.8104
  115MOL0     H15138   2.578   7.986   0.211 -1.6783 -0.1492 -0.0751
  115MOL0     H15139   2.469   8.005   0.088  0.5402 -1.8989  1.0261
  115MOL0     H15140   2.633   8.189  -0.011 -0.4983 -0.3037 -1.5241
  115MOL0     H15141   2.648   8.010  -0.038 -2.3333 -1.1111  1.2160
  115MOL0     H15142   2.808   8.087  -0.198  1.0134 -0.9284 -0.7137
  115MOL0     H15143   3.008   8.101  -0.331  1.4940  1.2515 -0.2781
  115MOL0     H15144   3.415   7.855  -0.336 -0.6618  0.0676  1.7751
  115MOL0     H15145   3.634   7.814  -0.462 -0.7458 -1.2126  1.6673
  115MOL0     H15146   3.754   7.881  -0.635 -0.9176  0.1836  2.0536
  115MOL0     H15147   3.896   7.810  -0.560  2.7273  0.0237 -3.4858
  115MOL0     H15148   4.039   8.023  -0.650  0.5562 -0.0368 -0.4656
  115MOL0     H15149   3.883   8.074  -0.710 -0.2626 -1.6321 -1.7271
  115MOL0     H15150   3.861   7.885  -0.859 -0.7607 -1.4813  0.9351
  115MOL0     H15151   4.005   7.811  -0.798 -3.8140 -3.1995 -3.5690
  115MOL0     H15152   4.034   7.929  -1.019 -0.4891 -0.9914  0.3102
  115MOL0     H15153   3.966   8.082  -0.946  3.3005  3.1098  2.7892
  115MOL0     H15154   4.180   8.120  -0.821  1.5127 -2.8138  0.6057
  115MOL0     H15155   4.185   8.119  -0.986 -1.1359 -0.0554  0.5265
  115MOL0     H15156   4.269   7.880  -0.989 -3.4532 -0.9705  0.1430
  115MOL0     H15157   4.272   7.871  -0.818 -0.0731 -1.9366 -2.2427
  115MOL0     H15158   4.457   8.045  -0.993  1.7532 -0.1643 -0.2663
  115MOL0     H15159   4.414   8.110  -0.837 -0.2086 -2.2229  2.1762
  115MOL0     H15160   4.518   7.826  -0.894 -1.6345 -2.4173  1.5242
  115MOL0     H15161   4.467   7.890  -0.729 -0.9427  5.8090  0.7475
  115MOL0     H15162   3.782   8.173  -0.304 -0.7594  0.3939  3.2111
  115MOL0     H15163   3.581   8.208  -0.171 -0.0696  0.8654 -0.6078
  115MOL0     H15164   3.233   8.091   0.050  1.2991  2.6347 -1.5100
  115MOL0     H15165   3.039   8.098   0.168  0.8421  2.4058  0.1957
  115MOL0     H15166   2.038   9.492   0.409  2.0841  0.4781 -0.3290
  115MOL0     H15167   2.043   9.745   0.440  4.8381 -2.3262 -0.4692
  115MOL0     H15168   1.883  10.155   0.878 -0.2442  1.1480 -1.1142
  115MOL0     H15169   2.014  10.374   0.917  1.1096  1.5797 -1.3938
  115MOL0     H15170   2.108  10.578   0.859 -0.2712 -0.8420  0.5898
  115MOL0     H15171   2.278  10.631   0.859  1.8523  0.1032  4.2813
  115MOL0     H15172   2.119  10.595   1.067  0.5090  0.1790  0.5169
  115MOL0     H15173   2.175  10.430   1.066 -0.1941 -0.9172 -1.2875
  115MOL0     H15174   2.316  10.700   1.117 -0.4869 -0.2221 -2.9703
  115MOL0     H15175   2.420  10.581   1.032  3.1103  2.1640  2.7420
  115MOL0     H15176   2.330  10.421   1.228  0.5546 -1.4480  0.5338
  115MOL0     H15177   2.477  10.503   1.247 -0.5933 -0.0592  0.7568
  115MOL0     H15178   2.189  10.717   1.508 -3.4126 -2.1247  0.0141
  115MOL0     H15179   2.342  10.197   0.706 -1.0283 -1.1967 -1.6694
  115MOL0     H15180   2.231   9.991   0.699  0.0663  0.0373 -0.0837
  116MOL0     O15181  11.037  10.697   9.172  0.1658  0.8648  0.3523
  116MOL0     C15182  10.967  10.708   9.269  0.6604 -0.1553 -0.4242
  116MOL0     O15183  10.968  10.641   9.386  0.7827  0.1730  0.3344
  116MOL0     C15184  11.088  10.582   9.426 -0.1488  0.1369  0.2307
  116MOL0     C15185  11.215  10.636   9.409 -0.1880 -0.7663 -0.5631
  116MOL0     C15186  11.318  10.572   9.469 -1.6455  0.2069  0.1191
  116MOL0     C15187  11.314  10.452   9.540  0.2041 -0.4224  0.9519
  116MOL0     O15188  11.427  10.414   9.612 -0.3046 -0.6886  0.0731
  116MOL0     C15189  11.457  10.276   9.593  0.2899 -0.0089 -0.5751
  116MOL0     C15190  11.476  10.226   9.440 -0.8915  0.6262  0.7635
  116MOL0     C15191  11.528  10.075   9.423 -0.3075  0.1225  1.2646
  116MOL0     C15192  11.413   9.971   9.423 -0.7196  0.9342 -0.0256
  116MOL0     C15193  11.471   9.834   9.369 -0.4201 -0.9026 -0.4545
  116MOL0     C15194  11.386   9.713   9.410 -0.2912 -0.2936 -0.3180
  116MOL0     C15195  11.395   9.687   9.562  0.4045  0.5208  0.0796
  116MOL0     C15196  11.344   9.549   9.598 -0.4011 -0.7395  0.7355
  116MOL0     N15197  11.336   9.528   9.738  0.0559  0.3183 -1.4896
  116MOL0     C15198  11.233   9.580   9.815 -0.0562  0.0552  0.1652
  116MOL0     C15199  11.243   9.511   9.935  0.1266  0.0959  0.6111
  116MOL0     C15200  11.152   9.532  10.055  0.0485 -0.5282  0.8715
  116MOL0     C15201  11.076   9.403  10.074  0.6317 -0.8886 -0.9981
  116MOL0     C15202  10.961   9.423  10.177 -0.0570  0.6637  0.8001
  116MOL0     C15203  10.833   9.354  10.135 -0.3840  0.1513 -0.1533
  116MOL0     O15204  10.732   9.362  10.244 -0.6579 -0.2991  0.5700
  116MOL0     C15205  10.612   9.305  10.215  0.2635  0.6298  0.1556
  116MOL0     C15206  10.596   9.168  10.257  0.4302 -0.1480  0.9787
  116MOL0     C15207  10.471   9.103  10.236 -1.0594  0.3042  0.3774
  116MOL0     C15208  10.377   9.158  10.154 -0.7996  0.2404 -0.2623
  116MOL0     C15209  10.270   9.086  10.089 -0.5105 -0.6828  0.5180
  116MOL0     O15210  10.160   9.156  10.044 -0.2683  0.0513  0.6365
  116MOL0     C15211  10.056   9.098   9.974  1.3562  0.5247 -0.0354
  116MOL0     C15212  10.005   8.972  10.004  0.4194 -0.3645 -0.0579
  116MOL0     C15213   9.906   8.911   9.936 -0.0330  0.6156  0.7557
  116MOL0     C15214   9.838   8.976   9.831 -0.0659  0.3600 -0.2894
  116MOL0     O15215   9.736   8.923   9.748 -0.7173 -0.3141 -0.4089
  116MOL0     C15216   9.634   8.832   9.809 -0.9532 -0.2849 -0.3590
  116MOL0     C15217   9.494   8.889   9.769  0.6456  0.2600  0.1471
  116MOL0     C15218   9.382   8.818   9.849 -0.8718 -0.2040 -0.0494
  116MOL0     C15219   9.249   8.872   9.809 -0.4621  0.7504  0.0358
  116MOL0     C15220   9.137   8.806   9.895  0.3965  0.6262 -0.7890
  116MOL0     C15221   9.052   8.691   9.833  0.5460  0.4538 -0.7870
  116MOL0     C15222   8.898   8.696   9.847 -0.7011 -0.0922  0.2909
  116MOL0     C15223   8.864   8.708   9.994 -0.1153  0.2185  0.1835
  116MOL0    Cl15224   8.683   8.741   9.971  0.1466 -0.0708 -0.0950
  116MOL0     C15225   9.890   9.106   9.795  0.1896  0.5762  0.0081
  116MOL0     C15226   9.994   9.165   9.870  0.6685 -0.7614 -0.4436
  116MOL0     O15227  10.281   8.965  10.089  0.3871 -0.2938  1.2279
  116MOL0     C15228  10.388   9.289  10.118 -1.5379 -0.1317  0.2747
  116MOL0     C15229  10.508   9.366  10.151  0.1289  0.4402  0.1777
  116MOL0     N15230  11.352   9.433   9.922 -0.5844  0.0109  1.3038
  116MOL0     N15231  11.409   9.443   9.808 -0.3478 -0.0336 -0.0429
  116MOL0     C15232  11.184  10.394   9.550 -0.0945  0.4697  0.6596
  116MOL0     C15233  11.071  10.464   9.499  0.8088  1.1677 -0.3849
  116MOL0     C15234  10.837  10.783   9.242  0.2805  0.3010  0.1222
  116MOL0     C15235  10.825  10.884   9.139  0.5127  0.1427 -1.0147
  116MOL0     C15236  10.698  10.945   9.116  0.6919  0.3265  0.5643
  116MOL0     C15237  10.580  10.916   9.190  0.3009  0.0121 -0.0063
  116MOL0     O15238  10.447  10.960   9.161  0.0039 -1.5294 -0.1543
  116MOL0     C15239  10.413  11.010   9.025 -0.4476  0.0683 -0.2499
  116MOL0     C15240  10.262  10.983   9.025  1.0812  0.3888 -1.0859
  116MOL0     C15241  10.181  11.074   9.110  0.3813  0.3033 -0.2616
  116MOL0     C15242  10.176  11.213   9.051 -0.0083 -0.4968  0.1893
  116MOL0     C15243  10.054  11.223   8.977 -0.1740  0.5365 -0.6438
  116MOL0     C15244   9.946  11.222   8.916 -0.3477 -0.3360  0.5316
  116MOL0     C15245  10.600  10.828   9.296  0.7383  0.6933 -0.5295
  116MOL0     C15246  10.721  10.764   9.318  0.0059 -0.5479  0.0646
  116MOL0     H15247  11.221  10.732   9.359 -1.3262  0.7125  1.9439
  116MOL0     H15248  11.414  10.621   9.468 -3.7131  4.7095  0.5449
  116MOL0     H15249  11.391  10.205   9.643  0.7537 -0.2043 -0.2377
  116MOL0     H15250  11.550  10.272   9.650  0.2554  1.7429 -0.3259
  116MOL0     H15251  11.558  10.291   9.407  1.5930 -2.1962  0.9647
  116MOL0     H15252  11.378  10.230   9.393 -1.0814 -0.0819  1.0861
  116MOL0     H15253  11.600  10.039   9.497 -2.1694 -3.2906  1.6310
  116MOL0     H15254  11.566  10.069   9.320 -4.6407 -2.0319 -0.4764
  116MOL0     H15255  11.364   9.960   9.519 -0.4997  4.0710  0.5586
  116MOL0     H15256  11.335   9.998   9.351 -1.7792 -0.1261  0.7086
  116MOL0     H15257  11.573   9.824   9.408  0.1390 -1.6126 -2.0059
  116MOL0     H15258  11.486   9.834   9.260  2.9133 -2.6122 -0.1345
  116MOL0     H15259  11.428   9.630   9.352 -3.1190 -1.2645 -1.1223
  116MOL0     H15260  11.283   9.726   9.376 -1.1382 -2.2866  1.2861
  116MOL0     H15261  11.501   9.692   9.591 -0.3250 -0.2354  3.3079
  116MOL0     H15262  11.343   9.756   9.629 -0.3377  1.1487 -1.1207
  116MOL0     H15263  11.422   9.485   9.556 -0.3760  1.1051 -2.3140
  116MOL0     H15264  11.257   9.532   9.534 -0.3289 -1.8169  0.8980
  116MOL0     H15265  11.159   9.655   9.787 -1.4823 -0.6283  1.9663
  116MOL0     H15266  11.090   9.619  10.033  0.4885 -0.8243 -1.8820
  116MOL0     H15267  11.222   9.551  10.137  2.1875 -0.0368 -0.9789
  116MOL0     H15268  11.136   9.317  10.105 -0.8941 -1.9184 -0.7794
  116MOL0     H15269  11.031   9.376   9.978 -0.6916 -1.1587 -0.3373
  116MOL0     H15270  10.992   9.376  10.270 -2.7527 -0.5253  1.1629
  116MOL0     H15271  10.946   9.531  10.180  0.9393  0.9528 -1.6317
  116MOL0     H15272  10.855   9.248  10.122 -0.3753  0.1603 -0.2124
  116MOL0     H15273  10.781   9.394  10.047 -0.9955 -1.0602 -0.3639
  116MOL0     H15274  10.677   9.117  10.308  2.6706 -0.9956 -2.9487
  116MOL0     H15275  10.478   8.999  10.267  0.1660 -0.2483 -1.5420
  116MOL0     H15276  10.038   8.919  10.092  1.7006 -2.5952 -1.7854
  116MOL0     H15277   9.861   8.819   9.972 -5.2697  3.7519  3.4538
  116MOL0     H15278   9.647   8.824   9.917 -0.3021  0.6751 -0.3524
  116MOL0     H15279   9.640   8.734   9.762 -2.0541 -0.7013  0.3438
  116MOL0     H15280   9.481   8.880   9.661 -2.5094 -0.1176  0.4778
  116MOL0     H15281   9.494   8.993   9.803  1.6575 -0.6685  3.3582
  116MOL0     H15282   9.406   8.831   9.955 -0.9342  2.0479 -0.2629
  116MOL0     H15283   9.395   8.711   9.834 -0.5865 -0.2244  0.3108
  116MOL0     H15284   9.247   8.981   9.812 -1.2124  0.9007 -2.7744
  116MOL0     H15285   9.239   8.856   9.701  2.1295  4.1084 -0.8925
  116MOL0     H15286   9.068   8.887   9.919 -0.9427 -1.2810  2.4510
  116MOL0     H15287   9.182   8.776   9.990  1.4973  2.4891 -0.6631
  116MOL0     H15288   9.095   8.601   9.877 -0.6396  0.0798 -0.3388
  116MOL0     H15289   9.074   8.663   9.730  1.7721 -0.0711 -0.4041
  116MOL0     H15290   8.870   8.787   9.792  3.6427  0.2779 -1.7431
  116MOL0     H15291   8.857   8.603   9.807  1.0748 -0.8044  0.0672
  116MOL0     H15292   8.908   8.788  10.054  0.2798  2.1498 -2.4567
  116MOL0     H15293   8.865   8.612  10.046  1.1165  1.2550  2.1850
  116MOL0     H15294   9.845   9.152   9.708 -0.1445 -0.6761 -0.4977
  116MOL0     H15295  10.033   9.264   9.850  1.7830 -0.7192  1.7078
  116MOL0     H15296  10.323   9.328  10.040 -2.5563 -3.3497 -0.6659
  116MOL0     H15297  10.511   9.463  10.102 -2.0441 -0.2639 -1.4904
  116MOL0     H15298  11.161  10.312   9.618  0.5604 -0.5102 -0.2814
  116MOL0     H15299  10.973  10.428   9.531  1.9517 -2.4619 -0.5259
  116MOL0     H15300  10.907  10.931   9.085 -0.7381  1.6743 -1.6748
  116MOL0     H15301  10.684  11.022   9.041 -0.3582 -2.0202 -1.8293
  116MOL0     H15302  10.469  10.958   8.947  0.2505  3.9201 -2.5291
  116MOL0     H15303  10.440  11.115   9.010 -0.5013 -0.1103 -1.7628
  116MOL0     H15304  10.218  10.993   8.925 -1.9495  2.4049  0.3391
  116MOL0     H15305  10.245  10.878   9.051  1.6545  0.6599  0.4906
  116MOL0     H15306  10.223  11.075   9.211  2.0746  1.0943 -0.9300
  116MOL0     H15307  10.081  11.037   9.136 -2.7852  6.4677 -1.7588
  116MOL0     H15308  10.179  11.297   9.121  2.0595  1.9370 -2.5936
  116MOL0     H15309  10.262  11.231   8.986 -0.2713 -2.9574 -0.9524
  116MOL0     H15310   9.861  11.213   8.852 -0.4842 -3.0241  1.0014
  116MOL0     H15311  10.509  10.801   9.348  1.1196  1.1871  0.4142
  116MOL0     H15312  10.724  10.688   9.395 -0.1663 -1.3941 -0.7499
  117MOL0     O15313   6.738   2.584   6.814 -0.0095 -0.3880  0.5549
  117MOL0     C15314   6.716   2.515   6.905 -0.1664  0.4920  0.4865
  117MOL0     O15315   6.675   2.382   6.890  0.6440 -0.5151  0.4418
  117MOL0     C15316   6.599   2.346   6.779  0.4419  0.2100  0.6194
  117MOL0     C15317   6.474   2.397   6.742 -0.1151 -1.0741  0.4228
  117MOL0     C15318   6.417   2.368   6.616 -0.4294 -0.5998 -1.3614
  117MOL0     C15319   6.476   2.283   6.524  0.0667  0.4064  0.6555
  117MOL0     O15320   6.411   2.254   6.407 -0.0975 -0.3443  0.7939
  117MOL0     C15321   6.280   2.298   6.375 -0.9511 -0.2003 -0.4670
  117MOL0     C15322   6.230   2.216   6.257 -0.6163 -0.0741 -0.0078
  117MOL0     C15323   6.322   2.222   6.135  0.2491 -0.0571 -0.3826
  117MOL0     C15324   6.247   2.163   6.005  0.5292  0.0217 -0.2283
  117MOL0     C15325   6.341   2.142   5.883  0.4143  1.0771 -0.1501
  117MOL0     C15326   6.262   2.085   5.762 -0.5842 -0.9068 -0.0782
  117MOL0     C15327   6.347   1.994   5.663 -0.4119 -0.1364  0.2084
  117MOL0     C15328   6.432   2.082   5.563  0.1002  0.0198 -0.9478
  117MOL0     N15329   6.345   2.173   5.493  0.4113  0.0042  0.1514
  117MOL0     C15330   6.234   2.155   5.420  1.3689 -0.1486  0.0376
  117MOL0     C15331   6.194   2.278   5.386  0.0427 -0.5635 -0.3113
  117MOL0     C15332   6.085   2.304   5.292  0.2879 -0.4253  0.2345
  117MOL0     C15333   6.114   2.257   5.146  0.6581 -0.2520  0.5278
  117MOL0     C15334   6.233   2.321   5.089 -0.7437 -0.2470  0.0532
  117MOL0     C15335   6.288   2.264   4.961  0.1430  0.8290  0.3549
  117MOL0     O15336   6.206   2.303   4.850 -0.2846 -0.5979  0.0964
  117MOL0     C15337   6.270   2.370   4.752 -0.2986 -0.5880  0.4974
  117MOL0     C15338   6.362   2.476   4.779  0.2007 -0.6669  0.2328
  117MOL0     C15339   6.424   2.549   4.674 -0.3806 -0.1577 -0.4380
  117MOL0     C15340   6.381   2.523   4.539  0.8729 -0.9638  0.1568
  117MOL0     C15341   6.440   2.598   4.431  0.5785  0.3187  1.0906
  117MOL0     O15342   6.454   2.537   4.312  0.0258 -0.3385  0.2850
  117MOL0     C15343   6.525   2.586   4.206  0.4655  0.4221  0.6410
  117MOL0     C15344   6.593   2.482   4.140  0.4592 -0.2501  0.2796
  117MOL0     C15345   6.671   2.519   4.030 -0.8898 -0.4352  0.1972
  117MOL0     C15346   6.681   2.653   3.990 -0.1571  0.4705 -0.1620
  117MOL0     O15347   6.760   2.681   3.881 -0.3231 -0.2971  0.1081
  117MOL0     C15348   6.867   2.771   3.909  0.4783 -0.7885 -0.1458
  117MOL0     C15349   6.982   2.732   3.819  0.4334 -0.0064 -0.5523
  117MOL0     C15350   7.121   2.799   3.852  0.2651 -0.5225  0.1076
  117MOL0     C15351   7.113   2.947   3.871  0.1230 -0.4040 -0.2540
  117MOL0     C15352   7.069   3.006   3.741  0.1018 -0.3254 -0.0109
  117MOL0     C15353   7.056   3.154   3.767 -0.1846  0.4310  0.3347
  117MOL0     C15354   6.985   3.204   3.648  0.2117 -0.5366  0.2266
  117MOL0     C15355   6.967   3.353   3.658 -0.1068 -0.4699 -0.2697
  117MOL0    Cl15356   6.869   3.419   3.522 -0.3476  0.1279  0.4879
  117MOL0     C15357   6.618   2.756   4.058 -0.3142 -0.4029 -0.4752
  117MOL0     C15358   6.540   2.722   4.170 -0.6396  0.1470  0.6115
  117MOL0     O15359   6.481   2.712   4.452 -0.2694 -1.0646  0.0432
  117MOL0     C15360   6.305   2.411   4.510 -0.4268  0.2193 -0.2748
  117MOL0     C15361   6.239   2.348   4.620  0.0603  0.2617  0.5548
  117MOL0     N15362   6.283   2.370   5.437  0.9872 -0.3690 -0.8735
  117MOL0     N15363   6.376   2.307   5.491  0.8567  0.2657  0.6894
  117MOL0     C15364   6.605   2.241   6.547 -0.4957  0.1497 -0.6753
  117MOL0     C15365   6.666   2.263   6.677  0.2417  0.2874  0.2454
  117MOL0     C15366   6.736   2.574   7.035  0.0355 -0.3478  0.1159
  117MOL0     C15367   6.726   2.489   7.153  0.6295 -0.4616 -0.2310
  117MOL0     C15368   6.756   2.545   7.280  0.3905 -0.2737 -0.2084
  117MOL0     C15369   6.807   2.671   7.283 -0.9830 -1.0236  0.0243
  117MOL0     O15370   6.836   2.717   7.411 -0.2808  0.1587 -0.3230
  117MOL0     C15371   6.767   2.850   7.446  0.9682  0.1658  0.0944
  117MOL0     C15372   6.868   2.966   7.458  1.1316 -0.3109 -0.7353
  117MOL0     C15373   6.794   3.099   7.439  1.4698 -0.2352  0.3720
  117MOL0     C15374   6.770   3.139   7.292  0.9828 -0.4079 -0.5846
  117MOL0     C15375   6.867   3.233   7.250 -0.9291  0.1165 -0.5490
  117MOL0     C15376   6.961   3.299   7.219  0.8833 -0.4555  0.3585
  117MOL0     C15377   6.813   2.752   7.173 -0.4211 -0.8260 -0.0091
  117MOL0     C15378   6.784   2.704   7.047  0.1278  1.1677 -0.3180
  117MOL0     H15379   6.423   2.463   6.812  2.2313 -0.3993  1.6084
  117MOL0     H15380   6.318   2.409   6.602 -1.5619 -2.3953  0.6977
  117MOL0     H15381   6.279   2.408   6.375  2.1957 -0.0613  1.0392
  117MOL0     H15382   6.217   2.268   6.460  0.5429 -1.8622  0.0980
  117MOL0     H15383   6.133   2.255   6.227  0.0361  1.1599 -0.5802
  117MOL0     H15384   6.213   2.113   6.291 -1.1936 -0.0969 -0.3557
  117MOL0     H15385   6.418   2.175   6.159  0.1040  0.4294  1.2868
  117MOL0     H15386   6.352   2.323   6.105  0.4910 -0.5924 -2.0615
  117MOL0     H15387   6.184   2.077   6.025 -0.3494  0.4979 -0.8846
  117MOL0     H15388   6.176   2.238   5.969  0.5573  2.4824  4.2079
  117MOL0     H15389   6.417   2.071   5.917 -1.5799 -0.2010  1.8984
  117MOL0     H15390   6.394   2.236   5.864  1.3709  1.0432  2.0880
  117MOL0     H15391   6.224   2.174   5.711 -0.0035  0.6746  2.1270
  117MOL0     H15392   6.173   2.027   5.787 -0.1571 -1.9628 -0.9277
  117MOL0     H15393   6.419   1.934   5.719  1.1021 -1.2531 -2.7534
  117MOL0     H15394   6.288   1.926   5.601  0.6011 -1.0295  0.1939
  117MOL0     H15395   6.485   2.007   5.503  1.6357  0.4270 -0.1377
  117MOL0     H15396   6.510   2.134   5.618  0.6133 -0.2880 -1.3798
  117MOL0     H15397   6.190   2.060   5.393  0.4310 -0.7811  3.4148
  117MOL0     H15398   6.060   2.411   5.296  0.8600 -0.3094  0.7921
  117MOL0     H15399   5.992   2.260   5.328  0.0583 -0.9193 -0.9062
  117MOL0     H15400   6.029   2.298   5.091  0.0285  1.1629  2.4336
  117MOL0     H15401   6.109   2.147   5.150 -5.5777 -0.3631  0.1177
  117MOL0     H15402   6.223   2.427   5.066  1.0134  0.2836  1.5207
  117MOL0     H15403   6.313   2.300   5.161 -1.5198 -2.4329  0.3462
  117MOL0     H15404   6.290   2.154   4.961 -2.7378  0.7078  0.8731
  117MOL0     H15405   6.392   2.299   4.959 -1.0299  4.9725  1.8276
  117MOL0     H15406   6.359   2.513   4.881 -3.5565 -1.6235  0.6336
  117MOL0     H15407   6.505   2.616   4.702  0.7265 -1.3900 -0.6043
  117MOL0     H15408   6.570   2.381   4.171 -2.2411 -1.2431 -4.0604
  117MOL0     H15409   6.741   2.462   3.971  3.0403  0.8918  3.1286
  117MOL0     H15410   6.898   2.768   4.014 -3.8126  1.9245  1.4847
  117MOL0     H15411   6.839   2.876   3.895 -1.2798 -1.4244 -1.8888
  117MOL0     H15412   6.959   2.747   3.713 -1.6926  1.5249  0.0630
  117MOL0     H15413   7.009   2.630   3.847  2.7946  0.6063 -0.3778
  117MOL0     H15414   7.192   2.765   3.775  0.2686 -1.6550  0.6024
  117MOL0     H15415   7.166   2.754   3.941  2.4117  1.4650  0.1426
  117MOL0     H15416   7.040   2.983   3.944 -0.3175  0.8587 -1.2653
  117MOL0     H15417   7.209   2.987   3.906  1.5442 -2.7101 -1.2767
  117MOL0     H15418   6.968   2.981   3.710 -0.2602  1.4810 -0.3667
  117MOL0     H15419   7.134   2.985   3.655 -0.1234  2.6980 -1.0092
  117MOL0     H15420   7.158   3.194   3.775 -0.6165  1.3267  1.5143
  117MOL0     H15421   7.004   3.184   3.859  1.2531  2.5580  0.5357
  117MOL0     H15422   7.054   3.185   3.565 -0.4287  0.0067 -0.4544
  117MOL0     H15423   6.886   3.158   3.644 -0.6254  1.0455  1.4647
  117MOL0     H15424   7.062   3.405   3.642 -0.1093 -0.9554 -2.1085
  117MOL0     H15425   6.918   3.381   3.751 -1.4249  0.5909 -1.2405
  117MOL0     H15426   6.629   2.853   4.011  1.1069 -0.2972  0.0405
  117MOL0     H15427   6.490   2.799   4.228 -2.8575 -1.1264  0.5219
  117MOL0     H15428   6.288   2.380   4.408 -3.3526 -1.2078  0.5586
  117MOL0     H15429   6.178   2.263   4.591 -0.9801  0.1682  2.8665
  117MOL0     H15430   6.663   2.181   6.477 -2.8405 -2.0603 -0.8646
  117MOL0     H15431   6.770   2.231   6.680  1.0821  2.6593 -1.3607
  117MOL0     H15432   6.687   2.389   7.140  0.7123 -0.6266  0.6834
  117MOL0     H15433   6.743   2.487   7.370 -4.7994 -3.0375 -2.3137
  117MOL0     H15434   6.715   2.844   7.542  0.7574  3.4134  0.2928
  117MOL0     H15435   6.685   2.864   7.376 -0.3428 -0.8795  1.3577
  117MOL0     H15436   6.911   2.966   7.559 -1.1836 -1.8891  0.3640
  117MOL0     H15437   6.946   2.957   7.382 -0.3364 -1.2348 -2.2038
  117MOL0     H15438   6.854   3.181   7.479  2.3441 -0.1748 -0.9913
  117MOL0     H15439   6.699   3.097   7.493  1.2478 -0.3736 -0.0228
  117MOL0     H15440   6.763   3.053   7.225 -0.9561 -2.0772  1.5860
  117MOL0     H15441   6.673   3.189   7.283  2.3510  2.0070 -3.3979
  117MOL0     H15442   7.042   3.362   7.190  1.7485 -1.4216  0.6286
  117MOL0     H15443   6.850   2.851   7.196 -1.7516 -0.2093 -0.4483
  117MOL0     H15444   6.771   2.759   6.954 -2.5652 -0.3559 -0.9506
  118MOL0     O15445  11.354   0.913   0.848 -0.3023 -0.2049  0.1403
  118MOL0     C15446  11.277   1.007   0.823  0.4650  0.7305  0.6354
  118MOL0     O15447  11.188   1.062   0.910  0.7544 -0.5525 -1.3216
  118MOL0     C15448  11.144   1.018   1.034  0.5065  0.3809  0.3771
  118MOL0     C15449  11.073   0.895   1.037  0.1857 -0.1904  0.0362
  118MOL0     C15450  11.045   0.840   1.165 -0.0347 -0.0833  0.3544
  118MOL0     C15451  11.078   0.905   1.282 -0.2006  0.5107 -0.5061
  118MOL0     O15452  11.044   0.847   1.406 -0.6072  0.0593 -0.1959
  118MOL0     C15453  10.928   0.754   1.416 -0.0209  0.0516 -0.3458
  118MOL0     C15454  10.947   0.702   1.559 -0.2670 -0.3164  0.2201
  118MOL0     C15455  10.942   0.803   1.673 -0.5589  0.5807 -0.1050
  118MOL0     C15456  10.894   0.723   1.796 -0.0048 -0.3752  0.2073
  118MOL0     C15457  10.898   0.816   1.920  0.2587  0.6667  0.3850
  118MOL0     C15458  10.911   0.725   2.053  0.7046  1.0058 -0.3902
  118MOL0     C15459  10.913   0.811   2.177 -0.3561  0.2773 -1.2543
  118MOL0     C15460  11.029   0.911   2.176 -0.2528 -0.3631 -0.3296
  118MOL0     N15461  11.078   0.974   2.294  0.2622  1.1015  0.1193
  118MOL0     C15462  11.154   0.909   2.383  0.0221  1.2458 -1.7685
  118MOL0     C15463  11.143   0.984   2.494  0.2528 -1.6115  1.0982
  118MOL0     C15464  11.234   0.994   2.610 -1.0096  0.3474  1.0478
  118MOL0     C15465  11.162   1.032   2.742 -0.1427 -0.3959  0.6650
  118MOL0     C15466  11.019   0.960   2.771  0.6640 -0.5897 -0.0823
  118MOL0     C15467  11.025   0.806   2.789 -0.0227  0.6219 -0.5620
  118MOL0     O15468  11.089   0.779   2.907 -0.8246  0.1904 -0.8888
  118MOL0     C15469  11.030   0.771   3.028 -0.1280 -0.2627 -0.2276
  118MOL0     C15470  10.901   0.713   3.045  0.6167  1.1311  0.3345
  118MOL0     C15471  10.841   0.710   3.179 -1.2496  0.5194 -0.0154
  118MOL0     C15472  10.905   0.774   3.280  0.7631 -0.9796  0.0620
  118MOL0     C15473  10.854   0.755   3.422 -1.4281  0.6559  0.2881
  118MOL0     O15474  10.891   0.845   3.527  0.4761  0.3299 -0.1241
  118MOL0     C15475  10.874   0.809   3.653 -0.0440 -0.4615 -0.7651
  118MOL0     C15476  10.987   0.815   3.728 -0.0990  0.0667 -0.1889
  118MOL0     C15477  10.978   0.792   3.868 -0.5268  0.4077  0.2941
  118MOL0     C15478  10.858   0.767   3.933 -0.8114 -0.0355 -0.1959
  118MOL0     O15479  10.858   0.744   4.071  1.1837 -0.7073 -0.3346
  118MOL0     C15480  10.901   0.614   4.100 -0.2587  1.0175 -0.3367
  118MOL0     C15481  11.046   0.579   4.072  0.0900  0.2907 -0.8295
  118MOL0     C15482  11.146   0.683   4.138  0.4330 -0.6378 -0.4651
  118MOL0     C15483  11.298   0.660   4.091  0.2252  0.0179 -0.1456
  118MOL0     C15484  11.367   0.533   4.178 -0.4484  0.2127 -0.6415
  118MOL0     C15485  11.530   0.531   4.167 -0.2582 -0.2747 -0.0683
  118MOL0     C15486  11.576   0.391   4.201  0.3443  0.5924 -0.0972
  118MOL0     C15487  11.720   0.374   4.158  0.4027  1.1461 -0.4550
  118MOL0    Cl15488  11.808   0.513   4.246  0.0526  0.0628 -0.4594
  118MOL0     C15489  10.735   0.776   3.857  1.2700  0.9505  0.2561
  118MOL0     C15490  10.743   0.797   3.713  0.2865  0.1562 -0.6633
  118MOL0     O15491  10.780   0.659   3.433  1.0300 -0.4163 -0.2143
  118MOL0     C15492  11.038   0.834   3.257  0.2209  0.0553  0.2534
  118MOL0     C15493  11.099   0.829   3.133  0.0115  0.6579  0.2477
  118MOL0     N15494  11.058   1.090   2.471 -0.6643  0.1361 -0.4887
  118MOL0     N15495  11.021   1.086   2.347 -0.7636  0.6567 -0.0581
  118MOL0     C15496  11.151   1.025   1.283  0.5582  0.4105 -0.1460
  118MOL0     C15497  11.177   1.089   1.149 -0.3603 -0.8052 -0.5005
  118MOL0     C15498  11.290   1.071   0.688  0.0406  0.1554  0.1073
  118MOL0     C15499  11.249   1.202   0.662  0.1656 -0.4923 -0.1401
  118MOL0     C15500  11.233   1.248   0.527  0.2799 -0.6505  0.7797
  118MOL0     C15501  11.258   1.168   0.416  0.1689  0.6730 -0.2598
  118MOL0     O15502  11.234   1.202   0.290  0.2416 -0.2224 -0.1083
  118MOL0     C15503  11.094   1.211   0.252 -0.0044  0.3574  0.3272
  118MOL0     C15504  11.085   1.289   0.122  0.1174  0.3868  0.3593
  118MOL0     C15505  11.073   1.188   0.011 -0.7345  1.1581  0.2867
  118MOL0     C15506  11.083   1.228  -0.132 -1.0906 -1.0020 -0.0138
  118MOL0     C15507  10.982   1.333  -0.157  0.3867 -0.8076 -0.0509
  118MOL0     C15508  10.907   1.420  -0.190  1.2304 -0.8966  1.3677
  118MOL0     C15509  11.312   1.039   0.449  0.0172  0.3127  0.5238
  118MOL0     C15510  11.317   0.994   0.573 -0.4801  0.8857  0.6409
  118MOL0     H15511  11.023   0.850   0.952  1.1699 -1.9296  0.3521
  118MOL0     H15512  10.996   0.743   1.178 -0.6664 -0.2620 -2.6389
  118MOL0     H15513  10.922   0.661   1.359 -0.0475 -1.7660  2.4077
  118MOL0     H15514  10.841   0.817   1.396  0.1469  0.3446 -0.1564
  118MOL0     H15515  11.048   0.659   1.559 -0.3683 -0.5733 -0.4732
  118MOL0     H15516  10.870   0.626   1.576 -1.3420  0.1283 -2.2489
  118MOL0     H15517  10.864   0.876   1.647 -2.0651 -0.8307  0.2765
  118MOL0     H15518  11.043   0.843   1.682 -0.1821  0.3274 -2.5584
  118MOL0     H15519  10.789   0.693   1.787  0.4525 -1.3766 -3.0755
  118MOL0     H15520  10.958   0.635   1.811 -0.3791 -0.8907 -1.1151
  118MOL0     H15521  10.829   0.901   1.925 -1.3936 -0.2182 -3.4354
  118MOL0     H15522  10.990   0.872   1.903  1.2418 -1.5667 -2.6537
  118MOL0     H15523  11.003   0.669   2.034 -0.0688  0.4458 -2.9726
  118MOL0     H15524  10.826   0.657   2.043  2.0367 -0.3615 -4.4494
  118MOL0     H15525  10.812   0.851   2.189 -0.1935  0.1968  0.5806
  118MOL0     H15526  10.945   0.752   2.263  0.9170  1.3708 -0.9553
  118MOL0     H15527  11.004   0.993   2.107  0.2959  0.4400  0.4027
  118MOL0     H15528  11.120   0.861   2.140  1.0954 -0.3929  2.7584
  118MOL0     H15529  11.214   0.822   2.359 -1.2046  0.4126 -1.9158
  118MOL0     H15530  11.309   1.073   2.598 -0.9381  0.1210 -0.2054
  118MOL0     H15531  11.284   0.897   2.618  0.8295  1.1624 -0.0484
  118MOL0     H15532  11.128   1.136   2.739  2.7033  0.5861  0.0085
  118MOL0     H15533  11.241   1.023   2.817  2.9051  0.9008 -2.1469
  118MOL0     H15534  10.965   0.996   2.859 -2.0986 -0.4383 -1.7162
  118MOL0     H15535  10.958   0.983   2.684  0.2514 -0.2707  0.2862
  118MOL0     H15536  11.086   0.766   2.708  1.1482  2.1516 -0.4696
  118MOL0     H15537  10.923   0.766   2.781 -0.4676  1.9319 -1.8070
  118MOL0     H15538  10.847   0.665   2.964 -2.7153 -0.2799  3.0848
  118MOL0     H15539  10.743   0.665   3.188 -2.0254  2.2714  0.8356
  118MOL0     H15540  11.086   0.834   3.687  0.0176  2.1265  0.9429
  118MOL0     H15541  11.075   0.811   3.912  1.1210 -1.8886 -2.0296
  118MOL0     H15542  10.839   0.558   4.029  1.0469  1.6511 -2.0609
  118MOL0     H15543  10.875   0.588   4.203  2.6511 -3.4240 -0.4633
  118MOL0     H15544  11.053   0.565   3.964  2.2624 -3.7093 -0.3538
  118MOL0     H15545  11.053   0.478   4.114  0.5656  0.6181 -0.0849
  118MOL0     H15546  11.143   0.691   4.247  5.2890  1.6960 -0.2576
  118MOL0     H15547  11.124   0.788   4.114  0.6209 -0.1610  1.3329
  118MOL0     H15548  11.302   0.644   3.983 -0.8258  1.9642 -0.5193
  118MOL0     H15549  11.356   0.748   4.122 -0.4037  0.5537 -0.4645
  118MOL0     H15550  11.325   0.434   4.154  1.4849 -0.9484  0.5077
  118MOL0     H15551  11.336   0.539   4.282 -1.2867 -1.2318 -0.7743
  118MOL0     H15552  11.574   0.607   4.232  0.0208  1.6331 -2.3460
  118MOL0     H15553  11.551   0.548   4.061 -0.9642  0.0115 -0.1638
  118MOL0     H15554  11.560   0.376   4.308  1.4662 -2.0761 -0.2369
  118MOL0     H15555  11.515   0.315   4.151  2.5253 -1.2801 -0.1028
  118MOL0     H15556  11.706   0.383   4.050  1.9860  1.6365 -0.6451
  118MOL0     H15557  11.769   0.281   4.187 -1.5090  0.4906  0.8642
  118MOL0     H15558  10.642   0.775   3.913  0.6257  1.5595 -0.7607
  118MOL0     H15559  10.650   0.798   3.657 -0.1481 -2.8366 -0.1686
  118MOL0     H15560  11.092   0.864   3.346 -1.3696 -1.5865  1.8545
  118MOL0     H15561  11.196   0.877   3.123  0.4730 -0.6066 -2.4680
  118MOL0     H15562  11.171   1.078   1.375 -2.2826  0.9733  0.2555
  118MOL0     H15563  11.232   1.182   1.142 -2.1970  0.2741 -1.1931
  118MOL0     H15564  11.215   1.258   0.748  1.8819 -1.9686  1.5896
  118MOL0     H15565  11.197   1.349   0.510 -2.8409 -2.1218 -2.6885
  118MOL0     H15566  11.035   1.263   0.329 -2.4632  0.4133 -1.4889
  118MOL0     H15567  11.052   1.110   0.256 -2.4843  1.2535 -0.8883
  118MOL0     H15568  10.995   1.352   0.122  0.3006  0.6621 -0.7994
  118MOL0     H15569  11.162   1.366   0.109 -2.4787  3.1492  0.2990
  118MOL0     H15570  10.981   1.129   0.010 -0.9642  1.4979 -1.8097
  118MOL0     H15571  11.155   1.115   0.018 -1.3323  0.5954  1.9083
  118MOL0     H15572  11.183   1.265  -0.155 -1.3724  1.4763  2.2340
  118MOL0     H15573  11.053   1.143  -0.194  0.3919 -0.7067 -1.1735
  118MOL0     H15574  10.834   1.489  -0.229  0.4970 -1.4224  1.7861
  118MOL0     H15575  11.346   0.979   0.365  0.7645  1.9799 -0.4259
  118MOL0     H15576  11.336   0.888   0.580 -3.2046  0.1163 -1.9668
  119MOL0     O15577   8.419   3.667   2.673  0.1061 -0.4111 -0.6611
  119MOL0     C15578   8.443   3.769   2.739 -0.0134 -0.2252  0.6911
  119MOL0     O15579   8.411   3.798   2.868  0.1672  0.0873 -0.0067
  119MOL0     C15580   8.327   3.712   2.933  0.3922 -0.0496  0.4355
  119MOL0     C15581   8.353   3.685   3.071 -0.2235  0.3495  0.7581
  119MOL0     C15582   8.263   3.610   3.155 -0.6679 -0.2039  0.7046
  119MOL0     C15583   8.134   3.571   3.101 -0.0280  0.5685  1.6600
  119MOL0     O15584   8.036   3.514   3.180 -0.3394  0.1528  0.6551
  119MOL0     C15585   8.082   3.424   3.269 -0.0736 -0.1367 -0.4461
  119MOL0     C15586   7.962   3.331   3.293  0.1340 -0.6658  0.2674
  119MOL0     C15587   7.936   3.236   3.171 -0.1868  1.5122 -1.0254
  119MOL0     C15588   7.827   3.130   3.206 -0.4236 -0.2425 -0.6268
  119MOL0     C15589   7.689   3.135   3.131 -0.2236 -0.4232 -0.6782
  119MOL0     C15590   7.613   2.999   3.124 -0.2852  0.1840  0.6243
  119MOL0     C15591   7.689   2.894   3.040  0.2894  0.6566 -0.6812
  119MOL0     C15592   7.616   2.883   2.899  0.3963  0.1028  0.5004
  119MOL0     N15593   7.685   2.777   2.827 -0.3586 -0.2586 -0.2683
  119MOL0     C15594   7.647   2.642   2.817 -0.4607  0.3871  0.0362
  119MOL0     C15595   7.747   2.596   2.736 -0.0959 -0.6885  0.2917
  119MOL0     C15596   7.775   2.454   2.682 -0.1429 -0.0883 -0.0829
  119MOL0     C15597   7.680   2.357   2.759  1.4537 -0.8442 -0.8845
  119MOL0     C15598   7.700   2.206   2.753 -0.0601 -0.0354  0.3567
  119MOL0     C15599   7.814   2.135   2.829 -0.1661  0.5073 -0.1078
  119MOL0     O15600   7.791   2.159   2.966 -0.1808 -0.5771  0.4495
  119MOL0     C15601   7.833   2.069   3.060  1.4837  1.2647  0.1362
  119MOL0     C15602   7.760   2.043   3.180  0.3922  0.8054  0.9162
  119MOL0     C15603   7.792   1.950   3.276  0.1831  0.3094 -0.5627
  119MOL0     C15604   7.914   1.872   3.256  0.3250  0.3248 -0.8324
  119MOL0     C15605   7.954   1.766   3.354 -0.1460  0.6999 -0.1286
  119MOL0     O15606   8.087   1.702   3.341 -0.1058 -0.1981 -0.1384
  119MOL0     C15607   8.121   1.615   3.439  0.2377  0.5436 -0.0900
  119MOL0     C15608   8.189   1.652   3.548  0.7026  0.3086  1.0010
  119MOL0     C15609   8.217   1.556   3.644  0.8767 -0.2471  0.0491
  119MOL0     C15610   8.189   1.422   3.626  0.3341 -1.2172  0.2858
  119MOL0     O15611   8.230   1.311   3.692  0.2768 -0.4635 -0.1364
  119MOL0     C15612   8.244   1.323   3.837  0.4418  0.8999 -0.5013
  119MOL0     C15613   8.123   1.263   3.911 -0.4339 -0.4406 -0.1157
  119MOL0     C15614   7.998   1.359   3.920 -0.7909  0.2761 -0.5597
  119MOL0     C15615   7.861   1.309   3.980 -0.6426 -0.5304  0.4242
  119MOL0     C15616   7.790   1.210   3.899 -0.5690  1.1572  1.0580
  119MOL0     C15617   7.778   1.220   3.746  0.5019  0.2380 -0.9190
  119MOL0     C15618   7.691   1.338   3.707 -0.1328 -0.1650 -0.3424
  119MOL0     C15619   7.744   1.411   3.585 -0.4055 -0.4062 -0.2293
  119MOL0    Cl15620   7.752   1.295   3.443 -0.2757 -0.1712  0.6613
  119MOL0     C15621   8.119   1.393   3.508  0.1738 -0.3267 -0.9917
  119MOL0     C15622   8.100   1.478   3.412 -0.1967  0.0707 -0.7101
  119MOL0     O15623   7.875   1.743   3.444 -0.4349 -0.4860  0.0071
  119MOL0     C15624   7.986   1.901   3.137 -0.3940 -0.2311 -0.2884
  119MOL0     C15625   7.946   1.995   3.051 -0.5993  0.2008  0.2174
  119MOL0     N15626   7.838   2.700   2.701  0.3164  0.3921  1.0051
  119MOL0     N15627   7.794   2.808   2.749  0.3165 -0.8765 -0.8076
  119MOL0     C15628   8.112   3.603   2.964  0.6421  0.1387  0.8324
  119MOL0     C15629   8.205   3.666   2.881 -0.0408 -0.3043  1.1703
  119MOL0     C15630   8.544   3.863   2.679  0.7635  1.0922  0.2003
  119MOL0     C15631   8.568   3.994   2.725  1.4554  0.1399  0.3378
  119MOL0     C15632   8.666   4.083   2.683  0.4809  0.7055  1.0488
  119MOL0     C15633   8.755   4.034   2.592  0.5421  0.3477  0.7394
  119MOL0     O15634   8.853   4.101   2.535  0.3011  1.2857 -0.2072
  119MOL0     C15635   8.862   4.245   2.558  0.5282  0.3307  0.0805
  119MOL0     C15636   8.961   4.288   2.458 -0.3465 -0.7463 -0.1414
  119MOL0     C15637   8.995   4.440   2.471 -0.2507  0.2824 -0.1587
  119MOL0     C15638   9.030   4.480   2.613 -0.2750  0.1229 -0.4181
  119MOL0     C15639   9.143   4.407   2.668 -0.8272 -0.0277 -0.6498
  119MOL0     C15640   9.233   4.358   2.742  0.3983 -0.3852  0.5327
  119MOL0     C15641   8.743   3.904   2.534 -0.1442 -0.0920  0.2092
  119MOL0     C15642   8.633   3.833   2.572  0.6187  1.1468 -0.3880
  119MOL0     H15643   8.440   3.731   3.116  0.4559  0.6824 -0.8071
  119MOL0     H15644   8.282   3.584   3.258  3.2353  1.1371  0.4763
  119MOL0     H15645   8.111   3.459   3.369  0.9462 -1.6376 -0.1829
  119MOL0     H15646   8.172   3.369   3.240 -0.4997 -0.2411 -1.5922
  119MOL0     H15647   7.880   3.394   3.330  1.2331  1.3594 -0.5506
  119MOL0     H15648   7.994   3.268   3.376 -2.4381 -4.0603 -1.0848
  119MOL0     H15649   8.017   3.171   3.138 -2.5990 -2.3280  0.0102
  119MOL0     H15650   7.893   3.307   3.099 -0.4060  3.2491  0.7296
  119MOL0     H15651   7.868   3.031   3.186  0.6771  0.3746 -1.5318
  119MOL0     H15652   7.791   3.152   3.307 -1.3750 -0.2323 -0.9570
  119MOL0     H15653   7.708   3.159   3.026 -0.6998  2.9416 -0.0826
  119MOL0     H15654   7.628   3.219   3.165 -0.7412 -0.9046 -0.3827
  119MOL0     H15655   7.507   3.002   3.098 -0.8912 -1.3214  2.5992
  119MOL0     H15656   7.620   2.951   3.223 -0.3417  1.0598  1.0650
  119MOL0     H15657   7.797   2.908   3.035  0.4984 -0.9726 -1.5248
  119MOL0     H15658   7.684   2.799   3.094 -1.4548  1.3813  0.5446
  119MOL0     H15659   7.623   2.979   2.847 -4.1618  1.1325  1.3257
  119MOL0     H15660   7.508   2.864   2.907  0.4773 -0.2925  0.6887
  119MOL0     H15661   7.555   2.600   2.857  0.1849  1.4983  2.9366
  119MOL0     H15662   7.879   2.439   2.711 -0.9046 -1.5253  2.2902
  119MOL0     H15663   7.756   2.459   2.575  0.4582  0.4674 -0.1652
  119MOL0     H15664   7.578   2.381   2.729  1.8839  3.0994  0.2651
  119MOL0     H15665   7.675   2.387   2.864 -3.4281 -0.0116 -1.1118
  119MOL0     H15666   7.605   2.167   2.791 -0.2035  0.8539  0.9383
  119MOL0     H15667   7.702   2.166   2.651 -1.7781 -1.3300  0.7842
  119MOL0     H15668   7.910   2.164   2.787  0.9002 -3.5202 -0.9044
  119MOL0     H15669   7.802   2.028   2.807  0.8475 -0.4124  3.1930
  119MOL0     H15670   7.659   2.080   3.197 -1.2776 -3.1808  0.7828
  119MOL0     H15671   7.725   1.920   3.356  0.7717 -2.2684 -0.9448
  119MOL0     H15672   8.207   1.758   3.564 -1.5861  0.4969  2.9050
  119MOL0     H15673   8.259   1.584   3.740 -3.3498  1.0907  1.7399
  119MOL0     H15674   8.264   1.421   3.880  2.4131  0.3481 -0.0577
  119MOL0     H15675   8.333   1.275   3.878 -0.3719 -0.5348 -0.3578
  119MOL0     H15676   8.151   1.229   4.011  2.2486 -1.0154 -0.9861
  119MOL0     H15677   8.089   1.173   3.858 -1.6383 -0.6287  0.9282
  119MOL0     H15678   7.994   1.403   3.820  2.4102  0.2115 -0.8310
  119MOL0     H15679   8.030   1.441   3.986 -0.1891 -2.1399  2.3995
  119MOL0     H15680   7.883   1.273   4.081  2.5774  4.7781  2.0434
  119MOL0     H15681   7.806   1.403   3.987  1.2143  0.5654  1.0147
  119MOL0     H15682   7.690   1.222   3.941 -0.2675 -1.2903  2.7095
  119MOL0     H15683   7.834   1.114   3.927  1.5490  2.7830  3.7999
  119MOL0     H15684   7.729   1.129   3.710  2.1802 -1.0425 -0.1336
  119MOL0     H15685   7.873   1.228   3.692  0.1788 -0.1458 -1.5493
  119MOL0     H15686   7.583   1.321   3.712 -0.3912  0.9666 -1.3950
  119MOL0     H15687   7.704   1.409   3.790 -1.4526 -1.3461  0.9095
  119MOL0     H15688   7.836   1.460   3.620 -0.5763 -1.4163  1.7709
  119MOL0     H15689   7.668   1.483   3.552 -2.6057 -3.0808 -1.3206
  119MOL0     H15690   8.085   1.293   3.481 -3.7203  0.7132 -0.5962
  119MOL0     H15691   8.053   1.448   3.319 -0.8988 -1.2610  0.0359
  119MOL0     H15692   8.076   1.842   3.118  1.2525  1.0277  2.8335
  119MOL0     H15693   8.004   1.999   2.959  0.0410  0.1632  0.6109
  119MOL0     H15694   8.015   3.574   2.925  0.3716 -1.3845  2.5220
  119MOL0     H15695   8.184   3.683   2.776  0.4095  0.7515  1.2445
  119MOL0     H15696   8.490   4.037   2.787 -2.0391 -0.6941 -3.0416
  119MOL0     H15697   8.685   4.185   2.714  3.9577  0.8564 -1.0521
  119MOL0     H15698   8.879   4.268   2.664  1.4370 -0.2833  0.0736
  119MOL0     H15699   8.769   4.299   2.539  0.4231 -0.1892 -0.9250
  119MOL0     H15700   9.059   4.240   2.452 -1.2381 -2.4956 -4.0612
  119MOL0     H15701   8.911   4.263   2.364 -1.2014 -1.6548  0.5416
  119MOL0     H15702   8.907   4.493   2.434 -0.2211 -0.4259 -1.3142
  119MOL0     H15703   9.084   4.470   2.413  1.6549  0.8688  2.8675
  119MOL0     H15704   9.053   4.586   2.624 -2.7673  0.5713  1.0216
  119MOL0     H15705   8.942   4.465   2.675  0.3706  2.8475  1.3044
  119MOL0     H15706   9.314   4.326   2.805  1.7728 -0.2742 -1.1180
  119MOL0     H15707   8.814   3.864   2.463  3.3421  0.1220  3.2080
  119MOL0     H15708   8.613   3.739   2.521 -0.8434  0.9372  0.5087
  120MOL0     O15709   1.846   4.595   7.700  0.5153 -0.0883  0.0960
  120MOL0     C15710   1.920   4.518   7.766  1.0889  0.8611 -0.0490
  120MOL0     O15711   1.948   4.392   7.732 -0.2053  0.2472  0.1772
  120MOL0     C15712   1.937   4.346   7.599 -0.7403 -0.0072  0.6050
  120MOL0     C15713   1.903   4.214   7.576 -1.1200 -0.3904 -0.1769
  120MOL0     C15714   1.902   4.156   7.449 -0.0104  0.6593  0.8963
  120MOL0     C15715   1.927   4.229   7.336  0.4198  0.0100 -0.4202
  120MOL0     O15716   1.942   4.180   7.204  0.1004  0.1954 -0.2318
  120MOL0     C15717   1.833   4.093   7.160  0.2934  0.6156  0.2002
  120MOL0     C15718   1.839   4.053   7.010 -0.2609  0.3154 -0.2905
  120MOL0     C15719   1.709   3.999   6.976 -0.7108  0.3343 -0.9722
  120MOL0     C15720   1.728   3.953   6.832 -0.4630  1.0279  0.4238
  120MOL0     C15721   1.596   3.957   6.750  0.6562 -0.4356 -0.1158
  120MOL0     C15722   1.629   3.945   6.603  0.1655  0.2714 -0.9134
  120MOL0     C15723   1.520   3.934   6.501  0.5653  0.3802  0.2354
  120MOL0     C15724   1.486   3.792   6.484  0.3191 -0.3329  0.1212
  120MOL0     N15725   1.384   3.756   6.385 -0.5885 -0.3319 -0.1108
  120MOL0     C15726   1.358   3.809   6.256 -0.1229  0.6037  0.3533
  120MOL0     C15727   1.243   3.745   6.214 -0.8958 -0.3027  0.3313
  120MOL0     C15728   1.168   3.771   6.083  0.7070 -0.0440  0.2225
  120MOL0     C15729   1.109   3.914   6.062 -0.4893  0.1471  0.0695
  120MOL0     C15730   1.139   3.964   5.918  0.1392 -0.3592  0.3302
  120MOL0     C15731   1.053   4.092   5.882 -0.5667  0.2723 -0.9058
  120MOL0     O15732   1.083   4.201   5.972  0.9265  0.5526  0.7731
  120MOL0     C15733   1.160   4.295   5.913 -0.9665 -0.1844  0.3935
  120MOL0     C15734   1.299   4.266   5.896  1.2880  0.2474  1.1934
  120MOL0     C15735   1.383   4.358   5.842 -0.0720  0.2478 -0.1616
  120MOL0     C15736   1.334   4.478   5.786 -0.8013  0.0488  0.1632
  120MOL0     C15737   1.431   4.588   5.756 -0.7183 -0.4076  0.3760
  120MOL0     O15738   1.567   4.567   5.768 -0.2186 -0.0916  0.5760
  120MOL0     C15739   1.668   4.660   5.760 -0.0022 -0.4318  0.2457
  120MOL0     C15740   1.660   4.802   5.730  1.0577  0.3894 -0.6258
  120MOL0     C15741   1.772   4.885   5.711 -1.1150  0.5784 -0.3225
  120MOL0     C15742   1.891   4.841   5.761  0.2348 -0.2593  0.6262
  120MOL0     O15743   1.989   4.938   5.765  1.6349  0.0115  0.4342
  120MOL0     C15744   2.068   4.961   5.649  0.3497  0.5934  0.0908
  120MOL0     C15745   2.212   4.984   5.683  0.6983  0.8638  1.4283
  120MOL0     C15746   2.277   4.875   5.764  0.6463  0.1611  0.3336
  120MOL0     C15747   2.420   4.900   5.796 -0.6893 -0.6706 -0.5055
  120MOL0     C15748   2.472   4.768   5.856  0.3321  0.0801 -0.8654
  120MOL0     C15749   2.609   4.782   5.919 -0.5822 -0.0879 -0.4236
  120MOL0     C15750   2.686   4.655   5.941  0.2970  0.3494  0.0754
  120MOL0     C15751   2.839   4.679   5.977 -0.9208  0.4913 -0.8984
  120MOL0    Cl15752   2.881   4.770   6.129 -0.0025 -0.2571 -0.1719
  120MOL0     C15753   1.907   4.710   5.808  0.2014  1.5299 -0.1218
  120MOL0     C15754   1.799   4.624   5.806 -0.5278  0.2059  0.1500
  120MOL0     O15755   1.384   4.705   5.739 -0.8049 -0.0545 -0.5636
  120MOL0     C15756   1.201   4.508   5.794 -0.0769 -0.1882  0.4929
  120MOL0     C15757   1.112   4.418   5.861 -0.5865 -0.5307 -0.4586
  120MOL0     N15758   1.190   3.665   6.310  0.2764 -0.2333 -0.4053
  120MOL0     N15759   1.273   3.687   6.414 -0.5139 -1.2596  0.1050
  120MOL0     C15760   1.958   4.366   7.361  0.9712  0.3152  0.3298
  120MOL0     C15761   1.969   4.424   7.482  1.3614  0.2728 -0.3905
  120MOL0     C15762   1.965   4.568   7.895 -0.0248  1.0800  0.3286
  120MOL0     C15763   1.911   4.689   7.954  0.2790  0.5809 -0.8355
  120MOL0     C15764   1.950   4.731   8.076 -0.2424 -0.1103 -0.1381
  120MOL0     C15765   2.039   4.651   8.152  0.4393 -0.8017  0.4143
  120MOL0     O15766   2.084   4.690   8.272 -0.2197 -0.4652 -0.1068
  120MOL0     C15767   1.975   4.679   8.376 -0.9429 -0.6296  0.4267
  120MOL0     C15768   1.989   4.544   8.439  0.6757 -0.0150 -0.2219
  120MOL0     C15769   2.101   4.537   8.539  1.0391 -0.1176 -0.3205
  120MOL0     C15770   2.060   4.575   8.679  0.0181 -0.0093  0.1462
  120MOL0     C15771   1.952   4.500   8.726 -0.0823 -0.2701  0.0097
  120MOL0     C15772   1.851   4.454   8.773  0.5098 -0.2432  0.4396
  120MOL0     C15773   2.107   4.548   8.089 -0.9256  0.1772 -0.4573
  120MOL0     C15774   2.061   4.507   7.969 -0.2837  0.0325  0.9422
  120MOL0     H15775   1.885   4.143   7.657  0.5530 -1.4554 -0.6892
  120MOL0     H15776   1.875   4.051   7.449  0.9033  0.3839  3.1898
  120MOL0     H15777   1.738   4.138   7.188  0.5080  1.6476 -0.6837
  120MOL0     H15778   1.832   3.994   7.208 -1.9571  0.7951  0.6303
  120MOL0     H15779   1.922   3.990   6.979  2.0596  2.2367  1.5987
  120MOL0     H15780   1.855   4.148   6.960  0.4743 -0.0461 -0.7535
  120MOL0     H15781   1.625   4.068   6.988 -3.0271 -2.5768  0.9522
  120MOL0     H15782   1.686   3.907   7.031  0.1949 -0.4844 -1.9204
  120MOL0     H15783   1.805   4.008   6.777 -2.3614  0.9756 -2.4580
  120MOL0     H15784   1.763   3.849   6.844  2.1488  2.1492  4.5872
  120MOL0     H15785   1.547   4.054   6.758 -1.9994 -1.5288 -1.9087
  120MOL0     H15786   1.519   3.882   6.769  2.0769 -1.9675 -0.1398
  120MOL0     H15787   1.710   3.873   6.595 -0.5330 -0.6660  0.2126
  120MOL0     H15788   1.668   4.046   6.586 -1.3151  1.5582  2.5286
  120MOL0     H15789   1.428   3.981   6.537 -0.8716 -0.3350 -2.2924
  120MOL0     H15790   1.543   3.972   6.401 -3.8380  0.8458 -0.8113
  120MOL0     H15791   1.461   3.746   6.580  1.3882  1.8380  1.5217
  120MOL0     H15792   1.578   3.752   6.440 -0.2889 -1.8616  0.1659
  120MOL0     H15793   1.411   3.890   6.207  1.8065 -1.0728 -0.4806
  120MOL0     H15794   1.077   3.711   6.083  0.2351  0.6276 -0.8598
  120MOL0     H15795   1.232   3.734   6.002  0.1790 -0.7701  0.1316
  120MOL0     H15796   1.160   3.979   6.134  0.6150 -0.4847 -0.1264
  120MOL0     H15797   1.002   3.912   6.086 -0.8238 -2.5404 -1.2560
  120MOL0     H15798   1.246   3.984   5.904  0.4696 -2.4391 -0.4818
  120MOL0     H15799   1.099   3.881   5.858 -2.0530  0.1458  1.0211
  120MOL0     H15800   0.947   4.067   5.896 -0.3019  0.3972  1.8310
  120MOL0     H15801   1.099   4.110   5.785  2.3311  1.7140  0.6301
  120MOL0     H15802   1.346   4.170   5.912  2.4078  0.3238 -1.1627
  120MOL0     H15803   1.489   4.333   5.843 -0.4904 -2.2593 -3.2222
  120MOL0     H15804   1.568   4.850   5.698  1.6677  2.3052  0.3360
  120MOL0     H15805   1.749   4.987   5.680 -1.1491  0.7026  0.0996
  120MOL0     H15806   2.027   5.052   5.603 -2.0858  0.3909  1.7034
  120MOL0     H15807   2.046   4.879   5.579 -1.2772  0.0042  1.2454
  120MOL0     H15808   2.227   5.075   5.742 -1.1392  0.5095  2.5046
  120MOL0     H15809   2.271   5.000   5.592  2.1506 -0.0824  2.1493
  120MOL0     H15810   2.276   4.780   5.711  3.4826 -1.1971  2.4097
  120MOL0     H15811   2.222   4.870   5.859 -2.8929 -1.6156 -1.6392
  120MOL0     H15812   2.470   4.927   5.703  0.3447  1.4812  0.5991
  120MOL0     H15813   2.426   4.990   5.858  2.5964 -1.1129  0.0126
  120MOL0     H15814   2.484   4.692   5.778 -2.4068 -0.7418 -0.5691
  120MOL0     H15815   2.395   4.718   5.916 -0.1039  0.7168 -0.8925
  120MOL0     H15816   2.595   4.851   6.003  0.2824 -2.8477  2.1714
  120MOL0     H15817   2.667   4.829   5.839  0.1278 -1.2127 -0.5832
  120MOL0     H15818   2.649   4.603   6.030  2.1855  1.3407  1.5105
  120MOL0     H15819   2.672   4.594   5.851 -1.2536  1.1496 -0.2552
  120MOL0     H15820   2.884   4.736   5.895  1.0673  0.7048  0.2676
  120MOL0     H15821   2.889   4.583   5.977  0.2704  0.9075  3.5621
  120MOL0     H15822   2.004   4.690   5.851 -0.8760 -0.2973  1.6717
  120MOL0     H15823   1.798   4.520   5.839  2.3109  0.8074  2.5706
  120MOL0     H15824   1.157   4.600   5.755  0.4908 -0.1105  0.0287
  120MOL0     H15825   1.009   4.440   5.890  0.2573 -1.4698  4.1055
  120MOL0     H15826   1.983   4.443   7.289  3.8204  0.9072  1.7921
  120MOL0     H15827   1.981   4.532   7.484 -4.1117  1.1341 -0.0435
  120MOL0     H15828   1.839   4.749   7.901  0.2537  0.7709 -0.5902
  120MOL0     H15829   1.919   4.831   8.106  2.6160  1.1818 -1.1032
  120MOL0     H15830   1.878   4.693   8.330 -0.3006 -1.6530 -1.3410
  120MOL0     H15831   1.994   4.758   8.449 -2.4548  2.9499 -2.7877
  120MOL0     H15832   1.899   4.513   8.493  1.7182 -1.9183  0.5036
  120MOL0     H15833   2.005   4.471   8.359  1.5227  1.9824 -1.9885
  120MOL0     H15834   2.187   4.595   8.505  1.0519 -0.7050 -1.3272
  120MOL0     H15835   2.130   4.432   8.545 -0.1253 -0.7981 -3.8210
  120MOL0     H15836   2.141   4.556   8.751  0.0587  0.0459  0.1160
  120MOL0     H15837   2.032   4.681   8.675  0.2012  0.1701  2.2070
  120MOL0     H15838   1.752   4.418   8.796 -1.1209  4.0091  0.9078
  120MOL0     H15839   2.194   4.505   8.136 -1.8058 -2.4868 -1.0808
  120MOL0     H15840   2.109   4.415   7.937 -1.5165 -0.5731  0.7956
  121MOL0     O15841   7.974   7.506  10.991  0.0211 -0.3842  0.2910
  121MOL0     C15842   8.016   7.586  11.074  0.7831  0.8679  0.6537
  121MOL0     O15843   8.031   7.725  11.052 -0.5433  0.5065  0.3489
  121MOL0     C15844   7.998   7.783  10.931 -0.5277 -0.0918  0.2767
  121MOL0     C15845   7.901   7.883  10.926 -0.2004  0.5363 -0.0368
  121MOL0     C15846   7.863   7.937  10.807  0.6765 -0.3596 -0.2860
  121MOL0     C15847   7.925   7.920  10.689  0.3881 -0.2505  0.0681
  121MOL0     O15848   7.890   8.000  10.579 -0.9136  0.3267 -0.2451
  121MOL0     C15849   7.908   7.955  10.443 -0.5544  0.3180  0.2091
  121MOL0     C15850   7.786   7.996  10.364  0.0887  0.7089  0.5695
  121MOL0     C15851   7.802   8.135  10.320  0.4058  0.3569  0.2168
  121MOL0     C15852   7.652   8.173  10.273  0.1858  0.5610  0.1874
  121MOL0     C15853   7.653   8.295  10.192  0.0522 -0.4543 -0.0625
  121MOL0     C15854   7.673   8.426  10.276 -1.0174  0.3557 -0.4320
  121MOL0     C15855   7.591   8.524  10.205 -0.0925  0.5339 -0.4173
  121MOL0     C15856   7.605   8.665  10.272  0.5782 -0.7742 -0.6549
  121MOL0     N15857   7.730   8.742  10.256  0.5260 -0.6916  0.1285
  121MOL0     C15858   7.854   8.695  10.259  0.0565  0.0616 -0.0654
  121MOL0     C15859   7.925   8.769  10.178 -0.1973  0.4207  1.3996
  121MOL0     C15860   8.063   8.731  10.137  0.4229  0.3240 -0.0393
  121MOL0     C15861   8.162   8.847  10.117 -0.5452 -0.0350  0.3110
  121MOL0     C15862   8.169   8.921  10.248  0.6247 -0.3334  0.1423
  121MOL0     C15863   8.269   9.035  10.261  0.6244 -0.6588  0.0888
  121MOL0     O15864   8.400   8.981  10.235 -0.7525 -0.6871 -0.1466
  121MOL0     C15865   8.508   9.069  10.220  0.5114  0.1379 -0.7572
  121MOL0     C15866   8.510   9.205  10.245 -0.0487 -0.6264  0.3995
  121MOL0     C15867   8.620   9.294  10.220 -0.3525  1.1029 -0.3270
  121MOL0     C15868   8.743   9.252  10.164 -0.7490 -0.4516  0.7301
  121MOL0     C15869   8.852   9.358  10.135  1.1538  0.2596  0.1560
  121MOL0     O15870   8.841   9.481  10.187 -0.6498  0.1056 -0.3319
  121MOL0     C15871   8.947   9.570  10.180  0.5294  0.2458  0.2223
  121MOL0     C15872   9.073   9.547  10.240 -0.6491  0.0891 -0.1089
  121MOL0     C15873   9.159   9.653  10.238  0.5870  1.4187 -0.3529
  121MOL0     C15874   9.141   9.774  10.170  0.7133 -0.1556 -0.5195
  121MOL0     O15875   9.238   9.880  10.172  0.2775 -0.6771  0.0014
  121MOL0     C15876   9.359   9.866  10.251 -0.2950 -0.0589 -0.2244
  121MOL0     C15877   9.483   9.949  10.191  0.9355  0.4172  0.2736
  121MOL0     C15878   9.451  10.094  10.223 -0.0322  0.6237  0.2830
  121MOL0     C15879   9.594  10.164  10.220  0.3563 -1.0994 -0.0353
  121MOL0     C15880   9.587  10.316  10.239  0.0759 -0.3525 -0.5751
  121MOL0     C15881   9.725  10.376  10.230 -0.2014 -0.9187 -0.1260
  121MOL0     C15882   9.770  10.372  10.084  0.3132 -0.4337  0.5096
  121MOL0     C15883   9.912  10.400  10.054 -0.0200 -0.5454 -0.6441
  121MOL0    Cl15884  10.031  10.277  10.130  0.1044 -0.0949  0.0279
  121MOL0     C15885   9.009   9.793  10.106 -0.3999 -0.9075 -0.1224
  121MOL0     C15886   8.910   9.693  10.123 -0.3685 -0.8062 -1.1801
  121MOL0     O15887   8.946   9.312  10.076 -0.3682 -0.4153 -0.1989
  121MOL0     C15888   8.741   9.113  10.132  0.1119  0.0161  0.0750
  121MOL0     C15889   8.634   9.027  10.164  0.2042 -0.0100  0.2645
  121MOL0     N15890   7.850   8.869  10.126  0.2185 -0.3600 -0.2560
  121MOL0     N15891   7.728   8.851  10.176 -0.5266 -0.2221 -0.2318
  121MOL0     C15892   8.016   7.810  10.686 -0.6976  0.1409  0.4066
  121MOL0     C15893   8.066   7.748  10.803  0.6112 -0.2366 -0.9182
  121MOL0     C15894   8.052   7.533  11.203 -0.3434 -0.2242 -0.9411
  121MOL0     C15895   8.093   7.400  11.217 -0.4290  0.9266  0.3611
  121MOL0     C15896   8.145   7.353  11.332 -0.0428 -0.3766 -0.3654
  121MOL0     C15897   8.147   7.436  11.443  0.6686  0.0470  0.0462
  121MOL0     O15898   8.184   7.381  11.563 -0.5775  0.4529  0.4133
  121MOL0     C15899   8.091   7.369  11.676  1.1559  0.4801  0.8936
  121MOL0     C15900   8.050   7.224  11.684  0.2740  0.6012 -0.2406
  121MOL0     C15901   7.927   7.190  11.786 -1.0434 -0.0711  1.6844
  121MOL0     C15902   7.988   7.166  11.925  0.9039  1.1148  0.7294
  121MOL0     C15903   7.946   7.030  11.978 -0.1752  0.5826  0.2750
  121MOL0     C15904   7.907   6.930  12.034  0.4127 -0.2813 -0.5209
  121MOL0     C15905   8.115   7.568  11.430 -0.3694 -0.6233 -0.1608
  121MOL0     C15906   8.079   7.620  11.309  0.4071 -0.0857  0.1781
  121MOL0     H15907   7.878   7.932  11.021  1.4171 -0.2021  0.7816
  121MOL0     H15908   7.806   8.029  10.819  3.0375  1.0273  1.4129
  121MOL0     H15909   7.926   7.847  10.437 -0.5591  0.3863 -3.1253
  121MOL0     H15910   7.994   7.993  10.386 -2.3094 -0.6090 -3.3711
  121MOL0     H15911   7.698   7.985  10.428  0.6391  0.1803  1.2630
  121MOL0     H15912   7.775   7.928  10.279 -2.6454  0.9200  0.6974
  121MOL0     H15913   7.865   8.149  10.232 -0.6117  0.4989 -0.4977
  121MOL0     H15914   7.819   8.206  10.402  0.1495  1.5028 -0.7019
  121MOL0     H15915   7.620   8.094  10.204 -0.5081  1.6962 -0.8051
  121MOL0     H15916   7.580   8.179  10.355 -4.0719  0.2074 -3.2298
  121MOL0     H15917   7.556   8.301  10.141  0.4184 -0.0042 -0.7259
  121MOL0     H15918   7.733   8.282  10.119  3.9046 -2.1794  4.0122
  121MOL0     H15919   7.781   8.445  10.283 -1.0518  0.6931 -0.7698
  121MOL0     H15920   7.640   8.407  10.378  0.5041  3.3914  0.7345
  121MOL0     H15921   7.610   8.528  10.097 -0.0032  2.7916 -0.3645
  121MOL0     H15922   7.488   8.489  10.211  0.5532 -1.2288  1.8103
  121MOL0     H15923   7.600   8.645  10.380 -1.9960  1.4107 -0.2629
  121MOL0     H15924   7.517   8.730  10.264  1.7245  1.5056  2.8585
  121MOL0     H15925   7.898   8.610  10.311  2.2959  1.2217  0.0484
  121MOL0     H15926   8.053   8.668  10.049  1.8580 -1.0352  0.7154
  121MOL0     H15927   8.097   8.679  10.227 -0.4340  1.7033  1.1387
  121MOL0     H15928   8.131   8.925  10.047 -1.6176  2.2265  3.0934
  121MOL0     H15929   8.263   8.811  10.093 -1.9034 -2.0587 -3.1358
  121MOL0     H15930   8.071   8.970  10.247 -0.4749 -2.4077 -1.3588
  121MOL0     H15931   8.192   8.848  10.326 -1.2723 -0.6824  0.4203
  121MOL0     H15932   8.261   9.084  10.358  0.7340  2.8759 -1.5549
  121MOL0     H15933   8.230   9.115  10.198  0.1225  1.2780  2.7002
  121MOL0     H15934   8.427   9.238  10.307  1.3359  1.9005  1.0080
  121MOL0     H15935   8.615   9.398  10.250 -1.7844  1.4861 -1.7839
  121MOL0     H15936   9.098   9.452  10.288 -0.6158  0.0762 -0.1526
  121MOL0     H15937   9.253   9.634  10.290  0.3163  1.6644  0.2387
  121MOL0     H15938   9.399   9.764  10.249  4.2075  1.4935 -1.3852
  121MOL0     H15939   9.344   9.891  10.356  0.9432 -1.6828  0.3909
  121MOL0     H15940   9.494   9.939  10.083  0.8647  1.7486  0.1337
  121MOL0     H15941   9.565   9.916  10.255  0.5300 -0.7639  0.2184
  121MOL0     H15942   9.415  10.105  10.326 -0.0544  2.4026  0.1128
  121MOL0     H15943   9.371  10.114  10.152  0.6549  1.1001 -0.3788
  121MOL0     H15944   9.644  10.120  10.307  1.3863  0.6231  0.2955
  121MOL0     H15945   9.644  10.132  10.128 -0.1246  0.7387 -0.9795
  121MOL0     H15946   9.531  10.335  10.331 -2.4046 -2.3579 -1.5696
  121MOL0     H15947   9.525  10.364  10.162 -0.0742  1.6032  0.7022
  121MOL0     H15948   9.799  10.325  10.293  1.1100 -1.1215 -1.7616
  121MOL0     H15949   9.725  10.478  10.270  1.7372 -2.1040  3.3297
  121MOL0     H15950   9.740  10.284  10.027 -2.2045  0.4279  0.3629
  121MOL0     H15951   9.709  10.451  10.040 -2.4416 -1.1979  2.6582
  121MOL0     H15952   9.928  10.504  10.085  1.1917 -1.6329  2.8810
  121MOL0     H15953   9.935  10.413   9.948 -2.1430  0.0556 -1.0770
  121MOL0     H15954   8.974   9.884  10.057 -3.4533 -1.0591  1.5290
  121MOL0     H15955   8.817   9.714  10.070 -0.3854  0.2486 -0.7632
  121MOL0     H15956   8.825   9.060  10.087 -0.1723 -1.3244  1.0777
  121MOL0     H15957   8.636   8.919  10.147 -0.8494  0.3208 -2.3414
  121MOL0     H15958   8.062   7.777  10.594  3.0843 -0.3094  2.2794
  121MOL0     H15959   8.144   7.674  10.791 -0.6626 -1.2146 -4.7544
  121MOL0     H15960   8.085   7.333  11.132  0.9355  2.0319 -0.6912
  121MOL0     H15961   8.163   7.246  11.340  0.4542 -0.2768 -0.0749
  121MOL0     H15962   8.003   7.430  11.654  0.9872 -0.1133 -0.1934
  121MOL0     H15963   8.142   7.403  11.766  2.2943 -0.2475  0.5594
  121MOL0     H15964   8.022   7.188  11.585 -2.1365  1.2346  0.1449
  121MOL0     H15965   8.141   7.170  11.708  0.0233  0.3655  0.1956
  121MOL0     H15966   7.879   7.104  11.739 -0.5137  0.1617  0.6853
  121MOL0     H15967   7.850   7.267  11.791 -1.4965 -0.5894  3.0947
  121MOL0     H15968   8.096   7.186  11.931  0.8575  1.0286  4.9084
  121MOL0     H15969   7.939   7.240  11.990 -1.9667 -0.8167  0.9158
  121MOL0     H15970   7.865   6.845  12.084  2.2403  0.5499  2.6524
  121MOL0     H15971   8.114   7.633  11.517 -3.7352 -0.6737 -0.0520
  121MOL0     H15972   8.053   7.725  11.305 -1.6452 -0.4909  1.1921
  122MOL0     O15973   0.716   0.587   9.394  0.0300 -0.5339  0.3103
  122MOL0     C15974   0.658   0.563   9.501 -0.3092 -0.5327  0.3213
  122MOL0     O15975   0.713   0.558   9.623 -0.0165  0.6862 -0.4170
  122MOL0     C15976   0.836   0.608   9.634 -0.1950  0.2688 -0.7436
  122MOL0     C15977   0.955   0.547   9.588  0.0872 -0.3116  0.3013
  122MOL0     C15978   1.075   0.586   9.642 -0.3131  0.1528 -0.0662
  122MOL0     C15979   1.082   0.692   9.734 -0.1180 -0.0893 -0.5077
  122MOL0     O15980   1.200   0.731   9.797  0.9192 -0.1474  0.2715
  122MOL0     C15981   1.300   0.778   9.709 -0.8625  0.2545  1.3372
  122MOL0     C15982   1.432   0.685   9.703  0.2629  0.5040  0.3392
  122MOL0     C15983   1.534   0.712   9.599  1.0028  0.7784  0.1783
  122MOL0     C15984   1.492   0.676   9.453  0.1446 -0.1116 -0.5262
  122MOL0     C15985   1.531   0.779   9.344 -0.4632  0.7995  0.3583
  122MOL0     C15986   1.683   0.802   9.308  0.0652 -0.3220 -0.7585
  122MOL0     C15987   1.754   0.669   9.281 -0.3355 -0.3149  0.4183
  122MOL0     C15988   1.900   0.699   9.230 -0.2658 -0.4987 -1.0312
  122MOL0     N15989   1.898   0.768   9.103 -0.7811 -0.4663  1.0257
  122MOL0     C15990   1.911   0.909   9.091 -0.3633 -0.0236  0.6667
  122MOL0     C15991   1.838   0.942   8.983  0.0152 -0.4728  0.4192
  122MOL0     C15992   1.822   1.089   8.953  0.9406 -0.4719  0.1768
  122MOL0     C15993   1.753   1.160   9.064  0.9514 -0.1322  0.3127
  122MOL0     C15994   1.596   1.157   9.054 -0.2418  0.7082  0.7936
  122MOL0     C15995   1.530   1.239   9.163  0.1466 -0.8394  0.1246
  122MOL0     O15996   1.384   1.223   9.175 -0.5389  0.7385 -0.0855
  122MOL0     C15997   1.296   1.293   9.097  0.0416 -0.6773 -0.6076
  122MOL0     C15998   1.161   1.267   9.121  0.2500  0.2554  0.1972
  122MOL0     C15999   1.064   1.311   9.024 -0.0548 -0.2667  0.0483
  122MOL0     C16000   1.098   1.393   8.920 -0.2733  0.1146  0.1837
  122MOL0     C16001   0.987   1.444   8.834  0.1541 -0.3633  0.1581
  122MOL0     O16002   0.859   1.380   8.828 -0.0325  0.1930  0.2680
  122MOL0     C16003   0.758   1.460   8.776  0.4154  0.3448 -0.2084
  122MOL0     C16004   0.689   1.442   8.657 -0.1451  0.0975  0.8874
  122MOL0     C16005   0.588   1.529   8.614  0.2547 -1.2301  0.2764
  122MOL0     C16006   0.543   1.639   8.704  0.3161  0.0090  0.6870
  122MOL0     O16007   0.434   1.704   8.655  0.3864 -1.0354 -0.0481
  122MOL0     C16008   0.341   1.774   8.743 -0.8763  0.2369  0.0160
  122MOL0     C16009   0.232   1.684   8.813  0.7864  0.0522 -0.1878
  122MOL0     C16010   0.144   1.593   8.723  0.0237  0.8359 -0.0180
  122MOL0     C16011   0.202   1.470   8.653 -0.6500 -0.4681  0.5569
  122MOL0     C16012   0.287   1.380   8.738  0.2807  0.3778 -1.1329
  122MOL0     C16013   0.199   1.316   8.852  0.5467  0.1053  0.1471
  122MOL0     C16014   0.095   1.217   8.803  0.0323 -0.3474  0.8398
  122MOL0     C16015   0.158   1.112   8.721  0.0407 -1.1617 -0.5228
  122MOL0    Cl16016   0.051   0.978   8.716  0.1585  0.2506  0.2776
  122MOL0     C16017   0.600   1.643   8.829 -0.3516 -0.8492 -0.3181
  122MOL0     C16018   0.705   1.560   8.863 -0.1631 -0.0933 -0.4289
  122MOL0     O16019   1.006   1.552   8.773  0.5686  0.6671 -0.2773
  122MOL0     C16020   1.226   1.449   8.923  0.3297 -1.4025 -0.7664
  122MOL0     C16021   1.326   1.387   8.998 -0.2682 -0.1524  0.2361
  122MOL0     N16022   1.796   0.823   8.917  0.7023 -1.1125 -0.7715
  122MOL0     N16023   1.843   0.720   8.993  0.4611  0.4105 -0.5519
  122MOL0     C16024   0.973   0.755   9.780  0.3243 -0.0810 -1.0520
  122MOL0     C16025   0.850   0.725   9.721 -0.4660 -0.1982  0.5807
  122MOL0     C16026   0.522   0.524   9.499 -0.3328  0.6243 -0.7069
  122MOL0     C16027   0.466   0.462   9.606 -0.1651  0.0853  0.2117
  122MOL0     C16028   0.334   0.431   9.613 -0.1826 -0.0246 -0.3242
  122MOL0     C16029   0.255   0.432   9.499 -0.3051  0.1053 -0.0292
  122MOL0     O16030   0.129   0.387   9.521  1.1546  0.4586 -0.0669
  122MOL0     C16031   0.046   0.349   9.412 -1.0390  0.9230 -0.4481
  122MOL0     C16032  -0.058   0.254   9.462  0.3306  0.1355 -0.9561
  122MOL0     C16033  -0.136   0.203   9.342 -0.8883 -0.7166 -0.7612
  122MOL0     C16034  -0.269   0.156   9.391 -0.0635 -0.1574  0.4498
  122MOL0     C16035  -0.331   0.079   9.282 -0.0222  0.4321  0.1134
  122MOL0     C16036  -0.405   0.015   9.212  0.8149 -0.2427  0.2995
  122MOL0     C16037   0.318   0.469   9.380  0.2865 -1.1492 -0.5034
  122MOL0     C16038   0.444   0.522   9.384 -0.7924  0.4831  0.5757
  122MOL0     H16039   0.950   0.465   9.517 -2.2169 -1.8555  2.1126
  122MOL0     H16040   1.156   0.516   9.621 -2.3394 -2.3151 -0.0474
  122MOL0     H16041   1.328   0.874   9.754 -1.4379  0.4738  1.2348
  122MOL0     H16042   1.265   0.800   9.608  0.0481 -0.8501  0.7591
  122MOL0     H16043   1.403   0.581   9.685  2.7092 -0.0929 -0.4844
  122MOL0     H16044   1.467   0.681   9.807  1.2703  0.9067  0.0201
  122MOL0     H16045   1.620   0.647   9.618 -0.4711 -2.4139 -2.9328
  122MOL0     H16046   1.560   0.818   9.604  1.5712  0.6996 -0.9323
  122MOL0     H16047   1.531   0.579   9.423 -0.3250  0.0633 -1.7549
  122MOL0     H16048   1.385   0.655   9.450  0.2650 -1.0753  0.8273
  122MOL0     H16049   1.485   0.875   9.368 -1.1491  1.7240 -3.9617
  122MOL0     H16050   1.489   0.741   9.251  3.4476 -2.8829 -0.2597
  122MOL0     H16051   1.731   0.852   9.393  1.3778  2.5910 -3.0045
  122MOL0     H16052   1.689   0.876   9.227 -1.5022  2.1040  1.2047
  122MOL0     H16053   1.764   0.599   9.364  2.3960 -0.4263  0.1085
  122MOL0     H16054   1.693   0.620   9.204 -1.7282  2.5562 -0.4285
  122MOL0     H16055   1.954   0.605   9.217  1.8984  0.7160 -1.4482
  122MOL0     H16056   1.956   0.744   9.313  0.7820 -0.6975 -1.6065
  122MOL0     H16057   1.966   0.972   9.160  1.0840 -0.4756 -0.0429
  122MOL0     H16058   1.768   1.117   8.862  0.7408  5.0619  1.6266
  122MOL0     H16059   1.926   1.121   8.942  1.8693 -3.1003  0.7410
  122MOL0     H16060   1.789   1.263   9.074 -1.3661  1.1157 -2.6792
  122MOL0     H16061   1.787   1.113   9.157  0.8707  0.7870  0.8175
  122MOL0     H16062   1.552   1.172   8.955  1.7242  2.1223  0.0702
  122MOL0     H16063   1.573   1.054   9.082  1.1562  0.5057  1.2735
  122MOL0     H16064   1.566   1.343   9.163  1.6156 -1.2585 -2.3863
  122MOL0     H16065   1.562   1.192   9.256 -2.3138 -1.9858  0.4432
  122MOL0     H16066   1.138   1.184   9.187  1.3929 -0.7965 -0.6744
  122MOL0     H16067   0.962   1.276   9.028  0.3168 -1.2859  2.1682
  122MOL0     H16068   0.716   1.357   8.595  3.0781 -1.1938  3.7272
  122MOL0     H16069   0.538   1.510   8.520 -1.5021  0.1870  0.8569
  122MOL0     H16070   0.275   1.837   8.683 -2.1791 -0.0156  1.1191
  122MOL0     H16071   0.390   1.844   8.811  2.2772  1.5648 -3.3227
  122MOL0     H16072   0.156   1.742   8.867 -0.8654 -2.0553 -0.1030
  122MOL0     H16073   0.299   1.640   8.887  1.8046  1.8502  0.0049
  122MOL0     H16074   0.116   1.656   8.638 -0.6383 -2.4709 -2.4419
  122MOL0     H16075   0.061   1.558   8.784  0.8803  1.5335  1.6162
  122MOL0     H16076   0.119   1.409   8.617  0.1954 -1.4159  0.1646
  122MOL0     H16077   0.253   1.499   8.561 -4.4218  2.0610 -0.9892
  122MOL0     H16078   0.372   1.435   8.779  1.2554 -1.2003 -0.9723
  122MOL0     H16079   0.328   1.307   8.667  2.0400  0.8500 -0.6505
  122MOL0     H16080   0.150   1.401   8.901  2.1897 -0.8135  3.6565
  122MOL0     H16081   0.266   1.280   8.930 -0.1897 -2.0027 -0.1411
  122MOL0     H16082   0.052   1.172   8.893  1.9014  0.9604  2.4825
  122MOL0     H16083   0.014   1.276   8.759  2.8102  1.6165 -2.1828
  122MOL0     H16084   0.252   1.084   8.768  1.3403  1.2465 -1.5520
  122MOL0     H16085   0.167   1.144   8.617  2.4602 -1.0232 -0.3083
  122MOL0     H16086   0.573   1.717   8.904 -0.8953  0.1876 -1.4958
  122MOL0     H16087   0.758   1.568   8.957 -0.4258 -0.4603 -0.2437
  122MOL0     H16088   1.269   1.517   8.850  1.5188 -0.9071  0.3605
  122MOL0     H16089   1.428   1.424   8.996 -0.3724  0.1336  0.1787
  122MOL0     H16090   0.987   0.841   9.845 -0.2911 -0.9253  0.2408
  122MOL0     H16091   0.749   0.761   9.737 -1.3933 -2.8706  1.3170
  122MOL0     H16092   0.525   0.449   9.697 -0.9648 -3.6258  0.3746
  122MOL0     H16093   0.295   0.403   9.711  0.2387  2.8885  0.7786
  122MOL0     H16094   0.104   0.310   9.328  3.5344  1.6064  2.0334
  122MOL0     H16095  -0.012   0.435   9.378 -4.5513 -1.2375 -0.3311
  122MOL0     H16096  -0.007   0.183   9.528  1.7062  0.9560 -1.0898
  122MOL0     H16097  -0.127   0.309   9.527  0.1718 -1.2072  0.0387
  122MOL0     H16098  -0.075   0.121   9.303 -0.7225 -1.0784  0.2337
  122MOL0     H16099  -0.149   0.277   9.262 -1.5910 -1.1179 -1.0312
  122MOL0     H16100  -0.259   0.098   9.484 -1.6470  0.9782  1.3649
  122MOL0     H16101  -0.337   0.237   9.419 -4.1361 -2.2039 -2.4486
  122MOL0     H16102  -0.460  -0.057   9.156  1.0628 -0.8159  0.7832
  122MOL0     H16103   0.243   0.484   9.303 -0.6395 -1.0445  0.4032
  122MOL0     H16104   0.491   0.567   9.298 -1.3897 -0.8611 -0.5067
  123MOL0     O16105   2.343  10.156   9.882 -0.3712 -0.1543 -0.1829
  123MOL0     C16106   2.229  10.210   9.882  0.3116  0.5912 -1.6889
  123MOL0     O16107   2.122  10.180   9.966  0.7097 -0.5955  0.0597
  123MOL0     C16108   2.132  10.063  10.031  0.7119 -0.0896  0.1362
  123MOL0     C16109   2.065   9.945   9.985  0.1703 -0.1146 -1.2620
  123MOL0     C16110   2.097   9.821  10.044 -0.7108  0.5939  0.2986
  123MOL0     C16111   2.183   9.812  10.151  0.3055 -0.5141 -0.3673
  123MOL0     O16112   2.212   9.686  10.196 -0.2035  0.1587 -0.5556
  123MOL0     C16113   2.346   9.634  10.180  0.3786 -0.1317 -0.4564
  123MOL0     C16114   2.353   9.496  10.103 -0.8882 -0.5427 -0.3121
  123MOL0     C16115   2.482   9.424  10.098 -0.4979 -0.1316  0.5259
  123MOL0     C16116   2.591   9.455  10.002 -0.5196 -0.6281  0.3495
  123MOL0     C16117   2.683   9.337   9.994  0.4993  0.1639  0.7574
  123MOL0     C16118   2.812   9.387   9.913 -0.3216 -0.4128 -0.1251
  123MOL0     C16119   2.895   9.265   9.871 -0.1239  0.7489 -0.0285
  123MOL0     C16120   3.039   9.306   9.818 -0.0095 -0.8457  0.0715
  123MOL0     N16121   3.112   9.184   9.778 -0.3447 -0.8078  0.6735
  123MOL0     C16122   3.189   9.118   9.870  0.0339  0.7810 -0.0613
  123MOL0     C16123   3.262   9.029   9.790  0.2385 -0.7601  0.1020
  123MOL0     C16124   3.373   8.955   9.828  0.9160 -0.5527  0.2497
  123MOL0     C16125   3.500   9.047   9.831  0.1334  0.1768  0.7639
  123MOL0     C16126   3.544   9.080   9.686 -0.7961  0.4494 -0.2688
  123MOL0     C16127   3.687   9.135   9.664 -0.0760 -0.0005  0.4000
  123MOL0     O16128   3.719   9.193   9.533  0.2233 -0.0551 -0.0906
  123MOL0     C16129   3.676   9.326   9.517 -1.0492  0.6009 -0.4761
  123MOL0     C16130   3.767   9.428   9.556  0.0623  0.7254 -0.0588
  123MOL0     C16131   3.731   9.560   9.564  0.0063 -0.0052  0.6807
  123MOL0     C16132   3.604   9.598   9.514  1.2571  0.1624  0.6010
  123MOL0     C16133   3.543   9.734   9.511 -0.2314  0.5048 -0.5575
  123MOL0     O16134   3.406   9.752   9.483  0.1245  0.1961 -0.0730
  123MOL0     C16135   3.334   9.861   9.519 -0.5297 -0.2359  0.5167
  123MOL0     C16136   3.337   9.902   9.654  0.2618  0.2594  0.0725
  123MOL0     C16137   3.273  10.019   9.698 -0.0503  0.4280  0.5978
  123MOL0     C16138   3.202  10.099   9.609 -0.2503 -0.9897  1.7406
  123MOL0     O16139   3.131  10.210   9.637  0.5730 -0.6936  0.4962
  123MOL0     C16140   3.198  10.310   9.704  0.5516 -0.8264 -1.2291
  123MOL0     C16141   3.109  10.349   9.828  0.2895 -0.8327 -0.1514
  123MOL0     C16142   2.992  10.448   9.795 -1.1668 -0.2303 -0.1851
  123MOL0     C16143   2.926  10.513   9.915 -0.7167  0.7147 -0.0432
  123MOL0     C16144   2.868  10.424  10.033 -0.6291  0.4609  0.1885
  123MOL0     C16145   2.749  10.333   9.994 -0.4553 -0.3713 -0.4330
  123MOL0     C16146   2.726  10.231  10.113  0.2255 -0.2759 -0.2162
  123MOL0     C16147   2.596  10.159  10.099 -0.0673  1.0782 -0.0300
  123MOL0    Cl16148   2.523  10.088  10.244 -0.6489 -0.7480  0.0613
  123MOL0     C16149   3.201  10.058   9.476  0.6182  0.3420  0.3620
  123MOL0     C16150   3.268   9.939   9.434 -0.6805 -0.9083 -0.4743
  123MOL0     O16151   3.620   9.827   9.552 -0.1506  0.5412  0.2185
  123MOL0     C16152   3.520   9.498   9.464 -0.6269  0.3557  0.3553
  123MOL0     C16153   3.552   9.360   9.478 -0.1581 -0.3998  0.7998
  123MOL0     N16154   3.212   9.033   9.663  0.1081 -1.1445  0.1096
  123MOL0     N16155   3.125   9.131   9.659 -0.5050 -0.4715  0.8280
  123MOL0     C16156   2.232   9.936  10.203  0.5229  0.5206  0.2432
  123MOL0     C16157   2.213  10.054  10.143  0.2385 -0.5578  0.7217
  123MOL0     C16158   2.227  10.335   9.798 -0.4942  0.5088 -0.5981
  123MOL0     C16159   2.109  10.403   9.770 -0.7664  0.0525  0.3669
  123MOL0     C16160   2.107  10.517   9.691  0.4607  0.3263 -0.3326
  123MOL0     C16161   2.232  10.582   9.659 -0.0483 -0.2219 -0.3079
  123MOL0     O16162   2.230  10.705   9.594  0.3387  0.3779  0.5096
  123MOL0     C16163   2.350  10.749   9.529  0.8439  1.0655 -0.0298
  123MOL0     C16164   2.323  10.878   9.449  0.7520  0.0280 -1.1632
  123MOL0     C16165   2.194  10.862   9.364 -0.4254  0.2393  0.6231
  123MOL0     C16166   2.196  10.946   9.231 -0.4454  0.1110 -0.0647
  123MOL0     C16167   2.189  11.093   9.243 -1.0243  0.2176  0.4939
  123MOL0     C16168   2.193  11.207   9.285  0.9852 -0.3092  1.0771
  123MOL0     C16169   2.350  10.528   9.707  0.1652  0.6195  0.3806
  123MOL0     C16170   2.352  10.401   9.769 -0.5844 -0.1152 -0.2684
  123MOL0     H16171   2.000   9.958   9.899 -0.4283 -0.5861 -0.8903
  123MOL0     H16172   2.045   9.732  10.010 -1.1411  0.7797  0.4725
  123MOL0     H16173   2.379   9.620  10.283 -0.9286  2.6569  0.4507
  123MOL0     H16174   2.418   9.711  10.152  0.7923 -0.0098  0.8535
  123MOL0     H16175   2.324   9.503   9.998 -1.3786  0.4334 -0.1246
  123MOL0     H16176   2.277   9.437  10.155  2.9040 -4.5865  1.2897
  123MOL0     H16177   2.448   9.322  10.077 -1.9974  0.7441 -1.6859
  123MOL0     H16178   2.526   9.433  10.198  0.2115 -0.7311  0.2823
  123MOL0     H16179   2.546   9.477   9.905 -0.7076  1.6301  0.9032
  123MOL0     H16180   2.650   9.540  10.037 -2.4892  1.2977 -0.7483
  123MOL0     H16181   2.649   9.247   9.943 -1.2412  1.2699 -0.1199
  123MOL0     H16182   2.705   9.298  10.094 -0.4058 -2.4907  0.0078
  123MOL0     H16183   2.875   9.447   9.980 -0.6379  0.5384 -0.6668
  123MOL0     H16184   2.798   9.449   9.825  0.9561  2.1535  1.3626
  123MOL0     H16185   2.915   9.200   9.957  2.1392  2.0410  0.5053
  123MOL0     H16186   2.842   9.204   9.797 -2.4155 -2.1941  3.6394
  123MOL0     H16187   3.081   9.355   9.906 -0.6511 -3.4690  1.9650
  123MOL0     H16188   3.027   9.375   9.734 -1.5046 -1.9480 -0.6704
  123MOL0     H16189   3.218   9.140   9.972 -0.4471 -1.2633  0.5675
  123MOL0     H16190   3.386   8.869   9.763 -1.8689 -1.9051  1.2850
  123MOL0     H16191   3.352   8.916   9.928 -0.3105  2.5460  1.3335
  123MOL0     H16192   3.577   8.986   9.880  1.3963 -0.7456 -2.0996
  123MOL0     H16193   3.478   9.131   9.897 -0.5660  1.5764 -1.1570
  123MOL0     H16194   3.541   8.988   9.627  1.3281  0.4939 -0.5068
  123MOL0     H16195   3.471   9.154   9.653 -1.5851 -0.3786 -0.4261
  123MOL0     H16196   3.737   9.038   9.669 -2.5558 -1.3464  0.6333
  123MOL0     H16197   3.726   9.204   9.738  0.6159 -0.6037  0.6091
  123MOL0     H16198   3.871   9.408   9.580 -0.5010 -0.4036  1.6199
  123MOL0     H16199   3.794   9.638   9.606 -1.0525  0.3051  1.7347
  123MOL0     H16200   3.376   9.834   9.730 -2.9435  0.2314  1.8367
  123MOL0     H16201   3.276  10.058   9.799 -1.1560  1.5062  0.2508
  123MOL0     H16202   3.230  10.393   9.640  1.2134  0.8864  1.2009
  123MOL0     H16203   3.295  10.270   9.735  0.7450 -1.1812 -2.2361
  123MOL0     H16204   3.175  10.408   9.893  4.0687 -0.9289 -3.4882
  123MOL0     H16205   3.066  10.266   9.884  0.3932 -1.1158 -0.4885
  123MOL0     H16206   2.924  10.394   9.729  1.1321 -2.7646 -0.6593
  123MOL0     H16207   3.027  10.530   9.732  1.1815 -0.4684  0.6986
  123MOL0     H16208   3.015  10.562   9.954  1.5412 -3.2497  0.2848
  123MOL0     H16209   2.855  10.589   9.882 -2.4710 -0.8347 -0.0488
  123MOL0     H16210   2.834  10.476  10.123 -1.5325  0.8220 -0.3447
  123MOL0     H16211   2.944  10.352  10.064 -1.1038  0.6128  1.7832
  123MOL0     H16212   2.761  10.284   9.897  2.3969  0.8023 -0.7612
  123MOL0     H16213   2.655  10.389   9.991  0.0097  0.4730  0.5015
  123MOL0     H16214   2.802  10.152  10.107  2.5982  1.7127  1.5743
  123MOL0     H16215   2.721  10.287  10.206  0.1289  3.1841 -2.1137
  123MOL0     H16216   2.604  10.080  10.023  0.2639  1.6729 -0.6243
  123MOL0     H16217   2.525  10.228  10.053  2.1410  2.3598 -1.7674
  123MOL0     H16218   3.148  10.118   9.403 -0.7973 -0.3793  0.7592
  123MOL0     H16219   3.294   9.916   9.331  0.2501  0.5954 -0.6030
  123MOL0     H16220   3.417   9.505   9.430 -2.2040 -0.5601  4.4159
  123MOL0     H16221   3.485   9.282   9.442 -0.3304  0.3385 -0.5718
  123MOL0     H16222   2.284   9.936  10.298 -0.2610  1.0141  0.6842
  123MOL0     H16223   2.281  10.133  10.174  0.1131 -0.2295  0.1586
  123MOL0     H16224   2.008  10.374   9.797 -2.5124  3.1963 -2.1661
  123MOL0     H16225   2.015  10.565   9.659 -1.6827 -0.9658  3.3111
  123MOL0     H16226   2.393  10.677   9.459 -1.3002  0.5109 -0.8789
  123MOL0     H16227   2.421  10.767   9.610  0.5235  1.3387  0.1972
  123MOL0     H16228   2.310  10.967   9.512  1.0743 -1.1220  0.6182
  123MOL0     H16229   2.408  10.904   9.386  2.3325  0.2800  0.9643
  123MOL0     H16230   2.102  10.887   9.418 -2.5106 -3.0019 -1.1040
  123MOL0     H16231   2.192  10.758   9.329  0.7788  1.2006 -2.6956
  123MOL0     H16232   2.282  10.904   9.180 -1.1305 -0.9484 -0.3812
  123MOL0     H16233   2.105  10.915   9.178 -0.4477 -0.0057  0.0083
  123MOL0     H16234   2.186  11.305   9.327 -4.6144  0.5539 -1.0102
  123MOL0     H16235   2.451  10.568   9.708  0.3380  0.4210  3.8348
  123MOL0     H16236   2.442  10.348   9.797 -0.3845 -0.4149 -1.4356
  124MOL0     O16237   3.981   4.910   9.618 -0.6591  0.1518 -0.5439
  124MOL0     C16238   3.898   4.953   9.538  0.0554 -0.3038  0.0560
  124MOL0     O16239   3.768   4.971   9.569  0.2123  0.1969 -0.3812
  124MOL0     C16240   3.716   4.981   9.697 -0.3058 -0.0584 -0.2570
  124MOL0     C16241   3.772   4.962   9.823 -0.1837  0.0934 -0.2046
  124MOL0     C16242   3.693   4.957   9.933 -0.8226  1.0104  0.7080
  124MOL0     C16243   3.559   4.976   9.928  0.0165 -0.1623 -0.2033
  124MOL0     O16244   3.492   4.974  10.043  0.1912  0.0836 -0.5597
  124MOL0     C16245   3.451   4.850  10.104  0.1812 -0.1639 -0.2065
  124MOL0     C16246   3.312   4.868  10.181 -0.0625 -0.9334  0.6885
  124MOL0     C16247   3.290   4.739  10.242  0.2673  0.9215 -0.7457
  124MOL0     C16248   3.176   4.739  10.355  0.4946  0.1566  0.0827
  124MOL0     C16249   3.131   4.603  10.408  0.1016  0.7224  0.0510
  124MOL0     C16250   3.016   4.616  10.501 -0.6855  1.2580 -0.3164
  124MOL0     C16251   2.991   4.476  10.557  0.2480  0.0088 -1.1021
  124MOL0     C16252   2.874   4.472  10.663  0.0454 -0.9395  0.1243
  124MOL0     N16253   2.839   4.342  10.699  0.7821  0.6062 -0.0790
  124MOL0     C16254   2.904   4.270  10.805  1.2572 -0.0503  0.5498
  124MOL0     C16255   2.855   4.146  10.792 -0.2543  0.2527 -0.6819
  124MOL0     C16256   2.868   4.034  10.891 -0.2149  0.2762 -0.4027
  124MOL0     C16257   2.816   4.090  11.027 -1.2750  0.5136 -0.7479
  124MOL0     C16258   2.795   3.982  11.125 -0.1925 -0.2346 -0.6890
  124MOL0     C16259   2.670   4.017  11.214  0.6055 -0.6008 -0.1982
  124MOL0     O16260   2.722   4.115  11.315 -0.8798  0.4446 -0.3058
  124MOL0     C16261   2.622   4.185  11.377 -0.0682 -0.2820 -0.7846
  124MOL0     C16262   2.654   4.314  11.418 -0.4346 -0.1238 -0.4448
  124MOL0     C16263   2.560   4.396  11.483  0.6240  0.3650 -0.2942
  124MOL0     C16264   2.434   4.349  11.527  0.9043 -0.7992  0.5205
  124MOL0     C16265   2.343   4.429  11.612 -0.3387  1.1705  0.5112
  124MOL0     O16266   2.203   4.383  11.607 -0.7831 -0.8974 -0.2872
  124MOL0     C16267   2.105   4.460  11.655  1.1962 -1.6054 -0.5209
  124MOL0     C16268   2.089   4.595  11.600 -0.4123 -0.0805 -0.2160
  124MOL0     C16269   1.985   4.682  11.654 -0.1929  1.2762  0.7686
  124MOL0     C16270   1.919   4.650  11.768  0.4636 -0.5608 -0.1337
  124MOL0     O16271   1.828   4.739  11.803  0.9415 -1.3184 -1.2248
  124MOL0     C16272   1.760   4.722  11.936 -0.6589  0.8104  0.6188
  124MOL0     C16273   1.671   4.836  11.988  0.1285 -0.4787 -0.4252
  124MOL0     C16274   1.560   4.880  11.896 -1.2426  0.3040 -0.2229
  124MOL0     C16275   1.461   4.962  11.975 -0.4623 -1.1935  0.6218
  124MOL0     C16276   1.343   4.997  11.890 -0.2751 -0.4374 -0.7593
  124MOL0     C16277   1.283   5.124  11.960 -0.2331 -0.3351 -0.1784
  124MOL0     C16278   1.152   5.179  11.898 -0.2641  0.6015  0.0532
  124MOL0     C16279   1.111   5.312  11.962 -0.4452 -1.2966  0.4898
  124MOL0    Cl16280   1.249   5.428  11.970  0.2152  0.5603 -0.5976
  124MOL0     C16281   1.945   4.525  11.825 -0.0408 -0.4145 -0.1530
  124MOL0     C16282   2.023   4.429  11.768  0.3290 -0.1096  0.1898
  124MOL0     O16283   2.374   4.533  11.667 -0.1470  0.1525  0.1455
  124MOL0     C16284   2.398   4.215  11.493  0.2632 -0.1060 -1.1001
  124MOL0     C16285   2.492   4.132  11.417 -0.5956 -0.6130  0.3458
  124MOL0     N16286   2.776   4.132  10.685  0.4622  0.7453  0.3428
  124MOL0     N16287   2.770   4.246  10.623  0.6307  0.1415  0.4571
  124MOL0     C16288   3.496   5.005   9.802 -0.2424 -0.5861  0.0683
  124MOL0     C16289   3.574   5.011   9.690 -0.1267 -0.2048 -0.0617
  124MOL0     C16290   3.949   4.982   9.396 -0.8162 -0.2635 -0.4036
  124MOL0     C16291   4.071   4.923   9.364 -1.4987 -0.0378  0.4978
  124MOL0     C16292   4.129   4.960   9.240 -0.7905  0.3697 -0.3160
  124MOL0     C16293   4.065   5.045   9.148 -0.7744 -1.2565  0.2878
  124MOL0     O16294   4.122   5.079   9.027 -0.5563  0.0448  0.0394
  124MOL0     C16295   4.160   4.977   8.935 -0.1051 -0.0611  0.1726
  124MOL0     C16296   4.299   5.029   8.891 -0.7925  0.5044 -0.1455
  124MOL0     C16297   4.396   5.054   9.004 -0.8885 -0.0275  0.2186
  124MOL0     C16298   4.396   5.197   9.060 -0.2134  0.5354 -1.1234
  124MOL0     C16299   4.526   5.235   9.109 -0.6844 -0.1141 -0.6966
  124MOL0     C16300   4.640   5.262   9.151  0.9547 -1.6291 -0.3291
  124MOL0     C16301   3.947   5.110   9.192 -0.5506  0.1650  0.5133
  124MOL0     C16302   3.888   5.075   9.311 -0.1536  0.6265  0.0621
  124MOL0     H16303   3.875   4.935   9.843 -1.0606 -2.3789  1.3821
  124MOL0     H16304   3.742   4.923  10.024 -0.0195  0.1260 -0.0428
  124MOL0     H16305   3.530   4.825  10.176  1.0140 -3.9779 -2.1913
  124MOL0     H16306   3.430   4.774  10.029  0.5605  0.7231 -1.2396
  124MOL0     H16307   3.233   4.904  10.115  0.4813 -3.3709 -1.4447
  124MOL0     H16308   3.326   4.944  10.258  0.1131 -1.0001  0.7224
  124MOL0     H16309   3.379   4.698  10.290  0.2675  0.1415 -1.3917
  124MOL0     H16310   3.264   4.672  10.159 -0.7496  0.0495  0.2449
  124MOL0     H16311   3.225   4.791  10.438  1.5881 -2.2290  1.0154
  124MOL0     H16312   3.086   4.784  10.311  1.0033  0.4362 -0.6860
  124MOL0     H16313   3.217   4.551  10.450  0.9609  0.0888 -2.3189
  124MOL0     H16314   3.098   4.547  10.320  0.5583 -0.7776  0.7907
  124MOL0     H16315   2.933   4.651  10.439 -0.7909  0.3801 -0.6803
  124MOL0     H16316   3.049   4.697  10.567 -0.2219  0.2124  0.7749
  124MOL0     H16317   2.990   4.402  10.476 -1.4263 -0.5417 -0.6109
  124MOL0     H16318   3.079   4.449  10.617 -2.6800 -4.0534  1.8818
  124MOL0     H16319   2.796   4.506  10.594  1.6864  0.9452 -0.9254
  124MOL0     H16320   2.884   4.543  10.746 -0.1924 -1.7040  0.8133
  124MOL0     H16321   2.969   4.316  10.879  1.8484  1.7395 -1.0085
  124MOL0     H16322   2.968   3.990  10.901 -0.5954 -0.7773 -1.0964
  124MOL0     H16323   2.799   3.955  10.862 -1.5163  0.9949  0.6151
  124MOL0     H16324   2.742   4.170  11.022  1.4087  3.1031 -2.3356
  124MOL0     H16325   2.894   4.148  11.077 -2.0078  0.3826  0.5820
  124MOL0     H16326   2.781   3.886  11.075 -1.8207 -0.6545  0.4930
  124MOL0     H16327   2.883   3.972  11.190 -0.8659  4.8400  1.4883
  124MOL0     H16328   2.618   3.931  11.257 -0.4764  1.5951  3.2579
  124MOL0     H16329   2.592   4.077  11.168  2.2460  3.3592  1.7485
  124MOL0     H16330   2.755   4.348  11.399  0.2481 -1.5632  0.4827
  124MOL0     H16331   2.574   4.500  11.510 -1.8696  0.6147  0.2820
  124MOL0     H16332   2.144   4.632  11.513 -2.3299  1.2353 -0.9273
  124MOL0     H16333   1.944   4.769  11.603 -1.6501  1.4079  2.0989
  124MOL0     H16334   1.840   4.712  12.009 -1.0224  2.2082  1.2434
  124MOL0     H16335   1.696   4.634  11.947 -1.1027  1.4651  4.8047
  124MOL0     H16336   1.735   4.920  12.020 -2.4840  1.6538 -0.4734
  124MOL0     H16337   1.617   4.798  12.075 -0.8253  1.8600  0.0837
  124MOL0     H16338   1.500   4.794  11.864 -0.9238 -0.4797  1.2153
  124MOL0     H16339   1.597   4.941  11.813  0.5635 -1.5113 -0.8297
  124MOL0     H16340   1.432   4.930  12.076 -0.1883 -2.5877  0.2788
  124MOL0     H16341   1.515   5.051  12.007  1.0710 -2.1367  0.7720
  124MOL0     H16342   1.273   4.912  11.895  0.1089 -0.6819  0.6000
  124MOL0     H16343   1.361   5.016  11.784 -1.8626 -1.6845 -1.3072
  124MOL0     H16344   1.356   5.205  11.964  1.2076 -1.5277 -1.1890
  124MOL0     H16345   1.250   5.092  12.059 -7.9738  3.0432 -0.9948
  124MOL0     H16346   1.169   5.192  11.791  0.8643 -0.9319  0.0057
  124MOL0     H16347   1.076   5.102  11.917  1.1585 -0.1558  3.3106
  124MOL0     H16348   1.074   5.305  12.065  2.1655  0.2818  1.6501
  124MOL0     H16349   1.036   5.357  11.897  1.0114 -1.2106 -1.2153
  124MOL0     H16350   1.904   4.500  11.923  1.1355 -0.9880  0.2124
  124MOL0     H16351   2.035   4.332  11.815  0.2456 -1.2267 -1.9330
  124MOL0     H16352   2.303   4.170  11.520  1.2211 -2.7048 -1.7769
  124MOL0     H16353   2.464   4.029  11.401 -1.1723 -0.7961  2.2727
  124MOL0     H16354   3.390   5.029   9.800 -0.1380 -0.1706 -1.2501
  124MOL0     H16355   3.527   5.037   9.596  1.4177 -1.9711 -1.4185
  124MOL0     H16356   4.118   4.842   9.418 -4.0483 -0.8547  1.6321
  124MOL0     H16357   4.221   4.913   9.205 -2.3627 -1.4129 -2.3678
  124MOL0     H16358   4.085   4.972   8.856  1.5670 -1.0535 -1.4295
  124MOL0     H16359   4.171   4.879   8.984 -0.1007  0.2119  0.7268
  124MOL0     H16360   4.344   4.956   8.825  0.1671 -0.1593  1.1961
  124MOL0     H16361   4.286   5.123   8.837  0.9195  0.8136 -0.0803
  124MOL0     H16362   4.499   5.033   8.974 -0.6670 -0.0330  0.9569
  124MOL0     H16363   4.377   4.987   9.089 -0.5625  1.4864  1.5308
  124MOL0     H16364   4.369   5.278   8.993  0.2070 -0.9826 -3.2134
  124MOL0     H16365   4.325   5.190   9.143  1.5776 -0.3850  0.4016
  124MOL0     H16366   4.745   5.279   9.163  0.5267 -0.6974  3.3348
  124MOL0     H16367   3.898   5.179   9.124  1.0785 -0.4922 -1.4562
  124MOL0     H16368   3.791   5.115   9.338 -1.0314 -0.7341 -0.8980
  125MOL0     O16369   5.751   0.601   9.634 -0.0693 -0.6925 -0.0767
  125MOL0     C16370   5.637   0.626   9.655 -0.8235 -0.2675 -0.1375
  125MOL0     O16371   5.553   0.535   9.705  0.8799  0.9867 -0.1687
  125MOL0     C16372   5.596   0.411   9.745  0.0168 -0.4125  0.4126
  125MOL0     C16373   5.660   0.401   9.866  0.2427 -0.7265 -0.1949
  125MOL0     C16374   5.707   0.274   9.897  0.4539  0.7715 -1.2294
  125MOL0     C16375   5.677   0.158   9.825  0.5875 -0.5739 -0.1396
  125MOL0     O16376   5.704   0.034   9.877 -0.4882  0.4629 -0.3574
  125MOL0     C16377   5.842   0.019   9.914  0.2919 -0.4710  0.3257
  125MOL0     C16378   5.868  -0.133   9.924 -0.0633  0.6540 -0.1903
  125MOL0     C16379   5.777  -0.220  10.013  0.2734  0.0885  0.1543
  125MOL0     C16380   5.798  -0.207  10.163 -0.2049 -0.6552  0.5704
  125MOL0     C16381   5.763  -0.330  10.253 -0.6796 -0.3081  0.6225
  125MOL0     C16382   5.814  -0.301  10.398 -0.5313 -0.0056  1.0564
  125MOL0     C16383   5.808  -0.428  10.477  0.4145  0.0185 -0.7406
  125MOL0     C16384   5.923  -0.525  10.464  0.4426  0.5478  0.3286
  125MOL0     N16385   5.882  -0.650  10.536 -0.3064  0.0173  0.3383
  125MOL0     C16386   5.818  -0.750  10.470  0.2976 -0.5009  0.7774
  125MOL0     C16387   5.752  -0.822  10.557  0.7681 -0.4659 -0.2335
  125MOL0     C16388   5.675  -0.947  10.519 -0.0430  0.0424  0.0358
  125MOL0     C16389   5.733  -1.087  10.537  0.2435 -0.0357  0.9421
  125MOL0     C16390   5.640  -1.205  10.579  0.3793  0.0099 -0.2360
  125MOL0     C16391   5.534  -1.207  10.468 -0.1623  0.5976  0.5779
  125MOL0     O16392   5.460  -1.336  10.466 -0.2702  0.8795  0.1307
  125MOL0     C16393   5.340  -1.351  10.393 -0.2771 -0.2088 -0.1673
  125MOL0     C16394   5.292  -1.255  10.297  0.3702 -0.9089 -1.4863
  125MOL0     C16395   5.181  -1.285  10.218 -0.6137  0.1797 -0.9781
  125MOL0     C16396   5.113  -1.400  10.233  0.4020  0.5132  0.0426
  125MOL0     C16397   4.999  -1.422  10.143 -0.0358  0.5235 -0.7057
  125MOL0     O16398   5.006  -1.364  10.011 -0.9962  0.7131  0.1368
  125MOL0     C16399   4.907  -1.403   9.915 -1.1713 -0.6959 -0.7603
  125MOL0     C16400   4.878  -1.536   9.885 -0.5380 -0.0457 -0.5185
  125MOL0     C16401   4.787  -1.553   9.780  0.0425  0.4912 -0.3481
  125MOL0     C16402   4.730  -1.453   9.701 -1.1896 -0.2537 -0.7614
  125MOL0     O16403   4.662  -1.480   9.593 -0.0844  0.0073 -0.4307
  125MOL0     C16404   4.520  -1.481   9.623  0.1291 -0.1051  0.1827
  125MOL0     C16405   4.457  -1.340   9.640 -0.0937 -0.1475  0.5201
  125MOL0     C16406   4.461  -1.264   9.501  1.3503 -0.6299 -1.2933
  125MOL0     C16407   4.351  -1.150   9.502 -0.4875  0.2611 -0.0358
  125MOL0     C16408   4.386  -1.041   9.408  0.0341 -0.1651  0.8580
  125MOL0     C16409   4.282  -0.936   9.395  0.4722  0.6104  0.3275
  125MOL0     C16410   4.324  -0.800   9.346 -1.0359  0.0814 -0.1481
  125MOL0     C16411   4.216  -0.712   9.294  0.0902  0.2543  0.2219
  125MOL0    Cl16412   4.068  -0.713   9.372  0.1417 -0.7065  0.1871
  125MOL0     C16413   4.783  -1.324   9.728 -0.5238 -0.5738  0.6992
  125MOL0     C16414   4.858  -1.298   9.840  0.1894 -1.1395  1.1937
  125MOL0     O16415   4.915  -1.508  10.180  0.2424 -0.1523  0.8035
  125MOL0     C16416   5.156  -1.501  10.336 -0.1997 -0.1468 -0.0851
  125MOL0     C16417   5.268  -1.473  10.412  0.1742 -0.5741 -0.3459
  125MOL0     N16418   5.779  -0.772  10.683  0.0146 -0.2268  0.0526
  125MOL0     N16419   5.852  -0.667  10.671  0.5833 -0.4298 -0.2024
  125MOL0     C16420   5.608   0.175   9.703  0.2866 -0.1191 -0.5935
  125MOL0     C16421   5.567   0.299   9.662 -0.7727 -0.3480 -0.6728
  125MOL0     C16422   5.590   0.767   9.632 -0.1105 -0.3991 -0.3185
  125MOL0     C16423   5.670   0.870   9.576 -0.6613  0.4708  0.1628
  125MOL0     C16424   5.624   1.000   9.543 -0.7850  1.0455  0.6377
  125MOL0     C16425   5.490   1.031   9.566  0.6805  0.2445 -1.0406
  125MOL0     O16426   5.434   1.160   9.566  0.2632  0.3368 -0.5131
  125MOL0     C16427   5.515   1.266   9.500 -0.8871  0.3795  0.1760
  125MOL0     C16428   5.458   1.401   9.471  0.1449  0.5166 -0.7551
  125MOL0     C16429   5.549   1.487   9.386 -0.5117 -0.0503  0.2147
  125MOL0     C16430   5.482   1.622   9.342  0.8774 -0.1100 -0.0988
  125MOL0     C16431   5.416   1.603   9.215  0.9089 -0.2973  0.0279
  125MOL0     C16432   5.371   1.594   9.108  0.3203  0.0564 -0.4438
  125MOL0     C16433   5.398   0.926   9.612 -0.1722  1.5165 -0.7647
  125MOL0     C16434   5.454   0.799   9.655  0.1613  0.0899  0.8201
  125MOL0     H16435   5.659   0.487   9.933 -0.6418  1.1408 -2.4809
  125MOL0     H16436   5.743   0.254   9.997  0.5637 -0.0648 -1.4271
  125MOL0     H16437   5.859   0.065  10.012 -1.5542  0.1822  0.3640
  125MOL0     H16438   5.911   0.069   9.845  1.7230 -0.5195  1.6672
  125MOL0     H16439   5.968  -0.168   9.952 -0.1671 -1.1292 -1.8063
  125MOL0     H16440   5.855  -0.171   9.822  3.8072 -0.5118 -0.4014
  125MOL0     H16441   5.788  -0.325   9.986 -3.6669 -0.2565 -0.6145
  125MOL0     H16442   5.672  -0.193  10.000  0.0797 -1.5831 -2.4717
  125MOL0     H16443   5.904  -0.181  10.158 -0.4331  0.4404 -5.3414
  125MOL0     H16444   5.746  -0.121  10.207  0.0726  0.1941 -0.7058
  125MOL0     H16445   5.823  -0.414  10.217 -0.0665 -0.0262  0.9734
  125MOL0     H16446   5.655  -0.348  10.261 -1.5483  3.5435 -0.3159
  125MOL0     H16447   5.755  -0.216  10.436 -2.5133 -1.4049  1.2544
  125MOL0     H16448   5.917  -0.263  10.399  0.2003 -1.4161 -3.0128
  125MOL0     H16449   5.807  -0.395  10.582 -1.7265  0.9176 -0.9942
  125MOL0     H16450   5.709  -0.473  10.468  1.3295 -2.0510 -0.9716
  125MOL0     H16451   6.021  -0.481  10.488  0.9171 -0.4153  0.1677
  125MOL0     H16452   5.925  -0.544  10.357  0.5857 -1.2540  0.6296
  125MOL0     H16453   5.819  -0.770  10.364 -1.8999 -0.6584  0.7370
  125MOL0     H16454   5.628  -0.939  10.421  0.1063  0.2254 -0.0212
  125MOL0     H16455   5.594  -0.953  10.592 -1.2251  2.0923 -1.0032
  125MOL0     H16456   5.807  -1.082  10.617  2.3097  1.6098 -0.9627
  125MOL0     H16457   5.785  -1.122  10.447 -3.3918  1.7365 -2.1031
  125MOL0     H16458   5.696  -1.299  10.587  2.0629  1.0799  1.0462
  125MOL0     H16459   5.599  -1.213  10.679 -0.0116 -0.7266 -0.4458
  125MOL0     H16460   5.578  -1.197  10.369  0.7741  0.3419  0.9496
  125MOL0     H16461   5.449  -1.141  10.489  2.2498  3.9081  0.7818
  125MOL0     H16462   5.340  -1.159  10.282  2.8466 -2.0419 -1.3424
  125MOL0     H16463   5.159  -1.209  10.143  1.8299  4.1028  1.9376
  125MOL0     H16464   4.921  -1.610   9.951  0.9985 -0.2981 -1.7366
  125MOL0     H16465   4.758  -1.654   9.753 -3.3880 -0.2362  4.6787
  125MOL0     H16466   4.495  -1.539   9.712  3.5786  0.3240  1.5986
  125MOL0     H16467   4.471  -1.515   9.531  1.7512  2.0605 -1.6299
  125MOL0     H16468   4.520  -1.274   9.700  2.3465  2.8520 -4.6287
  125MOL0     H16469   4.352  -1.359   9.661  0.4930 -3.0890  1.2621
  125MOL0     H16470   4.417  -1.323   9.420 -1.5446 -1.7969  0.9522
  125MOL0     H16471   4.560  -1.226   9.471  1.7549  0.6896  1.4194
  125MOL0     H16472   4.256  -1.203   9.491 -0.9574  0.9360  0.5829
  125MOL0     H16473   4.353  -1.105   9.602  1.5256 -0.9595  0.5309
  125MOL0     H16474   4.411  -1.079   9.308  0.4868  1.5127  0.2933
  125MOL0     H16475   4.477  -0.995   9.446  0.2943  0.9391 -0.9552
  125MOL0     H16476   4.228  -0.934   9.491  0.9140 -2.2419  0.7432
  125MOL0     H16477   4.206  -0.973   9.325  2.6501  1.1988 -2.5140
  125MOL0     H16478   4.369  -0.739   9.425  2.5377 -0.5677 -1.4999
  125MOL0     H16479   4.408  -0.817   9.278 -1.4614  1.4110 -1.0432
  125MOL0     H16480   4.202  -0.747   9.191  1.3045 -1.8671  0.7212
  125MOL0     H16481   4.250  -0.608   9.284  0.1365  0.1394 -0.9957
  125MOL0     H16482   4.759  -1.247   9.656 -0.1603 -1.4748 -0.4223
  125MOL0     H16483   4.888  -1.198   9.868 -0.7309 -0.6391  0.4710
  125MOL0     H16484   5.109  -1.598  10.343  1.6955 -1.0120  2.2003
  125MOL0     H16485   5.300  -1.540  10.491 -0.3743  0.5030  0.8388
  125MOL0     H16486   5.590   0.084   9.647 -0.1297 -1.6973  1.9324
  125MOL0     H16487   5.529   0.320   9.562  1.1048  0.4162 -1.2742
  125MOL0     H16488   5.777   0.851   9.573 -0.6526  0.3210  1.1128
  125MOL0     H16489   5.692   1.077   9.509 -0.0702 -0.4894 -1.7047
  125MOL0     H16490   5.563   1.223   9.411 -0.5768 -0.9466  0.9451
  125MOL0     H16491   5.604   1.275   9.564  2.2459 -2.4091 -3.3144
  125MOL0     H16492   5.368   1.380   9.412 -0.9974 -1.7326  1.5969
  125MOL0     H16493   5.440   1.444   9.570 -1.7235 -1.2647 -0.2497
  125MOL0     H16494   5.584   1.432   9.298  2.7247  1.5740  0.3418
  125MOL0     H16495   5.636   1.517   9.446 -1.0898  2.5330 -0.1424
  125MOL0     H16496   5.409   1.646   9.420  0.3518 -1.2935 -0.1983
  125MOL0     H16497   5.551   1.706   9.331 -2.3645  2.6767 -0.7214
  125MOL0     H16498   5.318   1.621   9.019 -2.9982 -0.8634  1.0843
  125MOL0     H16499   5.291   0.937   9.627 -0.5264 -0.3807 -1.6569
  125MOL0     H16500   5.392   0.717   9.691 -0.0185 -0.8167 -1.3929
  126MOL0     O16501   7.731   3.727   8.707 -0.0937  0.0394 -0.2690
  126MOL0     C16502   7.831   3.691   8.772 -0.5244 -0.1953  0.4194
  126MOL0     O16503   7.830   3.655   8.911  0.1766 -0.5027  0.4011
  126MOL0     C16504   7.723   3.682   8.990  0.4086 -0.1968  0.5765
  126MOL0     C16505   7.744   3.749   9.106  0.5487  1.3419  0.6085
  126MOL0     C16506   7.640   3.791   9.198  0.4884  0.1061  0.7357
  126MOL0     C16507   7.504   3.769   9.168 -0.7120 -0.4119  0.6752
  126MOL0     O16508   7.399   3.797   9.245 -0.6621  0.1801 -0.6506
  126MOL0     C16509   7.375   3.933   9.271 -0.6628  0.6435  0.1176
  126MOL0     C16510   7.328   3.937   9.413  0.7062  0.2895  0.0935
  126MOL0     C16511   7.431   3.882   9.520  0.4253  0.0384  0.8545
  126MOL0     C16512   7.461   3.974   9.648  0.0765 -0.0047 -0.4048
  126MOL0     C16513   7.534   4.088   9.592  0.2584  0.2049 -0.8217
  126MOL0     C16514   7.650   4.163   9.669  0.9468  0.6805  0.7727
  126MOL0     C16515   7.654   4.309   9.604 -0.6183  0.2416 -0.8400
  126MOL0     C16516   7.545   4.396   9.664  0.5447 -0.7046 -0.5814
  126MOL0     N16517   7.586   4.535   9.651 -0.1307 -0.3943  0.1062
  126MOL0     C16518   7.660   4.584   9.538  0.5489  0.0829 -0.3694
  126MOL0     C16519   7.726   4.699   9.580  1.0921  0.1031  0.1645
  126MOL0     C16520   7.815   4.779   9.494  0.0126 -0.0373 -0.4372
  126MOL0     C16521   7.739   4.887   9.405 -0.0774  0.1085  0.1327
  126MOL0     C16522   7.676   5.010   9.466 -0.0149 -0.4778 -0.4593
  126MOL0     C16523   7.786   5.109   9.490 -0.1262 -0.2233  0.7050
  126MOL0     O16524   7.749   5.233   9.559  0.7161 -0.2187 -0.4602
  126MOL0     C16525   7.786   5.235   9.697  1.3328 -0.6267  1.3280
  126MOL0     C16526   7.790   5.364   9.759 -0.5319  0.0067 -1.4664
  126MOL0     C16527   7.811   5.376   9.900  0.6544  0.7963  0.3040
  126MOL0     C16528   7.860   5.266   9.970  0.8170  0.2425  0.1120
  126MOL0     C16529   7.886   5.275  10.113  0.1505 -0.3178 -0.1843
  126MOL0     O16530   7.880   5.391  10.177 -0.1981  0.0539 -0.3276
  126MOL0     C16531   7.967   5.413  10.286  1.0433  0.2777  1.1320
  126MOL0     C16532   7.902   5.441  10.405  0.4130 -1.4407  0.4465
  126MOL0     C16533   7.973   5.458  10.529  0.2475  0.2904 -0.4142
  126MOL0     C16534   8.116   5.453  10.524  0.3806  0.0934  0.1057
  126MOL0     O16535   8.194   5.475  10.634  0.5840  0.1089  0.4385
  126MOL0     C16536   8.146   5.452  10.761 -0.0013  0.6370 -0.6947
  126MOL0     C16537   8.253   5.469  10.875  0.0896 -0.2199  0.7340
  126MOL0     C16538   8.316   5.606  10.876 -0.5972 -0.6493 -1.0672
  126MOL0     C16539   8.222   5.723  10.908  0.5082 -0.2012 -0.6169
  126MOL0     C16540   8.241   5.763  11.050  0.3415  0.1151 -0.9482
  126MOL0     C16541   8.362   5.857  11.081  0.1308  0.7243 -0.1367
  126MOL0     C16542   8.399   5.857  11.232  0.3168  0.4941  0.7832
  126MOL0     C16543   8.516   5.933  11.273 -0.0583  0.2325  0.3172
  126MOL0    Cl16544   8.605   5.843  11.402 -0.1389  0.4207 -0.2039
  126MOL0     C16545   8.172   5.426  10.396 -0.0983 -0.3077 -0.6828
  126MOL0     C16546   8.105   5.408  10.274 -0.7744 -0.6142 -0.4208
  126MOL0     O16547   7.939   5.178  10.162 -0.3167  1.1848  0.8604
  126MOL0     C16548   7.868   5.140   9.908 -1.0490  0.7025 -0.6576
  126MOL0     C16549   7.825   5.120   9.773 -0.1204 -0.8424  0.3842
  126MOL0     N16550   7.684   4.727   9.708  0.1792  0.4919 -0.5480
  126MOL0     N16551   7.611   4.631   9.749 -0.6194  0.5936 -0.0339
  126MOL0     C16552   7.489   3.682   9.056  0.7960 -1.0617 -0.5442
  126MOL0     C16553   7.592   3.645   8.963  0.1933  0.0819  1.5090
  126MOL0     C16554   7.964   3.686   8.715 -0.0752  0.3220 -0.9468
  126MOL0     C16555   8.073   3.650   8.794 -1.0525 -0.6881 -0.4868
  126MOL0     C16556   8.198   3.632   8.745  0.0818 -0.1074 -0.8115
  126MOL0     C16557   8.218   3.640   8.608  0.8812 -0.5318 -0.2282
  126MOL0     O16558   8.348   3.613   8.576  0.1657  0.5502  0.1487
  126MOL0     C16559   8.366   3.586   8.434 -0.2004 -1.1195  0.2883
  126MOL0     C16560   8.419   3.442   8.421  0.0547 -0.1583 -0.0589
  126MOL0     C16561   8.467   3.417   8.278  0.5874  0.3709  0.8639
  126MOL0     C16562   8.448   3.267   8.247 -0.4516  0.0208 -0.7912
  126MOL0     C16563   8.494   3.230   8.122 -0.8686  0.2346  0.1378
  126MOL0     C16564   8.521   3.187   8.008 -1.0605 -0.2575 -0.3113
  126MOL0     C16565   8.120   3.698   8.531  0.1806  0.0014  0.6703
  126MOL0     C16566   7.989   3.711   8.583  0.3074  0.2807  0.1635
  126MOL0     H16567   7.845   3.782   9.131  1.2372  1.0265 -1.5292
  126MOL0     H16568   7.673   3.856   9.279 -0.9306  0.6300  0.9364
  126MOL0     H16569   7.298   3.962   9.199 -1.7362  2.0021  1.7414
  126MOL0     H16570   7.467   3.990   9.253 -0.1276 -0.9188 -2.6310
  126MOL0     H16571   7.241   3.871   9.406  1.9250 -1.2545 -1.2510
  126MOL0     H16572   7.305   4.041   9.439 -2.7296 -0.4329  0.4305
  126MOL0     H16573   7.523   3.857   9.467 -0.8288 -1.7872 -0.5791
  126MOL0     H16574   7.387   3.792   9.563 -1.3124  0.3462 -0.1696
  126MOL0     H16575   7.370   4.004   9.699  0.7207 -0.6088  1.1588
  126MOL0     H16576   7.522   3.914   9.716 -1.7775 -2.7332 -0.9742
  126MOL0     H16577   7.468   4.161   9.543 -0.8064  1.3139  2.0764
  126MOL0     H16578   7.600   4.050   9.513  3.1268  0.2822  1.3688
  126MOL0     H16579   7.747   4.113   9.657  1.4903  1.5149  1.6097
  126MOL0     H16580   7.627   4.175   9.775 -1.3291 -1.2212  0.5797
  126MOL0     H16581   7.752   4.356   9.617 -0.1285 -0.6996 -1.0450
  126MOL0     H16582   7.652   4.306   9.495  0.3152 -1.4554 -0.8319
  126MOL0     H16583   7.531   4.386   9.772  1.7325  5.2353  0.4810
  126MOL0     H16584   7.448   4.391   9.613 -0.2217  2.4510  0.3204
  126MOL0     H16585   7.662   4.545   9.437 -0.2998  1.5277 -0.9762
  126MOL0     H16586   7.856   4.709   9.421 -3.6975 -0.8010 -2.0547
  126MOL0     H16587   7.888   4.833   9.555 -1.3944  0.3803  0.9418
  126MOL0     H16588   7.665   4.828   9.350 -0.5368 -2.5030  3.2281
  126MOL0     H16589   7.790   4.915   9.312 -0.0749  1.5726  0.5592
  126MOL0     H16590   7.611   5.058   9.392  0.0494 -0.5267 -0.5482
  126MOL0     H16591   7.614   4.984   9.552  2.2698 -2.7820  0.5864
  126MOL0     H16592   7.824   5.130   9.389  2.8528 -0.8860  1.6168
  126MOL0     H16593   7.872   5.073   9.546 -0.1396  1.1187  1.6434
  126MOL0     H16594   7.756   5.457   9.715 -1.5883  0.0353 -0.6587
  126MOL0     H16595   7.799   5.473   9.947  1.4027  2.1849 -2.1509
  126MOL0     H16596   7.794   5.432  10.406  0.2645  0.1399  1.1627
  126MOL0     H16597   7.905   5.476  10.612 -2.3635  1.2475 -2.5865
  126MOL0     H16598   8.109   5.348  10.763 -2.7167  1.5284  1.6478
  126MOL0     H16599   8.062   5.518  10.784 -1.3937 -1.1948 -0.2241
  126MOL0     H16600   8.328   5.391  10.860 -0.0074 -0.0233 -1.0297
  126MOL0     H16601   8.208   5.469  10.975  1.0902  5.9709  1.6295
  126MOL0     H16602   8.345   5.621  10.772  1.9838 -1.2418 -0.5115
  126MOL0     H16603   8.403   5.608  10.942 -0.0796  4.2651 -1.5436
  126MOL0     H16604   8.246   5.803  10.838  4.7641 -0.8466 -0.1266
  126MOL0     H16605   8.119   5.686  10.905 -1.3795  3.9685  2.5346
  126MOL0     H16606   8.229   5.674  11.113 -3.0653 -0.0185 -1.6182
  126MOL0     H16607   8.149   5.818  11.071 -0.1574 -0.6025 -1.2187
  126MOL0     H16608   8.333   5.958  11.051 -2.5729  0.2363  0.5975
  126MOL0     H16609   8.449   5.819  11.025  1.2997  2.7546  0.1940
  126MOL0     H16610   8.308   5.886  11.286 -1.3259  0.0023 -1.5796
  126MOL0     H16611   8.418   5.753  11.263  2.8466  0.7848  0.4213
  126MOL0     H16612   8.471   6.025  11.311 -1.8590 -0.6747  0.4681
  126MOL0     H16613   8.583   5.950  11.188  0.8255  0.9811  1.1334
  126MOL0     H16614   8.279   5.410  10.397 -0.3395 -2.1754 -1.3811
  126MOL0     H16615   8.156   5.385  10.181  1.7340  1.2639  0.3721
  126MOL0     H16616   7.906   5.060   9.971  1.5550  1.5187 -1.0777
  126MOL0     H16617   7.823   5.020   9.730 -0.1167 -1.7123  2.3098
  126MOL0     H16618   7.387   3.651   9.034  1.0462 -0.5552 -2.6312
  126MOL0     H16619   7.554   3.580   8.884 -0.4519  1.5847  0.5520
  126MOL0     H16620   8.080   3.638   8.902  1.3489  1.3359 -0.3252
  126MOL0     H16621   8.276   3.588   8.806  0.0369 -1.4603 -1.6901
  126MOL0     H16622   8.426   3.667   8.390  1.4402 -2.0402  0.7268
  126MOL0     H16623   8.267   3.584   8.390 -0.0160  3.0888 -0.7782
  126MOL0     H16624   8.499   3.436   8.496  0.0085 -0.2458 -0.0151
  126MOL0     H16625   8.345   3.373   8.463 -0.2645  0.9177  1.2064
  126MOL0     H16626   8.573   3.444   8.271  0.8599 -0.6326  0.9727
  126MOL0     H16627   8.410   3.483   8.212 -0.7186 -0.1240  1.4579
  126MOL0     H16628   8.500   3.202   8.319  1.0137  2.2286  0.2795
  126MOL0     H16629   8.343   3.238   8.243  0.1338 -2.7347  0.8131
  126MOL0     H16630   8.551   3.142   7.916  1.5534 -0.7811  0.7353
  126MOL0     H16631   8.129   3.729   8.428  2.1281  2.1033  1.3842
  126MOL0     H16632   7.909   3.744   8.517  2.0496  2.5489 -0.9746
  127MOL0     O16633   4.899  10.336   3.515 -0.3394 -0.1560  0.0164
  127MOL0     C16634   4.928  10.246   3.429 -0.5687 -0.4803 -0.0613
  127MOL0     O16635   4.839  10.146   3.386  0.2861 -0.7693 -0.4507
  127MOL0     C16636   4.704  10.159   3.426 -0.4147  0.4023  0.1965
  127MOL0     C16637   4.660  10.185   3.554 -0.7894  0.1919  0.0908
  127MOL0     C16638   4.529  10.196   3.580  0.2122 -0.4370 -1.2069
  127MOL0     C16639   4.428  10.176   3.480 -0.9984 -0.7066 -0.5462
  127MOL0     O16640   4.299  10.182   3.509  0.7663 -0.0876 -0.3725
  127MOL0     C16641   4.237  10.056   3.506 -0.0620 -1.7447 -0.9859
  127MOL0     C16642   4.088  10.056   3.466 -0.3368 -1.4831 -0.5128
  127MOL0     C16643   4.003  10.119   3.578 -0.1119 -0.0648  0.3336
  127MOL0     C16644   3.864  10.165   3.530 -0.3330  0.8242  0.3922
  127MOL0     C16645   3.790  10.268   3.608 -1.2766 -0.2539 -1.3714
  127MOL0     C16646   3.755  10.214   3.747  0.1779  0.2464 -1.4775
  127MOL0     C16647   3.643  10.304   3.800 -0.2198 -0.4637 -0.7804
  127MOL0     C16648   3.607  10.255   3.939 -0.5209 -0.9265 -0.6366
  127MOL0     N16649   3.626  10.356   4.044 -0.7679 -0.2571  0.3568
  127MOL0     C16650   3.750  10.414   4.069 -0.2974  1.1160 -1.0239
  127MOL0     C16651   3.723  10.484   4.185  0.5183 -0.0440 -0.2865
  127MOL0     C16652   3.805  10.588   4.262 -0.9383 -0.2373  0.8843
  127MOL0     C16653   3.785  10.725   4.193  0.5874 -0.1206 -0.2546
  127MOL0     C16654   3.868  10.832   4.255 -1.2717  0.5159 -0.2225
  127MOL0     C16655   3.833  10.969   4.194 -0.5019 -0.1406  0.3425
  127MOL0     O16656   3.892  10.979   4.062 -0.6973 -0.2096  0.2444
  127MOL0     C16657   3.814  10.991   3.956  0.2514  0.0824  0.0800
  127MOL0     C16658   3.873  10.939   3.839 -0.2713 -0.2758 -0.2936
  127MOL0     C16659   3.803  10.950   3.716  0.2999 -0.0664 -0.7897
  127MOL0     C16660   3.662  10.974   3.715  0.0062 -0.7858 -0.9879
  127MOL0     C16661   3.580  10.961   3.594  1.0149 -0.3437  1.6669
  127MOL0     O16662   3.641  10.907   3.483 -0.6526  0.1484  0.5725
  127MOL0     C16663   3.604  10.940   3.347  0.8676 -0.6759 -0.0784
  127MOL0     C16664   3.679  10.875   3.244  0.6803 -0.2464 -0.3133
  127MOL0     C16665   3.671  10.918   3.109 -0.6158  0.7220 -0.0607
  127MOL0     C16666   3.585  11.022   3.078  0.4049 -0.2432  0.1497
  127MOL0     O16667   3.581  11.093   2.957 -0.7033  0.5591 -0.0765
  127MOL0     C16668   3.457  11.105   2.890  0.0842  0.0910  0.7630
  127MOL0     C16669   3.468  11.132   2.740 -0.2395  0.4707 -0.3426
  127MOL0     C16670   3.353  11.092   2.653  0.3762  0.1737  0.1753
  127MOL0     C16671   3.382  11.044   2.518 -0.8593 -0.0077 -0.4280
  127MOL0     C16672   3.262  10.980   2.448 -0.2852  0.4862  0.6893
  127MOL0     C16673   3.295  10.852   2.367  0.0699 -0.3420 -0.5582
  127MOL0     C16674   3.171  10.829   2.286 -0.4544  0.2280  0.6901
  127MOL0     C16675   3.168  10.696   2.219  0.0186  0.3603 -0.0311
  127MOL0    Cl16676   3.167  10.728   2.037  0.1818  0.2519 -0.1221
  127MOL0     C16677   3.517  11.090   3.178 -0.4193  0.2653 -0.7726
  127MOL0     C16678   3.533  11.063   3.307  0.9846  0.2583 -0.7344
  127MOL0     O16679   3.463  11.001   3.596  0.5485  0.4205  0.5074
  127MOL0     C16680   3.601  11.021   3.834 -1.2495 -0.1257  0.7208
  127MOL0     C16681   3.673  11.028   3.951  0.1551 -0.4190 -0.2622
  127MOL0     N16682   3.602  10.439   4.233  0.3635 -0.0845  0.2449
  127MOL0     N16683   3.539  10.371   4.141 -0.1290 -0.1990  0.5400
  127MOL0     C16684   4.476  10.144   3.350  0.6455  0.1229  0.9784
  127MOL0     C16685   4.612  10.134   3.326  0.4232  0.4789 -0.0438
  127MOL0     C16686   5.051  10.254   3.355 -0.1469 -0.7378  0.7411
  127MOL0     C16687   5.138  10.362   3.388 -0.6443  0.8179  0.6602
  127MOL0     C16688   5.262  10.381   3.321  0.1783  0.1349 -0.1285
  127MOL0     C16689   5.296  10.292   3.218  0.1392 -0.2527 -0.3610
  127MOL0     O16690   5.420  10.312   3.168 -0.3708 -0.2500  0.6722
  127MOL0     C16691   5.436  10.257   3.036  0.1595  0.4447  0.3607
  127MOL0     C16692   5.543  10.337   2.969 -0.2276  0.2800  0.8792
  127MOL0     C16693   5.476  10.465   2.902 -0.4760  0.6148 -0.2561
  127MOL0     C16694   5.586  10.563   2.843 -0.1310  0.2343  1.1313
  127MOL0     C16695   5.520  10.652   2.741 -0.1385 -0.0347  0.6563
  127MOL0     C16696   5.468  10.706   2.653  0.0081 -0.6978 -0.1148
  127MOL0     C16697   5.208  10.191   3.180  0.4891  0.3307  0.4316
  127MOL0     C16698   5.083  10.174   3.243  0.3340 -0.7830 -0.7926
  127MOL0     H16699   4.738  10.202   3.627 -0.3782 -0.0845 -0.2812
  127MOL0     H16700   4.498  10.215   3.683 -3.7565 -0.6668 -2.1762
  127MOL0     H16701   4.246  10.017   3.608 -1.9220  0.7500  0.2365
  127MOL0     H16702   4.285   9.990   3.433  0.9543 -1.2974 -0.7475
  127MOL0     H16703   4.053   9.954   3.447 -0.1932 -1.7985  0.8688
  127MOL0     H16704   4.076  10.121   3.378  3.1812  1.0610  0.6592
  127MOL0     H16705   4.058  10.200   3.627 -2.1639  0.4572  1.9142
  127MOL0     H16706   3.994  10.043   3.656  0.0892  1.3276  1.7594
  127MOL0     H16707   3.895  10.222   3.442 -1.4678  2.4403  0.9781
  127MOL0     H16708   3.795  10.083   3.508  1.7846 -0.6217 -1.2089
  127MOL0     H16709   3.700  10.296   3.553 -0.1920  1.0616 -2.5786
  127MOL0     H16710   3.858  10.352   3.624 -0.2483 -1.6241  2.7460
  127MOL0     H16711   3.840  10.194   3.812 -1.0936 -2.4007 -0.4663
  127MOL0     H16712   3.710  10.115   3.735  0.1174 -0.1167  1.1753
  127MOL0     H16713   3.687  10.404   3.810 -1.7841  0.1328  0.6559
  127MOL0     H16714   3.557  10.306   3.733 -2.8678 -0.4007  2.3663
  127MOL0     H16715   3.668  10.169   3.968  0.9532  1.0506  2.7224
  127MOL0     H16716   3.501  10.228   3.937 -0.3835 -1.5185 -0.2232
  127MOL0     H16717   3.842  10.411   4.011  1.8209 -0.6469  2.1253
  127MOL0     H16718   3.907  10.550   4.249 -2.5174 -3.7647 -5.3097
  127MOL0     H16719   3.762  10.593   4.362 -1.3752  1.2522  0.6401
  127MOL0     H16720   3.684  10.761   4.212  0.7952 -0.6063  2.0381
  127MOL0     H16721   3.804  10.724   4.085  1.4983  2.7111 -0.1899
  127MOL0     H16722   3.846  10.829   4.362 -1.2596 -2.1046 -0.2466
  127MOL0     H16723   3.976  10.816   4.248 -1.1301  1.5566 -0.7086
  127MOL0     H16724   3.863  11.046   4.265 -1.9850 -1.4884  2.5689
  127MOL0     H16725   3.725  10.985   4.181  0.0386  4.8119  0.2788
  127MOL0     H16726   3.979  10.920   3.825  1.3716  5.8681  0.9696
  127MOL0     H16727   3.846  10.917   3.622  0.4151 -1.2594 -0.3325
  127MOL0     H16728   3.736  10.790   3.280 -0.4495 -0.5468  0.8216
  127MOL0     H16729   3.726  10.864   3.032 -3.1864 -1.9718 -0.2184
  127MOL0     H16730   3.408  11.190   2.938 -1.1962 -0.9894  1.4464
  127MOL0     H16731   3.388  11.020   2.899  1.6111 -1.3930 -0.9652
  127MOL0     H16732   3.562  11.091   2.701  0.6201 -0.0530  2.0967
  127MOL0     H16733   3.487  11.240   2.737 -1.5171  0.7947  1.3381
  127MOL0     H16734   3.288  11.180   2.646 -1.7586 -1.3290 -0.1980
  127MOL0     H16735   3.298  11.012   2.703  1.1670  0.5810  1.7223
  127MOL0     H16736   3.431  11.123   2.459 -0.5222 -0.2870 -0.5210
  127MOL0     H16737   3.458  10.968   2.533  0.3427  1.2560  0.1452
  127MOL0     H16738   3.231  11.060   2.380 -0.5648 -0.1547  0.0560
  127MOL0     H16739   3.187  10.948   2.521 -0.2911 -2.2445 -0.4021
  127MOL0     H16740   3.325  10.774   2.437 -0.7620  1.5291  2.0388
  127MOL0     H16741   3.375  10.878   2.296  0.0669 -1.6124 -1.0503
  127MOL0     H16742   3.083  10.842   2.350  1.7682  0.4556  3.9596
  127MOL0     H16743   3.160  10.902   2.206  2.7770  0.7241  0.5628
  127MOL0     H16744   3.069  10.656   2.243 -1.2247  0.9293 -3.5928
  127MOL0     H16745   3.254  10.630   2.232  2.4251  3.0916 -1.0295
  127MOL0     H16746   3.467  11.182   3.152 -1.3600  0.4376  1.3930
  127MOL0     H16747   3.504  11.140   3.377 -1.2082 -0.6527 -0.5644
  127MOL0     H16748   3.494  11.033   3.851 -1.2628  1.0001 -0.0210
  127MOL0     H16749   3.617  11.084   4.026  0.0243  2.1147 -2.0979
  127MOL0     H16750   4.409  10.117   3.269  1.3586  3.7947 -1.0530
  127MOL0     H16751   4.646  10.118   3.224  0.6096  2.2785 -0.2995
  127MOL0     H16752   5.124  10.425   3.476  2.8544 -0.5852  2.4198
  127MOL0     H16753   5.344  10.445   3.351  3.3484 -3.4566 -0.2723
  127MOL0     H16754   5.344  10.275   2.979  1.8574  1.6044 -2.1780
  127MOL0     H16755   5.458  10.150   3.035  0.2713  0.4672  0.3440
  127MOL0     H16756   5.609  10.373   3.049 -2.1137  2.9466  1.3928
  127MOL0     H16757   5.589  10.272   2.894 -0.8328 -0.8179  1.4410
  127MOL0     H16758   5.418  10.520   2.977 -1.6231  1.3122 -1.6109
  127MOL0     H16759   5.415  10.425   2.820  2.2325 -1.5118 -1.3843
  127MOL0     H16760   5.632  10.616   2.927 -0.0879  0.0459  1.2278
  127MOL0     H16761   5.668  10.506   2.796 -1.7480  1.0415 -3.1853
  127MOL0     H16762   5.403  10.756   2.584  0.4064 -0.3356 -0.2313
  127MOL0     H16763   5.227  10.117   3.103  0.4176  0.1610  0.5783
  127MOL0     H16764   5.011  10.102   3.207 -0.8692  0.2906 -0.6230
  128MOL0     O16765   9.271   1.087   0.212  0.1275  0.4077  0.0606
  128MOL0     C16766   9.369   1.093   0.279 -0.9748 -0.2249  0.4200
  128MOL0     O16767   9.377   1.093   0.412 -0.4203  0.0194 -0.5490
  128MOL0     C16768   9.272   1.079   0.491  0.3845  0.2576 -0.1878
  128MOL0     C16769   9.234   1.175   0.593  0.0588 -0.2673 -0.7301
  128MOL0     C16770   9.123   1.163   0.670  0.6510  0.7821  1.0335
  128MOL0     C16771   9.047   1.052   0.649 -0.7619 -0.0521  0.2607
  128MOL0     O16772   8.950   1.039   0.742 -0.0440 -0.2848 -0.4032
  128MOL0     C16773   8.859   0.931   0.727  1.6624 -0.0047  0.1691
  128MOL0     C16774   8.755   0.928   0.843 -0.0053 -0.7451  0.0733
  128MOL0     C16775   8.799   0.928   0.991 -0.1386  0.2427 -0.0440
  128MOL0     C16776   8.929   1.012   1.018 -0.3816  1.3699  0.9485
  128MOL0     C16777   8.964   1.030   1.164 -0.7142  0.8094 -0.2206
  128MOL0     C16778   9.119   1.044   1.180 -0.1724 -0.5866  0.7401
  128MOL0     C16779   9.153   1.177   1.109  0.4047  0.1099  0.1868
  128MOL0     C16780   9.293   1.206   1.136  0.2413 -0.9660  0.9454
  128MOL0     N16781   9.340   1.304   1.034  0.1064  0.0032 -0.8542
  128MOL0     C16782   9.270   1.411   0.994  0.9689 -0.1881  0.3150
  128MOL0     C16783   9.346   1.476   0.898  0.5035  0.6343  0.2457
  128MOL0     C16784   9.337   1.607   0.822 -0.4157  0.3666 -0.2300
  128MOL0     C16785   9.197   1.645   0.776 -0.4500  0.2535  0.5819
  128MOL0     C16786   9.170   1.579   0.641 -0.0546  0.9891  0.0288
  128MOL0     C16787   9.254   1.626   0.519 -0.2538  0.1420 -0.7669
  128MOL0     O16788   9.255   1.773   0.492 -0.3724  0.0991  0.6241
  128MOL0     C16789   9.325   1.825   0.387  0.4398  0.6586  0.0952
  128MOL0     C16790   9.404   1.752   0.301 -0.0665 -0.0844 -0.1219
  128MOL0     C16791   9.482   1.802   0.199 -0.6548 -0.2710  0.7534
  128MOL0     C16792   9.481   1.948   0.181  0.3204  0.9040  0.7252
  128MOL0     C16793   9.558   1.998   0.080  0.2288  0.2136 -0.3528
  128MOL0     O16794   9.697   1.974   0.100  0.4191 -0.0279 -0.5221
  128MOL0     C16795   9.779   2.064   0.036 -1.3213  0.3479  0.4839
  128MOL0     C16796   9.808   2.054  -0.110 -0.4845  0.2837 -0.7128
  128MOL0     C16797   9.901   2.145  -0.164  0.1365  0.7842 -0.3358
  128MOL0     C16798   9.957   2.250  -0.093 -0.6131  0.5646  0.0252
  128MOL0     O16799  10.058   2.335  -0.147 -0.1493  0.7089  0.3247
  128MOL0     C16800  10.042   2.470  -0.120  0.8328  0.2365 -0.5276
  128MOL0     C16801  10.152   2.558  -0.179 -0.1050  0.8990  0.0957
  128MOL0     C16802  10.278   2.558  -0.096 -0.1406 -0.7736 -0.4426
  128MOL0     C16803  10.399   2.612  -0.173  0.6207  0.4396  0.7726
  128MOL0     C16804  10.522   2.651  -0.089  0.5007 -0.0925 -0.2705
  128MOL0     C16805  10.644   2.580  -0.140  0.4205  0.5413 -0.4921
  128MOL0     C16806  10.686   2.621  -0.287 -0.4942 -0.6229  0.6890
  128MOL0     C16807  10.801   2.535  -0.349  0.5790 -0.9172 -0.5109
  128MOL0    Cl16808  10.840   2.611  -0.502  0.2780  0.5745  0.4463
  128MOL0     C16809   9.915   2.258   0.040 -1.0738  0.5679 -0.1651
  128MOL0     C16810   9.826   2.171   0.107 -0.0606  0.1814  0.5653
  128MOL0     O16811   9.499   2.057  -0.008 -0.0524 -0.1802  0.0084
  128MOL0     C16812   9.397   2.023   0.264  0.2732 -0.4088  0.0216
  128MOL0     C16813   9.315   1.964   0.361  0.8096  0.3579  0.9350
  128MOL0     N16814   9.460   1.398   0.900 -0.1886  0.3022  0.3347
  128MOL0     N16815   9.455   1.292   0.976 -0.2827 -0.3763  0.1059
  128MOL0     C16816   9.086   0.950   0.559 -0.9256  0.6849 -0.1126
  128MOL0     C16817   9.199   0.963   0.476 -0.1270  0.3243 -0.6748
  128MOL0     C16818   9.502   1.102   0.205 -0.8291 -0.1409 -0.6405
  128MOL0     C16819   9.507   1.147   0.076 -0.6624  0.4777  0.3458
  128MOL0     C16820   9.632   1.155   0.012  0.3286 -0.6846  1.0692
  128MOL0     C16821   9.750   1.103   0.067  0.7371  0.3681 -0.0261
  128MOL0     O16822   9.861   1.080  -0.004  0.0260 -0.9181 -0.7420
  128MOL0     C16823   9.938   1.206  -0.012  0.1779  0.6005  0.1518
  128MOL0     C16824  10.041   1.240   0.109  0.9228  0.6104  0.4618
  128MOL0     C16825  10.150   1.144   0.104 -0.9399  0.1912  0.4119
  128MOL0     C16826  10.221   1.118   0.240  0.2839  0.9125 -0.5836
  128MOL0     C16827  10.142   1.065   0.354  0.2207 -0.0647  0.9365
  128MOL0     C16828  10.065   1.023   0.431 -0.5491  0.0472  0.7100
  128MOL0     C16829   9.738   1.044   0.192  0.1499  0.2412  0.3118
  128MOL0     C16830   9.626   1.066   0.260 -0.8268  0.2736 -0.1153
  128MOL0     H16831   9.304   1.257   0.607 -2.1952  1.2691  2.7409
  128MOL0     H16832   9.104   1.239   0.744 -2.5397 -0.8536  2.0603
  128MOL0     H16833   8.920   0.841   0.725 -1.6810 -2.4525 -0.6505
  128MOL0     H16834   8.814   0.943   0.628 -1.1363 -1.7258  1.1001
  128MOL0     H16835   8.674   0.856   0.829 -2.8018  2.5565 -2.8076
  128MOL0     H16836   8.699   1.021   0.830  0.1991 -0.8426 -1.9055
  128MOL0     H16837   8.806   0.826   1.030 -2.0598  0.3008  0.6003
  128MOL0     H16838   8.717   0.976   1.046 -1.6272 -2.3625  0.1657
  128MOL0     H16839   9.009   0.967   0.958 -0.0023  1.6620  1.2248
  128MOL0     H16840   8.915   1.117   0.988  0.8994  1.8788  2.0235
  128MOL0     H16841   8.945   0.947   1.233 -2.0267  1.7202  0.5546
  128MOL0     H16842   8.908   1.118   1.198 -0.2082  0.6769  1.0272
  128MOL0     H16843   9.171   0.968   1.120  1.7726  2.4201 -1.7399
  128MOL0     H16844   9.152   1.045   1.284  0.9853 -1.4459  0.4056
  128MOL0     H16845   9.128   1.170   1.003 -1.1152 -0.2596  0.5490
  128MOL0     H16846   9.094   1.263   1.139  1.0341  0.2565  1.0460
  128MOL0     H16847   9.351   1.117   1.109 -0.7230 -1.1937 -0.4611
  128MOL0     H16848   9.321   1.237   1.237  2.4914 -1.2814  0.4838
  128MOL0     H16849   9.174   1.453   1.022 -0.6256 -1.4228 -2.8084
  128MOL0     H16850   9.413   1.611   0.744  3.7193  0.6046  3.4447
  128MOL0     H16851   9.373   1.681   0.894  0.7628 -0.9543  0.5895
  128MOL0     H16852   9.195   1.754   0.771 -0.9448  0.4695  3.4708
  128MOL0     H16853   9.123   1.622   0.854 -0.9231  0.9367  0.3416
  128MOL0     H16854   9.187   1.471   0.653 -1.9460  0.5862 -0.6291
  128MOL0     H16855   9.068   1.599   0.607  1.3474  3.4932 -3.2893
  128MOL0     H16856   9.209   1.568   0.439 -2.5142  1.8755 -0.8482
  128MOL0     H16857   9.359   1.604   0.540 -0.0216  1.0873 -0.8747
  128MOL0     H16858   9.427   1.647   0.315  0.9604  0.4389  2.8063
  128MOL0     H16859   9.539   1.737   0.133  0.6500  0.2912  1.2933
  128MOL0     H16860   9.761   1.977  -0.169  0.1854 -0.7272  0.0350
  128MOL0     H16861   9.916   2.134  -0.271  1.0829  3.0522 -0.4798
  128MOL0     H16862  10.037   2.502  -0.015 -1.3729  0.5443 -0.6981
  128MOL0     H16863   9.952   2.512  -0.164 -0.3116 -1.5917 -0.0395
  128MOL0     H16864  10.115   2.659  -0.195  2.3619  2.3378  2.5387
  128MOL0     H16865  10.177   2.514  -0.276  2.3408  0.5746  0.7973
  128MOL0     H16866  10.286   2.451  -0.077  0.0526 -0.8817 -1.1207
  128MOL0     H16867  10.251   2.613  -0.005  1.1207 -1.8396  0.6139
  128MOL0     H16868  10.424   2.552  -0.260 -1.7910  1.4245 -0.6996
  128MOL0     H16869  10.361   2.702  -0.223 -2.9559 -2.2955 -2.0381
  128MOL0     H16870  10.503   2.647   0.018 -0.4379  1.4470 -0.3577
  128MOL0     H16871  10.539   2.756  -0.114  0.5821 -0.2060 -0.7143
  128MOL0     H16872  10.625   2.473  -0.131  2.0982  0.3647  1.6995
  128MOL0     H16873  10.717   2.601  -0.061 -3.7864 -2.7768  4.9568
  128MOL0     H16874  10.603   2.609  -0.358  2.0222 -1.0663 -2.3894
  128MOL0     H16875  10.711   2.728  -0.292 -0.6729 -0.6221 -1.2512
  128MOL0     H16876  10.758   2.434  -0.352 -3.1305  0.4659  0.2797
  128MOL0     H16877  10.884   2.531  -0.277 -0.0686  3.1243  0.7309
  128MOL0     H16878   9.965   2.326   0.108  1.6440 -0.8623 -0.5908
  128MOL0     H16879   9.800   2.169   0.212  0.3753 -1.5049  0.6827
  128MOL0     H16880   9.413   2.130   0.257 -1.7907  0.0079  0.8949
  128MOL0     H16881   9.255   2.031   0.423 -0.7644  1.5673 -1.7294
  128MOL0     H16882   9.040   0.851   0.561  0.5358 -0.0201 -0.1828
  128MOL0     H16883   9.215   0.885   0.402  1.5565  0.5078 -0.5586
  128MOL0     H16884   9.427   1.183   0.013  2.2713  3.2307 -2.1268
  128MOL0     H16885   9.648   1.211  -0.079  0.7449  1.6129  2.4977
  128MOL0     H16886   9.867   1.284  -0.039 -0.1314 -0.4156 -2.2146
  128MOL0     H16887  10.001   1.193  -0.100  0.4691  1.3875  0.2415
  128MOL0     H16888  10.094   1.335   0.101  4.3562 -1.2498 -1.1841
  128MOL0     H16889   9.998   1.237   0.209  3.1409 -1.6823  1.4489
  128MOL0     H16890  10.226   1.178   0.033 -0.1551 -0.3780  0.9475
  128MOL0     H16891  10.115   1.047   0.068  0.7614  1.3295 -5.2475
  128MOL0     H16892  10.309   1.052   0.242  0.0036  0.5256  1.6651
  128MOL0     H16893  10.254   1.212   0.285  1.9570  0.4564 -0.7852
  128MOL0     H16894  10.005   1.006   0.519 -0.2834  0.6553  1.0161
  128MOL0     H16895   9.815   0.994   0.250  2.0893 -1.1539 -3.1587
  128MOL0     H16896   9.623   1.044   0.366  1.0526  0.8746  0.0914
  129MOL0     O16897   9.248   3.622   8.184 -0.1723 -0.2177  0.1109
  129MOL0     C16898   9.308   3.611   8.296 -0.1800  0.4714  0.7181
  129MOL0     O16899   9.361   3.493   8.344  0.7450  0.0958  0.3126
  129MOL0     C16900   9.314   3.362   8.319 -0.0259 -1.5175  0.4613
  129MOL0     C16901   9.356   3.271   8.419  0.1732 -0.1256 -0.1765
  129MOL0     C16902   9.324   3.135   8.416  0.0539 -0.0675 -0.5954
  129MOL0     C16903   9.253   3.086   8.303  0.2627 -0.3658 -0.4868
  129MOL0     O16904   9.218   2.955   8.287 -0.2460  0.6684  0.0413
  129MOL0     C16905   9.224   2.871   8.394  0.3354  0.3535 -0.4091
  129MOL0     C16906   9.238   2.727   8.336  1.5153  0.7487  0.8530
  129MOL0     C16907   9.384   2.695   8.312 -0.4542 -0.6848 -0.3364
  129MOL0     C16908   9.443   2.641   8.443 -0.0302  0.4995 -0.5169
  129MOL0     C16909   9.593   2.601   8.418 -0.8725  0.5261 -0.2655
  129MOL0     C16910   9.620   2.475   8.513 -0.7616 -1.0841  0.6719
  129MOL0     C16911   9.770   2.416   8.527 -0.1144 -0.4278 -0.8893
  129MOL0     C16912   9.875   2.519   8.586  1.0758  1.0955 -1.4268
  129MOL0     N16913  10.007   2.462   8.600 -0.2518 -0.0897  0.2238
  129MOL0     C16914  10.035   2.332   8.655 -0.2070  0.1336 -0.1984
  129MOL0     C16915  10.167   2.317   8.640 -0.6290 -0.3802  0.1514
  129MOL0     C16916  10.262   2.206   8.686  0.0923 -0.2275  0.4976
  129MOL0     C16917  10.320   2.114   8.570  0.7223  0.2276 -0.0528
  129MOL0     C16918  10.226   2.002   8.535  0.2563  0.1351 -0.5922
  129MOL0     C16919  10.297   1.922   8.426  0.1513  0.4771  0.2702
  129MOL0     O16920  10.225   1.799   8.381 -0.2150 -0.7396 -0.2732
  129MOL0     C16921  10.287   1.687   8.436  0.2595  0.6177 -0.1381
  129MOL0     C16922  10.362   1.672   8.551 -0.9404  0.4062 -0.5498
  129MOL0     C16923  10.422   1.547   8.597 -0.2224 -0.0577  0.6379
  129MOL0     C16924  10.401   1.427   8.518 -0.7797 -0.7151  0.1439
  129MOL0     C16925  10.446   1.299   8.572 -0.7151 -0.4215 -0.8538
  129MOL0     O16926  10.542   1.306   8.679 -0.0362  0.4751 -0.1591
  129MOL0     C16927  10.533   1.220   8.778  0.5813 -0.5738 -0.4060
  129MOL0     C16928  10.418   1.185   8.848  1.3068 -0.0821  0.8236
  129MOL0     C16929  10.426   1.098   8.952 -0.4864  0.4645 -1.0650
  129MOL0     C16930  10.550   1.031   8.981  0.7030 -1.3461  1.0846
  129MOL0     O16931  10.554   0.930   9.072  0.2249  0.3595  0.0686
  129MOL0     C16932  10.451   0.829   9.087  0.1360 -0.8443 -0.0391
  129MOL0     C16933  10.373   0.853   9.212 -0.0543 -1.6377  0.3312
  129MOL0     C16934  10.223   0.834   9.202  0.2868  0.1014 -0.1416
  129MOL0     C16935  10.188   0.687   9.206  0.2489  1.2680  0.2342
  129MOL0     C16936  10.032   0.654   9.218 -0.6406 -0.1215 -0.8281
  129MOL0     C16937   9.981   0.532   9.155  0.5923 -0.8199  0.3013
  129MOL0     C16938   9.833   0.530   9.155 -0.9053 -1.3227 -0.9497
  129MOL0     C16939   9.780   0.382   9.136  0.1118 -0.7037 -0.5348
  129MOL0    Cl16940   9.845   0.261   9.263 -0.2027 -0.4899 -0.3269
  129MOL0     C16941  10.668   1.063   8.914 -0.2189 -0.2374  0.7849
  129MOL0     C16942  10.658   1.161   8.814 -0.6008 -0.0936 -0.6697
  129MOL0     O16943  10.417   1.193   8.516 -0.6260 -0.1463  0.1769
  129MOL0     C16944  10.331   1.438   8.403 -0.3604  0.0573 -0.4438
  129MOL0     C16945  10.272   1.567   8.364 -0.3082 -0.7639 -0.0262
  129MOL0     N16946  10.208   2.429   8.578  0.2244  0.8787 -0.2873
  129MOL0     N16947  10.119   2.519   8.561  0.4701 -0.0382  0.8698
  129MOL0     C16948   9.204   3.179   8.212 -0.5741 -0.4078 -0.5367
  129MOL0     C16949   9.230   3.314   8.218  0.5739  0.6094  0.0388
  129MOL0     C16950   9.331   3.734   8.366 -0.4037 -0.1391  0.2756
  129MOL0     C16951   9.422   3.733   8.482 -1.1814  0.5861  0.8146
  129MOL0     C16952   9.431   3.848   8.556  0.0625 -0.1540 -0.0745
  129MOL0     C16953   9.367   3.963   8.523 -0.2881 -0.1442  0.5861
  129MOL0     O16954   9.390   4.078   8.589  0.3262 -0.1504 -0.5621
  129MOL0     C16955   9.321   4.075   8.709 -0.4753 -0.5551 -0.6334
  129MOL0     C16956   9.181   4.137   8.703 -1.0023 -0.4080  0.0211
  129MOL0     C16957   9.189   4.267   8.629  0.5401  0.7490 -0.5341
  129MOL0     C16958   9.277   4.367   8.701  0.8614 -0.3645 -0.2837
  129MOL0     C16959   9.202   4.406   8.824 -0.8708  0.5814 -0.3801
  129MOL0     C16960   9.136   4.441   8.919 -0.1442 -0.1242  0.1233
  129MOL0     C16961   9.282   3.968   8.407 -0.6423  0.0599  0.6094
  129MOL0     C16962   9.259   3.847   8.338  0.0887  0.9199 -0.3942
  129MOL0     H16963   9.411   3.314   8.502  1.3629  0.7635 -1.3726
  129MOL0     H16964   9.368   3.080   8.499  2.3345  0.6314 -1.2427
  129MOL0     H16965   9.124   2.878   8.438  0.5682  0.8820  0.0409
  129MOL0     H16966   9.303   2.895   8.467 -0.0200  1.0602 -0.2518
  129MOL0     H16967   9.167   2.715   8.253  1.3058 -2.6967  1.3793
  129MOL0     H16968   9.192   2.650   8.399 -2.8012  2.8441  0.6306
  129MOL0     H16969   9.431   2.791   8.290 -1.3111  0.0253  0.7655
  129MOL0     H16970   9.391   2.627   8.228  2.7559 -2.1142  0.9319
  129MOL0     H16971   9.440   2.725   8.513  3.6656 -1.5275  2.4333
  129MOL0     H16972   9.382   2.554   8.466  1.8408 -1.0145 -0.9897
  129MOL0     H16973   9.670   2.674   8.443 -0.7528 -0.0118  1.0298
  129MOL0     H16974   9.615   2.572   8.315  1.9691 -0.2969  0.4590
  129MOL0     H16975   9.557   2.389   8.487 -2.6666  0.6289 -0.6656
  129MOL0     H16976   9.588   2.504   8.614 -2.7557 -0.4228 -0.0967
  129MOL0     H16977   9.771   2.337   8.602  3.4545  0.5221  0.2356
  129MOL0     H16978   9.793   2.376   8.428 -3.2694  1.4264 -2.5729
  129MOL0     H16979   9.839   2.557   8.683 -3.6948  1.0383 -2.9365
  129MOL0     H16980   9.868   2.615   8.534 -2.3528  2.0114  0.4216
  129MOL0     H16981   9.974   2.250   8.692 -2.9277  1.1390 -2.1154
  129MOL0     H16982  10.222   2.132   8.757 -1.0846 -3.5273 -3.2323
  129MOL0     H16983  10.347   2.257   8.733 -0.6289  1.0040  0.4823
  129MOL0     H16984  10.409   2.063   8.608  1.1508 -0.8438 -2.3526
  129MOL0     H16985  10.337   2.180   8.485  2.6792 -0.3714 -0.1710
  129MOL0     H16986  10.207   1.944   8.625 -0.6815  1.1970 -0.0853
  129MOL0     H16987  10.131   2.039   8.497  0.5357 -0.8423 -2.3737
  129MOL0     H16988  10.403   1.904   8.445  1.1585  2.4977 -2.7005
  129MOL0     H16989  10.304   1.984   8.336 -1.4196 -1.8820 -1.6236
  129MOL0     H16990  10.368   1.762   8.611 -0.1150  0.7572 -1.1386
  129MOL0     H16991  10.462   1.542   8.698 -2.2453 -0.7077  1.4699
  129MOL0     H16992  10.321   1.228   8.827  0.0421 -2.7013  1.0129
  129MOL0     H16993  10.338   1.082   9.013  0.5817  2.0037  1.0091
  129MOL0     H16994  10.503   0.734   9.095 -0.0462 -1.1273 -1.8729
  129MOL0     H16995  10.387   0.818   8.999 -0.8361 -2.3341  0.8186
  129MOL0     H16996  10.384   0.960   9.231  1.9192 -1.1686 -2.7233
  129MOL0     H16997  10.419   0.798   9.295  1.5894  0.0104  0.5786
  129MOL0     H16998  10.182   0.893   9.120 -0.7395  1.2482  1.1349
  129MOL0     H16999  10.183   0.882   9.292  0.8062 -2.9140  1.8521
  129MOL0     H17000  10.199   0.649   9.104 -3.7947  1.8412 -0.6016
  129MOL0     H17001  10.247   0.629   9.277 -1.8344 -0.2019  0.8725
  129MOL0     H17002   9.973   0.735   9.175 -0.7197  0.5956  0.5565
  129MOL0     H17003  10.002   0.658   9.323 -0.8485 -2.0653 -0.7768
  129MOL0     H17004  10.016   0.442   9.206 -3.7734 -1.8836  1.8384
  129MOL0     H17005  10.010   0.520   9.050 -1.0383  1.0395 -0.4178
  129MOL0     H17006   9.798   0.566   9.252  0.3271  1.8221 -1.5503
  129MOL0     H17007   9.793   0.597   9.079 -3.1773 -4.6511 -2.9514
  129MOL0     H17008   9.822   0.352   9.039  2.2050  1.2375 -0.3200
  129MOL0     H17009   9.671   0.387   9.122  0.0805 -3.5897 -2.1080
  129MOL0     H17010  10.765   1.023   8.939  0.8101  2.2094  0.9662
  129MOL0     H17011  10.745   1.186   8.754  0.7107  2.2059  1.9533
  129MOL0     H17012  10.333   1.351   8.337  1.1929 -0.4801  0.2652
  129MOL0     H17013  10.232   1.563   8.263  3.3201 -0.1274 -1.6427
  129MOL0     H17014   9.130   3.132   8.148 -2.6618 -1.2262  2.2584
  129MOL0     H17015   9.179   3.379   8.148 -0.8922  0.2393  0.7228
  129MOL0     H17016   9.482   3.651   8.521 -2.1198  1.3510  4.2015
  129MOL0     H17017   9.485   3.843   8.650  0.5664  0.7470 -0.2967
  129MOL0     H17018   9.385   4.129   8.779  1.7887 -1.6507 -1.7499
  129MOL0     H17019   9.297   3.976   8.748 -3.9721  1.2413  2.4906
  129MOL0     H17020   9.118   4.083   8.632 -0.8096  0.4956 -0.8546
  129MOL0     H17021   9.149   4.142   8.808  0.9175 -2.0928  0.7704
  129MOL0     H17022   9.089   4.312   8.632  1.4003  3.0336 -2.8221
  129MOL0     H17023   9.225   4.270   8.526  2.5253  1.1201  0.1169
  129MOL0     H17024   9.377   4.336   8.731  0.2723 -3.5037 -1.2501
  129MOL0     H17025   9.263   4.460   8.645 -3.2503  0.3017  1.4954
  129MOL0     H17026   9.074   4.482   8.997  1.6963  1.9726  0.5557
  129MOL0     H17027   9.227   4.058   8.381  3.1034  3.0028  1.9660
  129MOL0     H17028   9.191   3.826   8.256 -3.1681  1.6491  1.9216
  130MOL0     O17029   2.123   6.754   9.388  0.1909  0.3521 -0.3664
  130MOL0     C17030   2.189   6.859   9.388  0.2904 -0.1029  0.7144
  130MOL0     O17031   2.148   6.979   9.328 -0.4130  0.4653  0.1579
  130MOL0     C17032   2.030   6.964   9.257  0.2431 -0.1012  0.1169
  130MOL0     C17033   1.911   7.022   9.309 -0.1896  0.2389 -0.1955
  130MOL0     C17034   1.785   7.021   9.247  0.1210 -0.2930  0.7232
  130MOL0     C17035   1.775   6.979   9.112 -0.4130 -0.2819  0.3280
  130MOL0     O17036   1.658   6.979   9.039 -0.4379  0.3425  0.3416
  130MOL0     C17037   1.560   7.090   9.059 -0.0333  0.0598 -0.4731
  130MOL0     C17038   1.441   7.065   8.957  0.4748  0.4752  0.4176
  130MOL0     C17039   1.322   7.153   9.001 -0.1963 -0.0316 -0.9603
  130MOL0     C17040   1.195   7.130   8.911  0.4672 -0.1590 -0.7273
  130MOL0     C17041   1.082   7.227   8.954 -0.2621  1.8862 -0.7334
  130MOL0     C17042   1.116   7.378   8.923 -0.0157 -0.5183  0.2863
  130MOL0     C17043   1.114   7.461   9.049 -0.2215 -0.8238  0.5387
  130MOL0     C17044   1.262   7.515   9.088 -0.7083  0.7348 -0.0920
  130MOL0     N17045   1.315   7.468   9.216  0.1186  0.1314 -0.3587
  130MOL0     C17046   1.269   7.500   9.342 -0.1162 -0.9330 -0.2323
  130MOL0     C17047   1.375   7.488   9.427  0.1294 -0.4496  0.5319
  130MOL0     C17048   1.376   7.545   9.566 -0.7427 -0.4619 -0.7141
  130MOL0     C17049   1.312   7.443   9.660  0.4397  0.0234 -0.0436
  130MOL0     C17050   1.289   7.500   9.799 -0.1281 -0.0093 -0.0889
  130MOL0     C17051   1.219   7.419   9.899 -0.6592  1.2896  0.7411
  130MOL0     O17052   1.296   7.300   9.939 -0.0442  0.6494  0.4432
  130MOL0     C17053   1.223   7.177   9.950 -0.1575 -0.4176  0.0653
  130MOL0     C17054   1.190   7.099   9.836  0.2061 -0.1375  0.2005
  130MOL0     C17055   1.120   6.978   9.843 -0.4571 -0.6748 -0.3043
  130MOL0     C17056   1.061   6.947   9.969 -0.5437  0.4218 -0.0530
  130MOL0     C17057   0.963   6.835   9.987 -0.2587 -0.0055 -0.0580
  130MOL0     O17058   0.955   6.778  10.112  0.6795 -0.4468  0.2107
  130MOL0     C17059   0.833   6.727  10.151 -0.6261 -0.6856  0.9874
  130MOL0     C17060   0.707   6.768  10.100  0.5358  0.0376  0.2384
  130MOL0     C17061   0.593   6.702  10.155 -0.2755  0.7083 -0.5642
  130MOL0     C17062   0.607   6.604  10.252  0.9794 -1.0365  0.7608
  130MOL0     O17063   0.493   6.556  10.312 -0.0754 -0.2677  0.2583
  130MOL0     C17064   0.485   6.456  10.416 -0.5099  0.1420  0.2049
  130MOL0     C17065   0.512   6.513  10.553 -0.9700  1.1846  0.3803
  130MOL0     C17066   0.490   6.403  10.658  0.1989  0.0717  0.8203
  130MOL0     C17067   0.611   6.398  10.746 -0.0793  0.6338  0.3908
  130MOL0     C17068   0.594   6.313  10.872  0.4253 -0.7111  0.4242
  130MOL0     C17069   0.710   6.209  10.898  0.6728  0.5305 -0.0157
  130MOL0     C17070   0.702   6.143  11.033 -0.5686  0.1196  0.5720
  130MOL0     C17071   0.759   6.007  11.020  0.4063 -0.1623  0.4145
  130MOL0    Cl17072   0.619   5.900  10.992 -0.0386 -0.0713 -0.2100
  130MOL0     C17073   0.730   6.567  10.298 -0.1014  0.8507 -0.9656
  130MOL0     C17074   0.848   6.631  10.247  1.3416 -0.8014 -0.5460
  130MOL0     O17075   0.896   6.810   9.890  0.3558 -0.3069  0.3582
  130MOL0     C17076   1.107   7.021  10.082 -0.2118 -0.2674 -1.1466
  130MOL0     C17077   1.181   7.133  10.073 -0.4969  0.3369 -0.2416
  130MOL0     N17078   1.482   7.451   9.356  0.4032 -0.8019  0.5472
  130MOL0     N17079   1.445   7.421   9.235 -0.5056 -0.1473 -0.6496
  130MOL0     C17080   1.896   6.936   9.051 -0.6121  0.3735 -0.8010
  130MOL0     C17081   2.017   6.908   9.121 -0.2800 -0.3756 -0.0921
  130MOL0     C17082   2.317   6.863   9.464 -0.4850 -0.2632  0.4027
  130MOL0     C17083   2.406   6.985   9.478  0.9146 -0.1781 -0.2552
  130MOL0     C17084   2.523   6.979   9.550  1.1652 -1.5003 -1.2904
  130MOL0     C17085   2.566   6.862   9.628 -0.4631  0.3299  0.5568
  130MOL0     O17086   2.676   6.855   9.710 -0.4626  0.0010 -0.3179
  130MOL0     C17087   2.656   6.954   9.816 -0.3756  0.0663 -1.3229
  130MOL0     C17088   2.776   6.927   9.899 -0.4256 -0.8451 -0.1731
  130MOL0     C17089   2.907   6.984   9.834 -0.7371 -0.8574  0.5051
  130MOL0     C17090   3.023   6.963   9.934 -0.2350 -1.4135 -0.3159
  130MOL0     C17091   3.032   7.093  10.013 -0.6339 -0.6588  0.3730
  130MOL0     C17092   3.057   7.200  10.076  0.2428  0.5271  0.0320
  130MOL0     C17093   2.481   6.745   9.622  0.0283 -0.3715  0.8633
  130MOL0     C17094   2.362   6.750   9.545 -0.4710 -0.0021 -0.3384
  130MOL0     H17095   1.921   7.077   9.402  1.1773 -0.0488 -0.1558
  130MOL0     H17096   1.702   7.065   9.301 -0.1039 -0.0321  0.1690
  130MOL0     H17097   1.600   7.191   9.043 -0.2634 -0.0510 -1.9563
  130MOL0     H17098   1.520   7.084   9.160  1.9006  2.2605  0.5109
  130MOL0     H17099   1.419   6.958   8.952  2.0970  0.0287  1.7985
  130MOL0     H17100   1.479   7.098   8.860 -1.8979  1.5463 -0.2071
  130MOL0     H17101   1.355   7.257   8.993  1.2542  0.1646  4.1487
  130MOL0     H17102   1.299   7.136   9.106 -0.1951 -0.9042 -1.0934
  130MOL0     H17103   1.223   7.141   8.806  1.5172  0.2682 -0.4246
  130MOL0     H17104   1.151   7.030   8.908 -0.1604  0.1466 -2.3436
  130MOL0     H17105   1.057   7.211   9.060  3.5584  0.6920  0.1403
  130MOL0     H17106   0.985   7.205   8.908 -0.1250 -1.6836  0.3186
  130MOL0     H17107   1.029   7.421   8.873  0.2898  1.2449  1.1857
  130MOL0     H17108   1.213   7.390   8.875 -0.3661 -1.2271 -0.6121
  130MOL0     H17109   1.062   7.548   9.007  1.6753  0.3997  0.5810
  130MOL0     H17110   1.058   7.423   9.135  2.3378  0.1813  2.8200
  130MOL0     H17111   1.260   7.625   9.085 -0.2731  0.7197 -2.1628
  130MOL0     H17112   1.342   7.490   9.018  2.0345  1.2263  2.6417
  130MOL0     H17113   1.179   7.558   9.356  1.9417  2.1779  1.2092
  130MOL0     H17114   1.318   7.637   9.567 -2.0271 -1.2238  0.8234
  130MOL0     H17115   1.477   7.562   9.603 -1.7575  2.2760  1.0565
  130MOL0     H17116   1.376   7.354   9.658  1.3949  0.6592  1.0135
  130MOL0     H17117   1.214   7.415   9.620  0.3650 -0.5677  0.5321
  130MOL0     H17118   1.385   7.528   9.844 -0.2523  1.9805 -0.9653
  130MOL0     H17119   1.234   7.592   9.776  4.7929  2.7332 -2.5936
  130MOL0     H17120   1.122   7.389   9.860  0.5163 -2.0704  0.0714
  130MOL0     H17121   1.194   7.477   9.988 -0.1852  0.8243  1.1806
  130MOL0     H17122   1.231   7.129   9.740  1.2340  2.4606  1.3417
  130MOL0     H17123   1.101   6.915   9.757 -0.7906 -0.4785 -0.3741
  130MOL0     H17124   0.695   6.843  10.023  2.2106 -0.2551 -0.3387
  130MOL0     H17125   0.491   6.719  10.122 -0.2023  0.1796 -1.0944
  130MOL0     H17126   0.553   6.375  10.389 -1.1206 -0.0049 -0.9951
  130MOL0     H17127   0.385   6.414  10.418 -1.1599  1.6711  1.6010
  130MOL0     H17128   0.442   6.595  10.576 -1.0604  1.0486  0.5912
  130MOL0     H17129   0.611   6.559  10.562  0.0664 -0.5717 -1.3743
  130MOL0     H17130   0.473   6.303  10.616  0.9213  0.6071 -0.8417
  130MOL0     H17131   0.401   6.419  10.719  0.2011  0.2688  0.7720
  130MOL0     H17132   0.696   6.360  10.690 -1.2126  0.0692 -1.0289
  130MOL0     H17133   0.657   6.496  10.760  1.0805  0.6038 -2.5946
  130MOL0     H17134   0.499   6.259  10.872  2.3967 -4.5126  1.2462
  130MOL0     H17135   0.598   6.385  10.955 -1.9463 -1.0696  0.9224
  130MOL0     H17136   0.802   6.263  10.877  1.4091 -0.4236  0.6629
  130MOL0     H17137   0.696   6.131  10.823  0.4804  0.7747 -0.2344
  130MOL0     H17138   0.742   6.194  11.122  2.0096 -2.2869  0.9117
  130MOL0     H17139   0.596   6.124  11.050 -0.4173 -2.4098 -0.8573
  130MOL0     H17140   0.806   5.974  11.113  0.4115  0.0570  0.4896
  130MOL0     H17141   0.831   5.997  10.938 -0.5183  0.2999 -0.4719
  130MOL0     H17142   0.725   6.485  10.369  1.5775  0.1217 -1.6304
  130MOL0     H17143   0.945   6.597  10.280  1.6430 -2.0037 -2.5299
  130MOL0     H17144   1.090   6.991  10.185  0.8758 -1.5708 -1.3076
  130MOL0     H17145   1.202   7.205  10.152 -1.5472  1.6977 -1.1415
  130MOL0     H17146   1.894   6.923   8.943 -3.7099  1.7825 -1.0321
  130MOL0     H17147   2.105   6.870   9.069  0.1496  0.6322 -0.1384
  130MOL0     H17148   2.389   7.070   9.414  0.6049 -0.4090 -0.4878
  130MOL0     H17149   2.591   7.064   9.550 -0.8750  0.2295 -0.7513
  130MOL0     H17150   2.562   6.947   9.873 -0.8321  2.2396 -1.7388
  130MOL0     H17151   2.668   7.047   9.760 -1.8365 -0.1277 -2.0124
  130MOL0     H17152   2.755   6.981   9.992  1.6590 -0.0019 -0.1512
  130MOL0     H17153   2.776   6.821   9.926 -4.0919 -1.2904 -1.3941
  130MOL0     H17154   2.898   7.089   9.806  3.8129  0.7340  3.7857
  130MOL0     H17155   2.921   6.924   9.744 -0.7550 -1.8452  1.1470
  130MOL0     H17156   3.005   6.873   9.993 -0.8432  0.2909  2.2423
  130MOL0     H17157   3.120   6.958   9.883  1.1903  1.2028  1.8702
  130MOL0     H17158   3.093   7.288  10.126  1.4430 -1.8237  3.6305
  130MOL0     H17159   2.513   6.654   9.674  2.6693 -1.9591 -3.0351
  130MOL0     H17160   2.316   6.652   9.547  1.4938 -0.9482  0.3252
  131MOL0     O17161   1.563   8.029   0.257  0.2544 -0.0961 -0.8202
  131MOL0     C17162   1.538   7.944   0.168  0.1850 -0.1435  0.3194
  131MOL0     O17163   1.445   7.960   0.069  0.2659  0.2460  0.3247
  131MOL0     C17164   1.381   8.086   0.052 -0.7174  0.0285  0.1897
  131MOL0     C17165   1.385   8.151  -0.074 -0.8171 -0.4686  0.1583
  131MOL0     C17166   1.320   8.269  -0.091 -0.4539  0.1381  0.1011
  131MOL0     C17167   1.238   8.318   0.004  0.1713 -0.6343 -0.0713
  131MOL0     O17168   1.156   8.430  -0.034 -0.5378  0.3242 -0.7377
  131MOL0     C17169   1.137   8.533   0.064  0.8686  0.1201  0.2255
  131MOL0     C17170   0.995   8.481   0.126 -0.1127  0.0310  0.0300
  131MOL0     C17171   0.876   8.537   0.034 -0.7005 -0.8240 -0.2316
  131MOL0     C17172   0.742   8.498   0.077  0.1927 -0.4799 -0.6730
  131MOL0     C17173   0.677   8.585   0.184 -0.3324  0.5333  0.8316
  131MOL0     C17174   0.684   8.741   0.185 -0.5532 -0.2822 -0.0426
  131MOL0     C17175   0.591   8.804   0.079 -0.3713  0.6897  0.0669
  131MOL0     C17176   0.453   8.743   0.049 -0.1445 -0.0244 -0.4236
  131MOL0     N17177   0.350   8.851   0.025  0.7877  0.7009 -0.2902
  131MOL0     C17178   0.348   8.927  -0.081 -0.5111 -0.3633 -0.6114
  131MOL0     C17179   0.237   8.997  -0.081 -0.1060 -0.4958 -0.4161
  131MOL0     C17180   0.204   9.115  -0.174  0.4703  1.6048 -1.3469
  131MOL0     C17181   0.048   9.104  -0.211 -0.4816  0.1662 -0.4760
  131MOL0     C17182  -0.023   8.969  -0.247 -0.2365 -0.2626 -0.0143
  131MOL0     C17183   0.019   8.917  -0.382  0.0805 -0.5331  0.1687
  131MOL0     O17184   0.158   8.931  -0.400 -0.3377  0.3042  0.4491
  131MOL0     C17185   0.254   8.832  -0.412  1.0171  0.6739 -0.3762
  131MOL0     C17186   0.230   8.695  -0.396  0.0779  0.1200  0.4611
  131MOL0     C17187   0.334   8.605  -0.425  0.3919  0.2613 -0.5025
  131MOL0     C17188   0.471   8.638  -0.434 -0.7661 -0.4046 -0.6344
  131MOL0     C17189   0.587   8.538  -0.427 -0.6006  0.8943 -0.8519
  131MOL0     O17190   0.558   8.409  -0.397 -0.1331 -0.7667  0.2975
  131MOL0     C17191   0.663   8.328  -0.383 -0.0203 -0.4191 -0.0137
  131MOL0     C17192   0.673   8.214  -0.455  0.1856 -0.3678 -0.4860
  131MOL0     C17193   0.784   8.127  -0.448  0.2684 -0.1699  0.6964
  131MOL0     C17194   0.888   8.157  -0.355 -0.8714  0.4825  0.9521
  131MOL0     O17195   0.987   8.064  -0.341 -0.2176 -0.5949  0.0059
  131MOL0     C17196   1.119   8.120  -0.312 -0.3030 -0.1362  0.6918
  131MOL0     C17197   1.208   8.067  -0.428  0.1434  0.0760  0.4182
  131MOL0     C17198   1.237   7.914  -0.438 -0.9086 -0.5089  0.0369
  131MOL0     C17199   1.326   7.857  -0.324 -0.5872  0.2485  0.0062
  131MOL0     C17200   1.364   7.714  -0.336  0.4971 -0.0880  0.3742
  131MOL0     C17201   1.246   7.621  -0.336 -0.4198  0.7893  0.6410
  131MOL0     C17202   1.152   7.638  -0.212  0.3307  0.6467 -0.4576
  131MOL0     C17203   1.023   7.573  -0.219 -1.0845  0.5141 -0.2054
  131MOL0    Cl17204   1.063   7.400  -0.186 -0.1631 -0.0118  0.0296
  131MOL0     C17205   0.879   8.273  -0.273 -0.2836  0.6093  0.4556
  131MOL0     C17206   0.772   8.353  -0.291 -0.0222 -0.2877  0.0594
  131MOL0     O17207   0.700   8.575  -0.467  0.1464 -0.6738  0.4662
  131MOL0     C17208   0.490   8.778  -0.440  0.3196 -0.1179  0.4112
  131MOL0     C17209   0.384   8.876  -0.439  0.0412  0.2543  0.2561
  131MOL0     N17210   0.166   8.957   0.035  1.1131  0.1692  0.3617
  131MOL0     N17211   0.233   8.859   0.096  0.2182 -1.0348 -0.3386
  131MOL0     C17212   1.228   8.255   0.125  0.3914  1.3890 -0.5055
  131MOL0     C17213   1.306   8.140   0.153  0.1112  0.9982  0.4518
  131MOL0     C17214   1.616   7.811   0.179 -0.4291  0.8800  0.0507
  131MOL0     C17215   1.617   7.721   0.072  0.0580  0.2460 -0.0491
  131MOL0     C17216   1.697   7.609   0.089 -0.3261  0.1854 -0.1543
  131MOL0     C17217   1.774   7.579   0.202 -0.1302 -0.0428  0.1583
  131MOL0     O17218   1.846   7.460   0.216  0.5277  0.5559 -0.0293
  131MOL0     C17219   1.950   7.443   0.318  0.8856  0.1255  0.2066
  131MOL0     C17220   2.038   7.325   0.301  0.0063  0.0056  0.5719
  131MOL0     C17221   1.946   7.201   0.321  0.2409  0.6037 -0.5374
  131MOL0     C17222   2.016   7.078   0.288  1.0588  0.2334  0.6043
  131MOL0     C17223   2.044   7.065   0.147 -0.1316 -1.3771  0.7578
  131MOL0     C17224   2.068   7.056   0.027  0.6935  0.1663  0.1215
  131MOL0     C17225   1.778   7.672   0.301 -0.0390 -0.6962 -0.0179
  131MOL0     C17226   1.695   7.786   0.297  0.2282 -0.3927  0.5951
  131MOL0     H17227   1.435   8.092  -0.151  5.2374 -2.7930  4.9924
  131MOL0     H17228   1.326   8.316  -0.188 -0.0681 -0.0403  0.0333
  131MOL0     H17229   1.125   8.634   0.026 -2.8089  1.2428  3.6527
  131MOL0     H17230   1.212   8.537   0.143 -0.7492 -3.4219  2.2181
  131MOL0     H17231   0.997   8.486   0.235  4.8844  1.8617  0.1056
  131MOL0     H17232   0.993   8.373   0.110 -0.1298  0.4356 -3.3337
  131MOL0     H17233   0.899   8.488  -0.061  1.3252 -0.3794 -0.0071
  131MOL0     H17234   0.892   8.642   0.010  0.8257 -0.5472  1.6861
  131MOL0     H17235   0.668   8.493  -0.004 -2.6270 -0.6465  1.7380
  131MOL0     H17236   0.737   8.398   0.120 -3.6208  0.5023  1.7546
  131MOL0     H17237   0.727   8.559   0.277  1.6268 -0.7283 -0.5022
  131MOL0     H17238   0.573   8.554   0.201 -0.2413 -0.0294  0.3824
  131MOL0     H17239   0.780   8.790   0.166  0.4577 -1.8561  0.8651
  131MOL0     H17240   0.665   8.776   0.287 -0.1511  2.4353 -0.8050
  131MOL0     H17241   0.564   8.899   0.126 -0.6429  0.2697  0.7925
  131MOL0     H17242   0.651   8.810  -0.011 -1.1887 -0.1311 -0.5499
  131MOL0     H17243   0.424   8.681   0.134 -1.9576 -0.0119 -0.9874
  131MOL0     H17244   0.462   8.681  -0.041  0.0562 -0.0151 -0.4105
  131MOL0     H17245   0.415   8.940  -0.166  1.6095  0.5365  1.1058
  131MOL0     H17246   0.269   9.106  -0.262  3.0722 -0.5010  0.5838
  131MOL0     H17247   0.224   9.199  -0.107 -0.6836 -0.7259  2.1645
  131MOL0     H17248   0.018   9.181  -0.282  0.0262  0.5181 -0.3175
  131MOL0     H17249  -0.006   9.134  -0.120 -0.6672 -2.8617  0.5395
  131MOL0     H17250   0.004   8.904  -0.162  1.9011  0.1692 -0.3023
  131MOL0     H17251  -0.130   8.990  -0.252 -0.2939  0.1160  1.8933
  131MOL0     H17252  -0.032   8.992  -0.443 -0.7984 -0.0326  1.4574
  131MOL0     H17253  -0.025   8.819  -0.403 -3.3062  0.6513  1.1049
  131MOL0     H17254   0.133   8.651  -0.372  0.6014 -0.5590  1.3952
  131MOL0     H17255   0.323   8.497  -0.422  2.5896 -0.0053 -0.2677
  131MOL0     H17256   0.593   8.194  -0.526 -1.1018 -1.0102  1.0723
  131MOL0     H17257   0.785   8.043  -0.516  1.9018 -1.1228  1.8351
  131MOL0     H17258   1.144   8.083  -0.213  2.1830 -2.0992 -0.5561
  131MOL0     H17259   1.120   8.229  -0.315 -0.3916 -0.1436 -1.4194
  131MOL0     H17260   1.304   8.116  -0.418 -0.9355  1.7595  4.5553
  131MOL0     H17261   1.160   8.097  -0.522  2.2376 -1.1188 -1.1279
  131MOL0     H17262   1.287   7.881  -0.529  0.2787  0.5055  0.3045
  131MOL0     H17263   1.143   7.859  -0.426  0.0352 -2.3416 -0.5894
  131MOL0     H17264   1.422   7.908  -0.338  0.9979 -1.4454  3.5326
  131MOL0     H17265   1.269   7.879  -0.234 -3.4080 -0.3782 -1.5164
  131MOL0     H17266   1.415   7.691  -0.241  0.3916  2.4630  1.1122
  131MOL0     H17267   1.431   7.707  -0.423 -1.2549  3.6291 -1.4646
  131MOL0     H17268   1.290   7.521  -0.333 -0.6594  0.7032  1.9034
  131MOL0     H17269   1.188   7.624  -0.429  0.6390 -1.1152 -0.1367
  131MOL0     H17270   1.214   7.615  -0.125  1.5969  2.4710 -0.8229
  131MOL0     H17271   1.121   7.743  -0.207  1.6835  1.0079  1.4724
  131MOL0     H17272   0.973   7.580  -0.316 -0.1455 -2.2698 -0.9981
  131MOL0     H17273   0.965   7.615  -0.137 -0.8447 -0.6578  0.5974
  131MOL0     H17274   0.950   8.304  -0.197 -0.5637  0.7953  0.6453
  131MOL0     H17275   0.762   8.444  -0.233  0.5411 -2.2556  3.5841
  131MOL0     H17276   0.591   8.817  -0.439  0.0652  0.6570 -1.0547
  131MOL0     H17277   0.409   8.981  -0.456  0.2224  0.4023  1.3833
  131MOL0     H17278   1.171   8.289   0.211  2.1489  2.4544  0.2930
  131MOL0     H17279   1.310   8.071   0.236 -0.7455 -1.4697 -1.4284
  131MOL0     H17280   1.559   7.732  -0.020 -0.1805 -2.5327 -0.3259
  131MOL0     H17281   1.701   7.531   0.014  1.3017 -0.4930  0.5935
  131MOL0     H17282   1.898   7.423   0.412  0.8634 -2.9693 -0.3646
  131MOL0     H17283   2.013   7.532   0.323  0.2122  0.6439 -0.3426
  131MOL0     H17284   2.082   7.328   0.201 -1.2485  0.3106  0.0044
  131MOL0     H17285   2.123   7.319   0.369  1.3540  0.1712 -1.0301
  131MOL0     H17286   1.853   7.211   0.265 -0.7746 -0.3843  0.8962
  131MOL0     H17287   1.916   7.191   0.426 -1.7355  1.5301 -0.9815
  131MOL0     H17288   2.109   7.071   0.344  1.3692  3.3886  0.6410
  131MOL0     H17289   1.961   6.987   0.316  1.3644 -0.7922 -1.8858
  131MOL0     H17290   2.096   7.058  -0.077 -1.1526 -1.9504 -0.4789
  131MOL0     H17291   1.845   7.676   0.386  0.1754 -0.2274 -0.2025
  131MOL0     H17292   1.709   7.863   0.372  1.3310  0.1618 -0.1548
  132MOL0     O17293   0.833   6.896   1.519  0.2199  0.0433  0.0496
  132MOL0     C17294   0.764   6.863   1.620 -0.7736 -0.3649 -0.4048
  132MOL0     O17295   0.816   6.833   1.738 -0.3252 -0.3030 -0.4023
  132MOL0     C17296   0.953   6.826   1.750 -0.6581  0.1327 -0.1409
  132MOL0     C17297   1.034   6.943   1.748 -0.1218  0.7636  0.7448
  132MOL0     C17298   1.165   6.928   1.738  0.3453  0.6872 -0.2041
  132MOL0     C17299   1.234   6.807   1.740  0.6467  1.0264 -0.4458
  132MOL0     O17300   1.367   6.807   1.745 -0.0334 -0.0137  0.6186
  132MOL0     C17301   1.433   6.681   1.761 -0.8386  0.4244  0.4078
  132MOL0     C17302   1.588   6.687   1.727 -0.7242  0.5106 -0.0428
  132MOL0     C17303   1.601   6.743   1.586 -0.2881 -0.1140 -0.0294
  132MOL0     C17304   1.735   6.722   1.508  0.2939 -0.2862  0.3193
  132MOL0     C17305   1.735   6.770   1.351 -0.1213  0.2610 -0.1087
  132MOL0     C17306   1.820   6.895   1.333 -0.4727 -0.1956 -0.7052
  132MOL0     C17307   1.793   6.955   1.198 -0.3786  0.8226  0.6031
  132MOL0     C17308   1.860   6.867   1.090  0.7084 -0.5063  0.8216
  132MOL0     N17309   1.854   6.927   0.953  0.1530  0.4630 -0.0302
  132MOL0     C17310   1.743   6.920   0.865  0.0776  0.2244 -0.4194
  132MOL0     C17311   1.753   7.027   0.781 -0.3580 -0.3322 -0.3278
  132MOL0     C17312   1.654   7.058   0.675  0.7900 -0.0791  0.6196
  132MOL0     C17313   1.651   6.942   0.568  0.3273 -0.6644 -0.6827
  132MOL0     C17314   1.543   6.959   0.459 -0.0901  0.2586 -0.1669
  132MOL0     C17315   1.529   6.834   0.372 -0.4650  0.3373  0.7335
  132MOL0     O17316   1.619   6.861   0.264 -0.7478 -0.4887 -0.1871
  132MOL0     C17317   1.637   6.764   0.172 -0.4631 -0.0975 -0.1220
  132MOL0     C17318   1.737   6.778   0.078 -0.4907  0.1754 -0.3984
  132MOL0     C17319   1.748   6.681  -0.024  0.0631  0.6196 -0.3172
  132MOL0     C17320   1.666   6.565  -0.034 -0.2282 -0.1862  0.7483
  132MOL0     C17321   1.674   6.475  -0.145  0.2344  0.4347  0.3374
  132MOL0     O17322   1.564   6.423  -0.194 -0.2658  0.1295  0.1938
  132MOL0     C17323   1.552   6.358  -0.314  0.1791 -0.2900 -0.2995
  132MOL0     C17324   1.657   6.341  -0.402  0.1259  0.9104  0.1934
  132MOL0     C17325   1.637   6.271  -0.521 -0.3576 -0.3210 -0.2326
  132MOL0     C17326   1.520   6.195  -0.542  0.8473  0.8176  0.0009
  132MOL0     O17327   1.492   6.095  -0.635  0.5854 -0.0616 -0.4042
  132MOL0     C17328   1.516   6.127  -0.769  0.4505  0.1291  0.6756
  132MOL0     C17329   1.483   6.008  -0.859  0.9719 -0.7356 -0.1512
  132MOL0     C17330   1.331   6.003  -0.880  0.9234 -0.0057  0.1009
  132MOL0     C17331   1.301   5.896  -0.988  0.4443 -0.2141 -0.1350
  132MOL0     C17332   1.152   5.885  -1.029 -0.2374 -0.8068 -0.2818
  132MOL0     C17333   1.134   5.859  -1.175 -0.0197  0.3989  0.4242
  132MOL0     C17334   1.195   5.726  -1.220 -0.0679  0.1516  0.7016
  132MOL0     C17335   1.131   5.676  -1.338 -0.1114 -0.0366 -0.1724
  132MOL0    Cl17336   1.213   5.526  -1.376 -0.0651 -0.1390 -0.0853
  132MOL0     C17337   1.422   6.199  -0.447  0.3477  0.2177  0.1979
  132MOL0     C17338   1.440   6.276  -0.329  0.9480 -0.1144  0.0175
  132MOL0     O17339   1.792   6.453  -0.180  0.1367 -0.2840 -0.0168
  132MOL0     C17340   1.565   6.542   0.064 -0.5108 -0.9966  0.2083
  132MOL0     C17341   1.552   6.646   0.160  0.0899 -0.4990 -0.1422
  132MOL0     N17342   1.864   7.097   0.815 -0.4209 -0.1795 -0.4772
  132MOL0     N17343   1.921   7.035   0.905 -0.3029 -0.2290  0.1394
  132MOL0     C17344   1.153   6.695   1.753  0.2446 -0.7628  0.0208
  132MOL0     C17345   1.017   6.709   1.751 -0.1089  0.0780  0.2371
  132MOL0     C17346   0.626   6.852   1.597  0.0141  0.3891 -0.0571
  132MOL0     C17347   0.569   6.861   1.464 -0.6769  0.8510  0.1494
  132MOL0     C17348   0.432   6.871   1.454  0.1493 -0.2638  0.0612
  132MOL0     C17349   0.351   6.858   1.568 -0.7361  0.7349 -0.2094
  132MOL0     O17350   0.215   6.855   1.560 -0.1963 -0.4195 -0.1990
  132MOL0     C17351   0.155   6.926   1.453  0.1094 -1.1601 -0.6658
  132MOL0     C17352   0.015   6.940   1.504 -0.1259 -0.5844  0.5540
  132MOL0     C17353  -0.070   7.001   1.393 -0.4858  0.6656  0.5890
  132MOL0     C17354  -0.216   7.016   1.451  1.0536  0.0664  0.6280
  132MOL0     C17355  -0.321   6.915   1.428  0.5283  0.3037 -0.0393
  132MOL0     C17356  -0.403   6.824   1.404 -0.5861 -0.1227  0.4048
  132MOL0     C17357   0.408   6.836   1.690  0.2183  1.5379 -0.0254
  132MOL0     C17358   0.546   6.826   1.708  0.7572 -0.8509  0.4972
  132MOL0     H17359   0.997   7.044   1.735  0.2879  0.7071 -1.0872
  132MOL0     H17360   1.226   7.015   1.714  1.1661  0.3793  0.7030
  132MOL0     H17361   1.398   6.605   1.690  2.9825 -3.2987  2.0527
  132MOL0     H17362   1.426   6.645   1.864 -0.2372  0.1177  0.3475
  132MOL0     H17363   1.612   6.580   1.725  2.0316  1.0352  0.5459
  132MOL0     H17364   1.654   6.738   1.797  1.2618  0.1786 -1.6069
  132MOL0     H17365   1.583   6.850   1.598 -3.2932  0.0585 -3.9745
  132MOL0     H17366   1.517   6.702   1.528 -4.2502 -1.1767  5.6086
  132MOL0     H17367   1.828   6.755   1.555  0.0133  0.7990  0.1331
  132MOL0     H17368   1.748   6.613   1.510  0.1122 -0.3540 -1.3806
  132MOL0     H17369   1.633   6.787   1.316 -0.2820  0.3282  0.3826
  132MOL0     H17370   1.790   6.696   1.291  1.1207  0.9025  0.1927
  132MOL0     H17371   1.922   6.858   1.345 -0.0037  1.5494  1.4814
  132MOL0     H17372   1.813   6.975   1.408  3.6438  0.0076 -0.3135
  132MOL0     H17373   1.688   6.970   1.173 -0.9188 -2.4518  0.5235
  132MOL0     H17374   1.834   7.056   1.190  2.3951 -0.2147  0.4405
  132MOL0     H17375   1.816   6.767   1.091  0.6066 -0.6489 -3.2744
  132MOL0     H17376   1.967   6.850   1.107  1.3856  0.6677 -1.8261
  132MOL0     H17377   1.654   6.858   0.855 -2.4217  3.1279  1.8934
  132MOL0     H17378   1.676   7.153   0.627  2.1009 -2.1570 -3.3885
  132MOL0     H17379   1.555   7.065   0.722 -0.3529  1.5987 -1.7966
  132MOL0     H17380   1.638   6.844   0.614  0.0752  0.0650  0.8660
  132MOL0     H17381   1.750   6.937   0.521 -0.3229 -2.0860 -1.9751
  132MOL0     H17382   1.454   6.984   0.518  0.9549  0.4945  1.3734
  132MOL0     H17383   1.578   7.044   0.401  1.6501 -0.7245 -0.6247
  132MOL0     H17384   1.426   6.824   0.336 -0.1683 -2.2462  0.3816
  132MOL0     H17385   1.544   6.741   0.429  0.5039  0.0959  0.1040
  132MOL0     H17386   1.814   6.852   0.098  1.0056 -1.5959  0.7653
  132MOL0     H17387   1.829   6.701  -0.093  1.4527  1.6239  1.5179
  132MOL0     H17388   1.752   6.393  -0.404  1.6094 -1.6162 -1.0662
  132MOL0     H17389   1.725   6.262  -0.584  0.6525  3.1166  0.4514
  132MOL0     H17390   1.623   6.143  -0.784  0.6196 -0.6216  1.0658
  132MOL0     H17391   1.468   6.222  -0.798  3.0206  0.6405 -2.5701
  132MOL0     H17392   1.530   5.916  -0.823 -0.4396 -0.8623  1.4555
  132MOL0     H17393   1.516   6.033  -0.961 -1.7671  2.3545 -0.4401
  132MOL0     H17394   1.290   6.099  -0.916 -0.1557  0.6010  2.7329
  132MOL0     H17395   1.274   5.979  -0.790  0.2546 -0.7363 -0.5026
  132MOL0     H17396   1.359   5.906  -1.080 -1.0532 -0.3502 -1.1327
  132MOL0     H17397   1.335   5.801  -0.944  2.0121 -0.5984 -2.0372
  132MOL0     H17398   1.106   5.981  -1.003  1.8049  0.3948 -0.8444
  132MOL0     H17399   1.107   5.805  -0.970 -0.6438  0.5272  1.2941
  132MOL0     H17400   1.179   5.936  -1.237 -0.6282  3.2435  3.2219
  132MOL0     H17401   1.026   5.857  -1.191 -0.1936 -4.0402  0.7256
  132MOL0     H17402   1.297   5.751  -1.251 -1.3501  2.1195 -2.4905
  132MOL0     H17403   1.184   5.644  -1.149 -2.0859 -1.9572 -1.7965
  132MOL0     H17404   1.118   5.735  -1.429 -0.0992 -0.7897 -0.6709
  132MOL0     H17405   1.029   5.642  -1.322 -0.6803  1.3581 -0.6601
  132MOL0     H17406   1.330   6.145  -0.465 -0.4237  1.1962  1.0229
  132MOL0     H17407   1.360   6.275  -0.256 -0.0702  0.0023 -1.0763
  132MOL0     H17408   1.490   6.466   0.043 -1.8131  1.1626 -4.1539
  132MOL0     H17409   1.461   6.637   0.219 -0.9440 -2.3465 -1.9166
  132MOL0     H17410   1.205   6.599   1.747  1.3218 -0.1068 -2.6402
  132MOL0     H17411   0.955   6.620   1.760 -2.1184  1.4894  1.0315
  132MOL0     H17412   0.636   6.890   1.385 -1.0537 -0.5461 -0.7267
  132MOL0     H17413   0.385   6.874   1.357 -1.0974 -0.6614  0.6273
  132MOL0     H17414   0.160   6.864   1.363  0.3863 -1.8361 -0.1975
  132MOL0     H17415   0.204   7.020   1.427 -2.8993 -0.3585 -4.2478
  132MOL0     H17416  -0.025   6.843   1.536 -1.0884 -0.3243  0.1813
  132MOL0     H17417   0.015   7.005   1.592  2.8445 -1.2276  1.1570
  132MOL0     H17418  -0.092   6.935   1.308 -0.3034  1.2945  0.0480
  132MOL0     H17419  -0.010   7.085   1.357  0.1227 -0.0160 -0.0288
  132MOL0     H17420  -0.210   7.013   1.560  3.1998  0.9728  0.5890
  132MOL0     H17421  -0.247   7.118   1.424  1.1835 -0.0544 -0.0029
  132MOL0     H17422  -0.465   6.736   1.407 -2.0286  0.7840 -1.0074
  132MOL0     H17423   0.348   6.846   1.780  2.1362  1.0283  1.3718
  132MOL0     H17424   0.586   6.808   1.807  0.0593 -1.0635  0.7457
  133MOL0     O17425   7.973   1.094   5.938 -0.3351 -0.4061 -0.5554
  133MOL0     C17426   7.972   1.113   6.062  0.3017 -0.5623  0.3070
  133MOL0     O17427   7.870   1.176   6.128 -0.0694 -0.5594 -0.1205
  133MOL0     C17428   7.762   1.226   6.060  0.2016  0.5311  0.4479
  133MOL0     C17429   7.652   1.146   6.056  0.3437  0.2139  0.0425
  133MOL0     C17430   7.536   1.191   5.990  0.4366 -0.1453  0.7374
  133MOL0     C17431   7.529   1.313   5.927 -0.2776 -0.5200 -0.6625
  133MOL0     O17432   7.411   1.362   5.875 -0.0297  0.1556 -0.6196
  133MOL0     C17433   7.411   1.429   5.753  0.2337 -0.3096  0.5586
  133MOL0     C17434   7.300   1.540   5.758 -0.1024 -0.6648  0.1974
  133MOL0     C17435   7.258   1.604   5.618 -0.2388 -0.9836  0.5871
  133MOL0     C17436   7.158   1.713   5.643 -0.5868 -0.3925  0.9046
  133MOL0     C17437   7.131   1.806   5.525  0.9321 -1.1506 -0.4918
  133MOL0     C17438   7.075   1.745   5.395 -0.8086  0.2102  0.3741
  133MOL0     C17439   7.044   1.831   5.272  0.1775 -0.5653 -0.3581
  133MOL0     C17440   6.944   1.939   5.299 -0.6554 -0.0540 -0.3310
  133MOL0     N17441   6.817   1.897   5.366 -1.3863  0.7062  0.2942
  133MOL0     C17442   6.737   1.787   5.331 -0.7084 -0.7538 -0.0180
  133MOL0     C17443   6.660   1.757   5.445  0.5150 -0.3337 -0.7142
  133MOL0     C17444   6.570   1.640   5.469 -1.0856 -0.3631 -0.2443
  133MOL0     C17445   6.488   1.614   5.340 -0.6726 -0.7855  0.4836
  133MOL0     C17446   6.335   1.606   5.375 -0.7319  0.2233 -0.1635
  133MOL0     C17447   6.244   1.595   5.253  0.3844 -0.9106 -0.7294
  133MOL0     O17448   6.152   1.489   5.283  0.3962  1.0594 -0.1862
  133MOL0     C17449   6.055   1.461   5.191  0.2986 -0.8429  0.5448
  133MOL0     C17450   5.968   1.365   5.233  0.4862 -0.6984  0.3220
  133MOL0     C17451   5.845   1.351   5.170  0.2440  0.2753  0.9041
  133MOL0     C17452   5.817   1.419   5.053  0.2112  0.6749  0.2955
  133MOL0     C17453   5.693   1.395   4.963 -0.1314  0.0831 -0.6621
  133MOL0     O17454   5.673   1.479   4.859  0.0747 -0.2701 -0.1803
  133MOL0     C17455   5.570   1.446   4.769  0.3297 -0.4762  0.3669
  133MOL0     C17456   5.553   1.311   4.731 -0.2602 -0.6714 -0.5892
  133MOL0     C17457   5.462   1.285   4.629  0.4776 -0.1479  0.2614
  133MOL0     C17458   5.383   1.385   4.572 -0.6419  1.0780 -0.4287
  133MOL0     O17459   5.269   1.385   4.492  0.1996  0.2894  0.3410
  133MOL0     C17460   5.243   1.254   4.444 -0.3883  1.3981 -0.2257
  133MOL0     C17461   5.130   1.254   4.333  0.3896 -0.9490 -0.5976
  133MOL0     C17462   5.164   1.166   4.203 -0.6580 -0.2295  0.0427
  133MOL0     C17463   5.268   1.244   4.119  0.3204  0.6526 -0.5927
  133MOL0     C17464   5.350   1.163   4.008 -0.5045  0.1400  0.2848
  133MOL0     C17465   5.489   1.214   3.975  0.4819  0.3300  0.3217
  133MOL0     C17466   5.590   1.151   4.068 -0.4175  0.3821 -0.0495
  133MOL0     C17467   5.728   1.227   4.060  0.0629 -0.2819 -0.3193
  133MOL0    Cl17468   5.870   1.161   4.156 -0.1064 -0.3168 -0.6899
  133MOL0     C17469   5.393   1.515   4.615 -0.0570  0.6042 -0.2188
  133MOL0     C17470   5.474   1.547   4.726  1.1543  0.3728  0.4730
  133MOL0     O17471   5.617   1.310   5.009  0.4262 -0.2675  0.2707
  133MOL0     C17472   5.908   1.513   5.001  0.6156  0.5315 -0.3729
  133MOL0     C17473   6.026   1.532   5.076 -0.0597 -0.1006  0.6369
  133MOL0     N17474   6.694   1.860   5.540  0.2882 -0.2620 -1.2391
  133MOL0     N17475   6.787   1.938   5.487 -0.6660  0.4466 -0.5214
  133MOL0     C17476   7.650   1.387   5.933  1.2008 -1.2773  0.5827
  133MOL0     C17477   7.768   1.342   5.988  0.5710  0.1700 -0.6720
  133MOL0     C17478   8.066   1.042   6.148  0.0462  0.2393  0.9987
  133MOL0     C17479   8.176   0.975   6.097 -0.0615 -0.7407  0.7681
  133MOL0     C17480   8.244   0.891   6.182  0.3560 -0.0112 -0.0282
  133MOL0     C17481   8.229   0.895   6.321 -0.9773 -0.6459  0.9113
  133MOL0     O17482   8.306   0.823   6.417 -0.3778 -0.1062 -0.7563
  133MOL0     C17483   8.431   0.762   6.382  0.2743 -0.9241 -0.1956
  133MOL0     C17484   8.522   0.711   6.495 -0.0703 -0.3464 -0.6332
  133MOL0     C17485   8.644   0.633   6.451  1.1443 -0.3939  0.4552
  133MOL0     C17486   8.640   0.480   6.487 -1.2171  0.8556 -0.1357
  133MOL0     C17487   8.772   0.424   6.478 -0.3422  0.5184  0.4334
  133MOL0     C17488   8.881   0.373   6.498 -0.1350 -0.7457 -0.2327
  133MOL0     C17489   8.126   0.969   6.373 -0.2301  0.0941 -0.9703
  133MOL0     C17490   8.040   1.034   6.287 -0.3570  0.1070 -0.4567
  133MOL0     H17491   7.644   1.047   6.100  0.3250  0.6426  1.0252
  133MOL0     H17492   7.451   1.125   5.987  2.4653 -2.9077  0.4655
  133MOL0     H17493   7.377   1.374   5.664  0.5836 -0.3147  0.4245
  133MOL0     H17494   7.502   1.482   5.725 -2.1480  2.2590 -3.1831
  133MOL0     H17495   7.352   1.617   5.814  2.1614 -1.4953 -0.6505
  133MOL0     H17496   7.213   1.513   5.820 -0.8267  0.1529 -0.4404
  133MOL0     H17497   7.221   1.525   5.552  1.8785 -0.7919 -0.9507
  133MOL0     H17498   7.347   1.648   5.572  0.2422 -1.1834  1.3068
  133MOL0     H17499   7.067   1.663   5.679 -1.4733  1.6067  1.5507
  133MOL0     H17500   7.197   1.773   5.725  0.3845 -0.8758  0.8110
  133MOL0     H17501   7.212   1.874   5.496 -0.3916  0.9230  0.4080
  133MOL0     H17502   7.051   1.866   5.569  2.7234  0.0180  1.3726
  133MOL0     H17503   6.996   1.670   5.409  1.2538 -2.3862 -0.9290
  133MOL0     H17504   7.145   1.669   5.361 -2.3230 -0.8934 -0.4121
  133MOL0     H17505   7.135   1.883   5.241  0.8108 -1.2385  0.3344
  133MOL0     H17506   7.012   1.771   5.187 -0.4204  0.5714 -0.9670
  133MOL0     H17507   6.922   1.988   5.203 -1.3110 -0.2307 -0.2780
  133MOL0     H17508   6.997   2.023   5.345 -0.1414  0.0858 -1.1587
  133MOL0     H17509   6.755   1.732   5.239  2.9161  1.8809 -1.1532
  133MOL0     H17510   6.506   1.658   5.556  0.3548 -1.1235  1.0110
  133MOL0     H17511   6.635   1.555   5.488 -0.2695  0.2243 -0.3295
  133MOL0     H17512   6.522   1.523   5.289 -0.8836  0.3625 -1.8309
  133MOL0     H17513   6.505   1.700   5.275 -0.0509  0.4318  2.1981
  133MOL0     H17514   6.317   1.519   5.439  1.2484 -0.9981 -1.1483
  133MOL0     H17515   6.312   1.698   5.429  2.9478 -0.3850  2.8899
  133MOL0     H17516   6.303   1.571   5.164  3.0375  2.9678 -0.2422
  133MOL0     H17517   6.203   1.696   5.248  2.7467  0.4539  3.0170
  133MOL0     H17518   5.993   1.294   5.311 -0.6844 -2.5699 -0.9181
  133MOL0     H17519   5.778   1.280   5.216 -0.9196  0.2171 -0.8090
  133MOL0     H17520   5.618   1.237   4.776 -0.8070 -1.0014 -0.3194
  133MOL0     H17521   5.438   1.182   4.606 -1.8360  0.7701 -1.9048
  133MOL0     H17522   5.230   1.188   4.530 -1.0573  1.8635  0.0311
  133MOL0     H17523   5.334   1.214   4.396  1.6488  0.4927  3.9047
  133MOL0     H17524   5.121   1.356   4.297 -0.5610 -0.6791  0.3634
  133MOL0     H17525   5.035   1.221   4.375  0.8081 -2.1169 -0.5123
  133MOL0     H17526   5.073   1.143   4.148  0.1333 -3.4530 -0.0924
  133MOL0     H17527   5.198   1.068   4.237  0.4849 -1.1249 -3.3559
  133MOL0     H17528   5.224   1.334   4.077  0.0429  1.0233  0.4663
  133MOL0     H17529   5.343   1.263   4.197 -2.2239 -0.7156  2.3983
  133MOL0     H17530   5.294   1.182   3.916  0.3639  3.6634  0.3482
  133MOL0     H17531   5.348   1.057   4.035 -3.0270  0.5089  1.7588
  133MOL0     H17532   5.487   1.323   3.984  4.2417  0.4144  1.9337
  133MOL0     H17533   5.514   1.194   3.871  2.1604 -2.1561  1.1169
  133MOL0     H17534   5.557   1.138   4.171  0.8191 -2.8054  0.0662
  133MOL0     H17535   5.608   1.051   4.027 -1.3644  0.9755 -2.0484
  133MOL0     H17536   5.700   1.331   4.084 -1.9141 -0.5445 -1.2476
  133MOL0     H17537   5.763   1.231   3.957 -1.8162  1.1918 -0.9625
  133MOL0     H17538   5.321   1.588   4.582  0.3480  0.2598 -1.9819
  133MOL0     H17539   5.453   1.648   4.760 -4.4507 -0.7865  1.4109
  133MOL0     H17540   5.894   1.591   4.928  1.6400  2.4150  1.3587
  133MOL0     H17541   6.104   1.606   5.061  0.3012 -0.6132 -0.0659
  133MOL0     H17542   7.638   1.488   5.894 -1.3767 -1.1813  1.4563
  133MOL0     H17543   7.851   1.411   5.995 -0.6956  1.6595  0.9035
  133MOL0     H17544   8.197   0.968   5.990  0.6451  2.2692  0.6256
  133MOL0     H17545   8.326   0.826   6.152  0.9484  1.3124 -1.4612
  133MOL0     H17546   8.486   0.836   6.323 -1.7620  2.3933  1.7752
  133MOL0     H17547   8.401   0.675   6.323 -0.1371 -0.6937 -0.3302
  133MOL0     H17548   8.557   0.796   6.556 -2.3096 -0.4701  0.9412
  133MOL0     H17549   8.467   0.653   6.569 -2.9655  1.7386 -0.9549
  133MOL0     H17550   8.732   0.680   6.495  0.1813  1.3270  0.6364
  133MOL0     H17551   8.666   0.645   6.345  1.0326  2.1577  0.6673
  133MOL0     H17552   8.613   0.468   6.592 -0.1980 -2.2777 -0.1393
  133MOL0     H17553   8.580   0.426   6.413  1.3281 -0.8329 -1.0926
  133MOL0     H17554   8.980   0.338   6.514  0.9076  1.8378 -0.4563
  133MOL0     H17555   8.092   0.985   6.475 -3.5971  1.7855 -2.1930
  133MOL0     H17556   7.963   1.091   6.337 -0.4617 -2.8670  3.2068
  134MOL0     O17557   0.959   4.191   8.260 -0.3381  0.0234  0.0631
  134MOL0     C17558   0.897   4.273   8.321  0.4711  0.0354  0.9115
  134MOL0     O17559   0.762   4.291   8.325  0.4165  0.7068 -0.7505
  134MOL0     C17560   0.674   4.250   8.227 -0.7218  0.5988  0.0482
  134MOL0     C17561   0.602   4.336   8.137 -0.8112  0.1344  0.2660
  134MOL0     C17562   0.517   4.303   8.039 -0.5784  1.0784  0.4799
  134MOL0     C17563   0.502   4.170   8.006 -0.0955 -0.3593  0.6540
  134MOL0     O17564   0.418   4.139   7.905 -0.6194 -0.8200  0.1697
  134MOL0     C17565   0.462   4.039   7.824  0.5174  1.1904 -0.0205
  134MOL0     C17566   0.377   4.048   7.693 -0.4817 -0.3471  0.2205
  134MOL0     C17567   0.392   4.166   7.592 -0.7140 -0.0790 -0.3815
  134MOL0     C17568   0.323   4.146   7.458 -0.2785  0.2574 -0.5841
  134MOL0     C17569   0.174   4.197   7.467 -0.2712  0.4517 -0.0280
  134MOL0     C17570   0.083   4.148   7.350 -1.1155 -0.5035 -0.3109
  134MOL0     C17571   0.094   4.233   7.224  0.0297  0.4291 -0.1116
  134MOL0     C17572   0.004   4.172   7.123 -0.3178 -0.6305  0.4810
  134MOL0     N17573   0.017   4.240   6.994  0.2063 -0.3997  1.0152
  134MOL0     C17574  -0.061   4.340   6.965  0.4089 -0.2184 -0.1006
  134MOL0     C17575  -0.056   4.354   6.835  0.5921  0.2864 -0.1505
  134MOL0     C17576  -0.121   4.457   6.750  0.1744 -0.0396 -0.3084
  134MOL0     C17577  -0.257   4.496   6.813 -1.0762 -0.4583 -0.8407
  134MOL0     C17578  -0.306   4.637   6.750 -0.6004  0.2788  0.1964
  134MOL0     C17579  -0.281   4.637   6.592  0.2464  0.2150  0.4714
  134MOL0     O17580  -0.347   4.755   6.524 -0.2365  0.1696  0.8994
  134MOL0     C17581  -0.488   4.755   6.516 -0.2513  0.7466  0.1312
  134MOL0     C17582  -0.587   4.658   6.561 -0.9175 -0.1843  0.4300
  134MOL0     C17583  -0.712   4.709   6.566 -0.2252  0.1589  0.5709
  134MOL0     C17584  -0.751   4.838   6.509 -0.1037  0.1937 -0.6268
  134MOL0     C17585  -0.889   4.893   6.532 -0.5917 -0.5384  0.1181
  134MOL0     O17586  -0.927   4.998   6.459  0.3265  0.2324  0.3741
  134MOL0     C17587  -1.054   5.054   6.493 -0.3284 -0.6771  0.0141
  134MOL0     C17588  -1.050   5.189   6.521 -0.2013  0.1112  0.1253
  134MOL0     C17589  -1.167   5.254   6.559 -0.3622 -0.6004  0.3923
  134MOL0     C17590  -1.292   5.196   6.547 -0.1881 -0.4213 -0.1617
  134MOL0     O17591  -1.397   5.281   6.577  0.1398  0.1796  0.4388
  134MOL0     C17592  -1.532   5.232   6.583 -0.1763  0.3559  1.0374
  134MOL0     C17593  -1.633   5.324   6.654 -0.2439 -0.1884  0.7746
  134MOL0     C17594  -1.645   5.480   6.625 -0.5843  0.3186 -0.1397
  134MOL0     C17595  -1.701   5.533   6.754  0.3086 -0.8186 -1.4466
  134MOL0     C17596  -1.721   5.692   6.739  0.7673  0.7911 -0.0463
  134MOL0     C17597  -1.724   5.746   6.878 -0.7138 -0.4415  0.4714
  134MOL0     C17598  -1.757   5.894   6.892  1.0934  0.1295  0.3057
  134MOL0     C17599  -1.843   5.916   7.025 -0.4905 -0.3479  1.0544
  134MOL0    Cl17600  -1.746   5.861   7.166 -0.2292 -0.2076 -0.2659
  134MOL0     C17601  -1.295   5.065   6.517 -0.2729 -0.6203 -0.4401
  134MOL0     C17602  -1.183   4.992   6.492 -1.0691 -0.0183  0.3996
  134MOL0     O17603  -0.955   4.836   6.619  0.3785  0.4506  0.4574
  134MOL0     C17604  -0.657   4.919   6.459  0.1318  0.4598 -0.0277
  134MOL0     C17605  -0.519   4.884   6.463  0.1546 -0.0335  0.4206
  134MOL0     N17606   0.031   4.261   6.785  0.5918 -0.5526  0.2701
  134MOL0     N17607   0.081   4.196   6.877  0.1958  0.8535 -0.2552
  134MOL0     C17608   0.568   4.079   8.090  0.7482  0.5800 -0.7792
  134MOL0     C17609   0.650   4.116   8.204 -0.2473 -0.5617  0.3164
  134MOL0     C17610   0.978   4.353   8.423  0.2754 -0.0065 -1.0476
  134MOL0     C17611   0.932   4.466   8.482  0.2184 -0.5376  0.1074
  134MOL0     C17612   1.001   4.536   8.575  0.0199  0.3117 -0.5652
  134MOL0     C17613   1.135   4.505   8.600  0.0436 -0.4294  1.1206
  134MOL0     O17614   1.211   4.574   8.685 -0.0667  0.1509 -0.4101
  134MOL0     C17615   1.129   4.649   8.781 -0.4535  0.5555 -0.0052
  134MOL0     C17616   1.213   4.688   8.900 -0.2592  0.6221 -0.3680
  134MOL0     C17617   1.128   4.718   9.026 -0.1444  0.1511  0.3881
  134MOL0     C17618   1.134   4.866   9.063  0.1936 -0.3752  0.8367
  134MOL0     C17619   1.275   4.892   9.114  0.6018 -0.1684  0.5579
  134MOL0     C17620   1.386   4.928   9.149  1.1494  0.4455  0.0341
  134MOL0     C17621   1.197   4.402   8.530 -0.0192 -0.2261  0.6538
  134MOL0     C17622   1.117   4.323   8.449 -0.8800 -0.3209 -0.1648
  134MOL0     H17623   0.621   4.440   8.161 -3.1504  0.1944  2.2674
  134MOL0     H17624   0.467   4.385   7.988  0.9995  2.3992  0.9808
  134MOL0     H17625   0.423   3.947   7.868 -0.1057  2.0664  1.3249
  134MOL0     H17626   0.570   4.035   7.808  0.8879  1.1216  2.1582
  134MOL0     H17627   0.272   4.063   7.717 -1.2883 -2.1421 -1.8736
  134MOL0     H17628   0.390   3.952   7.642  1.9381  0.1808 -0.2930
  134MOL0     H17629   0.494   4.169   7.552 -1.0406  0.8061 -1.2090
  134MOL0     H17630   0.374   4.257   7.651 -2.8255 -0.3904 -0.4730
  134MOL0     H17631   0.370   4.210   7.382 -3.3869  3.6021  0.0397
  134MOL0     H17632   0.339   4.041   7.430  2.6442  0.2240  0.8671
  134MOL0     H17633   0.185   4.306   7.468  2.4823  0.2801 -1.0992
  134MOL0     H17634   0.141   4.160   7.564  0.0567  1.8914  0.6629
  134MOL0     H17635  -0.018   4.165   7.388 -0.9429 -1.7669  0.7712
  134MOL0     H17636   0.101   4.044   7.324  2.0309  0.2548 -1.6270
  134MOL0     H17637   0.067   4.336   7.249 -1.2343 -0.2893  1.6273
  134MOL0     H17638   0.199   4.236   7.191  0.7401  0.7210  2.0100
  134MOL0     H17639  -0.096   4.180   7.166 -0.2165 -1.3387  0.8728
  134MOL0     H17640   0.038   4.069   7.107 -0.2303 -0.8603  1.9674
  134MOL0     H17641  -0.114   4.402   7.036  0.3155 -0.7060  0.2548
  134MOL0     H17642  -0.123   4.418   6.647  1.3000 -2.7915  0.6119
  134MOL0     H17643  -0.051   4.541   6.748  2.8674 -2.1510 -1.7875
  134MOL0     H17644  -0.249   4.512   6.921 -1.0624 -0.5349 -0.8302
  134MOL0     H17645  -0.331   4.417   6.795  0.6435 -1.6199 -3.5991
  134MOL0     H17646  -0.406   4.666   6.785  0.4146  3.2030  0.9886
  134MOL0     H17647  -0.242   4.722   6.775  0.0262 -0.5837  1.6623
  134MOL0     H17648  -0.323   4.551   6.540 -3.0871  2.7650 -1.4683
  134MOL0     H17649  -0.172   4.629   6.579  0.3399  0.2827  1.1654
  134MOL0     H17650  -0.562   4.563   6.606  3.2263  0.4581 -0.1292
  134MOL0     H17651  -0.797   4.652   6.603 -0.2904 -0.5565 -0.6463
  134MOL0     H17652  -0.953   5.233   6.540 -0.1660 -0.9363  2.8276
  134MOL0     H17653  -1.155   5.354   6.599 -1.2561 -0.9818  1.6897
  134MOL0     H17654  -1.531   5.132   6.627  1.7070 -1.1440 -2.0379
  134MOL0     H17655  -1.572   5.211   6.483 -0.7521 -1.7758  1.6685
  134MOL0     H17656  -1.593   5.315   6.755  3.4657  1.9182 -0.3112
  134MOL0     H17657  -1.732   5.279   6.648 -1.4204  2.2221  0.9842
  134MOL0     H17658  -1.692   5.496   6.528 -1.1803  0.0527  0.0988
  134MOL0     H17659  -1.542   5.513   6.607 -1.1051  0.8073 -2.5515
  134MOL0     H17660  -1.795   5.490   6.789 -0.6535  1.5133 -0.9281
  134MOL0     H17661  -1.618   5.511   6.822  0.8423 -0.5876 -2.0033
  134MOL0     H17662  -1.815   5.711   6.686 -0.6459  2.4166  2.8266
  134MOL0     H17663  -1.655   5.754   6.676 -2.0436  4.3699  0.1945
  134MOL0     H17664  -1.626   5.742   6.925  1.0949  0.1248 -2.9291
  134MOL0     H17665  -1.800   5.684   6.926 -2.0340  1.1984  0.6182
  134MOL0     H17666  -1.666   5.954   6.898  0.5941  0.8199  1.0768
  134MOL0     H17667  -1.818   5.915   6.803 -1.7317 -0.8615  1.8611
  134MOL0     H17668  -1.941   5.867   7.019  1.5055 -4.5856 -1.2764
  134MOL0     H17669  -1.861   6.024   7.032 -2.3126 -0.4933 -0.5781
  134MOL0     H17670  -1.384   5.004   6.528  0.0886 -1.5005 -2.0226
  134MOL0     H17671  -1.195   4.888   6.465  0.2178 -0.1405  0.2284
  134MOL0     H17672  -0.689   5.021   6.441 -0.1607  0.5347  0.8624
  134MOL0     H17673  -0.453   4.960   6.423 -0.9773  1.4360  1.2382
  134MOL0     H17674   0.553   3.975   8.063 -0.6456  1.2445 -2.8109
  134MOL0     H17675   0.705   4.038   8.257 -1.7655 -1.4014  0.7323
  134MOL0     H17676   0.825   4.476   8.468  0.6310  1.1835 -2.6349
  134MOL0     H17677   0.942   4.612   8.625 -0.0842  1.4354 -2.3154
  134MOL0     H17678   1.048   4.585   8.819 -2.7104  2.4739 -1.3286
  134MOL0     H17679   1.091   4.738   8.729 -1.2119 -0.9474 -2.2003
  134MOL0     H17680   1.257   4.592   8.927 -1.1916  0.0894 -0.7046
  134MOL0     H17681   1.294   4.760   8.885 -1.1758  2.0233  1.0698
  134MOL0     H17682   1.166   4.665   9.115 -3.3472 -1.4197  0.9532
  134MOL0     H17683   1.025   4.682   9.025  0.2838 -1.1559 -1.5214
  134MOL0     H17684   1.118   4.933   8.978  2.9191 -1.5647 -0.7191
  134MOL0     H17685   1.053   4.893   9.132 -3.2218  1.3346 -3.3944
  134MOL0     H17686   1.486   4.961   9.170  1.2676 -0.7399  1.4608
  134MOL0     H17687   1.302   4.381   8.545  0.8348  3.6483  1.0399
  134MOL0     H17688   1.153   4.238   8.392 -0.0354  0.3285 -0.6109
  135MOL0     O17689   9.087   3.041   2.544  0.7343  0.4870 -0.0935
  135MOL0     C17690   9.018   3.087   2.631 -0.7899 -0.1068 -0.0640
  135MOL0     O17691   8.881   3.087   2.637 -1.0064  1.0682 -0.1208
  135MOL0     C17692   8.816   3.025   2.531  0.6544  0.2067 -0.3145
  135MOL0     C17693   8.684   2.971   2.561  0.3044 -0.2111  0.5622
  135MOL0     C17694   8.619   2.893   2.464 -0.3123 -0.7762  0.7812
  135MOL0     C17695   8.689   2.856   2.342 -0.0335 -0.2824  0.8569
  135MOL0     O17696   8.613   2.770   2.259  0.3753 -0.3179 -0.2684
  135MOL0     C17697   8.628   2.764   2.115  0.0451  0.0477 -0.0681
  135MOL0     C17698   8.542   2.657   2.050  0.0723 -0.8209  0.0481
  135MOL0     C17699   8.579   2.637   1.910  0.1013  0.7081  1.1765
  135MOL0     C17700   8.719   2.583   1.891  0.0179 -0.0375 -0.2109
  135MOL0     C17701   8.741   2.527   1.753  0.8686 -0.7623 -0.4889
  135MOL0     C17702   8.877   2.448   1.770  0.1153 -0.9073 -0.5949
  135MOL0     C17703   8.926   2.382   1.645 -0.7922  0.6797 -0.4377
  135MOL0     C17704   9.059   2.310   1.661  0.3112  0.1229 -0.8650
  135MOL0     N17705   9.088   2.257   1.532  0.3473  0.4980 -0.4032
  135MOL0     C17706   9.147   2.326   1.428 -0.1322 -0.1135  0.1778
  135MOL0     C17707   9.142   2.234   1.333 -0.4988  0.1180 -0.0180
  135MOL0     C17708   9.208   2.262   1.204 -0.2373 -0.7013  0.2656
  135MOL0     C17709   9.356   2.214   1.184 -0.8093 -0.8350  0.5279
  135MOL0     C17710   9.390   2.073   1.246 -0.1475 -0.0895  0.1914
  135MOL0     C17711   9.517   2.012   1.178 -0.7246 -0.0852  0.1934
  135MOL0     O17712   9.479   1.894   1.096 -0.0534 -0.8186  0.3380
  135MOL0     C17713   9.552   1.872   0.987 -0.5057  0.0400 -0.6335
  135MOL0     C17714   9.502   1.888   0.856 -0.1582 -0.1202 -0.6614
  135MOL0     C17715   9.566   1.852   0.744  0.2154  0.8151  0.0606
  135MOL0     C17716   9.696   1.811   0.746  0.4044  0.3695 -0.4843
  135MOL0     C17717   9.763   1.776   0.620  0.1328 -0.0712  0.8819
  135MOL0     O17718   9.688   1.757   0.504  0.7710 -0.2608 -0.6106
  135MOL0     C17719   9.752   1.729   0.389 -0.1555 -0.1648  0.3349
  135MOL0     C17720   9.747   1.601   0.347  0.4609 -0.1964 -0.3861
  135MOL0     C17721   9.822   1.559   0.242  0.3431  0.6249  0.7875
  135MOL0     C17722   9.907   1.646   0.170  0.9108  0.6499 -0.7490
  135MOL0     O17723   9.989   1.587   0.081 -0.3518 -0.2060  0.9185
  135MOL0     C17724  10.054   1.664  -0.022 -0.7389 -0.9568 -0.3036
  135MOL0     C17725   9.973   1.726  -0.135 -0.1159 -0.6905 -0.1759
  135MOL0     C17726   9.975   1.643  -0.265  0.1923 -0.5581 -0.6053
  135MOL0     C17727   9.876   1.717  -0.353 -0.1796  0.6890  0.0192
  135MOL0     C17728   9.890   1.694  -0.503  0.5672  0.6218  0.2378
  135MOL0     C17729   9.781   1.590  -0.538 -0.0601 -0.0522  0.2630
  135MOL0     C17730   9.774   1.574  -0.689 -0.5260 -0.0523 -0.2189
  135MOL0     C17731   9.722   1.438  -0.752  1.2135  0.2458 -0.7507
  135MOL0    Cl17732   9.541   1.431  -0.714  0.0769 -0.0910  0.0859
  135MOL0     C17733   9.916   1.775   0.215 -0.2379  0.1211  0.3430
  135MOL0     C17734   9.838   1.817   0.324 -0.0929 -0.0985  0.0312
  135MOL0     O17735   9.885   1.777   0.621 -0.4818 -0.2697  0.9941
  135MOL0     C17736   9.759   1.798   0.870 -0.5605  1.0819  0.5238
  135MOL0     C17737   9.687   1.834   0.992 -0.9158  0.8472  0.9016
  135MOL0     N17738   9.090   2.113   1.369  0.0907 -0.1111 -0.0243
  135MOL0     N17739   9.044   2.134   1.487 -0.0524  0.7432 -0.1004
  135MOL0     C17740   8.807   2.917   2.308  0.4147  0.6052  0.4707
  135MOL0     C17741   8.869   2.998   2.402 -1.3080 -0.3328 -0.7246
  135MOL0     C17742   9.085   3.141   2.751 -0.1440 -0.3453 -0.3433
  135MOL0     C17743   9.217   3.089   2.784 -0.1256 -0.4760  0.2225
  135MOL0     C17744   9.263   3.126   2.910 -0.0812  0.9783  0.1389
  135MOL0     C17745   9.199   3.221   2.993  0.0842 -0.3696  0.4614
  135MOL0     O17746   9.265   3.273   3.103  0.2548  0.6743  0.7473
  135MOL0     C17747   9.299   3.168   3.192  0.0091 -0.0078  0.1982
  135MOL0     C17748   9.258   3.206   3.336 -0.0272  0.2962  0.8108
  135MOL0     C17749   9.272   3.085   3.425  0.3349  1.1110  0.1650
  135MOL0     C17750   9.419   3.050   3.479  0.0357 -0.8835 -0.3111
  135MOL0     C17751   9.452   3.158   3.563 -1.1541 -0.5448  0.2921
  135MOL0     C17752   9.496   3.249   3.632  1.0507  0.7434 -0.6512
  135MOL0     C17753   9.083   3.267   2.951 -0.7680 -0.9005  0.3333
  135MOL0     C17754   9.024   3.221   2.842  0.0859 -1.4409 -0.4865
  135MOL0     H17755   8.642   2.991   2.660 -0.8715  2.8857 -0.4381
  135MOL0     H17756   8.519   2.852   2.471 -1.1400  0.8241 -0.7702
  135MOL0     H17757   8.732   2.734   2.101  0.3067  1.1555 -0.5830
  135MOL0     H17758   8.609   2.863   2.072  1.3272  0.1965 -0.3122
  135MOL0     H17759   8.437   2.684   2.062  0.7493  1.9286  0.3945
  135MOL0     H17760   8.561   2.559   2.095  3.3034 -0.8970 -1.2342
  135MOL0     H17761   8.583   2.734   1.858  4.3037  2.2588  3.8483
  135MOL0     H17762   8.514   2.560   1.869  1.0319 -2.1829  4.6115
  135MOL0     H17763   8.791   2.665   1.898  0.7570 -0.5404 -1.6284
  135MOL0     H17764   8.726   2.519   1.980 -3.3983 -1.6248 -0.9184
  135MOL0     H17765   8.734   2.603   1.675  0.9772  0.4476  0.6452
  135MOL0     H17766   8.672   2.444   1.734 -0.0193  0.2572 -1.8844
  135MOL0     H17767   8.869   2.371   1.848  1.9221 -2.8476 -2.2143
  135MOL0     H17768   8.955   2.510   1.816 -0.4369 -3.0232  3.7438
  135MOL0     H17769   8.843   2.316   1.619 -0.3388  0.7144 -2.0675
  135MOL0     H17770   8.938   2.452   1.563  0.8578  1.3356  0.3267
  135MOL0     H17771   9.047   2.243   1.746  2.8643  1.1445  0.4080
  135MOL0     H17772   9.140   2.374   1.699  0.1926 -0.5822  0.6307
  135MOL0     H17773   9.181   2.428   1.413  1.2598 -0.4616  0.7193
  135MOL0     H17774   9.196   2.368   1.180 -1.3545 -0.2357  2.5966
  135MOL0     H17775   9.140   2.214   1.133 -0.8869  1.9185 -1.0146
  135MOL0     H17776   9.428   2.283   1.231 -0.3394 -0.2368 -1.0232
  135MOL0     H17777   9.367   2.206   1.076 -1.2714 -0.1613  0.4257
  135MOL0     H17778   9.395   2.068   1.355 -3.0596 -3.4403  0.3647
  135MOL0     H17779   9.302   2.012   1.224  0.3343 -0.2830 -1.3326
  135MOL0     H17780   9.586   1.988   1.258 -0.1479 -2.5676 -0.9498
  135MOL0     H17781   9.567   2.085   1.113  1.3182 -1.8602 -0.3122
  135MOL0     H17782   9.397   1.911   0.846 -0.2629 -1.2657 -2.8357
  135MOL0     H17783   9.497   1.857   0.661 -2.4553  0.6012  2.1448
  135MOL0     H17784   9.675   1.532   0.390  3.1154 -1.7161  1.9817
  135MOL0     H17785   9.799   1.461   0.202 -2.3057  2.1459 -1.7857
  135MOL0     H17786  10.124   1.593  -0.068 -1.9468 -2.4333  0.0431
  135MOL0     H17787  10.104   1.749   0.025  0.3215 -1.7488  0.0430
  135MOL0     H17788  10.032   1.815  -0.158 -1.1346 -0.2516 -1.1662
  135MOL0     H17789   9.869   1.751  -0.112 -0.3877 -0.8305 -1.2316
  135MOL0     H17790   9.952   1.539  -0.240  1.5881 -1.0952 -1.3825
  135MOL0     H17791  10.071   1.639  -0.318  0.7532 -0.9231  0.4037
  135MOL0     H17792   9.777   1.700  -0.311 -0.0370  2.0519  0.9510
  135MOL0     H17793   9.897   1.824  -0.342 -2.1366  1.2473 -1.1681
  135MOL0     H17794   9.990   1.656  -0.525 -0.8678 -3.2487 -0.3224
  135MOL0     H17795   9.868   1.790  -0.552 -1.2870  0.6352  1.0314
  135MOL0     H17796   9.685   1.620  -0.494  0.2768  4.4734 -1.5746
  135MOL0     H17797   9.810   1.489  -0.508  2.8333 -0.3322 -2.9182
  135MOL0     H17798   9.705   1.646  -0.735 -3.0339 -0.0483  3.1827
  135MOL0     H17799   9.868   1.592  -0.741  1.1566 -1.4707  2.1496
  135MOL0     H17800   9.777   1.348  -0.725 -0.0110 -1.6025 -3.8826
  135MOL0     H17801   9.745   1.446  -0.859  2.2346  2.4089 -0.4292
  135MOL0     H17802   9.987   1.848   0.174 -1.6372  2.7804  2.3627
  135MOL0     H17803   9.848   1.917   0.365  1.0768  0.6504 -1.9051
  135MOL0     H17804   9.863   1.773   0.882 -0.6865 -0.0861 -0.6577
  135MOL0     H17805   9.746   1.828   1.083 -0.6607  0.5984  0.7235
  135MOL0     H17806   8.848   2.918   2.208 -0.8407  0.4520 -0.0646
  135MOL0     H17807   8.968   3.019   2.363 -1.3251 -1.1325 -1.2092
  135MOL0     H17808   9.275   3.032   2.713 -2.8236 -0.7864 -1.8865
  135MOL0     H17809   9.365   3.094   2.926 -0.3755 -1.1519 -1.7235
  135MOL0     H17810   9.402   3.130   3.188 -0.0764 -0.2301  0.0734
  135MOL0     H17811   9.242   3.079   3.163  1.5888 -0.1310 -2.8579
  135MOL0     H17812   9.317   3.294   3.364  0.0568  0.8716 -1.0324
  135MOL0     H17813   9.152   3.232   3.333  0.0725  0.6380 -0.4620
  135MOL0     H17814   9.255   2.995   3.364 -2.9368  1.9227 -0.3022
  135MOL0     H17815   9.196   3.104   3.500 -1.4650  0.1599 -1.3276
  135MOL0     H17816   9.431   2.954   3.530  5.0250  0.0667  0.8012
  135MOL0     H17817   9.498   3.053   3.403  1.9399  0.1537  1.6178
  135MOL0     H17818   9.528   3.317   3.708  6.2035 -0.7106 -1.0906
  135MOL0     H17819   9.033   3.332   3.022 -2.0818 -0.7202 -0.7261
  135MOL0     H17820   8.922   3.254   2.830  0.3685 -0.0895  0.6195
  136MOL0     O17821   7.171   6.838   4.228 -0.0414  0.5705 -0.1711
  136MOL0     C17822   7.179   6.746   4.141  0.4808 -0.3526 -1.3747
  136MOL0     O17823   7.081   6.658   4.112  0.2083  1.2372 -0.2141
  136MOL0     C17824   6.946   6.669   4.142 -0.1801 -0.6411 -0.4731
  136MOL0     C17825   6.866   6.551   4.145 -0.0133  0.9542 -0.0246
  136MOL0     C17826   6.729   6.562   4.148 -0.2054 -0.2984 -0.2894
  136MOL0     C17827   6.670   6.688   4.177  0.0315 -1.7141  0.1164
  136MOL0     O17828   6.537   6.695   4.202 -0.6391 -0.4422  0.5198
  136MOL0     C17829   6.464   6.579   4.221  0.2099 -0.0128 -0.1583
  136MOL0     C17830   6.330   6.592   4.286  0.6465 -0.3752 -0.7851
  136MOL0     C17831   6.345   6.625   4.440 -0.0737 -0.1036 -0.8695
  136MOL0     C17832   6.194   6.649   4.491  0.0659  0.7369 -0.6371
  136MOL0     C17833   6.160   6.637   4.636 -0.0581  0.2994  0.2631
  136MOL0     C17834   6.231   6.732   4.729 -0.4240  0.0243 -0.5653
  136MOL0     C17835   6.171   6.751   4.871 -0.2483  0.0396  0.3995
  136MOL0     C17836   6.038   6.824   4.876 -0.4622  0.4734  0.0634
  136MOL0     N17837   6.028   6.891   5.010 -0.3568 -0.7599 -0.7951
  136MOL0     C17838   5.981   7.022   5.036  0.5615  0.1065  0.1950
  136MOL0     C17839   5.978   7.030   5.174  0.1182 -0.4638 -1.1774
  136MOL0     C17840   5.917   7.155   5.243 -0.1966  0.0974 -0.2665
  136MOL0     C17841   5.915   7.152   5.386  1.2016  0.3886 -1.8624
  136MOL0     C17842   6.052   7.157   5.458  0.4580 -0.2723  0.5376
  136MOL0     C17843   6.047   7.274   5.570 -0.5885 -0.7879  0.0084
  136MOL0     O17844   5.952   7.253   5.673  0.0476 -0.0056 -0.3314
  136MOL0     C17845   5.979   7.323   5.789  0.5299  0.4832  0.3005
  136MOL0     C17846   6.035   7.447   5.807  0.5042  0.7405  0.8703
  136MOL0     C17847   6.065   7.497   5.940  0.1671 -0.2191 -0.6334
  136MOL0     C17848   6.040   7.424   6.049 -0.0789  0.3396  0.5974
  136MOL0     C17849   6.059   7.474   6.184 -0.9669 -0.9050  0.1745
  136MOL0     O17850   6.161   7.564   6.199  0.1110 -0.1591 -0.4762
  136MOL0     C17851   6.172   7.611   6.330 -0.3737  0.2851 -0.4722
  136MOL0     C17852   6.289   7.561   6.397  0.1664  0.6341 -0.4641
  136MOL0     C17853   6.300   7.597   6.529 -0.3105  0.4105  0.3465
  136MOL0     C17854   6.207   7.681   6.593  0.0476  0.1949  0.0739
  136MOL0     O17855   6.225   7.728   6.716 -0.6141  0.6031  0.4233
  136MOL0     C17856   6.238   7.640   6.826  0.0634  0.1093  1.0460
  136MOL0     C17857   6.214   7.690   6.968  0.1770  1.0661 -0.1490
  136MOL0     C17858   6.295   7.631   7.093 -0.0099  1.2804  0.5296
  136MOL0     C17859   6.266   7.483   7.125  0.2685  0.9160  0.4751
  136MOL0     C17860   6.133   7.470   7.214 -0.6418  0.6937 -0.4288
  136MOL0     C17861   6.105   7.324   7.249 -1.3513 -1.2724  0.0627
  136MOL0     C17862   5.967   7.303   7.317 -0.7344 -0.0924  0.2663
  136MOL0     C17863   5.935   7.156   7.342 -0.3385  0.7139 -1.4932
  136MOL0    Cl17864   5.864   7.078   7.190 -0.0082  0.3458 -0.1060
  136MOL0     C17865   6.106   7.735   6.522 -0.1486  0.1225 -0.3981
  136MOL0     C17866   6.087   7.698   6.388  0.4821 -0.6957  0.2652
  136MOL0     O17867   5.997   7.421   6.278  0.1740 -0.2303 -0.1429
  136MOL0     C17868   5.984   7.297   6.026 -0.0800  0.2693  0.5933
  136MOL0     C17869   5.948   7.249   5.902 -0.2752  0.5277 -0.8709
  136MOL0     N17870   6.036   6.913   5.222  0.2947  0.1958 -0.2472
  136MOL0     N17871   6.053   6.827   5.130  0.2076  0.0976  0.0221
  136MOL0     C17872   6.747   6.808   4.183 -0.2492 -0.5990 -0.6025
  136MOL0     C17873   6.884   6.797   4.155 -0.5220  0.0047 -0.8520
  136MOL0     C17874   7.302   6.733   4.054 -0.3220  0.0380 -0.8034
  136MOL0     C17875   7.416   6.818   4.061 -1.1268 -0.1458 -0.1295
  136MOL0     C17876   7.522   6.808   3.966 -1.0321  1.0461 -0.0850
  136MOL0     C17877   7.519   6.717   3.862 -0.3951  1.1228  0.0180
  136MOL0     O17878   7.628   6.710   3.784 -0.3439  0.5687  0.5229
  136MOL0     C17879   7.627   6.616   3.662  0.0826 -0.0680 -0.7453
  136MOL0     C17880   7.687   6.491   3.718 -1.0438  1.0954 -0.1609
  136MOL0     C17881   7.715   6.384   3.606  0.9332 -0.1736 -0.1400
  136MOL0     C17882   7.852   6.402   3.539 -0.9087  0.3612  0.6821
  136MOL0     C17883   7.869   6.314   3.430  1.1045 -0.0172 -0.5730
  136MOL0     C17884   7.891   6.257   3.328  0.6098 -0.6910  0.2152
  136MOL0     C17885   7.419   6.623   3.864  0.7241  0.2000 -0.1165
  136MOL0     C17886   7.314   6.619   3.963 -0.7092 -0.6776 -0.6990
  136MOL0     H17887   6.922   6.459   4.126 -1.1329  0.3108 -0.2738
  136MOL0     H17888   6.679   6.467   4.130 -1.1039  0.4442 -1.9741
  136MOL0     H17889   6.536   6.513   4.270  1.0438  0.1177 -1.1846
  136MOL0     H17890   6.443   6.523   4.130 -1.6066 -4.7404  2.7965
  136MOL0     H17891   6.273   6.500   4.275  0.0236 -0.0341 -0.4645
  136MOL0     H17892   6.278   6.667   4.226  0.0249 -0.9941 -1.0221
  136MOL0     H17893   6.411   6.709   4.462  1.1195 -0.5321 -2.6176
  136MOL0     H17894   6.388   6.539   4.492  1.0534 -0.1623 -1.8519
  136MOL0     H17895   6.175   6.752   4.459  0.2303  1.4749  1.4743
  136MOL0     H17896   6.124   6.581   4.443 -0.1122  0.4636  0.0148
  136MOL0     H17897   6.188   6.535   4.665 -2.0184  0.5207  3.3267
  136MOL0     H17898   6.051   6.642   4.646 -0.1255  2.4023 -0.9872
  136MOL0     H17899   6.232   6.836   4.694 -1.5415  1.0504  2.1923
  136MOL0     H17900   6.333   6.696   4.746 -1.2964 -1.2475  2.6992
  136MOL0     H17901   6.178   6.659   4.930  0.7908 -1.3517 -1.7780
  136MOL0     H17902   6.240   6.816   4.925 -2.3218  1.2036  1.7865
  136MOL0     H17903   5.957   6.757   4.845  0.1724  0.9554 -2.9491
  136MOL0     H17904   6.038   6.898   4.796 -0.8720  0.1421 -0.2462
  136MOL0     H17905   5.941   7.098   4.969 -3.0922 -2.7481 -1.2211
  136MOL0     H17906   5.820   7.163   5.192  0.5685  0.7580 -1.6765
  136MOL0     H17907   5.972   7.241   5.203  2.3794 -1.9156 -1.2884
  136MOL0     H17908   5.875   7.054   5.414  3.0990  0.2954  0.9610
  136MOL0     H17909   5.850   7.232   5.424 -0.3343 -2.8972  3.6693
  136MOL0     H17910   6.062   7.065   5.517 -1.9171  0.5402  2.3166
  136MOL0     H17911   6.130   7.165   5.381 -3.0625 -3.2959 -3.9259
  136MOL0     H17912   6.019   7.370   5.524 -1.1052 -1.0779 -0.2976
  136MOL0     H17913   6.141   7.280   5.625  0.2614  1.3197 -1.5514
  136MOL0     H17914   6.066   7.503   5.719 -0.9874 -1.0080 -0.8694
  136MOL0     H17915   6.122   7.589   5.950 -0.8599  0.2391  2.0803
  136MOL0     H17916   6.349   7.488   6.343 -1.4865 -0.4976 -0.8645
  136MOL0     H17917   6.385   7.562   6.588  0.9577 -0.8676 -2.0606
  136MOL0     H17918   6.334   7.589   6.818 -0.1107 -0.1332  0.3487
  136MOL0     H17919   6.176   7.550   6.817 -0.9621  0.9888 -2.6653
  136MOL0     H17920   6.107   7.679   6.986  0.0587 -0.1476 -1.3887
  136MOL0     H17921   6.220   7.798   6.977  2.4064  0.7909  4.3808
  136MOL0     H17922   6.283   7.692   7.183 -1.3444  0.3590  1.0095
  136MOL0     H17923   6.400   7.648   7.069 -0.6025  4.0290 -0.5273
  136MOL0     H17924   6.246   7.433   7.030 -0.5722 -0.3433  1.2753
  136MOL0     H17925   6.349   7.432   7.174 -0.0757 -1.2350 -1.0181
  136MOL0     H17926   6.051   7.525   7.167  0.2825  2.5536  0.0581
  136MOL0     H17927   6.155   7.513   7.312  1.3564 -1.5078  0.2011
  136MOL0     H17928   6.184   7.289   7.316 -1.0753 -3.2955 -1.2353
  136MOL0     H17929   6.104   7.263   7.159 -0.7121 -0.5005 -0.4800
  136MOL0     H17930   5.963   7.361   7.410  1.5555 -0.4601  0.6624
  136MOL0     H17931   5.901   7.343   7.240  0.1277 -1.8141 -1.4540
  136MOL0     H17932   5.853   7.147   7.414 -0.3204  1.6658 -1.3399
  136MOL0     H17933   6.022   7.102   7.381  0.5751  2.0686 -1.6142
  136MOL0     H17934   6.054   7.823   6.557 -5.3149 -1.6022 -2.8237
  136MOL0     H17935   6.000   7.733   6.333 -0.1889 -1.2079  0.9772
  136MOL0     H17936   5.957   7.246   6.117  1.7939 -1.9531  0.0076
  136MOL0     H17937   5.909   7.148   5.891 -0.3955  0.6943 -2.0849
  136MOL0     H17938   6.694   6.902   4.190 -0.7119 -0.9678  2.2463
  136MOL0     H17939   6.950   6.882   4.145  1.0250 -0.5085  3.0918
  136MOL0     H17940   7.418   6.899   4.134 -0.0249 -0.2000 -0.0715
  136MOL0     H17941   7.607   6.874   3.973  0.7532 -1.0809 -0.6579
  136MOL0     H17942   7.695   6.647   3.582  0.2751  1.8277  0.1084
  136MOL0     H17943   7.530   6.609   3.611  1.4121  1.7138 -3.7889
  136MOL0     H17944   7.778   6.522   3.770  0.8791 -0.1413 -2.5872
  136MOL0     H17945   7.627   6.435   3.791  2.2129 -3.0131 -0.2269
  136MOL0     H17946   7.630   6.384   3.537 -1.1789 -0.9201  2.2728
  136MOL0     H17947   7.702   6.285   3.651 -2.4935  1.0751  2.0887
  136MOL0     H17948   7.867   6.500   3.493 -1.1583  1.4082  2.7066
  136MOL0     H17949   7.925   6.375   3.616 -2.4817 -3.7851  0.9782
  136MOL0     H17950   7.915   6.223   3.229  1.9380 -1.4156  0.7470
  136MOL0     H17951   7.405   6.552   3.782 -3.8396 -0.0959  0.6419
  136MOL0     H17952   7.237   6.543   3.956  1.7728 -3.5385  0.8345
  137MOL0     O17953   1.557   8.866   6.481  0.4712 -0.5077  0.9198
  137MOL0     C17954   1.615   8.839   6.379 -0.2663  0.6238  0.7044
  137MOL0     O17955   1.571   8.749   6.294 -1.0996 -0.6882  0.7781
  137MOL0     C17956   1.438   8.731   6.257  0.2479  0.6419 -0.4388
  137MOL0     C17957   1.414   8.667   6.129 -0.6432 -0.2020 -0.5790
  137MOL0     C17958   1.284   8.635   6.090 -0.1071 -0.7544 -0.6460
  137MOL0     C17959   1.173   8.664   6.173  0.8879  0.0536 -0.4535
  137MOL0     O17960   1.050   8.622   6.123  0.4308  0.2777  0.1458
  137MOL0     C17961   0.930   8.664   6.189  0.2920  0.1937  0.0459
  137MOL0     C17962   0.887   8.800   6.165  0.6393  1.2394  0.4689
  137MOL0     C17963   0.875   8.826   6.018  0.7054  0.4956  0.0886
  137MOL0     C17964   0.799   8.956   5.978  0.9011  0.7393 -1.1097
  137MOL0     C17965   0.759   8.968   5.832 -0.5610 -0.1556 -0.6854
  137MOL0     C17966   0.700   9.104   5.797  0.1227 -0.5750  0.2069
  137MOL0     C17967   0.799   9.222   5.819  0.8510  0.2948  0.3752
  137MOL0     C17968   0.934   9.212   5.747  0.9468  0.2751 -0.4857
  137MOL0     N17969   1.021   9.328   5.755 -0.4083  0.5151  0.4351
  137MOL0     C17970   0.981   9.449   5.692  0.2705  0.5413 -0.9875
  137MOL0     C17971   1.075   9.543   5.728  0.7206 -0.7017  0.1465
  137MOL0     C17972   1.078   9.693   5.714  0.2856 -0.2125 -0.0530
  137MOL0     C17973   1.208   9.763   5.752  0.3493  0.9419 -0.6939
  137MOL0     C17974   1.204   9.907   5.723  0.5979 -0.7341  0.2493
  137MOL0     C17975   1.308   9.997   5.784  0.8644  0.6299 -0.7110
  137MOL0     O17976   1.343  10.114   5.702  0.4530 -0.4210 -0.5711
  137MOL0     C17977   1.469  10.172   5.711  1.2460 -0.3175 -0.7820
  137MOL0     C17978   1.536  10.195   5.594 -1.0271  0.0146  0.4327
  137MOL0     C17979   1.658  10.279   5.597  0.0474 -1.0003 -0.9327
  137MOL0     C17980   1.716  10.323   5.725 -0.1013 -0.4817 -0.4908
  137MOL0     C17981   1.841  10.403   5.724 -1.5752 -0.1362  0.8789
  137MOL0     O17982   1.901  10.419   5.852 -0.4429  0.4976  0.9248
  137MOL0     C17983   2.029  10.466   5.853 -0.5864  0.2609  0.1734
  137MOL0     C17984   2.064  10.574   5.931  0.1483 -0.3153  0.3770
  137MOL0     C17985   2.198  10.605   5.948 -0.4358 -0.0036 -0.1188
  137MOL0     C17986   2.301  10.539   5.877  1.0088 -1.4237  0.6258
  137MOL0     O17987   2.439  10.570   5.858 -0.2709 -0.5165  0.1712
  137MOL0     C17988   2.519  10.623   5.963 -0.0154  0.6595 -0.3101
  137MOL0     C17989   2.670  10.647   5.926 -0.2332 -1.0194 -0.1108
  137MOL0     C17990   2.723  10.688   6.058  0.2095  1.0801 -0.5598
  137MOL0     C17991   2.855  10.756   6.035 -0.0600 -0.2192  0.1679
  137MOL0     C17992   2.898  10.827   6.166  0.1112  0.7279 -0.1139
  137MOL0     C17993   3.037  10.879   6.155 -0.1552 -0.2440  0.4146
  137MOL0     C17994   3.074  10.947   6.288  0.5391 -0.2907 -0.2827
  137MOL0     C17995   3.191  11.048   6.292  0.0621 -0.0587 -0.2272
  137MOL0    Cl17996   3.185  11.149   6.443  0.4446  0.0005  0.0159
  137MOL0     C17997   2.263  10.433   5.796 -0.0682  0.5684 -0.8345
  137MOL0     C17998   2.131  10.390   5.793  0.0313 -0.2777  0.5801
  137MOL0     O17999   1.880  10.459   5.617 -1.0851  0.1790 -0.0138
  137MOL0     C18000   1.644  10.278   5.842 -0.8719  0.4523 -0.9230
  137MOL0     C18001   1.529  10.196   5.836 -1.0427 -0.6215 -0.1675
  137MOL0     N18002   1.170   9.472   5.804 -0.5023 -0.0506  0.2057
  137MOL0     N18003   1.143   9.346   5.808  0.4113 -0.0231 -0.2318
  137MOL0     C18004   1.193   8.729   6.295 -0.0063  0.4901 -0.5459
  137MOL0     C18005   1.322   8.765   6.335  0.2627 -0.2548 -0.3758
  137MOL0     C18006   1.744   8.907   6.349 -0.2380 -1.1509  0.1471
  137MOL0     C18007   1.809   8.888   6.225  0.1935  0.3085 -0.3067
  137MOL0     C18008   1.940   8.936   6.204 -0.2893 -0.1207  0.8212
  137MOL0     C18009   1.998   9.017   6.298 -0.4967  0.1396 -0.4017
  137MOL0     O18010   2.114   9.088   6.282  0.6754 -0.6153 -0.0364
  137MOL0     C18011   2.218   9.029   6.191  0.3349 -0.0965 -0.0176
  137MOL0     C18012   2.355   9.099   6.202  0.2129  0.2817  1.0742
  137MOL0     C18013   2.352   9.231   6.126 -0.0347 -0.6026  0.4445
  137MOL0     C18014   2.361   9.236   5.974 -0.3400 -0.3611  0.0401
  137MOL0     C18015   2.248   9.167   5.906 -1.0891 -0.1527  1.0485
  137MOL0     C18016   2.143   9.131   5.853  0.5775  0.1165  0.4457
  137MOL0     C18017   1.936   9.036   6.423 -0.4637  0.4042 -0.0961
  137MOL0     C18018   1.809   8.980   6.446 -0.1280 -0.7095  0.5499
  137MOL0     H18019   1.499   8.650   6.064  0.9958  3.2199  0.4025
  137MOL0     H18020   1.263   8.596   5.991 -0.7659  1.7313 -1.5859
  137MOL0     H18021   0.937   8.641   6.296  1.0813  2.5168  0.5582
  137MOL0     H18022   0.849   8.594   6.164 -0.5804  0.8953  0.8162
  137MOL0     H18023   0.954   8.872   6.211 -1.0765  4.0520 -1.1538
  137MOL0     H18024   0.787   8.815   6.205 -0.1200  1.8919 -1.5381
  137MOL0     H18025   0.801   8.754   5.982  0.0365  0.6197  1.1704
  137MOL0     H18026   0.967   8.819   5.959 -1.5986  0.4158 -3.8528
  137MOL0     H18027   0.709   8.943   6.040  1.4678 -1.5291 -0.6825
  137MOL0     H18028   0.860   9.041   6.009  1.3847  0.6952 -1.9317
  137MOL0     H18029   0.695   8.883   5.808  0.5015 -2.1048  2.6927
  137MOL0     H18030   0.845   8.942   5.769 -1.4025 -6.1835  0.0709
  137MOL0     H18031   0.611   9.108   5.860 -1.2652 -2.9851 -1.4323
  137MOL0     H18032   0.678   9.094   5.690  0.6899 -2.2990  0.2186
  137MOL0     H18033   0.742   9.306   5.778 -1.0341 -2.5425 -3.3520
  137MOL0     H18034   0.811   9.233   5.927 -1.0710  0.0077  0.6535
  137MOL0     H18035   0.907   9.192   5.643 -1.1308  0.3264  0.0077
  137MOL0     H18036   0.988   9.125   5.787  0.3966  1.0701  2.1715
  137MOL0     H18037   0.888   9.480   5.644  0.6483 -0.0709 -2.1656
  137MOL0     H18038   1.006   9.738   5.782 -1.6199 -0.0721 -2.0623
  137MOL0     H18039   1.059   9.719   5.610  1.6001  2.4149  0.2790
  137MOL0     H18040   1.297   9.727   5.698 -0.9207 -2.6226 -0.6691
  137MOL0     H18041   1.237   9.733   5.853  1.2206 -0.8397 -1.4128
  137MOL0     H18042   1.204   9.916   5.614  2.7033  1.4234  0.3580
  137MOL0     H18043   1.113   9.956   5.759 -1.9723 -3.7004 -1.5938
  137MOL0     H18044   1.399   9.940   5.806  0.0813 -1.8833 -3.3752
  137MOL0     H18045   1.280  10.030   5.884  3.2879  1.0830 -0.1073
  137MOL0     H18046   1.490  10.169   5.500 -0.4292 -2.4280  0.7295
  137MOL0     H18047   1.708  10.319   5.509  0.1131 -1.2339 -1.0008
  137MOL0     H18048   1.985  10.640   5.966  1.1966  2.2162 -1.7071
  137MOL0     H18049   2.241  10.691   5.998  2.6234 -0.8124 -1.1207
  137MOL0     H18050   2.509  10.556   6.049 -0.7686 -1.8503 -2.2150
  137MOL0     H18051   2.475  10.720   5.985 -3.1104 -0.7708  0.4765
  137MOL0     H18052   2.680  10.722   5.847  0.4952 -2.1794 -1.1449
  137MOL0     H18053   2.710  10.554   5.885  0.4609 -1.4140  1.4062
  137MOL0     H18054   2.731  10.602   6.125 -1.1601  0.4408 -1.1923
  137MOL0     H18055   2.662  10.763   6.109  0.0061  1.5669 -1.4808
  137MOL0     H18056   2.932  10.694   5.987  0.2817  2.8476 -3.7092
  137MOL0     H18057   2.833  10.821   5.950 -0.0712 -1.7592 -1.0550
  137MOL0     H18058   2.890  10.753   6.247 -1.9281 -1.1670 -1.9149
  137MOL0     H18059   2.829  10.905   6.198 -0.0630  1.3949 -2.0176
  137MOL0     H18060   3.052  10.947   6.070 -0.1247 -0.2660  0.4018
  137MOL0     H18061   3.111  10.799   6.144  0.0807 -0.2359  1.7313
  137MOL0     H18062   2.994  11.005   6.334  0.3843  0.2630 -1.2162
  137MOL0     H18063   3.090  10.868   6.362  0.6373  0.2075  0.2368
  137MOL0     H18064   3.185  11.119   6.209 -1.8916 -1.4262 -1.3482
  137MOL0     H18065   3.279  10.984   6.285 -0.7834 -1.5048  1.6714
  137MOL0     H18066   2.338  10.368   5.751 -3.2660 -2.6705 -1.9236
  137MOL0     H18067   2.114  10.296   5.741  1.5581 -1.5033  2.1722
  137MOL0     H18068   1.681  10.303   5.941 -3.2161 -0.1234  0.1858
  137MOL0     H18069   1.482  10.163   5.929 -1.5206  0.5142  0.0148
  137MOL0     H18070   1.107   8.759   6.354  1.2831  2.8618  0.2897
  137MOL0     H18071   1.324   8.812   6.433 -0.2854  0.5292 -0.7311
  137MOL0     H18072   1.761   8.810   6.167 -2.0189 -0.0181  1.7805
  137MOL0     H18073   1.987   8.905   6.112  2.2390  0.0004  1.9908
  137MOL0     H18074   2.182   9.027   6.087 -0.2319  0.2174  0.1657
  137MOL0     H18075   2.238   8.927   6.223  2.1375  0.1563 -0.2707
  137MOL0     H18076   2.382   9.116   6.307  2.9938 -5.4106  1.6357
  137MOL0     H18077   2.428   9.029   6.161 -0.6041 -0.5109  0.9545
  137MOL0     H18078   2.441   9.280   6.165 -0.1888 -2.1159  2.9532
  137MOL0     H18079   2.262   9.284   6.158 -1.6745 -1.2269 -2.7462
  137MOL0     H18080   2.352   9.339   5.939 -0.0804 -0.4073 -0.1657
  137MOL0     H18081   2.455   9.199   5.933 -1.1675  0.6802 -3.0527
  137MOL0     H18082   2.044   9.112   5.818  1.4211 -0.7876 -1.6435
  137MOL0     H18083   1.982   9.088   6.507  3.1311 -3.0259  0.3193
  137MOL0     H18084   1.765   9.001   6.543  0.9151  0.6797  0.7500
  138MOL0     O18085   0.255   5.102  11.098 -0.2459 -0.2908 -0.5842
  138MOL0     C18086   0.346   5.169  11.146  0.6620 -0.2489 -0.4890
  138MOL0     O18087   0.389   5.166  11.277  0.2131  0.2034  0.7109
  138MOL0     C18088   0.333   5.089  11.380 -0.5993  0.2745 -0.5128
  138MOL0     C18089   0.202   5.049  11.390  0.4715 -0.5723 -0.4221
  138MOL0     C18090   0.156   4.970  11.502 -0.0789  0.0303 -0.0340
  138MOL0     C18091   0.251   4.924  11.596  1.4271 -0.7831 -1.1333
  138MOL0     O18092   0.215   4.837  11.703 -0.8162 -0.9903  0.4520
  138MOL0     C18093   0.270   4.708  11.691  0.0491 -1.1243  0.5934
  138MOL0     C18094   0.394   4.686  11.785  0.1862 -0.5701 -0.0759
  138MOL0     C18095   0.486   4.585  11.734 -1.0059 -0.2412 -0.3576
  138MOL0     C18096   0.613   4.579  11.827  0.6794 -0.1032 -0.4544
  138MOL0     C18097   0.664   4.435  11.821  0.6636  0.2147  0.4312
  138MOL0     C18098   0.792   4.419  11.910 -0.0284 -0.3694  0.0704
  138MOL0     C18099   0.869   4.287  11.902  0.3145  0.2093  0.4929
  138MOL0     C18100   0.916   4.266  11.757  0.0728 -0.8182 -0.5206
  138MOL0     N18101   1.027   4.370  11.728 -0.4992 -0.0964  0.1505
  138MOL0     C18102   1.151   4.377  11.783  1.0036  0.9969 -0.2773
  138MOL0     C18103   1.230   4.444  11.701  0.3796  0.8733 -0.7183
  138MOL0     C18104   1.370   4.468  11.720 -0.8890  0.4412  0.8910
  138MOL0     C18105   1.451   4.410  11.595 -0.1870 -0.2454 -0.4007
  138MOL0     C18106   1.599   4.388  11.628  0.1715  0.0057 -0.6913
  138MOL0     C18107   1.664   4.355  11.494  0.0370  0.3130 -0.1319
  138MOL0     O18108   1.612   4.242  11.421 -0.4478 -0.3485  0.3367
  138MOL0     C18109   1.669   4.222  11.296 -0.6947 -0.8720 -0.1667
  138MOL0     C18110   1.616   4.139  11.205  0.0159  0.4666  0.3327
  138MOL0     C18111   1.681   4.120  11.078  0.5046  0.6189 -0.8964
  138MOL0     C18112   1.786   4.196  11.038 -0.1374  0.2481  0.0620
  138MOL0     C18113   1.870   4.168  10.926  0.3736  0.6043 -0.4143
  138MOL0     O18114   1.839   4.060  10.848  0.4766 -0.1344  0.2251
  138MOL0     C18115   1.880   4.053  10.713  0.4443 -0.4045 -0.5563
  138MOL0     C18116   1.790   3.984  10.634  0.4801  0.3193 -0.6682
  138MOL0     C18117   1.835   3.943  10.508 -0.0870  1.1175 -0.1841
  138MOL0     C18118   1.948   3.977  10.434  0.9878 -0.2893  0.5009
  138MOL0     O18119   1.973   3.965  10.302  0.0555  0.7544  0.9263
  138MOL0     C18120   1.897   3.858  10.241 -0.2722  0.4145  0.5343
  138MOL0     C18121   1.930   3.830  10.092  0.2140  0.4843 -0.5361
  138MOL0     C18122   2.080   3.803  10.086  0.5559  0.0731  0.6478
  138MOL0     C18123   2.106   3.732   9.951  0.2648 -0.3195  0.5376
  138MOL0     C18124   2.252   3.738   9.915  0.3854  0.4765  0.3030
  138MOL0     C18125   2.276   3.690   9.771  0.3685  0.0351  0.6431
  138MOL0     C18126   2.418   3.712   9.706 -0.2606 -0.0239  0.7193
  138MOL0     C18127   2.452   3.643   9.573 -0.1589  1.3493 -0.0754
  138MOL0    Cl18128   2.307   3.713   9.478 -0.2764  0.0168 -0.5864
  138MOL0     C18129   2.036   4.045  10.517 -1.5858  0.1942  1.2675
  138MOL0     C18130   2.006   4.083  10.655  0.0513 -0.6759 -0.2214
  138MOL0     O18131   1.964   4.243  10.903 -0.5392 -0.0207  0.0338
  138MOL0     C18132   1.827   4.299  11.124  0.4318 -0.2010  0.3726
  138MOL0     C18133   1.772   4.313  11.249 -0.1537 -1.1189 -0.8813
  138MOL0     N18134   1.154   4.500  11.606  0.6368 -0.0691  0.0351
  138MOL0     N18135   1.035   4.446  11.613  0.2238  0.4642 -0.6141
  138MOL0     C18136   0.385   4.966  11.590  0.8311  0.0662 -0.1389
  138MOL0     C18137   0.425   5.044  11.476  0.1427 -0.5678  0.2170
  138MOL0     C18138   0.399   5.257  11.042 -0.3229 -0.7879  0.5594
  138MOL0     C18139   0.475   5.373  11.075  0.1007  0.4832  1.1976
  138MOL0     C18140   0.524   5.451  10.969 -1.0753  0.1289 -0.2107
  138MOL0     C18141   0.486   5.428  10.834  0.8150  0.7911 -0.6284
  138MOL0     O18142   0.531   5.500  10.727 -0.7084 -0.1402  0.2382
  138MOL0     C18143   0.519   5.643  10.732 -0.2997  0.4296 -0.4843
  138MOL0     C18144   0.599   5.689  10.616  0.5372  0.1052  0.6498
  138MOL0     C18145   0.750   5.660  10.631 -0.6852  0.4724  0.0500
  138MOL0     C18146   0.813   5.759  10.729  0.5710 -1.0486 -0.5326
  138MOL0     C18147   0.858   5.894  10.689  0.5532 -1.1844 -0.1982
  138MOL0     C18148   0.891   6.012  10.660 -0.2472 -0.0158 -0.7099
  138MOL0     C18149   0.409   5.311  10.801 -0.7075  0.5133 -0.2412
  138MOL0     C18150   0.371   5.226  10.902 -0.1426  0.7261 -0.5776
  138MOL0     H18151   0.117   5.077  11.327  1.0652 -0.0872 -1.0275
  138MOL0     H18152   0.049   4.959  11.521 -0.2602  3.2052  1.4628
  138MOL0     H18153   0.298   4.696  11.586 -0.8390  2.0055 -0.1130
  138MOL0     H18154   0.189   4.636  11.700 -2.3890  1.1654 -1.2717
  138MOL0     H18155   0.348   4.658  11.881  4.9418 -3.7318  1.6484
  138MOL0     H18156   0.446   4.781  11.800 -0.0326 -0.7177  1.9764
  138MOL0     H18157   0.508   4.603  11.628 -0.6452  2.2982  0.0804
  138MOL0     H18158   0.427   4.496  11.756 -0.5852  0.1322  2.7189
  138MOL0     H18159   0.690   4.652  11.800  0.3459  0.3993 -0.0721
  138MOL0     H18160   0.586   4.601  11.931  3.0648  1.6493 -0.0952
  138MOL0     H18161   0.680   4.402  11.718  3.3648 -2.2428  1.5056
  138MOL0     H18162   0.581   4.374  11.858  0.7880 -1.5372 -1.9312
  138MOL0     H18163   0.753   4.422  12.012 -0.8276 -0.8595 -0.2170
  138MOL0     H18164   0.851   4.512  11.907 -0.3689 -0.0961 -4.1145
  138MOL0     H18165   0.956   4.274  11.966 -0.5869  0.1614  1.7386
  138MOL0     H18166   0.812   4.195  11.916 -2.8349  1.5801 -2.0585
  138MOL0     H18167   0.835   4.270  11.684  2.9299 -2.4132 -4.1326
  138MOL0     H18168   0.965   4.169  11.766  0.0243 -0.8250 -0.3336
  138MOL0     H18169   1.183   4.317  11.868 -0.6100 -2.2760 -1.7747
  138MOL0     H18170   1.406   4.419  11.810 -2.7151 -1.4897  0.6400
  138MOL0     H18171   1.399   4.573  11.731  1.8604 -0.1934  0.4163
  138MOL0     H18172   1.426   4.473  11.509 -4.3624  0.8198  1.3299
  138MOL0     H18173   1.424   4.307  11.568 -1.2021  0.7552 -3.6730
  138MOL0     H18174   1.641   4.481  11.667  0.9712 -1.5636  2.5501
  138MOL0     H18175   1.609   4.308  11.702  1.6438  1.8759  1.2547
  138MOL0     H18176   1.772   4.346  11.514  0.4348  2.8573 -0.7499
  138MOL0     H18177   1.650   4.452  11.446 -2.9480  1.6531  3.0325
  138MOL0     H18178   1.529   4.081  11.234  0.0380  0.3229  0.1167
  138MOL0     H18179   1.644   4.049  11.005  0.9223  1.1151 -1.5973
  138MOL0     H18180   1.691   3.962  10.674 -0.1154  3.8265  0.0449
  138MOL0     H18181   1.765   3.889  10.444  4.8237 -1.2974 -4.2812
  138MOL0     H18182   1.794   3.896  10.244 -0.0942  1.0334 -0.6086
  138MOL0     H18183   1.923   3.766  10.294  1.7596  0.8673  0.3736
  138MOL0     H18184   1.916   3.918  10.028 -3.8892 -2.3878 -4.2186
  138MOL0     H18185   1.864   3.750  10.054 -1.6185  0.6318  2.0702
  138MOL0     H18186   2.119   3.750  10.173  2.1295  1.3085  0.7467
  138MOL0     H18187   2.123   3.903  10.091  0.2677  0.1284  4.2947
  138MOL0     H18188   2.068   3.630   9.949 -0.3226 -0.0815 -1.0035
  138MOL0     H18189   2.048   3.786   9.876  0.4511 -1.9321 -0.8106
  138MOL0     H18190   2.322   3.687   9.982  0.8734 -1.6021 -1.6875
  138MOL0     H18191   2.281   3.844   9.916  0.2619  0.6939  5.1330
  138MOL0     H18192   2.202   3.736   9.705 -4.1133 -3.5739  2.5929
  138MOL0     H18193   2.260   3.582   9.757 -0.2714  0.4129 -2.2825
  138MOL0     H18194   2.430   3.821   9.696 -2.5931  0.6021  3.4089
  138MOL0     H18195   2.493   3.663   9.768 -0.9636  2.3318  3.6175
  138MOL0     H18196   2.444   3.535   9.587  0.1640  1.2659 -0.5110
  138MOL0     H18197   2.543   3.675   9.521  0.6215 -1.4703 -0.6220
  138MOL0     H18198   2.133   4.073  10.478 -2.1032  0.1549 -0.1141
  138MOL0     H18199   2.080   4.129  10.721 -1.2665 -0.7875  1.3932
  138MOL0     H18200   1.918   4.354  11.104  1.2720 -2.3882 -2.5098
  138MOL0     H18201   1.812   4.395  11.308 -1.2484 -0.1386 -1.4508
  138MOL0     H18202   0.460   4.950  11.667 -1.3786  2.2802  2.7037
  138MOL0     H18203   0.529   5.074  11.463 -0.5159  3.0879  1.9251
  138MOL0     H18204   0.510   5.398  11.174  3.6494 -0.6848  0.4040
  138MOL0     H18205   0.608   5.518  10.987  1.3801 -1.7352 -3.3843
  138MOL0     H18206   0.570   5.677  10.823 -1.0115 -2.5006  1.1126
  138MOL0     H18207   0.417   5.683  10.729 -0.5107 -0.1538 -2.4430
  138MOL0     H18208   0.567   5.645  10.521  0.8091  4.6679 -1.8715
  138MOL0     H18209   0.590   5.798  10.605  2.1800  0.0531 -2.3505
  138MOL0     H18210   0.787   5.680  10.530  2.2144 -2.0707  0.4598
  138MOL0     H18211   0.762   5.555  10.661 -2.1053 -0.1193 -1.3253
  138MOL0     H18212   0.767   5.763  10.829 -2.6109  1.9337 -1.9108
  138MOL0     H18213   0.907   5.705  10.746  0.9910 -0.8822 -2.1588
  138MOL0     H18214   0.922   6.109  10.628 -1.7191  0.7550  0.0804
  138MOL0     H18215   0.381   5.269  10.705  0.6979 -0.3127 -0.3207
  138MOL0     H18216   0.311   5.141  10.871  0.7325 -0.3055  0.4706
  139MOL0     O18217   2.539  10.434   3.641  0.0490  0.3353  0.0710
  139MOL0     C18218   2.588  10.407   3.751  0.0597  1.1518 -0.6316
  139MOL0     O18219   2.663  10.293   3.783  0.1258 -0.3606 -0.1255
  139MOL0     C18220   2.662  10.185   3.702 -0.0733 -0.7266  0.1793
  139MOL0     C18221   2.753  10.086   3.750  1.2621  1.0277  0.2631
  139MOL0     C18222   2.778   9.969   3.676 -0.4581  0.6111 -0.0903
  139MOL0     C18223   2.693   9.929   3.568 -0.2951  0.4689  0.3227
  139MOL0     O18224   2.709   9.802   3.510 -0.0691 -0.5069  0.0934
  139MOL0     C18225   2.778   9.808   3.384 -0.3584 -0.3946  0.3630
  139MOL0     C18226   2.881   9.685   3.376  0.8635 -0.2807 -0.1960
  139MOL0     C18227   2.967   9.685   3.241 -0.0664 -0.5033 -0.0523
  139MOL0     C18228   2.882   9.731   3.113 -0.6144  0.0976 -1.0597
  139MOL0     C18229   2.965   9.733   2.984  0.4956 -0.2183  0.8361
  139MOL0     C18230   2.876   9.790   2.869 -0.6989  0.9719 -0.6351
  139MOL0     C18231   2.961   9.818   2.755  0.2768 -0.6913  0.9126
  139MOL0     C18232   3.044   9.701   2.703  0.9037  0.2180 -0.4175
  139MOL0     N18233   3.109   9.746   2.573 -1.2175 -0.4490  0.3669
  139MOL0     C18234   3.212   9.836   2.560  0.2587  0.6560  0.4379
  139MOL0     C18235   3.263   9.817   2.433 -0.2496  0.3296  0.0802
  139MOL0     C18236   3.375   9.897   2.378  0.1473 -0.2019 -0.1309
  139MOL0     C18237   3.338   9.951   2.237 -0.7389 -0.0707 -0.5422
  139MOL0     C18238   3.229  10.063   2.240 -0.5536  0.0965  0.5930
  139MOL0     C18239   3.267  10.178   2.144  0.0113  0.7029  0.9549
  139MOL0     O18240   3.348  10.285   2.204  0.4240  0.0262 -0.8883
  139MOL0     C18241   3.318  10.349   2.326 -0.7117 -0.9084  0.0368
  139MOL0     C18242   3.424  10.406   2.400  0.5973 -0.2405  0.3093
  139MOL0     C18243   3.400  10.489   2.509 -0.5758 -0.5425  0.2329
  139MOL0     C18244   3.271  10.511   2.549  0.0608 -0.3452  0.5124
  139MOL0     C18245   3.238  10.610   2.649 -0.7398  0.1595  0.5646
  139MOL0     O18246   3.329  10.636   2.740 -0.0953 -0.0378  0.0110
  139MOL0     C18247   3.316  10.718   2.854  0.8364 -0.5253 -0.0248
  139MOL0     C18248   3.401  10.704   2.965  0.4465 -0.1696 -0.3230
  139MOL0     C18249   3.379  10.759   3.084  0.0133 -1.1941  0.3540
  139MOL0     C18250   3.271  10.843   3.114  0.4931 -0.2487  0.0377
  139MOL0     O18251   3.234  10.893   3.238  0.1077  0.0351  0.5930
  139MOL0     C18252   3.269  10.819   3.354 -0.5610 -0.2204  0.4424
  139MOL0     C18253   3.140  10.831   3.435 -0.0748  0.1890 -0.3388
  139MOL0     C18254   3.019  10.768   3.357  0.3235 -0.9527 -0.1364
  139MOL0     C18255   2.894  10.757   3.438 -0.6219  0.9077  0.8581
  139MOL0     C18256   2.786  10.685   3.356 -0.0773  0.0277 -0.6392
  139MOL0     C18257   2.658  10.649   3.438  0.4072 -0.4008  0.1150
  139MOL0     C18258   2.550  10.598   3.350  0.0681 -0.2672  0.3430
  139MOL0     C18259   2.592  10.499   3.243 -0.4022  0.3321 -0.2823
  139MOL0    Cl18260   2.689  10.356   3.295  0.1618  0.3331  0.4563
  139MOL0     C18261   3.183  10.873   3.006  0.3736 -0.5834 -0.4858
  139MOL0     C18262   3.207  10.798   2.884 -0.2525  0.3742  0.5595
  139MOL0     O18263   3.126  10.653   2.644  0.4888 -0.5017  0.0295
  139MOL0     C18264   3.165  10.439   2.486  0.0525 -1.0871 -0.4044
  139MOL0     C18265   3.188  10.363   2.376  0.0339  0.7120  1.1723
  139MOL0     N18266   3.196   9.711   2.373  0.0639 -0.7746 -0.2610
  139MOL0     N18267   3.103   9.670   2.458  0.8245 -0.1283 -0.5263
  139MOL0     C18268   2.609  10.030   3.519  0.7221 -0.1642 -0.0465
  139MOL0     C18269   2.600  10.157   3.576  0.6366 -0.7747 -0.5139
  139MOL0     C18270   2.551  10.503   3.853 -0.6432  0.4193  0.6517
  139MOL0     C18271   2.554  10.465   3.984 -0.1789  1.1981 -1.9089
  139MOL0     C18272   2.531  10.568   4.081  0.4554  0.6890 -0.3824
  139MOL0     C18273   2.507  10.691   4.037  0.4603 -1.3088  0.1270
  139MOL0     O18274   2.487  10.790   4.133  0.0694 -0.2463  0.3582
  139MOL0     C18275   2.583  10.834   4.230  0.2755  0.0858  1.1287
  139MOL0     C18276   2.554  10.819   4.383 -0.2394 -0.0202 -0.4237
  139MOL0     C18277   2.407  10.810   4.422  0.0823  0.7031  1.0078
  139MOL0     C18278   2.377  10.778   4.571  0.0553 -0.1623  1.1351
  139MOL0     C18279   2.240  10.717   4.576 -0.2950 -0.0128 -0.6374
  139MOL0     C18280   2.121  10.703   4.561  0.9528 -0.2691  0.6017
  139MOL0     C18281   2.495  10.738   3.901  0.0287  0.3988 -1.1619
  139MOL0     C18282   2.510  10.629   3.820  0.3292  0.4713  0.9403
  139MOL0     H18283   2.814  10.102   3.838  1.5250 -0.4206  0.3580
  139MOL0     H18284   2.857   9.904   3.712 -1.7000 -1.4471 -0.8809
  139MOL0     H18285   2.849   9.891   3.375 -0.7670  0.1179  1.6159
  139MOL0     H18286   2.703   9.825   3.307 -1.5270  1.8404  1.8496
  139MOL0     H18287   2.820   9.594   3.380 -0.6748  0.6494 -1.5698
  139MOL0     H18288   2.947   9.694   3.463  0.1941  7.1734  0.1795
  139MOL0     H18289   3.011   9.587   3.225 -0.0474 -0.3790 -0.8059
  139MOL0     H18290   3.036   9.769   3.253 -0.2982 -0.6337  2.9410
  139MOL0     H18291   2.800   9.659   3.108  1.9225 -3.0706 -0.8770
  139MOL0     H18292   2.840   9.829   3.135 -2.4518 -1.4839  3.7556
  139MOL0     H18293   2.989   9.630   2.955 -4.5690 -1.5187  0.1949
  139MOL0     H18294   3.064   9.779   2.990  1.4909 -1.8292 -1.7090
  139MOL0     H18295   2.823   9.873   2.914 -1.3100  0.8586 -1.1273
  139MOL0     H18296   2.798   9.722   2.832  1.7356 -1.6900 -1.2292
  139MOL0     H18297   2.899   9.863   2.677 -0.6805 -1.0307  1.4641
  139MOL0     H18298   3.035   9.886   2.798  0.0890 -1.5716  2.7533
  139MOL0     H18299   2.993   9.605   2.696 -3.8214  2.1948  1.8643
  139MOL0     H18300   3.126   9.705   2.775  1.1594 -3.5415 -0.3051
  139MOL0     H18301   3.244   9.905   2.637 -1.8433  0.1804  1.8217
  139MOL0     H18302   3.459   9.832   2.354 -0.5247 -0.2717 -2.5130
  139MOL0     H18303   3.394   9.979   2.448 -1.9335  2.5881 -2.5809
  139MOL0     H18304   3.312   9.871   2.167 -1.4457  0.7845 -1.2955
  139MOL0     H18305   3.426   9.997   2.191  0.6596  0.1900  2.2159
  139MOL0     H18306   3.146  10.011   2.191  0.2291  2.8339 -4.2216
  139MOL0     H18307   3.214  10.105   2.340 -0.9807  0.8366  0.2197
  139MOL0     H18308   3.183  10.235   2.103  1.1637 -0.3916 -3.4091
  139MOL0     H18309   3.306  10.130   2.055 -1.1535  0.4496  0.5589
  139MOL0     H18310   3.518  10.407   2.346  1.9426  0.9369  2.5245
  139MOL0     H18311   3.485  10.526   2.566 -1.5756  4.5155 -1.0774
  139MOL0     H18312   3.490  10.643   2.961  2.7850  2.9865 -0.5295
  139MOL0     H18313   3.450  10.741   3.165  0.8491 -0.6168 -0.2330
  139MOL0     H18314   3.358  10.869   3.395  0.1377 -3.1386  2.8539
  139MOL0     H18315   3.294  10.714   3.337  1.6265  0.2322  0.6161
  139MOL0     H18316   3.128  10.939   3.448  3.2207  0.8866 -1.9711
  139MOL0     H18317   3.150  10.781   3.532  0.8969  0.5322 -0.2480
  139MOL0     H18318   3.051  10.664   3.347  2.4122 -0.6956  2.6478
  139MOL0     H18319   2.992  10.820   3.264 -2.1509 -1.9235 -0.0283
  139MOL0     H18320   2.908  10.705   3.534 -1.9520 -2.1296 -0.4485
  139MOL0     H18321   2.856  10.858   3.458  3.0627  2.2793  1.7694
  139MOL0     H18322   2.828  10.593   3.315 -0.6181 -2.6156  4.0881
  139MOL0     H18323   2.755  10.758   3.280 -2.7654 -2.2317 -1.8725
  139MOL0     H18324   2.612  10.730   3.494 -1.6044  1.1699 -3.4427
  139MOL0     H18325   2.684  10.582   3.520  1.7722 -0.7300 -0.5393
  139MOL0     H18326   2.471  10.558   3.414 -0.6231  3.2603  1.9416
  139MOL0     H18327   2.505  10.678   3.293 -0.4975 -0.7380  0.1207
  139MOL0     H18328   2.643  10.538   3.155 -1.1461 -2.2289 -1.9812
  139MOL0     H18329   2.503  10.456   3.196 -2.0265 -0.3520  3.1037
  139MOL0     H18330   3.093  10.933   3.018 -1.1531 -2.3112 -2.5787
  139MOL0     H18331   3.130  10.825   2.812  0.6660  0.6203 -0.3457
  139MOL0     H18332   3.057  10.451   2.497  0.0587  0.7618 -1.9193
  139MOL0     H18333   3.104  10.315   2.326  2.6430 -4.4419  1.0993
  139MOL0     H18334   2.536   9.992   3.448  0.7388 -0.4529  0.0884
  139MOL0     H18335   2.539  10.229   3.522  1.8910 -0.2214 -1.2150
  139MOL0     H18336   2.559  10.365   4.025 -1.5611  1.7172 -0.3522
  139MOL0     H18337   2.534  10.549   4.188 -0.3901  1.1714 -0.2635
  139MOL0     H18338   2.598  10.940   4.207 -0.5787 -0.0382 -0.0865
  139MOL0     H18339   2.675  10.782   4.201 -1.8363 -1.7126 -3.3405
  139MOL0     H18340   2.625  10.737   4.403 -0.6830 -0.4916 -0.7447
  139MOL0     H18341   2.593  10.903   4.441  1.1563 -1.9021  1.5895
  139MOL0     H18342   2.358  10.740   4.354 -6.3953  1.5497  4.1180
  139MOL0     H18343   2.356  10.899   4.386 -2.9398 -0.5075  1.9845
  139MOL0     H18344   2.454  10.716   4.618  1.2284  1.1817  1.0637
  139MOL0     H18345   2.369  10.874   4.625 -1.1173 -0.4404  1.4664
  139MOL0     H18346   2.018  10.683   4.541  0.7266 -1.3302  2.6412
  139MOL0     H18347   2.462  10.836   3.871 -1.9585  0.5903  1.3675
  139MOL0     H18348   2.500  10.653   3.714 -0.4411 -0.9150  0.6684
  140MOL0     O18349   3.466   0.898   3.316 -0.0590  0.0381  0.3700
  140MOL0     C18350   3.387   0.802   3.342 -1.4783 -0.0664 -0.5179
  140MOL0     O18351   3.389   0.678   3.288  0.4222  0.6066  0.3527
  140MOL0     C18352   3.460   0.662   3.167 -0.6279  0.1854  0.2108
  140MOL0     C18353   3.584   0.595   3.168  0.6121  0.3064  0.1500
  140MOL0     C18354   3.664   0.589   3.053  0.0412 -0.2887  0.5909
  140MOL0     C18355   3.615   0.655   2.934  0.0325 -0.1608  0.1068
  140MOL0     O18356   3.701   0.663   2.828  0.4452  0.8031  0.1026
  140MOL0     C18357   3.642   0.617   2.708  0.2638  0.5537  0.0187
  140MOL0     C18358   3.606   0.725   2.604 -0.8997  0.6203 -0.3519
  140MOL0     C18359   3.526   0.665   2.488  0.1369  0.1438  0.3775
  140MOL0     C18360   3.489   0.760   2.390  0.4112 -0.3519 -0.4932
  140MOL0     C18361   3.406   0.696   2.276  0.3270 -0.5569 -0.3579
  140MOL0     C18362   3.388   0.788   2.149 -0.2911  0.3832 -0.0862
  140MOL0     C18363   3.516   0.857   2.104  0.6025 -0.4465  0.5934
  140MOL0     C18364   3.625   0.786   2.048 -0.4633  2.0645 -0.6111
  140MOL0     N18365   3.589   0.718   1.927  1.5908 -0.1926 -0.4985
  140MOL0     C18366   3.544   0.586   1.902 -0.3018  0.2754 -0.5991
  140MOL0     C18367   3.545   0.587   1.767  0.2422  0.3644 -0.0400
  140MOL0     C18368   3.508   0.472   1.678  1.0145 -0.1886  0.0456
  140MOL0     C18369   3.625   0.375   1.672 -0.2544  1.0957 -0.2010
  140MOL0     C18370   3.751   0.435   1.609  0.5365 -0.3764  0.5499
  140MOL0     C18371   3.862   0.327   1.567  0.8057 -1.0953 -0.8694
  140MOL0     O18372   3.946   0.288   1.677  0.1773  0.1623  0.7946
  140MOL0     C18373   3.937   0.166   1.731 -1.2863  0.6784 -1.2510
  140MOL0     C18374   3.876   0.059   1.667  0.6989 -0.0709  0.0578
  140MOL0     C18375   3.902  -0.073   1.703  0.6900 -0.9994 -0.5420
  140MOL0     C18376   3.969  -0.100   1.819  0.3520 -0.3708 -0.0950
  140MOL0     C18377   4.004  -0.246   1.859 -0.9052  0.1881  0.7158
  140MOL0     O18378   3.977  -0.336   1.762 -0.7418 -0.2701  0.0101
  140MOL0     C18379   3.995  -0.466   1.793 -0.3487 -0.1895  0.6457
  140MOL0     C18380   3.910  -0.537   1.876  0.1017  1.1748 -1.1596
  140MOL0     C18381   3.931  -0.677   1.884 -0.3081 -0.1138 -0.4696
  140MOL0     C18382   4.034  -0.749   1.826 -0.9463 -0.2939  0.1800
  140MOL0     O18383   4.032  -0.885   1.842 -0.1299 -0.3206  0.0497
  140MOL0     C18384   4.125  -0.937   1.937  0.6872  0.0554  0.2998
  140MOL0     C18385   4.066  -0.934   2.075  0.6620 -0.1107  0.4474
  140MOL0     C18386   3.944  -1.027   2.095 -0.6052 -0.4608  0.8241
  140MOL0     C18387   3.907  -1.060   2.248  0.1466 -0.1252 -0.8515
  140MOL0     C18388   3.898  -0.924   2.323  0.2269 -0.1141  0.1499
  140MOL0     C18389   3.840  -0.931   2.463  0.1292  0.3831 -0.6868
  140MOL0     C18390   3.836  -0.790   2.532  0.2099 -0.1325  0.4409
  140MOL0     C18391   3.772  -0.798   2.673  1.3073  1.4893  0.9942
  140MOL0    Cl18392   3.695  -0.638   2.701  0.0010 -0.5356  0.2009
  140MOL0     C18393   4.123  -0.670   1.750 -0.5326 -0.3202 -0.3311
  140MOL0     C18394   4.107  -0.535   1.729  0.5056  0.3695 -0.4003
  140MOL0     O18395   4.043  -0.272   1.971 -0.0878 -0.3593 -0.2643
  140MOL0     C18396   4.021   0.000   1.903  0.6772 -0.8220 -0.5930
  140MOL0     C18397   3.999   0.136   1.859  0.5964 -0.0923  0.1404
  140MOL0     N18398   3.585   0.701   1.710  0.0380  0.6432  0.6298
  140MOL0     N18399   3.607   0.785   1.808 -0.3692  0.3640 -0.3346
  140MOL0     C18400   3.488   0.711   2.933 -0.8858 -0.2779 -0.3918
  140MOL0     C18401   3.418   0.719   3.052  0.7750  0.0271 -0.1103
  140MOL0     C18402   3.304   0.833   3.451  0.1004  0.2210  0.2201
  140MOL0     C18403   3.184   0.759   3.485 -0.4126  0.5695 -0.0945
  140MOL0     C18404   3.101   0.801   3.584  0.8226  0.5311 -0.9304
  140MOL0     C18405   3.135   0.904   3.669 -0.9590 -0.0909 -0.6913
  140MOL0     O18406   3.055   0.927   3.777  0.4912 -0.4181  0.0926
  140MOL0     C18407   3.034   1.063   3.821  0.2940  0.6578  0.3794
  140MOL0     C18408   2.934   1.142   3.731 -0.3710  0.1555 -0.2760
  140MOL0     C18409   2.808   1.081   3.693  0.0515  0.9913 -0.4548
  140MOL0     C18410   2.709   1.042   3.806  0.9117  0.2839 -0.5243
  140MOL0     C18411   2.630   1.154   3.859  0.1475  0.5866  0.3831
  140MOL0     C18412   2.579   1.255   3.910 -0.8480  0.3102 -0.0159
  140MOL0     C18413   3.244   0.983   3.648 -0.4491  0.3699 -0.6269
  140MOL0     C18414   3.326   0.949   3.531  0.4040  0.1198 -0.2202
  140MOL0     H18415   3.610   0.559   3.267 -1.7083 -0.7423  0.4536
  140MOL0     H18416   3.758   0.535   3.061 -0.4286 -1.3827 -0.8865
  140MOL0     H18417   3.550   0.558   2.713 -0.1850  1.1982 -0.4181
  140MOL0     H18418   3.705   0.543   2.657 -1.4554 -1.5728  0.8573
  140MOL0     H18419   3.703   0.760   2.567  1.1273  0.6079  4.3151
  140MOL0     H18420   3.561   0.813   2.650  0.8326  1.4368 -0.1448
  140MOL0     H18421   3.434   0.623   2.531 -1.0276 -1.1557 -3.0483
  140MOL0     H18422   3.586   0.590   2.437 -1.6545 -1.7077  0.8457
  140MOL0     H18423   3.443   0.837   2.452  2.6049 -1.8285  3.3110
  140MOL0     H18424   3.586   0.798   2.357  0.6934 -0.5429  0.0991
  140MOL0     H18425   3.309   0.673   2.320  1.4608 -2.5056  1.3094
  140MOL0     H18426   3.451   0.600   2.246 -1.0823 -0.4258 -3.2053
  140MOL0     H18427   3.330   0.872   2.189 -0.7562  1.3055 -2.4932
  140MOL0     H18428   3.335   0.763   2.057 -2.0759 -0.5566  1.1393
  140MOL0     H18429   3.483   0.930   2.030 -0.6347 -0.4328  1.1336
  140MOL0     H18430   3.561   0.914   2.186  2.6059 -0.0809 -0.6829
  140MOL0     H18431   3.651   0.701   2.113  2.9509  0.5231 -3.6065
  140MOL0     H18432   3.716   0.847   2.044  0.5442  1.2941  4.0763
  140MOL0     H18433   3.524   0.509   1.976  1.6031  2.0153  1.8641
  140MOL0     H18434   3.494   0.502   1.574  2.2597 -1.3114 -0.4713
  140MOL0     H18435   3.414   0.434   1.719  0.7981  1.5443  1.2728
  140MOL0     H18436   3.604   0.282   1.619 -2.0313  0.7209  1.0927
  140MOL0     H18437   3.657   0.345   1.772 -1.5766 -1.4435 -0.4598
  140MOL0     H18438   3.718   0.462   1.508  0.4791  0.0522  0.6787
  140MOL0     H18439   3.786   0.528   1.654  2.2109 -0.0226 -1.3297
  140MOL0     H18440   3.924   0.360   1.482  1.5181 -0.8041 -0.2440
  140MOL0     H18441   3.804   0.252   1.512  0.3068  2.1575 -5.3944
  140MOL0     H18442   3.824   0.075   1.573 -0.4333  0.7516  0.8001
  140MOL0     H18443   3.879  -0.155   1.636  2.1159 -1.7874 -0.0962
  140MOL0     H18444   3.836  -0.487   1.938 -2.2885 -1.0440 -2.0192
  140MOL0     H18445   3.859  -0.738   1.938  1.9400 -2.4150  0.1397
  140MOL0     H18446   4.208  -0.870   1.915  0.8402 -0.9220 -2.4981
  140MOL0     H18447   4.146  -1.041   1.911 -0.5490 -0.1860  0.1823
  140MOL0     H18448   4.033  -0.833   2.102 -0.5980  0.0513 -1.4634
  140MOL0     H18449   4.148  -0.974   2.135  2.6689 -1.2108 -2.7880
  140MOL0     H18450   3.972  -1.122   2.050 -1.9497 -0.8449  0.7516
  140MOL0     H18451   3.855  -1.001   2.037 -0.8870 -0.4352  1.2595
  140MOL0     H18452   3.804  -1.097   2.256  0.4267 -1.0947 -1.5935
  140MOL0     H18453   3.975  -1.128   2.300  2.0101  2.4356  0.3129
  140MOL0     H18454   3.831  -0.852   2.275  1.7380  0.9177 -0.4971
  140MOL0     H18455   4.002  -0.890   2.331  0.3915 -0.9650  2.4729
  140MOL0     H18456   3.899  -1.004   2.519 -1.0310 -0.1915 -0.1668
  140MOL0     H18457   3.735  -0.959   2.451 -0.4781  1.5457  1.3020
  140MOL0     H18458   3.937  -0.749   2.531 -0.4383  1.5257  0.1819
  140MOL0     H18459   3.783  -0.729   2.458  1.8677 -0.4974 -1.1379
  140MOL0     H18460   3.844  -0.801   2.754 -0.5952 -0.3385  2.7497
  140MOL0     H18461   3.707  -0.885   2.686  0.1862  2.3248  1.1600
  140MOL0     H18462   4.204  -0.722   1.701 -0.0043 -0.1818  0.3804
  140MOL0     H18463   4.180  -0.472   1.679 -2.2881  2.8943 -1.6466
  140MOL0     H18464   4.071  -0.021   1.996 -2.0431 -2.5286  0.6267
  140MOL0     H18465   4.049   0.211   1.919  0.8986 -0.1050 -0.0956
  140MOL0     H18466   3.455   0.763   2.843  0.1048  0.2785 -0.4532
  140MOL0     H18467   3.320   0.766   3.060  0.8351 -0.1589  2.6533
  140MOL0     H18468   3.158   0.686   3.409  0.7637 -0.6644  0.6364
  140MOL0     H18469   3.009   0.745   3.596 -2.8866  5.8150 -1.4558
  140MOL0     H18470   3.121   1.128   3.831  1.8449 -1.3156  0.2994
  140MOL0     H18471   2.980   1.052   3.915 -0.5803 -1.1555 -0.2764
  140MOL0     H18472   2.904   1.231   3.787  0.2526 -1.4410  2.8207
  140MOL0     H18473   2.988   1.176   3.642 -1.6737 -1.1822 -1.6270
  140MOL0     H18474   2.839   0.987   3.646  1.2360 -0.0272  2.1452
  140MOL0     H18475   2.758   1.151   3.625 -1.2662  1.2582  0.7258
  140MOL0     H18476   2.638   0.970   3.764 -2.9257  3.1597  0.5223
  140MOL0     H18477   2.759   0.996   3.892 -0.8289 -0.5069  0.0965
  140MOL0     H18478   2.531   1.335   3.963  1.4303  3.1006 -1.8956
  140MOL0     H18479   3.272   1.066   3.712 -0.4224 -0.8022  0.9426
  140MOL0     H18480   3.423   0.998   3.521  0.5629 -0.0628  0.3826
  141MOL0     O18481   4.059   6.889   0.929 -0.2482 -0.0118  0.7458
  141MOL0     C18482   4.154   6.884   0.852 -1.0186 -0.1952 -0.4127
  141MOL0     O18483   4.158   6.815   0.736  0.2185  0.4228  0.6412
  141MOL0     C18484   4.029   6.774   0.697  0.3152 -0.1135 -0.6746
  141MOL0     C18485   3.952   6.867   0.629 -0.1617  0.3470 -0.2909
  141MOL0     C18486   3.812   6.845   0.602  0.3283  0.1657  0.7463
  141MOL0     C18487   3.754   6.724   0.619  0.1818 -0.2379  0.8197
  141MOL0     O18488   3.641   6.703   0.553  1.0059  0.6387 -0.7994
  141MOL0     C18489   3.593   6.560   0.537  0.8387  0.1912  0.1773
  141MOL0     C18490   3.504   6.513   0.646  0.3905 -0.3546  0.4128
  141MOL0     C18491   3.481   6.357   0.643  0.0703 -0.6900  0.1159
  141MOL0     C18492   3.603   6.261   0.675 -0.2029 -0.5727 -0.8525
  141MOL0     C18493   3.543   6.115   0.654 -0.9836 -0.3656 -0.3276
  141MOL0     C18494   3.649   6.012   0.662  0.8033  1.6053 -0.2213
  141MOL0     C18495   3.592   5.865   0.702 -0.8565 -0.2742 -0.3822
  141MOL0     C18496   3.703   5.762   0.719 -0.3793  0.0293  0.6310
  141MOL0     N18497   3.784   5.749   0.591  0.2329 -0.1613  0.7016
  141MOL0     C18498   3.888   5.828   0.555  0.3951  0.6625  0.3730
  141MOL0     C18499   3.947   5.761   0.448  0.7844  0.0027  0.4265
  141MOL0     C18500   4.070   5.803   0.371  0.4597 -0.1493  0.3240
  141MOL0     C18501   4.191   5.770   0.462  0.0643  0.4015 -0.3289
  141MOL0     C18502   4.214   5.620   0.497  0.8202  0.8422 -0.5709
  141MOL0     C18503   4.365   5.595   0.545  0.4754 -1.1719  0.2844
  141MOL0     O18504   4.417   5.685   0.637  0.1642 -0.4594 -0.1546
  141MOL0     C18505   4.555   5.704   0.621  0.6155  0.2060  0.0071
  141MOL0     C18506   4.645   5.603   0.629  0.1553 -0.3505 -1.3058
  141MOL0     C18507   4.789   5.638   0.636  0.2953  0.4426  0.1461
  141MOL0     C18508   4.829   5.770   0.614 -0.9017  0.0225  0.4526
  141MOL0     C18509   4.970   5.796   0.577 -1.3332 -0.2887 -0.7965
  141MOL0     O18510   5.020   5.918   0.595 -0.2665  0.2243 -0.2214
  141MOL0     C18511   5.149   5.946   0.565 -0.3377 -1.5032  0.5372
  141MOL0     C18512   5.175   6.034   0.463  0.6981  0.2403 -0.0520
  141MOL0     C18513   5.305   6.054   0.415 -0.5684  0.1702 -0.5728
  141MOL0     C18514   5.416   6.018   0.499 -0.1752 -0.9016 -0.2273
  141MOL0     O18515   5.551   6.039   0.464 -0.3343  0.5730  0.1753
  141MOL0     C18516   5.585   6.174   0.463  0.8500 -0.2423  1.4364
  141MOL0     C18517   5.734   6.203   0.438  0.6698  0.1895  0.6808
  141MOL0     C18518   5.771   6.163   0.293 -0.4845  0.0471  0.3346
  141MOL0     C18519   5.915   6.206   0.249 -0.5631 -1.3523 -0.5203
  141MOL0     C18520   6.019   6.127   0.325  1.0027 -0.3842  0.4301
  141MOL0     C18521   6.157   6.161   0.268  0.5454  0.3898 -0.4056
  141MOL0     C18522   6.261   6.092   0.356  0.1087 -0.3926  0.3056
  141MOL0     C18523   6.417   6.114   0.317  0.1188  1.4980 -0.1442
  141MOL0    Cl18524   6.462   6.100   0.148 -0.0046 -0.5871  0.3823
  141MOL0     C18525   5.389   5.930   0.608  0.4568  0.4214  0.0939
  141MOL0     C18526   5.263   5.892   0.635  1.0148  0.4558 -0.4921
  141MOL0     O18527   5.024   5.709   0.513 -0.2030 -0.2621 -0.1539
  141MOL0     C18528   4.733   5.871   0.609 -0.8337  0.1649  0.4306
  141MOL0     C18529   4.596   5.842   0.609 -0.4444  0.6460  1.1642
  141MOL0     N18530   3.887   5.641   0.435  0.5597 -1.1582 -0.3931
  141MOL0     N18531   3.787   5.632   0.518 -0.1752 -0.6880  0.2564
  141MOL0     C18532   3.828   6.631   0.695  0.9246  0.4482  0.1896
  141MOL0     C18533   3.963   6.652   0.734  0.8107  0.3283 -0.3452
  141MOL0     C18534   4.278   6.953   0.890 -0.4705 -0.9114 -1.5896
  141MOL0     C18535   4.320   6.996   1.021  1.2863 -0.8867 -0.4928
  141MOL0     C18536   4.442   7.043   1.056  0.1408 -0.2527 -0.4313
  141MOL0     C18537   4.534   7.055   0.957 -0.5289  0.5323 -0.5048
  141MOL0     O18538   4.659   7.084   1.005 -0.8107 -0.1918 -0.4364
  141MOL0     C18539   4.736   7.154   0.907 -0.7147  0.1049 -1.0860
  141MOL0     C18540   4.857   7.201   0.978 -0.4537  0.1682 -1.0795
  141MOL0     C18541   4.947   7.096   1.057  0.7474 -0.4424  0.8421
  141MOL0     C18542   5.080   7.144   1.091  0.2551 -0.8291 -0.9947
  141MOL0     C18543   5.067   7.248   1.188  0.0577  0.7065  0.8978
  141MOL0     C18544   5.056   7.329   1.281 -0.2403  0.3153 -0.1329
  141MOL0     C18545   4.503   7.027   0.827  0.7610  0.7984  0.2805
  141MOL0     C18546   4.371   6.986   0.795 -0.8440 -0.1665 -0.0951
  141MOL0     H18547   4.004   6.960   0.609  2.1650 -0.7663  0.2429
  141MOL0     H18548   3.761   6.913   0.534 -1.4111  1.2671  3.0219
  141MOL0     H18549   3.674   6.488   0.522  0.1391 -0.6045  0.1761
  141MOL0     H18550   3.516   6.557   0.460 -0.9500 -2.8870  1.8862
  141MOL0     H18551   3.416   6.577   0.648  0.2604 -0.5166  2.6367
  141MOL0     H18552   3.558   6.541   0.737  3.1441 -2.2323 -0.4998
  141MOL0     H18553   3.452   6.326   0.542  0.8499 -0.4191 -0.1953
  141MOL0     H18554   3.391   6.333   0.701 -0.2874 -1.3502 -0.6819
  141MOL0     H18555   3.689   6.278   0.609  2.7481  1.1890  3.0248
  141MOL0     H18556   3.645   6.271   0.775 -2.2358  1.8004 -0.1407
  141MOL0     H18557   3.497   6.107   0.555 -2.7940  1.0832  0.3468
  141MOL0     H18558   3.464   6.090   0.725 -3.2014  3.7941 -0.9967
  141MOL0     H18559   3.719   6.032   0.743  1.5674 -1.3528 -0.0237
  141MOL0     H18560   3.700   5.992   0.567 -0.1371 -4.2025  0.1392
  141MOL0     H18561   3.526   5.866   0.789  2.7397 -0.5831  2.5963
  141MOL0     H18562   3.540   5.834   0.610  2.1032 -2.2265 -1.5586
  141MOL0     H18563   3.654   5.667   0.741 -0.0849  0.5334  4.0104
  141MOL0     H18564   3.773   5.785   0.800  2.6516 -1.5618 -1.3324
  141MOL0     H18565   3.925   5.923   0.593  3.0201 -0.2185  0.2141
  141MOL0     H18566   4.048   5.903   0.332 -3.6006 -2.4920 -4.5585
  141MOL0     H18567   4.074   5.751   0.275 -1.1859  2.4502 -1.2983
  141MOL0     H18568   4.185   5.822   0.558  0.2337  1.0254 -0.6572
  141MOL0     H18569   4.283   5.802   0.413 -0.7013  1.2908 -1.2130
  141MOL0     H18570   4.145   5.580   0.572  1.8380 -1.8514 -0.9585
  141MOL0     H18571   4.197   5.565   0.404  1.8293 -0.9138  0.2252
  141MOL0     H18572   4.414   5.601   0.447 -2.4540 -0.1202 -1.2349
  141MOL0     H18573   4.380   5.493   0.583  0.2111 -0.8514  1.2704
  141MOL0     H18574   4.620   5.500   0.651  3.0255 -0.5194  2.2738
  141MOL0     H18575   4.859   5.557   0.651 -1.1268 -0.7532  0.5587
  141MOL0     H18576   5.090   6.076   0.409  1.8544 -1.5335 -3.5739
  141MOL0     H18577   5.338   6.104   0.325  0.5318 -1.1123 -0.9172
  141MOL0     H18578   5.562   6.213   0.562  2.7739  0.2770  1.7210
  141MOL0     H18579   5.528   6.237   0.394 -0.5017  1.2171  3.7764
  141MOL0     H18580   5.799   6.148   0.507  0.5020  1.6516  2.0772
  141MOL0     H18581   5.747   6.311   0.452  1.1796  0.4475 -1.5187
  141MOL0     H18582   5.697   6.220   0.237 -0.9489  1.4916  2.3056
  141MOL0     H18583   5.755   6.054   0.289 -0.3558  0.0578 -2.3782
  141MOL0     H18584   5.928   6.186   0.143  1.0692  1.2332 -0.9032
  141MOL0     H18585   5.929   6.312   0.272  0.8918 -1.2034 -1.9041
  141MOL0     H18586   6.001   6.020   0.315  0.7991 -0.2791 -0.4245
  141MOL0     H18587   6.016   6.151   0.432 -1.6759  0.5367  0.2341
  141MOL0     H18588   6.173   6.268   0.252  1.0999  0.1687 -1.4601
  141MOL0     H18589   6.152   6.121   0.166 -0.8055 -0.6348  0.0445
  141MOL0     H18590   6.257   6.112   0.463  1.7217  0.3156  0.2664
  141MOL0     H18591   6.242   5.986   0.336  0.4461 -0.4175  0.1088
  141MOL0     H18592   6.471   6.044   0.381 -1.8658  0.4084  0.4503
  141MOL0     H18593   6.438   6.219   0.338 -4.3311  2.6248 -0.1694
  141MOL0     H18594   5.468   5.891   0.672  0.0685 -0.3278  0.1346
  141MOL0     H18595   5.258   5.822   0.718 -0.0625  2.1588  0.9437
  141MOL0     H18596   4.768   5.969   0.579 -1.9392  0.3376 -0.3667
  141MOL0     H18597   4.526   5.924   0.607  1.2628  2.2198  2.5758
  141MOL0     H18598   3.778   6.539   0.723  0.4964  1.1404  1.8268
  141MOL0     H18599   4.025   6.579   0.785  1.6889  1.8343  0.8169
  141MOL0     H18600   4.242   6.976   1.094 -0.0244 -2.3011 -2.2087
  141MOL0     H18601   4.452   7.060   1.163 -0.0998 -0.2933 -0.4010
  141MOL0     H18602   4.666   7.229   0.869  0.5005  1.9679  0.1438
  141MOL0     H18603   4.765   7.084   0.828 -1.3747  0.4312 -1.6276
  141MOL0     H18604   4.924   7.254   0.910  0.3947  1.3981  0.6478
  141MOL0     H18605   4.821   7.282   1.043  0.2251 -0.1867 -0.2386
  141MOL0     H18606   4.967   7.010   0.992 -1.5835  0.4849 -1.2352
  141MOL0     H18607   4.889   7.047   1.136  3.4958 -2.5504  1.7330
  141MOL0     H18608   5.139   7.058   1.124 -0.2263 -0.5327  0.7213
  141MOL0     H18609   5.122   7.192   1.003 -0.3578  0.2917 -0.6986
  141MOL0     H18610   5.029   7.394   1.361  0.6879  2.4935 -1.4953
  141MOL0     H18611   4.579   7.032   0.749  1.2976  0.9913  0.8130
  141MOL0     H18612   4.350   6.965   0.691  0.4691  2.5680 -1.0138
  142MOL0     O18613   6.294   4.933   8.759  0.1787 -0.5015  0.1445
  142MOL0     C18614   6.355   4.929   8.866 -0.0178 -0.3456 -0.0756
  142MOL0     O18615   6.477   4.981   8.892 -0.1853  0.4289 -0.1844
  142MOL0     C18616   6.548   5.038   8.794 -0.2499 -0.7240 -0.3133
  142MOL0     C18617   6.608   4.959   8.690  0.3697 -0.2485  0.0737
  142MOL0     C18618   6.669   5.027   8.576  0.9736  0.2554 -1.0936
  142MOL0     C18619   6.673   5.168   8.576 -0.2976  0.0716  1.1046
  142MOL0     O18620   6.746   5.236   8.475  0.5181  0.3579  0.2856
  142MOL0     C18621   6.669   5.276   8.358 -0.2796 -0.2931 -0.5426
  142MOL0     C18622   6.717   5.409   8.294 -0.4943  0.8976 -0.1437
  142MOL0     C18623   6.832   5.397   8.196  1.2934 -0.6297 -0.3266
  142MOL0     C18624   6.776   5.335   8.065 -0.6271 -0.2695  0.5905
  142MOL0     C18625   6.878   5.330   7.952  0.6932  0.9513  0.4675
  142MOL0     C18626   6.949   5.464   7.919 -0.0148 -0.5694 -0.6040
  142MOL0     C18627   7.041   5.455   7.797 -0.7711 -0.4883 -0.1402
  142MOL0     C18628   7.120   5.315   7.762  0.5215 -0.2886 -0.1288
  142MOL0     N18629   7.182   5.317   7.629 -0.0915 -0.0645  0.5945
  142MOL0     C18630   7.241   5.426   7.562  0.1161  0.3616 -0.9084
  142MOL0     C18631   7.247   5.392   7.439 -0.4778  0.9844 -0.1691
  142MOL0     C18632   7.295   5.475   7.323  0.1994 -0.1660  0.7087
  142MOL0     C18633   7.444   5.454   7.309  0.0050 -0.6733  0.3922
  142MOL0     C18634   7.535   5.531   7.416  0.7532  0.4133  0.6040
  142MOL0     C18635   7.684   5.528   7.374  1.0395  0.9057  1.1103
  142MOL0     O18636   7.686   5.592   7.247  0.0543 -0.3912  0.3461
  142MOL0     C18637   7.791   5.594   7.166 -0.2814  0.6492  0.0254
  142MOL0     C18638   7.777   5.657   7.044 -0.7144  0.5847  0.1404
  142MOL0     C18639   7.885   5.667   6.958  0.1207 -0.9757  0.2702
  142MOL0     C18640   8.015   5.624   6.998  0.3554  0.3552 -0.6171
  142MOL0     C18641   8.137   5.631   6.913  0.1352 -1.1473  0.3897
  142MOL0     O18642   8.127   5.731   6.817 -0.8870 -1.2757  0.3525
  142MOL0     C18643   8.230   5.767   6.735 -0.5114  0.2534 -0.8769
  142MOL0     C18644   8.207   5.810   6.598 -0.6128 -0.0026 -0.1214
  142MOL0     C18645   8.316   5.850   6.516  0.3707  0.4765 -1.0958
  142MOL0     C18646   8.443   5.850   6.565 -0.1088 -0.8099 -1.6143
  142MOL0     O18647   8.546   5.890   6.476 -0.8282 -0.1233 -0.9013
  142MOL0     C18648   8.627   6.012   6.506  0.0274  0.8347  0.0120
  142MOL0     C18649   8.764   5.988   6.456  0.3098  0.5411 -0.1839
  142MOL0     C18650   8.850   5.899   6.556  0.3613 -0.0178 -0.2557
  142MOL0     C18651   8.965   5.834   6.489 -0.2798  0.0103 -0.8423
  142MOL0     C18652   9.042   5.756   6.602 -0.0976 -0.0105  0.2559
  142MOL0     C18653   9.162   5.697   6.551 -0.1540 -0.6683  0.0602
  142MOL0     C18654   9.237   5.611   6.655  0.5801  0.4572 -0.2203
  142MOL0     C18655   9.360   5.547   6.624 -1.0470 -0.8380  1.0903
  142MOL0    Cl18656   9.303   5.427   6.509  0.2374  0.3117 -0.6545
  142MOL0     C18657   8.461   5.812   6.700 -0.4185  0.4451  0.0372
  142MOL0     C18658   8.362   5.775   6.787  0.0594 -0.7007 -0.0037
  142MOL0     O18659   8.239   5.572   6.938  0.5409 -0.3768  0.4923
  142MOL0     C18660   8.035   5.563   7.130 -0.9905 -0.2364 -0.0392
  142MOL0     C18661   7.918   5.559   7.207  0.0412  0.9251 -0.0160
  142MOL0     N18662   7.186   5.270   7.419 -0.3644  0.1336 -0.2333
  142MOL0     N18663   7.152   5.225   7.533 -1.1880  0.9425  0.7400
  142MOL0     C18664   6.624   5.244   8.681  1.1539 -0.1881 -0.1934
  142MOL0     C18665   6.563   5.179   8.785  0.1883 -0.5629 -0.2061
  142MOL0     C18666   6.303   4.835   8.961 -0.2188 -0.5502  0.1267
  142MOL0     C18667   6.192   4.763   8.945  0.9071 -0.3406  0.1325
  142MOL0     C18668   6.137   4.679   9.034 -0.5848  0.0039 -0.2719
  142MOL0     C18669   6.191   4.659   9.164  0.4352  0.2340  0.0704
  142MOL0     O18670   6.135   4.575   9.261  0.4614 -0.5983 -0.2780
  142MOL0     C18671   6.051   4.462   9.208  0.3860  0.1198  0.1245
  142MOL0     C18672   6.035   4.361   9.329 -0.3834  0.4699  0.8872
  142MOL0     C18673   5.901   4.292   9.297 -0.7121 -0.4934  0.0039
  142MOL0     C18674   5.858   4.216   9.418 -0.4944  0.6113  0.4644
  142MOL0     C18675   5.946   4.094   9.434  0.4306 -0.5252  0.0392
  142MOL0     C18676   6.000   3.988   9.460 -0.3259  0.0293  0.6054
  142MOL0     C18677   6.294   4.748   9.192  0.0701  0.0717 -0.5959
  142MOL0     C18678   6.358   4.823   9.091  0.1006 -0.0303  0.0149
  142MOL0     H18679   6.609   4.852   8.672 -1.8722 -0.3649  0.2493
  142MOL0     H18680   6.729   4.971   8.505  2.0055 -1.3325  0.9169
  142MOL0     H18681   6.570   5.311   8.390  1.3025  1.1827  3.3759
  142MOL0     H18682   6.680   5.193   8.288  1.4347  1.4764 -2.4863
  142MOL0     H18683   6.744   5.485   8.368  0.5210  3.6003 -3.0461
  142MOL0     H18684   6.634   5.449   8.236 -1.4487 -1.9710 -0.9121
  142MOL0     H18685   6.901   5.337   8.256 -1.8042 -0.6919  3.5444
  142MOL0     H18686   6.865   5.496   8.165 -1.1326  0.3177 -0.1131
  142MOL0     H18687   6.727   5.238   8.079 -0.9229 -0.3115 -0.6247
  142MOL0     H18688   6.706   5.413   8.034  1.0176  1.2259  0.4614
  142MOL0     H18689   6.835   5.288   7.860  2.2516 -2.6254  1.2218
  142MOL0     H18690   6.952   5.252   7.972  0.6928  1.2066  1.5034
  142MOL0     H18691   7.011   5.503   8.000 -0.8775 -2.3207  0.9621
  142MOL0     H18692   6.887   5.545   7.880  1.6100 -0.2580 -2.7673
  142MOL0     H18693   6.979   5.478   7.711 -0.1085 -0.1733 -0.5391
  142MOL0     H18694   7.098   5.548   7.806 -3.4637  1.2963 -0.5486
  142MOL0     H18695   7.046   5.235   7.763 -0.5092  0.6399 -0.0431
  142MOL0     H18696   7.198   5.301   7.837 -0.6000 -3.3417  0.6077
  142MOL0     H18697   7.280   5.516   7.610 -0.4563 -0.5730  1.4863
  142MOL0     H18698   7.280   5.582   7.345  0.7589  0.1539 -0.3952
  142MOL0     H18699   7.237   5.449   7.234  0.7755 -0.2831  0.3655
  142MOL0     H18700   7.480   5.507   7.220  2.7067 -2.1623  0.5017
  142MOL0     H18701   7.476   5.353   7.283  2.4121 -0.5591  2.5517
  142MOL0     H18702   7.506   5.635   7.432  1.1883  1.0869 -2.4566
  142MOL0     H18703   7.525   5.484   7.515 -1.3545 -1.6328 -0.4847
  142MOL0     H18704   7.729   5.429   7.363  0.2295  0.7868 -2.1005
  142MOL0     H18705   7.741   5.590   7.444 -1.5006  0.2500  3.9454
  142MOL0     H18706   7.676   5.686   7.017  1.1253  6.8055 -1.5584
  142MOL0     H18707   7.887   5.710   6.858  1.4304  1.7755  1.3687
  142MOL0     H18708   8.107   5.820   6.556  0.0627  1.3383 -1.5369
  142MOL0     H18709   8.296   5.872   6.411 -4.0287 -0.4333 -0.6374
  142MOL0     H18710   8.644   6.032   6.612 -3.1012  1.2963  0.5144
  142MOL0     H18711   8.584   6.101   6.459 -2.3306  0.0240  0.5109
  142MOL0     H18712   8.815   6.083   6.439  1.8918  0.4813  3.3895
  142MOL0     H18713   8.767   5.933   6.361  4.5640 -0.5216  0.3649
  142MOL0     H18714   8.796   5.824   6.615  1.4838 -0.4803  0.2078
  142MOL0     H18715   8.897   5.957   6.635 -0.1840 -0.8695  0.7218
  142MOL0     H18716   8.925   5.766   6.413 -1.3904  2.1759 -2.3300
  142MOL0     H18717   9.040   5.900   6.444 -2.3055  0.9286 -3.1544
  142MOL0     H18718   8.973   5.677   6.634  0.4933 -1.5238 -1.9859
  142MOL0     H18719   9.070   5.814   6.691  0.1556  1.9783 -1.0668
  142MOL0     H18720   9.227   5.780   6.523  0.1846 -1.3368 -1.2313
  142MOL0     H18721   9.144   5.639   6.460 -2.3035  0.2965 -0.1910
  142MOL0     H18722   9.265   5.668   6.743  2.3172 -0.3452 -0.2258
  142MOL0     H18723   9.169   5.531   6.686 -1.8410  1.6121 -2.1645
  142MOL0     H18724   9.416   5.505   6.708 -2.6892 -1.9680  1.6880
  142MOL0     H18725   9.420   5.616   6.565 -3.8769  1.4801  0.6775
  142MOL0     H18726   8.566   5.815   6.727 -0.4808  1.6935  0.1718
  142MOL0     H18727   8.372   5.769   6.894 -2.0660  2.3153  0.4677
  142MOL0     H18728   8.136   5.529   7.151 -0.1992  2.6237  1.2922
  142MOL0     H18729   7.929   5.518   7.307 -1.6872 -0.0029 -0.1817
  142MOL0     H18730   6.631   5.349   8.654 -1.4311 -0.2792 -1.4682
  142MOL0     H18731   6.526   5.257   8.851  2.1184  1.3847 -1.2829
  142MOL0     H18732   6.127   4.784   8.861 -0.1975  1.6941  1.4152
  142MOL0     H18733   6.043   4.629   9.013 -0.7971  0.2028  0.1951
  142MOL0     H18734   6.085   4.399   9.125 -1.3957 -2.0831  0.9795
  142MOL0     H18735   5.951   4.503   9.191  0.5660  1.2136  1.4426
  142MOL0     H18736   6.111   4.284   9.319 -3.6850 -2.7599 -3.4549
  142MOL0     H18737   6.034   4.404   9.430 -2.1151 -1.9226  1.9822
  142MOL0     H18738   5.903   4.229   9.208 -4.2771  0.7591 -1.1508
  142MOL0     H18739   5.821   4.365   9.279 -2.0195 -1.3583  2.0053
  142MOL0     H18740   5.882   4.274   9.508  5.2453  0.1393 -0.3896
  142MOL0     H18741   5.752   4.189   9.411  0.0958 -1.6294 -0.7584
  142MOL0     H18742   6.050   3.897   9.486 -2.6215 -2.1200 -1.8056
  142MOL0     H18743   6.332   4.728   9.292 -2.3185 -4.0775 -0.2543
  142MOL0     H18744   6.457   4.864   9.101 -0.4734  1.9749 -1.7562
  143MOL0     O18745  10.368   8.721   0.661  0.4313 -0.0483 -0.0156
  143MOL0     C18746  10.355   8.777   0.555 -0.4807 -0.3924 -0.1455
  143MOL0     O18747  10.321   8.905   0.543 -0.7317 -0.1218  0.0838
  143MOL0     C18748  10.264   8.979   0.644  0.4508  0.1785  0.4530
  143MOL0     C18749  10.133   8.939   0.666 -0.2276 -0.0815 -0.8034
  143MOL0     C18750  10.072   9.008   0.781 -0.7231 -0.9861  0.3111
  143MOL0     C18751  10.131   9.114   0.840 -0.8490 -0.1068 -0.5764
  143MOL0     O18752  10.066   9.199   0.931 -0.3795 -0.3923  0.1869
  143MOL0     C18753   9.932   9.171   0.982  0.0038  0.1415  0.3466
  143MOL0     C18754   9.905   9.290   1.079  0.0202  0.1584 -0.4793
  143MOL0     C18755   9.953   9.269   1.217  0.1780  0.1896 -0.5120
  143MOL0     C18756  10.083   9.202   1.250 -1.3850 -0.3592  1.0767
  143MOL0     C18757  10.125   9.212   1.396 -0.4751 -0.4919 -0.2819
  143MOL0     C18758  10.161   9.358   1.450 -0.3632  0.2002  0.7884
  143MOL0     C18759  10.245   9.357   1.577 -0.6063  0.3908  0.4616
  143MOL0     C18760  10.185   9.276   1.697 -0.4353 -1.0284 -0.3845
  143MOL0     N18761  10.258   9.303   1.817  0.4702 -0.3274  0.2913
  143MOL0     C18762  10.368   9.245   1.857 -0.1386  0.3247  0.0277
  143MOL0     C18763  10.416   9.314   1.966  0.9685 -0.1416 -0.0742
  143MOL0     C18764  10.547   9.298   2.034  1.2304 -0.0555 -0.3192
  143MOL0     C18765  10.524   9.195   2.146 -0.3438 -0.1745  0.4265
  143MOL0     C18766  10.650   9.143   2.205  0.0399  1.0705 -0.5699
  143MOL0     C18767  10.625   9.039   2.314 -0.0929  0.3324 -0.8823
  143MOL0     O18768  10.529   9.087   2.406  0.8165  0.2342  0.0657
  143MOL0     C18769  10.483   8.983   2.493 -0.1674  0.7320  0.3063
  143MOL0     C18770  10.535   8.846   2.494  0.2613 -0.4169 -0.6079
  143MOL0     C18771  10.481   8.753   2.590  0.2668  0.9213  0.4840
  143MOL0     C18772  10.380   8.790   2.685 -0.2412 -0.9090  0.2854
  143MOL0     C18773  10.320   8.695   2.775  0.7160  0.3271 -0.0519
  143MOL0     O18774  10.219   8.751   2.854 -0.1097  0.8078  0.8556
  143MOL0     C18775  10.148   8.685   2.952 -0.8692 -0.3406 -0.9296
  143MOL0     C18776  10.183   8.719   3.091 -0.0624  0.0573 -0.6142
  143MOL0     C18777  10.108   8.664   3.191  0.2317  0.6161  0.9873
  143MOL0     C18778   9.995   8.588   3.166  0.2823 -1.1593 -0.0758
  143MOL0     O18779   9.906   8.535   3.263 -0.5903 -0.0521  0.8945
  143MOL0     C18780   9.944   8.541   3.394  0.7619 -0.1367  0.1070
  143MOL0     C18781   9.845   8.463   3.489  0.2601  0.7464  0.7000
  143MOL0     C18782   9.825   8.314   3.443  0.2041 -0.1761  0.0459
  143MOL0     C18783   9.722   8.294   3.327  0.5133 -0.4064  0.0761
  143MOL0     C18784   9.734   8.155   3.265 -0.3308 -0.6516 -0.2800
  143MOL0     C18785   9.628   8.143   3.150  0.6387 -0.9109  0.7294
  143MOL0     C18786   9.651   8.016   3.058  0.5373 -0.4301  1.0811
  143MOL0     C18787   9.523   7.990   2.965 -0.2219 -0.0179 -0.3247
  143MOL0    Cl18788   9.567   7.877   2.838 -0.3737  0.5591  0.1508
  143MOL0     C18789   9.949   8.568   3.032 -0.3048 -0.5765 -1.1129
  143MOL0     C18790  10.026   8.614   2.921 -0.0398  1.5996 -0.1806
  143MOL0     O18791  10.346   8.580   2.789 -0.3897  0.8275  0.1668
  143MOL0     C18792  10.329   8.921   2.681 -0.5147  0.4042 -0.1684
  143MOL0     C18793  10.380   9.019   2.587 -0.8789 -0.0466 -1.1206
  143MOL0     N18794  10.329   9.419   1.988 -0.3398 -0.7790 -0.0637
  143MOL0     N18795  10.233   9.410   1.897  0.3319 -0.7774 -0.0484
  143MOL0     C18796  10.260   9.148   0.806  0.9525  0.3062  0.2294
  143MOL0     C18797  10.322   9.094   0.698  0.8267  0.0830 -0.2202
  143MOL0     C18798  10.400   8.694   0.432 -0.0466 -0.1756  0.0472
  143MOL0     C18799  10.429   8.567   0.437 -0.4683  0.3957 -0.1104
  143MOL0     C18800  10.446   8.492   0.328  0.3465  0.5189  0.3859
  143MOL0     C18801  10.419   8.540   0.195 -0.2734 -0.6295 -0.6371
  143MOL0     O18802  10.426   8.465   0.082  0.7271 -0.1380  0.4201
  143MOL0     C18803  10.495   8.342   0.081  0.1431 -0.4932 -0.5941
  143MOL0     C18804  10.464   8.262  -0.050 -0.9117 -0.6149 -0.7512
  143MOL0     C18805  10.452   8.363  -0.173  0.8107 -0.6358  0.2021
  143MOL0     C18806  10.460   8.272  -0.305  0.4250  0.3252  0.7223
  143MOL0     C18807  10.591   8.217  -0.355  0.4620 -0.8045 -0.1305
  143MOL0     C18808  10.696   8.163  -0.385  0.1777 -1.0058 -0.4314
  143MOL0     C18809  10.373   8.673   0.180 -1.2648  0.4081  0.6560
  143MOL0     C18810  10.368   8.747   0.303 -0.0881  1.1039  1.0992
  143MOL0     H18811  10.080   8.855   0.622  0.0180  0.7712 -2.8232
  143MOL0     H18812   9.975   8.976   0.817 -1.1191  0.0537  0.1891
  143MOL0     H18813   9.924   9.078   1.039  0.9441 -2.4169 -3.2964
  143MOL0     H18814   9.862   9.183   0.899  0.7051  2.0810 -0.0196
  143MOL0     H18815   9.797   9.306   1.068 -0.1367 -1.5484 -1.9089
  143MOL0     H18816   9.957   9.375   1.033  1.0545 -0.2376 -0.0755
  143MOL0     H18817   9.882   9.198   1.261  0.2259 -2.1327 -3.7336
  143MOL0     H18818   9.963   9.370   1.256 -3.0271  0.3247  0.3133
  143MOL0     H18819  10.082   9.099   1.215 -2.5815 -0.9820  2.8493
  143MOL0     H18820  10.158   9.263   1.197 -0.2971 -0.0723  2.8520
  143MOL0     H18821  10.214   9.148   1.401  0.5450  0.8999 -0.1338
  143MOL0     H18822  10.040   9.167   1.447 -2.2966  1.7386 -1.1953
  143MOL0     H18823  10.075   9.423   1.466 -0.2377 -0.0814  2.8715
  143MOL0     H18824  10.220   9.407   1.372 -0.6539 -0.5805  0.0636
  143MOL0     H18825  10.335   9.301   1.552 -1.4536 -0.4634 -0.8079
  143MOL0     H18826  10.276   9.461   1.589  6.0492 -1.1549  0.1887
  143MOL0     H18827  10.179   9.169   1.674  1.5390 -0.9443 -1.4378
  143MOL0     H18828  10.079   9.296   1.713 -0.5246 -0.5487 -1.5268
  143MOL0     H18829  10.433   9.170   1.814  0.9170  1.3824 -0.2805
  143MOL0     H18830  10.579   9.392   2.079 -0.9668  0.7816 -0.3902
  143MOL0     H18831  10.629   9.269   1.968  0.6606 -1.3172 -0.5140
  143MOL0     H18832  10.470   9.107   2.110  4.5574 -3.5590  0.3862
  143MOL0     H18833  10.463   9.240   2.225 -0.9996 -2.6393  1.4305
  143MOL0     H18834  10.720   9.103   2.131 -1.2612 -1.8763 -0.3574
  143MOL0     H18835  10.697   9.232   2.248 -1.6479  2.3079 -1.1772
  143MOL0     H18836  10.713   9.021   2.377 -0.3717 -1.8525 -1.0651
  143MOL0     H18837  10.601   8.949   2.258  1.6794  0.0220 -1.2188
  143MOL0     H18838  10.610   8.813   2.423  1.3968  2.1812 -0.7313
  143MOL0     H18839  10.532   8.657   2.596  0.8265  1.2518  1.1226
  143MOL0     H18840  10.276   8.768   3.121 -0.1751 -0.9534  1.5658
  143MOL0     H18841  10.131   8.684   3.295  1.9632 -0.9091  0.9361
  143MOL0     H18842   9.946   8.640   3.439  2.7078 -0.7184  1.4301
  143MOL0     H18843  10.038   8.487   3.409 -0.3382 -1.5818  2.5102
  143MOL0     H18844   9.748   8.511   3.505  0.1989  0.4847  1.1460
  143MOL0     H18845   9.883   8.468   3.592  1.9397 -2.7916  0.4081
  143MOL0     H18846   9.772   8.262   3.524  1.2848 -0.5224  0.5425
  143MOL0     H18847   9.912   8.251   3.423 -1.6820 -2.3292 -1.9802
  143MOL0     H18848   9.618   8.304   3.358 -0.7833  3.5981 -4.2864
  143MOL0     H18849   9.740   8.379   3.261  1.0283  0.4336  1.2595
  143MOL0     H18850   9.719   8.072   3.335  3.0428 -1.5363 -0.4178
  143MOL0     H18851   9.838   8.147   3.230  1.1786 -4.1418  4.0224
  143MOL0     H18852   9.634   8.231   3.085  0.5740 -1.3331  0.1424
  143MOL0     H18853   9.524   8.143   3.183  0.8461 -1.6038  1.3849
  143MOL0     H18854   9.742   8.037   3.002  0.2646  1.2039  1.2155
  143MOL0     H18855   9.665   7.924   3.116 -0.1450 -0.5057  1.1368
  143MOL0     H18856   9.500   8.089   2.927 -3.5463 -0.6454 -0.2976
  143MOL0     H18857   9.434   7.949   3.015 -0.8088 -0.2881 -1.5532
  143MOL0     H18858   9.862   8.504   3.024  0.5133 -1.4927 -4.0666
  143MOL0     H18859   9.992   8.590   2.821  1.4359  0.4005 -0.4304
  143MOL0     H18860  10.243   8.948   2.741 -1.1802 -0.1359 -0.8715
  143MOL0     H18861  10.348   9.123   2.591 -0.3836  0.0811  0.9173
  143MOL0     H18862  10.310   9.238   0.840  1.4713  1.8089 -3.9293
  143MOL0     H18863  10.410   9.136   0.650  1.0865  1.6387  1.5152
  143MOL0     H18864  10.451   8.524   0.534  0.7702 -2.5459 -1.5484
  143MOL0     H18865  10.473   8.389   0.345 -3.5428 -0.5063  1.5064
  143MOL0     H18866  10.479   8.283   0.172 -0.0315 -1.2737 -1.1199
  143MOL0     H18867  10.601   8.367   0.086  0.5577 -2.3030  1.5423
  143MOL0     H18868  10.552   8.199  -0.063  3.5499  3.4187  4.6548
  143MOL0     H18869  10.367   8.212  -0.040 -1.0558 -0.4311 -1.2259
  143MOL0     H18870  10.524   8.444  -0.174 -0.3806  0.4604  0.2414
  143MOL0     H18871  10.355   8.414  -0.175  1.1483  0.0178  0.3810
  143MOL0     H18872  10.387   8.191  -0.292  1.3517 -0.3206  2.1069
  143MOL0     H18873  10.421   8.332  -0.388  3.1916  0.9918 -0.1781
  143MOL0     H18874  10.789   8.115  -0.409 -0.0177 -1.5633 -0.0854
  143MOL0     H18875  10.340   8.712   0.084  1.3677  0.4778 -0.3127
  143MOL0     H18876  10.310   8.838   0.313 -1.9947  0.0131  0.5177
  144MOL0     O18877   0.783  11.171   6.753 -0.1666 -0.1978 -0.4077
  144MOL0     C18878   0.860  11.227   6.831 -0.4704  0.0297 -0.4268
  144MOL0     O18879   0.922  11.344   6.807 -0.1905  0.1619 -0.2418
  144MOL0     C18880   0.910  11.415   6.683  0.0210 -0.5220  0.7083
  144MOL0     C18881   0.977  11.373   6.569  0.1525  0.6150  1.1507
  144MOL0     C18882   0.970  11.434   6.443  1.5124 -0.6734 -1.0345
  144MOL0     C18883   0.892  11.551   6.439  0.7891  0.1081 -1.5582
  144MOL0     O18884   0.879  11.600   6.310 -0.4009 -0.2657 -0.5832
  144MOL0     C18885   0.857  11.739   6.299  0.5093  0.0121 -1.0048
  144MOL0     C18886   0.797  11.754   6.160  0.3598  0.0693 -1.0707
  144MOL0     C18887   0.693  11.635   6.138  0.2216  0.5890  0.3489
  144MOL0     C18888   0.741  11.500   6.075 -0.0200  0.3787  0.1132
  144MOL0     C18889   0.643  11.423   5.995  0.1682 -0.1768 -0.3797
  144MOL0     C18890   0.718  11.364   5.873 -0.3769 -0.0746  0.1599
  144MOL0     C18891   0.825  11.254   5.887  0.2663 -0.2776  0.0745
  144MOL0     C18892   0.820  11.156   5.773 -0.4325 -0.3266  1.0637
  144MOL0     N18893   0.707  11.062   5.793 -0.0907  0.5300  0.1938
  144MOL0     C18894   0.715  10.946   5.878 -0.5059 -1.2531  1.0509
  144MOL0     C18895   0.607  10.870   5.850  0.3590 -0.8939 -0.1877
  144MOL0     C18896   0.569  10.759   5.942 -0.6368  0.3171  1.0212
  144MOL0     C18897   0.435  10.701   5.913  0.3874 -0.3140 -0.8428
  144MOL0     C18898   0.405  10.574   5.991 -0.6989  0.9158  0.2261
  144MOL0     C18899   0.259  10.544   5.973  0.0831 -0.2664 -0.5399
  144MOL0     O18900   0.218  10.487   6.097  0.5132 -0.3580  0.2791
  144MOL0     C18901   0.184  10.355   6.114 -0.2549  0.4919 -0.0010
  144MOL0     C18902   0.107  10.280   6.026  1.0522 -0.0640 -0.3174
  144MOL0     C18903   0.069  10.158   6.061 -0.2953 -0.6436 -0.0265
  144MOL0     C18904   0.130  10.090   6.157 -0.4885  0.4131 -0.6205
  144MOL0     C18905   0.095   9.948   6.178 -0.2884 -0.0100  0.1846
  144MOL0     O18906   0.198   9.866   6.245  0.9896  0.3321  0.3970
  144MOL0     C18907   0.177   9.739   6.294 -0.0028  0.7748  0.0206
  144MOL0     C18908   0.287   9.659   6.329  0.7545 -0.0171 -0.0083
  144MOL0     C18909   0.265   9.537   6.397 -0.1157  0.2505  0.0260
  144MOL0     C18910   0.140   9.489   6.435  0.5600  0.2908 -0.1003
  144MOL0     O18911   0.124   9.378   6.520 -0.2476 -0.2196 -1.0009
  144MOL0     C18912  -0.007   9.333   6.544 -0.0605  0.1656 -0.4032
  144MOL0     C18913   0.004   9.215   6.644  0.6203 -0.1740  0.0034
  144MOL0     C18914   0.096   9.098   6.589  0.6816  0.4690  0.5009
  144MOL0     C18915   0.075   8.963   6.663 -0.3359 -0.6319 -0.1716
  144MOL0     C18916  -0.062   8.896   6.611 -0.7255  0.2662  0.1652
  144MOL0     C18917  -0.161   8.861   6.716 -0.2645  0.2188 -0.2290
  144MOL0     C18918  -0.273   8.773   6.658  0.4059 -0.6396  0.6204
  144MOL0     C18919  -0.411   8.799   6.711 -1.1283 -0.7514 -0.0452
  144MOL0    Cl18920  -0.462   8.969   6.693  0.2457 -0.0996  0.1814
  144MOL0     C18921   0.036   9.561   6.378  0.4399  0.5709  0.0820
  144MOL0     C18922   0.050   9.681   6.305  0.0837  0.4779 -0.9084
  144MOL0     O18923  -0.017   9.910   6.142  0.5123 -0.8588 -0.6310
  144MOL0     C18924   0.222  10.153   6.238  1.9293  0.7195  0.3590
  144MOL0     C18925   0.242  10.287   6.223  0.1399 -0.8342  0.8304
  144MOL0     N18926   0.526  10.933   5.757 -0.6869 -0.2465  0.0812
  144MOL0     N18927   0.599  11.040   5.712  0.2244  0.2195 -0.3478
  144MOL0     C18928   0.838  11.597   6.555  0.0915 -0.5385  0.5936
  144MOL0     C18929   0.841  11.533   6.675  1.1552  0.8081 -0.9056
  144MOL0     C18930   0.877  11.150   6.961 -0.5004  0.7662  0.3569
  144MOL0     C18931   0.949  11.199   7.066 -0.5512  0.7458  0.1089
  144MOL0     C18932   0.980  11.117   7.182 -0.2699 -0.8582 -0.0851
  144MOL0     C18933   0.943  10.984   7.180 -1.4217 -0.4361 -0.2190
  144MOL0     O18934   0.980  10.916   7.294 -0.1681  0.5766 -0.1944
  144MOL0     C18935   0.942  10.774   7.305  0.1223 -1.0238  0.2212
  144MOL0     C18936   1.048  10.695   7.210  0.9843 -0.3462  0.1844
  144MOL0     C18937   1.050  10.543   7.219 -0.0382 -0.4057  0.4660
  144MOL0     C18938   1.079  10.494   7.362  0.8320 -0.6989  0.5202
  144MOL0     C18939   1.158  10.368   7.366  0.1524  0.4861  1.0623
  144MOL0     C18940   1.229  10.271   7.391  0.2833 -0.6424 -0.1188
  144MOL0     C18941   0.870  10.935   7.069 -0.6512 -0.5263 -0.3254
  144MOL0     C18942   0.833  11.017   6.958  0.0872  0.4086 -0.7371
  144MOL0     H18943   1.049  11.292   6.577  0.5744  0.7409 -0.8671
  144MOL0     H18944   1.021  11.383   6.362 -1.6664 -4.9126 -0.6856
  144MOL0     H18945   0.950  11.794   6.313 -0.6209  2.2420 -1.7257
  144MOL0     H18946   0.786  11.776   6.373 -0.7043 -1.7475 -1.2363
  144MOL0     H18947   0.869  11.754   6.078 -0.7437  1.8881 -2.1294
  144MOL0     H18948   0.745  11.850   6.148  1.0019  0.2118 -3.0043
  144MOL0     H18949   0.618  11.669   6.067 -0.4115 -0.8261  0.2992
  144MOL0     H18950   0.650  11.623   6.238  0.3141  1.5976  0.5199
  144MOL0     H18951   0.824  11.529   6.010  0.3207 -1.0323 -0.1009
  144MOL0     H18952   0.798  11.434   6.141 -0.6501 -0.2812  0.0070
  144MOL0     H18953   0.573  11.492   5.948  1.1270 -0.2703 -2.0114
  144MOL0     H18954   0.592  11.343   6.049  1.8350 -0.3444  1.0745
  144MOL0     H18955   0.774  11.440   5.817 -1.7037  0.8014 -0.0147
  144MOL0     H18956   0.639  11.326   5.809  1.6006 -1.1174 -1.7876
  144MOL0     H18957   0.918  11.308   5.906 -1.2743  1.9592  1.8013
  144MOL0     H18958   0.811  11.195   5.978  1.4428 -0.9177 -0.1472
  144MOL0     H18959   0.913  11.099   5.778 -1.4989 -2.3813 -0.8339
  144MOL0     H18960   0.814  11.200   5.673  2.8397 -0.7008  0.5878
  144MOL0     H18961   0.796  10.918   5.945 -1.3994  1.7761  3.6496
  144MOL0     H18962   0.577  10.793   6.046 -1.7914  3.0512  0.3218
  144MOL0     H18963   0.633  10.671   5.935 -1.2865 -0.1176  0.5319
  144MOL0     H18964   0.442  10.680   5.805  0.8247  1.1906 -1.1314
  144MOL0     H18965   0.373  10.789   5.931  2.1509  1.2211 -1.9166
  144MOL0     H18966   0.464  10.493   5.946 -1.3256  0.8306 -0.4720
  144MOL0     H18967   0.446  10.570   6.092 -0.6881 -0.1144  0.1924
  144MOL0     H18968   0.243  10.470   5.893  4.2937 -0.2076 -1.6589
  144MOL0     H18969   0.196  10.626   5.938  2.8619  1.6009 -1.4736
  144MOL0     H18970   0.060  10.340   5.949 -1.4275  1.0905  1.8956
  144MOL0     H18971  -0.011  10.107   6.009 -0.4328  0.4334 -0.9159
  144MOL0     H18972   0.385   9.703   6.313  0.9283  1.1444  3.5112
  144MOL0     H18973   0.348   9.481   6.439 -1.8899 -0.8465  2.2985
  144MOL0     H18974  -0.042   9.298   6.447  0.6880 -1.0542 -0.2636
  144MOL0     H18975  -0.064   9.408   6.600  2.6910  0.9325  1.5761
  144MOL0     H18976  -0.098   9.179   6.660 -0.0323  2.5905  2.9377
  144MOL0     H18977   0.027   9.249   6.745 -2.0168 -1.5366  1.1761
  144MOL0     H18978   0.199   9.129   6.610  0.4338  1.4448  0.3351
  144MOL0     H18979   0.092   9.078   6.481  0.3145 -2.5809  0.9809
  144MOL0     H18980   0.170   8.913   6.643  0.2196  0.8712 -1.5072
  144MOL0     H18981   0.064   8.988   6.768  0.1448 -1.2489  0.0328
  144MOL0     H18982  -0.037   8.805   6.555 -3.9059 -0.6932  0.0813
  144MOL0     H18983  -0.098   8.966   6.535  0.0244 -1.5508 -1.9704
  144MOL0     H18984  -0.213   8.946   6.760 -0.8079  1.0133 -2.3171
  144MOL0     H18985  -0.107   8.804   6.792  1.1405  0.2664 -1.1594
  144MOL0     H18986  -0.281   8.792   6.550 -1.5939  0.7604  0.9667
  144MOL0     H18987  -0.251   8.666   6.667 -1.6671 -1.0058  1.8396
  144MOL0     H18988  -0.414   8.773   6.818 -0.3514  3.1609  1.0943
  144MOL0     H18989  -0.480   8.731   6.662 -1.0081 -1.3437  0.5840
  144MOL0     H18990  -0.065   9.528   6.404  1.6181 -2.2288  1.5145
  144MOL0     H18991  -0.044   9.717   6.265  1.1347  1.1909 -2.8440
  144MOL0     H18992   0.265  10.104   6.325  1.5940 -0.2824 -0.0178
  144MOL0     H18993   0.304  10.325   6.304 -0.2872 -3.2127  2.3755
  144MOL0     H18994   0.781  11.690   6.552  1.5055  0.3605 -1.8507
  144MOL0     H18995   0.785  11.558   6.765  2.0225 -2.2640  0.6004
  144MOL0     H18996   0.973  11.303   7.049 -0.6221  0.8612  0.7190
  144MOL0     H18997   1.040  11.148   7.266 -0.0837 -1.0249 -0.1565
  144MOL0     H18998   0.836  10.756   7.283 -0.7865  3.7278 -0.2942
  144MOL0     H18999   0.948  10.752   7.412 -2.5911  0.7572  0.8371
  144MOL0     H19000   1.039  10.721   7.104 -3.5894 -2.6871 -0.2504
  144MOL0     H19001   1.145  10.728   7.248  0.9294 -2.4397  2.3845
  144MOL0     H19002   1.134  10.503   7.163 -1.3311 -1.4666 -0.7947
  144MOL0     H19003   0.953  10.498   7.194  0.3592 -0.9538 -0.1145
  144MOL0     H19004   1.151  10.564   7.406 -1.2462  0.3033  2.5019
  144MOL0     H19005   0.990  10.492   7.425  0.1627 -1.1433 -0.4189
  144MOL0     H19006   1.284  10.183   7.416 -0.1841 -0.6363  0.9558
  144MOL0     H19007   0.853  10.829   7.054  2.0777 -1.3122  1.2654
  144MOL0     H19008   0.780  10.979   6.871 -1.2067 -3.7261  1.5619
  145MOL0     O19009   1.260   5.359   1.847 -0.8288 -0.6294 -0.9032
  145MOL0     C19010   1.151   5.410   1.854  0.0151 -1.3080  0.0398
  145MOL0     O19011   1.093   5.448   1.966  0.3792  0.5814 -0.2183
  145MOL0     C19012   1.134   5.441   2.093 -0.0651  0.6795 -0.0549
  145MOL0     C19013   1.263   5.419   2.138  0.4412 -0.2335 -0.3011
  145MOL0     C19014   1.294   5.419   2.275  0.1363  0.1864 -0.3932
  145MOL0     C19015   1.193   5.448   2.374  0.5672 -0.0478  0.2057
  145MOL0     O19016   1.213   5.452   2.509  0.1996  0.5697 -0.1740
  145MOL0     C19017   1.344   5.399   2.561  0.1653 -0.9765 -0.3504
  145MOL0     C19018   1.339   5.356   2.701 -0.3075  0.4517  0.1850
  145MOL0     C19019   1.226   5.264   2.725 -0.0425  0.7983  0.1137
  145MOL0     C19020   1.235   5.215   2.875 -0.5537  1.5155  0.2403
  145MOL0     C19021   1.143   5.099   2.899 -0.6036  0.6642 -1.1328
  145MOL0     C19022   0.997   5.127   2.928 -0.2232  0.0726 -0.4222
  145MOL0     C19023   0.918   4.994   2.924 -0.3835  0.6044  0.1855
  145MOL0     C19024   0.763   5.011   2.933 -0.0241  1.0782 -0.4321
  145MOL0     N19025   0.714   4.993   2.797 -0.3138 -0.7434 -0.2368
  145MOL0     C19026   0.704   5.094   2.700 -0.8711  0.2299 -0.2082
  145MOL0     C19027   0.664   5.032   2.594 -0.4398 -0.4164  1.2873
  145MOL0     C19028   0.622   5.104   2.463  0.5175  0.1379  0.5617
  145MOL0     C19029   0.511   5.206   2.486  0.1506 -0.8705  0.0959
  145MOL0     C19030   0.387   5.150   2.567 -0.4105  0.5624  0.5128
  145MOL0     C19031   0.266   5.246   2.561 -0.3130 -0.9838  0.0194
  145MOL0     O19032   0.207   5.263   2.427 -0.1851 -0.1392  0.2551
  145MOL0     C19033   0.100   5.350   2.410  0.1935  0.4052 -0.6841
  145MOL0     C19034   0.017   5.339   2.303 -0.2478  0.4496  0.1791
  145MOL0     C19035  -0.094   5.417   2.281  0.4269 -0.0044  0.7900
  145MOL0     C19036  -0.138   5.509   2.380  0.4195  0.2179  0.2301
  145MOL0     C19037  -0.262   5.584   2.363  0.8858  0.0250 -0.4842
  145MOL0     O19038  -0.328   5.551   2.248 -0.0652 -0.5937  1.6098
  145MOL0     C19039  -0.456   5.591   2.230 -0.1732  0.2259 -0.0907
  145MOL0     C19040  -0.568   5.505   2.248  0.4815  0.7032  0.7329
  145MOL0     C19041  -0.698   5.544   2.209 -0.9002  0.2119 -0.0499
  145MOL0     C19042  -0.714   5.671   2.144 -0.0607 -0.1439  0.7878
  145MOL0     O19043  -0.830   5.713   2.081 -0.2225  0.4250  0.5586
  145MOL0     C19044  -0.949   5.633   2.079 -1.2231 -0.9824  0.7607
  145MOL0     C19045  -1.051   5.686   1.988 -0.5610 -0.1695 -0.4257
  145MOL0     C19046  -1.073   5.833   2.017  0.9493  0.4668  0.4334
  145MOL0     C19047  -1.186   5.901   1.945  0.6821  0.1702  0.6532
  145MOL0     C19048  -1.222   5.846   1.800  0.6256  0.5416 -0.3582
  145MOL0     C19049  -1.348   5.920   1.754 -0.5331 -0.6042  0.3087
  145MOL0     C19050  -1.443   5.836   1.671 -0.3829  0.2637  0.0979
  145MOL0     C19051  -1.388   5.799   1.533 -0.5074 -0.7035  0.2919
  145MOL0    Cl19052  -1.515   5.687   1.458 -0.1123 -0.1462 -0.3525
  145MOL0     C19053  -0.595   5.746   2.123  0.4393 -0.4754  0.0600
  145MOL0     C19054  -0.472   5.708   2.163  0.2275 -0.6321  0.1051
  145MOL0     O19055  -0.292   5.673   2.436  0.0338 -0.5389 -0.6177
  145MOL0     C19056  -0.061   5.516   2.498  0.2221  0.1521 -0.0360
  145MOL0     C19057   0.060   5.439   2.517  0.1802  0.8141  0.2105
  145MOL0     N19058   0.668   4.895   2.618 -0.0735 -0.3345 -0.1626
  145MOL0     N19059   0.705   4.873   2.736  0.2413  0.6369 -0.5806
  145MOL0     C19060   1.068   5.465   2.330  0.0210  0.3820  0.6286
  145MOL0     C19061   1.030   5.450   2.192  1.1296  0.4525 -0.2474
  145MOL0     C19062   1.065   5.422   1.735 -0.5698 -1.1504 -0.0080
  145MOL0     C19063   1.111   5.398   1.606 -0.6907 -0.8748 -0.5453
  145MOL0     C19064   1.038   5.420   1.499 -0.2534  0.3285  0.4451
  145MOL0     C19065   0.903   5.454   1.501 -0.1170 -0.6846  0.1532
  145MOL0     O19066   0.812   5.485   1.396 -0.4101  1.2413 -0.1622
  145MOL0     C19067   0.888   5.487   1.266  0.3087 -0.0318  0.6188
  145MOL0     C19068   0.815   5.557   1.153 -0.0250  0.7330  0.1285
  145MOL0     C19069   0.779   5.702   1.189  0.1056  0.4595 -0.4230
  145MOL0     C19070   0.694   5.773   1.080 -0.8013 -0.3633 -0.1434
  145MOL0     C19071   0.787   5.834   0.986 -0.0308  0.0570  0.2680
  145MOL0     C19072   0.855   5.906   0.918 -0.0373  0.1754  0.6449
  145MOL0     C19073   0.850   5.466   1.633 -0.0067 -0.4159  0.8022
  145MOL0     C19074   0.930   5.452   1.747  0.6726  0.3584  0.0905
  145MOL0     H19075   1.339   5.402   2.062 -1.2972  4.7655 -3.6625
  145MOL0     H19076   1.396   5.410   2.311 -1.2473  1.0218  4.4077
  145MOL0     H19077   1.411   5.483   2.542  1.8582 -1.9503  1.0329
  145MOL0     H19078   1.364   5.307   2.505 -0.3024 -0.6055 -1.1391
  145MOL0     H19079   1.327   5.435   2.775 -0.6109 -1.9392  2.8736
  145MOL0     H19080   1.434   5.304   2.720  0.6059  1.4252 -1.4689
  145MOL0     H19081   1.219   5.179   2.657 -2.6374 -0.6371  1.9885
  145MOL0     H19082   1.131   5.315   2.711 -2.6379 -2.7872  2.6340
  145MOL0     H19083   1.340   5.187   2.889  0.2311  1.9066 -3.7422
  145MOL0     H19084   1.205   5.296   2.942 -4.4640  2.3174 -2.1527
  145MOL0     H19085   1.189   5.040   2.979 -1.2521 -0.0237 -1.2514
  145MOL0     H19086   1.145   5.037   2.808  0.4831  0.7669 -1.1918
  145MOL0     H19087   0.966   5.199   2.851  2.8470 -1.6929 -3.5804
  145MOL0     H19088   0.976   5.171   3.026  0.0466  2.3451 -1.3053
  145MOL0     H19089   0.948   4.935   2.837 -1.7494 -0.0326  0.1303
  145MOL0     H19090   0.956   4.928   3.002  1.6047  0.7463 -0.5920
  145MOL0     H19091   0.740   5.104   2.987  3.2138  1.6504  0.1610
  145MOL0     H19092   0.727   4.929   2.995 -0.9427  1.0937 -0.9300
  145MOL0     H19093   0.720   5.201   2.700  1.5095 -0.0491  0.9467
  145MOL0     H19094   0.587   5.034   2.386 -2.2776  0.3912  1.5098
  145MOL0     H19095   0.707   5.157   2.419  0.4577 -0.2815 -0.0807
  145MOL0     H19096   0.488   5.267   2.398  0.0660  1.9190  1.9192
  145MOL0     H19097   0.557   5.289   2.540 -0.6478 -0.0278 -0.4904
  145MOL0     H19098   0.372   5.048   2.531 -0.3379  0.1141  1.6956
  145MOL0     H19099   0.406   5.135   2.674 -1.6640  1.7124  0.9264
  145MOL0     H19100   0.301   5.340   2.603 -2.1833 -0.1019 -0.3201
  145MOL0     H19101   0.187   5.218   2.631  0.6741  2.2804  2.6532
  145MOL0     H19102   0.050   5.277   2.221 -3.5580 -1.1566 -0.1237
  145MOL0     H19103  -0.136   5.404   2.182  1.4969 -1.7048  0.5225
  145MOL0     H19104  -0.541   5.406   2.280 -2.8499 -1.1284 -1.4946
  145MOL0     H19105  -0.786   5.488   2.236 -0.7608  0.6556  1.3828
  145MOL0     H19106  -0.973   5.622   2.185 -0.3957 -0.7074  0.9899
  145MOL0     H19107  -0.922   5.533   2.042 -1.1675  0.4623 -3.6448
  145MOL0     H19108  -1.144   5.627   1.984  0.0953 -1.1404 -2.4530
  145MOL0     H19109  -1.008   5.660   1.892  0.1040 -4.0503  0.7431
  145MOL0     H19110  -0.982   5.894   2.013  1.0796  0.4444  2.1685
  145MOL0     H19111  -1.098   5.838   2.124  2.3707 -0.9330  0.8643
  145MOL0     H19112  -1.270   5.901   2.015  1.5693 -0.8188  1.7632
  145MOL0     H19113  -1.159   6.006   1.926  1.2708 -0.1242 -0.1955
  145MOL0     H19114  -1.247   5.741   1.819  0.3675  0.5076 -0.8823
  145MOL0     H19115  -1.137   5.861   1.733  0.5134  1.1856 -0.3609
  145MOL0     H19116  -1.321   6.013   1.705  0.7229 -0.1118  1.8427
  145MOL0     H19117  -1.399   5.950   1.846  3.2975 -0.9981  2.7810
  145MOL0     H19118  -1.473   5.742   1.718 -0.0948  0.3332  0.4302
  145MOL0     H19119  -1.537   5.889   1.653 -1.6780 -1.5680  1.1624
  145MOL0     H19120  -1.290   5.751   1.534  0.8770  1.9620  0.4867
  145MOL0     H19121  -1.371   5.891   1.476  0.7023  0.1602  1.9887
  145MOL0     H19122  -0.621   5.841   2.077  1.7268 -0.4201 -0.6017
  145MOL0     H19123  -0.385   5.768   2.141  0.4781 -0.1708  2.1208
  145MOL0     H19124  -0.090   5.583   2.578 -1.9384 -1.6114  0.7667
  145MOL0     H19125   0.112   5.450   2.612 -1.1972  0.7703  0.9947
  145MOL0     H19126   0.983   5.487   2.394 -3.7700  1.3195 -4.0715
  145MOL0     H19127   0.929   5.462   2.154  1.1467 -0.3384 -0.5733
  145MOL0     H19128   1.214   5.366   1.597 -0.3870  0.2091 -1.1394
  145MOL0     H19129   1.103   5.417   1.412  2.6218 -0.2504  2.4825
  145MOL0     H19130   0.913   5.387   1.229 -0.3535 -0.5292  1.4900
  145MOL0     H19131   0.976   5.550   1.284 -0.3609  1.1524 -0.1026
  145MOL0     H19132   0.883   5.547   1.068 -0.1141 -3.0323  0.3346
  145MOL0     H19133   0.722   5.506   1.127 -0.0403  1.2985 -0.9488
  145MOL0     H19134   0.871   5.760   1.204  0.6239 -0.8134  1.8173
  145MOL0     H19135   0.724   5.714   1.282 -1.0453  2.1899 -1.2796
  145MOL0     H19136   0.628   5.710   1.022  0.2629 -2.8055  1.1478
  145MOL0     H19137   0.645   5.856   1.133  0.6055  0.2633  0.2391
  145MOL0     H19138   0.919   5.964   0.855 -2.7567 -1.3061 -4.0240
  145MOL0     H19139   0.747   5.498   1.644  0.8579  2.2097  1.8699
  145MOL0     H19140   0.883   5.459   1.844  0.9345 -0.2813  0.2702
  146MOL0     O19141   4.270   1.517   3.413  0.3178  0.2814 -0.0179
  146MOL0     C19142   4.386   1.536   3.441 -0.0478 -0.3299 -0.3698
  146MOL0     O19143   4.445   1.657   3.466  0.1004  0.3160  0.4173
  146MOL0     C19144   4.368   1.765   3.454 -0.4606 -0.0697  0.5502
  146MOL0     C19145   4.360   1.822   3.323  0.6667  0.0839  0.0784
  146MOL0     C19146   4.280   1.932   3.297  0.3253  0.0509 -0.0159
  146MOL0     C19147   4.196   1.977   3.401  0.4150 -0.3957  0.4230
  146MOL0     O19148   4.109   2.079   3.369 -0.4520 -0.6601  0.9973
  146MOL0     C19149   4.026   2.138   3.461 -0.8391 -1.2136  0.3829
  146MOL0     C19150   3.902   2.059   3.508  0.0211 -0.0714  0.2189
  146MOL0     C19151   3.847   2.104   3.647  0.0071  0.4772 -0.4037
  146MOL0     C19152   3.797   2.250   3.648 -0.0935  0.2614  0.0915
  146MOL0     C19153   3.697   2.274   3.536 -0.1485  0.1823 -0.1820
  146MOL0     C19154   3.623   2.398   3.545  0.1917  0.3812 -0.0047
  146MOL0     C19155   3.511   2.395   3.661  0.4508 -0.3045  0.3871
  146MOL0     C19156   3.405   2.284   3.658 -0.1600 -0.2890  0.1839
  146MOL0     N19157   3.319   2.319   3.542  0.8521 -0.1146  0.6792
  146MOL0     C19158   3.221   2.227   3.509  0.5570  0.3167  0.5470
  146MOL0     C19159   3.184   2.255   3.387 -0.2172 -0.7177  0.0612
  146MOL0     C19160   3.086   2.175   3.305  0.3909 -0.3590  0.2820
  146MOL0     C19161   2.945   2.169   3.385 -0.4850 -0.4345 -0.3087
  146MOL0     C19162   2.837   2.092   3.307  0.1131  0.3207  0.6072
  146MOL0     C19163   2.847   1.948   3.355  0.0174  0.0272  0.2740
  146MOL0     O19164   2.801   1.910   3.482  0.8878 -0.8116 -0.1008
  146MOL0     C19165   2.664   1.918   3.508  0.6254 -0.0798  0.1163
  146MOL0     C19166   2.625   1.922   3.641  0.3601  0.6204  0.4859
  146MOL0     C19167   2.490   1.936   3.691 -0.3746 -0.5789  0.3248
  146MOL0     C19168   2.386   1.930   3.590 -0.0205 -0.3914  0.3304
  146MOL0     C19169   2.239   1.929   3.632 -0.0955  0.1124 -0.3357
  146MOL0     O19170   2.224   1.904   3.772 -0.5855  0.3330  0.0938
  146MOL0     C19171   2.104   1.901   3.816  0.0374 -0.7080  1.4428
  146MOL0     C19172   2.026   1.788   3.798 -0.1331  0.0488  0.8794
  146MOL0     C19173   1.899   1.791   3.850  0.3202  1.1698  0.2728
  146MOL0     C19174   1.844   1.907   3.911  0.0270 -0.5230  0.0553
  146MOL0     O19175   1.716   1.916   3.958 -0.3625  0.0925 -0.6608
  146MOL0     C19176   1.617   1.885   3.865  0.1813  1.4068 -0.2453
  146MOL0     C19177   1.478   1.901   3.929  0.0494  0.0818  1.0030
  146MOL0     C19178   1.470   1.909   4.083  0.4080  0.2548 -0.8458
  146MOL0     C19179   1.324   1.931   4.126  0.1132  0.4744  0.9175
  146MOL0     C19180   1.323   2.014   4.255  0.3753  0.4241 -0.0489
  146MOL0     C19181   1.186   2.081   4.291  0.5513 -0.4126  0.8374
  146MOL0     C19182   1.160   2.056   4.441 -0.2354 -0.2746  0.0870
  146MOL0     C19183   1.266   2.125   4.534 -1.2396  0.2641  0.6663
  146MOL0    Cl19184   1.232   2.119   4.704  0.1789 -0.3231 -0.2244
  146MOL0     C19185   1.924   2.023   3.918 -0.4138  0.4554  1.1562
  146MOL0     C19186   2.053   2.014   3.868 -0.5812 -0.7698 -0.0684
  146MOL0     O19187   2.150   1.971   3.555 -0.8197 -0.3513 -0.0664
  146MOL0     C19188   2.424   1.936   3.454  0.3108  0.4332 -0.6008
  146MOL0     C19189   2.558   1.933   3.414  0.3759  0.1222 -0.0550
  146MOL0     N19190   3.256   2.367   3.345  0.3252  0.0869 -0.1553
  146MOL0     N19191   3.338   2.398   3.437 -0.3824 -0.4604  0.2604
  146MOL0     C19192   4.197   1.926   3.522 -1.0177  0.4362 -0.1733
  146MOL0     C19193   4.289   1.819   3.548 -0.6122 -1.1120 -0.6097
  146MOL0     C19194   4.478   1.421   3.456  0.3099  0.7593 -1.0578
  146MOL0     C19195   4.436   1.295   3.420  0.1713  0.3731  0.6276
  146MOL0     C19196   4.523   1.178   3.408 -0.5907  0.0786  0.1324
  146MOL0     C19197   4.659   1.204   3.424  0.2987 -0.2030  0.0726
  146MOL0     O19198   4.747   1.106   3.430  1.0609 -0.4517  0.9205
  146MOL0     C19199   4.789   1.052   3.306 -0.7293 -0.3594  0.2092
  146MOL0     C19200   4.905   1.138   3.262  0.5759 -0.3959  0.6266
  146MOL0     C19201   5.004   1.048   3.200  0.3418  0.5895  0.3139
  146MOL0     C19202   5.121   1.135   3.161  0.9936  1.1031 -0.0237
  146MOL0     C19203   5.184   1.072   3.051 -0.3168  0.3328 -0.3141
  146MOL0     C19204   5.256   1.038   2.963 -0.7349 -0.0610 -0.4111
  146MOL0     C19205   4.701   1.327   3.468 -1.2930  0.9601  0.0889
  146MOL0     C19206   4.612   1.432   3.479 -1.0026 -0.8425  1.0154
  146MOL0     H19207   4.414   1.772   3.243  0.4014 -2.3843  1.3273
  146MOL0     H19208   4.260   1.980   3.202  0.2961  1.1599  0.5444
  146MOL0     H19209   4.003   2.240   3.427  1.2524  0.0038  2.3517
  146MOL0     H19210   4.078   2.160   3.555  1.1237  2.6583 -1.3428
  146MOL0     H19211   3.927   1.953   3.515  0.6680  0.1363  1.2892
  146MOL0     H19212   3.823   2.073   3.433  1.6281 -0.8445 -1.7191
  146MOL0     H19213   3.927   2.107   3.721 -1.6201  2.9288  1.4322
  146MOL0     H19214   3.768   2.040   3.685  1.0097  0.1007  1.1336
  146MOL0     H19215   3.747   2.274   3.742  1.0798  2.5693  0.2077
  146MOL0     H19216   3.879   2.320   3.625  0.6102 -1.0699 -1.6367
  146MOL0     H19217   3.634   2.185   3.528 -1.4077  1.1042 -0.9507
  146MOL0     H19218   3.755   2.271   3.443 -0.8670 -2.8388 -0.6400
  146MOL0     H19219   3.584   2.424   3.446  0.4415  0.5108 -0.0705
  146MOL0     H19220   3.695   2.475   3.575 -1.6301  2.0267  0.3486
  146MOL0     H19221   3.562   2.398   3.758  0.8566  0.0323  0.1672
  146MOL0     H19222   3.451   2.486   3.669  0.3936 -0.4671  2.0829
  146MOL0     H19223   3.349   2.279   3.752  0.1426  3.1062  0.6603
  146MOL0     H19224   3.457   2.188   3.642 -2.7199 -1.8156  0.4301
  146MOL0     H19225   3.187   2.139   3.563  2.1384  0.2949  1.5655
  146MOL0     H19226   3.128   2.077   3.279  0.2240 -0.2566 -0.3664
  146MOL0     H19227   3.071   2.235   3.215  2.0457  2.1887  1.5679
  146MOL0     H19228   2.900   2.268   3.398  1.5676  0.5516 -0.3737
  146MOL0     H19229   2.955   2.132   3.488 -0.7689 -0.0767 -0.1509
  146MOL0     H19230   2.737   2.133   3.325  0.1057  1.3334 -1.4304
  146MOL0     H19231   2.841   2.102   3.198  1.2944 -2.9567  0.2450
  146MOL0     H19232   2.953   1.920   3.347  0.9859  3.6035 -2.1698
  146MOL0     H19233   2.799   1.883   3.281  0.2866  0.4041 -0.2467
  146MOL0     H19234   2.700   1.897   3.715  0.6349  0.1951  0.0696
  146MOL0     H19235   2.455   1.930   3.794 -2.9195  1.1436 -0.3594
  146MOL0     H19236   2.064   1.702   3.744 -0.1899  0.4497  0.1784
  146MOL0     H19237   1.854   1.694   3.830  3.3112 -0.0883 -1.0106
  146MOL0     H19238   1.628   1.783   3.826 -0.0234  0.6658  1.5331
  146MOL0     H19239   1.619   1.953   3.779 -0.4077 -0.1547 -1.5563
  146MOL0     H19240   1.409   1.826   3.889  0.2479 -0.2690  1.3091
  146MOL0     H19241   1.442   1.999   3.896 -0.3940 -0.6187 -0.6866
  146MOL0     H19242   1.536   1.985   4.125  0.1318  0.2798 -0.4601
  146MOL0     H19243   1.515   1.817   4.123  0.9951  0.9240  0.0667
  146MOL0     H19244   1.262   1.981   4.051  1.5297 -1.8317 -1.9880
  146MOL0     H19245   1.274   1.834   4.136  1.0158 -1.3418 -6.3149
  146MOL0     H19246   1.408   2.082   4.256  1.3942 -0.6011 -3.8809
  146MOL0     H19247   1.347   1.944   4.337  1.6904  1.3012  0.3392
  146MOL0     H19248   1.107   2.034   4.231 -0.7897  0.4053  1.9066
  146MOL0     H19249   1.196   2.186   4.260  2.1067 -1.2185 -1.7490
  146MOL0     H19250   1.062   2.090   4.473  0.2069  2.3170 -1.0394
  146MOL0     H19251   1.170   1.949   4.462 -0.3332 -0.3450 -0.2191
  146MOL0     H19252   1.290   2.226   4.500 -2.0091  0.0183 -0.6428
  146MOL0     H19253   1.360   2.072   4.516 -0.3983  2.2552 -1.1733
  146MOL0     H19254   1.892   2.117   3.961  0.7184  1.9481 -1.1105
  146MOL0     H19255   2.125   2.094   3.884 -1.6498  0.4347 -1.0270
  146MOL0     H19256   2.337   1.947   3.389 -0.9150  1.5885  1.1654
  146MOL0     H19257   2.564   1.944   3.306  2.4068  3.1707  0.2428
  146MOL0     H19258   4.131   1.961   3.601 -0.6454 -3.0048  1.8625
  146MOL0     H19259   4.314   1.779   3.646  4.1850 -0.4946 -1.3018
  146MOL0     H19260   4.330   1.282   3.401  0.3802  0.3978 -0.6123
  146MOL0     H19261   4.497   1.073   3.392 -0.9484 -0.3004  2.7401
  146MOL0     H19262   4.701   1.043   3.241 -2.8077 -0.6673  2.8912
  146MOL0     H19263   4.826   0.951   3.320 -1.6672 -0.6289  0.8414
  146MOL0     H19264   4.865   1.207   3.186  1.7642 -0.7992 -0.4054
  146MOL0     H19265   4.950   1.184   3.350 -2.5262  2.7990  0.7827
  146MOL0     H19266   4.945   0.997   3.124 -1.2578  0.3389  1.6530
  146MOL0     H19267   5.032   0.961   3.261 -0.1084  0.7077  0.6964
  146MOL0     H19268   5.096   1.234   3.124 -1.5442  0.4774 -0.1623
  146MOL0     H19269   5.193   1.144   3.243  1.3981 -0.3815 -0.1806
  146MOL0     H19270   5.314   1.011   2.877  0.0592  1.3250 -0.3457
  146MOL0     H19271   4.803   1.346   3.499 -0.4238 -1.2325 -1.1582
  146MOL0     H19272   4.669   1.524   3.469 -0.0790 -1.0464  3.7457
  147MOL0     O19273   5.123   3.262   2.919  0.8928 -0.4213  0.3373
  147MOL0     C19274   5.022   3.274   2.983  0.7982  0.0995 -0.1597
  147MOL0     O19275   4.972   3.170   3.065  0.8297 -0.0716  0.5735
  147MOL0     C19276   5.062   3.073   3.102  0.7796  0.2866 -0.0932
  147MOL0     C19277   5.182   3.104   3.185  1.1233  0.1365 -0.1694
  147MOL0     C19278   5.281   3.003   3.199  0.1361  0.0399 -0.4461
  147MOL0     C19279   5.245   2.875   3.157 -0.4023 -0.4616 -0.0231
  147MOL0     O19280   5.343   2.785   3.195  0.2488 -0.1497  1.2550
  147MOL0     C19281   5.354   2.668   3.108  0.0840  0.2882 -1.1637
  147MOL0     C19282   5.487   2.599   3.126  0.5667 -0.4544 -0.8792
  147MOL0     C19283   5.501   2.464   3.048 -0.4614 -0.2073  0.2515
  147MOL0     C19284   5.375   2.373   3.006  0.0791 -0.6856  0.0279
  147MOL0     C19285   5.302   2.346   3.140  0.7108  1.1452  0.2427
  147MOL0     C19286   5.153   2.301   3.101 -1.1169 -0.1114 -1.1662
  147MOL0     C19287   5.055   2.247   3.201  0.2885 -0.7154 -0.4047
  147MOL0     C19288   5.120   2.131   3.288 -1.0352  0.1869 -0.9081
  147MOL0     N19289   5.030   2.110   3.402 -0.2931 -0.1509  0.9402
  147MOL0     C19290   5.044   2.177   3.516  0.4166  0.1709  0.6645
  147MOL0     C19291   4.945   2.126   3.588  0.1077 -0.0645 -1.4185
  147MOL0     C19292   4.907   2.189   3.717 -0.5791  0.0875  0.5755
  147MOL0     C19293   4.899   2.103   3.841  0.1789  0.5926 -0.1432
  147MOL0     C19294   4.868   2.178   3.973  0.2244 -0.5013  0.1663
  147MOL0     C19295   4.998   2.222   4.047  0.5984 -0.1331  1.1424
  147MOL0     O19296   4.972   2.327   4.145 -0.3437  0.7224  0.1291
  147MOL0     C19297   4.991   2.456   4.105 -0.6333  0.4071 -0.1464
  147MOL0     C19298   5.000   2.503   3.975  1.2124  0.4820  0.0054
  147MOL0     C19299   5.030   2.637   3.954 -0.0413  0.0418  0.2136
  147MOL0     C19300   5.042   2.727   4.056 -0.8272  1.0232  0.7065
  147MOL0     C19301   5.069   2.874   4.025  0.0893 -0.2366  0.0598
  147MOL0     O19302   5.035   2.919   3.896 -0.2731  0.2037 -0.2397
  147MOL0     C19303   5.076   3.046   3.870  0.0802  1.3025  0.2675
  147MOL0     C19304   5.010   3.151   3.923 -0.6481 -0.8692  0.0505
  147MOL0     C19305   5.067   3.285   3.906 -0.4236  0.3413 -0.5959
  147MOL0     C19306   5.162   3.303   3.806 -0.1621 -0.3505 -0.3137
  147MOL0     O19307   5.184   3.439   3.769 -0.1616  0.4744  0.1857
  147MOL0     C19308   5.269   3.458   3.660 -0.4853 -0.6297  0.6199
  147MOL0     C19309   5.323   3.594   3.671 -0.6017  0.4740 -0.8059
  147MOL0     C19310   5.454   3.621   3.604 -0.4277  0.2929  0.5263
  147MOL0     C19311   5.465   3.574   3.451 -0.7164 -0.3399  0.4187
  147MOL0     C19312   5.561   3.643   3.346  1.1205  0.0045 -0.1600
  147MOL0     C19313   5.714   3.617   3.368 -0.4221  0.7813  0.4900
  147MOL0     C19314   5.747   3.463   3.357 -1.8520  0.0008  0.4513
  147MOL0     C19315   5.895   3.456   3.331 -1.0283 -0.5182  0.2133
  147MOL0    Cl19316   5.937   3.292   3.386 -0.4737  0.4144  0.0178
  147MOL0     C19317   5.223   3.194   3.750  0.3041  0.5388 -0.7084
  147MOL0     C19318   5.180   3.065   3.777 -0.7794 -0.4544  0.0690
  147MOL0     O19319   5.121   2.943   4.113  1.0409 -0.2270 -0.2870
  147MOL0     C19320   5.031   2.681   4.194 -0.2685  0.8107  0.0772
  147MOL0     C19321   4.992   2.545   4.211  0.4819  0.4447  0.5008
  147MOL0     N19322   4.898   2.012   3.523  0.2179 -0.1880  0.0251
  147MOL0     N19323   4.945   2.003   3.410 -0.5603 -0.1705  0.7743
  147MOL0     C19324   5.120   2.841   3.098 -0.6477 -1.5933  0.7097
  147MOL0     C19325   5.033   2.951   3.072 -0.0060  1.0543  0.2739
  147MOL0     C19326   4.944   3.397   2.946  0.4952  0.2367 -0.8564
  147MOL0     C19327   5.003   3.510   2.888 -1.0947  0.0328  0.3008
  147MOL0     C19328   4.916   3.612   2.838  0.5181 -0.1244  0.4396
  147MOL0     C19329   4.778   3.610   2.856 -1.4326 -0.7689 -0.2182
  147MOL0     O19330   4.698   3.712   2.809 -0.4700  0.1650  0.2791
  147MOL0     C19331   4.621   3.786   2.897 -0.1228 -0.6579  0.2236
  147MOL0     C19332   4.583   3.908   2.804  0.3760 -0.2039  0.0611
  147MOL0     C19333   4.687   4.016   2.784 -0.2588  0.8388 -0.7264
  147MOL0     C19334   4.776   3.983   2.659 -0.5490 -1.0300 -0.5424
  147MOL0     C19335   4.854   4.104   2.611  0.4730  0.0044 -0.0167
  147MOL0     C19336   4.906   4.212   2.594  0.1570 -0.1307  0.1802
  147MOL0     C19337   4.725   3.512   2.942  0.0060  0.1770  0.8103
  147MOL0     C19338   4.804   3.398   2.980 -0.3844  0.4331  0.6796
  147MOL0     H19339   5.202   3.207   3.211  4.0517 -0.5687  0.7512
  147MOL0     H19340   5.382   3.019   3.236  0.0317  0.3997 -0.3112
  147MOL0     H19341   5.338   2.699   3.004  1.2233  0.7087 -1.2216
  147MOL0     H19342   5.266   2.608   3.132  0.2185  1.5740  3.3302
  147MOL0     H19343   5.505   2.574   3.231 -0.0171 -0.4635 -0.7773
  147MOL0     H19344   5.569   2.669   3.107 -0.0958  2.1653  4.2759
  147MOL0     H19345   5.572   2.399   3.100 -1.4400 -0.1757  1.6813
  147MOL0     H19346   5.544   2.494   2.952  1.0018 -0.3237  0.8489
  147MOL0     H19347   5.306   2.426   2.940  1.6370  0.2295 -0.9486
  147MOL0     H19348   5.410   2.288   2.946 -1.2765  0.3971 -2.4843
  147MOL0     H19349   5.296   2.429   3.210 -1.6811  0.0064  1.4934
  147MOL0     H19350   5.355   2.264   3.189 -3.2977 -0.5677  2.1491
  147MOL0     H19351   5.169   2.213   3.038 -0.1696 -0.9654  0.2105
  147MOL0     H19352   5.101   2.372   3.036 -3.2620 -0.3856  0.1702
  147MOL0     H19353   5.024   2.332   3.262  2.1767  0.6992 -1.3327
  147MOL0     H19354   4.959   2.216   3.159 -0.2291  0.7198 -0.3446
  147MOL0     H19355   5.216   2.164   3.329 -0.8737 -0.9766 -0.3031
  147MOL0     H19356   5.134   2.034   3.240 -0.7442 -0.5663  0.6343
  147MOL0     H19357   5.104   2.265   3.535  1.2379 -0.4174  0.8592
  147MOL0     H19358   4.814   2.243   3.702 -0.5041 -0.0187 -0.4067
  147MOL0     H19359   4.978   2.268   3.742  1.6406 -1.3554 -0.7051
  147MOL0     H19360   4.984   2.035   3.848  1.1361  1.6868 -0.7363
  147MOL0     H19361   4.831   2.018   3.840  0.7041 -0.0205  3.4767
  147MOL0     H19362   4.816   2.269   3.945 -1.1800 -0.9568  1.1461
  147MOL0     H19363   4.803   2.126   4.045  1.9530  1.1604  3.1353
  147MOL0     H19364   5.085   2.254   3.987 -0.0561  1.1656  0.8421
  147MOL0     H19365   5.020   2.130   4.101 -2.4505 -2.1809 -0.8314
  147MOL0     H19366   4.986   2.431   3.895 -4.0273  1.2308 -0.1055
  147MOL0     H19367   5.053   2.672   3.853 -0.0857  2.3738  0.9517
  147MOL0     H19368   4.925   3.143   3.989  0.0250 -0.6546  0.9644
  147MOL0     H19369   5.021   3.361   3.968  0.1671 -0.7205  1.2276
  147MOL0     H19370   5.225   3.432   3.563  1.0985  0.5420 -0.4514
  147MOL0     H19371   5.355   3.392   3.674 -0.5293 -1.2267 -1.5107
  147MOL0     H19372   5.334   3.617   3.777  2.1094  0.0870 -0.9366
  147MOL0     H19373   5.242   3.653   3.628 -2.0615 -1.5992 -1.0593
  147MOL0     H19374   5.540   3.590   3.664 -0.6921  1.2129  1.4169
  147MOL0     H19375   5.465   3.728   3.587 -1.3771  0.4547  0.8582
  147MOL0     H19376   5.499   3.470   3.455  0.9856 -0.0644 -3.2419
  147MOL0     H19377   5.362   3.578   3.416 -0.5711  1.4261  0.0764
  147MOL0     H19378   5.542   3.750   3.343  2.8147  0.3360 -2.6665
  147MOL0     H19379   5.538   3.603   3.246 -1.2731 -0.7680  0.6389
  147MOL0     H19380   5.739   3.657   3.467  4.0598 -0.1370 -0.0284
  147MOL0     H19381   5.772   3.662   3.286  0.4422 -2.8591 -1.0977
  147MOL0     H19382   5.722   3.415   3.451  0.9275  1.1090  1.8520
  147MOL0     H19383   5.684   3.421   3.277  0.2476 -2.5477  0.0331
  147MOL0     H19384   5.940   3.528   3.400  1.6607 -4.1411  2.6043
  147MOL0     H19385   5.924   3.478   3.228 -1.0372  1.7253  0.6437
  147MOL0     H19386   5.296   3.200   3.669  1.3468 -1.8208 -0.0416
  147MOL0     H19387   5.225   2.985   3.719  1.1994  0.4429  0.2725
  147MOL0     H19388   5.041   2.739   4.286 -0.2423 -1.9696  1.9561
  147MOL0     H19389   4.973   2.508   4.312 -1.5012 -1.1741 -0.3985
  147MOL0     H19390   5.105   2.739   3.064  1.7412 -1.1546 -2.0663
  147MOL0     H19391   4.936   2.919   3.037 -1.4317 -1.1824  5.2398
  147MOL0     H19392   5.110   3.520   2.873 -0.3935 -2.4873  2.7286
  147MOL0     H19393   4.958   3.695   2.783  3.5655 -0.7765  1.5782
  147MOL0     H19394   4.686   3.811   2.981 -1.7765  0.5289  1.2161
  147MOL0     H19395   4.539   3.726   2.938 -1.4304  1.6344  1.1316
  147MOL0     H19396   4.558   3.877   2.702 -1.7156  2.9199 -0.5050
  147MOL0     H19397   4.494   3.954   2.848  0.2478 -0.7482  0.3871
  147MOL0     H19398   4.758   4.016   2.867  0.9898 -4.0354 -1.4539
  147MOL0     H19399   4.635   4.111   2.773 -0.4507  1.1709  2.1518
  147MOL0     H19400   4.838   3.898   2.689 -1.4745 -1.0991  1.3738
  147MOL0     H19401   4.708   3.957   2.577 -1.4400 -0.8077  0.1131
  147MOL0     H19402   4.929   4.316   2.581  1.7779 -0.4132  0.6604
  147MOL0     H19403   4.617   3.508   2.952 -0.1239  0.8366 -0.1789
  147MOL0     H19404   4.768   3.309   3.032  1.7324 -0.6171  0.4739
  148MOL0     O19405   6.463   2.980   0.675  0.0765 -0.1288 -0.6266
  148MOL0     C19406   6.574   2.946   0.664  0.1980  0.2960 -0.4877
  148MOL0     O19407   6.628   2.830   0.712 -0.4024 -0.5084  0.2515
  148MOL0     C19408   6.550   2.761   0.791 -0.1092 -0.4291 -0.3054
  148MOL0     C19409   6.459   2.679   0.731 -0.4941 -0.0170  0.3439
  148MOL0     C19410   6.366   2.597   0.802 -0.3567  0.2112  0.1212
  148MOL0     C19411   6.375   2.601   0.949  0.5799 -0.1063 -0.0266
  148MOL0     O19412   6.293   2.520   1.024 -0.3428  0.6440 -0.2734
  148MOL0     C19413   6.151   2.543   1.036 -0.1303 -0.3850  0.5564
  148MOL0     C19414   6.059   2.418   1.077 -0.2401  0.7269 -0.1985
  148MOL0     C19415   6.101   2.283   1.008  0.6045 -0.0324 -0.7921
  148MOL0     C19416   6.071   2.275   0.856 -0.0558  0.1822 -0.0935
  148MOL0     C19417   6.161   2.164   0.811  0.1282  0.1899 -0.7972
  148MOL0     C19418   6.107   2.020   0.834  0.0170 -0.6662 -0.3276
  148MOL0     C19419   6.204   1.929   0.749  0.4286 -1.1028  0.0005
  148MOL0     C19420   6.163   1.783   0.711  0.1580  0.4702  1.1846
  148MOL0     N19421   6.054   1.785   0.624  0.7038 -0.4584  0.1133
  148MOL0     C19422   5.921   1.760   0.665 -1.3815 -0.8501  1.2301
  148MOL0     C19423   5.856   1.776   0.547 -0.1366  0.0920  0.2451
  148MOL0     C19424   5.715   1.764   0.533  0.3144  0.7264  0.5407
  148MOL0     C19425   5.642   1.890   0.489  0.6089 -0.2196 -0.1825
  148MOL0     C19426   5.492   1.872   0.536  1.2910  0.4643 -0.2439
  148MOL0     C19427   5.384   1.966   0.475  0.5028 -1.0036 -0.2188
  148MOL0     O19428   5.252   1.921   0.509  0.1244  0.6938 -0.4790
  148MOL0     C19429   5.190   1.813   0.454 -0.9225 -0.5240 -0.3435
  148MOL0     C19430   5.079   1.761   0.517  0.9347  0.0751 -0.1781
  148MOL0     C19431   5.028   1.640   0.478 -0.4187 -0.7348  1.2198
  148MOL0     C19432   5.081   1.564   0.367  0.7577 -0.2876 -0.7184
  148MOL0     C19433   5.036   1.426   0.344  0.7648  0.0506 -1.5710
  148MOL0     O19434   5.093   1.349   0.244 -0.0745 -0.2244  0.5835
  148MOL0     C19435   5.050   1.223   0.228 -0.5141  0.1783  0.2827
  148MOL0     C19436   5.005   1.177   0.104  0.3676  0.1447 -0.3544
  148MOL0     C19437   4.972   1.046   0.084  0.4198  0.8250  0.0290
  148MOL0     C19438   4.982   0.947   0.187 -0.7379 -0.0636 -0.1580
  148MOL0     O19439   4.955   0.806   0.183 -0.0209 -0.1925 -0.1430
  148MOL0     C19440   4.916   0.759   0.058 -0.1189 -0.2197  0.0114
  148MOL0     C19441   4.904   0.609   0.058  0.0776  0.3152 -0.1257
  148MOL0     C19442   5.010   0.516   0.115  0.3642  0.7864 -0.8944
  148MOL0     C19443   4.979   0.367   0.082  0.7055 -0.0716 -0.4802
  148MOL0     C19444   5.070   0.267   0.147 -0.3342  0.1357  0.3385
  148MOL0     C19445   5.036   0.248   0.298 -0.5079  0.0797 -0.7855
  148MOL0     C19446   5.050   0.104   0.350 -0.1809 -0.4074 -0.7153
  148MOL0     C19447   5.092   0.077   0.499 -0.9842 -0.4278  0.1206
  148MOL0    Cl19448   4.991   0.190   0.600 -0.4068  0.4272  0.2209
  148MOL0     C19449   5.044   0.998   0.302  0.2567  0.3037  0.5994
  148MOL0     C19450   5.083   1.133   0.323 -0.3365 -0.0053  0.1464
  148MOL0     O19451   4.941   1.390   0.408  0.6736 -0.4245 -0.7641
  148MOL0     C19452   5.187   1.614   0.299 -0.2180  0.0143 -0.2194
  148MOL0     C19453   5.244   1.738   0.346 -0.0715  0.8395  0.0916
  148MOL0     N19454   5.939   1.808   0.443 -0.0377  0.2201  0.1945
  148MOL0     N19455   6.055   1.809   0.488  0.3875  0.6415  0.9381
  148MOL0     C19456   6.462   2.694   1.012 -1.2703 -0.6522 -0.2755
  148MOL0     C19457   6.553   2.770   0.933 -0.4737  0.2890 -0.4465
  148MOL0     C19458   6.669   3.043   0.601 -1.4530 -0.7127  0.1254
  148MOL0     C19459   6.625   3.169   0.548  0.0137 -0.4861 -0.2640
  148MOL0     C19460   6.714   3.267   0.493 -0.1762  0.5324 -0.2249
  148MOL0     C19461   6.851   3.233   0.491 -0.2909 -0.4449  0.3643
  148MOL0     O19462   6.950   3.320   0.444  0.1584  0.6149  0.4233
  148MOL0     C19463   6.913   3.459   0.401 -1.0890  0.2512  0.0028
  148MOL0     C19464   7.036   3.539   0.343  0.6655  0.3175  0.5135
  148MOL0     C19465   7.136   3.578   0.456  0.2544  0.2561 -0.3897
  148MOL0     C19466   7.254   3.660   0.393 -0.3887  0.3258 -0.1430
  148MOL0     C19467   7.212   3.789   0.341 -0.2818  0.2264  0.1027
  148MOL0     C19468   7.183   3.896   0.297  0.5098  0.0704  0.2668
  148MOL0     C19469   6.895   3.114   0.546  0.6223  0.2019  0.6325
  148MOL0     C19470   6.805   3.022   0.600 -0.1466  0.2310 -0.9000
  148MOL0     H19471   6.462   2.673   0.622  2.1176 -2.3351  0.4384
  148MOL0     H19472   6.310   2.517   0.754  2.0380 -1.1630 -0.5316
  148MOL0     H19473   6.117   2.568   0.935 -3.2742 -2.8941  0.8221
  148MOL0     H19474   6.119   2.630   1.094 -3.7980 -1.1106 -0.1624
  148MOL0     H19475   5.955   2.433   1.048 -0.2772  2.2198  0.6143
  148MOL0     H19476   6.057   2.413   1.187  0.7466  4.2925  0.0784
  148MOL0     H19477   6.044   2.203   1.057  3.4403 -1.3633  0.6163
  148MOL0     H19478   6.205   2.255   1.026  0.7446  0.1657 -1.2803
  148MOL0     H19479   5.964   2.263   0.838 -0.3614  1.1093  0.9666
  148MOL0     H19480   6.094   2.368   0.805  0.0422  0.0971 -0.2067
  148MOL0     H19481   6.264   2.166   0.848  1.2104  0.9071 -3.6019
  148MOL0     H19482   6.155   2.161   0.702 -0.9794 -4.5879 -0.8473
  148MOL0     H19483   6.008   2.020   0.788  0.0995  1.9794 -0.6383
  148MOL0     H19484   6.107   1.990   0.939  0.8941 -2.9503 -0.9003
  148MOL0     H19485   6.208   1.971   0.648 -0.0436  0.9287  0.7678
  148MOL0     H19486   6.305   1.930   0.792 -0.5238  0.2482  2.4514
  148MOL0     H19487   6.138   1.727   0.801  1.4379 -0.3273  1.0547
  148MOL0     H19488   6.253   1.739   0.668 -0.0838 -1.1681  2.2815
  148MOL0     H19489   5.880   1.725   0.759 -0.8027 -1.1989  1.3607
  148MOL0     H19490   5.674   1.726   0.627  3.9619  0.6204  2.2871
  148MOL0     H19491   5.703   1.684   0.460  1.4929  0.2790  0.8015
  148MOL0     H19492   5.655   1.906   0.382 -1.0263 -0.5181 -0.4514
  148MOL0     H19493   5.681   1.984   0.527 -0.5206 -0.1927  0.9713
  148MOL0     H19494   5.462   1.767   0.531 -0.9836  1.0016  0.6258
  148MOL0     H19495   5.496   1.882   0.645  3.0426 -0.8542 -0.1508
  148MOL0     H19496   5.412   1.970   0.369 -2.8131 -1.7841 -1.2561
  148MOL0     H19497   5.405   2.065   0.515 -0.4104 -1.2146  0.8182
  148MOL0     H19498   5.030   1.805   0.604  0.1056 -2.6618  0.8428
  148MOL0     H19499   4.953   1.599   0.546  3.3578 -2.6080  4.6779
  148MOL0     H19500   4.999   1.250   0.024 -0.0729 -1.6574 -2.0468
  148MOL0     H19501   4.932   1.011  -0.011 -0.0339 -0.8914  0.8227
  148MOL0     H19502   4.985   0.794  -0.020 -1.0177  0.7719 -0.3554
  148MOL0     H19503   4.822   0.811   0.037  2.4603  4.1140 -2.4459
  148MOL0     H19504   4.903   0.580  -0.047  4.7379  0.0346 -0.2705
  148MOL0     H19505   4.805   0.590   0.101  1.4773 -0.0809  3.2356
  148MOL0     H19506   5.024   0.538   0.221  0.7865 -2.2078 -0.2238
  148MOL0     H19507   5.104   0.547   0.069  0.1883  0.6084 -1.3815
  148MOL0     H19508   4.874   0.349   0.104 -0.5692 -1.0794 -5.9815
  148MOL0     H19509   4.982   0.359  -0.027  0.6149 -0.0335 -0.4854
  148MOL0     H19510   5.177   0.281   0.130 -0.3262 -2.1493 -2.2121
  148MOL0     H19511   5.034   0.180   0.091  0.9813 -2.9307  3.8418
  148MOL0     H19512   4.934   0.280   0.319  0.2342  1.4124  1.1626
  148MOL0     H19513   5.100   0.316   0.356 -2.7859  2.8559 -1.3203
  148MOL0     H19514   4.957   0.049   0.331 -1.3841  2.1746 -2.9029
  148MOL0     H19515   5.133   0.054   0.298 -0.6589 -3.1729  0.9432
  148MOL0     H19516   5.195   0.111   0.516 -1.6136  3.3022 -2.3052
  148MOL0     H19517   5.082  -0.029   0.523 -2.3244 -1.2425 -3.4103
  148MOL0     H19518   5.067   0.934   0.387 -0.8189  2.4053  2.5658
  148MOL0     H19519   5.128   1.165   0.417 -1.5923  0.5238  0.5890
  148MOL0     H19520   5.236   1.561   0.219 -1.5018 -1.7338  0.1039
  148MOL0     H19521   5.334   1.768   0.294  0.6294 -0.6159  0.4159
  148MOL0     H19522   6.467   2.714   1.119  0.4381  0.3127 -0.5071
  148MOL0     H19523   6.619   2.833   0.991  3.1809 -2.8966 -0.7125
  148MOL0     H19524   6.517   3.184   0.543 -0.4972 -1.8425  3.4641
  148MOL0     H19525   6.667   3.356   0.452 -2.0336 -0.7734 -1.0712
  148MOL0     H19526   6.880   3.515   0.489 -3.0343  0.8285 -1.0208
  148MOL0     H19527   6.836   3.458   0.323 -0.1730 -0.3679 -0.9186
  148MOL0     H19528   7.082   3.480   0.262 -0.4430  1.0099 -0.6542
  148MOL0     H19529   7.003   3.629   0.291  2.2162 -0.0153 -1.1710
  148MOL0     H19530   7.178   3.484   0.492 -0.4687 -0.5260 -1.5235
  148MOL0     H19531   7.094   3.626   0.545  1.7853  0.7048  0.1293
  148MOL0     H19532   7.329   3.691   0.467  0.0548  1.5794 -1.0698
  148MOL0     H19533   7.314   3.607   0.319 -1.6113 -1.8767  0.3634
  148MOL0     H19534   7.173   3.990   0.247  1.8800  0.0669 -0.0467
  148MOL0     H19535   7.002   3.094   0.553  0.3383 -1.1152  1.5075
  148MOL0     H19536   6.835   2.929   0.649 -3.5273 -1.0084 -0.9197
  149MOL0     O19537   0.722   4.347   3.716 -0.0395 -0.3264 -0.7285
  149MOL0     C19538   0.738   4.254   3.632  0.1795 -0.4842 -0.4975
  149MOL0     O19539   0.645   4.182   3.583 -0.0776  0.5113 -0.8875
  149MOL0     C19540   0.519   4.233   3.584  1.0526  0.3631  0.3428
  149MOL0     C19541   0.450   4.261   3.699  0.5589  0.2499  0.6131
  149MOL0     C19542   0.313   4.302   3.699 -0.6561  0.5783 -0.6197
  149MOL0     C19543   0.245   4.299   3.575  0.4138  0.1245  0.0007
  149MOL0     O19544   0.104   4.312   3.559 -0.6249  0.3718 -0.0116
  149MOL0     C19545   0.025   4.238   3.649 -0.1746  0.6977  0.2562
  149MOL0     C19546  -0.120   4.255   3.604  0.6842  0.1893  0.0636
  149MOL0     C19547  -0.203   4.132   3.634  0.5912  0.2223 -0.8574
  149MOL0     C19548  -0.260   4.110   3.781  0.7738 -0.6080  0.7210
  149MOL0     C19549  -0.351   3.984   3.807  0.7846  0.1124  0.0467
  149MOL0     C19550  -0.439   3.995   3.927  0.1823 -0.0411 -0.3774
  149MOL0     C19551  -0.526   3.873   3.942  0.2972  0.5822 -0.2282
  149MOL0     C19552  -0.439   3.750   3.981 -0.2158  0.5095 -0.9947
  149MOL0     N19553  -0.376   3.753   4.114  0.3588  0.5191 -0.5824
  149MOL0     C19554  -0.424   3.706   4.234 -0.3701 -0.7049 -0.5287
  149MOL0     C19555  -0.334   3.748   4.326  0.7437  0.4905 -1.1023
  149MOL0     C19556  -0.335   3.725   4.479 -0.3760  0.0215  0.1738
  149MOL0     C19557  -0.445   3.798   4.548 -0.4999 -1.9466 -0.2825
  149MOL0     C19558  -0.580   3.727   4.523  0.2285 -0.5192  0.2809
  149MOL0     C19559  -0.688   3.785   4.623 -0.7822  0.8196  0.1299
  149MOL0     O19560  -0.711   3.925   4.592 -0.1527 -1.3606  0.4002
  149MOL0     C19561  -0.757   3.968   4.466 -0.2374 -0.1839  0.6955
  149MOL0     C19562  -0.862   3.911   4.398  1.7657 -0.2083  0.6925
  149MOL0     C19563  -0.890   3.958   4.264 -0.1920  0.5912 -0.2358
  149MOL0     C19564  -0.816   4.063   4.201  0.4792  0.2001 -0.1704
  149MOL0     C19565  -0.848   4.116   4.073  0.4725 -0.3562  1.2596
  149MOL0     O19566  -0.750   4.154   3.992 -0.5510 -0.0587 -0.1560
  149MOL0     C19567  -0.783   4.188   3.865  0.4497 -0.0825  1.2525
  149MOL0     C19568  -0.764   4.103   3.761 -0.1830 -0.4265  0.2617
  149MOL0     C19569  -0.804   4.133   3.630 -0.2203  0.3106  0.2545
  149MOL0     C19570  -0.863   4.252   3.598  0.1630 -0.9340  0.2394
  149MOL0     O19571  -0.900   4.273   3.473  0.2584 -0.6491  0.5109
  149MOL0     C19572  -1.010   4.357   3.440  0.2193  0.3655  0.1529
  149MOL0     C19573  -0.972   4.502   3.402  0.3541  0.0003 -0.0116
  149MOL0     C19574  -0.858   4.506   3.305 -0.2203  0.8618 -0.3295
  149MOL0     C19575  -0.908   4.489   3.157  0.4941  0.3760  1.2133
  149MOL0     C19576  -0.790   4.512   3.059 -1.3188 -0.3583  2.0512
  149MOL0     C19577  -0.831   4.522   2.906  0.2044 -0.4888  0.6170
  149MOL0     C19578  -0.931   4.417   2.853  0.0570 -0.1797  0.7097
  149MOL0     C19579  -0.893   4.382   2.701  0.0246 -0.2013 -0.2538
  149MOL0    Cl19580  -1.032   4.300   2.642 -0.1364  0.0850  0.1273
  149MOL0     C19581  -0.895   4.338   3.708  0.2226  0.4037 -0.2772
  149MOL0     C19582  -0.857   4.304   3.841 -0.0240 -0.4726  0.8224
  149MOL0     O19583  -0.969   4.108   4.047 -0.0664  0.4107 -0.4888
  149MOL0     C19584  -0.702   4.114   4.271 -0.2211 -0.2590  0.6535
  149MOL0     C19585  -0.671   4.063   4.400  0.6532 -0.0747 -0.2599
  149MOL0     N19586  -0.226   3.807   4.262 -0.2301 -0.5275  0.4080
  149MOL0     N19587  -0.261   3.810   4.145 -0.5785 -0.0577  0.0199
  149MOL0     C19588   0.319   4.275   3.460  0.6344  0.9175 -0.0386
  149MOL0     C19589   0.455   4.246   3.464  0.4615 -0.5791 -0.2802
  149MOL0     C19590   0.871   4.238   3.586 -0.1577  0.2082  0.1460
  149MOL0     C19591   0.900   4.121   3.517  0.1738  0.3954  0.1887
  149MOL0     C19592   1.031   4.103   3.469 -0.8616  0.0388  0.4140
  149MOL0     C19593   1.132   4.195   3.488  0.3245  1.5907  0.4856
  149MOL0     O19594   1.253   4.151   3.437  0.0334  0.1807  0.2238
  149MOL0     C19595   1.372   4.230   3.464 -0.1371  0.3093 -0.0360
  149MOL0     C19596   1.491   4.160   3.408  0.3834  0.4848  1.7629
  149MOL0     C19597   1.606   4.249   3.390  0.1379 -0.0938  0.5998
  149MOL0     C19598   1.745   4.180   3.366  0.0386 -0.1903  0.6451
  149MOL0     C19599   1.800   4.135   3.495 -0.0582  0.4681 -0.5380
  149MOL0     C19600   1.850   4.078   3.593  0.2138 -0.5162 -0.1681
  149MOL0     C19601   1.108   4.316   3.555 -0.6200 -0.0527 -0.0202
  149MOL0     C19602   0.978   4.334   3.608 -0.3731 -0.2095 -0.0804
  149MOL0     H19603   0.508   4.258   3.791  2.2600 -0.9528 -0.4519
  149MOL0     H19604   0.275   4.319   3.799  1.9358 -0.5036  0.6410
  149MOL0     H19605   0.030   4.285   3.748 -0.7988 -1.5011  1.3960
  149MOL0     H19606   0.060   4.134   3.648 -0.2613  0.6671 -0.7225
  149MOL0     H19607  -0.129   4.280   3.498 -1.6795  3.5034  0.8671
  149MOL0     H19608  -0.149   4.341   3.665 -2.3819  0.1336 -1.1592
  149MOL0     H19609  -0.152   4.039   3.608  2.7811  0.6133  1.5983
  149MOL0     H19610  -0.290   4.138   3.567 -1.5578 -2.2944  1.4515
  149MOL0     H19611  -0.182   4.113   3.858  1.5002  0.6398 -0.0153
  149MOL0     H19612  -0.313   4.203   3.802  0.5168 -1.0733  2.2967
  149MOL0     H19613  -0.296   3.889   3.812 -1.1409 -1.0220  0.9684
  149MOL0     H19614  -0.415   3.970   3.719 -1.2703  1.4690  1.2372
  149MOL0     H19615  -0.497   4.088   3.918  1.0478  0.4780 -0.6957
  149MOL0     H19616  -0.374   3.991   4.015 -2.8168 -1.5386  1.9561
  149MOL0     H19617  -0.614   3.884   4.005  0.4551 -0.5595  0.2066
  149MOL0     H19618  -0.568   3.854   3.843  1.0730  0.6780 -0.5891
  149MOL0     H19619  -0.362   3.720   3.910 -2.4433 -1.4531 -2.7543
  149MOL0     H19620  -0.509   3.666   3.977  1.8812 -1.4138  0.2433
  149MOL0     H19621  -0.518   3.652   4.247 -0.0440 -1.1945 -0.1693
  149MOL0     H19622  -0.233   3.736   4.517 -0.4961 -0.1015  0.5340
  149MOL0     H19623  -0.357   3.619   4.497 -1.1086  0.2703  0.7458
  149MOL0     H19624  -0.438   3.904   4.522  0.7630 -0.9644  3.4729
  149MOL0     H19625  -0.432   3.795   4.657 -0.3902  0.1886 -0.1971
  149MOL0     H19626  -0.607   3.733   4.417  2.9241 -3.3336 -0.7316
  149MOL0     H19627  -0.565   3.620   4.540 -0.0331 -0.3654  1.5795
  149MOL0     H19628  -0.657   3.779   4.728 -4.0340  0.9335  1.1894
  149MOL0     H19629  -0.780   3.730   4.605  0.2198 -0.2290 -2.2993
  149MOL0     H19630  -0.926   3.834   4.441 -0.7200  1.9103  1.0141
  149MOL0     H19631  -0.980   3.924   4.213  0.0851 -2.6292  1.1468
  149MOL0     H19632  -0.712   4.008   3.773  1.0949  0.3308  0.9329
  149MOL0     H19633  -0.773   4.050   3.567  1.3086 -0.0036  1.3635
  149MOL0     H19634  -1.084   4.373   3.519  1.5510  0.4320  1.4064
  149MOL0     H19635  -1.070   4.320   3.356 -1.8283  1.2662  1.1329
  149MOL0     H19636  -0.945   4.560   3.491 -1.4600  0.7501  0.1077
  149MOL0     H19637  -1.070   4.541   3.371 -0.7661 -1.4456  1.5116
  149MOL0     H19638  -0.781   4.430   3.326  1.0042  1.7192 -1.5266
  149MOL0     H19639  -0.815   4.606   3.310 -2.5748  2.0431 -1.8599
  149MOL0     H19640  -0.940   4.385   3.150 -0.9162  0.8683 -0.8096
  149MOL0     H19641  -0.995   4.554   3.137  1.4144  1.0199 -1.1104
  149MOL0     H19642  -0.720   4.428   3.057  1.6392  1.9587  1.2549
  149MOL0     H19643  -0.733   4.602   3.085 -1.7636  1.4027 -2.2575
  149MOL0     H19644  -0.745   4.508   2.840  0.2055  3.4513 -0.5128
  149MOL0     H19645  -0.886   4.616   2.892 -0.9561 -0.6910  3.2874
  149MOL0     H19646  -0.919   4.323   2.906  1.8987  0.2674  1.1271
  149MOL0     H19647  -1.032   4.461   2.859  0.1858  0.1014  0.8306
  149MOL0     H19648  -0.805   4.317   2.698 -1.1267 -1.9876  1.7918
  149MOL0     H19649  -0.878   4.476   2.647  1.2445 -1.3368 -2.0062
  149MOL0     H19650  -0.946   4.431   3.682  2.1245  0.6407 -3.7350
  149MOL0     H19651  -0.869   4.374   3.922 -1.4470  0.9211 -0.5215
  149MOL0     H19652  -0.642   4.184   4.214 -1.6239  0.2082 -0.2992
  149MOL0     H19653  -0.589   4.095   4.464  0.6015 -2.0076  0.8267
  149MOL0     H19654   0.269   4.278   3.364  1.2093  1.3955 -0.3271
  149MOL0     H19655   0.493   4.226   3.364 -2.5582  1.4009 -1.9743
  149MOL0     H19656   0.822   4.048   3.501  0.1491  0.7726 -1.5820
  149MOL0     H19657   1.052   4.006   3.425 -1.6404  0.5976 -1.2704
  149MOL0     H19658   1.382   4.242   3.572  1.2699 -2.4906  0.2397
  149MOL0     H19659   1.356   4.319   3.402 -2.2450 -1.6856 -2.6477
  149MOL0     H19660   1.510   4.069   3.465 -0.9861  0.5331  2.3372
  149MOL0     H19661   1.461   4.134   3.306 -1.3482  3.4609  1.3973
  149MOL0     H19662   1.624   4.297   3.487  1.5978 -4.6570  2.8750
  149MOL0     H19663   1.585   4.319   3.308  1.3813 -0.9973 -0.5409
  149MOL0     H19664   1.738   4.100   3.292 -3.3841  1.5353 -1.1721
  149MOL0     H19665   1.813   4.258   3.329  1.1626 -2.1807 -1.7839
  149MOL0     H19666   1.882   4.017   3.676  3.8026 -0.0130 -1.0093
  149MOL0     H19667   1.192   4.382   3.574 -1.8516  0.9734  2.2514
  149MOL0     H19668   0.955   4.421   3.668 -2.6978 -1.4767  1.0124
  150MOL0     O19669   7.176   0.504   8.741  0.3425  0.2463  0.3532
  150MOL0     C19670   7.267   0.465   8.668  0.7250 -0.2991  0.0356
  150MOL0     O19671   7.256   0.367   8.567  0.2132  0.0232  0.0897
  150MOL0     C19672   7.149   0.285   8.543 -0.0360 -0.5695 -0.2389
  150MOL0     C19673   7.022   0.276   8.604 -0.4037  0.7666  0.4284
  150MOL0     C19674   6.917   0.206   8.550  0.8661  0.6934  0.7617
  150MOL0     C19675   6.938   0.130   8.431 -0.9260 -0.5617  0.5985
  150MOL0     O19676   6.832   0.057   8.386  1.2195  0.0075 -0.2191
  150MOL0     C19677   6.851  -0.031   8.263  0.1703  0.5961  0.0906
  150MOL0     C19678   6.730  -0.125   8.257 -0.0738 -0.3790  0.0889
  150MOL0     C19679   6.731  -0.216   8.138 -0.0602  1.2151  0.2895
  150MOL0     C19680   6.851  -0.304   8.125  0.7325 -0.1678  1.0782
  150MOL0     C19681   6.831  -0.433   8.046  1.0230  0.9088  0.4212
  150MOL0     C19682   6.805  -0.420   7.890  0.5464  0.4049  0.1982
  150MOL0     C19683   6.940  -0.361   7.843  0.0958  0.3330 -0.2290
  150MOL0     C19684   6.979  -0.422   7.709 -0.1394 -0.6315 -0.2598
  150MOL0     N19685   7.097  -0.506   7.726  0.5227  1.1802  0.6780
  150MOL0     C19686   7.228  -0.475   7.751 -0.0472 -0.1748  0.0816
  150MOL0     C19687   7.283  -0.598   7.765 -0.2353 -0.4753  0.7229
  150MOL0     C19688   7.431  -0.615   7.800  0.2878  0.1405  0.5796
  150MOL0     C19689   7.448  -0.675   7.945 -0.6577  0.3345  0.3952
  150MOL0     C19690   7.583  -0.742   7.949 -0.2709 -0.2544  0.3919
  150MOL0     C19691   7.604  -0.801   8.086  0.2713 -0.5791  0.4474
  150MOL0     O19692   7.589  -0.693   8.187 -0.7249 -0.8627 -0.0524
  150MOL0     C19693   7.679  -0.709   8.297  0.0402  0.0659  1.1474
  150MOL0     C19694   7.718  -0.836   8.344 -0.4299 -0.0266  0.3014
  150MOL0     C19695   7.823  -0.843   8.437  0.1079  0.5911 -0.5649
  150MOL0     C19696   7.884  -0.725   8.489 -0.2733 -0.1544  1.1429
  150MOL0     C19697   7.998  -0.735   8.588 -0.1879 -0.2399  0.7332
  150MOL0     O19698   8.079  -0.628   8.613  0.6264 -0.8822  0.1430
  150MOL0     C19699   8.178  -0.638   8.703 -0.9120  0.3072  0.6477
  150MOL0     C19700   8.190  -0.576   8.821 -0.0374  0.5379  0.6527
  150MOL0     C19701   8.308  -0.577   8.885  0.1738 -0.0195 -0.1263
  150MOL0     C19702   8.420  -0.646   8.843  0.1074  0.4475  0.8418
  150MOL0     O19703   8.530  -0.631   8.917 -0.5907 -0.6374  0.2314
  150MOL0     C19704   8.621  -0.745   8.928  0.2499 -0.1872  0.4774
  150MOL0     C19705   8.736  -0.660   8.997 -0.1639  0.1622 -0.5472
  150MOL0     C19706   8.862  -0.733   9.058 -0.5228 -0.1141  1.0406
  150MOL0     C19707   8.960  -0.813   8.946  0.6880  0.1748  0.2277
  150MOL0     C19708   9.073  -0.897   9.002  0.1458 -1.4871 -0.8036
  150MOL0     C19709   9.194  -0.894   8.897 -0.5063  0.5155  0.5591
  150MOL0     C19710   9.329  -0.957   8.949 -0.3212  0.7929 -0.2193
  150MOL0     C19711   9.445  -0.911   8.874 -0.1487  0.4302  0.2869
  150MOL0    Cl19712   9.451  -0.990   8.720 -0.7287 -0.2203  0.1311
  150MOL0     C19713   8.405  -0.720   8.723 -0.0129 -0.2649  0.5731
  150MOL0     C19714   8.285  -0.720   8.650 -0.0458  0.4242  0.4761
  150MOL0     O19715   8.013  -0.846   8.640  0.4212 -0.3611  0.2576
  150MOL0     C19716   7.841  -0.603   8.448 -0.5159 -0.1294 -0.9160
  150MOL0     C19717   7.741  -0.591   8.352  0.0384  0.7028 -0.8709
  150MOL0     N19718   7.189  -0.697   7.753  0.3702 -0.4843  0.8072
  150MOL0     N19719   7.077  -0.642   7.742  0.1332 -0.0364 -0.7284
  150MOL0     C19720   7.063   0.139   8.363  0.2535  0.8009 -1.1350
  150MOL0     C19721   7.166   0.214   8.422  0.6767 -1.7668 -0.0830
  150MOL0     C19722   7.398   0.538   8.682  0.8989  0.6695 -0.6916
  150MOL0     C19723   7.416   0.647   8.774  0.1615  0.5639 -0.5288
  150MOL0     C19724   7.530   0.713   8.773 -0.3537 -0.3223 -0.3224
  150MOL0     C19725   7.637   0.686   8.683 -0.1763  0.2661  0.7933
  150MOL0     O19726   7.742   0.769   8.697 -0.2675  0.0536 -0.3600
  150MOL0     C19727   7.875   0.740   8.650 -0.1902  0.2126  0.8495
  150MOL0     C19728   7.891   0.781   8.495  0.3038  0.1532  0.1767
  150MOL0     C19729   7.793   0.896   8.457 -1.0192 -1.1325 -0.5050
  150MOL0     C19730   7.794   0.928   8.309 -0.3430 -0.1006  0.5049
  150MOL0     C19731   7.928   0.984   8.267 -0.5957 -0.5661 -0.7869
  150MOL0     C19732   8.032   1.044   8.230  0.2041 -0.7150  0.3641
  150MOL0     C19733   7.625   0.576   8.590 -0.0117 -0.1191  0.6048
  150MOL0     C19734   7.502   0.505   8.588 -0.4218  0.3281 -0.1355
  150MOL0     H19735   6.998   0.334   8.693 -0.2611 -0.3883  1.2354
  150MOL0     H19736   6.817   0.220   8.591 -0.6532 -2.2214 -1.4976
  150MOL0     H19737   6.949  -0.079   8.273  0.4735  1.6378  3.5089
  150MOL0     H19738   6.839   0.029   8.172  0.5001  1.4247  0.5788
  150MOL0     H19739   6.643  -0.060   8.243 -0.8003 -1.5372 -0.9624
  150MOL0     H19740   6.727  -0.182   8.350  0.5495  0.4873  0.6536
  150MOL0     H19741   6.726  -0.158   8.045  3.0645 -0.4898 -1.0949
  150MOL0     H19742   6.641  -0.275   8.160 -0.3808  2.1786  1.6715
  150MOL0     H19743   6.935  -0.244   8.090 -0.9600  0.9984 -1.2187
  150MOL0     H19744   6.867  -0.333   8.229  4.3587 -0.4727  0.5458
  150MOL0     H19745   6.748  -0.489   8.091  2.6978 -2.9990 -0.9192
  150MOL0     H19746   6.907  -0.507   8.071  1.2034  1.5806  1.9317
  150MOL0     H19747   6.712  -0.372   7.859  2.1531  0.9105 -4.7106
  150MOL0     H19748   6.791  -0.519   7.845 -3.0120  1.8721 -2.4590
  150MOL0     H19749   6.937  -0.252   7.833  0.4824  0.4355  0.6117
  150MOL0     H19750   7.020  -0.378   7.916  0.8220 -1.8182 -1.4347
  150MOL0     H19751   7.005  -0.336   7.647 -0.7444  0.1001  0.4677
  150MOL0     H19752   6.903  -0.478   7.655 -1.7100  1.8491 -0.7660
  150MOL0     H19753   7.276  -0.377   7.755 -2.6902  1.1983  0.4360
  150MOL0     H19754   7.486  -0.522   7.788  3.9058 -1.7028  1.5816
  150MOL0     H19755   7.469  -0.682   7.722  1.9869  0.1304  1.3700
  150MOL0     H19756   7.369  -0.750   7.956  1.9616 -2.7579 -0.3594
  150MOL0     H19757   7.435  -0.588   8.011 -2.7750  0.2940  0.1160
  150MOL0     H19758   7.589  -0.826   7.879 -1.7999  0.5455 -0.7604
  150MOL0     H19759   7.661  -0.671   7.920 -0.3752 -1.4336 -3.2894
  150MOL0     H19760   7.693  -0.864   8.094  1.1365  0.7897  2.2373
  150MOL0     H19761   7.517  -0.866   8.096  0.2120 -1.8165 -4.9826
  150MOL0     H19762   7.683  -0.931   8.303  1.9005 -0.4237 -0.9359
  150MOL0     H19763   7.854  -0.943   8.467  0.3874  0.9300  0.3003
  150MOL0     H19764   8.103  -0.512   8.829 -1.4566 -0.9961 -1.3414
  150MOL0     H19765   8.327  -0.520   8.975  3.6335 -0.2911 -0.5527
  150MOL0     H19766   8.646  -0.800   8.837 -4.1742  0.2527 -1.2450
  150MOL0     H19767   8.571  -0.821   8.990 -0.1111  0.2714  0.7624
  150MOL0     H19768   8.690  -0.615   9.085 -0.4938  0.8578 -1.0654
  150MOL0     H19769   8.761  -0.569   8.941 -3.7260  3.4749  2.6772
  150MOL0     H19770   8.824  -0.806   9.131 -0.5391 -0.0729  1.0746
  150MOL0     H19771   8.922  -0.671   9.126  0.0280 -0.3568  0.7870
  150MOL0     H19772   8.910  -0.884   8.880  4.0951 -1.4425 -0.7985
  150MOL0     H19773   8.986  -0.732   8.877  2.3827  0.0738  0.6994
  150MOL0     H19774   9.034  -0.998   9.022  0.6736 -1.4240  0.6359
  150MOL0     H19775   9.112  -0.870   9.100 -1.8659  1.0026 -0.5967
  150MOL0     H19776   9.224  -0.797   8.855  3.5478 -0.1299  1.5362
  150MOL0     H19777   9.175  -0.943   8.802 -0.3930  2.2995 -0.4298
  150MOL0     H19778   9.331  -0.917   9.051  2.0454  2.3080 -0.7866
  150MOL0     H19779   9.319  -1.066   8.950 -3.4932  0.9667  0.6744
  150MOL0     H19780   9.535  -0.921   8.937  0.2671 -0.0913 -0.3836
  150MOL0     H19781   9.435  -0.805   8.850  1.9632  0.9247  1.3020
  150MOL0     H19782   8.495  -0.767   8.686 -0.1617  1.1715 -1.8415
  150MOL0     H19783   8.282  -0.771   8.555 -2.0800 -1.7428  1.5981
  150MOL0     H19784   7.874  -0.506   8.483  0.2608  0.0189 -1.9913
  150MOL0     H19785   7.702  -0.495   8.322 -3.3912  0.4526  2.1398
  150MOL0     H19786   7.096   0.083   8.276  0.5253  0.1891 -0.6545
  150MOL0     H19787   7.268   0.213   8.385  0.6921 -1.6780 -0.0412
  150MOL0     H19788   7.335   0.678   8.839  2.3358  0.2276  2.5809
  150MOL0     H19789   7.540   0.795   8.844 -2.6745  1.0068 -1.4141
  150MOL0     H19790   7.894   0.633   8.662  2.3458  0.6277  1.2770
  150MOL0     H19791   7.954   0.782   8.713 -2.3723  0.9751  3.2653
  150MOL0     H19792   7.996   0.806   8.479  0.4150 -0.7680 -0.6359
  150MOL0     H19793   7.886   0.695   8.426 -0.0531 -0.3600  0.8245
  150MOL0     H19794   7.824   0.981   8.517 -1.8788 -2.5410  2.1145
  150MOL0     H19795   7.686   0.872   8.467 -1.3912  1.2732  3.3316
  150MOL0     H19796   7.781   0.835   8.254  0.5783  0.0949 -0.0604
  150MOL0     H19797   7.714   0.998   8.281 -1.6007 -1.3334  0.9072
  150MOL0     H19798   8.121   1.096   8.200  1.5182 -3.1356 -0.1415
  150MOL0     H19799   7.705   0.568   8.518  2.4563 -0.8195  3.2389
  150MOL0     H19800   7.499   0.435   8.506  0.9266  1.1260 -0.9138
  151MOL0     O19801   5.223   9.081   7.145 -0.0966  0.4956  0.3716
  151MOL0     C19802   5.206   8.962   7.162 -0.4657 -0.5080  0.3003
  151MOL0     O19803   5.261   8.892   7.261  0.3841  0.1952 -0.7078
  151MOL0     C19804   5.398   8.901   7.298 -0.1339 -1.4936  0.2789
  151MOL0     C19805   5.427   8.880   7.433  1.0886 -0.5872  0.1980
  151MOL0     C19806   5.563   8.921   7.464 -0.7044  1.3143  0.3351
  151MOL0     C19807   5.660   8.963   7.366  0.7650  0.3230  1.3073
  151MOL0     O19808   5.780   9.025   7.387 -0.3558 -0.4410  0.3301
  151MOL0     C19809   5.844   9.006   7.512  0.5142  0.1161 -0.2324
  151MOL0     C19810   5.899   8.861   7.514  0.1923 -0.5022  0.4395
  151MOL0     C19811   6.010   8.837   7.409 -0.0627  0.3806 -0.9732
  151MOL0     C19812   5.972   8.807   7.264  0.0724 -0.3593  0.6457
  151MOL0     C19813   5.875   8.694   7.236 -0.3430 -0.7929 -0.2449
  151MOL0     C19814   5.840   8.683   7.081 -0.3897 -1.1635  0.2524
  151MOL0     C19815   5.725   8.589   7.062  0.1338 -0.4536  0.5819
  151MOL0     C19816   5.683   8.570   6.915 -0.6597 -0.3568 -1.0720
  151MOL0     N19817   5.612   8.673   6.850  0.4692 -0.6592 -0.1447
  151MOL0     C19818   5.508   8.741   6.913  0.6603 -0.1291  0.2549
  151MOL0     C19819   5.465   8.827   6.814  0.5515 -0.1443  0.2580
  151MOL0     C19820   5.349   8.921   6.823 -0.1832 -0.1106  0.2953
  151MOL0     C19821   5.276   8.969   6.692  0.6608  0.2486 -0.2558
  151MOL0     C19822   5.198   8.850   6.629  0.2763  0.0834  0.5909
  151MOL0     C19823   5.128   8.908   6.493  0.9659 -0.2142 -0.2319
  151MOL0     O19824   5.022   9.013   6.517  0.6969  0.1389  0.1262
  151MOL0     C19825   4.999   9.111   6.421  0.4242 -0.3446  0.1124
  151MOL0     C19826   4.947   9.228   6.469 -0.2684 -0.3963 -1.1322
  151MOL0     C19827   4.918   9.341   6.391 -0.0100 -0.7733  0.0122
  151MOL0     C19828   4.939   9.336   6.255 -0.8543 -1.2905  0.6484
  151MOL0     C19829   4.912   9.449   6.164  0.0141  0.0449  1.1062
  151MOL0     O19830   4.940   9.434   6.027 -0.0536 -0.0150  0.3103
  151MOL0     C19831   4.914   9.542   5.948  0.4148  0.4320  0.4655
  151MOL0     C19832   5.019   9.629   5.925 -1.8058 -0.2207  0.7490
  151MOL0     C19833   5.004   9.735   5.836  0.4429 -0.2664 -0.6061
  151MOL0     C19834   4.883   9.767   5.778  0.6406 -0.6613 -0.0496
  151MOL0     O19835   4.885   9.861   5.681  0.5853 -0.3963 -0.1477
  151MOL0     C19836   4.770   9.871   5.593 -0.3362  0.6211  0.3470
  151MOL0     C19837   4.790   9.969   5.479 -0.4916  0.5811 -1.3784
  151MOL0     C19838   4.843  10.112   5.522  1.0018 -0.3805 -0.1289
  151MOL0     C19839   4.824  10.220   5.407  0.8415  0.6883 -0.4276
  151MOL0     C19840   4.913  10.334   5.441  1.4114 -0.5423 -1.1911
  151MOL0     C19841   4.918  10.455   5.345  0.4146  0.3861 -0.5674
  151MOL0     C19842   5.030  10.558   5.385 -0.3408  0.0837 -0.8396
  151MOL0     C19843   5.174  10.519   5.365 -0.7360 -0.1752  0.0227
  151MOL0    Cl19844   5.288  10.658   5.387  0.1645  0.4588 -0.7233
  151MOL0     C19845   4.769   9.695   5.813  0.6015 -0.0725 -0.1781
  151MOL0     C19846   4.790   9.579   5.890  0.1648  0.3254  0.4739
  151MOL0     O19847   4.859   9.549   6.209  0.1882  0.9199  0.3615
  151MOL0     C19848   4.985   9.218   6.206  0.1348 -0.2026  0.4014
  151MOL0     C19849   5.011   9.106   6.287  0.2155 -0.2236  0.4687
  151MOL0     N19850   5.545   8.809   6.702  0.1354 -1.0361 -0.6712
  151MOL0     N19851   5.637   8.730   6.723  0.4932  0.4739  0.5870
  151MOL0     C19852   5.618   8.974   7.238 -0.1537  0.1308  0.4986
  151MOL0     C19853   5.489   8.949   7.202  0.4329 -0.0375 -0.8003
  151MOL0     C19854   5.086   8.900   7.103 -0.0506 -0.2469 -0.2345
  151MOL0     C19855   5.029   8.959   6.985  0.5479 -0.1987  1.3340
  151MOL0     C19856   4.914   8.906   6.915 -0.8883 -0.9884 -0.1982
  151MOL0     C19857   4.872   8.776   6.955 -0.3021 -0.4359  0.1700
  151MOL0     O19858   4.770   8.719   6.886  0.2834 -0.7787  0.0309
  151MOL0     C19859   4.806   8.593   6.820 -0.1812  0.2939  0.6627
  151MOL0     C19860   4.950   8.566   6.775 -0.0291  0.4766  0.1027
  151MOL0     C19861   4.958   8.428   6.693  0.1266  0.3191 -0.0023
  151MOL0     C19862   5.098   8.424   6.623  0.7619  0.3295  1.0706
  151MOL0     C19863   5.104   8.308   6.521 -0.0127  0.7426  0.2578
  151MOL0     C19864   5.128   8.222   6.444  0.2132  0.5086 -0.0925
  151MOL0     C19865   4.932   8.719   7.066  0.4486  0.0552 -0.3803
  151MOL0     C19866   5.041   8.779   7.132  0.2891  0.7692 -0.2210
  151MOL0     H19867   5.345   8.861   7.500  0.1462  1.0723 -0.4081
  151MOL0     H19868   5.578   8.928   7.572 -1.3730  0.0057  0.5384
  151MOL0     H19869   5.779   9.032   7.597  0.0775  1.7800 -1.0321
  151MOL0     H19870   5.929   9.075   7.522 -1.2694  2.0762  4.0801
  151MOL0     H19871   5.815   8.791   7.509  0.4288 -0.7983  0.5542
  151MOL0     H19872   5.935   8.848   7.617  0.3688  1.7348  0.7116
  151MOL0     H19873   6.079   8.756   7.434  0.8967  0.5654 -2.8361
  151MOL0     H19874   6.073   8.926   7.406 -0.4538  0.6551 -1.0352
  151MOL0     H19875   5.916   8.894   7.227  2.4183  1.8859  2.0011
  151MOL0     H19876   6.064   8.799   7.206 -1.5861  1.4246 -2.4885
  151MOL0     H19877   5.789   8.705   7.302 -0.2005 -1.0444 -0.0166
  151MOL0     H19878   5.919   8.597   7.263 -2.0183 -1.0224  1.8659
  151MOL0     H19879   5.924   8.641   7.025 -2.0179 -0.3465 -3.0702
  151MOL0     H19880   5.825   8.783   7.038  1.3521  0.3559  2.9233
  151MOL0     H19881   5.758   8.490   7.097  0.5114 -0.8294 -0.7786
  151MOL0     H19882   5.640   8.634   7.115  2.0151  2.7115  1.1319
  151MOL0     H19883   5.632   8.473   6.914  0.5800 -1.2061  2.6211
  151MOL0     H19884   5.775   8.546   6.861 -0.3469 -0.1504 -0.6402
  151MOL0     H19885   5.462   8.721   7.010  2.5188  0.8235  1.4035
  151MOL0     H19886   5.395   9.014   6.858 -0.1889  0.4667 -1.1337
  151MOL0     H19887   5.262   8.895   6.885 -0.0657  0.3296  0.6531
  151MOL0     H19888   5.348   9.003   6.617  0.9104  3.7439  1.3513
  151MOL0     H19889   5.213   9.056   6.711  2.3554  2.2754 -3.1684
  151MOL0     H19890   5.272   8.773   6.604  2.1800  2.0978 -0.3572
  151MOL0     H19891   5.125   8.815   6.701 -1.3631  1.8744 -0.1055
  151MOL0     H19892   5.071   8.833   6.438 -0.3622  0.0254  0.7611
  151MOL0     H19893   5.199   8.950   6.420  1.8168 -1.0978  0.0684
  151MOL0     H19894   4.921   9.236   6.574  0.6476 -1.0293 -0.8437
  151MOL0     H19895   4.880   9.435   6.429  3.2168  2.1039 -3.1301
  151MOL0     H19896   5.115   9.594   5.963 -1.0928  2.4980  1.7410
  151MOL0     H19897   5.093   9.791   5.809 -0.0136  0.1806 -1.2250
  151MOL0     H19898   4.688   9.914   5.652  1.2816  2.5588  1.3021
  151MOL0     H19899   4.731   9.779   5.549 -3.3908  2.5227 -1.2791
  151MOL0     H19900   4.687   9.977   5.442 -0.7613  5.1363 -0.2660
  151MOL0     H19901   4.850   9.927   5.397 -1.0266 -4.2183  0.3811
  151MOL0     H19902   4.948  10.105   5.554  1.1911  1.9064 -0.0266
  151MOL0     H19903   4.779  10.158   5.599  1.1684  0.9092 -0.7256
  151MOL0     H19904   4.853  10.178   5.310 -2.7885  0.0672 -1.3977
  151MOL0     H19905   4.722  10.246   5.376  0.4897  0.2952  0.3623
  151MOL0     H19906   5.016  10.298   5.451  0.9064 -1.9438 -0.8548
  151MOL0     H19907   4.878  10.361   5.541 -1.0235 -0.4469 -2.0114
  151MOL0     H19908   4.823  10.508   5.337  0.4151  0.1074 -3.0701
  151MOL0     H19909   4.947  10.414   5.249  0.5646  3.0135 -1.7410
  151MOL0     H19910   5.016  10.646   5.321  3.1088  1.9035  0.6453
  151MOL0     H19911   5.006  10.591   5.486 -0.0382 -1.8922 -0.0730
  151MOL0     H19912   5.188  10.477   5.265  0.5092 -0.8683  0.4527
  151MOL0     H19913   5.205  10.442   5.437 -0.1688 -0.2829 -0.3333
  151MOL0     H19914   4.671   9.702   5.766  0.2103 -1.2664  0.4106
  151MOL0     H19915   4.705   9.515   5.910 -0.6064  1.0659 -0.3413
  151MOL0     H19916   5.009   9.217   6.101 -0.3344 -2.1964  0.2721
  151MOL0     H19917   5.052   9.017   6.238  1.1223 -0.4270  1.5619
  151MOL0     H19918   5.689   8.998   7.160  0.7312 -1.1347  0.8885
  151MOL0     H19919   5.467   8.969   7.098 -1.6729  1.7379 -0.0975
  151MOL0     H19920   5.078   9.047   6.943  1.4556 -0.4049  1.9337
  151MOL0     H19921   4.868   8.970   6.841 -1.6739 -0.8790  0.3677
  151MOL0     H19922   4.734   8.565   6.743 -1.8300 -0.0850  2.2748
  151MOL0     H19923   4.794   8.517   6.898 -3.2342  0.9534  0.9524
  151MOL0     H19924   4.985   8.639   6.702 -1.5339  0.2785 -0.8631
  151MOL0     H19925   5.018   8.565   6.861 -0.1952 -0.5235  0.2284
  151MOL0     H19926   4.890   8.433   6.608  0.7066  1.2306 -0.4354
  151MOL0     H19927   4.943   8.332   6.742 -0.9763 -2.0630 -4.4702
  151MOL0     H19928   5.120   8.515   6.567 -1.9650 -0.3257 -1.2789
  151MOL0     H19929   5.168   8.412   6.707 -0.1555 -0.2583  1.7680
  151MOL0     H19930   5.152   8.140   6.379 -2.8957  0.5009 -1.4360
  151MOL0     H19931   4.879   8.633   7.107 -0.7352 -0.1487 -2.2369
  151MOL0     H19932   5.090   8.719   7.208  1.5882  1.6476 -0.3231
  152MOL0     O19933   8.412   2.866   9.842  0.4736  0.7114  0.1775
  152MOL0     C19934   8.471   2.919   9.752  0.1215 -0.9414 -0.0881
  152MOL0     O19935   8.447   2.887   9.622  0.5441  0.0924 -0.2084
  152MOL0     C19936   8.385   2.761   9.604  0.1172 -0.2618  0.3867
  152MOL0     C19937   8.272   2.736   9.534  0.4231 -1.0944  0.1460
  152MOL0     C19938   8.235   2.611   9.486 -0.5267 -0.4845 -0.3345
  152MOL0     C19939   8.336   2.510   9.488  0.5761  0.1197 -0.4479
  152MOL0     O19940   8.305   2.394   9.422 -0.8150  0.0108 -0.5710
  152MOL0     C19941   8.312   2.269   9.499 -0.0333 -0.2195 -1.0139
  152MOL0     C19942   8.175   2.271   9.587 -0.7775  0.4427  0.0085
  152MOL0     C19943   8.040   2.308   9.522 -0.9847 -0.2167 -0.0157
  152MOL0     C19944   8.020   2.258   9.376  0.7959  0.2304  0.5382
  152MOL0     C19945   7.874   2.287   9.330  0.6586 -0.2623  0.7261
  152MOL0     C19946   7.846   2.234   9.195 -0.2772  0.4888  0.3173
  152MOL0     C19947   7.709   2.253   9.151  1.1706  0.3497 -0.7594
  152MOL0     C19948   7.654   2.397   9.170 -0.7506  0.1750 -0.0165
  152MOL0     N19949   7.536   2.415   9.091  0.1310  0.7531  0.1767
  152MOL0     C19950   7.522   2.462   8.963  0.0627 -0.0729  0.2335
  152MOL0     C19951   7.384   2.467   8.936 -1.1994 -0.4446 -0.0525
  152MOL0     C19952   7.321   2.492   8.808 -0.6295 -0.3670  0.8426
  152MOL0     C19953   7.216   2.378   8.785  0.9053 -0.8149  0.2502
  152MOL0     C19954   7.162   2.387   8.647 -0.1685 -1.1672  0.8844
  152MOL0     C19955   7.071   2.280   8.607  0.0261 -0.2396 -0.5709
  152MOL0     O19956   7.129   2.150   8.593 -0.3418 -0.3089 -0.2636
  152MOL0     C19957   7.236   2.118   8.515  0.6754 -0.7194 -0.5463
  152MOL0     C19958   7.286   1.985   8.529 -0.5762 -1.2536 -0.3184
  152MOL0     C19959   7.409   1.944   8.470 -0.6102  0.2427 -0.2810
  152MOL0     C19960   7.482   2.030   8.381 -0.7997 -0.7247  0.3007
  152MOL0     C19961   7.603   1.986   8.313  0.4585 -0.4426  0.0816
  152MOL0     O19962   7.610   2.012   8.178  0.1525 -0.1477 -0.2228
  152MOL0     C19963   7.717   1.952   8.114 -0.4671 -0.3830 -0.6923
  152MOL0     C19964   7.822   2.037   8.076 -0.0036 -0.2150  0.7024
  152MOL0     C19965   7.939   1.984   8.010  0.5664 -0.6623 -0.8220
  152MOL0     C19966   7.936   1.850   7.986  0.0808 -1.2008  0.6195
  152MOL0     O19967   8.037   1.791   7.913 -0.2075 -0.5394 -0.8575
  152MOL0     C19968   8.166   1.796   7.980  0.4188  0.7509 -0.9187
  152MOL0     C19969   8.272   1.712   7.905 -0.7322  1.0475  0.1206
  152MOL0     C19970   8.417   1.749   7.940  0.5494 -0.1728  0.3226
  152MOL0     C19971   8.526   1.666   7.867  0.4393  0.2703 -0.8050
  152MOL0     C19972   8.562   1.541   7.938  0.5958 -0.0357 -0.1624
  152MOL0     C19973   8.649   1.441   7.851  0.6826 -0.2270 -0.1377
  152MOL0     C19974   8.557   1.384   7.742 -0.4583  1.0785  1.1434
  152MOL0     C19975   8.613   1.268   7.657 -0.1187  0.0824  0.2340
  152MOL0    Cl19976   8.647   1.142   7.792  0.2437 -0.0428 -0.1781
  152MOL0     C19977   7.829   1.767   8.019 -1.0306 -0.1287  0.4606
  152MOL0     C19978   7.726   1.812   8.104  0.2306 -1.0269  1.1222
  152MOL0     O19979   7.678   1.917   8.375  0.0686  0.2186  0.6232
  152MOL0     C19980   7.424   2.160   8.364 -0.0002  0.9823  0.6376
  152MOL0     C19981   7.304   2.199   8.419 -0.0073 -0.4071 -0.3584
  152MOL0     N19982   7.317   2.443   9.052  0.1268 -0.2059 -1.0786
  152MOL0     N19983   7.414   2.415   9.142 -0.2401  0.1005 -0.3396
  152MOL0     C19984   8.458   2.533   9.546  0.5166 -0.0137  0.5854
  152MOL0     C19985   8.479   2.655   9.611  0.2910  0.3160  0.1026
  152MOL0     C19986   8.581   3.006   9.788 -0.5487 -0.8837 -1.0556
  152MOL0     C19987   8.688   3.028   9.698  0.5347  0.5849 -0.2502
  152MOL0     C19988   8.802   3.105   9.735  0.3160  0.0544  0.4072
  152MOL0     C19989   8.814   3.154   9.870 -0.9639 -0.0241 -0.1274
  152MOL0     O19990   8.930   3.227   9.920  0.4345 -0.1596  0.7131
  152MOL0     C19991   9.060   3.186   9.857 -1.0905 -0.8730  0.8756
  152MOL0     C19992   9.188   3.246   9.943  0.5816  0.4557  0.5430
  152MOL0     C19993   9.226   3.397   9.937 -0.2069 -0.0252  1.1212
  152MOL0     C19994   9.186   3.474   9.817  0.2895 -0.0140 -0.3317
  152MOL0     C19995   9.239   3.431   9.682  0.2546 -0.6069 -0.0031
  152MOL0     C19996   9.286   3.400   9.570 -1.0742  0.6585 -0.1417
  152MOL0     C19997   8.698   3.139   9.947  0.1957  0.3340  0.5697
  152MOL0     C19998   8.585   3.066   9.911 -1.1686 -0.7486  0.9557
  152MOL0     H19999   8.195   2.808   9.508  0.0334 -1.2506  0.8542
  152MOL0     H20000   8.145   2.596   9.427 -1.0792  1.7229 -0.1301
  152MOL0     H20001   8.394   2.272   9.571 -0.6892  1.3503 -0.2810
  152MOL0     H20002   8.333   2.184   9.433 -0.3025  1.0030 -2.7700
  152MOL0     H20003   8.205   2.338   9.668 -0.7770 -1.8596  2.0415
  152MOL0     H20004   8.174   2.170   9.629 -1.8125 -0.5715 -2.2549
  152MOL0     H20005   8.030   2.416   9.534  4.9643  0.4365  2.6276
  152MOL0     H20006   7.958   2.263   9.579 -0.8112  0.2754  0.6353
  152MOL0     H20007   8.079   2.322   9.310 -1.1035  1.8090  0.2667
  152MOL0     H20008   8.032   2.149   9.381  1.4272  0.3409  1.8182
  152MOL0     H20009   7.877   2.396   9.319 -0.2397 -0.4431 -2.3614
  152MOL0     H20010   7.800   2.243   9.397  1.8590 -3.2124  0.2542
  152MOL0     H20011   7.874   2.128   9.195  2.4475  1.1260  1.2333
  152MOL0     H20012   7.897   2.282   9.111 -1.9823  3.0805  0.6697
  152MOL0     H20013   7.704   2.235   9.043  1.1934  3.4481 -1.3543
  152MOL0     H20014   7.654   2.172   9.200  2.9582 -0.7427 -0.4432
  152MOL0     H20015   7.721   2.477   9.137 -2.6265  0.9378 -2.2453
  152MOL0     H20016   7.627   2.415   9.275  1.0624 -0.0609  0.5325
  152MOL0     H20017   7.594   2.493   8.888  1.3834 -1.8498  0.7218
  152MOL0     H20018   7.406   2.504   8.739 -0.6417  3.7459  1.2825
  152MOL0     H20019   7.268   2.588   8.816  0.0618  0.0407  0.6677
  152MOL0     H20020   7.133   2.377   8.855 -0.6713 -5.7339 -1.2967
  152MOL0     H20021   7.267   2.281   8.790 -2.8009 -3.0300 -1.2295
  152MOL0     H20022   7.103   2.478   8.633 -0.5454 -1.6360 -0.7261
  152MOL0     H20023   7.249   2.382   8.581 -1.5535 -1.8523 -0.9955
  152MOL0     H20024   7.007   2.299   8.520 -0.5041 -1.2437 -0.4209
  152MOL0     H20025   7.010   2.277   8.698  0.4378  1.6665 -0.1956
  152MOL0     H20026   7.229   1.927   8.601 -5.2756  1.3278 -1.5023
  152MOL0     H20027   7.450   1.848   8.498 -0.0811 -0.8524 -4.1541
  152MOL0     H20028   7.815   2.144   8.092 -4.3435 -0.2320  0.3229
  152MOL0     H20029   8.022   2.051   7.988 -1.8259  2.4177 -1.0962
  152MOL0     H20030   8.151   1.767   8.084 -0.4111  2.0429 -0.6447
  152MOL0     H20031   8.212   1.895   7.973 -1.4577  1.5802 -2.9587
  152MOL0     H20032   8.260   1.736   7.799  0.4199  1.6254  0.1145
  152MOL0     H20033   8.258   1.608   7.937 -1.6603  0.7415 -1.1885
  152MOL0     H20034   8.448   1.745   8.045 -0.7336 -2.5271  0.6807
  152MOL0     H20035   8.425   1.855   7.912  0.1145  0.1913  1.5059
  152MOL0     H20036   8.502   1.662   7.761  0.3912 -0.6793 -0.7678
  152MOL0     H20037   8.616   1.726   7.885  1.4111 -1.9159  2.6490
  152MOL0     H20038   8.475   1.477   7.956  1.7987 -2.1087 -1.3290
  152MOL0     H20039   8.610   1.565   8.034 -1.7128  1.3230  0.7486
  152MOL0     H20040   8.693   1.367   7.919  0.1107  0.0642  0.5607
  152MOL0     H20041   8.734   1.492   7.804  0.8389  0.6714  1.0788
  152MOL0     H20042   8.470   1.339   7.792 -3.0510 -0.2912 -3.9182
  152MOL0     H20043   8.523   1.461   7.672  1.4211  1.1862  0.2928
  152MOL0     H20044   8.703   1.301   7.605  1.4396 -4.5894 -0.4836
  152MOL0     H20045   8.530   1.249   7.588 -0.2044 -0.9654  0.6167
  152MOL0     H20046   7.842   1.664   7.988  0.9829 -0.6504  2.7139
  152MOL0     H20047   7.643   1.749   8.138  0.2611 -0.3422  2.5450
  152MOL0     H20048   7.458   2.228   8.286 -0.1414 -0.7736 -1.0301
  152MOL0     H20049   7.261   2.298   8.405 -1.0309  0.0424  4.2401
  152MOL0     H20050   8.531   2.454   9.539  2.2261  1.3456  2.2331
  152MOL0     H20051   8.578   2.679   9.649  1.1881 -0.4065 -1.6612
  152MOL0     H20052   8.691   2.967   9.609 -0.3588 -2.9106  1.9136
  152MOL0     H20053   8.883   3.121   9.664  0.8123  1.1786  1.1926
  152MOL0     H20054   9.065   3.225   9.755 -0.0877 -0.9891  0.8714
  152MOL0     H20055   9.071   3.077   9.858  1.5390 -0.6745  0.5157
  152MOL0     H20056   9.176   3.215  10.047  2.9094  2.7029  1.6049
  152MOL0     H20057   9.271   3.186   9.904 -0.7556  1.1303 -3.9351
  152MOL0     H20058   9.334   3.406   9.952 -0.2430  1.2333  0.7076
  152MOL0     H20059   9.176   3.447  10.020 -2.0031  0.6309 -0.2837
  152MOL0     H20060   9.077   3.484   9.821  0.3869  0.6553  1.2322
  152MOL0     H20061   9.226   3.575   9.827  0.6392 -0.1454 -0.3595
  152MOL0     H20062   9.335   3.363   9.483  2.4019  0.7301  1.6133
  152MOL0     H20063   8.705   3.194  10.040  2.0490  1.9146 -0.4425
  152MOL0     H20064   8.497   3.069   9.974 -0.9968  0.9155  1.1622
  153MOL0     O20065   1.833   0.370   2.716  0.4944 -0.4933 -0.3319
  153MOL0     C20066   1.867   0.446   2.808 -1.0244 -0.4599 -0.5281
  153MOL0     O20067   1.910   0.406   2.933  0.9397  0.0635 -0.5936
  153MOL0     C20068   1.894   0.281   2.977 -0.7908 -0.3123  0.2657
  153MOL0     C20069   1.919   0.169   2.901 -0.3851  0.8262  0.2482
  153MOL0     C20070   1.916   0.038   2.947  0.4783 -0.0656 -0.2138
  153MOL0     C20071   1.864   0.019   3.086  0.2100 -0.9449 -0.4508
  153MOL0     O20072   1.833  -0.095   3.161 -0.5026 -0.9075  1.2852
  153MOL0     C20073   1.881  -0.217   3.097  0.7711  0.2692  0.4631
  153MOL0     C20074   1.844  -0.323   3.200 -0.2984  0.3007 -0.1439
  153MOL0     C20075   1.807  -0.455   3.129  0.5162 -0.1752  0.2729
  153MOL0     C20076   1.790  -0.575   3.225  0.3724 -0.2497 -0.2995
  153MOL0     C20077   1.668  -0.664   3.189  0.1092  0.4039  0.9490
  153MOL0     C20078   1.707  -0.758   3.070  0.2619 -0.1554  0.2916
  153MOL0     C20079   1.584  -0.837   3.020 -0.1928 -0.4241 -0.1715
  153MOL0     C20080   1.472  -0.746   2.964  0.4088 -0.7445 -0.4795
  153MOL0     N20081   1.374  -0.812   2.873  0.0648  0.0520 -0.3085
  153MOL0     C20082   1.284  -0.905   2.916 -0.1807  0.5081 -0.1439
  153MOL0     C20083   1.219  -0.931   2.800  1.0045  0.0476  0.3170
  153MOL0     C20084   1.118  -1.037   2.792 -0.4136 -0.1174 -0.5873
  153MOL0     C20085   1.118  -1.093   2.648 -0.5157  0.7412  0.2370
  153MOL0     C20086   1.036  -1.216   2.649  0.3309 -0.3016  0.4072
  153MOL0     C20087   1.022  -1.275   2.508 -0.5063 -0.9712  0.1924
  153MOL0     O20088   0.936  -1.189   2.439  0.7262 -0.5106  0.3025
  153MOL0     C20089   0.901  -1.208   2.309 -0.0621  0.4997 -0.1107
  153MOL0     C20090   0.774  -1.161   2.272 -1.0537 -0.2562  0.3655
  153MOL0     C20091   0.727  -1.179   2.140  0.2840 -0.0196 -0.6230
  153MOL0     C20092   0.797  -1.267   2.057 -0.1310 -0.2443 -0.1837
  153MOL0     C20093   0.732  -1.300   1.924 -0.0932  1.7613  0.1402
  153MOL0     O20094   0.589  -1.296   1.913  0.1205  0.3450 -0.1005
  153MOL0     C20095   0.552  -1.356   1.792  0.3090  0.2046  0.0341
  153MOL0     C20096   0.449  -1.301   1.707 -0.8787  0.2082 -0.6486
  153MOL0     C20097   0.396  -1.362   1.596 -0.0080 -0.7415  0.2035
  153MOL0     C20098   0.443  -1.484   1.553 -0.1149  0.5175 -0.8997
  153MOL0     O20099   0.397  -1.543   1.441 -0.6065 -0.0624 -0.0959
  153MOL0     C20100   0.283  -1.639   1.471 -0.7107 -0.1244  1.1775
  153MOL0     C20101   0.258  -1.731   1.351 -0.2931 -0.0458 -0.6281
  153MOL0     C20102   0.149  -1.830   1.375  0.2996  0.4542 -0.4256
  153MOL0     C20103   0.211  -1.947   1.444  0.7403  0.5274 -0.4628
  153MOL0     C20104   0.097  -2.054   1.479 -0.5452  0.2274 -0.3446
  153MOL0     C20105  -0.044  -2.045   1.424 -0.0651 -0.1741  0.7811
  153MOL0     C20106  -0.105  -2.182   1.463 -0.0143  0.2888 -0.9024
  153MOL0     C20107  -0.249  -2.193   1.421 -0.3621 -0.4344 -0.5273
  153MOL0    Cl20108  -0.294  -2.357   1.459 -0.6996  0.1960 -0.6328
  153MOL0     C20109   0.532  -1.556   1.636  0.4607 -0.2113  1.3520
  153MOL0     C20110   0.582  -1.490   1.763  0.1195  1.0723  1.1078
  153MOL0     O20111   0.813  -1.335   1.838  0.9441 -0.7191  0.0978
  153MOL0     C20112   0.922  -1.322   2.091  0.3346  0.1857 -0.4053
  153MOL0     C20113   0.978  -1.282   2.216 -0.1148 -0.5403  0.1583
  153MOL0     N20114   1.257  -0.850   2.695  0.6135 -0.0081 -0.3038
  153MOL0     N20115   1.363  -0.786   2.739 -0.2291  0.5141  0.4036
  153MOL0     C20116   1.835   0.135   3.172 -0.8256 -0.5709  0.1410
  153MOL0     C20117   1.858   0.255   3.118  0.3501 -0.2798 -0.1822
  153MOL0     C20118   1.848   0.592   2.777  0.0295  0.0525 -0.0642
  153MOL0     C20119   1.910   0.694   2.847  0.1710  0.2503  1.2187
  153MOL0     C20120   1.893   0.825   2.806 -0.2271  0.0394 -0.0572
  153MOL0     C20121   1.813   0.860   2.696 -0.1733 -0.2650 -1.0638
  153MOL0     O20122   1.817   0.992   2.654 -0.2209  0.2153  1.2779
  153MOL0     C20123   1.767   1.030   2.523  0.4336  0.7676  0.1978
  153MOL0     C20124   1.661   1.146   2.525  0.7556  0.2453  0.2053
  153MOL0     C20125   1.528   1.096   2.588 -0.4625 -0.1984 -0.8515
  153MOL0     C20126   1.433   1.096   2.479 -0.3734 -0.3342 -0.2537
  153MOL0     C20127   1.385   1.226   2.436 -0.4219 -0.1361  0.5201
  153MOL0     C20128   1.356   1.337   2.394  0.5253 -0.1148 -0.7679
  153MOL0     C20129   1.743   0.758   2.639  0.6653 -0.5631 -0.5782
  153MOL0     C20130   1.753   0.629   2.679  0.0808 -0.0021 -0.2718
  153MOL0     H20131   1.939   0.179   2.795  1.9065 -2.1101  0.2836
  153MOL0     H20132   1.935  -0.052   2.889 -0.0644 -1.5258  1.7543
  153MOL0     H20133   1.988  -0.224   3.077  0.9726  0.0203  1.5504
  153MOL0     H20134   1.827  -0.239   3.004  0.5243 -0.3125  0.7411
  153MOL0     H20135   1.755  -0.292   3.255 -0.0374 -1.7639  1.5650
  153MOL0     H20136   1.921  -0.329   3.277  1.0802 -0.2870 -1.5012
  153MOL0     H20137   1.878  -0.481   3.049 -0.1797 -2.0908  0.2138
  153MOL0     H20138   1.714  -0.435   3.075  1.8183 -0.7803 -2.3685
  153MOL0     H20139   1.886  -0.626   3.215  0.9899  0.7937  0.0868
  153MOL0     H20140   1.777  -0.533   3.325  2.6627  0.3892 -0.2155
  153MOL0     H20141   1.578  -0.606   3.166 -1.9687 -2.1830  1.9881
  153MOL0     H20142   1.648  -0.723   3.278  3.8209  2.4722  3.4031
  153MOL0     H20143   1.770  -0.841   3.104 -1.2981 -1.0042  1.2565
  153MOL0     H20144   1.745  -0.701   2.984  0.5631 -0.3622  0.2853
  153MOL0     H20145   1.618  -0.909   2.946 -2.2631 -3.5442  1.6867
  153MOL0     H20146   1.544  -0.893   3.105 -0.7599  1.7601  1.0908
  153MOL0     H20147   1.515  -0.657   2.918  1.5206  0.4684  2.6024
  153MOL0     H20148   1.413  -0.698   3.043 -2.1669  0.0647 -2.7185
  153MOL0     H20149   1.266  -0.951   3.013 -2.6460 -1.3177 -1.3649
  153MOL0     H20150   1.019  -0.996   2.812 -0.3550 -0.6757  0.9384
  153MOL0     H20151   1.155  -1.121   2.852  1.7427  0.6688 -0.7003
  153MOL0     H20152   1.216  -1.121   2.610  0.4883  1.6852  2.0096
  153MOL0     H20153   1.067  -1.023   2.580 -1.7455 -1.4664 -1.2455
  153MOL0     H20154   1.079  -1.291   2.716 -1.9288 -4.7916 -2.6688
  153MOL0     H20155   0.940  -1.193   2.695 -0.2350  0.0554 -0.9073
  153MOL0     H20156   0.978  -1.375   2.515 -1.4889 -0.4775  1.5093
  153MOL0     H20157   1.125  -1.287   2.473 -0.2861 -3.2675  1.4402
  153MOL0     H20158   0.709  -1.113   2.345 -0.6719  1.0739 -0.1481
  153MOL0     H20159   0.633  -1.131   2.117  0.5159 -1.0661 -4.4619
  153MOL0     H20160   0.410  -1.206   1.740 -1.2729 -0.2805  0.3101
  153MOL0     H20161   0.320  -1.301   1.549 -0.7369 -1.5692  0.2865
  153MOL0     H20162   0.196  -1.574   1.487 -0.8529 -0.3721  1.4161
  153MOL0     H20163   0.308  -1.697   1.560 -3.0789  1.3501  2.9336
  153MOL0     H20164   0.345  -1.782   1.308 -0.8984  0.5712 -2.7131
  153MOL0     H20165   0.219  -1.666   1.272 -1.0797  1.8286  1.2220
  153MOL0     H20166   0.107  -1.849   1.276  0.5270  2.0857 -0.8646
  153MOL0     H20167   0.079  -1.774   1.438  0.7098  0.6572 -0.1455
  153MOL0     H20168   0.282  -2.002   1.381 -0.8786 -2.5291  0.1682
  153MOL0     H20169   0.263  -1.916   1.535  0.7853  2.1966 -1.0253
  153MOL0     H20170   0.106  -2.053   1.588  1.4365 -1.2510 -0.4262
  153MOL0     H20171   0.133  -2.155   1.458 -0.1047 -0.2820  2.5016
  153MOL0     H20172  -0.048  -2.038   1.315 -0.1035 -1.9425  0.6380
  153MOL0     H20173  -0.108  -1.962   1.456  0.3073 -0.2156  1.6638
  153MOL0     H20174  -0.052  -2.258   1.406 -1.0453 -1.5461  0.4804
  153MOL0     H20175  -0.099  -2.209   1.569  1.0472 -0.0494 -1.0374
  153MOL0     H20176  -0.268  -2.178   1.314  1.0001 -4.1436 -1.4554
  153MOL0     H20177  -0.310  -2.133   1.488  1.3681 -0.6035  1.2833
  153MOL0     H20178   0.552  -1.660   1.609 -0.1131  0.0416 -0.1526
  153MOL0     H20179   0.642  -1.544   1.836 -0.1405  0.5038  0.8992
  153MOL0     H20180   0.977  -1.377   2.015 -2.6393 -0.4060 -2.2700
  153MOL0     H20181   1.077  -1.316   2.245 -0.2635  2.1339  4.7941
  153MOL0     H20182   1.795   0.126   3.272 -1.2140 -2.3175 -0.1212
  153MOL0     H20183   1.841   0.343   3.179 -0.1573  0.0081 -0.7330
  153MOL0     H20184   1.962   0.656   2.934 -0.1907  1.4171  1.9683
  153MOL0     H20185   1.925   0.914   2.860  0.6385  2.3529 -4.0003
  153MOL0     H20186   1.724   0.948   2.465 -0.6276  0.7158  1.0161
  153MOL0     H20187   1.856   1.063   2.468  0.3826 -3.7170 -3.1461
  153MOL0     H20188   1.697   1.232   2.582 -1.4420  2.5950 -1.7033
  153MOL0     H20189   1.636   1.174   2.422 -5.9777 -1.0321  1.0835
  153MOL0     H20190   1.479   1.150   2.670 -1.0972 -1.7438 -0.1672
  153MOL0     H20191   1.531   0.996   2.632  1.1801 -0.9690 -2.5699
  153MOL0     H20192   1.480   1.029   2.407 -0.1417 -2.9621  2.1205
  153MOL0     H20193   1.344   1.041   2.511 -0.5392  1.2339  2.2684
  153MOL0     H20194   1.329   1.429   2.345  1.7940 -1.4517 -4.2900
  153MOL0     H20195   1.672   0.772   2.558  1.7931  1.1214 -1.3449
  153MOL0     H20196   1.674   0.563   2.644 -2.4112  0.2252  4.1741
  154MOL0     O20197   9.804  11.265   5.003 -0.1687 -0.6427 -0.2659
  154MOL0     C20198   9.787  11.275   4.883  0.4917 -0.2275  0.5956
  154MOL0     O20199   9.763  11.398   4.827  0.2429  0.4730  0.0229
  154MOL0     C20200   9.742  11.502   4.899  0.2663  0.3736 -0.5044
  154MOL0     C20201   9.613  11.553   4.898 -0.1810  0.7117  0.0725
  154MOL0     C20202   9.576  11.656   4.990  0.5141 -0.6248 -0.1607
  154MOL0     C20203   9.667  11.721   5.075  0.3170 -0.8345 -0.4061
  154MOL0     O20204   9.612  11.820   5.151 -0.3169  0.7787 -0.0676
  154MOL0     C20205   9.696  11.885   5.251 -0.3346  0.3609 -1.1164
  154MOL0     C20206   9.618  11.977   5.346 -0.3865 -0.5155 -1.3790
  154MOL0     C20207   9.502  11.903   5.416 -0.2150  0.2024  0.5959
  154MOL0     C20208   9.374  11.957   5.351 -0.0948 -0.4384  0.2194
  154MOL0     C20209   9.330  12.102   5.395 -0.0678  0.0642  0.1285
  154MOL0     C20210   9.361  12.144   5.533 -0.7815  0.2129  0.9598
  154MOL0     C20211   9.265  12.265   5.572 -0.0657 -0.1458 -0.5834
  154MOL0     C20212   9.321  12.362   5.674  0.1675  1.4538 -0.1441
  154MOL0     N20213   9.318  12.312   5.808 -1.0230 -0.1635  0.1337
  154MOL0     C20214   9.206  12.301   5.898 -0.3491  0.3225  0.6439
  154MOL0     C20215   9.258  12.229   5.997 -0.0968  0.9918 -0.0710
  154MOL0     C20216   9.174  12.205   6.116 -0.9778  0.1105  1.0600
  154MOL0     C20217   9.125  12.057   6.102  0.1356 -0.4401 -0.1777
  154MOL0     C20218   9.209  11.957   6.180 -0.4007  0.1295 -1.0471
  154MOL0     C20219   9.140  11.825   6.184  0.1229  0.1825 -0.8209
  154MOL0     O20220   9.254  11.739   6.225 -0.5844 -0.6420  0.1286
  154MOL0     C20221   9.261  11.626   6.150  0.0256 -0.4568  0.3809
  154MOL0     C20222   9.377  11.590   6.077 -0.3210 -0.8086  0.3953
  154MOL0     C20223   9.381  11.454   6.023 -0.2489 -0.5902  0.4213
  154MOL0     C20224   9.282  11.358   6.036  0.6487  0.4085  0.6430
  154MOL0     C20225   9.300  11.216   5.983 -0.3344 -0.4837  0.2319
  154MOL0     O20226   9.216  11.123   6.039  0.3058 -0.0183 -0.1220
  154MOL0     C20227   9.246  10.989   6.022  0.8756  0.2956 -0.2710
  154MOL0     C20228   9.373  10.937   6.022 -0.7275  0.4706 -0.1191
  154MOL0     C20229   9.386  10.794   5.989  0.6149 -0.0503 -0.9128
  154MOL0     C20230   9.278  10.704   5.986 -0.2558 -0.5782 -0.8446
  154MOL0     O20231   9.294  10.570   5.960  0.0665  0.5750  0.7413
  154MOL0     C20232   9.305  10.548   5.814  0.0074 -0.6152 -0.5681
  154MOL0     C20233   9.318  10.399   5.791  0.3585  0.6341  0.9111
  154MOL0     C20234   9.201  10.305   5.856  0.3801 -0.3260  0.5888
  154MOL0     C20235   9.216  10.167   5.794  0.0763  0.7208  0.4691
  154MOL0     C20236   9.107  10.072   5.855 -0.1179  0.8181  0.2430
  154MOL0     C20237   8.964  10.079   5.799  0.2141  0.6883  0.2963
  154MOL0     C20238   8.856   9.998   5.871  0.5338 -0.0388  0.8568
  154MOL0     C20239   8.723  10.020   5.794 -0.2718  1.5870 -0.8089
  154MOL0    Cl20240   8.615   9.885   5.838 -0.1609 -0.0266 -0.0211
  154MOL0     C20241   9.155  10.749   6.010 -0.7275 -1.2498  0.2037
  154MOL0     C20242   9.142  10.894   6.016  0.3726  0.7460 -1.1703
  154MOL0     O20243   9.381  11.200   5.889  0.7056 -1.1380 -0.0330
  154MOL0     C20244   9.163  11.405   6.096  0.3316  0.5504  0.5082
  154MOL0     C20245   9.161  11.534   6.163  0.3007  0.1441  1.0445
  154MOL0     N20246   9.389  12.200   5.975  0.2090 -0.0439 -0.1008
  154MOL0     N20247   9.424  12.251   5.868 -0.5380 -0.7867 -0.1653
  154MOL0     C20248   9.799  11.670   5.075 -0.0981  0.0832  0.3775
  154MOL0     C20249   9.837  11.564   4.986 -0.0153 -0.1604 -0.3725
  154MOL0     C20250   9.799  11.146   4.810 -1.2600  0.3528  0.3670
  154MOL0     C20251   9.750  11.140   4.673 -0.0776 -0.0251 -0.3306
  154MOL0     C20252   9.754  11.018   4.608 -0.4343  0.4630  0.1169
  154MOL0     C20253   9.802  10.898   4.660 -0.4976 -0.4279  0.2337
  154MOL0     O20254   9.817  10.795   4.568 -0.0482 -0.4277  0.1930
  154MOL0     C20255   9.922  10.692   4.583  0.1447  0.1770  0.0928
  154MOL0     C20256   9.887  10.566   4.666  0.2655 -0.9167  0.0898
  154MOL0     C20257   9.937  10.426   4.618  0.2673 -0.0704 -0.4060
  154MOL0     C20258   9.835  10.364   4.510  0.5069  0.1072  0.1005
  154MOL0     C20259   9.832  10.432   4.376  0.0148  0.5877 -0.6087
  154MOL0     C20260   9.804  10.495   4.276  0.2107  0.1368 -0.3378
  154MOL0     C20261   9.850  10.901   4.789 -0.1151 -0.8152 -0.3328
  154MOL0     C20262   9.849  11.021   4.869 -0.2703  0.0567 -0.1896
  154MOL0     H20263   9.538  11.485   4.860 -0.8132  0.6259  1.4287
  154MOL0     H20264   9.472  11.681   5.011  0.3221 -1.4416 -0.1247
  154MOL0     H20265   9.775  11.933   5.193 -1.5055  1.8873 -1.4983
  154MOL0     H20266   9.747  11.813   5.316 -0.5437  0.1236 -1.2113
  154MOL0     H20267   9.571  12.065   5.300  0.1460 -0.3202 -1.5613
  154MOL0     H20268   9.679  12.015   5.429 -3.2616 -3.0678  2.2456
  154MOL0     H20269   9.511  11.921   5.523 -3.1486 -1.1932  1.1488
  154MOL0     H20270   9.513  11.796   5.401 -1.1250 -0.0750  1.8015
  154MOL0     H20271   9.385  11.969   5.243 -0.3762  0.6123  0.2987
  154MOL0     H20272   9.289  11.891   5.369 -0.0181 -1.1404 -1.7811
  154MOL0     H20273   9.222  12.103   5.380 -0.3312  0.6707  1.8300
  154MOL0     H20274   9.372  12.177   5.326 -0.1763  2.8415  2.8525
  154MOL0     H20275   9.468  12.163   5.549 -0.1830 -3.3391  2.2861
  154MOL0     H20276   9.347  12.070   5.613  1.3677  0.5477  1.7105
  154MOL0     H20277   9.225  12.328   5.493 -0.6674  2.9240  1.9730
  154MOL0     H20278   9.170  12.223   5.605 -0.7040  1.5165 -0.1818
  154MOL0     H20279   9.292  12.468   5.668  4.2593  2.7623 -0.0724
  154MOL0     H20280   9.424  12.375   5.640  0.8864  3.1956  2.4463
  154MOL0     H20281   9.102  12.332   5.898  0.5814  3.7511  0.8959
  154MOL0     H20282   9.093  12.279   6.122 -1.0585  0.5930 -2.9626
  154MOL0     H20283   9.235  12.230   6.203  0.2789  1.3365 -0.1096
  154MOL0     H20284   9.117  12.023   5.998 -0.1077 -2.2433  0.3946
  154MOL0     H20285   9.024  12.049   6.143  0.5583  3.9517  2.3058
  154MOL0     H20286   9.299  11.945   6.120 -0.2944 -2.3899 -0.4927
  154MOL0     H20287   9.234  11.990   6.282  0.2019  2.4196 -1.8847
  154MOL0     H20288   9.100  11.808   6.084  0.6122 -0.7562 -0.8679
  154MOL0     H20289   9.052  11.812   6.249  0.6808 -1.5599 -0.3559
  154MOL0     H20290   9.461  11.660   6.081  0.6076 -1.9623  2.4868
  154MOL0     H20291   9.473  11.432   5.969  0.1938 -2.5505  1.8592
  154MOL0     H20292   9.465  10.995   6.021 -0.8730  0.7034 -0.1059
  154MOL0     H20293   9.488  10.759   5.989  1.2081  1.5175  0.3510
  154MOL0     H20294   9.395  10.596   5.774  0.1984  2.2959  2.8051
  154MOL0     H20295   9.214  10.573   5.759 -0.2129 -2.0943 -0.9047
  154MOL0     H20296   9.419  10.369   5.819 -0.1323 -1.2741  0.8263
  154MOL0     H20297   9.322  10.391   5.682 -0.5811  2.7656  0.6705
  154MOL0     H20298   9.101  10.342   5.833 -0.0538 -0.8363  1.5763
  154MOL0     H20299   9.223  10.299   5.963 -2.3485 -0.9335  1.1780
  154MOL0     H20300   9.211  10.174   5.685 -2.0217 -2.4412  0.2311
  154MOL0     H20301   9.314  10.131   5.829 -0.6312  0.7857  2.6753
  154MOL0     H20302   9.100  10.084   5.963 -0.3287 -0.3208  0.3684
  154MOL0     H20303   9.134   9.967   5.836 -0.1880  1.4181 -4.0985
  154MOL0     H20304   8.974  10.060   5.692 -2.1242 -0.3097  0.1910
  154MOL0     H20305   8.934  10.183   5.814 -1.7692  0.3752 -1.1428
  154MOL0     H20306   8.876   9.891   5.863 -2.5828 -0.8712  2.5987
  154MOL0     H20307   8.846  10.039   5.972  0.8249  1.0957  0.4494
  154MOL0     H20308   8.743  10.033   5.687 -0.2265  1.9140 -0.7627
  154MOL0     H20309   8.673  10.113   5.820  0.3984  2.1340 -1.4161
  154MOL0     H20310   9.068  10.686   6.028 -2.1585  1.5490  4.7948
  154MOL0     H20311   9.037  10.919   6.027 -0.0031 -0.4990 -1.6962
  154MOL0     H20312   9.070  11.350   6.109  1.5196 -1.3258  1.5931
  154MOL0     H20313   9.076  11.567   6.222  0.6563  2.4000  0.4068
  154MOL0     H20314   9.873  11.691   5.152  0.7729  0.0349 -0.4376
  154MOL0     H20315   9.938  11.522   4.992 -0.4920 -1.7804 -2.4986
  154MOL0     H20316   9.708  11.227   4.625 -2.0803 -0.9701 -0.3912
  154MOL0     H20317   9.705  11.015   4.511 -2.6131 -0.4205  1.1866
  154MOL0     H20318  10.000  10.747   4.637 -0.9451 -0.1215  2.0488
  154MOL0     H20319   9.967  10.665   4.487  0.0620 -1.3192  0.4494
  154MOL0     H20320   9.929  10.583   4.766  1.0408 -1.4385 -0.1341
  154MOL0     H20321   9.779  10.556   4.681 -0.0174  0.0626 -1.1978
  154MOL0     H20322   9.929  10.364   4.708  0.0862 -1.5786 -1.4282
  154MOL0     H20323  10.035  10.414   4.572  0.0353 -4.2205 -0.2264
  154MOL0     H20324   9.866  10.260   4.498 -0.3342 -0.2807  1.1322
  154MOL0     H20325   9.739  10.378   4.561 -0.8625  0.1952 -2.3768
  154MOL0     H20326   9.799  10.568   4.198  0.4617  1.4830  0.8375
  154MOL0     H20327   9.899  10.810   4.823  1.0658 -0.4143 -0.9107
  154MOL0     H20328   9.867  11.011   4.976  0.1753 -2.5637 -0.4368
  155MOL0     O20329   3.387   4.407  10.016  0.2121 -0.4197 -0.0474
  155MOL0     C20330   3.361   4.376   9.905 -0.2318  0.7053  0.0217
  155MOL0     O20331   3.243   4.312   9.856 -0.1222  0.6280  0.7977
  155MOL0     C20332   3.138   4.306   9.953  0.2021  0.4252  1.0966
  155MOL0     C20333   3.067   4.186   9.962 -0.0926 -0.6582 -0.2384
  155MOL0     C20334   2.951   4.184  10.041 -0.4545 -0.3116  0.4419
  155MOL0     C20335   2.912   4.302  10.109 -0.4464 -0.8720 -0.9958
  155MOL0     O20336   2.807   4.309  10.200 -0.8413 -0.2776 -0.2469
  155MOL0     C20337   2.707   4.210  10.195  0.3477  1.0312 -0.4886
  155MOL0     C20338   2.592   4.239  10.292  0.4523 -0.2254  0.4638
  155MOL0     C20339   2.455   4.202  10.226  0.5431 -0.3944 -0.2105
  155MOL0     C20340   2.380   4.325  10.152 -0.9686  0.8573 -0.2437
  155MOL0     C20341   2.221   4.332  10.189 -0.4415  0.7315 -0.5127
  155MOL0     C20342   2.151   4.432  10.098  0.5438 -0.2789  0.9180
  155MOL0     C20343   2.005   4.425  10.138  1.2817 -0.8456 -0.7105
  155MOL0     C20344   1.917   4.499  10.032  0.3559 -0.4589 -0.6288
  155MOL0     N20345   1.969   4.629  10.012 -0.1915 -0.6259  0.8184
  155MOL0     C20346   2.059   4.674   9.912 -0.5930 -0.4525 -0.2260
  155MOL0     C20347   2.052   4.815   9.917  0.8797 -0.0816  0.2904
  155MOL0     C20348   2.128   4.915   9.840 -0.4984  0.2385  0.4648
  155MOL0     C20349   2.281   4.897   9.871 -0.4142  0.2157  0.5629
  155MOL0     C20350   2.372   5.009   9.785  0.9341  0.2936 -0.2737
  155MOL0     C20351   2.517   4.980   9.829  0.3237 -0.0908  0.9586
  155MOL0     O20352   2.604   5.077   9.772 -1.1753 -0.7422 -0.7047
  155MOL0     C20353   2.658   5.068   9.643 -0.4931 -0.2055  0.2992
  155MOL0     C20354   2.649   4.955   9.558  0.0084 -0.6877 -0.2374
  155MOL0     C20355   2.700   4.949   9.425 -0.1235 -0.3649  0.7865
  155MOL0     C20356   2.784   5.047   9.384 -0.0734  0.2247 -0.2950
  155MOL0     C20357   2.867   5.029   9.253 -0.0711 -0.0881 -0.0532
  155MOL0     O20358   2.894   5.142   9.190 -0.0999 -0.6717  0.7150
  155MOL0     C20359   2.914   5.151   9.055 -0.0031  0.7847  0.6785
  155MOL0     C20360   3.042   5.108   9.005  0.0923  0.2967 -0.6293
  155MOL0     C20361   3.079   5.130   8.873 -0.1024  0.6119 -0.2174
  155MOL0     C20362   2.988   5.194   8.779  0.2515  0.0818 -0.3955
  155MOL0     O20363   3.004   5.190   8.646  1.0749 -0.3247  0.1573
  155MOL0     C20364   3.062   5.078   8.582 -1.0892 -0.1770  0.6488
  155MOL0     C20365   3.063   5.105   8.428 -0.1769 -0.0467  0.2616
  155MOL0     C20366   2.930   5.053   8.379 -0.6718  0.0211  1.1742
  155MOL0     C20367   2.909   5.060   8.220  0.1789 -0.6608 -1.1670
  155MOL0     C20368   2.767   5.016   8.199 -0.5165 -0.4487  0.3698
  155MOL0     C20369   2.726   5.083   8.063  0.3110  0.5286 -0.3506
  155MOL0     C20370   2.823   5.087   7.940  0.2991  0.8160  0.5155
  155MOL0     C20371   2.871   4.949   7.904 -0.1344  0.6805  0.0742
  155MOL0    Cl20372   2.972   4.948   7.753 -0.2132  0.2492  0.2746
  155MOL0     C20373   2.872   5.241   8.831 -0.0738 -0.3378 -0.0170
  155MOL0     C20374   2.840   5.219   8.963 -0.5662 -0.3880  0.2423
  155MOL0     O20375   2.889   4.917   9.218  0.8564 -0.4265 -0.2098
  155MOL0     C20376   2.808   5.156   9.464  0.2962 -1.0179  0.6891
  155MOL0     C20377   2.748   5.165   9.600  0.2268 -0.1261 -0.3956
  155MOL0     N20378   1.948   4.844  10.001  1.4729  0.1321 -0.0382
  155MOL0     N20379   1.894   4.733  10.052 -0.6542 -0.4026 -0.4541
  155MOL0     C20380   2.991   4.415  10.104 -1.0334 -0.0950  0.6958
  155MOL0     C20381   3.097   4.418  10.021  0.0350  0.0473  0.4834
  155MOL0     C20382   3.441   4.431   9.800 -0.1722 -0.2503 -0.5053
  155MOL0     C20383   3.461   4.367   9.680  0.5787  0.3339 -0.7751
  155MOL0     C20384   3.543   4.426   9.583 -0.3614  0.6410  0.0670
  155MOL0     C20385   3.595   4.554   9.607 -0.4578  0.2313  0.5093
  155MOL0     O20386   3.677   4.615   9.522 -0.6090 -0.6162  1.6405
  155MOL0     C20387   3.823   4.589   9.523  0.1269  0.0623 -0.1760
  155MOL0     C20388   3.903   4.582   9.387 -0.2953 -0.1796  0.1377
  155MOL0     C20389   3.839   4.468   9.300 -0.7363  0.5143  0.3659
  155MOL0     C20390   3.918   4.441   9.161 -0.5266 -0.0567 -0.8083
  155MOL0     C20391   3.884   4.313   9.102  0.5020 -0.1883  0.7655
  155MOL0     C20392   3.856   4.198   9.073 -0.5305 -0.4489  1.2415
  155MOL0     C20393   3.568   4.617   9.723 -0.4134  0.2574  0.1022
  155MOL0     C20394   3.503   4.553   9.820  0.0841  0.7528  0.4047
  155MOL0     H20395   3.100   4.097   9.909  1.0244  0.5547 -1.6717
  155MOL0     H20396   2.900   4.088  10.051  2.2460 -2.1417 -1.7070
  155MOL0     H20397   2.751   4.116  10.232 -0.3838  0.9048  0.0713
  155MOL0     H20398   2.677   4.197  10.091  1.8412 -0.1987 -0.8119
  155MOL0     H20399   2.601   4.345  10.318  2.6900  0.6028 -3.0144
  155MOL0     H20400   2.612   4.176  10.380 -2.7722  0.3880  1.7696
  155MOL0     H20401   2.384   4.164  10.300 -0.6133 -0.4600 -1.3096
  155MOL0     H20402   2.460   4.121  10.153 -0.0304  1.9484 -3.0593
  155MOL0     H20403   2.426   4.420  10.181  0.6470 -0.8971  3.6376
  155MOL0     H20404   2.386   4.297  10.046 -0.0201  0.0819  0.0033
  155MOL0     H20405   2.213   4.360  10.294  1.0367 -2.2649  0.5402
  155MOL0     H20406   2.180   4.231  10.178 -1.5485  0.5535  3.6293
  155MOL0     H20407   2.156   4.393   9.996 -1.4886  1.2197  0.1754
  155MOL0     H20408   2.195   4.532  10.109 -0.4913  0.1749  1.0130
  155MOL0     H20409   1.980   4.322  10.162  1.6954 -0.5613  1.0751
  155MOL0     H20410   1.995   4.476  10.235  3.4350 -4.3473  1.5762
  155MOL0     H20411   1.812   4.504  10.063  1.1024 -1.1617  2.3026
  155MOL0     H20412   1.917   4.441   9.939  1.2439 -2.3705  0.5111
  155MOL0     H20413   2.127   4.624   9.843 -0.0019 -0.3331  0.2625
  155MOL0     H20414   2.113   5.014   9.884 -2.4608  0.3215 -0.2965
  155MOL0     H20415   2.106   4.909   9.733  0.2730  2.6869  0.1000
  155MOL0     H20416   2.321   4.798   9.847 -2.3158 -0.8733  1.6347
  155MOL0     H20417   2.294   4.927   9.975  3.7301  1.7562 -0.2054
  155MOL0     H20418   2.369   5.006   9.676  0.3091  4.0806 -0.5140
  155MOL0     H20419   2.342   5.108   9.822 -0.5756  0.1991 -1.1785
  155MOL0     H20420   2.544   4.878   9.802 -2.2150 -0.2756 -1.3508
  155MOL0     H20421   2.519   4.979   9.938 -1.1921  0.5272  1.0212
  155MOL0     H20422   2.595   4.869   9.598 -3.8312  2.2991  1.6128
  155MOL0     H20423   2.687   4.870   9.353  2.6245  0.9556 -1.3575
  155MOL0     H20424   3.099   5.049   9.076 -0.1654 -0.8658 -1.3617
  155MOL0     H20425   3.173   5.083   8.845  1.4103  2.3435  1.5639
  155MOL0     H20426   3.013   4.985   8.614 -2.0983  0.1073 -0.0116
  155MOL0     H20427   3.164   5.078   8.621 -0.5011  1.8859 -0.7173
  155MOL0     H20428   3.142   5.049   8.376  1.3735  2.3794 -0.1695
  155MOL0     H20429   3.081   5.211   8.408 -0.0807 -0.4460 -1.9805
  155MOL0     H20430   2.847   5.107   8.424 -0.1174 -0.8557  3.4304
  155MOL0     H20431   2.926   4.946   8.401  1.1178 -0.0280  1.4002
  155MOL0     H20432   2.919   5.165   8.190 -2.1781 -0.1178 -0.3091
  155MOL0     H20433   2.980   5.000   8.163 -1.1286 -1.7345 -1.7002
  155MOL0     H20434   2.696   5.039   8.279 -1.6081 -1.9285 -0.1362
  155MOL0     H20435   2.758   4.907   8.196  0.4624 -0.5268  0.0470
  155MOL0     H20436   2.714   5.189   8.087  1.1297  1.0650 -2.1145
  155MOL0     H20437   2.630   5.041   8.033  1.4358 -0.3599 -2.9984
  155MOL0     H20438   2.779   5.137   7.853  3.6046  1.6601 -0.8307
  155MOL0     H20439   2.907   5.154   7.958 -0.1416  1.4909  0.1060
  155MOL0     H20440   2.790   4.876   7.889  0.3620  0.2517 -0.5636
  155MOL0     H20441   2.940   4.929   7.987  0.3298  0.3300 -0.3900
  155MOL0     H20442   2.795   5.291   8.773 -0.3473  2.7012  2.6648
  155MOL0     H20443   2.745   5.240   9.011  0.1617 -2.1771  2.7124
  155MOL0     H20444   2.874   5.237   9.434  1.5176 -2.3099 -0.2840
  155MOL0     H20445   2.770   5.248   9.666  2.2404 -2.0360  1.5213
  155MOL0     H20446   2.961   4.508  10.151 -1.2140 -0.8318  2.0867
  155MOL0     H20447   3.151   4.510  10.004 -1.6372  1.0813  0.6419
  155MOL0     H20448   3.403   4.277   9.662  0.0207  0.8116 -1.4015
  155MOL0     H20449   3.549   4.374   9.488  0.7504 -1.3782  1.1657
  155MOL0     H20450   3.852   4.506   9.588 -1.4729  1.6234  2.7655
  155MOL0     H20451   3.853   4.682   9.572  0.1138  1.4066 -2.5637
  155MOL0     H20452   3.908   4.685   9.350  1.5231 -0.3927 -0.2919
  155MOL0     H20453   4.006   4.557   9.414 -0.1494  0.1041 -0.1430
  155MOL0     H20454   3.740   4.488   9.259 -0.1955 -0.2318 -1.3712
  155MOL0     H20455   3.839   4.372   9.353  1.6851  0.7993  1.0026
  155MOL0     H20456   3.889   4.521   9.092 -0.2440  0.7527 -0.0115
  155MOL0     H20457   4.023   4.465   9.179 -1.4620  2.0683  2.8079
  155MOL0     H20458   3.859   4.093   9.049 -2.2545 -0.1000 -0.8177
  155MOL0     H20459   3.613   4.713   9.745 -2.0105  0.6970  1.7600
  155MOL0     H20460   3.489   4.607   9.913 -6.0302  2.9143 -1.2563
  156MOL0     O20461   9.751   2.985   9.755 -0.5326  0.0874  0.4656
  156MOL0     C20462   9.657   3.063   9.774 -0.2947 -1.4858  0.7331
  156MOL0     O20463   9.545   3.031   9.844  0.5531 -0.5192  0.0335
  156MOL0     C20464   9.535   2.901   9.893 -0.2418 -0.4433  1.3656
  156MOL0     C20465   9.616   2.864   9.999  0.2884 -0.8991 -0.0492
  156MOL0     C20466   9.585   2.744  10.065 -1.0620 -0.1679  0.3971
  156MOL0     C20467   9.460   2.682  10.036 -0.1883 -0.2139 -0.1720
  156MOL0     O20468   9.429   2.571  10.108  0.7742 -0.3900  0.6388
  156MOL0     C20469   9.412   2.437  10.044  0.3585 -0.7427  1.0555
  156MOL0     C20470   9.362   2.325  10.134 -0.1916  0.5571 -0.6215
  156MOL0     C20471   9.236   2.358  10.217 -0.1138 -1.3845 -0.2879
  156MOL0     C20472   9.119   2.260  10.187  0.0754 -0.1499 -0.7962
  156MOL0     C20473   9.012   2.262  10.301 -0.4943 -0.5104  0.0160
  156MOL0     C20474   8.910   2.150  10.288 -0.6986 -0.3223 -0.5733
  156MOL0     C20475   8.827   2.138  10.407 -0.0578  0.7886  0.2931
  156MOL0     C20476   8.733   2.247  10.439 -0.0678 -0.3853 -1.3158
  156MOL0     N20477   8.626   2.195  10.525  0.4147 -0.2823 -0.4225
  156MOL0     C20478   8.505   2.139  10.486  0.1564 -0.2155  0.2136
  156MOL0     C20479   8.449   2.108  10.605  0.4319  0.7049 -0.6512
  156MOL0     C20480   8.319   2.045  10.614  0.5473  0.8349 -0.7641
  156MOL0     C20481   8.207   2.123  10.543 -0.2597  0.2411  1.0932
  156MOL0     C20482   8.074   2.078  10.592  0.0942  0.1845  0.1714
  156MOL0     C20483   7.963   2.130  10.497  1.0889 -0.0337 -0.1295
  156MOL0     O20484   7.837   2.062  10.504  0.5045  0.1469  1.1154
  156MOL0     C20485   7.732   2.111  10.426  0.1691  0.5007  0.3471
  156MOL0     C20486   7.744   2.220  10.338 -0.1974  0.7077  0.5447
  156MOL0     C20487   7.641   2.265  10.254 -0.4573  0.6712 -0.1143
  156MOL0     C20488   7.516   2.199  10.255 -0.2309 -0.3115  0.3924
  156MOL0     C20489   7.412   2.234  10.163 -0.1621  0.9234 -1.2461
  156MOL0     O20490   7.297   2.166  10.197  0.7607 -0.3244 -0.5080
  156MOL0     C20491   7.189   2.178  10.112 -0.5925 -0.2382 -0.0884
  156MOL0     C20492   7.073   2.227  10.166  0.6831 -0.0658  1.3005
  156MOL0     C20493   6.949   2.220  10.102 -0.2338 -0.4374 -0.4290
  156MOL0     C20494   6.941   2.178   9.970 -1.1011 -0.1732 -0.1782
  156MOL0     O20495   6.833   2.185   9.892  0.4505 -0.0407 -0.5962
  156MOL0     C20496   6.703   2.154   9.940 -0.6989 -0.1384  0.0050
  156MOL0     C20497   6.611   2.067   9.855 -0.5640 -0.4442 -0.4181
  156MOL0     C20498   6.609   2.103   9.700 -0.0560  0.1598  0.1262
  156MOL0     C20499   6.493   2.017   9.635  0.0357  0.2954 -0.1167
  156MOL0     C20500   6.507   2.022   9.477  0.2268 -1.0290  0.1020
  156MOL0     C20501   6.405   1.940   9.398 -0.1821  0.3441  1.7553
  156MOL0     C20502   6.415   1.989   9.248 -0.3431 -0.6882 -0.0191
  156MOL0     C20503   6.426   2.144   9.213  0.3925 -0.3758  0.7093
  156MOL0    Cl20504   6.288   2.244   9.289 -0.4975 -0.3283  0.1550
  156MOL0     C20505   7.057   2.131   9.918 -0.6433 -0.7843  0.8094
  156MOL0     C20506   7.179   2.122   9.985 -0.3901 -0.1337 -0.2879
  156MOL0     O20507   7.423   2.314  10.072 -0.5149  0.1141  0.3669
  156MOL0     C20508   7.511   2.090  10.350  1.0057 -0.1743  0.6052
  156MOL0     C20509   7.610   2.044  10.427 -0.6277  0.0383  0.7741
  156MOL0     N20510   8.532   2.135  10.711  0.3062 -0.4395 -0.0067
  156MOL0     N20511   8.651   2.160  10.662  0.2384 -0.4142  0.6915
  156MOL0     C20512   9.380   2.725   9.937  0.0295  0.9998 -0.2276
  156MOL0     C20513   9.411   2.829   9.860  0.0455 -0.5590 -0.4422
  156MOL0     C20514   9.667   3.213   9.732  0.9130  1.1447 -0.5059
  156MOL0     C20515   9.795   3.260   9.691 -1.0014  0.5805  0.2220
  156MOL0     C20516   9.814   3.391   9.664 -0.0664 -0.1590  0.1104
  156MOL0     C20517   9.707   3.486   9.685 -0.0082  0.7259 -0.1636
  156MOL0     O20518   9.727   3.617   9.650  0.8039 -0.6284  0.6702
  156MOL0     C20519   9.742   3.711   9.763  0.5580  1.0825 -0.0457
  156MOL0     C20520   9.887   3.741   9.773  0.0448 -0.5751 -0.5584
  156MOL0     C20521   9.943   3.789   9.636  1.1887 -0.5502  0.4555
  156MOL0     C20522  10.086   3.846   9.658  0.5002 -0.6398  0.1879
  156MOL0     C20523  10.078   3.972   9.734  0.4643  0.0830 -0.0028
  156MOL0     C20524  10.069   4.065   9.811 -0.2007 -0.0263 -0.7519
  156MOL0     C20525   9.573   3.443   9.709  0.1457 -0.5097 -0.3608
  156MOL0     C20526   9.561   3.303   9.741 -0.6036 -0.5090  0.6496
  156MOL0     H20527   9.708   2.915  10.024 -0.5057  1.2285 -1.2216
  156MOL0     H20528   9.647   2.716  10.149  1.4497  1.2283 -0.8736
  156MOL0     H20529   9.507   2.405  10.001 -1.4516 -4.2069 -0.8144
  156MOL0     H20530   9.340   2.461   9.965  0.8289  0.9539  1.1053
  156MOL0     H20531   9.447   2.309  10.201 -0.9100 -2.5093 -0.2790
  156MOL0     H20532   9.350   2.230  10.082  2.1696 -0.0602 -0.1669
  156MOL0     H20533   9.208   2.456  10.178 -0.5032 -0.4783  2.0781
  156MOL0     H20534   9.266   2.368  10.322  2.0292  2.8124 -1.0878
  156MOL0     H20535   9.073   2.280  10.090 -0.8889  0.9133 -0.1437
  156MOL0     H20536   9.163   2.159  10.186  1.1516  0.2951 -2.2016
  156MOL0     H20537   8.967   2.361  10.312  0.7204  0.2438 -1.5183
  156MOL0     H20538   9.063   2.239  10.395  0.1102  0.7246  0.0097
  156MOL0     H20539   8.963   2.054  10.279  2.2159  0.8278  2.3842
  156MOL0     H20540   8.865   2.158  10.188 -3.1859 -1.2558  0.3824
  156MOL0     H20541   8.786   2.036  10.404  0.6701  0.5040 -1.5527
  156MOL0     H20542   8.891   2.124  10.494  0.4137  1.1963  0.0142
  156MOL0     H20543   8.694   2.295  10.349  1.9464  4.6658  0.1747
  156MOL0     H20544   8.802   2.320  10.481  2.8827 -1.4686 -3.9056
  156MOL0     H20545   8.460   2.134  10.388  0.7574  1.7594 -0.2074
  156MOL0     H20546   8.281   2.040  10.717 -0.1184 -3.8844 -1.0346
  156MOL0     H20547   8.333   1.940  10.589  2.8519  0.4016  1.8505
  156MOL0     H20548   8.222   2.093  10.439 -0.9000  0.0352  1.0564
  156MOL0     H20549   8.212   2.232  10.554 -1.4400  0.7325 -2.1056
  156MOL0     H20550   8.070   1.969  10.599  3.0028 -0.0422 -0.2647
  156MOL0     H20551   8.063   2.118  10.693 -2.6393  0.2118 -0.0632
  156MOL0     H20552   7.986   2.120  10.391  0.9299 -0.0792 -0.1596
  156MOL0     H20553   7.948   2.237  10.517  3.9889  0.4005  0.1077
  156MOL0     H20554   7.843   2.264  10.324 -0.5427  1.2951 -0.1485
  156MOL0     H20555   7.658   2.339  10.177  2.4804  2.3448  1.9553
  156MOL0     H20556   7.079   2.273  10.264 -0.4447 -1.0628  1.8766
  156MOL0     H20557   6.864   2.262  10.155  0.1514  0.2388 -0.3337
  156MOL0     H20558   6.647   2.247   9.955 -0.4885 -0.2544  1.7049
  156MOL0     H20559   6.722   2.094  10.029  2.4435 -1.0406 -1.1546
  156MOL0     H20560   6.515   2.071   9.907 -0.3331 -3.5355  0.4497
  156MOL0     H20561   6.645   1.964   9.867  1.4431  0.1673 -0.5736
  156MOL0     H20562   6.709   2.087   9.658 -0.9638 -1.7160 -1.4678
  156MOL0     H20563   6.583   2.208   9.684  2.9079  1.2342  1.5778
  156MOL0     H20564   6.512   1.913   9.664  0.2301  0.1425 -0.7746
  156MOL0     H20565   6.394   2.056   9.662 -1.0222 -0.7830 -2.1986
  156MOL0     H20566   6.600   1.968   9.454  3.1452  1.9448  3.6936
  156MOL0     H20567   6.507   2.124   9.436  1.1551 -1.2850 -0.5749
  156MOL0     H20568   6.304   1.968   9.430 -0.8489  0.4074 -0.2445
  156MOL0     H20569   6.416   1.831   9.393  0.8092  0.4832 -0.4714
  156MOL0     H20570   6.504   1.933   9.218  0.5230  0.1832  0.8556
  156MOL0     H20571   6.325   1.954   9.198  0.2447 -1.9802 -0.2089
  156MOL0     H20572   6.425   2.155   9.104  1.2077 -1.5975  0.5528
  156MOL0     H20573   6.526   2.169   9.250  1.3128 -0.9384 -1.2273
  156MOL0     H20574   7.047   2.083   9.821  0.0816 -1.6154  1.1356
  156MOL0     H20575   7.263   2.064   9.949 -0.3964 -1.2350  1.3755
  156MOL0     H20576   7.424   2.027  10.367  0.7369  0.3118  1.0664
  156MOL0     H20577   7.612   1.954  10.488  0.7931 -1.1032 -0.8618
  156MOL0     H20578   9.283   2.677   9.920  0.9565 -0.8089 -0.6465
  156MOL0     H20579   9.358   2.860   9.771  2.4803 -1.3469 -2.2919
  156MOL0     H20580   9.877   3.191   9.673 -1.6448  0.5722 -3.3885
  156MOL0     H20581   9.910   3.424   9.625  0.4918 -0.2334  1.3669
  156MOL0     H20582   9.712   3.664   9.857  0.1200 -1.3318 -1.3231
  156MOL0     H20583   9.679   3.797   9.737  1.1543  1.6319  0.2867
  156MOL0     H20584   9.897   3.819   9.849  0.5562  0.7812 -1.9635
  156MOL0     H20585   9.936   3.654   9.815  0.4706 -1.0126 -1.9110
  156MOL0     H20586   9.880   3.871   9.598  0.3227 -0.5696  1.7880
  156MOL0     H20587   9.944   3.715   9.555 -3.3503  0.0415 -0.4523
  156MOL0     H20588  10.145   3.769   9.709 -0.2282 -4.1979 -3.6736
  156MOL0     H20589  10.131   3.868   9.561  2.2275 -0.3290  1.0398
  156MOL0     H20590  10.073   4.142   9.886  3.8989 -1.0811  0.3540
  156MOL0     H20591   9.493   3.516   9.710 -0.8383 -1.2412 -4.8780
  156MOL0     H20592   9.460   3.275   9.769 -1.7395 -0.2298 -2.8080
  157MOL0     O20593   1.089   5.539   9.328  0.1013  0.3396 -1.1551
  157MOL0     C20594   1.034   5.447   9.392  0.0269  0.1078  0.1708
  157MOL0     O20595   1.004   5.329   9.346 -0.6304  0.0660  0.1017
  157MOL0     C20596   1.078   5.284   9.231 -0.5838 -0.5274 -0.0425
  157MOL0     C20597   0.995   5.243   9.122  0.1785  0.5016  0.3038
  157MOL0     C20598   1.048   5.183   9.004  0.0510  0.5046 -0.4943
  157MOL0     C20599   1.186   5.186   8.982  0.5257 -0.6694 -0.2909
  157MOL0     O20600   1.238   5.127   8.869 -0.0667 -0.4516  0.0803
  157MOL0     C20601   1.232   5.216   8.759 -0.2368  0.2179  0.9107
  157MOL0     C20602   1.157   5.144   8.655  0.0057 -0.0034 -0.2536
  157MOL0     C20603   1.076   5.243   8.572 -0.3249  0.3182 -0.3432
  157MOL0     C20604   1.021   5.188   8.426  1.2023  0.6286  0.1275
  157MOL0     C20605   0.958   5.304   8.354 -0.2456 -0.3697  0.3240
  157MOL0     C20606   1.071   5.390   8.286  0.5276  0.2143 -0.1001
  157MOL0     C20607   1.008   5.500   8.211  0.1092 -0.3925  0.3266
  157MOL0     C20608   1.111   5.593   8.144  0.2926 -0.1108 -0.2816
  157MOL0     N20609   1.047   5.700   8.072  0.4390  0.6968 -0.6599
  157MOL0     C20610   0.963   5.690   7.962  0.6001 -1.7943  0.0856
  157MOL0     C20611   0.936   5.820   7.928  0.8381  0.0218 -0.0833
  157MOL0     C20612   0.843   5.848   7.817 -0.0906 -0.0799 -0.3764
  157MOL0     C20613   0.708   5.847   7.880  0.0829 -0.2024  0.0756
  157MOL0     C20614   0.590   5.917   7.806 -0.6516 -0.5214 -0.8949
  157MOL0     C20615   0.574   5.841   7.678 -0.2463 -0.3195 -0.2518
  157MOL0     O20616   0.654   5.875   7.567 -0.1695  0.7242  0.2728
  157MOL0     C20617   0.645   5.997   7.503  0.3505 -0.2770 -0.8575
  157MOL0     C20618   0.757   6.036   7.431  0.2369  0.1467 -0.4604
  157MOL0     C20619   0.760   6.162   7.367  0.7556 -0.2656  0.6373
  157MOL0     C20620   0.646   6.253   7.381  1.0814  0.0658 -0.4006
  157MOL0     C20621   0.644   6.387   7.328  0.1042  0.2885  0.5415
  157MOL0     O20622   0.524   6.442   7.288 -0.6979 -0.5085 -0.1253
  157MOL0     C20623   0.530   6.572   7.219 -0.0008  0.7153  0.0997
  157MOL0     C20624   0.466   6.586   7.084 -0.8343 -0.0181  0.4997
  157MOL0     C20625   0.496   6.714   7.022  0.3041  0.3762  0.4360
  157MOL0     C20626   0.572   6.819   7.085  0.4096 -0.6946 -0.4611
  157MOL0     O20627   0.605   6.936   7.033 -0.0237  0.2431  0.2683
  157MOL0     C20628   0.575   6.960   6.894  0.4050  0.9216  0.4685
  157MOL0     C20629   0.608   7.099   6.863  0.5205 -0.5386  0.5466
  157MOL0     C20630   0.593   7.126   6.707  0.7800  0.8993 -0.1674
  157MOL0     C20631   0.444   7.117   6.670 -1.4135 -0.0564  0.3856
  157MOL0     C20632   0.428   7.172   6.530 -0.0261 -0.3300 -0.4263
  157MOL0     C20633   0.440   7.327   6.522  0.3327 -0.2460  0.0170
  157MOL0     C20634   0.396   7.363   6.376 -0.2884  0.2810 -1.0470
  157MOL0     C20635   0.312   7.489   6.366  0.1530  1.1101 -0.0622
  157MOL0    Cl20636   0.165   7.429   6.442  0.0450 -0.4283  0.3012
  157MOL0     C20637   0.623   6.794   7.211 -0.3675  0.7943  0.0414
  157MOL0     C20638   0.605   6.675   7.275  0.1234 -1.2478 -0.3649
  157MOL0     O20639   0.750   6.447   7.316  0.4516 -0.2193  0.4326
  157MOL0     C20640   0.536   6.201   7.449  0.4771 -0.5330 -0.3061
  157MOL0     C20641   0.538   6.081   7.521  0.2652 -0.7424  0.1334
  157MOL0     N20642   0.995   5.907   8.021 -0.0218 -0.2580 -0.5148
  157MOL0     N20643   1.054   5.829   8.101  0.7140  0.6346  0.3962
  157MOL0     C20644   1.267   5.240   9.087  0.3710  0.5365  0.6837
  157MOL0     C20645   1.218   5.293   9.208 -0.4325  1.7860  0.4624
  157MOL0     C20646   0.994   5.478   9.536 -0.2323  0.9460  0.0733
  157MOL0     C20647   1.028   5.587   9.617 -0.0263  0.3478 -0.0739
  157MOL0     C20648   0.996   5.588   9.755  0.3911 -0.3644  0.3823
  157MOL0     C20649   0.915   5.483   9.809 -0.0661  0.3169  0.7932
  157MOL0     O20650   0.907   5.489   9.943  0.1665 -0.4269 -0.5349
  157MOL0     C20651   0.829   5.388  10.018 -0.0864 -0.4210 -0.5338
  157MOL0     C20652   0.842   5.436  10.161 -0.5243  0.5806  0.0355
  157MOL0     C20653   0.762   5.336  10.255  0.5567 -0.4146  0.7646
  157MOL0     C20654   0.785   5.366  10.403 -0.3519  0.1722 -0.1446
  157MOL0     C20655   0.713   5.263  10.477 -0.2572  0.4534  0.4171
  157MOL0     C20656   0.660   5.175  10.547  0.8230 -0.7508  0.1840
  157MOL0     C20657   0.856   5.384   9.731  0.7183  0.3047 -1.0964
  157MOL0     C20658   0.906   5.374   9.599 -1.2292 -0.0348 -0.7089
  157MOL0     H20659   0.888   5.243   9.139 -0.4175 -3.9939 -1.9140
  157MOL0     H20660   0.996   5.143   8.918 -0.7150  0.3879  0.0066
  157MOL0     H20661   1.326   5.265   8.730 -2.7401  4.1060 -1.6058
  157MOL0     H20662   1.180   5.308   8.786  0.5335  1.0858 -0.4372
  157MOL0     H20663   1.080   5.079   8.699 -3.4582  0.6395 -4.6913
  157MOL0     H20664   1.222   5.073   8.603 -1.1276 -0.5585 -0.9580
  157MOL0     H20665   1.142   5.328   8.551 -0.1478  0.2691  0.0110
  157MOL0     H20666   0.993   5.280   8.631 -0.3406 -2.2895  1.4420
  157MOL0     H20667   1.101   5.143   8.367 -0.7943 -2.7991 -0.2052
  157MOL0     H20668   0.949   5.106   8.435  2.9828 -1.5270 -3.2049
  157MOL0     H20669   0.899   5.370   8.419 -0.5236  1.4793 -1.7178
  157MOL0     H20670   0.892   5.247   8.288 -3.3722  2.2216  0.9685
  157MOL0     H20671   1.128   5.336   8.211  1.7081  1.7018 -0.3210
  157MOL0     H20672   1.133   5.433   8.365 -1.7008 -2.0894  3.1995
  157MOL0     H20673   0.940   5.453   8.139  0.6298 -4.2143  2.0363
  157MOL0     H20674   0.952   5.565   8.279  1.4358  2.1076 -0.8462
  157MOL0     H20675   1.172   5.532   8.077 -1.5249 -1.9318 -0.3673
  157MOL0     H20676   1.175   5.631   8.225 -1.2647  2.3458 -0.0895
  157MOL0     H20677   0.927   5.597   7.919 -2.2164 -1.7575  2.0469
  157MOL0     H20678   0.843   5.778   7.733  0.8834  0.3335 -0.7228
  157MOL0     H20679   0.863   5.949   7.781  0.6329 -0.2344 -0.4281
  157MOL0     H20680   0.704   5.908   7.972 -1.5327  2.0882 -1.3996
  157MOL0     H20681   0.674   5.745   7.900  0.4943 -0.0918  1.4921
  157MOL0     H20682   0.496   5.909   7.861 -0.1813  0.3566  0.0602
  157MOL0     H20683   0.615   6.022   7.786 -1.8095 -0.6467 -3.5135
  157MOL0     H20684   0.468   5.860   7.657 -0.3839 -0.9814 -0.1902
  157MOL0     H20685   0.583   5.733   7.693 -2.9614 -0.6669 -0.5537
  157MOL0     H20686   0.845   5.974   7.440 -0.0408 -0.3179 -0.8194
  157MOL0     H20687   0.836   6.185   7.292 -1.7983  3.3245 -1.1295
  157MOL0     H20688   0.416   6.509   7.025 -1.2254  1.1518 -0.7707
  157MOL0     H20689   0.451   6.723   6.924 -1.4945  3.0151  1.4121
  157MOL0     H20690   0.471   6.936   6.869  1.6980 -1.9484 -3.1807
  157MOL0     H20691   0.629   6.884   6.836  0.7799  2.0274 -0.6730
  157MOL0     H20692   0.704   7.133   6.902  1.2416 -1.9994  0.1356
  157MOL0     H20693   0.529   7.150   6.919  0.4038  1.5747 -1.4215
  157MOL0     H20694   0.645   7.051   6.647 -0.9928  0.2560 -0.9605
  157MOL0     H20695   0.643   7.221   6.686  1.2033  0.2261 -2.3703
  157MOL0     H20696   0.409   7.013   6.678 -0.8686 -0.2996 -0.2816
  157MOL0     H20697   0.370   7.162   6.737 -4.0786 -0.9636 -1.7216
  157MOL0     H20698   0.326   7.144   6.501  0.0811  0.3436 -1.4997
  157MOL0     H20699   0.497   7.127   6.458 -1.2867  0.0935 -1.9624
  157MOL0     H20700   0.543   7.361   6.538 -0.1796  2.1668 -1.2885
  157MOL0     H20701   0.375   7.365   6.602 -1.9142 -1.3236 -1.1953
  157MOL0     H20702   0.490   7.371   6.321 -0.1986  3.5294 -0.6118
  157MOL0     H20703   0.334   7.290   6.323 -5.2462  0.7253  3.2714
  157MOL0     H20704   0.297   7.521   6.262  1.4267 -1.3197 -1.0948
  157MOL0     H20705   0.360   7.567   6.425  2.9154 -0.6125  0.1358
  157MOL0     H20706   0.689   6.872   7.245 -0.7249  0.9552  0.3661
  157MOL0     H20707   0.649   6.654   7.372 -1.3639  0.3253  0.7170
  157MOL0     H20708   0.459   6.275   7.468 -1.8451 -2.7285 -0.6261
  157MOL0     H20709   0.454   6.061   7.586  1.0814  5.0000  3.6554
  157MOL0     H20710   1.372   5.212   9.088  0.0968 -0.5452  0.3231
  157MOL0     H20711   1.291   5.321   9.283 -0.8652 -0.9811  2.0831
  157MOL0     H20712   1.077   5.676   9.579  0.2990  0.3476  0.3346
  157MOL0     H20713   1.027   5.659   9.831 -0.2991 -2.8736  3.1980
  157MOL0     H20714   0.873   5.289  10.002  1.4243  0.3563 -1.3988
  157MOL0     H20715   0.727   5.377   9.981 -0.5182 -1.6241  0.8939
  157MOL0     H20716   0.946   5.435  10.196  0.4536  1.3775 -2.5829
  157MOL0     H20717   0.811   5.541  10.170 -0.8864  0.6572 -1.7669
  157MOL0     H20718   0.800   5.235  10.239  0.1630 -0.4560  0.0955
  157MOL0     H20719   0.656   5.330  10.229  0.8496  0.7606 -0.7829
  157MOL0     H20720   0.892   5.372  10.426  0.0073  1.7653 -1.9608
  157MOL0     H20721   0.742   5.465  10.424 -1.4819 -0.4821  0.7796
  157MOL0     H20722   0.609   5.097  10.600  0.2934 -0.3534  0.2596
  157MOL0     H20723   0.810   5.298   9.779 -0.3356  0.8046 -1.1888
  157MOL0     H20724   0.872   5.291   9.539  0.8371 -0.1486 -1.7993
  158MOL0     O20725   9.210   4.043  11.274  0.4739  0.5039 -0.7617
  158MOL0     C20726   9.303   4.112  11.239 -0.0435  0.4218 -0.5544
  158MOL0     O20727   9.294   4.212  11.150 -0.8868 -0.4353 -0.3377
  158MOL0     C20728   9.185   4.260  11.083  0.4340  0.3434  0.6970
  158MOL0     C20729   9.051   4.222  11.107 -0.4851 -1.5404 -1.1888
  158MOL0     C20730   8.953   4.274  11.013 -0.3876  0.5033 -0.3358
  158MOL0     C20731   8.983   4.368  10.918 -0.6875 -0.2774 -0.5648
  158MOL0     O20732   8.881   4.404  10.833  0.0969  0.3671 -0.3766
  158MOL0     C20733   8.862   4.538  10.808  0.3487 -0.8720  0.1837
  158MOL0     C20734   8.719   4.567  10.764 -1.4970 -0.9395  0.4116
  158MOL0     C20735   8.695   4.537  10.614 -0.5238  0.1416 -0.1784
  158MOL0     C20736   8.552   4.542  10.573 -0.1813 -0.3039 -1.2757
  158MOL0     C20737   8.539   4.553  10.417  0.3487 -0.4934  0.6573
  158MOL0     C20738   8.398   4.512  10.364 -0.2966 -0.0228  1.0406
  158MOL0     C20739   8.302   4.635  10.374  0.8962  0.2373 -1.1570
  158MOL0     C20740   8.161   4.614  10.306 -0.2250  0.9933  0.3144
  158MOL0     N20741   8.082   4.493  10.355 -0.2250  0.5898  1.2362
  158MOL0     C20742   7.970   4.447  10.301  0.3188  0.1629  0.1337
  158MOL0     C20743   7.945   4.334  10.367 -0.3561 -0.5895 -0.0019
  158MOL0     C20744   7.832   4.247  10.344  0.4643  0.5178  0.1556
  158MOL0     C20745   7.862   4.106  10.299  0.3085  0.9517 -0.3157
  158MOL0     C20746   7.724   4.030  10.279 -0.4383  0.1571 -0.0274
  158MOL0     C20747   7.733   3.911  10.183 -0.0174 -0.0097 -0.9560
  158MOL0     O20748   7.705   3.941  10.047  0.4937 -0.1976  1.4031
  158MOL0     C20749   7.724   3.847   9.963 -0.0052 -0.2302  0.8229
  158MOL0     C20750   7.614   3.771   9.943  0.2317  0.5623  0.8784
  158MOL0     C20751   7.618   3.675   9.832  0.2258  0.4025 -0.1419
  158MOL0     C20752   7.736   3.659   9.752 -0.9168  0.5100 -0.9270
  158MOL0     C20753   7.734   3.576   9.632  0.5189  0.0221  0.0484
  158MOL0     O20754   7.623   3.492   9.618  0.3066 -0.3488  0.2427
  158MOL0     C20755   7.623   3.423   9.504  0.4628  0.5766 -0.1758
  158MOL0     C20756   7.606   3.476   9.380 -0.8399 -0.3772  0.2159
  158MOL0     C20757   7.613   3.396   9.268 -0.6552  1.2931  0.3196
  158MOL0     C20758   7.604   3.253   9.275 -0.5310  0.3639  0.0718
  158MOL0     O20759   7.597   3.171   9.165 -0.8188  0.2137  0.5826
  158MOL0     C20760   7.521   3.200   9.049  0.4779  0.2645 -0.3257
  158MOL0     C20761   7.433   3.078   9.030  0.4222 -0.2784 -1.0693
  158MOL0     C20762   7.389   3.052   8.889  0.4107  0.0504  0.1272
  158MOL0     C20763   7.317   2.909   8.868  0.8341 -0.4862 -0.5041
  158MOL0     C20764   7.253   2.899   8.736 -0.1179 -0.0917  1.7141
  158MOL0     C20765   7.339   2.913   8.608  0.2651 -0.2028 -0.7406
  158MOL0     C20766   7.248   2.915   8.484  0.5409  0.6371  0.9460
  158MOL0     C20767   7.181   3.055   8.461 -0.0536 -0.0556  1.1846
  158MOL0    Cl20768   7.103   3.067   8.293 -0.1368 -0.0219 -0.2721
  158MOL0     C20769   7.617   3.194   9.398  0.8372 -0.9002 -0.1973
  158MOL0     C20770   7.641   3.279   9.514  0.2916  0.3474 -0.5670
  158MOL0     O20771   7.830   3.591   9.552 -0.1824 -0.0223  0.3677
  158MOL0     C20772   7.847   3.740   9.787 -0.3044  0.2635  0.6839
  158MOL0     C20773   7.844   3.833   9.892 -0.8274  0.4536  0.6954
  158MOL0     N20774   8.037   4.314  10.465  0.2908 -0.1042  0.3570
  158MOL0     N20775   8.112   4.417  10.466 -0.0898  0.3105  0.5261
  158MOL0     C20776   9.121   4.402  10.889  0.2293  1.0778 -0.3011
  158MOL0     C20777   9.220   4.338  10.970  0.5978 -0.2593 -0.5491
  158MOL0     C20778   9.426   4.088  11.318 -0.7847 -0.5205 -0.7018
  158MOL0     C20779   9.445   3.976  11.396  0.2053  0.0001 -0.1633
  158MOL0     C20780   9.568   3.945  11.448 -0.0527  0.0985 -0.1567
  158MOL0     C20781   9.679   4.022  11.426  0.4083  0.1647 -0.0358
  158MOL0     O20782   9.804   3.986  11.475  0.0017  0.0810  0.2591
  158MOL0     C20783   9.899   4.085  11.513  0.4100 -0.6867 -0.4694
  158MOL0     C20784   9.955   4.040  11.646 -0.6547  0.0758 -1.2268
  158MOL0     C20785  10.052   4.141  11.716 -0.2843  0.8920 -1.1409
  158MOL0     C20786  10.185   4.146  11.646  0.0377  1.5130  0.1008
  158MOL0     C20787  10.271   4.238  11.718 -0.1659  0.9683 -0.6682
  158MOL0     C20788  10.338   4.317  11.771  0.0055 -0.3723  0.3639
  158MOL0     C20789   9.660   4.145  11.366 -0.8891 -0.4373 -0.7974
  158MOL0     C20790   9.537   4.172  11.308  0.1555 -0.2751  0.1897
  158MOL0     H20791   9.013   4.166  11.192 -0.7119  0.3794  0.0444
  158MOL0     H20792   8.853   4.232  11.021  0.2105 -1.2404 -1.4965
  158MOL0     H20793   8.931   4.574  10.731  0.5641 -1.7748 -0.0657
  158MOL0     H20794   8.868   4.581  10.909  1.1580 -2.5826  0.9179
  158MOL0     H20795   8.710   4.676  10.760  0.9962 -0.6957 -3.0642
  158MOL0     H20796   8.648   4.519  10.832  0.2531 -1.8836  1.6500
  158MOL0     H20797   8.732   4.435  10.600 -0.4136 -0.2171  2.3621
  158MOL0     H20798   8.747   4.603  10.543 -0.8040  0.3658 -0.1775
  158MOL0     H20799   8.507   4.453  10.617 -0.3200 -0.3085 -1.4247
  158MOL0     H20800   8.503   4.622  10.629  0.1806 -2.7585  3.0163
  158MOL0     H20801   8.619   4.484  10.388 -0.2522 -2.4414  3.2848
  158MOL0     H20802   8.564   4.656  10.388 -0.3766 -0.3194  0.6375
  158MOL0     H20803   8.363   4.425  10.420 -1.7656  0.0989  0.3504
  158MOL0     H20804   8.422   4.478  10.262 -0.2828 -3.8483  2.1469
  158MOL0     H20805   8.291   4.657  10.481  2.0060 -2.2411 -0.4728
  158MOL0     H20806   8.336   4.722  10.316 -1.2721  0.9751 -1.4260
  158MOL0     H20807   8.166   4.604  10.197 -0.3592 -1.3224  0.4775
  158MOL0     H20808   8.100   4.703  10.323 -1.7166  0.4990 -1.9011
  158MOL0     H20809   7.905   4.510  10.241  4.6905  3.0374 -2.1049
  158MOL0     H20810   7.776   4.291  10.261  3.1371 -0.9757 -2.6411
  158MOL0     H20811   7.773   4.250  10.436  1.3092 -4.8378  1.1691
  158MOL0     H20812   7.926   4.057  10.373 -1.0905 -2.6940 -1.2956
  158MOL0     H20813   7.924   4.106  10.209 -1.2089  2.4934 -1.4230
  158MOL0     H20814   7.694   4.010  10.383 -1.1763  1.3743  0.0049
  158MOL0     H20815   7.649   4.100  10.240  0.3685  2.0521  1.6447
  158MOL0     H20816   7.653   3.843  10.215  1.7803 -0.7720  2.3829
  158MOL0     H20817   7.825   3.860  10.212 -1.3724 -0.9897  2.0521
  158MOL0     H20818   7.517   3.780   9.990 -1.1180 -3.9326 -0.5232
  158MOL0     H20819   7.533   3.613   9.802 -1.4756  1.6013  1.9362
  158MOL0     H20820   7.614   3.583   9.367  2.6049 -0.5886 -0.3974
  158MOL0     H20821   7.596   3.448   9.174 -0.0838  1.4673  0.3108
  158MOL0     H20822   7.584   3.217   8.962  0.1489 -1.4369 -0.9316
  158MOL0     H20823   7.456   3.288   9.054  1.8864  1.2924  0.9379
  158MOL0     H20824   7.348   3.083   9.099 -0.1042  0.9784 -1.7906
  158MOL0     H20825   7.499   2.991   9.042 -2.5766 -2.9686 -2.5490
  158MOL0     H20826   7.475   3.056   8.822  1.0793 -0.0273  0.9626
  158MOL0     H20827   7.325   3.131   8.850  1.6139 -0.7808 -4.0173
  158MOL0     H20828   7.390   2.831   8.894 -0.2353 -0.9766  1.1748
  158MOL0     H20829   7.227   2.901   8.929 -0.2345  0.3165 -1.9082
  158MOL0     H20830   7.172   2.973   8.733  0.7903  1.0193 -2.3037
  158MOL0     H20831   7.205   2.801   8.735 -1.1871  0.3665  3.5260
  158MOL0     H20832   7.410   2.830   8.605 -0.0862 -0.7590  2.6020
  158MOL0     H20833   7.387   3.011   8.602 -1.2519  0.5129 -1.6923
  158MOL0     H20834   7.300   2.888   8.392 -1.6188  0.1723 -0.2216
  158MOL0     H20835   7.174   2.835   8.496  0.7574 -0.6306 -4.0628
  158MOL0     H20836   7.257   3.133   8.466 -0.6063  0.5418  0.5278
  158MOL0     H20837   7.108   3.075   8.540  1.4974  1.9356  2.2006
  158MOL0     H20838   7.619   3.086   9.402 -1.8011 -1.1573 -2.6360
  158MOL0     H20839   7.682   3.242   9.608 -2.4115 -2.3794 -0.2871
  158MOL0     H20840   7.933   3.730   9.722 -1.3183 -1.6432 -0.4592
  158MOL0     H20841   7.917   3.913   9.896 -1.0879  0.6739  3.8244
  158MOL0     H20842   9.143   4.469  10.807 -2.3388  1.4016 -0.7775
  158MOL0     H20843   9.327   4.347  10.953  0.4743 -0.4026 -1.4273
  158MOL0     H20844   9.369   3.899  11.403  3.0275 -3.0378 -0.7957
  158MOL0     H20845   9.577   3.849  11.497 -2.5474  0.1251  0.4831
  158MOL0     H20846   9.851   4.182  11.530 -1.6816 -2.2143  3.8265
  158MOL0     H20847   9.977   4.108  11.440 -0.7883 -1.5324 -2.0667
  158MOL0     H20848   9.874   4.027  11.718  1.9450 -0.7993  1.7757
  158MOL0     H20849  10.015   3.950  11.632  2.1533  1.6107 -0.0692
  158MOL0     H20850  10.072   4.110  11.819  1.3407  2.1708 -1.0324
  158MOL0     H20851  10.014   4.243  11.722 -0.4678  0.9862 -3.0942
  158MOL0     H20852  10.223   4.047  11.620  0.4244  1.7093 -0.0848
  158MOL0     H20853  10.157   4.200  11.555 -1.5453  1.7148  0.6625
  158MOL0     H20854  10.382   4.405  11.813  0.8436  0.3710 -1.9507
  158MOL0     H20855   9.741   4.214  11.343 -2.6742  0.9959 -3.2803
  158MOL0     H20856   9.518   4.252  11.237 -1.9183 -0.5312  0.3802
  159MOL0     O20857   4.774   0.780   5.381  1.1475  0.5419  0.7240
  159MOL0     C20858   4.751   0.828   5.268 -0.4608  0.0719  0.5759
  159MOL0     O20859   4.666   0.778   5.172 -0.0929  0.6061 -0.2100
  159MOL0     C20860   4.630   0.646   5.192 -1.0272 -0.1661 -0.0733
  159MOL0     C20861   4.492   0.612   5.180  0.5746 -0.0420  0.1532
  159MOL0     C20862   4.458   0.478   5.184 -0.7305 -0.0183 -0.3087
  159MOL0     C20863   4.557   0.383   5.191  0.1262 -0.6382  0.6659
  159MOL0     O20864   4.527   0.244   5.189 -0.2458 -0.6602 -0.2907
  159MOL0     C20865   4.634   0.156   5.176 -0.0735 -0.3637 -0.7298
  159MOL0     C20866   4.581   0.019   5.119 -0.3071 -0.1560 -0.6611
  159MOL0     C20867   4.707  -0.067   5.106  0.0982  0.1666 -0.1045
  159MOL0     C20868   4.654  -0.197   5.039 -0.8995  0.1717 -0.7236
  159MOL0     C20869   4.623  -0.188   4.896  0.5564 -0.0433  0.5407
  159MOL0     C20870   4.738  -0.162   4.810 -0.7544  0.1466 -0.4131
  159MOL0     C20871   4.717  -0.194   4.662  0.6796 -0.3028  0.3692
  159MOL0     C20872   4.633  -0.088   4.588 -0.3914  0.7363 -0.5807
  159MOL0     N20873   4.704   0.040   4.571  0.2670  0.1991  0.2434
  159MOL0     C20874   4.761   0.083   4.453 -0.2363  0.0804 -0.5008
  159MOL0     C20875   4.822   0.199   4.488 -0.5229  0.0081 -0.5873
  159MOL0     C20876   4.888   0.283   4.385  0.1058 -0.6850  0.7454
  159MOL0     C20877   5.039   0.240   4.357  0.5733 -0.6809  0.7378
  159MOL0     C20878   5.030   0.111   4.258  0.2491  0.4876 -1.1984
  159MOL0     C20879   5.173   0.067   4.209 -0.5184  0.9482 -0.2333
  159MOL0     O20880   5.230   0.015   4.322 -0.0761 -0.4751 -0.1415
  159MOL0     C20881   5.362  -0.011   4.330 -0.4553  0.3724  0.5003
  159MOL0     C20882   5.457   0.013   4.237 -0.2736  0.6353  1.7217
  159MOL0     C20883   5.589  -0.042   4.240 -0.1025 -1.0319  1.2235
  159MOL0     C20884   5.634  -0.109   4.358  0.4610 -0.3989  0.7523
  159MOL0     C20885   5.774  -0.142   4.382  0.6319  0.3263  1.4399
  159MOL0     O20886   5.866  -0.134   4.274 -0.4636 -0.4015  0.3729
  159MOL0     C20887   6.000  -0.152   4.282  0.9624 -0.5473  0.2204
  159MOL0     C20888   6.074  -0.122   4.170  0.3390  0.2208  0.6253
  159MOL0     C20889   6.214  -0.131   4.154  0.6671  0.2324 -1.1382
  159MOL0     C20890   6.283  -0.183   4.265  0.1303 -0.8696 -0.3079
  159MOL0     O20891   6.416  -0.213   4.274  0.3408 -0.0685 -0.0079
  159MOL0     C20892   6.510  -0.196   4.167 -0.0093  1.1775  0.3135
  159MOL0     C20893   6.648  -0.236   4.226  0.4857  0.1041 -0.3548
  159MOL0     C20894   6.766  -0.224   4.126  0.1752 -0.1238  0.5089
  159MOL0     C20895   6.894  -0.259   4.195  0.4068 -0.9428 -0.9330
  159MOL0     C20896   7.021  -0.197   4.127 -0.3853  0.8556  0.5185
  159MOL0     C20897   7.151  -0.218   4.204 -0.4042  0.7157 -0.6628
  159MOL0     C20898   7.273  -0.187   4.123  0.1133 -0.0224  0.2059
  159MOL0     C20899   7.395  -0.197   4.207  0.5389 -0.3029 -0.2756
  159MOL0    Cl20900   7.454  -0.370   4.201 -0.1808  0.1790 -0.4218
  159MOL0     C20901   6.207  -0.209   4.379  0.1130  0.5265 -1.2563
  159MOL0     C20902   6.075  -0.190   4.393  2.0565  0.3155  1.6036
  159MOL0     O20903   5.796  -0.201   4.490  0.6554 -0.5672  0.5415
  159MOL0     C20904   5.539  -0.129   4.457  0.6526  0.2463 -0.6707
  159MOL0     C20905   5.410  -0.072   4.451 -0.0326  0.4644  0.3264
  159MOL0     N20906   4.806   0.226   4.617 -0.5423 -0.4829 -0.3882
  159MOL0     N20907   4.722   0.136   4.665 -0.0737 -1.2973  0.8887
  159MOL0     C20908   4.694   0.418   5.202 -0.1678  0.0392  0.2624
  159MOL0     C20909   4.734   0.549   5.198  0.0510 -0.5668 -0.9251
  159MOL0     C20910   4.805   0.962   5.237  0.6872  0.4476 -1.4689
  159MOL0     C20911   4.915   1.011   5.310 -0.2249  0.1951  0.2285
  159MOL0     C20912   4.944   1.147   5.284  0.3889 -0.2948  0.0282
  159MOL0     C20913   4.881   1.222   5.187 -0.3908  0.3559  0.1637
  159MOL0     O20914   4.931   1.352   5.167 -0.5512  0.2935 -0.0141
  159MOL0     C20915   4.883   1.444   5.068 -0.5426 -1.8912 -0.5798
  159MOL0     C20916   4.967   1.566   5.046 -1.2139  0.0814  0.3011
  159MOL0     C20917   5.114   1.544   5.023  0.2699  0.2803 -0.8896
  159MOL0     C20918   5.206   1.666   5.040  0.2123  0.5539 -0.5937
  159MOL0     C20919   5.132   1.784   4.980 -0.8316  0.9142  0.0016
  159MOL0     C20920   5.064   1.873   4.939  0.6875  0.5685  0.8022
  159MOL0     C20921   4.770   1.176   5.127 -0.1526 -0.1299 -0.4094
  159MOL0     C20922   4.736   1.048   5.136 -0.5783  0.4453 -0.1800
  159MOL0     H20923   4.423   0.692   5.156  1.4230  0.0710 -2.0570
  159MOL0     H20924   4.354   0.450   5.169 -1.0530 -0.5847  2.5087
  159MOL0     H20925   4.684   0.135   5.271 -3.2172 -2.9306  0.5629
  159MOL0     H20926   4.700   0.197   5.100  0.3921 -0.0686 -0.1782
  159MOL0     H20927   4.524   0.024   5.026  0.3004 -3.0559 -1.2769
  159MOL0     H20928   4.522  -0.031   5.197 -0.6992 -2.6284 -2.4330
  159MOL0     H20929   4.744  -0.077   5.208 -0.9526 -3.1344  0.0802
  159MOL0     H20930   4.781  -0.019   5.042  1.9979 -0.2442  1.6983
  159MOL0     H20931   4.717  -0.285   5.054 -1.9831 -0.3675  1.0620
  159MOL0     H20932   4.557  -0.221   5.084  0.1354 -2.1860  0.4324
  159MOL0     H20933   4.556  -0.106   4.868 -3.4413 -3.7807 -2.1747
  159MOL0     H20934   4.581  -0.284   4.866 -2.1750  1.2662 -0.1942
  159MOL0     H20935   4.814  -0.233   4.846 -2.5083 -2.4340 -1.4869
  159MOL0     H20936   4.772  -0.059   4.823  0.3429 -0.3621  1.0437
  159MOL0     H20937   4.812  -0.188   4.609  1.2716 -0.9237  1.3399
  159MOL0     H20938   4.671  -0.291   4.640  1.9830 -1.0617  0.8940
  159MOL0     H20939   4.539  -0.077   4.644  0.2967 -0.7772  0.9610
  159MOL0     H20940   4.606  -0.144   4.498 -1.1627 -3.4722  1.9853
  159MOL0     H20941   4.762   0.022   4.363  1.0425 -1.1917  0.3142
  159MOL0     H20942   4.877   0.386   4.420 -3.1701 -0.8535  0.5205
  159MOL0     H20943   4.829   0.252   4.298  0.8520 -1.2131  0.4100
  159MOL0     H20944   5.094   0.226   4.450  1.6248 -0.5121  0.1487
  159MOL0     H20945   5.097   0.312   4.300 -0.7102  1.3256  1.8219
  159MOL0     H20946   4.980   0.028   4.308 -0.4231  1.4344 -0.2389
  159MOL0     H20947   4.975   0.138   4.168  0.0463 -0.5372 -1.3930
  159MOL0     H20948   5.234   0.154   4.184  2.9703  0.1875  4.2010
  159MOL0     H20949   5.157  -0.008   4.131 -1.9974 -3.3286  3.7068
  159MOL0     H20950   5.418   0.042   4.140 -1.0192 -1.6183  1.2987
  159MOL0     H20951   5.653  -0.025   4.154 -3.6617  2.5508 -1.1025
  159MOL0     H20952   6.007  -0.100   4.087 -0.7550 -2.0842  0.8162
  159MOL0     H20953   6.260  -0.106   4.059  0.2790 -0.4296 -1.5128
  159MOL0     H20954   6.533  -0.092   4.139  3.3096  0.5641  0.4287
  159MOL0     H20955   6.493  -0.251   4.074 -2.7618  0.7278  0.9993
  159MOL0     H20956   6.648  -0.338   4.266  1.4630  0.6025  1.0066
  159MOL0     H20957   6.672  -0.173   4.313 -0.6404 -0.4408  0.3832
  159MOL0     H20958   6.781  -0.126   4.079 -1.7699 -0.0883 -0.1680
  159MOL0     H20959   6.741  -0.294   4.046  0.3027  1.1829 -0.7055
  159MOL0     H20960   6.888  -0.198   4.285 -2.2301  1.5982 -2.6322
  159MOL0     H20961   6.912  -0.361   4.230 -0.6645 -0.3319  1.5748
  159MOL0     H20962   6.987  -0.093   4.119 -1.6105  0.3998 -0.6325
  159MOL0     H20963   7.029  -0.240   4.026  2.3434 -0.2378  1.1045
  159MOL0     H20964   7.155  -0.320   4.242  0.6879  0.6495 -0.9397
  159MOL0     H20965   7.157  -0.153   4.292  0.7461 -1.0867  0.6457
  159MOL0     H20966   7.286  -0.249   4.034 -2.0997  0.7782 -0.7578
  159MOL0     H20967   7.267  -0.084   4.087 -2.5201  0.0203  0.5232
  159MOL0     H20968   7.360  -0.171   4.308 -3.2976  0.3976 -1.6371
  159MOL0     H20969   7.472  -0.126   4.174 -2.0878  2.5739 -0.6477
  159MOL0     H20970   6.246  -0.256   4.469 -3.5064  0.7030  0.6173
  159MOL0     H20971   6.024  -0.240   4.475 -0.6360 -1.1113 -0.7719
  159MOL0     H20972   5.571  -0.186   4.544  1.4815  1.5758 -0.0765
  159MOL0     H20973   5.341  -0.080   4.534  1.5527 -1.4925  1.5701
  159MOL0     H20974   4.772   0.343   5.200 -0.5126 -0.3372  0.7679
  159MOL0     H20975   4.836   0.584   5.192  0.3782 -0.3150  3.2203
  159MOL0     H20976   4.974   0.948   5.376  0.2193  0.1082 -0.2543
  159MOL0     H20977   5.028   1.195   5.333 -0.5510  0.3545  1.0591
  159MOL0     H20978   4.780   1.479   5.078 -0.3474 -1.6958  0.9453
  159MOL0     H20979   4.875   1.394   4.971  1.4632  0.1122 -1.8759
  159MOL0     H20980   4.931   1.624   4.960  0.1103  2.7997  1.4692
  159MOL0     H20981   4.948   1.627   5.135  1.0224 -0.5891  1.3116
  159MOL0     H20982   5.112   1.522   4.916 -2.6116 -1.0563 -0.6656
  159MOL0     H20983   5.137   1.449   5.072 -2.8633 -1.9122 -3.2927
  159MOL0     H20984   5.226   1.676   5.147 -3.1474 -3.5187  0.6883
  159MOL0     H20985   5.298   1.662   4.980  1.2295 -0.5672  0.9801
  159MOL0     H20986   4.989   1.942   4.905 -0.7828 -2.4750 -2.8600
  159MOL0     H20987   4.717   1.236   5.055 -2.2353 -2.0312 -0.5576
  159MOL0     H20988   4.649   1.011   5.083  0.0804  0.0750 -1.0281
  160MOL0     O20989   8.744   2.078   4.514 -0.9406  0.5417 -0.1428
  160MOL0     C20990   8.734   2.043   4.632  0.0517  0.7678  0.5490
  160MOL0     O20991   8.741   2.123   4.743 -0.4429 -0.9045  0.2634
  160MOL0     C20992   8.730   2.262   4.718  0.5305  0.3010  0.5755
  160MOL0     C20993   8.607   2.321   4.741  0.2186  0.3228  1.0165
  160MOL0     C20994   8.590   2.452   4.692 -0.2255  0.9109 -1.2867
  160MOL0     C20995   8.682   2.520   4.611  0.1082 -0.3282 -0.6505
  160MOL0     O20996   8.666   2.647   4.574 -0.1893 -0.0169  0.2979
  160MOL0     C20997   8.540   2.709   4.548  0.4316  0.3997 -0.0831
  160MOL0     C20998   8.503   2.812   4.658 -0.2828 -0.1482 -0.4486
  160MOL0     C20999   8.597   2.939   4.655 -0.6886  0.5521  0.8145
  160MOL0     C21000   8.590   3.033   4.783  1.0824 -0.3681  0.1508
  160MOL0     C21001   8.644   2.963   4.908 -0.1613 -1.0398  0.2108
  160MOL0     C21002   8.630   3.050   5.038  0.1874 -0.7362  0.1287
  160MOL0     C21003   8.680   2.978   5.165 -0.3319 -0.3591 -0.2219
  160MOL0     C21004   8.831   2.946   5.166  0.0184  0.1614  1.0281
  160MOL0     N21005   8.882   2.920   5.308  0.9985 -0.2842  0.4016
  160MOL0     C21006   8.901   3.019   5.401  0.2798  0.2888  0.4001
  160MOL0     C21007   8.962   2.955   5.498  0.6275  0.8355 -1.1807
  160MOL0     C21008   8.988   3.016   5.635 -0.1866  0.5816 -0.1091
  160MOL0     C21009   9.017   3.167   5.630 -0.1458  1.2153  0.2139
  160MOL0     C21010   9.108   3.206   5.741  0.5303 -0.0918 -1.4687
  160MOL0     C21011   9.060   3.189   5.880  0.4309  0.2019 -0.6400
  160MOL0     O21012   8.922   3.206   5.902 -0.4406  0.4976 -0.1794
  160MOL0     C21013   8.862   3.328   5.917  0.6028  0.5482  0.8790
  160MOL0     C21014   8.720   3.333   5.926 -0.3770 -0.5530  0.0571
  160MOL0     C21015   8.646   3.454   5.932  0.3625  1.1369 -0.2639
  160MOL0     C21016   8.715   3.574   5.929 -0.2423 -1.0870 -0.2583
  160MOL0     C21017   8.645   3.706   5.934  0.2185 -1.1109 -0.4444
  160MOL0     O21018   8.722   3.822   5.916  0.3042 -0.1365 -0.3505
  160MOL0     C21019   8.672   3.951   5.921 -0.2029  0.4036 -0.2584
  160MOL0     C21020   8.730   4.047   6.014  0.6996  1.1828 -0.3251
  160MOL0     C21021   8.687   4.181   6.019  0.2398  0.6683 -0.0409
  160MOL0     C21022   8.588   4.219   5.929  0.8157  0.2005 -0.6126
  160MOL0     O21023   8.542   4.345   5.922  0.0439  0.5080 -0.6412
  160MOL0     C21024   8.610   4.449   5.981 -1.1669 -1.0122  0.2802
  160MOL0     C21025   8.749   4.483   5.925 -0.2042  0.2313  0.1733
  160MOL0     C21026   8.733   4.533   5.787  0.1999  0.5972  0.2858
  160MOL0     C21027   8.875   4.566   5.732  0.0758 -0.2720  0.7513
  160MOL0     C21028   8.878   4.696   5.637  0.2433  0.6661  0.3063
  160MOL0     C21029   9.017   4.705   5.586 -0.7300  1.2295 -0.6446
  160MOL0     C21030   9.128   4.739   5.688 -0.9200  0.5074 -0.9641
  160MOL0     C21031   9.269   4.752   5.629 -0.7555  0.1188 -0.0097
  160MOL0    Cl21032   9.282   4.883   5.501 -0.2842  0.3069 -0.0893
  160MOL0     C21033   8.516   4.122   5.854  0.4985  0.1936  0.3385
  160MOL0     C21034   8.573   3.993   5.837  0.4616 -0.0864 -0.3649
  160MOL0     O21035   8.518   3.705   5.946 -1.3705  0.5671 -0.3688
  160MOL0     C21036   8.858   3.569   5.917  0.1155  0.3020 -0.5365
  160MOL0     C21037   8.933   3.452   5.922  0.5003  0.1750 -0.3307
  160MOL0     N21038   8.973   2.827   5.466 -0.1855 -0.1088 -0.8773
  160MOL0     N21039   8.929   2.802   5.349 -0.2653 -0.0395 -0.9080
  160MOL0     C21040   8.809   2.461   4.609  0.5226 -0.3343 -0.1882
  160MOL0     C21041   8.837   2.334   4.663 -0.0277 -0.7355 -0.1608
  160MOL0     C21042   8.700   1.904   4.655 -0.0695 -0.6624  0.2542
  160MOL0     C21043   8.659   1.811   4.549  0.0612 -0.5168 -0.1429
  160MOL0     C21044   8.579   1.707   4.582  0.6256  0.4766 -0.4353
  160MOL0     C21045   8.549   1.663   4.717 -0.7904 -0.2733  0.1212
  160MOL0     O21046   8.513   1.531   4.740  0.1515  0.3945 -0.4088
  160MOL0     C21047   8.511   1.480   4.879 -0.3644  0.0327  0.2387
  160MOL0     C21048   8.649   1.431   4.937  0.9363  0.1964  0.8541
  160MOL0     C21049   8.629   1.386   5.076 -0.9367  0.1257  0.0958
  160MOL0     C21050   8.756   1.318   5.131 -0.1112 -0.6609 -0.1343
  160MOL0     C21051   8.815   1.214   5.050  0.4406  0.8010 -0.2849
  160MOL0     C21052   8.838   1.134   4.964 -0.3780  0.1207  0.0018
  160MOL0     C21053   8.614   1.743   4.820 -0.0920  0.3163  0.5709
  160MOL0     C21054   8.672   1.863   4.786 -0.1618 -0.9578 -0.0627
  160MOL0     H21055   8.527   2.259   4.779 -1.0040  0.3254 -1.3987
  160MOL0     H21056   8.488   2.486   4.704 -2.0980 -4.0330 -0.8481
  160MOL0     H21057   8.467   2.628   4.547  0.6606  0.0445  3.2769
  160MOL0     H21058   8.529   2.771   4.458 -0.1408  0.6884  0.1792
  160MOL0     H21059   8.505   2.763   4.756  1.0514 -2.5379 -1.5648
  160MOL0     H21060   8.403   2.846   4.630 -0.9063  0.4532  2.2973
  160MOL0     H21061   8.570   2.991   4.563  0.0784  1.1309  0.9019
  160MOL0     H21062   8.696   2.896   4.637 -1.2662 -0.3050 -0.4359
  160MOL0     H21063   8.639   3.128   4.757  1.9477 -1.9057 -4.9476
  160MOL0     H21064   8.486   3.062   4.796  0.8553 -1.7802  1.7311
  160MOL0     H21065   8.748   2.935   4.887 -0.9548 -3.3621 -0.9478
  160MOL0     H21066   8.594   2.867   4.923 -1.3928 -0.8417 -2.1804
  160MOL0     H21067   8.534   3.100   5.053  2.4470  3.4689  2.6014
  160MOL0     H21068   8.690   3.137   5.011 -2.9814  1.1885 -1.2545
  160MOL0     H21069   8.663   3.045   5.250  4.1551 -1.1791  1.5830
  160MOL0     H21070   8.636   2.878   5.160  2.0277 -1.4007 -3.6898
  160MOL0     H21071   8.883   3.032   5.123 -0.5210  0.0246  0.0662
  160MOL0     H21072   8.854   2.859   5.105 -0.5156 -0.3447  1.5410
  160MOL0     H21073   8.873   3.124   5.402  0.3584  0.3546  2.7023
  160MOL0     H21074   9.072   2.970   5.686 -0.6036  1.8794  1.8749
  160MOL0     H21075   8.900   2.991   5.694 -0.6215 -0.6830 -1.2451
  160MOL0     H21076   8.923   3.223   5.628 -0.4993  0.6249 -0.3299
  160MOL0     H21077   9.078   3.181   5.540  2.9984 -2.7385  1.4200
  160MOL0     H21078   9.204   3.154   5.752  0.7049  0.7738  3.0902
  160MOL0     H21079   9.122   3.312   5.720 -0.1465  0.3256  0.0473
  160MOL0     H21080   9.120   3.261   5.936  2.3372 -1.1576 -0.8286
  160MOL0     H21081   9.084   3.087   5.910 -1.4193  0.1809  0.9218
  160MOL0     H21082   8.650   3.250   5.925 -1.2914  0.1931  0.4902
  160MOL0     H21083   8.538   3.447   5.936  0.3483  1.4229 -0.1712
  160MOL0     H21084   8.814   4.008   6.071  0.1319  1.4172  0.6858
  160MOL0     H21085   8.737   4.253   6.082  1.5372  0.2772 -0.6075
  160MOL0     H21086   8.610   4.432   6.089 -2.6987 -0.8950  0.3217
  160MOL0     H21087   8.546   4.535   5.958 -0.9561  0.2163  3.7816
  160MOL0     H21088   8.823   4.403   5.927 -0.3633 -0.2426 -4.2884
  160MOL0     H21089   8.799   4.563   5.981  0.5076  1.5105 -2.1483
  160MOL0     H21090   8.675   4.626   5.790  0.8897  1.1575 -2.0238
  160MOL0     H21091   8.681   4.466   5.717 -0.3924  1.3311  0.0057
  160MOL0     H21092   8.946   4.577   5.815  1.0790 -1.3777  0.0739
  160MOL0     H21093   8.903   4.473   5.681  0.6595 -3.1532  5.7400
  160MOL0     H21094   8.857   4.779   5.705 -0.2622  0.3800  0.5085
  160MOL0     H21095   8.806   4.695   5.554  0.0783  1.3982  0.4352
  160MOL0     H21096   9.012   4.791   5.518 -0.6528  2.7704  1.2111
  160MOL0     H21097   9.040   4.610   5.536 -0.9542 -1.8138  4.4004
  160MOL0     H21098   9.090   4.831   5.735 -3.2305 -0.3669 -0.9773
  160MOL0     H21099   9.143   4.666   5.768  1.3875  2.0312  0.1221
  160MOL0     H21100   9.304   4.664   5.575 -0.9722  1.2197 -2.0387
  160MOL0     H21101   9.333   4.764   5.717 -1.9604 -0.5417  0.9808
  160MOL0     H21102   8.441   4.155   5.784  0.1750  4.3445  2.3513
  160MOL0     H21103   8.529   3.926   5.764 -0.6108 -1.2540  1.2714
  160MOL0     H21104   8.914   3.662   5.912  1.2423 -0.3993 -2.6281
  160MOL0     H21105   9.040   3.468   5.924  0.4599  1.0771  3.3402
  160MOL0     H21106   8.896   2.515   4.572  2.5743 -1.4638  2.6351
  160MOL0     H21107   8.933   2.289   4.639  1.3282  0.6083  2.2962
  160MOL0     H21108   8.655   1.839   4.444 -1.6926  3.1337  0.7069
  160MOL0     H21109   8.535   1.637   4.512  0.5002 -2.8265  2.6614
  160MOL0     H21110   8.445   1.394   4.892  0.1538 -0.0365  2.8338
  160MOL0     H21111   8.477   1.566   4.937 -0.3286  0.2381 -0.0422
  160MOL0     H21112   8.683   1.352   4.870 -3.0649  0.1955 -1.4527
  160MOL0     H21113   8.724   1.511   4.934 -1.4537  2.5689 -0.4995
  160MOL0     H21114   8.550   1.311   5.084 -0.6932 -0.1821 -0.3102
  160MOL0     H21115   8.604   1.475   5.134  0.6245 -0.4987  1.8428
  160MOL0     H21116   8.835   1.393   5.145 -1.3369  0.6707 -0.1004
  160MOL0     H21117   8.737   1.290   5.235  0.5114 -0.2939  0.0882
  160MOL0     H21118   8.862   1.066   4.884 -1.8388 -0.1355 -0.2478
  160MOL0     H21119   8.602   1.734   4.927 -1.3749  1.5688  0.5784
  160MOL0     H21120   8.729   1.908   4.867  1.0134 -1.8452 -0.3583
  161MOL0     O21121   3.400   2.089   3.135 -0.0009  0.0910 -0.4314
  161MOL0     C21122   3.388   2.140   3.023  0.0049 -0.2647  0.6398
  161MOL0     O21123   3.325   2.076   2.916  0.0222  0.0823 -0.1178
  161MOL0     C21124   3.276   1.945   2.919 -0.3309 -0.2147 -0.5226
  161MOL0     C21125   3.152   1.911   2.864 -0.0480 -0.2763  0.0626
  161MOL0     C21126   3.121   1.776   2.853 -0.2798 -0.0456 -0.0070
  161MOL0     C21127   3.187   1.677   2.930  0.2631 -0.6872  0.1965
  161MOL0     O21128   3.149   1.550   2.923 -0.8157 -0.4957  0.2061
  161MOL0     C21129   3.003   1.522   2.923 -0.0128 -0.7315  0.4634
  161MOL0     C21130   2.968   1.378   2.930 -0.1243 -0.2322 -0.7652
  161MOL0     C21131   2.825   1.350   2.979  1.0457 -0.0269 -0.4877
  161MOL0     C21132   2.820   1.363   3.130  0.1542  0.1220 -0.6602
  161MOL0     C21133   2.676   1.336   3.177  0.0139  0.1761  0.9197
  161MOL0     C21134   2.652   1.353   3.327  0.5503 -0.5449 -0.5194
  161MOL0     C21135   2.612   1.501   3.366 -0.7008  1.6200  0.8618
  161MOL0     C21136   2.588   1.529   3.512  0.6343 -0.6411 -0.4155
  161MOL0     N21137   2.454   1.470   3.554  0.5907 -0.1477  0.6088
  161MOL0     C21138   2.427   1.339   3.575 -0.5880 -0.1082  1.3887
  161MOL0     C21139   2.301   1.340   3.629 -0.5830 -0.9503  0.2617
  161MOL0     C21140   2.245   1.237   3.708  0.8235  0.5770 -0.2185
  161MOL0     C21141   2.091   1.227   3.713 -1.0267  0.4264  0.2651
  161MOL0     C21142   2.053   1.087   3.749 -0.1584 -0.4335  0.0111
  161MOL0     C21143   2.093   0.976   3.639  1.1062  0.6382  0.5268
  161MOL0     O21144   2.214   0.903   3.675 -0.3415  0.4290 -0.2786
  161MOL0     C21145   2.327   0.884   3.592  1.2811 -1.4133  0.5649
  161MOL0     C21146   2.345   0.952   3.471 -0.3043  0.0693  0.4047
  161MOL0     C21147   2.464   0.928   3.394  0.0223  0.6056 -1.0640
  161MOL0     C21148   2.566   0.844   3.436  0.7753  0.9584 -0.2923
  161MOL0     C21149   2.685   0.830   3.349  0.3272 -0.0730  0.2097
  161MOL0     O21150   2.692   0.910   3.236 -0.6575 -0.2594  0.3010
  161MOL0     C21151   2.822   0.940   3.193  0.0379  0.3632  0.1295
  161MOL0     C21152   2.944   0.949   3.268 -0.4998  0.2013  0.3426
  161MOL0     C21153   3.069   0.982   3.210 -0.0306 -0.0018  0.2995
  161MOL0     C21154   3.073   1.012   3.069 -0.9602 -0.2714 -1.0592
  161MOL0     O21155   3.191   1.063   3.021  0.1705  0.4813  0.4147
  161MOL0     C21156   3.224   1.042   2.886  0.4778 -0.0022 -0.2352
  161MOL0     C21157   3.349   1.123   2.845 -0.1788  0.2898  0.5635
  161MOL0     C21158   3.301   1.268   2.795 -0.6189  0.0396  0.2097
  161MOL0     C21159   3.412   1.328   2.703  0.3840  0.7307  0.1037
  161MOL0     C21160   3.403   1.475   2.653  0.2112  0.9652 -0.3538
  161MOL0     C21161   3.277   1.525   2.578 -0.3492 -0.1238 -0.6484
  161MOL0     C21162   3.297   1.672   2.564  0.3879 -0.9992  0.6777
  161MOL0     C21163   3.201   1.727   2.460  0.5099  0.6882  0.3574
  161MOL0    Cl21164   3.033   1.676   2.496  0.1655  0.0784  0.6950
  161MOL0     C21165   2.960   1.005   2.997 -0.4186  0.8128  0.8847
  161MOL0     C21166   2.836   0.969   3.055  0.8858 -0.3871  0.6387
  161MOL0     O21167   2.775   0.754   3.391  0.4358  0.4706 -0.3416
  161MOL0     C21168   2.541   0.770   3.557 -0.6873 -0.5004  0.3869
  161MOL0     C21169   2.425   0.801   3.639 -0.0736  0.1389  0.7391
  161MOL0     N21170   2.250   1.468   3.623 -0.4861 -0.6069  0.7685
  161MOL0     N21171   2.342   1.545   3.584 -0.1163 -0.0717  0.1341
  161MOL0     C21172   3.305   1.710   2.988 -0.4317 -0.9882  0.3990
  161MOL0     C21173   3.355   1.840   2.984  0.0791  0.0272 -0.3408
  161MOL0     C21174   3.446   2.280   3.005 -0.5983  1.1087 -0.3692
  161MOL0     C21175   3.471   2.325   2.874 -0.7697  1.0039  0.1492
  161MOL0     C21176   3.540   2.449   2.858  1.3388 -0.0616  0.4663
  161MOL0     C21177   3.577   2.528   2.965  0.7820 -0.3303 -0.4158
  161MOL0     O21178   3.606   2.657   2.928  0.0674 -0.3465  0.7627
  161MOL0     C21179   3.675   2.744   3.020 -0.0399 -0.6722 -0.9604
  161MOL0     C21180   3.828   2.724   3.018  0.4185  0.6579 -1.1453
  161MOL0     C21181   3.877   2.785   2.894 -0.6938 -0.0090  0.6723
  161MOL0     C21182   3.881   2.944   2.901  0.0129  1.3907  0.2726
  161MOL0     C21183   3.951   3.010   2.785 -0.8066 -1.0453 -0.1844
  161MOL0     C21184   4.013   3.059   2.693  0.0010 -0.1753  0.7716
  161MOL0     C21185   3.551   2.474   3.095 -0.2445  0.4949 -0.3814
  161MOL0     C21186   3.491   2.355   3.117 -0.1969 -0.1905 -0.2813
  161MOL0     H21187   3.086   1.984   2.818 -1.1911 -1.4810 -0.2641
  161MOL0     H21188   3.025   1.748   2.813  0.5668 -0.8315 -1.5780
  161MOL0     H21189   2.956   1.549   2.828  0.4530  2.1137  0.9557
  161MOL0     H21190   2.961   1.588   2.999  0.0762  1.3413 -1.2000
  161MOL0     H21191   3.040   1.322   2.989  0.3073 -1.0563 -2.0271
  161MOL0     H21192   2.988   1.328   2.835 -1.7667  1.1993 -1.9194
  161MOL0     H21193   2.794   1.257   2.930 -0.3585  1.4332 -2.5323
  161MOL0     H21194   2.757   1.421   2.932 -0.0138 -0.5233  0.2470
  161MOL0     H21195   2.889   1.288   3.169  4.9927  2.1612 -4.3988
  161MOL0     H21196   2.851   1.459   3.172  0.9219  0.4494 -1.9239
  161MOL0     H21197   2.663   1.232   3.144 -0.9947  0.8963 -1.1482
  161MOL0     H21198   2.610   1.405   3.123  0.0922  1.5768  2.5201
  161MOL0     H21199   2.732   1.328   3.398 -0.0116  2.8213  1.5224
  161MOL0     H21200   2.567   1.287   3.348  0.0547  0.7636  1.9429
  161MOL0     H21201   2.684   1.572   3.325 -0.6405  2.1887  1.9149
  161MOL0     H21202   2.514   1.529   3.327 -0.9988  0.9304  1.0891
  161MOL0     H21203   2.594   1.636   3.533  2.5506 -0.5358 -1.2853
  161MOL0     H21204   2.667   1.487   3.575 -0.9053  0.4151  2.4112
  161MOL0     H21205   2.493   1.252   3.581  0.1633  0.1953 -1.0927
  161MOL0     H21206   2.280   1.248   3.811 -3.0104  0.1894  1.2808
  161MOL0     H21207   2.287   1.143   3.669  2.4781  1.6525 -1.1376
  161MOL0     H21208   2.044   1.269   3.624  1.4893  0.4327 -1.1811
  161MOL0     H21209   2.077   1.289   3.801  0.4035 -0.0885  0.8959
  161MOL0     H21210   2.097   1.055   3.845  2.0833  2.6117  0.1662
  161MOL0     H21211   1.945   1.102   3.752  0.1282  2.4116 -0.8624
  161MOL0     H21212   2.092   1.019   3.538 -0.3777 -1.0715 -0.2513
  161MOL0     H21213   2.011   0.906   3.626 -1.7262  4.0486 -2.0489
  161MOL0     H21214   2.284   1.031   3.430 -1.4507 -0.9282  0.1321
  161MOL0     H21215   2.465   0.982   3.300  0.8642 -2.2995 -2.8402
  161MOL0     H21216   2.933   0.933   3.374 -0.4777 -1.6839  0.0956
  161MOL0     H21217   3.158   1.006   3.268 -0.8956 -0.9002  2.0853
  161MOL0     H21218   3.140   1.078   2.827  0.3963  0.6084  0.2385
  161MOL0     H21219   3.248   0.936   2.874  2.1445  0.0950  1.5769
  161MOL0     H21220   3.396   1.081   2.756 -1.3456 -0.3001  0.2008
  161MOL0     H21221   3.423   1.113   2.925 -1.2418 -0.9252  1.4609
  161MOL0     H21222   3.287   1.330   2.884 -1.1557 -1.7427  1.4330
  161MOL0     H21223   3.216   1.265   2.726  1.4314 -0.3224 -2.4804
  161MOL0     H21224   3.509   1.311   2.752  0.7072  0.8243 -0.4918
  161MOL0     H21225   3.401   1.262   2.616  2.1912  1.7069 -0.9172
  161MOL0     H21226   3.488   1.492   2.587 -1.2507  1.5451 -2.1711
  161MOL0     H21227   3.420   1.526   2.748  0.8885 -1.2041  0.7539
  161MOL0     H21228   3.201   1.516   2.656  0.4003 -0.8126  0.0121
  161MOL0     H21229   3.257   1.475   2.482 -1.3501  2.1793 -1.7245
  161MOL0     H21230   3.277   1.723   2.659  0.7015  2.2009 -0.8492
  161MOL0     H21231   3.398   1.698   2.532 -0.0419 -2.2384 -1.8779
  161MOL0     H21232   3.223   1.687   2.361  1.7592  3.4171 -0.5824
  161MOL0     H21233   3.197   1.836   2.447 -3.0064  0.4201 -2.1882
  161MOL0     H21234   2.959   1.051   2.899  1.9566  1.2071  0.9782
  161MOL0     H21235   2.749   0.959   2.992  1.2095  0.2408  0.0828
  161MOL0     H21236   2.623   0.705   3.584  0.6016  1.2510  0.8567
  161MOL0     H21237   2.409   0.752   3.735 -1.1174  0.4352  0.7281
  161MOL0     H21238   3.375   1.638   3.028 -0.5269 -1.2529  0.0995
  161MOL0     H21239   3.456   1.866   3.011 -0.8668  2.3910  1.1930
  161MOL0     H21240   3.436   2.286   2.779 -0.1373  4.2856 -1.6103
  161MOL0     H21241   3.544   2.499   2.762 -2.2728  3.1900  1.7980
  161MOL0     H21242   3.642   2.722   3.122  1.4943 -2.4202 -0.8009
  161MOL0     H21243   3.662   2.852   3.009  2.2355  0.2117  3.1522
  161MOL0     H21244   3.870   2.764   3.111  1.2994 -2.7998  0.0944
  161MOL0     H21245   3.860   2.619   3.020  3.2955  1.4038  2.0025
  161MOL0     H21246   3.811   2.751   2.813 -0.5014  1.8337 -0.3434
  161MOL0     H21247   3.976   2.748   2.868 -2.3149 -4.3693 -0.0950
  161MOL0     H21248   3.776   2.974   2.900 -1.1876 -1.7254 -4.7699
  161MOL0     H21249   3.930   2.974   2.994 -0.9412  1.5098  0.7415
  161MOL0     H21250   4.063   3.088   2.603 -2.7801  1.1798 -0.4660
  161MOL0     H21251   3.582   2.524   3.186 -0.6831  0.4427 -0.2030
  161MOL0     H21252   3.480   2.330   3.222  0.5871 -0.4949 -0.2687
  162MOL0     O21253   5.607   1.522  11.300  0.2467  0.5381  0.6827
  162MOL0     C21254   5.553   1.515  11.189  1.5315 -0.4349  0.6487
  162MOL0     O21255   5.473   1.405  11.143  0.5348 -0.2441  0.4322
  162MOL0     C21256   5.457   1.295  11.229 -0.5149 -0.5351  0.0599
  162MOL0     C21257   5.380   1.302  11.347  0.0635  0.0736  0.6752
  162MOL0     C21258   5.364   1.187  11.428 -0.1774  0.4539 -0.3485
  162MOL0     C21259   5.411   1.066  11.389  0.0279 -0.2791 -0.0026
  162MOL0     O21260   5.371   0.943  11.446  0.4113 -0.2779 -0.2802
  162MOL0     C21261   5.358   0.930  11.588 -0.2167 -0.2716  0.3080
  162MOL0     C21262   5.300   0.796  11.631  1.1819 -0.4759  0.3470
  162MOL0     C21263   5.397   0.684  11.659  0.4094 -0.3384 -0.3173
  162MOL0     C21264   5.424   0.608  11.522  0.0450 -0.8004  0.1092
  162MOL0     C21265   5.516   0.497  11.556 -0.6643  0.0633  0.4049
  162MOL0     C21266   5.615   0.480  11.438  0.9186 -0.6141  0.4194
  162MOL0     C21267   5.722   0.374  11.479  1.3218 -0.4830  0.2136
  162MOL0     C21268   5.841   0.366  11.378 -1.4241  0.2421  0.8047
  162MOL0     N21269   5.951   0.285  11.415  0.3028 -0.0422  0.4319
  162MOL0     C21270   6.035   0.317  11.516 -0.3023  0.5104 -0.1091
  162MOL0     C21271   6.106   0.207  11.536 -0.3279 -0.4249  1.0674
  162MOL0     C21272   6.230   0.201  11.623 -0.1042  0.0067 -0.2812
  162MOL0     C21273   6.210   0.108  11.740 -0.3753 -0.8010  0.2346
  162MOL0     C21274   6.107   0.159  11.827 -0.1451  0.4490 -0.4146
  162MOL0     C21275   6.094   0.046  11.927  0.6877 -0.6339 -0.6412
  162MOL0     O21276   5.999   0.095  12.020  0.0665  0.2791 -0.1785
  162MOL0     C21277   6.012   0.082  12.159 -0.4717  0.5590  0.6322
  162MOL0     C21278   6.112   0.006  12.213 -1.8762  0.7891  0.1162
  162MOL0     C21279   6.116  -0.013  12.350  0.0040 -0.7041 -0.2217
  162MOL0     C21280   6.010   0.036  12.429  0.2510  0.4464 -0.7078
  162MOL0     C21281   6.019   0.017  12.569  1.3482  0.3459 -0.2862
  162MOL0     O21282   6.041  -0.108  12.607  0.4359 -0.5523  0.4718
  162MOL0     C21283   6.018  -0.139  12.741 -0.9671 -0.1380 -0.1608
  162MOL0     C21284   6.128  -0.136  12.836  0.3111 -0.6263 -0.3248
  162MOL0     C21285   6.110  -0.174  12.968  0.6001 -0.4783 -0.2755
  162MOL0     C21286   5.973  -0.197  13.012  0.9224  1.5060  0.2089
  162MOL0     O21287   5.951  -0.228  13.144 -0.0586  0.0745 -0.8589
  162MOL0     C21288   6.053  -0.308  13.217  0.8640 -0.3984  0.4707
  162MOL0     C21289   5.980  -0.356  13.344 -0.4733  0.2321 -0.7119
  162MOL0     C21290   6.037  -0.494  13.389 -0.4849  0.5004 -0.9727
  162MOL0     C21291   6.104  -0.489  13.526  0.0791 -0.1821 -1.0276
  162MOL0     C21292   6.239  -0.416  13.508 -0.4053 -0.2344  0.4368
  162MOL0     C21293   6.305  -0.416  13.643 -0.5831  0.1584 -0.8701
  162MOL0     C21294   6.403  -0.306  13.636 -0.6510 -0.1358  0.3025
  162MOL0     C21295   6.522  -0.326  13.722  0.3202 -0.1395  0.3224
  162MOL0    Cl21296   6.612  -0.457  13.657  0.1450  0.1449 -0.5546
  162MOL0     C21297   5.868  -0.208  12.915  1.4944  0.6876  0.3751
  162MOL0     C21298   5.893  -0.181  12.778  0.3216  0.6420 -0.3868
  162MOL0     O21299   5.998   0.111  12.639  0.8790 -0.4596 -1.1086
  162MOL0     C21300   5.912   0.118  12.376 -0.1426  0.0259 -1.2227
  162MOL0     C21301   5.922   0.146  12.240  0.2260 -0.1557  0.4454
  162MOL0     N21302   6.074   0.118  11.429  1.4124 -0.0424 -0.1394
  162MOL0     N21303   5.981   0.166  11.359  0.0430  0.1467  0.9243
  162MOL0     C21304   5.475   1.055  11.265  1.0209  0.6048 -1.1898
  162MOL0     C21305   5.493   1.172  11.177  0.6104  0.2903 -0.4077
  162MOL0     C21306   5.556   1.634  11.091 -0.3517  0.9912  0.6473
  162MOL0     C21307   5.512   1.627  10.956 -0.1313 -0.5848 -0.4401
  162MOL0     C21308   5.487   1.749  10.884  0.5283  0.3866  0.4016
  162MOL0     C21309   5.526   1.870  10.938 -0.1317 -0.8277  0.3711
  162MOL0     O21310   5.499   1.971  10.843 -0.4650 -0.2715 -1.1097
  162MOL0     C21311   5.501   2.107  10.903 -0.2836 -0.2523 -0.5610
  162MOL0     C21312   5.431   2.218  10.815  0.0881  0.8004 -0.2262
  162MOL0     C21313   5.350   2.322  10.886 -1.0444  0.1825  0.4803
  162MOL0     C21314   5.312   2.440  10.799  0.1809 -0.6076 -0.0269
  162MOL0     C21315   5.218   2.397  10.697  0.3483 -0.0722  0.4875
  162MOL0     C21316   5.160   2.345  10.606  0.2041  0.1633  0.3911
  162MOL0     C21317   5.579   1.876  11.070  0.0846  0.2577  0.7705
  162MOL0     C21318   5.593   1.761  11.141 -0.2454 -0.4334 -0.3837
  162MOL0     H21319   5.360   1.403  11.381  0.1713  0.9398 -1.6430
  162MOL0     H21320   5.309   1.205  11.520 -0.0265  0.0526 -0.1771
  162MOL0     H21321   5.283   1.005  11.612 -1.0326  0.0350 -2.7373
  162MOL0     H21322   5.456   0.954  11.629  0.0834 -0.8921 -0.0269
  162MOL0     H21323   5.220   0.766  11.563  0.5983 -0.2571  0.9314
  162MOL0     H21324   5.249   0.817  11.726 -2.2892  1.0160 -1.6532
  162MOL0     H21325   5.355   0.615  11.734  2.6905 -0.2198  1.1627
  162MOL0     H21326   5.487   0.724  11.706  0.6237 -1.9662  0.7734
  162MOL0     H21327   5.328   0.572  11.485  1.2175 -2.1422 -1.7880
  162MOL0     H21328   5.473   0.674  11.449  3.0594 -1.8336  1.0314
  162MOL0     H21329   5.462   0.402  11.548 -1.2624  0.4628 -0.4858
  162MOL0     H21330   5.572   0.511  11.650 -0.9727 -1.5072  0.8459
  162MOL0     H21331   5.653   0.579  11.413 -1.9100  0.9774  1.9556
  162MOL0     H21332   5.550   0.455  11.354  1.1596 -1.1643  0.3871
  162MOL0     H21333   5.747   0.379  11.585 -0.3492 -2.4891  0.7630
  162MOL0     H21334   5.670   0.279  11.466  2.3658 -1.1127  0.5209
  162MOL0     H21335   5.893   0.462  11.380 -0.1315 -0.4565  1.6954
  162MOL0     H21336   5.807   0.340  11.277 -1.3975  2.4829  0.1622
  162MOL0     H21337   6.059   0.408  11.570 -0.6514  1.5854 -1.6834
  162MOL0     H21338   6.261   0.302  11.651 -1.6403  1.3049 -2.8599
  162MOL0     H21339   6.318   0.160  11.571  1.0549  2.9955 -0.8707
  162MOL0     H21340   6.305   0.093  11.792 -1.2953 -1.9494  1.7022
  162MOL0     H21341   6.191   0.006  11.704 -0.3675 -0.6649 -0.1583
  162MOL0     H21342   6.136   0.257  11.865  1.0844 -0.0301 -0.0789
  162MOL0     H21343   6.012   0.164  11.774 -0.7206 -0.9426  0.4231
  162MOL0     H21344   6.193   0.029  11.968  0.8478  1.2993 -0.1078
  162MOL0     H21345   6.046  -0.044  11.886 -3.4221  0.7747  0.5065
  162MOL0     H21346   6.180  -0.043  12.144 -2.1248  2.5443 -1.4190
  162MOL0     H21347   6.184  -0.078  12.405 -0.7091 -0.9143  0.4309
  162MOL0     H21348   6.227  -0.134  12.792 -0.8025  1.3776 -3.0696
  162MOL0     H21349   6.195  -0.189  13.034  2.1286 -3.5298 -2.6998
  162MOL0     H21350   6.129  -0.235  13.245 -2.4936  3.6828 -0.1573
  162MOL0     H21351   6.091  -0.389  13.153 -2.0529 -1.0527 -0.5543
  162MOL0     H21352   5.872  -0.365  13.329 -1.1339  1.7033  2.4403
  162MOL0     H21353   5.980  -0.280  13.422 -2.1467  0.7417 -1.1680
  162MOL0     H21354   6.099  -0.545  13.315  2.7988  0.5291  1.5273
  162MOL0     H21355   5.947  -0.552  13.414 -0.3773  0.2094 -1.2607
  162MOL0     H21356   6.032  -0.440  13.592  0.0553  0.3195 -1.4239
  162MOL0     H21357   6.128  -0.588  13.566  1.6306  0.0771 -1.2578
  162MOL0     H21358   6.215  -0.311  13.488 -3.4851 -0.8971  0.0274
  162MOL0     H21359   6.306  -0.469  13.440  1.0032 -1.0529  2.3764
  162MOL0     H21360   6.353  -0.515  13.649 -1.2004 -0.3271 -2.8681
  162MOL0     H21361   6.231  -0.403  13.722 -0.7739 -0.1173 -1.0010
  162MOL0     H21362   6.441  -0.293  13.534  0.0517  0.0258  0.5791
  162MOL0     H21363   6.351  -0.213  13.660 -0.9273 -0.5723  1.4446
  162MOL0     H21364   6.477  -0.368  13.812 -3.2911 -3.7219 -2.7176
  162MOL0     H21365   6.576  -0.234  13.743  0.5027 -0.0859 -0.3446
  162MOL0     H21366   5.767  -0.234  12.945 -0.0899  3.3011 -2.2025
  162MOL0     H21367   5.820  -0.176  12.698 -0.3637  0.9811  0.2454
  162MOL0     H21368   5.827   0.165  12.424  0.4103  3.0674 -2.9915
  162MOL0     H21369   5.863   0.221  12.188  0.0220  0.5751  1.7018
  162MOL0     H21370   5.504   0.959  11.224  1.2756 -0.3462  1.1085
  162MOL0     H21371   5.543   1.165  11.080  1.1730 -1.9534 -0.0220
  162MOL0     H21372   5.483   1.529  10.920 -1.9356  0.0678 -0.8588
  162MOL0     H21373   5.435   1.748  10.789 -0.9880  1.4874  1.1734
  162MOL0     H21374   5.594   2.140  10.950 -1.1097  2.5881 -0.7276
  162MOL0     H21375   5.427   2.103  10.982 -2.6842  2.7191 -2.4323
  162MOL0     H21376   5.504   2.267  10.750  2.9760 -1.4869  1.0310
  162MOL0     H21377   5.366   2.167  10.743 -0.1630 -1.1543  1.2921
  162MOL0     H21378   5.413   2.370  10.961  0.5659 -1.6399  0.3644
  162MOL0     H21379   5.260   2.285  10.936 -0.6690  0.7682  1.6317
  162MOL0     H21380   5.263   2.520  10.856  0.3174 -0.7498  0.2877
  162MOL0     H21381   5.396   2.487  10.748 -0.3024  1.5743  1.0437
  162MOL0     H21382   5.119   2.298  10.519  3.4238  0.4186 -1.4240
  162MOL0     H21383   5.621   1.968  11.109 -1.6362  1.6910 -0.5885
  162MOL0     H21384   5.650   1.761  11.233  0.3973 -1.0054 -0.7688
  163MOL0     O21385   2.669  10.913   7.770 -0.3684 -0.4018  0.2959
  163MOL0     C21386   2.654  11.026   7.732 -0.4957 -0.1809  0.1524
  163MOL0     O21387   2.693  11.073   7.597  0.3383  0.5579 -0.5021
  163MOL0     C21388   2.727  10.985   7.496  0.3344  0.0868  0.2197
  163MOL0     C21389   2.683  10.853   7.484 -0.4102 -0.2410 -0.4278
  163MOL0     C21390   2.722  10.774   7.377 -0.5450  0.0333 -1.6822
  163MOL0     C21391   2.810  10.820   7.273 -0.0583 -0.2571 -0.5283
  163MOL0     O21392   2.835  10.742   7.160 -0.4631 -0.8968  0.0730
  163MOL0     C21393   2.855  10.809   7.035  0.0153 -0.2885  0.1473
  163MOL0     C21394   2.795  10.710   6.936 -0.0616  0.1040  0.6664
  163MOL0     C21395   2.651  10.655   6.969 -0.6825 -0.7373  0.8439
  163MOL0     C21396   2.551  10.772   6.978  0.4500  0.9794 -0.2562
  163MOL0     C21397   2.404  10.717   6.956  0.5336 -0.2111  0.5874
  163MOL0     C21398   2.360  10.696   6.813  0.3850 -0.5731 -0.8656
  163MOL0     C21399   2.347  10.825   6.716 -0.5818  0.9880 -0.3526
  163MOL0     C21400   2.244  10.804   6.607  0.1208  0.0388  0.0514
  163MOL0     N21401   2.228  10.918   6.518  1.0895  0.3869  0.3004
  163MOL0     C21402   2.130  11.011   6.536 -0.1015  0.1110 -0.1566
  163MOL0     C21403   2.117  11.065   6.410 -0.4265  2.0760 -0.2226
  163MOL0     C21404   2.022  11.175   6.390 -0.5465 -0.9091  0.2552
  163MOL0     C21405   2.090  11.308   6.438  0.3197  1.2111 -0.1965
  163MOL0     C21406   2.004  11.436   6.433 -0.1558  0.6074 -0.8964
  163MOL0     C21407   1.981  11.463   6.280 -0.1476  0.3112  0.3382
  163MOL0     O21408   1.874  11.396   6.213  0.9814  0.7476  0.6493
  163MOL0     C21409   1.805  11.471   6.120 -0.5885  0.2780 -0.2221
  163MOL0     C21410   1.769  11.396   6.001  0.3204 -1.3873  0.4794
  163MOL0     C21411   1.685  11.455   5.899 -0.5096  0.5840 -0.2429
  163MOL0     C21412   1.651  11.588   5.904  0.0516 -0.1228  0.3316
  163MOL0     C21413   1.584  11.655   5.792 -0.7279  1.1659  0.6012
  163MOL0     O21414   1.578  11.574   5.684  0.8969  0.3535 -0.3630
  163MOL0     C21415   1.493  11.613   5.580 -0.3023  0.7221  0.3532
  163MOL0     C21416   1.402  11.521   5.533  0.6225  0.0870 -0.5519
  163MOL0     C21417   1.339  11.530   5.400  0.1021  0.6718 -1.4656
  163MOL0     C21418   1.367  11.633   5.315  0.0748  0.5144  0.4565
  163MOL0     O21419   1.317  11.650   5.188 -0.0462  0.6448 -0.7212
  163MOL0     C21420   1.219  11.550   5.142 -0.8858 -0.3168 -0.4463
  163MOL0     C21421   1.169  11.595   5.007 -0.8671 -0.6073  0.1505
  163MOL0     C21422   1.285  11.629   4.910 -1.9842  1.2254 -0.3539
  163MOL0     C21423   1.382  11.508   4.885 -0.2439 -1.4381 -0.3696
  163MOL0     C21424   1.484  11.541   4.779 -1.0304 -1.0057  0.1314
  163MOL0     C21425   1.569  11.417   4.753  0.8700  0.7549  0.2776
  163MOL0     C21426   1.652  11.439   4.634  0.4300  0.1991  0.4436
  163MOL0     C21427   1.697  11.573   4.579 -0.2331  0.0716 -0.1738
  163MOL0    Cl21428   1.778  11.570   4.418 -0.2282  0.1892  0.6789
  163MOL0     C21429   1.458  11.734   5.364 -0.9336  0.7102  0.1973
  163MOL0     C21430   1.524  11.720   5.493 -0.5399 -0.1747  0.3495
  163MOL0     O21431   1.540  11.770   5.800 -0.6597 -0.2346  0.6098
  163MOL0     C21432   1.688  11.655   6.023  0.2856 -0.6845  0.2784
  163MOL0     C21433   1.762  11.602   6.125 -0.8175 -0.3509 -0.3673
  163MOL0     N21434   2.200  10.998   6.324  0.2731  0.0666  0.4344
  163MOL0     N21435   2.254  10.899   6.383 -0.3779  0.1866  0.3172
  163MOL0     C21436   2.857  10.948   7.287 -0.1970  0.7569 -0.6478
  163MOL0     C21437   2.811  11.028   7.388  0.3908 -0.2642  0.0566
  163MOL0     C21438   2.584  11.107   7.828 -0.6936 -0.4416 -0.1204
  163MOL0     C21439   2.546  11.065   7.963  0.2562 -0.4237  0.3047
  163MOL0     C21440   2.481  11.149   8.051 -0.0024  0.4696  0.1066
  163MOL0     C21441   2.453  11.281   8.018 -1.2967 -0.7497  0.4394
  163MOL0     O21442   2.394  11.357   8.113 -0.0360 -0.5006 -0.2351
  163MOL0     C21443   2.411  11.501   8.113  0.6855  0.4943 -0.1331
  163MOL0     C21444   2.308  11.587   8.194 -0.1215  0.3691 -0.1425
  163MOL0     C21445   2.368  11.714   8.268  0.0382  1.1710 -0.3113
  163MOL0     C21446   2.265  11.776   8.367 -1.3872 -0.5973 -0.0462
  163MOL0     C21447   2.229  11.696   8.482  0.2174 -0.0797 -0.2089
  163MOL0     C21448   2.212  11.627   8.577  0.1244  0.4005 -0.1322
  163MOL0     C21449   2.489  11.327   7.891 -0.1296 -0.2212 -0.0739
  163MOL0     C21450   2.558  11.244   7.795  0.5722 -0.6175 -0.5505
  163MOL0     H21451   2.629  10.808   7.567 -1.0881 -3.0562 -2.2683
  163MOL0     H21452   2.678  10.674   7.383 -2.1770  0.7450  3.6217
  163MOL0     H21453   2.963  10.815   7.019 -0.0445 -0.7947 -0.4839
  163MOL0     H21454   2.805  10.906   7.026 -2.4901 -1.4579  0.3919
  163MOL0     H21455   2.858  10.622   6.927 -2.7999 -2.0324  0.9062
  163MOL0     H21456   2.793  10.765   6.842 -1.6583 -1.7278 -0.4485
  163MOL0     H21457   2.664  10.608   7.067  1.8236 -0.1177  0.8523
  163MOL0     H21458   2.622  10.586   6.889 -0.1484  0.4815 -0.4310
  163MOL0     H21459   2.566  10.828   7.071 -0.3421  0.5590  0.1403
  163MOL0     H21460   2.565  10.844   6.897  1.4625 -0.8296 -1.7806
  163MOL0     H21461   2.332  10.794   6.985  1.5456  0.8675  0.3274
  163MOL0     H21462   2.400  10.620   7.005  0.9749  0.4460  1.9872
  163MOL0     H21463   2.260  10.651   6.820 -0.2485  0.9946  1.8356
  163MOL0     H21464   2.424  10.615   6.778  1.8461 -0.8283  2.1686
  163MOL0     H21465   2.335  10.917   6.775 -1.0206  1.5243 -1.2502
  163MOL0     H21466   2.450  10.835   6.682  0.1129  0.1267  1.3641
  163MOL0     H21467   2.152  10.774   6.659  0.7002  0.2751  1.2537
  163MOL0     H21468   2.257  10.710   6.553  1.8792  0.1429  0.2205
  163MOL0     H21469   2.079  11.047   6.624 -1.4374 -1.3718 -0.2862
  163MOL0     H21470   1.934  11.159   6.452 -0.7717  1.5184  0.6539
  163MOL0     H21471   2.000  11.178   6.283 -0.1811 -0.4785  0.1893
  163MOL0     H21472   2.181  11.330   6.381  0.5864  0.3477 -0.1238
  163MOL0     H21473   2.127  11.281   6.537 -0.8891 -1.5441 -0.4031
  163MOL0     H21474   1.912  11.410   6.487 -0.1933 -1.6247 -1.9521
  163MOL0     H21475   2.057  11.519   6.480  2.9012 -0.6623 -1.8489
  163MOL0     H21476   2.073  11.430   6.230 -0.7128 -0.8824  0.0590
  163MOL0     H21477   1.979  11.571   6.261 -2.6912  0.1491 -0.7277
  163MOL0     H21478   1.792  11.292   5.984  0.6470 -1.3785  0.8401
  163MOL0     H21479   1.668  11.388   5.815  3.1583  0.4811 -1.0851
  163MOL0     H21480   1.378  11.440   5.600  2.2323 -0.7073 -0.8814
  163MOL0     H21481   1.268  11.453   5.371 -1.6149  1.2149  0.9404
  163MOL0     H21482   1.142  11.527   5.217 -2.4043  0.4932 -1.7049
  163MOL0     H21483   1.266  11.453   5.121 -2.0307 -1.2883  1.1716
  163MOL0     H21484   1.111  11.688   5.014 -0.0445  0.3519 -3.5849
  163MOL0     H21485   1.108  11.519   4.956  0.0104  0.8207 -3.3140
  163MOL0     H21486   1.339  11.716   4.949 -0.7981 -0.3798  1.8492
  163MOL0     H21487   1.246  11.645   4.810 -0.3341  0.1235 -1.2253
  163MOL0     H21488   1.433  11.474   4.975 -2.9318 -0.9661  1.4579
  163MOL0     H21489   1.326  11.420   4.850 -3.0135 -0.9422  2.4278
  163MOL0     H21490   1.548  11.621   4.817 -2.0757 -0.4421  0.7550
  163MOL0     H21491   1.429  11.568   4.688 -1.8971 -1.7540  0.4208
  163MOL0     H21492   1.521  11.320   4.736  1.5256  0.7458 -1.8950
  163MOL0     H21493   1.641  11.399   4.833 -0.3992 -5.3592  0.5686
  163MOL0     H21494   1.738  11.373   4.647 -0.0822 -0.4092  0.7581
  163MOL0     H21495   1.594  11.389   4.556 -0.8574  0.9426  0.9038
  163MOL0     H21496   1.768  11.605   4.655  3.7936 -3.4510 -2.0674
  163MOL0     H21497   1.609  11.637   4.567  0.5530  1.4979  1.3305
  163MOL0     H21498   1.501  11.819   5.313  1.5261  0.5991  1.9179
  163MOL0     H21499   1.600  11.790   5.526 -0.7317 -0.8848  2.4362
  163MOL0     H21500   1.666  11.761   6.012  0.3763 -0.9117 -2.9033
  163MOL0     H21501   1.790  11.668   6.206  2.8208 -0.2171 -1.5794
  163MOL0     H21502   2.933  10.979   7.216  0.0741 -3.5315 -2.5933
  163MOL0     H21503   2.850  11.129   7.397  0.7362 -0.0141 -3.0969
  163MOL0     H21504   2.567  10.961   7.986 -3.1306 -1.3135 -0.1536
  163MOL0     H21505   2.448  11.115   8.149 -0.1190  6.1947  2.4288
  163MOL0     H21506   2.390  11.538   8.013 -1.6217 -1.7948 -0.6193
  163MOL0     H21507   2.515  11.512   8.146  1.1150 -0.4463 -1.1178
  163MOL0     H21508   2.221  11.614   8.134 -1.4495  0.4524  1.7243
  163MOL0     H21509   2.265  11.519   8.268  2.8138 -1.4971 -0.0001
  163MOL0     H21510   2.389  11.791   8.194 -1.5988  1.1335 -0.8474
  163MOL0     H21511   2.457  11.683   8.323  1.1718  1.8861 -1.6828
  163MOL0     H21512   2.303  11.873   8.402  0.1451 -0.6868 -1.3274
  163MOL0     H21513   2.168  11.804   8.324  0.0211  0.5302 -2.7739
  163MOL0     H21514   2.166  11.578   8.660 -3.0219 -0.3297 -2.1153
  163MOL0     H21515   2.466  11.429   7.862  0.9772  0.0128 -0.1814
  163MOL0     H21516   2.586  11.300   7.707  2.6255  0.3990  0.6587
  164MOL0     O21517   5.437   4.312   2.155 -1.2226  0.7769  0.2730
  164MOL0     C21518   5.422   4.355   2.041 -0.4215 -0.0421  0.5426
  164MOL0     O21519   5.307   4.335   1.971  0.2223 -0.5347 -0.3887
  164MOL0     C21520   5.194   4.271   2.020 -0.9913 -0.3765  0.4642
  164MOL0     C21521   5.124   4.213   1.912  0.2551  0.3232 -0.4319
  164MOL0     C21522   5.010   4.134   1.943  0.4179  0.6191 -0.1905
  164MOL0     C21523   4.958   4.116   2.071 -0.5039  0.1219 -1.0802
  164MOL0     O21524   4.842   4.048   2.087 -0.3813 -0.0555 -0.1405
  164MOL0     C21525   4.848   3.937   2.179 -1.5071 -0.4628 -0.5589
  164MOL0     C21526   4.721   3.862   2.158 -0.6751  0.7681  0.2367
  164MOL0     C21527   4.722   3.750   2.258  0.6542  0.3671  0.3293
  164MOL0     C21528   4.598   3.668   2.251  0.5186 -0.2045 -1.7297
  164MOL0     C21529   4.584   3.569   2.367 -0.7863 -0.5281  0.1158
  164MOL0     C21530   4.436   3.534   2.418 -0.2675 -0.5159 -0.1559
  164MOL0     C21531   4.444   3.465   2.561  0.0913 -0.0356 -0.2360
  164MOL0     C21532   4.478   3.315   2.559  0.4417 -0.9545  0.3299
  164MOL0     N21533   4.384   3.237   2.480  0.1490 -0.1873  0.4046
  164MOL0     C21534   4.251   3.257   2.474  0.3446 -1.5121  0.8415
  164MOL0     C21535   4.202   3.188   2.365 -0.2942 -0.0501 -0.5827
  164MOL0     C21536   4.066   3.186   2.304  0.9014  0.1226 -0.4454
  164MOL0     C21537   3.969   3.304   2.339 -1.2317  0.2452 -0.2769
  164MOL0     C21538   3.824   3.275   2.303 -0.5747 -0.9791  1.0064
  164MOL0     C21539   3.770   3.166   2.392 -0.5493  0.1104 -0.1141
  164MOL0     O21540   3.750   3.216   2.526 -0.0683  0.0663 -0.3623
  164MOL0     C21541   3.692   3.145   2.620 -1.4610 -0.2030 -0.4132
  164MOL0     C21542   3.660   3.012   2.611 -1.0051  0.9033  0.0749
  164MOL0     C21543   3.582   2.953   2.708 -0.9903  0.3020 -0.3755
  164MOL0     C21544   3.530   3.020   2.825  0.0671 -1.0026  0.7176
  164MOL0     C21545   3.422   2.968   2.905  1.0850  0.1787 -0.1346
  164MOL0     O21546   3.378   2.837   2.878  0.0419 -0.0927 -0.2782
  164MOL0     C21547   3.255   2.796   2.920 -0.5118  0.2166  0.6825
  164MOL0     C21548   3.237   2.663   2.966 -0.2549 -0.3370 -1.0482
  164MOL0     C21549   3.111   2.605   3.003  0.7185  1.1411  0.5660
  164MOL0     C21550   3.007   2.690   3.028  0.2592  0.3055  0.3694
  164MOL0     O21551   2.896   2.651   3.090  0.2309 -0.2655  0.1329
  164MOL0     C21552   2.816   2.559   3.023 -1.3464  0.1047 -0.2782
  164MOL0     C21553   2.677   2.570   3.090  0.4507 -0.1782  0.5838
  164MOL0     C21554   2.576   2.453   3.062 -0.5991 -0.9247  0.4964
  164MOL0     C21555   2.447   2.483   3.150  0.4669 -1.3142 -0.1455
  164MOL0     C21556   2.453   2.495   3.298 -0.1021 -0.4729 -0.8848
  164MOL0     C21557   2.507   2.373   3.374 -0.5761  0.2149 -0.0710
  164MOL0     C21558   2.477   2.387   3.522  0.5149 -0.4218 -0.7931
  164MOL0     C21559   2.527   2.270   3.615  0.4963  0.0336  0.1026
  164MOL0    Cl21560   2.701   2.264   3.623  0.1645 -0.1756 -0.3881
  164MOL0     C21561   3.013   2.823   2.987  0.0468  1.0565  0.1509
  164MOL0     C21562   3.136   2.868   2.929 -0.7505  0.0886  0.4523
  164MOL0     O21563   3.362   3.033   2.998 -0.6272 -0.9486  0.6622
  164MOL0     C21564   3.582   3.152   2.840 -0.3870 -0.8223  0.2906
  164MOL0     C21565   3.664   3.213   2.734 -0.1809 -0.0833 -0.1399
  164MOL0     N21566   4.313   3.112   2.317 -0.4855  0.7421 -0.5038
  164MOL0     N21567   4.418   3.146   2.382 -1.0417  0.7719  0.4608
  164MOL0     C21568   5.040   4.169   2.176  0.3383  1.0647 -0.3694
  164MOL0     C21569   5.144   4.257   2.150 -0.0960  0.1199 -0.4405
  164MOL0     C21570   5.524   4.448   1.981  0.1773 -0.5268  0.0767
  164MOL0     C21571   5.483   4.555   1.897  0.5382 -1.5899 -0.4132
  164MOL0     C21572   5.585   4.640   1.841 -0.3433  0.0492 -1.0820
  164MOL0     C21573   5.715   4.626   1.872 -0.5754 -0.6866  2.1201
  164MOL0     O21574   5.833   4.680   1.814  0.2645 -0.0130  1.1420
  164MOL0     C21575   5.816   4.778   1.703 -1.0648 -0.0419 -0.4329
  164MOL0     C21576   5.804   4.924   1.755 -0.5147  0.2362  0.1864
  164MOL0     C21577   5.844   5.030   1.645  0.4675  0.0632 -0.1107
  164MOL0     C21578   5.855   5.170   1.692 -0.0158 -1.2116  0.2584
  164MOL0     C21579   5.916   5.256   1.581 -0.0085 -0.3639  0.4719
  164MOL0     C21580   5.958   5.313   1.479  0.0657  0.0785  0.2021
  164MOL0     C21581   5.760   4.523   1.946  0.2358  0.2297  0.0075
  164MOL0     C21582   5.666   4.430   2.002  0.4743 -0.2741  0.4514
  164MOL0     H21583   5.154   4.219   1.807 -1.1766  0.9025 -0.8371
  164MOL0     H21584   4.947   4.093   1.866  0.0557  1.7598 -0.5136
  164MOL0     H21585   4.838   3.971   2.283 -3.5200  1.0540 -1.2002
  164MOL0     H21586   4.938   3.877   2.159 -1.8853 -0.7266 -1.5390
  164MOL0     H21587   4.712   3.823   2.056 -3.0356  0.5840  0.4558
  164MOL0     H21588   4.640   3.934   2.172  1.0440  3.6971 -3.1859
  164MOL0     H21589   4.727   3.798   2.356  1.5218 -2.9218  2.0449
  164MOL0     H21590   4.818   3.701   2.240  0.0760 -1.4266  1.7558
  164MOL0     H21591   4.518   3.742   2.265  3.1218  2.3231  1.2746
  164MOL0     H21592   4.583   3.611   2.159 -3.8414  0.6321 -1.7877
  164MOL0     H21593   4.638   3.610   2.452 -0.1391  1.1566 -1.0392
  164MOL0     H21594   4.635   3.478   2.333  2.4561  1.6362 -1.3280
  164MOL0     H21595   4.376   3.465   2.358 -0.0892 -0.3946 -0.4755
  164MOL0     H21596   4.386   3.632   2.419  0.4856 -0.1256 -0.0805
  164MOL0     H21597   4.523   3.515   2.618 -0.7401  0.5300  0.4266
  164MOL0     H21598   4.349   3.481   2.612  0.0316 -0.6228 -0.1470
  164MOL0     H21599   4.468   3.271   2.658 -0.7243 -1.1459  0.1447
  164MOL0     H21600   4.581   3.317   2.523  0.0254 -2.0391 -1.0449
  164MOL0     H21601   4.197   3.322   2.542  1.1793 -0.1981  0.3014
  164MOL0     H21602   4.013   3.092   2.322 -0.3078  0.8052 -0.3928
  164MOL0     H21603   4.076   3.176   2.195 -1.4196  0.4377 -0.7314
  164MOL0     H21604   4.016   3.392   2.293 -0.5916  0.2624  0.3809
  164MOL0     H21605   3.978   3.327   2.446  2.4436  0.2232 -0.4478
  164MOL0     H21606   3.762   3.365   2.313 -1.6017 -1.8356  3.0859
  164MOL0     H21607   3.823   3.246   2.197  1.2769  0.8469  0.4339
  164MOL0     H21608   3.826   3.072   2.386  0.6322  0.8360 -0.9294
  164MOL0     H21609   3.668   3.136   2.367 -0.4199 -0.2557 -0.2034
  164MOL0     H21610   3.677   2.958   2.519 -2.6927  2.0019 -0.9537
  164MOL0     H21611   3.551   2.852   2.681  0.4322 -0.6984  1.4543
  164MOL0     H21612   3.317   2.591   2.956  0.5804  0.6232 -1.4526
  164MOL0     H21613   3.116   2.502   3.038  2.3772  1.9804  3.1260
  164MOL0     H21614   2.862   2.462   3.045 -1.0082  0.6922  1.8990
  164MOL0     H21615   2.821   2.576   2.915  0.1676 -1.9523 -0.6189
  164MOL0     H21616   2.628   2.662   3.055 -0.4601 -0.4137  1.2033
  164MOL0     H21617   2.692   2.563   3.198 -1.0194 -2.9277  0.6936
  164MOL0     H21618   2.614   2.354   3.090  1.1354  0.4142  3.3044
  164MOL0     H21619   2.568   2.447   2.953  2.0054  3.1774 -0.1579
  164MOL0     H21620   2.410   2.578   3.110  0.2218 -0.5586  1.7430
  164MOL0     H21621   2.373   2.403   3.137  1.4164 -2.5842  1.8400
  164MOL0     H21622   2.350   2.497   3.334  1.0568 -0.8400  2.8466
  164MOL0     H21623   2.493   2.592   3.331 -1.9704  0.5125 -1.3761
  164MOL0     H21624   2.615   2.367   3.362 -0.5374  3.3839 -2.2810
  164MOL0     H21625   2.446   2.286   3.345 -2.0579 -0.0333  3.3122
  164MOL0     H21626   2.527   2.477   3.558 -0.0207 -0.0166 -1.0381
  164MOL0     H21627   2.372   2.416   3.537 -0.3834 -2.8341 -1.9211
  164MOL0     H21628   2.476   2.182   3.574  0.8809 -0.3616  0.4555
  164MOL0     H21629   2.492   2.272   3.719 -0.7483 -1.9024 -0.2420
  164MOL0     H21630   2.923   2.883   2.991 -2.5218 -2.2264 -2.2898
  164MOL0     H21631   3.138   2.973   2.903 -1.4733  0.4303  1.6802
  164MOL0     H21632   3.565   3.202   2.935 -1.7097 -1.8603  0.6272
  164MOL0     H21633   3.695   3.317   2.744 -1.2807  0.5117 -2.3240
  164MOL0     H21634   5.006   4.153   2.277 -0.3038  0.5983 -0.6498
  164MOL0     H21635   5.199   4.304   2.232 -1.1930  0.3943  0.1558
  164MOL0     H21636   5.378   4.571   1.876  1.0448  2.5125 -0.6261
  164MOL0     H21637   5.547   4.709   1.766 -0.7789 -1.4086 -2.2325
  164MOL0     H21638   5.735   4.761   1.632  0.0498 -1.3698 -1.4440
  164MOL0     H21639   5.907   4.775   1.644 -3.1238 -0.8831 -3.7968
  164MOL0     H21640   5.698   4.930   1.781 -0.0612  3.4358  1.6590
  164MOL0     H21641   5.863   4.940   1.846  0.1691 -1.5296  0.1082
  164MOL0     H21642   5.781   5.020   1.555  2.2455 -2.7682 -1.2038
  164MOL0     H21643   5.944   5.000   1.613 -0.2435  0.1498 -2.6505
  164MOL0     H21644   5.757   5.211   1.721  0.1887 -1.0983  0.7996
  164MOL0     H21645   5.911   5.176   1.786 -0.4248  4.5486  0.5149
  164MOL0     H21646   5.990   5.361   1.388 -0.7845 -0.4808 -0.4047
  164MOL0     H21647   5.865   4.497   1.950 -0.3712 -2.6398 -0.4330
  164MOL0     H21648   5.712   4.351   2.061  5.8397  0.6919 -1.8535
  165MOL0     O21649   0.018   0.998   3.250 -0.8307 -0.0587 -0.2773
  165MOL0     C21650   0.069   1.006   3.360 -0.3174  0.0861  0.7227
  165MOL0     O21651   0.168   1.091   3.406  0.4163 -0.0997 -0.1630
  165MOL0     C21652   0.194   1.210   3.328 -0.5571  0.8032 -1.3606
  165MOL0     C21653   0.106   1.292   3.253 -0.3924 -0.1965  0.3216
  165MOL0     C21654   0.150   1.413   3.194 -0.5104 -0.0081 -0.4091
  165MOL0     C21655   0.284   1.457   3.195  0.8962  0.1841 -0.6784
  165MOL0     O21656   0.331   1.563   3.120 -0.6101 -0.5343  0.6470
  165MOL0     C21657   0.297   1.553   2.981  0.3900  0.1985  0.2034
  165MOL0     C21658   0.405   1.624   2.907  0.4949 -0.1546  0.7533
  165MOL0     C21659   0.417   1.781   2.900 -1.0915  0.5782 -0.8118
  165MOL0     C21660   0.275   1.844   2.894 -0.2556 -0.4527 -0.1975
  165MOL0     C21661   0.272   1.997   2.883  0.5042  0.1649  0.5188
  165MOL0     C21662   0.307   2.053   2.749 -0.5812 -0.2147 -0.3864
  165MOL0     C21663   0.270   2.198   2.737  0.0545  0.2065  0.1729
  165MOL0     C21664   0.389   2.283   2.780 -0.7333 -0.6588  0.5291
  165MOL0     N21665   0.421   2.296   2.923  0.0893 -0.2869  0.7284
  165MOL0     C21666   0.325   2.307   3.016  0.7511 -0.4407  0.7434
  165MOL0     C21667   0.397   2.306   3.133  0.4291 -0.0115 -0.5302
  165MOL0     C21668   0.342   2.255   3.266  0.7475  0.4883  0.0403
  165MOL0     C21669   0.373   2.357   3.377  0.7023 -0.0097 -0.3230
  165MOL0     C21670   0.294   2.324   3.514  0.9942  0.8187 -0.7919
  165MOL0     C21671   0.137   2.293   3.493  0.2562 -0.2611 -0.3257
  165MOL0     O21672   0.062   2.353   3.599 -0.3139  1.2124  1.2274
  165MOL0     C21673   0.034   2.255   3.694  0.5603 -0.0741  0.4801
  165MOL0     C21674  -0.066   2.165   3.674  1.1214 -0.7616 -1.0575
  165MOL0     C21675  -0.094   2.065   3.770 -1.1496 -0.5262 -0.6906
  165MOL0     C21676  -0.016   2.058   3.893 -1.0249  0.2269  1.1227
  165MOL0     C21677  -0.008   1.946   3.982  1.1366  0.1281 -0.2449
  165MOL0     O21678   0.075   1.945   4.091 -0.5900  0.5016  0.7195
  165MOL0     C21679   0.091   1.819   4.155 -0.0125 -0.7226 -0.3995
  165MOL0     C21680   0.177   1.721   4.097  1.2229  0.2069  1.0838
  165MOL0     C21681   0.189   1.598   4.169  0.7362 -0.1061 -0.2024
  165MOL0     C21682   0.123   1.571   4.289 -0.0119  0.5063  0.3257
  165MOL0     O21683   0.149   1.450   4.336 -0.4807 -0.5149  0.4955
  165MOL0     C21684   0.099   1.430   4.472  0.2322  0.0540 -0.7003
  165MOL0     C21685   0.165   1.297   4.516  0.1541 -0.5419  0.6037
  165MOL0     C21686   0.140   1.265   4.666  0.6496  0.2390 -0.2783
  165MOL0     C21687   0.200   1.139   4.723 -0.9672  0.4604 -0.3792
  165MOL0     C21688   0.144   1.095   4.863 -0.3300  1.1670 -0.1827
  165MOL0     C21689   0.178   0.945   4.894 -0.2343  0.9437  0.1686
  165MOL0     C21690   0.084   0.879   4.990 -0.6239 -0.7755 -0.1803
  165MOL0     C21691   0.059   0.957   5.130 -0.3440 -0.4412 -0.1395
  165MOL0    Cl21692   0.208   0.932   5.221  0.2908 -0.4502  0.1402
  165MOL0     C21693   0.038   1.669   4.341  0.6601  0.3759 -0.1595
  165MOL0     C21694   0.029   1.791   4.275 -0.2623  1.2815 -0.6882
  165MOL0     O21695  -0.103   1.870   3.966  0.3076 -0.2115 -0.5831
  165MOL0     C21696   0.080   2.160   3.910  0.5662  0.3218 -0.6076
  165MOL0     C21697   0.099   2.266   3.815  0.3130  0.9493  0.0888
  165MOL0     N21698   0.529   2.324   3.099  0.7697  0.4497 -0.7326
  165MOL0     N21699   0.545   2.315   2.974 -0.5046  0.2983 -0.4265
  165MOL0     C21700   0.371   1.373   3.270 -0.0450  0.3904  0.3961
  165MOL0     C21701   0.327   1.253   3.333 -1.2957 -0.7323  0.8600
  165MOL0     C21702   0.018   0.904   3.470 -0.8016  0.4733 -0.0000
  165MOL0     C21703  -0.098   0.821   3.448  0.2262  0.0147  0.4120
  165MOL0     C21704  -0.140   0.727   3.541  0.6467 -0.3288  0.6727
  165MOL0     C21705  -0.061   0.696   3.650 -0.4535 -0.9058 -0.2547
  165MOL0     O21706  -0.093   0.603   3.744 -0.5974 -0.1371  0.3727
  165MOL0     C21707  -0.096   0.467   3.684 -0.6197  0.7842 -0.0359
  165MOL0     C21708  -0.013   0.382   3.789  0.6513  0.1472  0.9535
  165MOL0     C21709   0.022   0.245   3.725  0.1047  0.2601 -0.1835
  165MOL0     C21710  -0.101   0.153   3.696  0.5222 -0.3939 -0.8659
  165MOL0     C21711  -0.137   0.073   3.815  0.4067  0.4027 -0.6062
  165MOL0     C21712  -0.161   0.010   3.917 -0.4236  0.7707  0.8218
  165MOL0     C21713   0.052   0.779   3.673 -0.4462  0.9150 -0.5698
  165MOL0     C21714   0.087   0.889   3.596  0.8408 -0.8940 -0.2781
  165MOL0     H21715   0.009   1.248   3.233 -1.3433 -0.1932  4.2381
  165MOL0     H21716   0.075   1.464   3.134 -2.5062 -0.4833  1.5453
  165MOL0     H21717   0.202   1.606   2.967  1.3444  1.6638 -0.9625
  165MOL0     H21718   0.275   1.449   2.953  0.6184  0.6079 -1.5976
  165MOL0     H21719   0.401   1.587   2.804  1.4812 -2.6096  1.5109
  165MOL0     H21720   0.491   1.580   2.959 -0.6102 -2.0046  1.0936
  165MOL0     H21721   0.491   1.814   2.827  0.9650 -0.0695  0.8672
  165MOL0     H21722   0.466   1.806   2.994 -0.4276 -1.1062 -0.6677
  165MOL0     H21723   0.206   1.792   2.826  0.5569  0.5351 -1.8462
  165MOL0     H21724   0.241   1.828   2.996  4.0719 -1.6101  1.2512
  165MOL0     H21725   0.351   2.029   2.951 -3.7005  4.0393  4.2259
  165MOL0     H21726   0.175   2.040   2.908  0.1773  0.8803 -1.6820
  165MOL0     H21727   0.259   1.992   2.672  1.2040  0.0485 -1.7662
  165MOL0     H21728   0.409   2.029   2.718 -0.5524  1.1697 -1.4193
  165MOL0     H21729   0.242   2.228   2.636 -0.5536 -0.9237 -0.0042
  165MOL0     H21730   0.179   2.218   2.795  0.5038  3.0638  0.0405
  165MOL0     H21731   0.382   2.384   2.740  1.1475 -0.4454  0.6882
  165MOL0     H21732   0.474   2.246   2.722  0.6639 -1.0558  2.7355
  165MOL0     H21733   0.217   2.294   3.023  0.6078  0.5496  0.4487
  165MOL0     H21734   0.386   2.157   3.287  1.1063  1.0320  2.0807
  165MOL0     H21735   0.235   2.237   3.260  0.7778  0.4476 -0.3932
  165MOL0     H21736   0.343   2.458   3.351  0.6236 -0.2962 -1.3836
  165MOL0     H21737   0.479   2.350   3.405  0.5495  2.9501  1.4528
  165MOL0     H21738   0.344   2.237   3.557 -3.3062 -0.3221  2.6479
  165MOL0     H21739   0.306   2.409   3.582 -0.7867  4.1444 -4.1943
  165MOL0     H21740   0.118   2.186   3.486 -2.5012  0.2229 -1.7239
  165MOL0     H21741   0.084   2.334   3.406 -3.8604  0.2668  2.1774
  165MOL0     H21742  -0.123   2.155   3.582  1.6778 -1.6137 -1.3207
  165MOL0     H21743  -0.161   1.982   3.748  2.2864 -3.2508 -1.6915
  165MOL0     H21744   0.221   1.739   4.000 -1.6051  3.4253  0.1990
  165MOL0     H21745   0.244   1.520   4.117 -0.3868 -2.5295  1.9731
  165MOL0     H21746  -0.011   1.428   4.479  0.0379 -0.0400 -3.0182
  165MOL0     H21747   0.117   1.516   4.538 -4.0593  0.9276 -0.3263
  165MOL0     H21748   0.273   1.304   4.498  0.2860 -0.7110  1.2802
  165MOL0     H21749   0.118   1.219   4.455  2.4563  0.4637 -2.6780
  165MOL0     H21750   0.033   1.263   4.688  0.4748 -0.0162 -1.1400
  165MOL0     H21751   0.182   1.347   4.725  3.6944  0.1393 -2.0888
  165MOL0     H21752   0.184   1.060   4.648 -3.1116 -1.9694  2.4009
  165MOL0     H21753   0.305   1.162   4.744 -1.5164  2.4746  0.3710
  165MOL0     H21754   0.035   1.102   4.862 -0.2382  2.8379  0.0543
  165MOL0     H21755   0.188   1.161   4.938  2.2890 -1.5116  0.8810
  165MOL0     H21756   0.285   0.942   4.919  0.6007  1.1925 -2.9518
  165MOL0     H21757   0.174   0.886   4.802  0.3218  1.1388  0.0139
  165MOL0     H21758  -0.006   0.882   4.927 -0.3990  1.9202 -0.4894
  165MOL0     H21759   0.120   0.776   4.998  1.5741 -0.1973 -1.6697
  165MOL0     H21760  -0.025   0.897   5.167 -1.9581  0.6635 -1.8282
  165MOL0     H21761   0.037   1.064   5.118 -1.2154 -0.6686 -0.6519
  165MOL0     H21762  -0.015   1.656   4.434  1.1851 -0.7473 -0.0005
  165MOL0     H21763  -0.040   1.860   4.323 -5.0034 -3.4637  0.2095
  165MOL0     H21764   0.147   2.166   3.995  2.8699 -0.9095 -2.2103
  165MOL0     H21765   0.174   2.344   3.817  1.7344 -0.3461 -0.3831
  165MOL0     H21766   0.476   1.402   3.275  0.5294 -0.9725 -2.0042
  165MOL0     H21767   0.405   1.193   3.379  0.5958  1.4427  0.6804
  165MOL0     H21768  -0.159   0.858   3.366 -2.4057  1.5415  2.8798
  165MOL0     H21769  -0.233   0.672   3.527  1.6225 -3.1392  3.9576
  165MOL0     H21770  -0.049   0.483   3.586 -1.4363  1.5067 -0.3312
  165MOL0     H21771  -0.199   0.439   3.661 -0.4913  0.3972 -0.1481
  165MOL0     H21772   0.073   0.442   3.819 -0.0352  1.3564  0.5597
  165MOL0     H21773  -0.066   0.350   3.880 -0.3844 -0.2761  0.2187
  165MOL0     H21774   0.087   0.197   3.798  0.5189 -1.0322 -1.3517
  165MOL0     H21775   0.087   0.260   3.638 -1.1027 -1.3797 -1.4391
  165MOL0     H21776  -0.190   0.205   3.660  1.6103  2.3627  0.1722
  165MOL0     H21777  -0.079   0.087   3.612 -0.8641 -0.4786 -1.1901
  165MOL0     H21778  -0.183  -0.036   4.011 -1.7592 -0.0898  0.1333
  165MOL0     H21779   0.114   0.766   3.762  0.4363  0.4010 -1.2443
  165MOL0     H21780   0.162   0.960   3.629  0.0341  0.3049 -0.9527
  166MOL0     O21781  10.222   5.556   0.640  0.2136 -0.2695 -0.8494
  166MOL0     C21782  10.162   5.462   0.690 -0.8793 -0.0532  0.1740
  166MOL0     O21783  10.027   5.454   0.693 -0.2189 -0.4485 -0.2972
  166MOL0     C21784   9.946   5.566   0.686 -0.7539 -0.0606 -0.7320
  166MOL0     C21785   9.817   5.516   0.721  0.2043  0.0707 -0.5912
  166MOL0     C21786   9.703   5.601   0.704 -0.7757 -0.1174 -0.1696
  166MOL0     C21787   9.723   5.740   0.669  0.0249  0.3237  0.5255
  166MOL0     O21788   9.612   5.826   0.693 -0.8906 -0.5882 -0.2621
  166MOL0     C21789   9.600   5.940   0.605 -1.2831 -0.0526 -0.4612
  166MOL0     C21790   9.446   5.960   0.578 -0.0309 -0.3325 -0.1577
  166MOL0     C21791   9.379   5.839   0.519  0.0967  0.8958 -0.1887
  166MOL0     C21792   9.250   5.876   0.460  0.5076 -1.1789  0.3394
  166MOL0     C21793   9.172   5.755   0.414  0.5448  0.1233  0.3987
  166MOL0     C21794   9.056   5.783   0.312 -0.2260  0.6122  0.2915
  166MOL0     C21795   8.966   5.661   0.283  0.1932  0.3726 -0.0366
  166MOL0     C21796   8.858   5.706   0.178  0.0004 -0.8204  0.6814
  166MOL0     N21797   8.769   5.817   0.225  0.1256  1.8483 -0.1925
  166MOL0     C21798   8.762   5.949   0.196 -0.1596  0.7957 -0.5110
  166MOL0     C21799   8.661   6.006   0.263  0.9325  0.7897 -1.0604
  166MOL0     C21800   8.615   6.149   0.281 -0.3133 -0.6606  0.1027
  166MOL0     C21801   8.629   6.224   0.135  0.1049  0.4197 -0.4553
  166MOL0     C21802   8.758   6.294   0.113  0.8643 -0.7340  0.8426
  166MOL0     C21803   8.776   6.353  -0.034 -0.0272  0.0793 -0.9460
  166MOL0     O21804   8.900   6.427  -0.028 -0.0415 -0.3668 -0.0893
  166MOL0     C21805   8.976   6.457  -0.139  0.0821 -0.3687 -0.2816
  166MOL0     C21806   9.107   6.504  -0.112 -0.0767 -0.2562 -0.7750
  166MOL0     C21807   9.197   6.551  -0.210  0.0611  0.1987  0.5663
  166MOL0     C21808   9.165   6.523  -0.344 -0.1026  0.3785 -0.1130
  166MOL0     C21809   9.261   6.569  -0.447  0.6876  0.0540  0.1544
  166MOL0     O21810   9.376   6.618  -0.413  0.0391 -0.3327  0.3599
  166MOL0     C21811   9.467   6.667  -0.514 -0.4568  0.3549  0.5983
  166MOL0     C21812   9.488   6.617  -0.645 -0.2647 -0.0024 -0.8710
  166MOL0     C21813   9.598   6.657  -0.733  0.4644 -0.0548 -0.8157
  166MOL0     C21814   9.680   6.764  -0.679 -0.3728 -0.2564 -0.0327
  166MOL0     O21815   9.765   6.817  -0.767  0.2149 -0.3111  0.3828
  166MOL0     C21816   9.881   6.862  -0.701 -0.1152 -0.4312 -0.5800
  166MOL0     C21817   9.979   6.856  -0.820  0.9905 -0.6696 -0.5971
  166MOL0     C21818  10.119   6.897  -0.784 -0.1937 -1.1722 -0.0081
  166MOL0     C21819  10.207   6.867  -0.910  0.0328 -0.4071  0.1445
  166MOL0     C21820  10.318   6.964  -0.914  0.4055  0.8532  0.1171
  166MOL0     C21821  10.450   6.905  -0.976  0.2621  0.8265  0.0338
  166MOL0     C21822  10.437   6.850  -1.122 -0.1365 -0.2263 -0.0841
  166MOL0     C21823  10.369   6.725  -1.155  0.4719  0.4524 -0.1720
  166MOL0    Cl21824  10.430   6.678  -1.312 -0.2692  0.3421 -0.4413
  166MOL0     C21825   9.662   6.806  -0.543  0.2935  0.0152 -1.4292
  166MOL0     C21826   9.566   6.753  -0.461  0.0026  0.9363 -0.2842
  166MOL0     O21827   9.216   6.576  -0.559 -0.0328  0.0060  0.0413
  166MOL0     C21828   9.036   6.462  -0.370  0.9167  0.1435 -0.3397
  166MOL0     C21829   8.934   6.442  -0.275 -1.1320  0.2234 -0.4456
  166MOL0     N21830   8.591   5.901   0.322 -0.7513 -1.0489 -0.0213
  166MOL0     N21831   8.654   5.796   0.300  0.5277 -0.4252  0.1674
  166MOL0     C21832   9.858   5.781   0.642  0.4367  0.3065 -0.0088
  166MOL0     C21833   9.964   5.694   0.643 -0.7472 -0.0492 -0.1482
  166MOL0     C21834  10.234   5.334   0.728  0.1661  0.7232  1.1204
  166MOL0     C21835  10.163   5.220   0.767 -0.4224 -0.1263  0.4129
  166MOL0     C21836  10.232   5.105   0.780 -0.3048  0.5241  0.6672
  166MOL0     C21837  10.370   5.090   0.752  1.1507  0.0826 -1.1190
  166MOL0     O21838  10.438   4.974   0.774 -0.2968  0.5631 -0.5235
  166MOL0     C21839  10.526   4.978   0.887 -1.0090 -0.0005 -0.2989
  166MOL0     C21840  10.478   4.878   0.996  0.4041  0.7795  0.2616
  166MOL0     C21841  10.341   4.913   1.054  0.2023  0.2265  0.2222
  166MOL0     C21842  10.319   4.843   1.187  0.7007 -0.1267 -0.1142
  166MOL0     C21843  10.323   4.702   1.154 -1.2653  1.4383 -0.4027
  166MOL0     C21844  10.305   4.577   1.146  1.1906  0.3970  0.0048
  166MOL0     C21845  10.432   5.203   0.704 -0.4053 -0.5304 -0.6903
  166MOL0     C21846  10.365   5.325   0.697  0.2065 -0.3605  0.2901
  166MOL0     H21847   9.809   5.413   0.754  1.8143  0.0786 -0.1082
  166MOL0     H21848   9.606   5.562   0.733 -1.3667  0.0581 -1.8146
  166MOL0     H21849   9.656   5.919   0.513  0.5862 -0.5671  0.7355
  166MOL0     H21850   9.642   6.032   0.646 -1.5075  0.0983 -0.5628
  166MOL0     H21851   9.418   6.047   0.518  0.2625  1.4587  2.1387
  166MOL0     H21852   9.394   5.982   0.672  1.0392 -0.3599  0.4620
  166MOL0     H21853   9.365   5.761   0.594  2.9724  0.3777 -0.0748
  166MOL0     H21854   9.442   5.792   0.443 -1.3002 -1.4835  0.0148
  166MOL0     H21855   9.187   5.917   0.539 -1.1411 -3.0338  0.0580
  166MOL0     H21856   9.264   5.949   0.379 -0.9968 -1.8754 -0.5969
  166MOL0     H21857   9.136   5.701   0.502 -1.3678  0.3590 -0.1936
  166MOL0     H21858   9.223   5.673   0.361 -1.2050 -0.9720  0.3212
  166MOL0     H21859   9.092   5.820   0.215 -1.2230 -2.2763 -1.3188
  166MOL0     H21860   9.002   5.868   0.355  0.5531  0.5004  1.5388
  166MOL0     H21861   9.025   5.579   0.241  1.7897  1.4881 -0.0320
  166MOL0     H21862   8.906   5.632   0.370  0.6061 -2.6955 -0.6674
  166MOL0     H21863   8.803   5.614   0.154 -0.6164  0.3213 -2.8813
  166MOL0     H21864   8.905   5.740   0.085 -2.1396  0.4000  0.0003
  166MOL0     H21865   8.828   6.009   0.134  1.4529 -0.2640  0.1252
  166MOL0     H21866   8.669   6.221   0.343 -1.1050  1.9820 -2.0613
  166MOL0     H21867   8.512   6.146   0.319  1.0357 -3.6365  4.2311
  166MOL0     H21868   8.550   6.301   0.134 -0.3061  0.0498  0.7855
  166MOL0     H21869   8.618   6.146   0.060 -0.9677 -1.3714  1.4518
  166MOL0     H21870   8.772   6.362   0.197  0.1720  1.9230 -1.0719
  166MOL0     H21871   8.835   6.222   0.142  3.0702  1.9979  2.2224
  166MOL0     H21872   8.695   6.426  -0.048 -1.5714 -1.1637  1.0136
  166MOL0     H21873   8.770   6.275  -0.111 -4.4909  0.1070 -0.8716
  166MOL0     H21874   9.134   6.514  -0.007  2.2030 -1.1444 -1.2328
  166MOL0     H21875   9.290   6.602  -0.187  1.2441 -0.3559 -2.4528
  166MOL0     H21876   9.432   6.536  -0.690 -0.7179 -0.6759  0.8189
  166MOL0     H21877   9.592   6.618  -0.834  2.0934  0.5190 -1.1690
  166MOL0     H21878   9.922   6.791  -0.629  2.7878  0.3079 -1.3904
  166MOL0     H21879   9.876   6.960  -0.654 -1.0027 -1.6689  2.1346
  166MOL0     H21880   9.930   6.916  -0.897 -0.2360 -1.1108 -0.1791
  166MOL0     H21881   9.977   6.755  -0.862 -0.2006 -0.4305 -1.1496
  166MOL0     H21882  10.156   6.827  -0.708  0.3809  1.2817  2.1111
  166MOL0     H21883  10.133   6.995  -0.737  1.1300 -1.8551  1.0771
  166MOL0     H21884  10.244   6.765  -0.896  1.0951 -0.0747 -0.1610
  166MOL0     H21885  10.144   6.889  -0.997 -1.6879  2.0034  1.8368
  166MOL0     H21886  10.331   6.993  -0.809 -3.8640  0.0684  1.0566
  166MOL0     H21887  10.273   7.050  -0.963 -2.3714 -1.2417 -1.3478
  166MOL0     H21888  10.483   6.830  -0.904  0.0879  0.3851 -0.3494
  166MOL0     H21889  10.528   6.982  -0.972  1.4119 -0.3478  0.6943
  166MOL0     H21890  10.380   6.920  -1.184 -0.9908 -2.2718 -1.7051
  166MOL0     H21891  10.536   6.843  -1.169 -1.1450 -1.8704 -2.1305
  166MOL0     H21892  10.260   6.736  -1.161 -0.0621 -3.3333  0.1197
  166MOL0     H21893  10.395   6.655  -1.075  4.9836  2.2778  0.2318
  166MOL0     H21894   9.719   6.873  -0.479 -1.2861  0.9221 -0.9078
  166MOL0     H21895   9.546   6.773  -0.356 -2.0274  1.5836 -0.7517
  166MOL0     H21896   9.005   6.411  -0.460 -0.4836  0.6784 -0.1847
  166MOL0     H21897   8.845   6.388  -0.305 -1.9363  1.6791 -0.7852
  166MOL0     H21898   9.873   5.886   0.621 -1.7319  0.7644  0.4306
  166MOL0     H21899  10.061   5.723   0.604 -2.2356  1.5742 -2.9749
  166MOL0     H21900  10.057   5.229   0.790 -0.1674 -0.4225  1.7178
  166MOL0     H21901  10.177   5.023   0.823  1.7161 -0.9267  0.6141
  166MOL0     H21902  10.529   5.082   0.919  0.0667  0.4296 -1.7217
  166MOL0     H21903  10.622   4.948   0.845 -2.0762 -1.0330 -2.1509
  166MOL0     H21904  10.481   4.774   0.961 -1.2138  1.1868 -1.2223
  166MOL0     H21905  10.543   4.880   1.084 -0.7065  2.4595  1.0895
  166MOL0     H21906  10.266   4.889   0.978 -2.0530  2.2375  1.6527
  166MOL0     H21907  10.341   5.022   1.062 -2.8178  0.3390 -0.4243
  166MOL0     H21908  10.384   4.884   1.265  1.3637  3.5715 -2.3464
  166MOL0     H21909  10.219   4.863   1.226  0.1036 -1.7552 -0.7181
  166MOL0     H21910  10.267   4.477   1.153  0.7242  0.5952  0.3033
  166MOL0     H21911  10.539   5.196   0.688  0.4677  1.9679  2.9644
  166MOL0     H21912  10.422   5.407   0.655 -1.3389  0.3763 -0.4434
  167MOL0     O21913   8.023   7.968   7.241 -0.7667 -0.1011 -0.3199
  167MOL0     C21914   8.002   7.932   7.132  1.4010 -0.6663  0.2229
  167MOL0     O21915   7.895   7.980   7.057 -0.1515 -0.0749  0.3166
  167MOL0     C21916   7.803   8.058   7.122 -0.4032 -0.5706 -0.1541
  167MOL0     C21917   7.747   8.015   7.246  0.0086  0.0974  0.5069
  167MOL0     C21918   7.656   8.089   7.311  1.2971 -0.4492 -0.7467
  167MOL0     C21919   7.629   8.224   7.291  0.8399  0.2173 -0.7199
  167MOL0     O21920   7.539   8.294   7.362  0.3839  0.1732 -0.6669
  167MOL0     C21921   7.534   8.268   7.503  0.8703 -0.0772  0.1838
  167MOL0     C21922   7.420   8.359   7.564  0.2543  0.8010 -0.1048
  167MOL0     C21923   7.289   8.277   7.538 -0.3108 -0.6408 -0.5558
  167MOL0     C21924   7.175   8.344   7.608  0.3008  0.2076 -0.5267
  167MOL0     C21925   7.101   8.435   7.530  0.5254  0.2764  0.4126
  167MOL0     C21926   6.959   8.465   7.585 -0.1632  0.0577 -0.3405
  167MOL0     C21927   6.871   8.553   7.490 -0.6012  0.3091  0.1641
  167MOL0     C21928   6.925   8.691   7.458 -0.1072  0.8692 -0.1333
  167MOL0     N21929   7.005   8.762   7.565  0.2320 -0.5273  0.6506
  167MOL0     C21930   6.961   8.817   7.680  0.5524  0.6420 -0.6357
  167MOL0     C21931   7.067   8.886   7.736 -0.2460  0.7124 -0.1992
  167MOL0     C21932   7.063   8.955   7.877  0.2917  0.3856 -0.0894
  167MOL0     C21933   7.193   9.015   7.914 -0.6178 -0.2945  0.5461
  167MOL0     C21934   7.215   9.052   8.053  1.1038  0.8632  0.1023
  167MOL0     C21935   7.314   9.171   8.059  0.9479 -0.0627 -0.6552
  167MOL0     O21936   7.237   9.287   8.106  0.2202 -0.3962  0.5624
  167MOL0     C21937   7.202   9.292   8.238  0.6304 -0.4542  0.1898
  167MOL0     C21938   7.198   9.184   8.334 -0.0178  0.1345 -0.0384
  167MOL0     C21939   7.177   9.200   8.469 -0.5468  0.0871  0.4023
  167MOL0     C21940   7.120   9.326   8.499 -0.1083 -0.1928 -0.4275
  167MOL0     C21941   7.077   9.352   8.636  0.8878 -0.3721  0.8644
  167MOL0     O21942   7.033   9.473   8.671  0.5505 -0.2615 -0.4934
  167MOL0     C21943   6.972   9.489   8.800 -0.4070 -0.2772 -0.2185
  167MOL0     C21944   7.025   9.582   8.886 -0.8365  0.6644 -0.1614
  167MOL0     C21945   6.955   9.611   9.005  0.5719  0.1081 -0.7504
  167MOL0     C21946   6.836   9.551   9.035  0.6235  0.4688 -0.3005
  167MOL0     O21947   6.776   9.576   9.152 -0.2786 -0.0592  0.0700
  167MOL0     C21948   6.664   9.660   9.152 -0.1437 -0.1217 -0.1626
  167MOL0     C21949   6.649   9.732   9.286 -0.0259  0.8846  0.3498
  167MOL0     C21950   6.626   9.620   9.396 -0.1557 -0.5601 -0.3455
  167MOL0     C21951   6.477   9.587   9.424 -0.7799  0.2465  0.0594
  167MOL0     C21952   6.401   9.708   9.492 -0.9413  0.7032  0.7823
  167MOL0     C21953   6.261   9.669   9.554  0.6249 -0.4995  0.1150
  167MOL0     C21954   6.216   9.766   9.657  1.1639  0.4326 -0.3644
  167MOL0     C21955   6.065   9.793   9.637 -0.4822  0.5983  0.2724
  167MOL0    Cl21956   6.016   9.875   9.478  0.1447  0.3492 -0.1882
  167MOL0     C21957   6.773   9.462   8.944 -0.1659 -0.0567  0.6865
  167MOL0     C21958   6.844   9.443   8.818  1.5875 -0.2221 -0.4943
  167MOL0     O21959   7.060   9.249   8.704  0.2214  0.4950 -1.3563
  167MOL0     C21960   7.102   9.431   8.400 -0.4106  0.8130 -0.3873
  167MOL0     C21961   7.135   9.415   8.273 -0.5352  0.3319  0.5517
  167MOL0     N21962   7.170   8.883   7.639 -0.2914  0.2918  0.0283
  167MOL0     N21963   7.130   8.798   7.549  0.2720 -0.3023  1.1724
  167MOL0     C21964   7.678   8.268   7.165 -0.4158  0.2324 -0.4637
  167MOL0     C21965   7.758   8.184   7.077  0.3471  0.7111 -0.0445
  167MOL0     C21966   8.097   7.837   7.079 -0.1307 -0.3596  0.1663
  167MOL0     C21967   8.073   7.738   6.979  0.9909  0.8181 -0.4252
  167MOL0     C21968   8.165   7.641   6.944  0.3520  0.2286  0.5417
  167MOL0     C21969   8.299   7.657   6.968 -0.7579 -0.3139 -0.0933
  167MOL0     O21970   8.384   7.559   6.917 -0.6263  0.4772 -0.4900
  167MOL0     C21971   8.514   7.561   6.968 -0.7808 -0.1529  0.5231
  167MOL0     C21972   8.603   7.454   6.890  0.1909 -0.1926  0.4389
  167MOL0     C21973   8.579   7.308   6.933  1.4269  0.3197  0.3276
  167MOL0     C21974   8.649   7.203   6.841  0.4255  0.0652 -0.1315
  167MOL0     C21975   8.592   7.197   6.713  0.2963 -0.2957  0.2979
  167MOL0     C21976   8.547   7.208   6.601 -0.7158 -0.2484  0.4688
  167MOL0     C21977   8.332   7.762   7.050  0.3372  0.5677  0.5118
  167MOL0     C21978   8.233   7.842   7.116 -0.8059 -0.2303 -0.0406
  167MOL0     H21979   7.760   7.911   7.277 -0.4691 -0.7947 -1.9996
  167MOL0     H21980   7.626   8.039   7.402 -1.1659  1.7194 -0.2417
  167MOL0     H21981   7.626   8.290   7.559  1.6333  1.6463 -1.6093
  167MOL0     H21982   7.502   8.164   7.515 -0.8583 -0.2743 -4.2944
  167MOL0     H21983   7.424   8.451   7.504  1.5520 -0.2213 -1.6539
  167MOL0     H21984   7.434   8.386   7.669  1.2865  3.5792 -0.8753
  167MOL0     H21985   7.283   8.176   7.578 -2.1257 -0.6258 -0.7011
  167MOL0     H21986   7.287   8.268   7.429  2.4904 -0.6950 -0.6702
  167MOL0     H21987   7.106   8.267   7.643 -0.2408  0.2005 -1.5721
  167MOL0     H21988   7.210   8.395   7.698 -0.6216 -0.2909  0.1232
  167MOL0     H21989   7.085   8.389   7.432  0.8295  0.7846  0.1215
  167MOL0     H21990   7.155   8.529   7.518  0.2119  0.7156  2.1967
  167MOL0     H21991   6.981   8.515   7.679 -0.5072  2.6808 -1.5647
  167MOL0     H21992   6.905   8.372   7.604  0.2359 -0.1677 -0.3042
  167MOL0     H21993   6.852   8.498   7.397  1.9416 -1.8727  0.7824
  167MOL0     H21994   6.774   8.561   7.540 -0.5481 -0.4989  0.4135
  167MOL0     H21995   6.842   8.762   7.452 -1.0001 -0.2790 -2.3867
  167MOL0     H21996   6.986   8.691   7.368  0.6512  2.4076  0.3466
  167MOL0     H21997   6.863   8.807   7.725  0.6355 -1.4602 -0.8339
  167MOL0     H21998   7.039   8.876   7.949  2.0340  0.8188  1.0145
  167MOL0     H21999   6.988   9.034   7.869 -0.7804 -0.4112  1.3678
  167MOL0     H22000   7.210   9.099   7.846  1.5855 -0.9658  0.2012
  167MOL0     H22001   7.282   8.959   7.886  0.1560  0.2975  1.7617
  167MOL0     H22002   7.121   9.076   8.104  0.7168  0.8234 -0.5801
  167MOL0     H22003   7.257   8.966   8.105  0.2859  0.7561  0.5993
  167MOL0     H22004   7.376   9.180   7.970  3.1263 -3.3727  0.3271
  167MOL0     H22005   7.386   9.145   8.137  0.2560 -0.9112 -0.2736
  167MOL0     H22006   7.240   9.087   8.311 -1.2420 -1.2706  3.0139
  167MOL0     H22007   7.192   9.115   8.535  3.3089 -0.6139 -1.1289
  167MOL0     H22008   7.118   9.633   8.860  1.4690 -3.4299 -0.7256
  167MOL0     H22009   6.997   9.661   9.092 -1.7051 -1.4355  1.3563
  167MOL0     H22010   6.569   9.610   9.134 -1.8694  1.9222  2.4634
  167MOL0     H22011   6.676   9.743   9.081 -1.8971  0.5232  0.2437
  167MOL0     H22012   6.583   9.819   9.284 -0.3779  0.6367  0.9716
  167MOL0     H22013   6.748   9.760   9.321  1.1844 -4.2455  1.9467
  167MOL0     H22014   6.655   9.639   9.500 -1.5018 -2.7632  0.5130
  167MOL0     H22015   6.674   9.528   9.363 -3.7665 -1.8108 -2.7195
  167MOL0     H22016   6.414   9.570   9.336 -2.5331  2.1364  0.8781
  167MOL0     H22017   6.464   9.503   9.493  0.9502 -2.4336 -2.6100
  167MOL0     H22018   6.388   9.778   9.410  2.8652 -1.8908 -2.4382
  167MOL0     H22019   6.466   9.745   9.572  0.1475 -2.7045  1.6806
  167MOL0     H22020   6.258   9.574   9.607 -2.7596  0.8608  2.7916
  167MOL0     H22021   6.188   9.653   9.474 -1.2317  0.2654  1.5655
  167MOL0     H22022   6.227   9.721   9.756 -1.5872 -1.7643 -0.9315
  167MOL0     H22023   6.274   9.859   9.652  2.9762 -0.6893 -1.0152
  167MOL0     H22024   6.027   9.851   9.722  0.5827  2.2652 -0.3364
  167MOL0     H22025   6.014   9.696   9.640 -1.5615  1.1725  1.9797
  167MOL0     H22026   6.672   9.424   8.954 -0.1388  0.4516  5.8384
  167MOL0     H22027   6.798   9.378   8.744  1.1429  3.5177 -3.8573
  167MOL0     H22028   7.084   9.533   8.432  1.0072  1.0694 -0.3465
  167MOL0     H22029   7.124   9.495   8.201  1.2998  1.8045  1.8140
  167MOL0     H22030   7.651   8.368   7.132 -3.6502  0.6593  2.9143
  167MOL0     H22031   7.797   8.224   6.984  1.3912  0.9803  0.4981
  167MOL0     H22032   7.970   7.724   6.946  1.4804 -1.7032 -1.1512
  167MOL0     H22033   8.118   7.565   6.881 -0.7700  1.9921 -0.8829
  167MOL0     H22034   8.521   7.530   7.073 -0.1948  0.1668  0.5854
  167MOL0     H22035   8.559   7.661   6.963  0.5108 -0.4031  4.0651
  167MOL0     H22036   8.575   7.455   6.784 -1.9014 -2.5386  0.8913
  167MOL0     H22037   8.709   7.482   6.897  0.6635 -1.1372 -1.7334
  167MOL0     H22038   8.472   7.286   6.924  1.4846 -0.4688  1.3761
  167MOL0     H22039   8.611   7.292   7.036  2.2941  2.6969  0.4822
  167MOL0     H22040   8.758   7.211   6.844  0.3577  1.1762 -0.1717
  167MOL0     H22041   8.627   7.102   6.876 -2.0567 -0.1455 -2.0103
  167MOL0     H22042   8.509   7.220   6.501  1.6147  0.5326 -0.3983
  167MOL0     H22043   8.434   7.778   7.080  1.6473 -2.3787 -1.8008
  167MOL0     H22044   8.265   7.928   7.174 -1.3044  2.3848 -3.2804
  168MOL0     O22045   8.097   2.969   0.772  0.7005  0.3631 -0.5963
  168MOL0     C22046   7.976   2.966   0.756 -0.8002 -0.2114  0.7570
  168MOL0     O22047   7.922   2.923   0.646 -0.4744 -0.9308 -0.7008
  168MOL0     C22048   7.997   2.836   0.574  0.4401 -0.8486  0.7570
  168MOL0     C22049   7.979   2.699   0.591 -0.7909  0.2899 -0.3894
  168MOL0     C22050   8.034   2.595   0.512  0.5421 -0.3873  0.4344
  168MOL0     C22051   8.115   2.624   0.407  0.9212 -0.1453 -0.4587
  168MOL0     O22052   8.165   2.520   0.337 -0.7502  0.1953  0.5481
  168MOL0     C22053   8.172   2.544   0.199  0.3816  0.3978 -0.6884
  168MOL0     C22054   8.206   2.417   0.116  0.9918 -0.1207  0.2030
  168MOL0     C22055   8.104   2.307   0.136 -0.4733  0.2106 -0.4861
  168MOL0     C22056   8.127   2.185   0.043  0.6469  0.2899  0.5689
  168MOL0     C22057   8.044   2.066   0.073  0.6598  0.5909 -0.1473
  168MOL0     C22058   8.109   1.933   0.012 -0.2445 -1.0138 -0.0803
  168MOL0     C22059   8.070   1.817   0.107  0.6678  1.1043 -0.2370
  168MOL0     C22060   8.133   1.686   0.064 -0.8665  0.8120  0.3604
  168MOL0     N22061   8.105   1.575   0.150 -1.0601 -0.1900 -0.7802
  168MOL0     C22062   8.191   1.469   0.159  0.6092 -0.3434  0.3327
  168MOL0     C22063   8.112   1.372   0.196  0.4765  0.1537  0.4804
  168MOL0     C22064   8.160   1.230   0.223  0.1764  0.6387 -0.6905
  168MOL0     C22065   8.137   1.201   0.369 -0.7739 -0.4486  0.2224
  168MOL0     C22066   8.187   1.058   0.418 -0.5211  0.2026  0.0387
  168MOL0     C22067   8.102   0.947   0.386  0.2880 -0.1952 -0.2258
  168MOL0     O22068   7.981   0.963   0.476 -0.5098 -0.3210 -0.9433
  168MOL0     C22069   7.959   0.859   0.564 -0.4799 -0.1046  0.4919
  168MOL0     C22070   7.988   0.724   0.545  0.0425  0.0490  0.3454
  168MOL0     C22071   7.960   0.631   0.646  0.7704  1.4859 -0.1183
  168MOL0     C22072   7.912   0.672   0.774 -0.9187 -0.7272  0.4030
  168MOL0     C22073   7.890   0.577   0.884 -0.4167 -0.5905 -0.4145
  168MOL0     O22074   7.877   0.626   1.012 -0.5899 -1.0978 -0.1725
  168MOL0     C22075   7.846   0.548   1.120  0.2788  0.3679 -0.2867
  168MOL0     C22076   7.946   0.463   1.168 -1.2739 -1.0510  0.3351
  168MOL0     C22077   7.904   0.367   1.268 -0.2998  0.2564  0.8032
  168MOL0     C22078   7.774   0.372   1.321 -0.1774  0.4965  0.9622
  168MOL0     O22079   7.760   0.275   1.411  0.3451 -0.6073 -0.2031
  168MOL0     C22080   7.630   0.241   1.458  0.9788 -0.2850 -0.3862
  168MOL0     C22081   7.651   0.127   1.556  1.4988  0.0190  0.9993
  168MOL0     C22082   7.718   0.170   1.684 -0.3599 -0.6437 -0.6322
  168MOL0     C22083   7.676   0.098   1.813 -1.0240 -0.3105  0.0015
  168MOL0     C22084   7.793   0.079   1.914 -0.9836 -0.2691 -0.2683
  168MOL0     C22085   7.808   0.184   2.024 -0.2816  0.0931 -0.5646
  168MOL0     C22086   7.879   0.316   1.978 -0.6841 -0.0327 -0.6663
  168MOL0     C22087   7.884   0.414   2.094  0.0989  0.2012  0.0266
  168MOL0    Cl22088   8.029   0.371   2.203  0.1956 -0.2043  0.4548
  168MOL0     C22089   7.685   0.474   1.278 -0.9118  0.5074 -0.6492
  168MOL0     C22090   7.719   0.556   1.179  0.4447  0.1106  0.9944
  168MOL0     O22091   7.896   0.455   0.858 -0.3146 -0.5029 -1.0499
  168MOL0     C22092   7.881   0.810   0.784 -0.7169 -0.5269  0.1544
  168MOL0     C22093   7.901   0.895   0.679  1.2220  0.1658  0.3237
  168MOL0     N22094   7.983   1.417   0.224  0.1804 -0.1211  1.4589
  168MOL0     N22095   7.977   1.541   0.181  0.6125  0.2703  0.2668
  168MOL0     C22096   8.138   2.762   0.381  0.0952 -0.4396  0.1055
  168MOL0     C22097   8.086   2.862   0.466 -0.2308  0.2312  0.7466
  168MOL0     C22098   7.893   3.048   0.844 -0.2656 -0.5124  0.9560
  168MOL0     C22099   7.956   3.112   0.953  0.2554 -0.4779  0.6570
  168MOL0     C22100   7.874   3.179   1.038 -0.6683 -0.4137 -0.7365
  168MOL0     C22101   7.738   3.200   1.009 -0.3116  0.5965 -0.3340
  168MOL0     O22102   7.645   3.266   1.093 -0.0059  0.9084 -0.6128
  168MOL0     C22103   7.701   3.331   1.212  0.3338  0.7501  0.5789
  168MOL0     C22104   7.596   3.426   1.252  0.1032 -0.7314  0.6227
  168MOL0     C22105   7.644   3.490   1.380  0.2036  0.4360 -0.8399
  168MOL0     C22106   7.535   3.593   1.439 -0.4467 -0.4606  0.4831
  168MOL0     C22107   7.543   3.612   1.586  1.1976 -0.2326  0.0729
  168MOL0     C22108   7.568   3.621   1.700 -0.1232 -0.3096 -0.1237
  168MOL0     C22109   7.684   3.148   0.887  0.3087 -0.9597 -0.0928
  168MOL0     C22110   7.764   3.067   0.805 -0.2205 -0.3756 -0.2907
  168MOL0     H22111   7.908   2.679   0.671 -2.8369  1.2622 -1.8688
  168MOL0     H22112   8.026   2.490   0.542  1.4767 -0.0773  1.9014
  168MOL0     H22113   8.251   2.618   0.185  2.3982 -2.0677 -3.2720
  168MOL0     H22114   8.072   2.576   0.170  0.1411  0.7163  0.4390
  168MOL0     H22115   8.308   2.378   0.132  0.0044 -1.4650  4.8616
  168MOL0     H22116   8.194   2.439   0.010 -1.3610 -3.0226 -0.2594
  168MOL0     H22117   8.007   2.352   0.114 -1.3423 -1.4391 -0.2259
  168MOL0     H22118   8.098   2.269   0.238 -0.8168  2.0819  0.2258
  168MOL0     H22119   8.107   2.224  -0.057 -1.1176  2.0839  1.5650
  168MOL0     H22120   8.231   2.151   0.042  1.0212  1.3963  0.4621
  168MOL0     H22121   7.940   2.073   0.037  0.5277 -2.1202 -0.4560
  168MOL0     H22122   8.033   2.064   0.181  1.8645  0.6036 -0.0163
  168MOL0     H22123   8.217   1.948   0.016 -0.3477  0.2812 -1.4251
  168MOL0     H22124   8.082   1.903  -0.090 -0.7106 -1.6622  0.2202
  168MOL0     H22125   8.107   1.846   0.206 -2.3748  2.5554  0.5742
  168MOL0     H22126   7.963   1.798   0.110  0.7535  0.6338  2.1047
  168MOL0     H22127   8.241   1.693   0.056 -0.7544 -0.9444 -0.0100
  168MOL0     H22128   8.103   1.659  -0.037  4.3430 -0.3162 -1.1510
  168MOL0     H22129   8.297   1.462   0.136  0.1198  2.1170 -3.5466
  168MOL0     H22130   8.266   1.218   0.201  1.1703  0.6467  3.3578
  168MOL0     H22131   8.110   1.164   0.151  2.4087 -1.4624 -0.4108
  168MOL0     H22132   8.030   1.215   0.386 -0.4340  5.3562 -0.4596
  168MOL0     H22133   8.187   1.279   0.426 -0.4012  0.2031 -0.9739
  168MOL0     H22134   8.284   1.041   0.370  0.2282 -0.0811  1.5756
  168MOL0     H22135   8.207   1.044   0.525 -1.1671 -3.7927 -0.2171
  168MOL0     H22136   8.152   0.850   0.381  0.3395 -0.3112  1.6161
  168MOL0     H22137   8.064   0.954   0.284 -0.7930  0.0375  0.1690
  168MOL0     H22138   8.028   0.687   0.452  1.8089  1.8433  0.3312
  168MOL0     H22139   7.976   0.524   0.652  2.8300  1.7955  0.5102
  168MOL0     H22140   8.046   0.454   1.127 -1.3366  1.8705 -0.7161
  168MOL0     H22141   7.970   0.291   1.307  0.0723  0.6826  1.0066
  168MOL0     H22142   7.562   0.219   1.376  0.2290  0.2453  0.0738
  168MOL0     H22143   7.592   0.328   1.514 -0.8253 -1.8770  0.9816
  168MOL0     H22144   7.708   0.052   1.502 -0.8130  0.6257 -2.6094
  168MOL0     H22145   7.552   0.089   1.583  0.5072  1.7054 -0.1029
  168MOL0     H22146   7.690   0.272   1.709  0.3148  0.0311 -2.4474
  168MOL0     H22147   7.824   0.154   1.664  0.1341  0.4548  0.8896
  168MOL0     H22148   7.586   0.141   1.857 -0.9871 -0.4347  0.1953
  168MOL0     H22149   7.652  -0.005   1.786 -1.0934  0.0542 -1.4620
  168MOL0     H22150   7.892   0.064   1.872 -0.0992 -1.0742  1.9568
  168MOL0     H22151   7.760  -0.013   1.963 -3.8405 -0.1293 -1.6853
  168MOL0     H22152   7.869   0.139   2.102  0.8416 -0.9590 -1.9887
  168MOL0     H22153   7.707   0.205   2.062 -0.2773  1.0607 -1.0512
  168MOL0     H22154   7.983   0.297   1.950  0.0156 -1.0565  2.2417
  168MOL0     H22155   7.827   0.361   1.894  0.6467 -0.3878 -1.7157
  168MOL0     H22156   7.797   0.409   2.160 -0.0943  2.1483 -0.0286
  168MOL0     H22157   7.895   0.512   2.047  0.8685  0.6738  1.1508
  168MOL0     H22158   7.582   0.487   1.308 -0.9447  1.9907 -1.3264
  168MOL0     H22159   7.646   0.617   1.127  0.5279 -0.5228  0.1074
  168MOL0     H22160   7.852   0.865   0.873  3.6483  0.4494  1.2400
  168MOL0     H22161   7.864   0.995   0.699 -1.6108 -0.9630  1.2093
  168MOL0     H22162   8.208   2.800   0.307  1.7382  0.3599  1.9966
  168MOL0     H22163   8.106   2.966   0.445 -0.1285  0.0859  0.1037
  168MOL0     H22164   8.054   3.085   0.990 -0.5627 -0.0099  3.3833
  168MOL0     H22165   7.912   3.223   1.130  1.2532 -0.1276 -1.6054
  168MOL0     H22166   7.786   3.399   1.201 -1.4810  3.0041 -0.6377
  168MOL0     H22167   7.726   3.270   1.299 -2.2092 -0.5042  0.5385
  168MOL0     H22168   7.573   3.492   1.168  0.3199 -1.1055  0.2642
  168MOL0     H22169   7.507   3.365   1.261  1.2439 -2.5114  0.3295
  168MOL0     H22170   7.745   3.533   1.375  1.3281 -1.7680  0.8380
  168MOL0     H22171   7.658   3.408   1.452 -1.4366  0.2082 -0.7553
  168MOL0     H22172   7.545   3.687   1.385  1.9783 -1.7615 -1.5481
  168MOL0     H22173   7.435   3.551   1.420 -0.5444 -0.0234  0.0094
  168MOL0     H22174   7.609   3.641   1.797 -0.9688 -1.0780  0.4149
  168MOL0     H22175   7.580   3.168   0.864  0.7865  0.2091 -1.3525
  168MOL0     H22176   7.710   3.025   0.721  0.5177 -1.0673 -0.4286
  169MOL0     O22177   5.019   0.398   3.138 -0.3328 -0.2506 -0.0789
  169MOL0     C22178   5.077   0.502   3.168 -1.4755  0.8760  1.0174
  169MOL0     O22179   5.036   0.634   3.171 -0.3104 -0.2039  0.6761
  169MOL0     C22180   4.898   0.651   3.158 -0.5640 -0.1419  1.0719
  169MOL0     C22181   4.837   0.646   3.029  0.0426 -0.6361 -0.9820
  169MOL0     C22182   4.694   0.668   3.027 -0.4059  0.0948  0.2495
  169MOL0     C22183   4.621   0.713   3.137  0.3147 -0.2243 -0.5990
  169MOL0     O22184   4.487   0.745   3.108  0.1401 -0.3893 -0.3329
  169MOL0     C22185   4.434   0.852   3.186 -0.6621  0.4475 -1.0678
  169MOL0     C22186   4.298   0.884   3.135 -0.9490  0.1281  0.6500
  169MOL0     C22187   4.223   0.992   3.216 -0.5127  0.2563 -0.8500
  169MOL0     C22188   4.092   1.042   3.163  0.4508 -0.2063 -0.6995
  169MOL0     C22189   4.000   0.925   3.115  0.0598 -0.0228  0.5587
  169MOL0     C22190   3.850   0.957   3.086 -0.0177 -0.3410  0.5753
  169MOL0     C22191   3.843   1.062   2.974  0.3982 -0.5428 -0.2293
  169MOL0     C22192   3.699   1.094   2.941 -0.7593 -0.4524 -1.3654
  169MOL0     N22193   3.643   1.216   3.010 -0.3270 -0.2139 -0.1821
  169MOL0     C22194   3.585   1.217   3.129 -0.1766 -0.5437 -0.8526
  169MOL0     C22195   3.544   1.345   3.141  0.6310  0.0190 -0.8851
  169MOL0     C22196   3.457   1.402   3.245 -0.5422 -0.0208 -0.2428
  169MOL0     C22197   3.351   1.311   3.302 -1.6397  0.2448 -0.1535
  169MOL0     C22198   3.249   1.377   3.392  0.4646  0.4880 -0.2704
  169MOL0     C22199   3.145   1.449   3.313 -0.0951 -0.0783 -0.6594
  169MOL0     O22200   3.045   1.514   3.390 -0.4285 -0.0299 -0.1515
  169MOL0     C22201   3.068   1.615   3.474  0.3678 -0.4008  0.3999
  169MOL0     C22202   3.174   1.711   3.462  0.7794  0.1636  0.2688
  169MOL0     C22203   3.189   1.803   3.570  0.8146  0.2621  0.6881
  169MOL0     C22204   3.091   1.813   3.672 -0.2448 -0.8000  0.2753
  169MOL0     C22205   3.092   1.922   3.779  0.2621  0.6547 -0.0000
  169MOL0     O22206   2.994   1.945   3.868 -0.0650 -0.2976 -0.3094
  169MOL0     C22207   3.013   2.043   3.962 -1.0940  0.2471 -0.1484
  169MOL0     C22208   3.126   2.040   4.052 -0.3276  1.0287 -0.8368
  169MOL0     C22209   3.122   2.125   4.166  0.3292  0.0763 -0.3139
  169MOL0     C22210   3.027   2.233   4.171 -0.8253 -0.4629  0.6611
  169MOL0     O22211   3.035   2.338   4.258  1.0786 -0.1066  0.4991
  169MOL0     C22212   3.054   2.296   4.395  0.6256 -0.6139 -0.8135
  169MOL0     C22213   3.019   2.414   4.480 -0.5269  0.8299 -1.0166
  169MOL0     C22214   3.137   2.522   4.490  1.0973 -0.0109  0.1883
  169MOL0     C22215   3.112   2.627   4.591 -0.3163 -0.5006  0.1546
  169MOL0     C22216   3.225   2.732   4.568 -0.2303  0.1932  0.1678
  169MOL0     C22217   3.230   2.851   4.668 -0.3017  0.0410 -0.0688
  169MOL0     C22218   3.349   2.941   4.635  0.4556  0.1500 -0.6366
  169MOL0     C22219   3.466   2.906   4.728 -0.7115  0.2725 -0.5379
  169MOL0    Cl22220   3.432   2.947   4.899  0.4821 -0.0014  0.3286
  169MOL0     C22221   2.912   2.243   4.072  0.4799 -0.4622 -1.0794
  169MOL0     C22222   2.917   2.144   3.974  1.4008  0.4753  0.0686
  169MOL0     O22223   3.188   1.994   3.767 -0.8565 -0.4700 -0.6789
  169MOL0     C22224   2.995   1.711   3.679  1.0617 -0.5753 -0.2347
  169MOL0     C22225   2.988   1.620   3.581 -0.0480 -0.2385 -0.8717
  169MOL0     N22226   3.603   1.421   3.043 -0.8936 -0.0354  0.3626
  169MOL0     N22227   3.654   1.338   2.956 -0.0818  0.0934 -1.1305
  169MOL0     C22228   4.688   0.727   3.261 -1.3273 -0.1934 -0.8109
  169MOL0     C22229   4.829   0.694   3.271 -0.8736  0.1339 -0.3832
  169MOL0     C22230   5.225   0.495   3.181 -0.1099  0.4346 -0.2312
  169MOL0     C22231   5.297   0.381   3.125 -0.6509 -0.8334  0.3500
  169MOL0     C22232   5.441   0.395   3.122  0.5563  0.7351  0.7971
  169MOL0     C22233   5.516   0.499   3.190 -0.7470  1.1241 -0.7816
  169MOL0     O22234   5.651   0.500   3.170  0.2958 -0.4496 -0.5560
  169MOL0     C22235   5.737   0.409   3.222  0.2180 -0.1640 -0.6443
  169MOL0     C22236   5.711   0.389   3.373 -0.3665  0.0395  0.4163
  169MOL0     C22237   5.652   0.258   3.413  0.2079  0.4382  0.9566
  169MOL0     C22238   5.733   0.133   3.377 -0.3130 -0.3798  0.0790
  169MOL0     C22239   5.673   0.014   3.441  0.5536 -0.1252  0.2267
  169MOL0     C22240   5.619  -0.084   3.501 -0.1942  0.1713 -1.0139
  169MOL0     C22241   5.444   0.596   3.254  1.3287 -0.7181  0.2141
  169MOL0     C22242   5.299   0.591   3.254 -0.0763 -0.7342  0.2518
  169MOL0     H22243   4.903   0.618   2.947  3.1221  0.3093  1.0077
  169MOL0     H22244   4.638   0.659   2.935 -0.9655  0.5900  0.5356
  169MOL0     H22245   4.495   0.942   3.180 -1.2166  0.8951 -0.0558
  169MOL0     H22246   4.428   0.814   3.288  0.7401 -0.7298 -1.3812
  169MOL0     H22247   4.247   0.788   3.136 -1.7887  0.4161 -2.4593
  169MOL0     H22248   4.302   0.930   3.036 -1.0577  1.1453  1.1032
  169MOL0     H22249   4.279   1.081   3.249  2.0981 -2.5453  3.3055
  169MOL0     H22250   4.209   0.951   3.317 -1.6970  1.0417 -0.6729
  169MOL0     H22251   4.051   1.116   3.232  4.2410  3.9266 -2.3727
  169MOL0     H22252   4.107   1.105   3.075  0.1986  1.0691  0.1383
  169MOL0     H22253   4.005   0.849   3.193  1.0043  2.6348  3.2487
  169MOL0     H22254   4.039   0.881   3.022 -3.3984  0.0996 -1.1131
  169MOL0     H22255   3.813   1.002   3.179 -0.0920  0.4874  0.1524
  169MOL0     H22256   3.799   0.863   3.062  2.3485 -0.9237 -2.8863
  169MOL0     H22257   3.882   1.157   3.012 -2.0467 -0.7585  3.3552
  169MOL0     H22258   3.890   1.028   2.882 -0.1468 -0.8223 -0.4065
  169MOL0     H22259   3.633   1.006   2.946  0.4504 -1.4609 -2.5488
  169MOL0     H22260   3.703   1.121   2.836  0.4010  0.0459 -1.1981
  169MOL0     H22261   3.574   1.151   3.215  3.0405  1.3639  1.2458
  169MOL0     H22262   3.410   1.487   3.193 -1.5796 -0.2684  0.2586
  169MOL0     H22263   3.517   1.436   3.330 -0.4368 -1.9697  0.4990
  169MOL0     H22264   3.392   1.223   3.352  0.4481  2.6052  2.5565
  169MOL0     H22265   3.297   1.273   3.215  1.6444 -1.5864 -1.5816
  169MOL0     H22266   3.216   1.285   3.441  1.2409 -0.4286 -1.4433
  169MOL0     H22267   3.303   1.434   3.469  1.5604  1.6682 -1.8536
  169MOL0     H22268   3.098   1.364   3.264 -0.1936 -3.1640  4.0996
  169MOL0     H22269   3.190   1.509   3.234  0.3807  1.6525  0.8425
  169MOL0     H22270   3.235   1.711   3.372  2.6387 -0.0449  1.4751
  169MOL0     H22271   3.270   1.871   3.548 -1.0633  1.3305 -4.3670
  169MOL0     H22272   3.209   1.971   4.042 -2.1298 -1.5158  0.6331
  169MOL0     H22273   3.203   2.135   4.238  2.2753  2.3026 -2.6044
  169MOL0     H22274   3.152   2.254   4.421  1.4485  0.7942 -1.4966
  169MOL0     H22275   2.979   2.218   4.410 -0.3376  0.5751  0.8748
  169MOL0     H22276   3.003   2.385   4.585  0.1825  0.5033 -0.9899
  169MOL0     H22277   2.930   2.467   4.446 -0.9513  0.2039 -0.9056
  169MOL0     H22278   3.144   2.567   4.390 -0.1286  0.9883  0.5271
  169MOL0     H22279   3.230   2.470   4.515  0.3000 -0.4831  2.3606
  169MOL0     H22280   3.011   2.668   4.592  0.9112  2.8215  0.7668
  169MOL0     H22281   3.130   2.578   4.687 -5.0279 -1.7774  0.6017
  169MOL0     H22282   3.220   2.765   4.464 -2.0409  3.3185  1.1243
  169MOL0     H22283   3.322   2.683   4.572 -0.0691  0.1560 -2.4437
  169MOL0     H22284   3.238   2.793   4.761  3.5841 -0.6241 -0.6396
  169MOL0     H22285   3.137   2.908   4.663 -2.6978 -3.0995  3.4552
  169MOL0     H22286   3.391   2.935   4.534  2.9532  0.9873  0.2819
  169MOL0     H22287   3.333   3.048   4.647  1.5633  0.7287 -3.4881
  169MOL0     H22288   3.559   2.952   4.693 -1.1702  0.9999 -0.8340
  169MOL0     H22289   3.496   2.803   4.711  0.4380  0.6125 -0.6459
  169MOL0     H22290   2.845   2.328   4.074  0.7488 -0.2485  0.1849
  169MOL0     H22291   2.838   2.158   3.900 -0.3947 -0.9790  1.5933
  169MOL0     H22292   2.912   1.709   3.748  0.2226 -0.7580 -1.2198
  169MOL0     H22293   2.916   1.538   3.575  1.1248 -1.2309 -1.9795
  169MOL0     H22294   4.639   0.732   3.358  0.4500  1.4434  0.0734
  169MOL0     H22295   4.884   0.695   3.365 -0.2221 -0.1829 -0.7530
  169MOL0     H22296   5.242   0.300   3.079 -1.8061  0.5295 -0.7815
  169MOL0     H22297   5.483   0.307   3.075 -1.3324 -0.8719  1.9105
  169MOL0     H22298   5.837   0.452   3.218 -0.1209  1.8584  4.8291
  169MOL0     H22299   5.724   0.315   3.167 -4.2505  0.3982 -0.9613
  169MOL0     H22300   5.806   0.404   3.426  0.0428 -3.7905  1.0662
  169MOL0     H22301   5.641   0.465   3.407 -1.6733 -1.5610  1.4463
  169MOL0     H22302   5.546   0.248   3.391  0.1554 -0.4125  1.5478
  169MOL0     H22303   5.666   0.266   3.521 -0.1197  0.9415  0.9671
  169MOL0     H22304   5.736   0.120   3.269 -1.1813 -1.3638  0.1655
  169MOL0     H22305   5.837   0.143   3.409 -0.2151  1.8244 -0.7098
  169MOL0     H22306   5.570  -0.148   3.571  1.8386 -0.4942 -0.1372
  169MOL0     H22307   5.503   0.680   3.287 -3.0953  4.0159 -2.4823
  169MOL0     H22308   5.242   0.665   3.309 -2.6385  0.4050 -3.5290
  170MOL0     O22309  10.889   6.725   3.535 -0.5925 -0.1682 -0.2785
  170MOL0     C22310  10.778   6.748   3.482 -0.0847 -0.6893  0.0975
  170MOL0     O22311  10.727   6.876   3.460 -0.1926  0.2070  0.6106
  170MOL0     C22312  10.812   6.982   3.484  1.0596 -0.4323 -0.6526
  170MOL0     C22313  10.813   7.055   3.603 -0.5953  0.9263 -0.3165
  170MOL0     C22314  10.907   7.153   3.626 -0.1242 -0.3238 -0.2671
  170MOL0     C22315  10.980   7.209   3.526 -0.6620 -0.5199 -0.3189
  170MOL0     O22316  11.050   7.323   3.547 -0.3374  0.3713 -0.1372
  170MOL0     C22317  11.175   7.328   3.481 -0.1870 -0.4078 -1.0384
  170MOL0     C22318  11.286   7.417   3.561  0.5487  0.2592 -0.0576
  170MOL0     C22319  11.310   7.371   3.705  0.2560  0.3888 -1.0340
  170MOL0     C22320  11.399   7.238   3.698  0.0394 -0.4684 -0.6214
  170MOL0     C22321  11.472   7.219   3.832  0.5146 -0.4425  0.6281
  170MOL0     C22322  11.391   7.211   3.962  0.1444 -0.2313 -0.4826
  170MOL0     C22323  11.278   7.102   3.966  0.5889 -0.8659  0.3343
  170MOL0     C22324  11.195   7.110   4.093 -0.4780 -0.9431  0.1302
  170MOL0     N22325  11.112   6.988   4.094  0.0618  1.3532  0.5960
  170MOL0     C22326  10.988   6.960   4.034 -0.5947 -0.3505  0.8115
  170MOL0     C22327  10.984   6.828   4.015 -0.0525 -0.1529  0.1061
  170MOL0     C22328  10.871   6.740   3.993 -0.4163  0.3460 -0.2498
  170MOL0     C22329  10.807   6.769   3.860 -0.7326  1.1649 -0.3586
  170MOL0     C22330  10.682   6.684   3.816 -0.1339  0.2550 -0.3400
  170MOL0     C22331  10.692   6.528   3.824  0.1883 -0.1644  0.8352
  170MOL0     O22332  10.688   6.474   3.960  0.3688 -0.2341  0.9561
  170MOL0     C22333  10.619   6.353   3.973  0.5989 -1.0504 -0.2795
  170MOL0     C22334  10.565   6.304   4.094 -0.6572  0.2959  0.3544
  170MOL0     C22335  10.488   6.193   4.113 -0.6286 -0.7483  0.0107
  170MOL0     C22336  10.461   6.122   3.999 -0.7189  0.9832 -0.1755
  170MOL0     C22337  10.420   5.983   4.019 -0.1686 -0.1319  1.2536
  170MOL0     O22338  10.372   5.929   3.904  0.0493 -0.4441 -0.2474
  170MOL0     C22339  10.335   5.800   3.884 -0.1427  0.0558 -0.6149
  170MOL0     C22340  10.269   5.775   3.766 -0.1684 -1.1433 -0.1606
  170MOL0     C22341  10.218   5.650   3.739  0.4981 -1.3030  0.0750
  170MOL0     C22342  10.239   5.542   3.831  0.4370 -0.8118 -0.3945
  170MOL0     O22343  10.167   5.428   3.826  0.4376 -0.3362  0.4957
  170MOL0     C22344  10.136   5.372   3.697  0.4147  1.3985 -0.0813
  170MOL0     C22345  10.115   5.222   3.701  0.1015 -1.2208 -0.0893
  170MOL0     C22346  10.108   5.163   3.560  0.7370 -0.7606  0.1131
  170MOL0     C22347  10.089   5.022   3.543 -0.3884 -0.0765  0.3368
  170MOL0     C22348  10.142   4.957   3.407 -0.2807 -0.3950  0.4390
  170MOL0     C22349  10.294   4.958   3.396  0.1644  0.0412 -0.5991
  170MOL0     C22350  10.335   4.853   3.295  0.1619  0.6725 -0.0523
  170MOL0     C22351  10.274   4.881   3.158  1.1812 -0.2276 -0.0617
  170MOL0    Cl22352  10.336   4.756   3.044 -0.2077  0.0434 -0.2142
  170MOL0     C22353  10.309   5.564   3.950 -1.4481  0.0037  0.6235
  170MOL0     C22354  10.360   5.688   3.972  0.2112  0.2892  0.7731
  170MOL0     O22355  10.428   5.937   4.131 -0.3821  0.8262 -0.1673
  170MOL0     C22356  10.518   6.157   3.874 -0.3486  0.7356 -0.2649
  170MOL0     C22357  10.596   6.277   3.862  1.4881  0.4488 -0.3528
  170MOL0     N22358  11.108   6.776   4.049  0.7684  0.2056  0.7019
  170MOL0     N22359  11.177   6.871   4.104  0.0210 -0.1169 -0.5162
  170MOL0     C22360  10.968   7.146   3.401  0.5673  0.0020  0.4663
  170MOL0     C22361  10.883   7.036   3.384 -0.3734  0.1649  0.6526
  170MOL0     C22362  10.700   6.644   3.431  0.9237 -0.4233 -0.9767
  170MOL0     C22363  10.725   6.517   3.462  0.3100  1.2342  0.6804
  170MOL0     C22364  10.653   6.414   3.405  0.8955 -0.0864  0.2468
  170MOL0     C22365  10.547   6.442   3.318 -0.2673  0.5977 -0.7483
  170MOL0     O22366  10.506   6.329   3.249 -0.0140  0.0678  0.1634
  170MOL0     C22367  10.399   6.348   3.158 -0.3452  0.3285  0.0369
  170MOL0     C22368  10.341   6.210   3.119  0.4858 -0.6911  0.5029
  170MOL0     C22369  10.190   6.227   3.075  0.1458  0.1975  0.6542
  170MOL0     C22370  10.110   6.103   3.039  0.8057 -0.5590 -0.5229
  170MOL0     C22371   9.989   6.155   2.984  0.1101  0.1404  1.0257
  170MOL0     C22372   9.893   6.180   2.906  0.0927  0.0927 -0.3089
  170MOL0     C22373  10.511   6.570   3.298  0.2982  0.1262 -0.0920
  170MOL0     C22374  10.584   6.677   3.357 -0.1419  0.3792  0.4688
  170MOL0     H22375  10.737   7.035   3.678 -0.5488  0.8647 -0.2860
  170MOL0     H22376  10.906   7.220   3.711  2.7489 -1.6933  1.0013
  170MOL0     H22377  11.167   7.355   3.376  1.5608 -0.4981 -1.2234
  170MOL0     H22378  11.221   7.229   3.488 -2.3486 -1.3569  1.7146
  170MOL0     H22379  11.248   7.519   3.553 -1.6884 -0.3801  1.3172
  170MOL0     H22380  11.384   7.422   3.515  0.7413 -1.2583  0.1286
  170MOL0     H22381  11.222   7.345   3.765 -0.3349  1.0833 -1.5753
  170MOL0     H22382  11.354   7.448   3.770 -2.2829 -0.8451  2.4876
  170MOL0     H22383  11.337   7.150   3.678 -0.2722 -0.8523  1.8231
  170MOL0     H22384  11.483   7.256   3.630  0.6877  0.8879  0.4869
  170MOL0     H22385  11.545   7.300   3.839  0.9472 -0.8797  1.2725
  170MOL0     H22386  11.518   7.121   3.821  2.5947  0.7280 -2.7235
  170MOL0     H22387  11.351   7.310   3.984  2.6712  0.7751 -0.1071
  170MOL0     H22388  11.454   7.190   4.049 -0.6786  2.0265  0.7518
  170MOL0     H22389  11.227   7.104   3.869  0.2787 -1.5369  0.4782
  170MOL0     H22390  11.335   7.009   3.969 -0.2235 -1.8083 -4.7409
  170MOL0     H22391  11.140   7.205   4.086 -1.0751 -1.0244  2.5455
  170MOL0     H22392  11.255   7.114   4.185 -2.3868  1.5739  1.4178
  170MOL0     H22393  10.915   7.040   4.023  2.2599  2.4666  0.9386
  170MOL0     H22394  10.791   6.767   4.063  0.3122  0.1243  0.7019
  170MOL0     H22395  10.915   6.643   4.019 -1.5366 -1.2487 -3.7842
  170MOL0     H22396  10.881   6.745   3.783 -2.3892  0.5163 -1.8194
  170MOL0     H22397  10.780   6.875   3.851 -2.4500  0.7165 -0.9751
  170MOL0     H22398  10.592   6.716   3.868  0.1398  0.1605  0.1972
  170MOL0     H22399  10.651   6.718   3.716  1.3422  2.3048 -0.1758
  170MOL0     H22400  10.783   6.496   3.772 -0.6905  0.7037 -1.3232
  170MOL0     H22401  10.604   6.516   3.761 -0.5650  0.1701  1.8004
  170MOL0     H22402  10.576   6.369   4.181  2.2663  0.4881 -0.0443
  170MOL0     H22403  10.459   6.163   4.213 -1.7193 -3.8391 -1.1155
  170MOL0     H22404  10.256   5.858   3.698 -0.5073 -1.0981 -0.0430
  170MOL0     H22405  10.170   5.648   3.642  2.8542  1.1413 -1.2915
  170MOL0     H22406  10.222   5.387   3.631  2.7620 -1.1900  2.1358
  170MOL0     H22407  10.040   5.411   3.663 -0.7359 -1.2470 -0.1258
  170MOL0     H22408  10.015   5.191   3.733 -0.3566 -1.4614 -1.6895
  170MOL0     H22409  10.197   5.181   3.762  0.4026 -2.7068 -1.4276
  170MOL0     H22410  10.198   5.197   3.507 -0.6711 -0.4658 -2.2454
  170MOL0     H22411  10.015   5.203   3.519  0.1540 -1.6247  0.5700
  170MOL0     H22412  10.140   4.968   3.623 -2.8573  0.9132  2.7523
  170MOL0     H22413   9.983   4.997   3.558 -1.2754  3.9210  2.1471
  170MOL0     H22414  10.101   5.019   3.327  2.3012  0.7543 -0.0915
  170MOL0     H22415  10.098   4.857   3.400 -0.0201 -0.6898  2.3438
  170MOL0     H22416  10.351   4.934   3.487  0.8587  2.6407 -0.2895
  170MOL0     H22417  10.332   5.053   3.359  1.1662  0.2292  0.8204
  170MOL0     H22418  10.439   4.821   3.281 -0.0175  0.8064 -1.9329
  170MOL0     H22419  10.294   4.755   3.324  0.8894 -0.0782 -1.4745
  170MOL0     H22420  10.303   4.983   3.131 -5.3523  2.8193  2.3126
  170MOL0     H22421  10.165   4.885   3.150  1.0806  0.1982  1.3458
  170MOL0     H22422  10.322   5.487   4.025 -1.5590 -2.4347 -1.7093
  170MOL0     H22423  10.426   5.706   4.057  2.1201  1.7397 -0.8905
  170MOL0     H22424  10.502   6.103   3.781 -0.7399  1.5690 -0.6932
  170MOL0     H22425  10.619   6.302   3.759  0.2755 -1.5971 -1.1729
  170MOL0     H22426  11.014   7.189   3.313  0.6427  2.0193  1.4378
  170MOL0     H22427  10.887   6.983   3.289 -1.4622  2.2267 -0.6353
  170MOL0     H22428  10.796   6.489   3.540 -2.2487 -2.5231  1.9712
  170MOL0     H22429  10.679   6.310   3.424  0.9329 -0.9998 -3.9310
  170MOL0     H22430  10.436   6.396   3.067 -0.1191  1.8633  0.9082
  170MOL0     H22431  10.323   6.415   3.200  0.4286  0.4410  1.2846
  170MOL0     H22432  10.397   6.162   3.038  0.0133 -2.4813  1.1871
  170MOL0     H22433  10.339   6.137   3.200 -2.4695 -1.8793 -0.5165
  170MOL0     H22434  10.197   6.282   2.980  1.5501 -1.2435 -0.1362
  170MOL0     H22435  10.135   6.287   3.148  0.2925  3.8910 -2.0081
  170MOL0     H22436  10.165   6.041   2.967  3.0829  1.0192 -0.2366
  170MOL0     H22437  10.076   6.044   3.125  0.9529  4.0361  3.0538
  170MOL0     H22438   9.812   6.189   2.836 -1.1364 -0.8069  0.9274
  170MOL0     H22439  10.432   6.593   3.226  0.6646  1.2988 -0.1301
  170MOL0     H22440  10.528   6.770   3.353 -1.3040 -0.2882  0.6368
  171MOL0     O22441   6.084   8.761   5.424 -0.1725 -0.6026 -0.4092
  171MOL0     C22442   6.114   8.783   5.304 -0.8465  0.5624 -0.3790
  171MOL0     O22443   6.035   8.783   5.201  0.8781  0.5787  0.7433
  171MOL0     C22444   5.903   8.763   5.226  0.3595  0.3017 -0.5949
  171MOL0     C22445   5.855   8.635   5.280  0.4728  0.3343  0.0566
  171MOL0     C22446   5.717   8.621   5.317  0.4006  0.4090  0.4992
  171MOL0     C22447   5.625   8.726   5.287  0.3999 -0.1740  0.2285
  171MOL0     O22448   5.483   8.715   5.293  0.1212 -0.4313 -0.1053
  171MOL0     C22449   5.414   8.607   5.357  0.0346  0.4041 -0.6242
  171MOL0     C22450   5.317   8.555   5.255  0.4887  0.4795  0.2240
  171MOL0     C22451   5.256   8.423   5.312  0.5096 -0.0807  0.2026
  171MOL0     C22452   5.180   8.430   5.446  0.2216 -0.2366 -0.3374
  171MOL0     C22453   5.115   8.297   5.485  0.4915  0.0556  0.5985
  171MOL0     C22454   4.978   8.317   5.556  0.0159  0.6722  0.3290
  171MOL0     C22455   4.923   8.179   5.599 -0.0571 -0.1404  0.2474
  171MOL0     C22456   4.787   8.208   5.672 -0.0537  0.2053  0.0791
  171MOL0     N22457   4.726   8.078   5.714 -0.0817 -1.1611 -0.3586
  171MOL0     C22458   4.764   7.988   5.799 -0.4651  0.2999  0.7620
  171MOL0     C22459   4.670   7.890   5.787  0.3638  0.8804 -0.0230
  171MOL0     C22460   4.671   7.751   5.859  0.4463  0.1858 -0.7149
  171MOL0     C22461   4.704   7.641   5.774  0.7316  0.5579  0.7370
  171MOL0     C22462   4.590   7.617   5.669 -0.9142 -0.3124  0.3317
  171MOL0     C22463   4.624   7.481   5.597  0.4575 -0.5226 -0.2170
  171MOL0     O22464   4.562   7.376   5.681 -0.0442  1.2033  0.1900
  171MOL0     C22465   4.504   7.270   5.609  0.5527  0.1982 -0.4876
  171MOL0     C22466   4.536   7.232   5.483  0.4198  0.4823  0.4828
  171MOL0     C22467   4.465   7.122   5.420  0.3227 -0.1681  0.0946
  171MOL0     C22468   4.372   7.045   5.500 -1.0528  0.0608 -0.1417
  171MOL0     C22469   4.274   6.952   5.429 -0.5854 -0.4274  0.3108
  171MOL0     O22470   4.209   6.859   5.501 -0.0516 -0.6383  0.0462
  171MOL0     C22471   4.135   6.751   5.459  0.3483 -0.1208 -0.4190
  171MOL0     C22472   4.129   6.690   5.335  0.9170 -0.7244  1.1516
  171MOL0     C22473   4.049   6.573   5.305  0.2328  0.3134  0.2242
  171MOL0     C22474   3.969   6.519   5.408 -0.2430 -0.2303  1.2402
  171MOL0     O22475   3.873   6.425   5.365  0.3935  0.0033 -0.4015
  171MOL0     C22476   3.828   6.331   5.458 -0.0127 -0.6724 -0.0371
  171MOL0     C22477   3.714   6.381   5.548 -0.4716  0.0429 -0.5267
  171MOL0     C22478   3.646   6.266   5.622  0.5170 -0.4022 -0.1551
  171MOL0     C22479   3.531   6.293   5.728 -0.9463 -0.7506  0.2612
  171MOL0     C22480   3.483   6.183   5.825 -0.6976 -0.3435  0.1230
  171MOL0     C22481   3.416   6.080   5.745 -0.0524  1.2611 -0.9443
  171MOL0     C22482   3.358   5.971   5.836  0.0526  0.5411 -0.0331
  171MOL0     C22483   3.464   5.889   5.905  0.8331  0.1271 -0.7521
  171MOL0    Cl22484   3.393   5.754   5.982  0.2465 -0.3877  0.2824
  171MOL0     C22485   3.988   6.568   5.534  1.3798  0.7751 -0.0080
  171MOL0     C22486   4.076   6.675   5.560 -0.8993  0.5369 -0.1750
  171MOL0     O22487   4.272   6.963   5.307 -0.2631  1.3110  0.0948
  171MOL0     C22488   4.348   7.083   5.633  0.2053 -0.8414  0.9379
  171MOL0     C22489   4.422   7.194   5.684  0.3495 -0.2410  0.2416
  171MOL0     N22490   4.570   7.945   5.708 -0.7764 -0.0713  0.7129
  171MOL0     N22491   4.598   8.057   5.656 -0.5184 -0.0152 -0.4278
  171MOL0     C22492   5.663   8.844   5.216 -0.6893  0.5906  0.5887
  171MOL0     C22493   5.801   8.859   5.196 -0.4087  0.5891  0.1795
  171MOL0     C22494   6.260   8.781   5.269 -0.5323  0.6921 -0.1842
  171MOL0     C22495   6.349   8.839   5.357 -0.1685  0.7189 -0.5741
  171MOL0     C22496   6.483   8.843   5.313  0.1865  0.3440 -0.3596
  171MOL0     C22497   6.531   8.771   5.202 -0.2738  0.4706  0.1814
  171MOL0     O22498   6.665   8.766   5.201  0.3681  0.0189  0.6438
  171MOL0     C22499   6.725   8.707   5.088 -0.9800 -0.0717  0.3963
  171MOL0     C22500   6.864   8.770   5.110 -0.0968  0.5856 -0.4123
  171MOL0     C22501   6.905   8.761   5.265  0.2379 -0.0021  0.5573
  171MOL0     C22502   7.061   8.770   5.287  0.5570  0.6731  0.2795
  171MOL0     C22503   7.127   8.890   5.240  0.6556 -0.2018  0.6751
  171MOL0     C22504   7.163   8.992   5.187 -0.1074 -0.2488 -0.7740
  171MOL0     C22505   6.437   8.723   5.108  0.8034  0.0511  0.6905
  171MOL0     C22506   6.305   8.728   5.146  0.6224 -0.3513  0.3747
  171MOL0     H22507   5.915   8.548   5.306  1.3460  1.4376  1.9251
  171MOL0     H22508   5.693   8.520   5.347 -2.0816  0.7154 -0.2087
  171MOL0     H22509   5.358   8.651   5.440  1.1506 -0.4331  0.6421
  171MOL0     H22510   5.485   8.529   5.388  0.7902 -0.1552 -3.5111
  171MOL0     H22511   5.369   8.545   5.159  1.2534  0.7528  0.6027
  171MOL0     H22512   5.231   8.621   5.244  0.8853  0.9432 -0.1757
  171MOL0     H22513   5.340   8.355   5.331  1.2791  0.9242  0.5030
  171MOL0     H22514   5.196   8.364   5.241 -0.3836  1.5731 -0.4763
  171MOL0     H22515   5.234   8.477   5.528  0.9323 -0.3088 -0.7568
  171MOL0     H22516   5.108   8.510   5.423 -2.2644 -2.1364  0.4154
  171MOL0     H22517   5.190   8.244   5.544 -0.6169  0.0584  2.0829
  171MOL0     H22518   5.093   8.240   5.395 -0.3587 -0.0500  0.8598
  171MOL0     H22519   4.902   8.360   5.490  2.0153  1.5252 -1.5468
  171MOL0     H22520   4.987   8.385   5.641 -3.8290 -0.5724  1.9458
  171MOL0     H22521   4.900   8.125   5.507 -0.7076 -1.5149  1.1932
  171MOL0     H22522   5.000   8.121   5.651  0.7899 -0.5577 -1.3859
  171MOL0     H22523   4.717   8.248   5.597 -1.2757  0.3814  1.2736
  171MOL0     H22524   4.808   8.276   5.755  2.2825  1.7157 -1.6385
  171MOL0     H22525   4.845   7.995   5.871  0.5373 -2.5078  0.0171
  171MOL0     H22526   4.581   7.724   5.913  2.0276 -1.1482  1.4017
  171MOL0     H22527   4.749   7.759   5.935  0.8130  1.7339 -1.1976
  171MOL0     H22528   4.723   7.547   5.827  2.0511  0.7514  0.6419
  171MOL0     H22529   4.795   7.662   5.717  0.0122  1.3287 -0.1432
  171MOL0     H22530   4.492   7.607   5.716 -1.2274  0.3730 -0.1583
  171MOL0     H22531   4.570   7.688   5.588  0.1359 -2.9589 -2.4172
  171MOL0     H22532   4.732   7.470   5.583  0.6757  2.4570 -1.5868
  171MOL0     H22533   4.584   7.491   5.496  1.3993  2.1473 -0.4110
  171MOL0     H22534   4.612   7.290   5.432  2.8299 -0.1735  3.1300
  171MOL0     H22535   4.476   7.106   5.314  1.4527  0.1306  0.1500
  171MOL0     H22536   4.183   6.736   5.253 -0.7180 -1.1764 -0.2679
  171MOL0     H22537   4.040   6.519   5.212 -1.8342 -0.7578  0.9786
  171MOL0     H22538   3.910   6.312   5.527  1.8809  3.3098 -0.8864
  171MOL0     H22539   3.794   6.243   5.401  0.5007 -0.3765 -0.8179
  171MOL0     H22540   3.650   6.445   5.485 -1.0686  1.5044  1.4277
  171MOL0     H22541   3.761   6.434   5.632 -2.4419 -1.1622  1.4512
  171MOL0     H22542   3.720   6.206   5.675 -1.6547 -0.8011  2.6932
  171MOL0     H22543   3.605   6.200   5.545  3.2626  0.0665 -2.1389
  171MOL0     H22544   3.552   6.372   5.801  2.1657 -0.8943 -0.3448
  171MOL0     H22545   3.447   6.329   5.668  1.5431 -1.1815 -3.8441
  171MOL0     H22546   3.404   6.226   5.888 -0.6898 -3.9927  2.9624
  171MOL0     H22547   3.562   6.151   5.893 -1.5559  0.5116  1.5666
  171MOL0     H22548   3.473   6.037   5.662  0.3947 -0.0371 -0.0127
  171MOL0     H22549   3.325   6.122   5.701 -1.7526  0.2479  1.3843
  171MOL0     H22550   3.280   5.994   5.909  0.4548 -0.7480  0.8321
  171MOL0     H22551   3.317   5.899   5.765  3.0186  1.3147 -2.8160
  171MOL0     H22552   3.492   5.939   5.998 -1.1775 -4.0792  2.4350
  171MOL0     H22553   3.562   5.879   5.857  1.7651 -1.6585  1.3614
  171MOL0     H22554   3.926   6.526   5.613  0.3297 -0.1814 -1.2664
  171MOL0     H22555   4.077   6.705   5.664  1.5080  1.3276 -0.3793
  171MOL0     H22556   4.269   7.027   5.681 -1.7377  0.3777 -0.6972
  171MOL0     H22557   4.406   7.208   5.790 -1.3813  0.5007 -0.0796
  171MOL0     H22558   5.593   8.923   5.190 -1.7765 -0.0081  1.5670
  171MOL0     H22559   5.843   8.948   5.150 -0.2646 -0.0503 -0.9792
  171MOL0     H22560   6.321   8.877   5.454  0.7830 -1.5695  0.6764
  171MOL0     H22561   6.558   8.881   5.382 -0.4426  1.7754 -0.4260
  171MOL0     H22562   6.697   8.741   4.988  4.2334  1.1312 -0.9290
  171MOL0     H22563   6.734   8.598   5.089  1.2978  0.0460 -1.5771
  171MOL0     H22564   6.935   8.715   5.047  1.0887  1.9990 -0.3568
  171MOL0     H22565   6.875   8.870   5.068 -1.2992 -0.2492 -2.9580
  171MOL0     H22566   6.855   8.676   5.312 -0.0293  0.6556  1.5050
  171MOL0     H22567   6.867   8.838   5.333  1.6183 -0.3232  1.7382
  171MOL0     H22568   7.086   8.755   5.393 -1.4768 -0.5109  0.6578
  171MOL0     H22569   7.111   8.687   5.238  2.4596  2.0892 -0.3011
  171MOL0     H22570   7.193   9.083   5.139  3.3639 -1.3673 -1.0018
  171MOL0     H22571   6.464   8.676   5.014  0.6480  1.0990  0.1170
  171MOL0     H22572   6.243   8.681   5.071  2.3923 -0.6740 -0.9406
  172MOL0     O22573   7.651   7.484   4.548 -0.1875 -0.9590 -0.4686
  172MOL0     C22574   7.611   7.564   4.629 -1.3212  0.1183  0.7302
  172MOL0     O22575   7.485   7.613   4.643  0.3155  0.4850 -0.6894
  172MOL0     C22576   7.377   7.541   4.605 -0.2273  0.2410  0.0894
  172MOL0     C22577   7.270   7.600   4.532  0.1791  0.2475 -0.5621
  172MOL0     C22578   7.162   7.514   4.478 -0.8149 -0.1245  0.7002
  172MOL0     C22579   7.173   7.383   4.511 -0.2724  0.5862  0.9845
  172MOL0     O22580   7.090   7.294   4.450 -0.1056  0.1228 -0.6746
  172MOL0     C22581   6.998   7.227   4.539 -0.9437 -0.6048  0.0486
  172MOL0     C22582   7.028   7.077   4.510  0.9162  0.1222 -0.8158
  172MOL0     C22583   6.956   6.972   4.598  0.4370  0.5192  0.1527
  172MOL0     C22584   6.808   6.975   4.567  0.0390 -0.9539 -0.2489
  172MOL0     C22585   6.726   6.880   4.658  0.1717 -0.0243  0.2380
  172MOL0     C22586   6.580   6.873   4.610 -0.3954 -0.0479 -0.1967
  172MOL0     C22587   6.505   7.009   4.615  0.1726  0.6985 -0.3118
  172MOL0     C22588   6.479   7.059   4.759  0.4195 -0.2767 -1.2457
  172MOL0     N22589   6.369   7.148   4.793 -0.8594 -0.1418 -0.6161
  172MOL0     C22590   6.374   7.228   4.907  0.6189  0.4759  0.7973
  172MOL0     C22591   6.247   7.274   4.920 -1.1099  1.0076  0.0402
  172MOL0     C22592   6.198   7.372   5.024 -0.4959 -0.0794 -0.0126
  172MOL0     C22593   6.257   7.517   4.997 -0.4649  0.2871 -0.1007
  172MOL0     C22594   6.161   7.619   5.066  0.4587 -0.0080  0.2630
  172MOL0     C22595   6.019   7.640   5.013  0.2660 -0.3192  0.4948
  172MOL0     O22596   6.015   7.681   4.872  0.0279  0.3573 -0.3109
  172MOL0     C22597   5.885   7.713   4.818 -0.8787  0.1654  0.2238
  172MOL0     C22598   5.886   7.709   4.682 -0.5622  0.6941 -0.8350
  172MOL0     C22599   5.777   7.726   4.603  0.4228 -1.4840 -0.1753
  172MOL0     C22600   5.657   7.749   4.657  0.3788  0.4910  0.1124
  172MOL0     C22601   5.535   7.775   4.576 -0.4516 -0.3331 -0.0094
  172MOL0     O22602   5.536   7.748   4.441  0.5023 -0.2473 -0.2827
  172MOL0     C22603   5.426   7.786   4.378  0.1851 -0.0104 -0.4130
  172MOL0     C22604   5.307   7.699   4.360  0.0034  0.1281 -0.2592
  172MOL0     C22605   5.203   7.749   4.277  0.7612 -0.0641 -0.7756
  172MOL0     C22606   5.209   7.879   4.225  0.3740  0.0952  0.1669
  172MOL0     O22607   5.098   7.922   4.155 -0.5184  0.5309 -0.6995
  172MOL0     C22608   5.044   8.047   4.209 -0.0766 -0.0901  0.4353
  172MOL0     C22609   4.905   8.049   4.132 -0.0803 -0.3274 -0.0203
  172MOL0     C22610   4.831   8.165   4.191  0.3796  0.6033  0.8196
  172MOL0     C22611   4.693   8.177   4.128  0.1359 -1.5389 -0.0039
  172MOL0     C22612   4.616   8.287   4.205  0.6427  0.9612  0.7302
  172MOL0     C22613   4.512   8.377   4.133 -0.3971  0.2368  0.4122
  172MOL0     C22614   4.579   8.513   4.087  0.4448  0.1364 -0.5800
  172MOL0     C22615   4.709   8.516   4.003  0.3414  0.3196 -0.6247
  172MOL0    Cl22616   4.856   8.518   4.102  0.6717  0.0385 -0.1815
  172MOL0     C22617   5.316   7.961   4.253 -0.4782  0.2510 -0.5196
  172MOL0     C22618   5.426   7.913   4.317 -0.1824  0.1829 -0.8314
  172MOL0     O22619   5.448   7.820   4.647  0.2699  0.5079 -0.2977
  172MOL0     C22620   5.645   7.755   4.804  0.4330 -0.8151  1.0511
  172MOL0     C22621   5.763   7.735   4.883  0.1000 -0.2207  0.3258
  172MOL0     N22622   6.171   7.221   4.810 -0.0888  0.0399  0.4571
  172MOL0     N22623   6.240   7.137   4.748 -0.6763 -0.5483  0.2321
  172MOL0     C22624   7.261   7.334   4.602 -0.2126  0.7955 -0.5591
  172MOL0     C22625   7.362   7.406   4.654 -0.5073 -0.2672 -0.2151
  172MOL0     C22626   7.708   7.630   4.719  0.4290  0.2478  0.1543
  172MOL0     C22627   7.690   7.760   4.761  0.4803  0.5249  0.2335
  172MOL0     C22628   7.784   7.825   4.845 -0.7087  0.7150  0.1161
  172MOL0     C22629   7.896   7.746   4.887  0.2049  0.3511 -0.6782
  172MOL0     O22630   7.990   7.810   4.966 -0.0875 -0.5879 -0.7447
  172MOL0     C22631   7.962   7.827   5.102 -0.1797 -0.2043  0.4204
  172MOL0     C22632   7.968   7.682   5.186  0.9287  0.0629  0.5128
  172MOL0     C22633   7.955   7.698   5.332 -0.8799  1.0912 -0.9221
  172MOL0     C22634   8.059   7.792   5.395 -0.8102  0.0488 -0.3560
  172MOL0     C22635   8.048   7.791   5.537 -0.9168 -0.5199  0.3759
  172MOL0     C22636   8.025   7.802   5.657  0.0308  0.2459  0.4056
  172MOL0     C22637   7.913   7.615   4.837  0.5134 -0.3817 -0.7606
  172MOL0     C22638   7.821   7.556   4.753  0.8431  0.7686 -0.5238
  172MOL0     H22639   7.286   7.701   4.496  2.3417  1.3336  2.9710
  172MOL0     H22640   7.072   7.556   4.433 -0.3403  2.2637  1.8123
  172MOL0     H22641   6.897   7.260   4.510 -0.6916 -1.1410 -1.5645
  172MOL0     H22642   7.030   7.245   4.642 -0.5065  1.2053 -0.3697
  172MOL0     H22643   7.136   7.060   4.516  0.8185 -0.6019 -1.0538
  172MOL0     H22644   6.999   7.055   4.407 -1.5676  0.2870 -0.2261
  172MOL0     H22645   6.979   6.989   4.703  0.9484  0.2456  0.0886
  172MOL0     H22646   7.001   6.874   4.578  0.7503  0.6440  0.2455
  172MOL0     H22647   6.774   7.078   4.583 -1.5757 -1.2108 -1.8136
  172MOL0     H22648   6.790   6.965   4.460  0.2043  0.6577 -0.4563
  172MOL0     H22649   6.733   6.909   4.763  2.1614  1.0626 -0.1477
  172MOL0     H22650   6.779   6.785   4.648  0.6033  0.3275 -1.0005
  172MOL0     H22651   6.525   6.811   4.681  0.0006  2.7813  2.8276
  172MOL0     H22652   6.578   6.838   4.506  1.3885  2.0068 -1.0114
  172MOL0     H22653   6.555   7.098   4.575  0.1479  1.3424  1.0136
  172MOL0     H22654   6.408   6.981   4.573 -0.7358  1.7665  0.9848
  172MOL0     H22655   6.563   7.113   4.803 -2.2329  1.6645  1.8720
  172MOL0     H22656   6.455   6.972   4.820 -0.9273  3.1213  3.6784
  172MOL0     H22657   6.447   7.246   4.986 -0.0288  1.6821  1.1402
  172MOL0     H22658   6.221   7.342   5.127 -2.4426 -0.4660  0.3624
  172MOL0     H22659   6.088   7.379   5.021 -0.4482  0.3287 -1.1017
  172MOL0     H22660   6.259   7.538   4.890 -1.4686  2.3948  0.2405
  172MOL0     H22661   6.355   7.540   5.041  0.8117 -0.9966 -2.1227
  172MOL0     H22662   6.159   7.600   5.174  0.3234  3.8782  1.0858
  172MOL0     H22663   6.219   7.711   5.060  2.3708 -1.2159 -0.7163
  172MOL0     H22664   5.978   7.724   5.069  1.1900  0.7056 -0.2959
  172MOL0     H22665   5.968   7.543   5.019  3.5847 -2.3879 -1.2961
  172MOL0     H22666   5.976   7.679   4.629 -1.0301 -0.5559 -0.9501
  172MOL0     H22667   5.792   7.731   4.496  1.0030 -1.5848 -0.1024
  172MOL0     H22668   5.290   7.599   4.399  0.8609 -0.2140 -0.7376
  172MOL0     H22669   5.105   7.702   4.277  0.3952  0.5903  1.8416
  172MOL0     H22670   5.089   8.143   4.185 -1.5328  0.0391 -2.2441
  172MOL0     H22671   5.038   8.061   4.317  0.0376  4.1564  0.0471
  172MOL0     H22672   4.849   7.958   4.153  1.5548 -1.1879  0.8289
  172MOL0     H22673   4.932   8.071   4.028  1.6071  0.2257  0.4933
  172MOL0     H22674   4.890   8.255   4.172  2.2252 -0.3799  1.6650
  172MOL0     H22675   4.825   8.143   4.298  1.8313  0.9274  0.9774
  172MOL0     H22676   4.701   8.222   4.029 -0.9116  1.9217  1.3271
  172MOL0     H22677   4.629   8.088   4.126  0.2104 -1.5815 -0.6708
  172MOL0     H22678   4.681   8.347   4.269  3.1580 -0.4592 -0.3627
  172MOL0     H22679   4.552   8.230   4.273  1.0538 -0.4288 -0.0280
  172MOL0     H22680   4.439   8.392   4.213  0.6156 -2.4945  1.9591
  172MOL0     H22681   4.465   8.323   4.050 -1.2961  1.6659 -0.0584
  172MOL0     H22682   4.509   8.585   4.045 -2.3586 -0.1359  3.1364
  172MOL0     H22683   4.608   8.578   4.170  0.0461  1.9211 -1.7719
  172MOL0     H22684   4.719   8.605   3.940 -1.3513  0.6000 -0.5315
  172MOL0     H22685   4.711   8.428   3.939  0.4108 -1.9694  2.3234
  172MOL0     H22686   5.299   8.062   4.219  1.0699  2.0855  3.5603
  172MOL0     H22687   5.512   7.974   4.344  1.4758 -2.0067 -0.9755
  172MOL0     H22688   5.554   7.765   4.861  0.7237 -2.4250  1.8814
  172MOL0     H22689   5.745   7.755   4.988 -2.4244  3.6861 -0.6175
  172MOL0     H22690   7.253   7.228   4.618  1.1877  0.6213 -0.8610
  172MOL0     H22691   7.442   7.369   4.718  0.5290 -1.8171 -2.3083
  172MOL0     H22692   7.604   7.819   4.731  0.9821  1.8344  1.2387
  172MOL0     H22693   7.776   7.930   4.873 -0.7871  1.4652 -2.5056
  172MOL0     H22694   7.859   7.863   5.107 -0.3975 -0.4245 -1.6421
  172MOL0     H22695   8.030   7.902   5.143  1.0281  1.0926 -3.5419
  172MOL0     H22696   7.894   7.611   5.147  1.2605 -0.7767  1.3951
  172MOL0     H22697   8.061   7.630   5.164  1.2990  0.7438  0.4473
  172MOL0     H22698   7.965   7.601   5.382  1.8065  1.0659 -1.3570
  172MOL0     H22699   7.860   7.740   5.364 -1.6286 -2.6865  2.6777
  172MOL0     H22700   8.164   7.785   5.366 -0.0815 -1.9230  2.3308
  172MOL0     H22701   8.037   7.894   5.361  3.5795  1.1940 -0.3478
  172MOL0     H22702   8.020   7.814   5.763 -0.3371  1.4696  0.2630
  172MOL0     H22703   8.004   7.563   4.862  0.3361 -0.2401  0.2006
  172MOL0     H22704   7.832   7.454   4.717 -0.9860 -0.9514  3.2145
  173MOL0     O22705   6.176   7.230   3.823 -0.3095  0.2090  0.1772
  173MOL0     C22706   6.055   7.219   3.787  0.0351 -0.8612  0.1000
  173MOL0     O22707   6.011   7.218   3.649 -0.2727  0.2842  0.1362
  173MOL0     C22708   6.089   7.155   3.554 -0.1944 -0.0857 -0.0721
  173MOL0     C22709   6.062   7.178   3.417 -0.1264 -0.0977  0.6660
  173MOL0     C22710   6.136   7.101   3.321 -0.4322  0.1356 -0.5939
  173MOL0     C22711   6.223   6.997   3.360  0.3706 -0.0334 -0.2864
  173MOL0     O22712   6.291   6.924   3.269  0.3731 -1.0235 -0.3982
  173MOL0     C22713   6.419   6.980   3.215 -0.1309 -0.2120  0.5403
  173MOL0     C22714   6.431   6.914   3.070 -0.3494  0.2598 -0.5116
  173MOL0     C22715   6.482   6.773   3.097 -0.6339 -0.4805 -0.3842
  173MOL0     C22716   6.483   6.702   2.966 -0.1822  0.2196 -0.4822
  173MOL0     C22717   6.362   6.612   2.952  0.4854  0.1734 -0.8271
  173MOL0     C22718   6.359   6.572   2.802  0.1307 -0.3321 -0.0884
  173MOL0     C22719   6.276   6.444   2.778 -0.0116 -0.1320 -0.0072
  173MOL0     C22720   6.256   6.415   2.631  0.1886  0.6233 -0.1753
  173MOL0     N22721   6.219   6.270   2.632  0.0002 -0.2606  0.6360
  173MOL0     C22722   6.121   6.199   2.695  0.9196  0.7462  0.4464
  173MOL0     C22723   6.135   6.074   2.644 -0.7516  0.4705  0.1771
  173MOL0     C22724   6.050   5.955   2.685 -0.4739 -0.7094 -0.0807
  173MOL0     C22725   5.893   5.984   2.655  0.2712  0.7101  0.5400
  173MOL0     C22726   5.830   5.844   2.625 -1.3820  0.0276 -0.0244
  173MOL0     C22727   5.870   5.789   2.494 -0.3366  0.0235  0.4236
  173MOL0     O22728   5.833   5.652   2.509  0.6442 -0.8404  0.4358
  173MOL0     C22729   5.725   5.611   2.425  0.1520  0.4981 -0.2597
  173MOL0     C22730   5.595   5.600   2.462  0.2831  0.0440 -1.0325
  173MOL0     C22731   5.498   5.555   2.375 -0.0477 -0.0737 -0.7253
  173MOL0     C22732   5.517   5.521   2.242 -1.0735  0.3991 -0.1225
  173MOL0     C22733   5.412   5.484   2.152  1.3037  0.6162 -0.3083
  173MOL0     O22734   5.305   5.416   2.199 -0.0594  0.0352 -0.4718
  173MOL0     C22735   5.196   5.407   2.117  0.7469  0.7712 -0.7028
  173MOL0     C22736   5.146   5.522   2.062  0.6027  0.4551  0.2196
  173MOL0     C22737   5.047   5.517   1.966 -0.3651 -0.1470  1.1285
  173MOL0     C22738   4.985   5.396   1.922 -0.4380 -0.0865  1.1021
  173MOL0     O22739   4.892   5.410   1.814 -0.4645  0.3259 -0.4658
  173MOL0     C22740   4.794   5.307   1.810  0.4732  0.3462  0.1135
  173MOL0     C22741   4.700   5.383   1.716  0.2049  0.1248  0.3108
  173MOL0     C22742   4.544   5.331   1.710 -0.1171 -0.5814 -0.8722
  173MOL0     C22743   4.518   5.204   1.631 -0.4039 -0.2563 -0.2949
  173MOL0     C22744   4.374   5.147   1.645  0.6983  0.2872  0.4343
  173MOL0     C22745   4.287   5.226   1.548 -0.0855 -0.5848  0.4991
  173MOL0     C22746   4.141   5.186   1.578 -0.0834 -0.0875 -0.0132
  173MOL0     C22747   4.052   5.265   1.486 -0.4257 -1.1521  0.2666
  173MOL0    Cl22748   3.898   5.226   1.562  0.4314 -0.3832 -0.3273
  173MOL0     C22749   5.028   5.279   1.986  0.0248  0.6118  0.5181
  173MOL0     C22750   5.143   5.289   2.070 -1.2505  1.0988  0.0310
  173MOL0     O22751   5.430   5.495   2.031 -0.1909 -0.5767  0.0180
  173MOL0     C22752   5.650   5.518   2.206  0.4131  0.5647  0.2145
  173MOL0     C22753   5.746   5.554   2.299  0.0519  0.8182  1.0178
  173MOL0     N22754   6.250   6.067   2.565  0.3982  0.1173 -0.0820
  173MOL0     N22755   6.302   6.184   2.560  0.5172  1.0323  0.7146
  173MOL0     C22756   6.242   6.972   3.499 -0.4783  0.6959  0.7665
  173MOL0     C22757   6.177   7.053   3.591  0.2714  0.5711  0.9243
  173MOL0     C22758   5.955   7.221   3.885  0.6739 -1.0895 -0.6407
  173MOL0     C22759   5.982   7.166   4.010 -0.0320  0.9415  0.2076
  173MOL0     C22760   5.885   7.185   4.118 -0.2375 -0.9847 -0.5590
  173MOL0     C22761   5.778   7.267   4.100  0.4131 -0.1425  0.7741
  173MOL0     O22762   5.673   7.287   4.186 -0.7955  0.4972  0.1994
  173MOL0     C22763   5.712   7.264   4.320 -0.8708  0.5231 -0.0582
  173MOL0     C22764   5.619   7.342   4.400 -0.0775  0.1553 -0.8754
  173MOL0     C22765   5.650   7.337   4.549  0.2612  0.1080 -0.2895
  173MOL0     C22766   5.552   7.415   4.640  0.0640  0.3068  0.1289
  173MOL0     C22767   5.437   7.342   4.697  0.4221  0.1529 -0.0404
  173MOL0     C22768   5.359   7.303   4.778  0.0393  0.1090  0.2670
  173MOL0     C22769   5.748   7.320   3.973  0.0755 -0.5105 -0.0645
  173MOL0     C22770   5.840   7.303   3.864  0.3401 -0.0011 -0.0023
  173MOL0     H22771   5.989   7.251   3.383  0.1714 -0.4720 -0.8418
  173MOL0     H22772   6.136   7.121   3.214  0.7009  0.4643 -0.5488
  173MOL0     H22773   6.505   6.964   3.280 -1.9829  0.9424  3.4713
  173MOL0     H22774   6.400   7.087   3.198 -5.2629 -1.0467 -0.8032
  173MOL0     H22775   6.494   6.970   3.001  2.1490  4.2497  4.3659
  173MOL0     H22776   6.334   6.922   3.020 -1.5771 -0.1637  1.6701
  173MOL0     H22777   6.412   6.720   3.163 -0.1683 -1.1215 -0.3955
  173MOL0     H22778   6.580   6.775   3.147  0.3239  0.4003 -2.1949
  173MOL0     H22779   6.486   6.774   2.884  0.9969 -0.0253 -0.6760
  173MOL0     H22780   6.567   6.631   2.957  0.6980  0.8634  1.9318
  173MOL0     H22781   6.272   6.658   2.996 -0.5093 -4.2518  2.3907
  173MOL0     H22782   6.366   6.527   3.020  0.4815 -0.1837 -1.2662
  173MOL0     H22783   6.459   6.545   2.768  0.1509 -0.3731  0.0069
  173MOL0     H22784   6.314   6.650   2.739 -1.2004  0.1435  1.3798
  173MOL0     H22785   6.326   6.365   2.835 -2.9313 -3.0738 -1.1695
  173MOL0     H22786   6.178   6.469   2.820  0.6176  2.6397  0.0444
  173MOL0     H22787   6.341   6.429   2.564  0.0618  0.8272 -0.2920
  173MOL0     H22788   6.176   6.476   2.588 -0.6523 -0.3925 -0.0865
  173MOL0     H22789   6.043   6.230   2.764  0.4585  0.6886 -0.0443
  173MOL0     H22790   6.068   5.944   2.792  1.0167  1.9842  0.0485
  173MOL0     H22791   6.095   5.864   2.645  2.4868  0.3386  0.5869
  173MOL0     H22792   5.880   6.052   2.571  2.4904  1.3287  0.6271
  173MOL0     H22793   5.848   6.027   2.745 -0.0842  1.3598  0.0560
  173MOL0     H22794   5.860   5.782   2.710 -1.8947 -1.8681 -1.1664
  173MOL0     H22795   5.721   5.848   2.617 -1.2530  1.0396 -1.9532
  173MOL0     H22796   5.975   5.786   2.466 -0.3511 -2.7963  0.3639
  173MOL0     H22797   5.816   5.823   2.405 -0.5379 -1.3235  0.0048
  173MOL0     H22798   5.568   5.622   2.564 -1.3320 -1.1317 -1.1710
  173MOL0     H22799   5.395   5.541   2.406  0.0461  0.2188 -0.2680
  173MOL0     H22800   5.193   5.611   2.103  0.7819 -0.5253  2.2539
  173MOL0     H22801   5.001   5.613   1.944  1.4129  0.3280 -0.8196
  173MOL0     H22802   4.755   5.277   1.908  1.1401 -2.4955 -0.4106
  173MOL0     H22803   4.821   5.214   1.759  0.5338  0.8476 -0.7928
  173MOL0     H22804   4.728   5.387   1.610 -1.2823  0.9280 -0.0832
  173MOL0     H22805   4.699   5.485   1.755 -1.0442  0.4107 -0.4168
  173MOL0     H22806   4.488   5.415   1.669  1.1000  0.8664  0.3237
  173MOL0     H22807   4.518   5.332   1.817  1.6945  2.7021 -0.3373
  173MOL0     H22808   4.543   5.222   1.526 -1.9483 -0.1553 -0.6642
  173MOL0     H22809   4.586   5.129   1.674 -1.3243 -0.2924  1.1526
  173MOL0     H22810   4.345   5.156   1.750  0.2079  0.6792  0.2710
  173MOL0     H22811   4.370   5.041   1.616 -0.3118  0.2893  0.5496
  173MOL0     H22812   4.312   5.212   1.443 -2.2347  1.1815 -0.3430
  173MOL0     H22813   4.305   5.334   1.557  1.8443 -0.5626 -2.4335
  173MOL0     H22814   4.130   5.085   1.537  2.1405 -0.6425  0.6185
  173MOL0     H22815   4.108   5.195   1.682 -0.0302  1.0290 -0.0821
  173MOL0     H22816   4.059   5.237   1.380  1.4071 -1.1904  0.3624
  173MOL0     H22817   4.063   5.373   1.501  2.4411 -1.2823 -0.3754
  173MOL0     H22818   5.005   5.175   1.968  0.2261  0.1938  2.4064
  173MOL0     H22819   5.186   5.197   2.110 -0.2386 -0.5529 -4.3212
  173MOL0     H22820   5.671   5.504   2.100  0.6100 -3.3824  0.5929
  173MOL0     H22821   5.851   5.552   2.270 -0.1487  0.2107  0.3219
  173MOL0     H22822   6.325   6.905   3.520 -0.2619  0.4389 -0.7589
  173MOL0     H22823   6.208   7.039   3.695 -0.8722  3.6243  1.8029
  173MOL0     H22824   6.080   7.126   4.034  0.2006  0.7777 -0.9485
  173MOL0     H22825   5.907   7.130   4.209 -0.8222 -0.4251 -0.0706
  173MOL0     H22826   5.810   7.291   4.361 -1.8957  2.9137  1.0563
  173MOL0     H22827   5.683   7.163   4.353  1.3367 -0.4902 -1.0370
  173MOL0     H22828   5.611   7.444   4.360 -1.0962  0.7462  0.7058
  173MOL0     H22829   5.522   7.295   4.381 -0.9498  1.7366 -0.5431
  173MOL0     H22830   5.748   7.385   4.556  1.7672 -2.7153 -0.1297
  173MOL0     H22831   5.662   7.236   4.591  1.3757  0.1101 -0.5614
  173MOL0     H22832   5.616   7.457   4.718 -1.1268 -0.9366  1.8506
  173MOL0     H22833   5.519   7.503   4.583  1.5308  0.0032 -1.2623
  173MOL0     H22834   5.305   7.266   4.863  1.2428 -2.6752 -0.0494
  173MOL0     H22835   5.654   7.374   3.968 -1.0640 -2.5311 -2.4100
  173MOL0     H22836   5.821   7.337   3.763  4.4223  0.5550 -0.7285
  174MOL0     O22837   8.806   9.585   9.354  0.3800  0.0136  0.0882
  174MOL0     C22838   8.732   9.533   9.267  2.0112  0.1888 -0.7620
  174MOL0     O22839   8.754   9.535   9.128 -0.2084  0.3857 -0.2598
  174MOL0     C22840   8.890   9.552   9.099 -0.1980  0.7096  0.2862
  174MOL0     C22841   8.925   9.644   8.995 -0.0093  0.2769 -0.2432
  174MOL0     C22842   9.062   9.658   8.952 -0.1471 -0.1938 -0.3355
  174MOL0     C22843   9.161   9.569   9.007  0.2016 -0.5041  0.1938
  174MOL0     O22844   9.287   9.591   8.946 -0.4617 -0.3762 -0.6799
  174MOL0     C22845   9.410   9.515   8.973  0.7925  0.2349  0.1660
  174MOL0     C22846   9.520   9.569   8.883  0.3419  0.4658 -0.0474
  174MOL0     C22847   9.648   9.475   8.871  0.1783  0.6240  0.3206
  174MOL0     C22848   9.618   9.347   8.780 -0.1189  0.1065 -1.0169
  174MOL0     C22849   9.735   9.247   8.783 -0.3566 -0.3599  0.6668
  174MOL0     C22850   9.697   9.098   8.809 -0.4450 -0.0323 -0.1742
  174MOL0     C22851   9.613   9.046   8.698 -0.2575 -0.1753  0.3187
  174MOL0     C22852   9.694   8.984   8.580 -1.0743  0.4203  1.4969
  174MOL0     N22853   9.615   8.933   8.462 -1.3528  0.0264  0.6710
  174MOL0     C22854   9.554   9.006   8.363  0.3329  0.3032 -0.0415
  174MOL0     C22855   9.452   8.932   8.319  0.4270  0.3842 -0.0053
  174MOL0     C22856   9.353   8.981   8.212 -0.5188 -0.0989 -0.2774
  174MOL0     C22857   9.206   8.967   8.270 -0.5842  0.3968 -0.0093
  174MOL0     C22858   9.113   9.073   8.210 -0.1577  0.0255 -0.4499
  174MOL0     C22859   8.966   9.049   8.272  0.3977  0.2521  0.0276
  174MOL0     O22860   8.874   9.097   8.174  0.5082  0.1799  0.3273
  174MOL0     C22861   8.847   9.229   8.159 -0.0173 -0.2124  0.0619
  174MOL0     C22862   8.907   9.335   8.229  0.4128  0.1102  0.6569
  174MOL0     C22863   8.871   9.469   8.194  1.1065  0.0426  0.0760
  174MOL0     C22864   8.774   9.503   8.091  0.0342  0.4611 -1.0274
  174MOL0     C22865   8.746   9.650   8.073 -0.3161 -0.3370 -0.3333
  174MOL0     O22866   8.825   9.739   8.148  0.0029  0.2341  0.4048
  174MOL0     C22867   8.826   9.869   8.134 -0.1531  0.1218 -0.0961
  174MOL0     C22868   8.850   9.923   8.003  0.0983 -0.5502 -0.0809
  174MOL0     C22869   8.858  10.064   7.975  0.5747  0.2253 -0.4215
  174MOL0     C22870   8.851  10.147   8.092 -1.5683  0.0469  0.1390
  174MOL0     O22871   8.862  10.280   8.066 -0.5979  0.0225 -0.7656
  174MOL0     C22872   8.761  10.360   8.117 -0.0023  0.0361 -0.0787
  174MOL0     C22873   8.754  10.489   8.046 -0.4032 -0.2648  0.0944
  174MOL0     C22874   8.660  10.601   8.100  0.4135  0.0363  0.2654
  174MOL0     C22875   8.506  10.563   8.085 -0.8876 -0.1746  0.6940
  174MOL0     C22876   8.426  10.641   8.187 -0.7360  0.3169  0.0911
  174MOL0     C22877   8.284  10.584   8.203 -0.0722  0.3354  1.5731
  174MOL0     C22878   8.186  10.593   8.082 -0.2948  0.9897  0.6101
  174MOL0     C22879   8.041  10.538   8.115  1.2290  0.2932  0.2589
  174MOL0    Cl22880   7.952  10.530   7.960 -0.3243 -0.1454 -0.3690
  174MOL0     C22881   8.845  10.086   8.216  0.3496  0.5936  0.0042
  174MOL0     C22882   8.843   9.951   8.240 -0.1183 -0.6620  0.9183
  174MOL0     O22883   8.654   9.681   8.001  0.1622  0.5654  0.4056
  174MOL0     C22884   8.704   9.396   8.043  0.2513 -0.7634 -0.2028
  174MOL0     C22885   8.748   9.270   8.065 -0.8961  0.4712 -0.6142
  174MOL0     N22886   9.459   8.818   8.394  0.3634 -0.2111 -0.5730
  174MOL0     N22887   9.541   8.824   8.488 -0.6631  0.5201 -0.2707
  174MOL0     C22888   9.131   9.491   9.118  0.6874  0.0055  0.1909
  174MOL0     C22889   8.999   9.475   9.158  0.5595 -0.1945 -0.0174
  174MOL0     C22890   8.605   9.488   9.310  0.2803  0.0980  0.2907
  174MOL0     C22891   8.550   9.517   9.438 -1.3358 -0.2464 -0.3060
  174MOL0     C22892   8.417   9.482   9.471 -0.1856 -0.4716 -0.0776
  174MOL0     C22893   8.330   9.421   9.377  0.8581 -0.2419 -0.5779
  174MOL0     O22894   8.190   9.408   9.401  0.4019  0.2574  0.1919
  174MOL0     C22895   8.145   9.479   9.521 -0.7489 -0.0839  0.3682
  174MOL0     C22896   7.992   9.469   9.522 -0.8233 -0.7505  0.2146
  174MOL0     C22897   7.940   9.336   9.563 -0.4335  0.6122  0.2671
  174MOL0     C22898   7.789   9.347   9.572  0.8267  0.3812 -1.1781
  174MOL0     C22899   7.746   9.403   9.710  0.5874 -1.4063  1.0799
  174MOL0     C22900   7.700   9.415   9.819  0.1591 -0.4673  0.1478
  174MOL0     C22901   8.385   9.388   9.254 -0.3165 -0.3122 -0.8271
  174MOL0     C22902   8.521   9.419   9.219  0.6354 -0.0550 -0.1423
  174MOL0     H22903   8.858   9.715   8.948  3.3196  3.3375 -0.8119
  174MOL0     H22904   9.088   9.733   8.877 -1.2208 -0.6000 -1.1419
  174MOL0     H22905   9.396   9.411   8.940  1.8620 -1.0050  3.2330
  174MOL0     H22906   9.424   9.515   9.081  1.8233  0.8714  0.0375
  174MOL0     H22907   9.554   9.667   8.917  3.5687 -0.4406 -0.3600
  174MOL0     H22908   9.485   9.605   8.785 -1.9363 -1.1590  0.0913
  174MOL0     H22909   9.674   9.437   8.970  0.4618  1.1423  0.4486
  174MOL0     H22910   9.731   9.522   8.818 -1.9771  1.3966 -2.6773
  174MOL0     H22911   9.526   9.301   8.819  0.9426 -0.7545  0.6054
  174MOL0     H22912   9.589   9.381   8.680  0.1628  0.5755 -0.9399
  174MOL0     H22913   9.804   9.274   8.864  1.0669  1.9253 -1.1996
  174MOL0     H22914   9.786   9.249   8.687 -0.6688  1.0610  0.5196
  174MOL0     H22915   9.656   9.079   8.908 -0.9689  0.9088 -0.1990
  174MOL0     H22916   9.790   9.041   8.798  0.7338  1.1447  2.7573
  174MOL0     H22917   9.550   8.966   8.737 -0.6008 -0.6689 -1.1620
  174MOL0     H22918   9.544   9.123   8.661 -1.1983  0.4993  3.2206
  174MOL0     H22919   9.760   8.903   8.609 -0.9728 -0.4129 -0.8119
  174MOL0     H22920   9.755   9.066   8.541 -1.1468  0.3175  1.1622
  174MOL0     H22921   9.568   9.112   8.342  1.1485  0.4204  0.9742
  174MOL0     H22922   9.361   8.916   8.124 -0.9496 -0.7942  0.1773
  174MOL0     H22923   9.378   9.074   8.162  2.6004 -0.9068 -0.4015
  174MOL0     H22924   9.217   8.991   8.376  3.1552  1.6274 -0.5239
  174MOL0     H22925   9.165   8.867   8.252  0.3962 -0.5648  2.5957
  174MOL0     H22926   9.156   9.168   8.244 -1.9771  1.2981 -1.5022
  174MOL0     H22927   9.103   9.081   8.101 -0.2296 -0.2705 -0.4649
  174MOL0     H22928   8.952   9.100   8.368  0.2896 -0.5303  0.4307
  174MOL0     H22929   8.955   8.943   8.295  0.7291  0.8075  3.1257
  174MOL0     H22930   8.977   9.303   8.306 -1.8515 -2.4094  1.7763
  174MOL0     H22931   8.926   9.545   8.250 -2.1810  2.2207  0.6338
  174MOL0     H22932   8.847   9.862   7.914  5.9794 -3.5522  1.3138
  174MOL0     H22933   8.857  10.103   7.873 -0.7142 -0.3868 -0.6745
  174MOL0     H22934   8.763  10.375   8.225 -0.8396  2.1017 -0.3023
  174MOL0     H22935   8.667  10.307   8.097 -0.2164  0.8882 -1.5267
  174MOL0     H22936   8.729  10.484   7.939  0.3791  3.1203 -0.3791
  174MOL0     H22937   8.856  10.528   8.044  0.6629 -2.8948 -1.0702
  174MOL0     H22938   8.674  10.699   8.053 -2.7769  0.6228  0.2805
  174MOL0     H22939   8.689  10.610   8.205 -1.3210  0.4159  0.7397
  174MOL0     H22940   8.476  10.588   7.983  1.2370 -0.9789 -0.1909
  174MOL0     H22941   8.492  10.455   8.093  0.8913 -0.6574 -1.6556
  174MOL0     H22942   8.426  10.748   8.164 -2.3039  0.6229  1.3747
  174MOL0     H22943   8.466  10.640   8.288 -1.5150  2.3761  0.4715
  174MOL0     H22944   8.239  10.649   8.279 -1.0868  2.8293 -0.9749
  174MOL0     H22945   8.277  10.487   8.252 -0.7861 -0.0359  0.7632
  174MOL0     H22946   8.185  10.692   8.037 -2.5789  1.8782  2.4044
  174MOL0     H22947   8.218  10.518   8.008  0.5680  0.4545  1.5006
  174MOL0     H22948   7.976  10.590   8.186 -1.2365 -0.7278 -1.1299
  174MOL0     H22949   8.049  10.440   8.162  2.6320  0.0141 -0.5064
  174MOL0     H22950   8.858  10.146   8.306  1.4542  0.2559  0.0750
  174MOL0     H22951   8.852   9.913   8.342 -0.1082 -2.9457  0.1296
  174MOL0     H22952   8.604   9.414   8.004  0.5017  2.0643  0.2886
  174MOL0     H22953   8.685   9.189   8.028  0.6045 -0.5674 -0.9990
  174MOL0     H22954   9.218   9.447   9.166  1.0940  1.0673  0.4389
  174MOL0     H22955   8.966   9.399   9.227 -1.2292 -1.0076 -1.6814
  174MOL0     H22956   8.616   9.563   9.511 -2.7514 -1.5327  1.8825
  174MOL0     H22957   8.392   9.518   9.570  2.0393  2.0159 -0.2878
  174MOL0     H22958   8.187   9.580   9.519 -1.2095  0.1001 -0.7202
  174MOL0     H22959   8.190   9.435   9.611 -3.2728  0.2693  1.9203
  174MOL0     H22960   7.934   9.542   9.579 -3.4377 -1.1539 -1.7270
  174MOL0     H22961   7.961   9.493   9.420 -1.4547 -1.7316  0.1674
  174MOL0     H22962   7.990   9.300   9.653 -4.0430 -2.7630  1.2106
  174MOL0     H22963   7.963   9.268   9.480 -2.1756 -1.1916  1.1705
  174MOL0     H22964   7.742   9.417   9.502 -0.2621 -1.4670 -2.3881
  174MOL0     H22965   7.736   9.252   9.556 -0.0546  1.0761 -2.6487
  174MOL0     H22966   7.652   9.428   9.914 -0.8951 -0.2005 -0.4074
  174MOL0     H22967   8.317   9.343   9.183  0.1033  0.7132 -1.9179
  174MOL0     H22968   8.552   9.400   9.117 -0.5505  1.3062 -0.7955
  175MOL0     O22969   1.157   0.639   0.823  0.3902  0.0066 -0.2388
  175MOL0     C22970   1.055   0.700   0.859 -0.0935  0.1333 -0.5396
  175MOL0     O22971   0.974   0.778   0.769 -0.1395  0.2662  0.0046
  175MOL0     C22972   0.980   0.750   0.636 -0.3907 -0.8851  0.5922
  175MOL0     C22973   1.045   0.647   0.548  0.1101 -0.3392 -1.6527
  175MOL0     C22974   1.007   0.642   0.413  0.1903 -0.2922 -0.0149
  175MOL0     C22975   0.925   0.736   0.349 -0.5891 -0.4839  0.1132
  175MOL0     O22976   0.894   0.706   0.212  0.0155 -0.3988  0.2358
  175MOL0     C22977   0.804   0.772   0.125  0.3643 -0.7895 -1.1843
  175MOL0     C22978   0.800   0.727  -0.017 -0.1054  0.1273  0.2029
  175MOL0     C22979   0.703   0.808  -0.098 -0.7372 -0.3381 -1.1141
  175MOL0     C22980   0.648   0.745  -0.229 -0.3931 -0.0654 -0.0713
  175MOL0     C22981   0.575   0.837  -0.326  0.7901 -0.4036  0.5434
  175MOL0     C22982   0.480   0.752  -0.410 -0.1020 -0.2281 -0.1883
  175MOL0     C22983   0.372   0.832  -0.491  0.4427 -0.0753  0.6118
  175MOL0     C22984   0.440   0.936  -0.590  0.1108 -0.7338  0.4026
  175MOL0     N22985   0.330   1.015  -0.644 -0.0834 -0.5395  0.3545
  175MOL0     C22986   0.211   0.955  -0.688  0.1172 -0.8605 -0.7704
  175MOL0     C22987   0.149   1.056  -0.741  1.1857 -0.2722 -0.2181
  175MOL0     C22988   0.014   1.031  -0.815 -0.3880 -0.1459  0.5178
  175MOL0     C22989   0.052   1.099  -0.956  0.0348  0.2170 -0.5478
  175MOL0     C22990  -0.081   1.103  -1.047 -0.8790  0.2528  0.0445
  175MOL0     C22991  -0.104   0.978  -1.140  1.1912 -0.5670  0.0841
  175MOL0     O22992  -0.235   0.946  -1.141  0.3507  0.2233 -0.7146
  175MOL0     C22993  -0.312   0.990  -1.242  0.4287 -0.5875 -0.0947
  175MOL0     C22994  -0.300   0.941  -1.371 -0.4545 -0.0251  0.1101
  175MOL0     C22995  -0.407   0.960  -1.472 -0.4792 -0.6086 -0.2874
  175MOL0     C22996  -0.504   1.056  -1.449  0.3136 -0.3824 -0.2597
  175MOL0     C22997  -0.597   1.095  -1.553 -0.3252 -0.1714  0.1750
  175MOL0     O22998  -0.646   1.218  -1.540 -1.1178  0.3008 -0.5473
  175MOL0     C22999  -0.750   1.245  -1.624 -0.8140  0.1349 -0.1477
  175MOL0     C23000  -0.733   1.325  -1.734 -0.2271 -1.5735 -0.2162
  175MOL0     C23001  -0.841   1.354  -1.811  0.3326  0.5359  0.5082
  175MOL0     C23002  -0.975   1.309  -1.775 -0.2108 -0.2392 -0.2984
  175MOL0     O23003  -1.102   1.343  -1.835 -0.3509  0.2431 -1.1017
  175MOL0     C23004  -1.084   1.437  -1.941  0.1779 -0.4915  0.3765
  175MOL0     C23005  -1.222   1.451  -2.005 -0.0229 -0.1182 -0.8170
  175MOL0     C23006  -1.226   1.376  -2.145 -0.4792 -1.0816  0.2530
  175MOL0     C23007  -1.344   1.445  -2.219  0.0069  0.7103 -0.0845
  175MOL0     C23008  -1.342   1.422  -2.370  0.2697  0.2583  0.0656
  175MOL0     C23009  -1.299   1.551  -2.442 -0.6414 -0.7279  0.2223
  175MOL0     C23010  -1.165   1.608  -2.392 -0.4299  0.5275 -0.8101
  175MOL0     C23011  -1.108   1.722  -2.467  0.3919  0.1468  0.3574
  175MOL0    Cl23012  -1.198   1.864  -2.458 -0.1573  0.0599 -0.2949
  175MOL0     C23013  -0.991   1.228  -1.665 -0.2484 -0.2568 -0.5179
  175MOL0     C23014  -0.883   1.200  -1.587 -0.7061 -0.3959 -0.1919
  175MOL0     O23015  -0.609   1.021  -1.655  0.7088 -0.7819  0.0558
  175MOL0     C23016  -0.504   1.115  -1.323 -0.2392  0.5591 -0.3206
  175MOL0     C23017  -0.407   1.088  -1.226 -0.3310 -0.6806  0.3869
  175MOL0     N23018   0.195   1.179  -0.706 -0.5478 -0.0172  0.3763
  175MOL0     N23019   0.315   1.153  -0.662  0.1418  0.7930 -0.2969
  175MOL0     C23020   0.879   0.841   0.424 -0.2343  0.7528  0.2020
  175MOL0     C23021   0.914   0.851   0.564  0.1524 -0.5406  0.3424
  175MOL0     C23022   1.036   0.735   0.997  1.1147 -0.3374 -0.5050
  175MOL0     C23023   1.110   0.671   1.096 -0.9435 -0.5193 -0.1138
  175MOL0     C23024   1.077   0.679   1.234 -0.6492  0.5238  0.0814
  175MOL0     C23025   0.978   0.764   1.273  0.1265 -0.5754 -0.1200
  175MOL0     O23026   0.975   0.783   1.402 -0.1043 -0.2330 -0.2126
  175MOL0     C23027   0.868   0.862   1.469  1.2579  1.4436  0.3324
  175MOL0     C23028   0.865   0.822   1.624  0.4240 -0.5892  0.3980
  175MOL0     C23029   0.851   0.670   1.656  0.7476  1.6224 -0.6190
  175MOL0     C23030   0.971   0.602   1.731  0.3198 -0.9277 -0.5369
  175MOL0     C23031   0.992   0.665   1.864 -0.0587  0.6751 -0.5599
  175MOL0     C23032   0.999   0.725   1.965 -1.1072 -0.6040 -0.2723
  175MOL0     C23033   0.895   0.828   1.180  0.2037 -0.2899  0.5026
  175MOL0     C23034   0.916   0.809   1.045  0.1731 -0.2952 -0.2531
  175MOL0     H23035   1.108   0.569   0.592  1.0947 -0.7360 -3.6727
  175MOL0     H23036   1.057   0.572   0.346  0.9555 -0.2952  0.5436
  175MOL0     H23037   0.817   0.880   0.133 -0.5011 -0.8085  3.4852
  175MOL0     H23038   0.708   0.747   0.172  2.4964 -0.4174  4.1541
  175MOL0     H23039   0.768   0.623  -0.014 -1.5480  0.2460 -3.9649
  175MOL0     H23040   0.898   0.733  -0.065 -0.0901 -2.0901 -0.1243
  175MOL0     H23041   0.740   0.909  -0.118  0.7944 -0.6131  0.0828
  175MOL0     H23042   0.615   0.828  -0.036  1.1206  3.2252  0.6888
  175MOL0     H23043   0.734   0.716  -0.291  0.4554  2.3585 -0.1092
  175MOL0     H23044   0.586   0.660  -0.198 -0.1537  0.2541  1.3243
  175MOL0     H23045   0.648   0.893  -0.385  2.6519 -3.3331 -0.1436
  175MOL0     H23046   0.515   0.908  -0.268  1.0942  1.7624 -1.6332
  175MOL0     H23047   0.417   0.692  -0.343  0.0682 -2.0882 -1.6218
  175MOL0     H23048   0.541   0.687  -0.473 -0.1816 -0.9055  0.4274
  175MOL0     H23049   0.308   0.758  -0.540  3.5875 -1.2091 -2.1588
  175MOL0     H23050   0.312   0.895  -0.424 -4.5832 -0.4205 -3.0020
  175MOL0     H23051   0.496   0.874  -0.662 -0.7275 -2.3939  1.1126
  175MOL0     H23052   0.506   1.002  -0.534 -0.0237  0.2094 -0.5270
  175MOL0     H23053   0.198   0.848  -0.703 -1.9085 -0.6559 -0.7758
  175MOL0     H23054  -0.075   1.080  -0.775 -1.5698  0.3452 -2.4263
  175MOL0     H23055  -0.016   0.928  -0.838 -0.7526 -0.0834  0.7160
  175MOL0     H23056   0.140   1.047  -0.994 -0.3692 -0.6294 -0.3454
  175MOL0     H23057   0.078   1.203  -0.935 -2.7055  0.5993  1.5468
  175MOL0     H23058  -0.166   1.115  -0.980  1.0510 -0.5380  2.8322
  175MOL0     H23059  -0.060   1.190  -1.110  0.2858 -0.0167  0.0315
  175MOL0     H23060  -0.050   0.907  -1.077  1.6049 -0.6667 -0.3754
  175MOL0     H23061  -0.076   0.982  -1.246 -0.0816  2.1368 -0.2258
  175MOL0     H23062  -0.216   0.875  -1.387  1.5099  2.4949 -0.5378
  175MOL0     H23063  -0.395   0.901  -1.562  0.9611 -0.0560 -0.4857
  175MOL0     H23064  -0.638   1.370  -1.762 -0.8567 -1.0186 -1.5259
  175MOL0     H23065  -0.809   1.418  -1.892 -0.4020  0.5570  0.2268
  175MOL0     H23066  -1.011   1.396  -2.012 -0.0071  0.4682 -0.3953
  175MOL0     H23067  -1.035   1.528  -1.906  2.3272 -2.0236  1.5856
  175MOL0     H23068  -1.217   1.557  -2.034  1.4800 -0.7283 -2.9744
  175MOL0     H23069  -1.302   1.416  -1.938 -0.9592 -0.2194 -1.9515
  175MOL0     H23070  -1.234   1.267  -2.143  0.9410 -1.2585  3.4993
  175MOL0     H23071  -1.131   1.400  -2.194  0.8183  0.6709  3.3617
  175MOL0     H23072  -1.434   1.396  -2.180  2.3246 -3.2033  0.9615
  175MOL0     H23073  -1.364   1.551  -2.202 -4.3863 -0.3569  3.1680
  175MOL0     H23074  -1.443   1.394  -2.404 -0.5305  1.5618  1.2514
  175MOL0     H23075  -1.272   1.345  -2.402  0.2592  1.4311 -3.1463
  175MOL0     H23076  -1.373   1.631  -2.433  4.0957  4.5780 -1.9841
  175MOL0     H23077  -1.285   1.542  -2.550 -2.1034  1.0235 -0.1458
  175MOL0     H23078  -1.171   1.647  -2.290  2.5096  0.1321 -0.3857
  175MOL0     H23079  -1.088   1.531  -2.397 -0.0628  0.4294  3.1457
  175MOL0     H23080  -1.084   1.695  -2.571 -1.2573 -1.7550  0.4045
  175MOL0     H23081  -1.017   1.746  -2.412 -1.0405 -0.1585  3.0042
  175MOL0     H23082  -1.091   1.192  -1.644 -0.2317 -0.1555 -0.2621
  175MOL0     H23083  -0.910   1.157  -1.492 -4.2080 -0.1096 -0.9237
  175MOL0     H23084  -0.591   1.177  -1.302 -0.7065  0.0340 -0.6628
  175MOL0     H23085  -0.413   1.130  -1.126  2.2715  2.9576 -0.7874
  175MOL0     H23086   0.813   0.907   0.369 -1.2871 -0.2404  0.2314
  175MOL0     H23087   0.871   0.928   0.628  1.3148 -1.3059  2.1397
  175MOL0     H23088   1.192   0.610   1.061  1.1254  2.2509 -0.3556
  175MOL0     H23089   1.140   0.638   1.313  0.8921 -0.8007 -1.7465
  175MOL0     H23090   0.774   0.829   1.423  1.9967 -2.4363  1.1697
  175MOL0     H23091   0.877   0.970   1.462  0.7979  1.4697  0.0802
  175MOL0     H23092   0.965   0.846   1.661  1.1695 -2.3284 -0.3633
  175MOL0     H23093   0.798   0.885   1.683  1.4834  2.3970 -1.3947
  175MOL0     H23094   0.817   0.603   1.577  0.8325 -0.9579  1.3965
  175MOL0     H23095   0.769   0.665   1.728  2.0694 -0.9990  0.8331
  175MOL0     H23096   0.959   0.495   1.752  3.2493 -1.3143 -0.4256
  175MOL0     H23097   1.053   0.617   1.660 -0.1490 -1.9411 -1.3236
  175MOL0     H23098   1.019   0.792   2.047  3.7614 -0.8894 -0.8950
  175MOL0     H23099   0.822   0.902   1.210  0.0709 -0.0304 -0.4382
  175MOL0     H23100   0.845   0.855   0.977  1.8851  4.0765  0.5840
  176MOL0     O23101   8.562   8.493   4.368 -0.8915  0.0511 -0.8960
  176MOL0     C23102   8.622   8.400   4.310  0.3614 -0.2136 -0.5399
  176MOL0     O23103   8.663   8.400   4.186 -0.4389 -0.5703 -0.2409
  176MOL0     C23104   8.635   8.523   4.117  0.3833  0.6559  0.3142
  176MOL0     C23105   8.712   8.639   4.129 -0.9758  0.2319 -1.2756
  176MOL0     C23106   8.649   8.767   4.093 -0.4639  0.3061  0.0598
  176MOL0     C23107   8.525   8.775   4.032  0.0658  0.0837  0.0463
  176MOL0     O23108   8.485   8.895   3.986 -0.1670 -0.4363  0.2418
  176MOL0     C23109   8.351   8.909   3.943 -1.0235 -0.9363 -0.0550
  176MOL0     C23110   8.307   9.061   3.943  0.1557  0.5379  0.4298
  176MOL0     C23111   8.167   9.078   3.883 -0.4087 -0.2462  1.0471
  176MOL0     C23112   8.166   9.077   3.733 -0.2759 -0.1825  0.1210
  176MOL0     C23113   8.214   9.210   3.676 -0.6377 -0.1878  0.8929
  176MOL0     C23114   8.205   9.212   3.526 -0.7963  0.3638 -0.4173
  176MOL0     C23115   8.269   9.332   3.460 -0.2375 -0.7312 -0.7917
  176MOL0     C23116   8.280   9.460   3.549  0.4390  0.8078 -0.1341
  176MOL0     N23117   8.330   9.569   3.479  0.1516 -0.6517 -0.5496
  176MOL0     C23118   8.269   9.653   3.386 -0.9857  0.5335  0.6823
  176MOL0     C23119   8.363   9.735   3.336 -0.0049  0.5012 -0.1359
  176MOL0     C23120   8.348   9.806   3.208 -0.5591 -0.7474 -0.2838
  176MOL0     C23121   8.270   9.926   3.233  0.4569  0.3772 -0.0414
  176MOL0     C23122   8.247   9.996   3.105 -1.5292 -0.5603  0.1347
  176MOL0     C23123   8.148  10.104   3.124 -0.5909 -1.4635  0.8127
  176MOL0     O23124   8.027  10.029   3.111 -0.2109  0.4688 -0.2713
  176MOL0     C23125   7.919  10.098   3.157 -0.4073  0.7842  0.2602
  176MOL0     C23126   7.806  10.128   3.075  0.1061 -0.0544 -0.3373
  176MOL0     C23127   7.684  10.167   3.129 -0.3919 -0.7433 -0.1805
  176MOL0     C23128   7.662  10.189   3.264  0.5676  0.3923 -0.2694
  176MOL0     C23129   7.530  10.221   3.312  0.5071  0.5688  0.1840
  176MOL0     O23130   7.424  10.187   3.222 -0.3550 -0.1035  0.1677
  176MOL0     C23131   7.296  10.177   3.263  0.2366 -0.2442  1.2104
  176MOL0     C23132   7.193  10.210   3.165 -0.7317  0.5097  0.1950
  176MOL0     C23133   7.058  10.191   3.193 -0.1046 -0.4067  0.5690
  176MOL0     C23134   7.022  10.131   3.321 -0.5327  0.2147 -0.7348
  176MOL0     O23135   6.888  10.111   3.349  0.4960  0.3627  0.0822
  176MOL0     C23136   6.796  10.098   3.238  0.0120  1.3749  0.8919
  176MOL0     C23137   6.738  10.236   3.211  0.0823  0.0684  0.1242
  176MOL0     C23138   6.637  10.297   3.310 -0.4146  0.3938 -0.1447
  176MOL0     C23139   6.501  10.218   3.308  0.1992  0.0905 -0.1911
  176MOL0     C23140   6.406  10.300   3.407 -0.9780  0.7305  0.3482
  176MOL0     C23141   6.381  10.447   3.369  0.8693 -0.0211  0.8051
  176MOL0     C23142   6.326  10.465   3.216 -0.2470 -0.4713  0.7272
  176MOL0     C23143   6.260  10.608   3.205  1.0192 -0.0429 -1.0078
  176MOL0    Cl23144   6.090  10.586   3.245 -0.1303  0.2207 -0.5188
  176MOL0     C23145   7.114  10.098   3.419 -0.4979  0.3998 -0.3885
  176MOL0     C23146   7.252  10.122   3.387  0.3394  0.7864  0.4408
  176MOL0     O23147   7.518  10.266   3.424  1.2176 -0.3325  0.3402
  176MOL0     C23148   7.771  10.158   3.338 -0.3978 -0.3868  0.0426
  176MOL0     C23149   7.900  10.111   3.292 -0.0945 -0.4472 -0.2440
  176MOL0     N23150   8.477   9.707   3.408  0.0672 -0.1059 -0.0110
  176MOL0     N23151   8.456   9.606   3.486 -0.2613 -0.4423  0.7167
  176MOL0     C23152   8.458   8.650   4.023  0.3474  0.0374 -0.5307
  176MOL0     C23153   8.506   8.533   4.076  0.0919  0.3049  1.0962
  176MOL0     C23154   8.640   8.275   4.396  0.9506 -0.1278 -1.1274
  176MOL0     C23155   8.575   8.263   4.523 -0.6628  0.0293 -0.1275
  176MOL0     C23156   8.584   8.149   4.598  0.0680  0.2199  0.8494
  176MOL0     C23157   8.633   8.032   4.543 -0.3188 -0.9212  0.7179
  176MOL0     O23158   8.632   7.926   4.632  0.5818 -0.0700 -0.1115
  176MOL0     C23159   8.636   7.796   4.585  0.6771  1.2162 -0.3348
  176MOL0     C23160   8.580   7.701   4.691 -0.2299  0.7960  0.1988
  176MOL0     C23161   8.427   7.721   4.719 -0.2992 -0.0211 -0.2083
  176MOL0     C23162   8.377   7.631   4.834 -0.0328 -0.4189 -0.1538
  176MOL0     C23163   8.388   7.485   4.808  1.0703  0.0672  0.0057
  176MOL0     C23164   8.408   7.375   4.768 -1.0991  0.3961  0.1560
  176MOL0     C23165   8.699   8.037   4.419 -0.6912 -0.2872 -0.1950
  176MOL0     C23166   8.698   8.155   4.339  0.1452 -0.4405  0.0274
  176MOL0     H23167   8.809   8.647   4.177 -0.7041  0.6350 -1.8872
  176MOL0     H23168   8.704   8.856   4.121 -1.1128  0.4888  0.7947
  176MOL0     H23169   8.277   8.849   3.997 -1.6267  0.5718  0.8583
  176MOL0     H23170   8.367   8.883   3.838 -1.7289 -2.9708  0.2966
  176MOL0     H23171   8.382   9.127   3.898  0.6497 -1.9588 -2.8224
  176MOL0     H23172   8.305   9.098   4.046 -2.1506 -0.9100  0.9780
  176MOL0     H23173   8.121   9.172   3.914 -1.6354  1.0342 -3.8289
  176MOL0     H23174   8.087   9.008   3.908 -2.5590  0.1498 -3.6856
  176MOL0     H23175   8.231   8.997   3.696  0.1604 -0.2537  1.0114
  176MOL0     H23176   8.066   9.075   3.689 -0.6819  3.3849  0.6022
  176MOL0     H23177   8.322   9.224   3.691  0.1285 -1.1730 -2.6802
  176MOL0     H23178   8.151   9.287   3.719 -2.8253 -2.5102  2.1233
  176MOL0     H23179   8.100   9.226   3.498 -0.9525  1.3613  0.5620
  176MOL0     H23180   8.245   9.119   3.486  1.8896  1.5470 -0.6984
  176MOL0     H23181   8.376   9.324   3.438  0.0605  0.0425  0.3014
  176MOL0     H23182   8.219   9.359   3.366  0.0609  3.2506 -0.0101
  176MOL0     H23183   8.345   9.440   3.634 -0.0582 -0.5977 -0.0530
  176MOL0     H23184   8.183   9.485   3.593  0.1527  0.4084 -0.5224
  176MOL0     H23185   8.174   9.635   3.337 -0.3201 -1.0280 -0.0869
  176MOL0     H23186   8.291   9.736   3.145  2.0687 -2.5959 -0.7651
  176MOL0     H23187   8.447   9.835   3.171 -0.6769  1.6921  1.1269
  176MOL0     H23188   8.311   9.988   3.314 -2.3596  1.7571  0.4847
  176MOL0     H23189   8.177   9.882   3.271  2.1469 -1.4031  2.3310
  176MOL0     H23190   8.343  10.042   3.078 -2.2676  0.8285 -0.2092
  176MOL0     H23191   8.209   9.927   3.029 -2.7607 -1.3937  1.4689
  176MOL0     H23192   8.143  10.172   3.039 -2.2203  2.0541  3.4623
  176MOL0     H23193   8.162  10.167   3.213  1.5822  0.1775 -0.6042
  176MOL0     H23194   7.817  10.099   2.971  0.6918 -0.6457 -0.1166
  176MOL0     H23195   7.596  10.179   3.066 -0.6488  1.1080  0.4730
  176MOL0     H23196   7.215  10.241   3.063 -0.4941 -0.5899 -0.0982
  176MOL0     H23197   6.981  10.212   3.120 -0.7563 -1.3339  0.9645
  176MOL0     H23198   6.713  10.033   3.266  0.7560 -0.3372 -0.6108
  176MOL0     H23199   6.841  10.050   3.150  1.4876 -0.9572  2.7783
  176MOL0     H23200   6.685  10.232   3.115 -1.0361  0.0139  0.7224
  176MOL0     H23201   6.820  10.307   3.202  1.7841 -1.8391 -0.0513
  176MOL0     H23202   6.608  10.395   3.272 -3.1041  0.0017  0.6821
  176MOL0     H23203   6.677  10.305   3.411  0.2831  0.1095 -0.3901
  176MOL0     H23204   6.450  10.212   3.212 -0.0959  4.1682 -0.4420
  176MOL0     H23205   6.516  10.117   3.349  1.4319  0.4611  0.2989
  176MOL0     H23206   6.442  10.288   3.509 -3.4846 -2.6550  1.0084
  176MOL0     H23207   6.313  10.245   3.390 -1.3262  1.2493  0.5196
  176MOL0     H23208   6.473  10.507   3.370 -0.2801  1.9427 -1.4921
  176MOL0     H23209   6.310  10.493   3.438  2.3566  0.7193  1.9074
  176MOL0     H23210   6.399  10.449   3.137 -1.3910 -4.7414  0.3346
  176MOL0     H23211   6.251  10.390   3.188  1.7504 -1.4084 -2.7108
  176MOL0     H23212   6.270  10.651   3.105  0.3069 -1.1348 -1.5628
  176MOL0     H23213   6.292  10.688   3.274  3.5341  1.3375 -3.5635
  176MOL0     H23214   7.096  10.065   3.521  0.2916  4.9633  1.4560
  176MOL0     H23215   7.324  10.100   3.464  1.8438 -1.1678 -1.4156
  176MOL0     H23216   7.768  10.172   3.445  1.8264 -0.4047  0.1679
  176MOL0     H23217   7.985  10.089   3.356 -1.3012  1.6157  2.2953
  176MOL0     H23218   8.353   8.650   3.998  0.0410 -2.5215  0.5367
  176MOL0     H23219   8.451   8.439   4.073 -4.6731  2.7766  0.7432
  176MOL0     H23220   8.531   8.338   4.589 -0.0288  0.6598 -0.4056
  176MOL0     H23221   8.559   8.159   4.703  2.4475 -2.9288  1.8854
  176MOL0     H23222   8.741   7.772   4.565  0.1823 -1.5147 -0.0734
  176MOL0     H23223   8.590   7.786   4.486  2.0408 -0.9174 -0.8279
  176MOL0     H23224   8.600   7.597   4.664  0.2250  0.0348  3.1207
  176MOL0     H23225   8.630   7.724   4.785 -0.6253 -2.6555  1.4082
  176MOL0     H23226   8.370   7.721   4.625  1.4846  4.2618 -1.5215
  176MOL0     H23227   8.417   7.827   4.744 -2.3722 -0.8722  3.2011
  176MOL0     H23228   8.453   7.657   4.908 -0.3053  1.8598 -0.6113
  176MOL0     H23229   8.275   7.651   4.867 -1.6868  0.9465 -5.1902
  176MOL0     H23230   8.428   7.275   4.733 -0.5530  0.5139  0.1137
  176MOL0     H23231   8.766   7.968   4.368 -0.7341  0.0294 -0.6917
  176MOL0     H23232   8.744   8.168   4.242 -2.4750  1.7383 -1.0463
  177MOL0     O23233   3.381   7.163  11.213 -0.2867  0.0906  0.0778
  177MOL0     C23234   3.386   7.099  11.105 -0.4164 -0.0731  0.5954
  177MOL0     O23235   3.502   7.061  11.038 -0.3902 -0.0280 -0.5701
  177MOL0     C23236   3.614   7.056  11.122 -0.8422  0.2455  0.2619
  177MOL0     C23237   3.659   6.928  11.167 -0.3089  0.2902  0.5560
  177MOL0     C23238   3.783   6.919  11.236 -0.3268  0.1118  0.0391
  177MOL0     C23239   3.863   7.033  11.250 -0.1077  0.6362 -0.0787
  177MOL0     O23240   3.986   7.020  11.324  0.0836 -0.5492 -0.0466
  177MOL0     C23241   4.064   7.137  11.343  0.6049 -0.6906  0.8280
  177MOL0     C23242   4.207   7.098  11.371  0.1035 -0.1405 -0.6586
  177MOL0     C23243   4.315   7.190  11.305 -0.1581  0.1996 -0.0394
  177MOL0     C23244   4.472   7.169  11.326  0.1657  0.3204 -0.4386
  177MOL0     C23245   4.524   7.194  11.477  1.1421 -0.3123 -1.2458
  177MOL0     C23246   4.500   7.064  11.561 -0.2779 -0.0101 -0.6820
  177MOL0     C23247   4.538   7.093  11.714 -0.6252 -0.7792  0.6642
  177MOL0     C23248   4.485   6.989  11.814  0.3173  0.7712 -0.2137
  177MOL0     N23249   4.347   7.021  11.845 -0.3824  0.4665  0.4185
  177MOL0     C23250   4.239   6.967  11.766  0.0841  0.1469 -0.1585
  177MOL0     C23251   4.129   7.001  11.834  0.4703  0.2804  0.4907
  177MOL0     C23252   3.994   6.954  11.797  0.2269 -0.9780  0.7829
  177MOL0     C23253   3.953   7.022  11.669  0.0796  0.5316 -0.0682
  177MOL0     C23254   3.801   7.012  11.653  1.1916  0.4143  0.9548
  177MOL0     C23255   3.739   6.874  11.666  0.6898  0.8989  1.0480
  177MOL0     O23256   3.789   6.761  11.593 -0.0963 -0.0944 -0.2474
  177MOL0     C23257   3.731   6.644  11.599  0.5088  0.2219  0.0919
  177MOL0     C23258   3.753   6.553  11.704 -0.1639 -0.1573 -0.5773
  177MOL0     C23259   3.665   6.438  11.718 -0.4787 -0.8880  0.3738
  177MOL0     C23260   3.558   6.409  11.621 -0.8377 -0.5056 -0.5813
  177MOL0     C23261   3.494   6.275  11.612 -0.1296  0.0773  0.8013
  177MOL0     O23262   3.491   6.200  11.720  0.0843 -0.8046 -0.3558
  177MOL0     C23263   3.433   6.074  11.718  0.1674  0.3621  0.5196
  177MOL0     C23264   3.511   5.973  11.783  0.3149  0.9115 -0.7366
  177MOL0     C23265   3.463   5.846  11.809  0.9570  1.0783  0.0909
  177MOL0     C23266   3.343   5.814  11.754  0.6064  0.3506  0.3042
  177MOL0     O23267   3.305   5.676  11.765 -0.0132  0.4314  0.7658
  177MOL0     C23268   3.168   5.633  11.745 -0.4858  0.1854  0.1520
  177MOL0     C23269   3.147   5.486  11.728 -0.2270  0.5229 -0.3117
  177MOL0     C23270   3.003   5.453  11.682 -0.3146 -0.3365 -0.6739
  177MOL0     C23271   2.986   5.305  11.697  0.4385  0.3971  0.2407
  177MOL0     C23272   2.851   5.267  11.644  0.4520  0.2371 -0.0795
  177MOL0     C23273   2.806   5.118  11.673 -0.7061 -0.5257  0.2046
  177MOL0     C23274   2.657   5.103  11.635  0.2877  0.7678 -0.1453
  177MOL0     C23275   2.628   4.960  11.587  1.0713  0.4916 -0.6464
  177MOL0    Cl23276   2.643   4.843  11.729 -0.4332 -0.2947  0.2276
  177MOL0     C23277   3.261   5.907  11.694 -0.3286 -0.7488  0.2595
  177MOL0     C23278   3.311   6.033  11.662 -0.5942 -0.3767 -0.4560
  177MOL0     O23279   3.425   6.245  11.511 -0.9831 -0.6820  0.5669
  177MOL0     C23280   3.547   6.503  11.519 -1.4208 -0.8495  0.0114
  177MOL0     C23281   3.627   6.616  11.505 -0.7551  0.3036 -1.0088
  177MOL0     N23282   4.165   7.074  11.942  0.0667 -0.1789  0.2273
  177MOL0     N23283   4.293   7.072  11.955  0.6969  0.0703 -0.0597
  177MOL0     C23284   3.813   7.155  11.204  0.3027  0.1970  0.1777
  177MOL0     C23285   3.693   7.173  11.139  0.1286 -0.2359  0.1988
  177MOL0     C23286   3.261   7.054  11.038  0.0033  0.2417 -0.5361
  177MOL0     C23287   3.139   7.055  11.106 -0.3824 -1.1485 -0.7162
  177MOL0     C23288   3.019   7.033  11.050 -0.4675 -0.2763  0.4940
  177MOL0     C23289   3.007   6.997  10.920 -0.3586 -0.5287  0.6521
  177MOL0     O23290   2.882   6.971  10.859  0.1509 -0.3200 -0.2693
  177MOL0     C23291   2.867   6.889  10.745 -1.0641 -0.6019  1.0892
  177MOL0     C23292   2.769   6.776  10.776 -0.0314 -0.5991  0.0342
  177MOL0     C23293   2.696   6.715  10.642 -0.3287 -0.1359  0.6202
  177MOL0     C23294   2.785   6.613  10.559  0.1431  1.1380  0.2147
  177MOL0     C23295   2.801   6.503  10.650  0.0253  0.6650  1.0410
  177MOL0     C23296   2.843   6.425  10.731 -0.1239  0.3326 -0.0824
  177MOL0     C23297   3.131   6.977  10.843  1.0110 -0.6410 -0.6197
  177MOL0     C23298   3.249   7.004  10.902 -0.0747 -0.1878 -0.1443
  177MOL0     H23299   3.596   6.843  11.145  0.3157  0.1167 -0.6746
  177MOL0     H23300   3.822   6.834  11.291  1.1395  0.8914  0.2644
  177MOL0     H23301   4.019   7.204  11.416 -0.4215 -2.2355  1.6538
  177MOL0     H23302   4.067   7.186  11.246 -0.9099 -1.1149  0.5404
  177MOL0     H23303   4.236   6.994  11.354 -2.1855 -0.4539 -3.3730
  177MOL0     H23304   4.207   7.124  11.478 -0.3548 -0.9090 -0.4684
  177MOL0     H23305   4.294   7.294  11.331  0.4769  0.1839  0.5657
  177MOL0     H23306   4.299   7.180  11.197  4.7092 -3.6240 -0.7658
  177MOL0     H23307   4.499   7.067  11.295  2.8222  1.2019 -1.3116
  177MOL0     H23308   4.523   7.236  11.256 -2.8365  2.9283 -0.3516
  177MOL0     H23309   4.476   7.281  11.523  3.5737 -0.0663  1.0516
  177MOL0     H23310   4.631   7.217  11.477  1.1723 -0.4508 -0.7266
  177MOL0     H23311   4.562   6.978  11.534  0.9135  0.5075  0.3051
  177MOL0     H23312   4.395   7.038  11.545 -0.8424  1.8684 -0.2947
  177MOL0     H23313   4.644   7.108  11.737 -1.2204  3.6289  1.3375
  177MOL0     H23314   4.485   7.184  11.740  0.1830 -0.0076 -0.2839
  177MOL0     H23315   4.537   7.013  11.907  0.0093 -0.6423  0.3438
  177MOL0     H23316   4.503   6.884  11.792 -0.0473  1.0087 -1.7279
  177MOL0     H23317   4.248   6.895  11.686 -2.3642 -0.0286 -0.3537
  177MOL0     H23318   3.929   7.002  11.871 -1.0240 -1.8726  0.2969
  177MOL0     H23319   3.991   6.845  11.797 -0.2396 -1.0233 -1.7117
  177MOL0     H23320   4.000   6.957  11.594  0.2359 -2.6106  2.5402
  177MOL0     H23321   4.000   7.120  11.657  2.0885 -0.7251 -4.1983
  177MOL0     H23322   3.751   7.066  11.734  1.0795  1.4807  0.2048
  177MOL0     H23323   3.765   7.056  11.559  0.6290  0.0762  1.0047
  177MOL0     H23324   3.639   6.881  11.622  1.3444 -0.2954 -0.7227
  177MOL0     H23325   3.734   6.849  11.772 -0.3819  0.1430  0.8293
  177MOL0     H23326   3.832   6.562  11.778  0.2129  0.1788 -1.0159
  177MOL0     H23327   3.699   6.370  11.796  1.9479  1.5878  1.6653
  177MOL0     H23328   3.605   6.003  11.828  1.5504 -1.2283 -1.7436
  177MOL0     H23329   3.525   5.770  11.856 -0.8407  0.4878  1.6685
  177MOL0     H23330   3.129   5.684  11.657  0.5363  0.5805 -0.0797
  177MOL0     H23331   3.107   5.671  11.828  1.6271 -1.0150  2.3676
  177MOL0     H23332   3.182   5.442  11.822  0.1705  0.6979 -0.3724
  177MOL0     H23333   3.213   5.459  11.645 -1.4511  0.4961 -1.2974
  177MOL0     H23334   2.975   5.494  11.585  0.2760  0.8381 -0.3656
  177MOL0     H23335   2.942   5.506  11.756  1.0681 -0.0825  0.3248
  177MOL0     H23336   3.063   5.258  11.635 -0.5789 -0.6036 -0.3130
  177MOL0     H23337   3.009   5.261  11.795  3.3845  0.0500 -0.5186
  177MOL0     H23338   2.845   5.297  11.539  0.3907  0.6605  0.0448
  177MOL0     H23339   2.772   5.318  11.700 -0.1626  0.1881 -0.8861
  177MOL0     H23340   2.826   5.093  11.777  1.9183 -0.0362 -0.1087
  177MOL0     H23341   2.868   5.051  11.612 -1.2430 -0.7399 -0.1137
  177MOL0     H23342   2.599   5.125  11.725  2.6015  0.3365  1.5446
  177MOL0     H23343   2.617   5.171  11.559 -0.0591 -1.1079 -1.7340
  177MOL0     H23344   2.709   4.941  11.515  4.0849 -2.3118  3.0783
  177MOL0     H23345   2.526   4.954  11.549  0.6376 -2.5542  0.7235
  177MOL0     H23346   3.163   5.878  11.657 -0.2367  0.4240 -0.9690
  177MOL0     H23347   3.260   6.122  11.626  0.4058  1.6738  2.7896
  177MOL0     H23348   3.466   6.491  11.447 -2.3172  0.2785  0.8034
  177MOL0     H23349   3.607   6.690  11.428 -1.9314  1.5907  0.4486
  177MOL0     H23350   3.869   7.243  11.234  3.7463 -1.6708 -0.2547
  177MOL0     H23351   3.659   7.272  11.112 -0.3156 -0.2063  0.8392
  177MOL0     H23352   3.127   7.089  11.209 -2.1026  0.0868 -1.2732
  177MOL0     H23353   2.926   7.051  11.102  0.0925  5.5566  0.1599
  177MOL0     H23354   2.957   6.837  10.711 -1.0023  1.8221 -3.2507
  177MOL0     H23355   2.818   6.941  10.661 -0.2521 -0.7151  0.5346
  177MOL0     H23356   2.823   6.698  10.830 -0.2403 -2.0598 -1.7369
  177MOL0     H23357   2.693   6.811  10.846 -1.0550 -2.4533 -0.0676
  177MOL0     H23358   2.680   6.794  10.568 -3.1194 -2.6067 -1.6620
  177MOL0     H23359   2.593   6.684  10.662  0.8197 -3.8560  1.6245
  177MOL0     H23360   2.729   6.581  10.471 -2.2243 -0.9854  2.3173
  177MOL0     H23361   2.881   6.650  10.524  0.4777 -0.7151 -0.9641
  177MOL0     H23362   2.894   6.374  10.811 -1.9661  3.2484  3.2598
  177MOL0     H23363   3.140   6.939  10.741 -0.5297 -2.3052 -0.1883
  177MOL0     H23364   3.337   7.003  10.838 -0.6864  1.2937 -1.0795
  178MOL0     O23365   4.285   4.750   6.987 -0.6719 -0.1197 -0.0260
  178MOL0     C23366   4.267   4.658   7.064  0.5408  0.1069 -0.0023
  178MOL0     O23367   4.318   4.647   7.192  0.3059  0.0189  0.6304
  178MOL0     C23368   4.395   4.754   7.215 -0.4262  0.7608 -0.2715
  178MOL0     C23369   4.534   4.741   7.207 -0.0002 -0.4892  0.2819
  178MOL0     C23370   4.620   4.850   7.230  0.1515 -0.1381 -1.1082
  178MOL0     C23371   4.564   4.980   7.273  0.7776 -0.5398  0.0432
  178MOL0     O23372   4.650   5.088   7.289  0.1033  0.1726 -0.4990
  178MOL0     C23373   4.607   5.189   7.379  0.3252  0.1349 -0.2039
  178MOL0     C23374   4.721   5.278   7.405  0.2506 -1.0557  0.1730
  178MOL0     C23375   4.688   5.377   7.516  0.8668 -0.0882  0.3378
  178MOL0     C23376   4.800   5.479   7.564  0.1919  0.2471  0.1887
  178MOL0     C23377   4.762   5.583   7.671 -0.0822 -0.4572 -0.0104
  178MOL0     C23378   4.759   5.516   7.806 -0.0957  0.0521  0.2653
  178MOL0     C23379   4.898   5.460   7.858  0.7847 -0.0949  0.0729
  178MOL0     C23380   5.013   5.561   7.864 -0.3817 -0.0069 -0.7543
  178MOL0     N23381   5.138   5.518   7.935  0.6325 -0.3188 -0.4387
  178MOL0     C23382   5.233   5.433   7.885 -0.2858 -0.8392 -0.0073
  178MOL0     C23383   5.337   5.431   7.966  1.0368 -0.1869 -0.0280
  178MOL0     C23384   5.471   5.363   7.951  0.0400 -0.7647  0.1253
  178MOL0     C23385   5.466   5.205   7.963  0.0862  0.8071 -0.2059
  178MOL0     C23386   5.352   5.136   8.038  0.1702 -0.3213 -0.3862
  178MOL0     C23387   5.349   5.157   8.191 -1.2128  0.2997  0.3057
  178MOL0     O23388   5.453   5.070   8.251  0.0134 -0.1111  0.2960
  178MOL0     C23389   5.434   4.930   8.250 -0.2671 -0.6680 -0.5818
  178MOL0     C23390   5.347   4.872   8.344 -0.0574  0.5592  0.7031
  178MOL0     C23391   5.329   4.738   8.334 -0.1911  0.2699 -0.2627
  178MOL0     C23392   5.389   4.657   8.236  0.8985  0.3510  0.3704
  178MOL0     C23393   5.344   4.519   8.214 -0.2098  0.0295  0.3892
  178MOL0     O23394   5.436   4.451   8.151  0.7713  0.7962  0.0780
  178MOL0     C23395   5.414   4.324   8.124  0.4931 -0.0895  0.2027
  178MOL0     C23396   5.331   4.295   8.017  0.1174  0.7530 -0.4332
  178MOL0     C23397   5.296   4.163   7.971  0.0379  0.4927  0.1454
  178MOL0     C23398   5.329   4.059   8.063  1.0074 -0.2830  0.0574
  178MOL0     O23399   5.272   3.940   8.037 -0.1049  0.2105 -0.8409
  178MOL0     C23400   5.270   3.842   8.145  0.3594 -0.1397  0.5270
  178MOL0     C23401   5.178   3.720   8.101  0.1251 -0.8605 -0.7659
  178MOL0     C23402   5.248   3.637   7.996  0.5025 -0.1657 -0.1615
  178MOL0     C23403   5.165   3.514   7.950  0.4157 -0.0729  0.2451
  178MOL0     C23404   5.250   3.432   7.852  0.2738  0.2548  0.3828
  178MOL0     C23405   5.412   3.408   7.869 -0.3582  0.3458  0.1517
  178MOL0     C23406   5.478   3.336   7.747 -0.4682  0.2792 -0.5193
  178MOL0     C23407   5.631   3.334   7.760 -0.3635 -0.0586  0.9146
  178MOL0    Cl23408   5.687   3.219   7.631 -0.3136 -0.0724 -0.7419
  178MOL0     C23409   5.437   4.086   8.153  0.3092 -0.2497 -0.2989
  178MOL0     C23410   5.480   4.217   8.182  0.1523  1.4203  0.1609
  178MOL0     O23411   5.242   4.477   8.262 -0.1596 -0.5006  0.6362
  178MOL0     C23412   5.477   4.720   8.153  0.8026  0.0896 -0.5068
  178MOL0     C23413   5.487   4.856   8.154 -0.7995  0.4187  0.0359
  178MOL0     N23414   5.306   5.515   8.072  0.2698  0.2095  0.5207
  178MOL0     N23415   5.189   5.573   8.046 -0.1059 -0.0839  0.2741
  178MOL0     C23416   4.423   4.985   7.286 -0.0260  0.3737 -0.7038
  178MOL0     C23417   4.341   4.873   7.258 -0.8972 -0.3738  0.7882
  178MOL0     C23418   4.169   4.554   7.028  0.9894 -0.5661 -0.6132
  178MOL0     C23419   4.054   4.584   6.959 -0.8233 -1.4496 -0.7205
  178MOL0     C23420   3.963   4.486   6.921 -0.1837 -0.1623  0.5835
  178MOL0     C23421   3.981   4.356   6.957 -0.9285  1.1139  0.6905
  178MOL0     O23422   3.893   4.255   6.926  0.6654  0.3806  0.4831
  178MOL0     C23423   3.766   4.290   6.854 -0.2595  0.2989 -0.2500
  178MOL0     C23424   3.683   4.164   6.833 -0.2961  0.0013 -0.3519
  178MOL0     C23425   3.720   4.080   6.710  0.3262 -0.1112  0.3485
  178MOL0     C23426   3.827   3.975   6.755 -0.2888 -0.2048 -0.5525
  178MOL0     C23427   3.835   3.858   6.666 -0.1610 -0.0512 -0.5981
  178MOL0     C23428   3.856   3.762   6.593  0.6458 -0.8376  0.4869
  178MOL0     C23429   4.097   4.322   7.031 -0.0704  0.4165 -0.3595
  178MOL0     C23430   4.195   4.420   7.062 -0.6684 -0.4893 -0.7394
  178MOL0     H23431   4.574   4.641   7.189 -0.0495 -0.7614  1.5894
  178MOL0     H23432   4.726   4.830   7.216  0.4865  0.3314  0.5559
  178MOL0     H23433   4.575   5.142   7.473 -1.3911 -0.5275 -1.0705
  178MOL0     H23434   4.527   5.246   7.331  3.1477  4.8765  0.0878
  178MOL0     H23435   4.757   5.337   7.319 -2.1393  0.8944  0.4029
  178MOL0     H23436   4.806   5.215   7.433  0.4399 -1.2204 -0.7335
  178MOL0     H23437   4.658   5.323   7.606  2.6906 -0.6611  0.6406
  178MOL0     H23438   4.597   5.427   7.481 -0.3506 -0.8265  2.2991
  178MOL0     H23439   4.881   5.415   7.601 -0.5544 -1.3922 -0.8758
  178MOL0     H23440   4.835   5.519   7.469  0.4080 -1.4036 -0.4615
  178MOL0     H23441   4.656   5.610   7.662 -0.1950 -1.0335 -0.4233
  178MOL0     H23442   4.829   5.669   7.663  2.0008 -1.9186  1.0763
  178MOL0     H23443   4.681   5.442   7.792  0.9639 -0.9927 -0.3028
  178MOL0     H23444   4.724   5.594   7.875  0.0616  1.1063 -0.8051
  178MOL0     H23445   4.880   5.408   7.953  1.6069 -1.6502 -0.5783
  178MOL0     H23446   4.930   5.381   7.790  2.5102  1.4743 -1.0290
  178MOL0     H23447   4.968   5.641   7.924 -2.5453 -2.1419  0.6428
  178MOL0     H23448   5.055   5.585   7.766  4.2524 -0.3167  0.9356
  178MOL0     H23449   5.227   5.382   7.790 -1.1869  1.4264 -1.2587
  178MOL0     H23450   5.535   5.398   8.032  0.4436  0.5783 -0.7410
  178MOL0     H23451   5.524   5.365   7.855  1.6961 -2.4715  0.9481
  178MOL0     H23452   5.564   5.173   7.997 -0.5711 -0.3834  0.6113
  178MOL0     H23453   5.448   5.173   7.860 -0.8059 -0.1018  0.2209
  178MOL0     H23454   5.254   5.169   8.001  1.6914  2.0311 -2.6293
  178MOL0     H23455   5.369   5.033   8.004 -0.1361 -0.8005  0.8445
  178MOL0     H23456   5.254   5.121   8.232  0.0045 -2.5731  0.8283
  178MOL0     H23457   5.361   5.261   8.223  2.4891  0.1153 -0.0812
  178MOL0     H23458   5.305   4.939   8.417 -0.2386 -1.4010  2.4964
  178MOL0     H23459   5.262   4.682   8.398  1.7861 -1.3501  0.4808
  178MOL0     H23460   5.295   4.371   7.949  0.2616 -0.4000 -1.8527
  178MOL0     H23461   5.243   4.143   7.878  0.9056 -0.4227 -0.1711
  178MOL0     H23462   5.220   3.885   8.232 -1.9184  0.1856 -0.8746
  178MOL0     H23463   5.371   3.804   8.163  0.3420 -3.3961 -4.4184
  178MOL0     H23464   5.084   3.756   8.059  0.0959 -3.8098 -3.5559
  178MOL0     H23465   5.143   3.661   8.186  1.8971 -1.2851 -0.2861
  178MOL0     H23466   5.343   3.609   8.042  0.8497 -0.2136 -0.8956
  178MOL0     H23467   5.259   3.694   7.903  1.1276 -0.1691 -0.0933
  178MOL0     H23468   5.162   3.453   8.041  0.5339 -1.7163 -0.8107
  178MOL0     H23469   5.068   3.549   7.915  1.3094  0.7318 -1.5663
  178MOL0     H23470   5.224   3.483   7.759 -0.5464 -3.3283 -1.5353
  178MOL0     H23471   5.202   3.335   7.835  0.0124 -0.3339  3.8206
  178MOL0     H23472   5.425   3.328   7.943 -1.0431  1.1355  1.1573
  178MOL0     H23473   5.452   3.506   7.894  2.4434 -0.2946 -1.4644
  178MOL0     H23474   5.429   3.241   7.728 -0.6040  0.3834 -0.6943
  178MOL0     H23475   5.462   3.393   7.654  1.3157 -3.1360 -3.1341
  178MOL0     H23476   5.655   3.295   7.860  0.2001 -1.5822  0.2160
  178MOL0     H23477   5.671   3.434   7.741  1.8649 -0.8735  1.0187
  178MOL0     H23478   5.485   4.001   8.199  1.7607  0.2592 -0.8359
  178MOL0     H23479   5.566   4.232   8.246  1.4709  0.4072 -1.3115
  178MOL0     H23480   5.531   4.661   8.079  1.6624 -0.5462  0.5902
  178MOL0     H23481   5.544   4.906   8.076 -0.9350  0.8116  0.1809
  178MOL0     H23482   4.364   5.077   7.287 -0.9818 -0.0878  3.2680
  178MOL0     H23483   4.232   4.879   7.261 -1.0849 -2.7010  0.5052
  178MOL0     H23484   4.040   4.689   6.937 -3.2528 -1.7039 -0.6494
  178MOL0     H23485   3.872   4.524   6.875  0.4552  1.1296  0.3442
  178MOL0     H23486   3.786   4.336   6.756 -2.1107 -0.9904 -1.2883
  178MOL0     H23487   3.706   4.351   6.921 -0.1280  1.6056 -1.2917
  178MOL0     H23488   3.688   4.109   6.928 -1.5173 -2.0340 -1.3965
  178MOL0     H23489   3.580   4.201   6.823  0.1201  0.9011 -1.4026
  178MOL0     H23490   3.758   4.138   6.626  0.8250  0.6298  1.0735
  178MOL0     H23491   3.634   4.022   6.676  0.0458  1.1338 -1.1640
  178MOL0     H23492   3.926   4.020   6.755 -0.3295  0.0397 -3.1601
  178MOL0     H23493   3.814   3.934   6.856  0.1484  0.1827 -0.3379
  178MOL0     H23494   3.855   3.679   6.525 -0.4752 -0.9696  0.6420
  178MOL0     H23495   4.132   4.220   7.035  2.0999  1.0524 -1.3817
  178MOL0     H23496   4.294   4.393   7.096 -0.5266 -2.6034 -2.6451
  179MOL0     O23497   3.759   9.026   2.097  0.3575 -0.5213 -0.5128
  179MOL0     C23498   3.732   9.097   2.001 -0.3266 -0.2587  1.5906
  179MOL0     O23499   3.804   9.203   1.962 -0.2935  0.6923  0.2461
  179MOL0     C23500   3.943   9.203   1.956 -0.2223 -0.0033 -0.2037
  179MOL0     C23501   4.028   9.089   1.970  0.0039  0.4611 -0.0266
  179MOL0     C23502   4.162   9.108   1.934  1.2051  0.2123  0.3288
  179MOL0     C23503   4.213   9.230   1.881  0.0180  0.2540  0.6787
  179MOL0     O23504   4.345   9.242   1.842 -0.2092  0.0632 -0.1249
  179MOL0     C23505   4.434   9.137   1.831  0.5864  1.2925 -1.2994
  179MOL0     C23506   4.577   9.188   1.817  0.6022  0.6370 -0.0940
  179MOL0     C23507   4.590   9.257   1.688 -0.5373  0.1421 -0.4856
  179MOL0     C23508   4.733   9.255   1.652  0.5038  0.4301  1.4433
  179MOL0     C23509   4.777   9.345   1.537 -0.1432  0.5353  0.6218
  179MOL0     C23510   4.917   9.311   1.466  0.2333 -0.0745  0.4818
  179MOL0     C23511   4.984   9.427   1.386 -0.5144 -0.5207 -0.0324
  179MOL0     C23512   5.132   9.400   1.369  0.2959 -0.3184 -0.5668
  179MOL0     N23513   5.212   9.519   1.318  0.2643  0.6014 -0.1267
  179MOL0     C23514   5.283   9.606   1.393 -0.3362 -0.6776 -0.0551
  179MOL0     C23515   5.340   9.701   1.309  0.7717  0.3568 -0.0838
  179MOL0     C23516   5.432   9.811   1.358  1.0111  0.2614 -0.2067
  179MOL0     C23517   5.571   9.766   1.310  0.1539 -0.4048  0.0184
  179MOL0     C23518   5.610   9.632   1.376  0.3928 -0.4163 -0.5912
  179MOL0     C23519   5.763   9.619   1.360  0.8475 -1.2541 -0.6570
  179MOL0     O23520   5.796   9.541   1.243  0.2770 -0.0667  0.1557
  179MOL0     C23521   5.931   9.518   1.224 -0.5884  0.3453 -0.6156
  179MOL0     C23522   6.001   9.434   1.318 -0.7020  0.2490  0.1717
  179MOL0     C23523   6.141   9.405   1.303 -0.5298  0.0943 -0.1723
  179MOL0     C23524   6.210   9.480   1.208 -0.1886 -0.7620 -0.7237
  179MOL0     C23525   6.350   9.459   1.200  0.1343  0.0037 -1.1376
  179MOL0     O23526   6.400   9.352   1.261  0.4259  0.4527  0.0922
  179MOL0     C23527   6.534   9.332   1.256 -0.0315 -0.2685  0.1571
  179MOL0     C23528   6.592   9.316   1.132  0.2974  0.1771 -0.2814
  179MOL0     C23529   6.733   9.302   1.123  0.2286  0.5428  0.5147
  179MOL0     C23530   6.822   9.305   1.234 -0.0301 -0.2677  0.1072
  179MOL0     O23531   6.956   9.317   1.230 -0.1378 -0.1502 -0.1884
  179MOL0     C23532   7.018   9.396   1.129  0.4030 -1.2191 -0.5402
  179MOL0     C23533   7.165   9.394   1.159 -0.1246 -1.6914 -0.8044
  179MOL0     C23534   7.219   9.258   1.173  0.9247  0.6895  0.0156
  179MOL0     C23535   7.366   9.245   1.221 -0.5998  0.5147 -1.0271
  179MOL0     C23536   7.458   9.282   1.106  0.1299 -0.8147 -0.0903
  179MOL0     C23537   7.488   9.167   1.010  0.6636  0.7642 -1.4676
  179MOL0     C23538   7.540   9.227   0.880 -0.0844  0.6481  0.2635
  179MOL0     C23539   7.510   9.134   0.760  0.0023  0.3787 -0.2121
  179MOL0    Cl23540   7.567   8.979   0.794  0.3890  0.1334 -0.1816
  179MOL0     C23541   6.758   9.307   1.354 -0.3496  0.8172 -0.6416
  179MOL0     C23542   6.611   9.318   1.370 -0.2833 -0.2424 -0.2515
  179MOL0     O23543   6.411   9.540   1.135 -0.7789 -0.1903  0.4161
  179MOL0     C23544   6.144   9.579   1.128 -0.3705 -0.1693  0.4782
  179MOL0     C23545   5.997   9.588   1.131 -0.1599  0.5416 -1.1698
  179MOL0     N23546   5.308   9.659   1.185 -0.4246  0.1828 -1.3511
  179MOL0     N23547   5.242   9.544   1.187 -0.6841  0.9837  0.9772
  179MOL0     C23548   4.125   9.338   1.883 -1.8559 -0.5829 -0.1370
  179MOL0     C23549   3.993   9.327   1.915  0.3696 -1.0801 -0.0095
  179MOL0     C23550   3.603   9.069   1.921 -0.3855 -0.8408 -0.3129
  179MOL0     C23551   3.545   8.940   1.937  0.4365 -0.1290  0.3095
  179MOL0     C23552   3.436   8.904   1.851  0.0542 -0.1547 -0.0130
  179MOL0     C23553   3.381   9.000   1.758  0.0492  1.1959  0.2640
  179MOL0     O23554   3.279   8.943   1.673 -0.2887 -0.2472  1.1614
  179MOL0     C23555   3.238   9.018   1.565 -0.1257  0.7993 -0.4949
  179MOL0     C23556   3.345   8.992   1.462  1.0711 -0.3107  0.7750
  179MOL0     C23557   3.278   8.981   1.322 -0.5201  0.9783  0.7030
  179MOL0     C23558   3.378   8.918   1.218  0.2186  0.5105 -0.2206
  179MOL0     C23559   3.376   8.774   1.228 -0.0320  0.3158  0.0482
  179MOL0     C23560   3.381   8.651   1.246  0.0722 -0.9374  0.6452
  179MOL0     C23561   3.437   9.129   1.755  0.1611  0.0575 -0.0765
  179MOL0     C23562   3.541   9.157   1.835 -1.0049 -0.2364 -0.4713
  179MOL0     H23563   4.001   8.993   2.012  0.9199 -0.5573 -1.6464
  179MOL0     H23564   4.220   9.017   1.948 -1.3646 -1.3062  2.0536
  179MOL0     H23565   4.400   9.094   1.736  3.9053 -2.1994 -1.1223
  179MOL0     H23566   4.415   9.057   1.903 -2.2138  1.0419 -2.1784
  179MOL0     H23567   4.647   9.105   1.826 -2.5414 -2.0518  2.0439
  179MOL0     H23568   4.607   9.267   1.887  0.4811  2.3287 -1.8463
  179MOL0     H23569   4.545   9.357   1.690  1.7493  1.2572  2.4856
  179MOL0     H23570   4.526   9.196   1.624 -1.2629 -0.2392  0.5814
  179MOL0     H23571   4.790   9.282   1.741  0.1963  2.6633  1.0115
  179MOL0     H23572   4.748   9.152   1.618 -4.8642  0.5386 -2.7244
  179MOL0     H23573   4.778   9.447   1.576 -1.7283  1.6259 -1.9655
  179MOL0     H23574   4.707   9.343   1.453 -3.1479 -0.6514  2.9615
  179MOL0     H23575   4.908   9.226   1.397  0.1231 -0.3765  0.8669
  179MOL0     H23576   4.982   9.288   1.551  2.1022  1.6040 -0.4223
  179MOL0     H23577   4.944   9.439   1.285  2.7254 -0.6792 -1.4496
  179MOL0     H23578   4.962   9.519   1.441 -1.5516 -1.6788  1.5924
  179MOL0     H23579   5.147   9.313   1.305 -1.6574 -0.3595 -1.0334
  179MOL0     H23580   5.167   9.364   1.467  2.7375  2.1553 -0.4280
  179MOL0     H23581   5.313   9.610   1.497 -0.2346 -0.1607 -0.0994
  179MOL0     H23582   5.430   9.817   1.467  1.4118 -1.9333 -0.0314
  179MOL0     H23583   5.409   9.905   1.307 -2.2696 -2.5062 -4.5533
  179MOL0     H23584   5.643   9.843   1.339 -1.0727  0.4351  0.9190
  179MOL0     H23585   5.569   9.759   1.201 -2.6463  1.6293 -0.1498
  179MOL0     H23586   5.593   9.654   1.482  1.5049 -1.2336 -0.2321
  179MOL0     H23587   5.556   9.548   1.329  0.5966 -0.6173 -0.4669
  179MOL0     H23588   5.807   9.563   1.442  0.5055 -1.1537 -0.4031
  179MOL0     H23589   5.803   9.721   1.353 -2.9491  0.3270 -2.7987
  179MOL0     H23590   5.952   9.374   1.394 -0.8278  1.1786  0.8374
  179MOL0     H23591   6.186   9.337   1.373  3.5397  1.2765 -1.3847
  179MOL0     H23592   6.530   9.301   1.045 -2.0240 -0.3756  1.3623
  179MOL0     H23593   6.758   9.299   1.018 -1.5458  1.6762  0.0138
  179MOL0     H23594   6.974   9.496   1.134  0.3409 -1.2758  0.2558
  179MOL0     H23595   7.001   9.341   1.036 -1.7331 -1.3823 -0.1122
  179MOL0     H23596   7.174   9.449   1.253 -0.9226  1.1094 -2.2454
  179MOL0     H23597   7.219   9.446   1.078  0.8504  1.1560  1.4871
  179MOL0     H23598   7.214   9.205   1.078 -0.9578 -0.9122  0.9396
  179MOL0     H23599   7.152   9.192   1.228 -0.5833 -0.2556 -2.7786
  179MOL0     H23600   7.380   9.310   1.308 -1.2762 -2.7670  1.7439
  179MOL0     H23601   7.396   9.142   1.242  1.1713  0.4955 -3.3091
  179MOL0     H23602   7.551   9.323   1.146  0.5396  0.4755 -2.1854
  179MOL0     H23603   7.404   9.363   1.055 -0.2049  0.4139  2.0852
  179MOL0     H23604   7.400   9.105   0.989  2.4533 -1.8360 -1.7624
  179MOL0     H23605   7.564   9.102   1.055 -1.9207 -2.0597 -0.7809
  179MOL0     H23606   7.497   9.326   0.861 -0.6164  0.1982 -0.9880
  179MOL0     H23607   7.646   9.253   0.879  0.0692  0.3731  3.0566
  179MOL0     H23608   7.560   9.170   0.670 -0.3367 -2.9976 -1.8827
  179MOL0     H23609   7.406   9.128   0.729 -1.0843  1.4972  2.8088
  179MOL0     H23610   6.814   9.321   1.446 -3.4505  1.0381  1.4018
  179MOL0     H23611   6.577   9.324   1.473  1.6861 -0.0335  0.4359
  179MOL0     H23612   6.207   9.627   1.054  0.9782 -4.0811 -1.2388
  179MOL0     H23613   5.962   9.668   1.067  0.8716  0.8960 -1.3080
  179MOL0     H23614   4.154   9.440   1.859  3.4945 -1.5409  0.7980
  179MOL0     H23615   3.925   9.410   1.898  1.3051 -0.3894 -0.4564
  179MOL0     H23616   3.574   8.862   2.007 -2.5311 -2.3854 -0.7405
  179MOL0     H23617   3.383   8.810   1.855  0.3484 -0.3282 -0.1278
  179MOL0     H23618   3.237   9.127   1.575 -3.6520  1.0035 -1.4780
  179MOL0     H23619   3.137   8.983   1.539  0.9771 -3.0496 -0.2447
  179MOL0     H23620   3.419   9.072   1.464 -0.2383  0.9405  1.2649
  179MOL0     H23621   3.416   8.911   1.482  0.3279 -0.5865  2.4878
  179MOL0     H23622   3.236   9.072   1.278 -0.6740  1.7080  2.3024
  179MOL0     H23623   3.191   8.916   1.334 -1.4472  2.1736  0.6628
  179MOL0     H23624   3.353   8.940   1.114 -2.5642  0.9258  0.4652
  179MOL0     H23625   3.477   8.963   1.227  1.0851 -1.4824  1.0947
  179MOL0     H23626   3.382   8.550   1.281 -1.5815 -0.4829  2.1450
  179MOL0     H23627   3.396   9.204   1.688  1.7474 -1.4411 -2.8999
  179MOL0     H23628   3.560   9.264   1.836 -2.0282 -0.0259  1.4629
  180MOL0     O23629   3.247   3.615   7.964 -0.5346 -0.7102 -0.6200
  180MOL0     C23630   3.251   3.665   7.846 -0.6313  0.8071  0.8371
  180MOL0     O23631   3.239   3.594   7.730  0.0672 -0.9035  0.2705
  180MOL0     C23632   3.246   3.454   7.745  0.7634 -1.2058 -0.7159
  180MOL0     C23633   3.343   3.390   7.826  1.0229  0.4056 -1.0262
  180MOL0     C23634   3.329   3.251   7.846 -1.3012 -0.9754  0.4809
  180MOL0     C23635   3.224   3.180   7.790  0.1813  0.4634  0.9128
  180MOL0     O23636   3.202   3.046   7.786 -0.5427 -0.4861 -0.7381
  180MOL0     C23637   3.252   2.956   7.885 -0.2383  0.2454  0.5846
  180MOL0     C23638   3.186   2.822   7.875 -0.5578  0.4775  0.8371
  180MOL0     C23639   3.269   2.733   7.969 -0.9027  0.2606  0.7222
  180MOL0     C23640   3.213   2.579   7.983 -0.4626 -0.0317  0.2472
  180MOL0     C23641   3.203   2.514   7.839  0.6111  0.2380  0.3501
  180MOL0     C23642   3.138   2.375   7.851  0.3987 -0.8850  0.9345
  180MOL0     C23643   3.156   2.264   7.749  0.6056  0.1966 -0.5863
  180MOL0     C23644   3.070   2.142   7.782  0.2015 -1.0316 -0.0305
  180MOL0     N23645   3.066   2.048   7.665  0.1729 -0.2411  0.1784
  180MOL0     C23646   2.973   2.042   7.570 -0.6611  0.7829 -1.1429
  180MOL0     C23647   2.980   1.923   7.522 -0.2220  0.1037  0.1231
  180MOL0     C23648   2.905   1.866   7.409 -0.1858  0.0488  0.3544
  180MOL0     C23649   2.754   1.849   7.417  0.5413  0.1507  0.8695
  180MOL0     C23650   2.697   1.788   7.540 -0.0723 -0.1316  0.0819
  180MOL0     C23651   2.566   1.856   7.581  0.2840 -0.4271  0.1657
  180MOL0     O23652   2.566   1.994   7.607 -0.6967  0.4909 -0.2444
  180MOL0     C23653   2.602   2.038   7.732  0.4117  0.7126  0.3158
  180MOL0     C23654   2.579   2.172   7.746 -0.6505  0.1642  0.2216
  180MOL0     C23655   2.612   2.232   7.864 -0.9388 -0.6480  0.6064
  180MOL0     C23656   2.690   2.170   7.968 -0.2522  0.2452  0.3341
  180MOL0     C23657   2.733   2.244   8.086 -0.2922  0.5496 -0.3038
  180MOL0     O23658   2.835   2.189   8.160  0.0823  0.2522 -0.1189
  180MOL0     C23659   2.893   2.254   8.268 -0.5933 -0.4885  0.2800
  180MOL0     C23660   2.823   2.269   8.393 -0.2117  0.6761  0.6856
  180MOL0     C23661   2.876   2.349   8.489 -0.0889 -0.8649 -0.6813
  180MOL0     C23662   2.998   2.409   8.471  0.6696 -0.5142 -0.0950
  180MOL0     O23663   3.063   2.483   8.566  0.2896 -1.0244 -0.9612
  180MOL0     C23664   2.970   2.539   8.670 -0.9571 -0.9365 -0.1530
  180MOL0     C23665   3.021   2.649   8.764 -0.0054  0.2211 -0.1549
  180MOL0     C23666   3.054   2.776   8.691  0.4530  0.3755  0.0978
  180MOL0     C23667   3.175   2.767   8.599 -0.4522 -0.4645 -0.9316
  180MOL0     C23668   3.224   2.908   8.568  0.3584  0.0398 -0.1833
  180MOL0     C23669   3.183   2.979   8.438 -0.0979 -0.5875 -0.8446
  180MOL0     C23670   3.205   3.135   8.418  0.2752  0.2173 -0.0089
  180MOL0     C23671   3.115   3.216   8.507 -1.2642  0.1294  0.1700
  180MOL0    Cl23672   2.936   3.173   8.489  0.0522 -0.4805 -0.2863
  180MOL0     C23673   3.064   2.404   8.353 -0.4341  0.5764  0.8178
  180MOL0     C23674   3.012   2.326   8.251 -1.0432 -0.6706  0.5815
  180MOL0     O23675   2.682   2.350   8.111  0.6363  0.4504 -0.0583
  180MOL0     C23676   2.729   2.040   7.941  0.2121 -0.6380 -0.6413
  180MOL0     C23677   2.680   1.973   7.833 -0.5405 -0.7223 -0.6269
  180MOL0     N23678   3.071   1.848   7.586 -0.2326  1.2856 -0.3929
  180MOL0     N23679   3.129   1.928   7.670 -0.5984  0.6560  0.0661
  180MOL0     C23680   3.131   3.257   7.713 -0.9186  0.3889  0.3002
  180MOL0     C23681   3.144   3.391   7.685  0.2496  0.1719 -0.6328
  180MOL0     C23682   3.273   3.809   7.825 -0.4532  0.4545 -0.0219
  180MOL0     C23683   3.303   3.891   7.934 -0.0699 -1.1302  0.0867
  180MOL0     C23684   3.310   4.039   7.910 -0.3705  0.4983  0.0684
  180MOL0     C23685   3.314   4.092   7.778  0.5766  0.2058  0.5361
  180MOL0     O23686   3.328   4.224   7.763  0.0264  0.5347  0.2463
  180MOL0     C23687   3.272   4.303   7.665 -0.0711  0.2780  0.4022
  180MOL0     C23688   3.120   4.326   7.673  1.1688  1.0389 -1.3390
  180MOL0     C23689   3.076   4.467   7.624 -0.3907  0.8774 -1.1674
  180MOL0     C23690   2.928   4.466   7.606 -0.7483 -0.0294  0.1080
  180MOL0     C23691   2.908   4.499   7.461  0.2027 -0.2800 -0.2648
  180MOL0     C23692   2.876   4.529   7.346 -0.4731 -0.1889  0.2517
  180MOL0     C23693   3.305   4.003   7.675  0.4065  0.5393  1.0760
  180MOL0     C23694   3.277   3.866   7.692 -0.4682  0.0089 -0.5591
  180MOL0     H23695   3.422   3.441   7.881  1.5648 -2.0639  0.6413
  180MOL0     H23696   3.404   3.209   7.912 -2.0834 -0.4716  1.7349
  180MOL0     H23697   3.218   2.975   7.988  0.6721 -0.9795  1.1376
  180MOL0     H23698   3.359   2.947   7.869 -0.5749  0.2304 -2.1594
  180MOL0     H23699   3.180   2.778   7.775 -1.8727  0.1303  1.0427
  180MOL0     H23700   3.084   2.816   7.915 -0.1056  1.9474  2.3190
  180MOL0     H23701   3.260   2.778   8.069 -2.6878  2.1423 -0.2071
  180MOL0     H23702   3.375   2.733   7.944 -1.3042 -4.6334 -2.2289
  180MOL0     H23703   3.281   2.524   8.049  1.1386  2.0169  0.4288
  180MOL0     H23704   3.120   2.578   8.039 -0.8913 -6.3298  0.0900
  180MOL0     H23705   3.308   2.492   7.816  0.5444 -0.8790  1.0402
  180MOL0     H23706   3.153   2.592   7.780 -0.2203  0.9695  1.9604
  180MOL0     H23707   3.033   2.402   7.859  1.0191  1.8112  0.9491
  180MOL0     H23708   3.167   2.332   7.947 -0.2504 -1.0981  1.0371
  180MOL0     H23709   3.103   2.317   7.669 -3.7398 -1.0492  1.2098
  180MOL0     H23710   3.263   2.243   7.737  0.3701 -3.0667  1.6470
  180MOL0     H23711   2.968   2.164   7.814  0.9262  0.0456  1.6707
  180MOL0     H23712   3.106   2.078   7.863 -1.5125 -3.0386 -0.7800
  180MOL0     H23713   2.893   2.111   7.547  0.4092  1.8011 -1.9531
  180MOL0     H23714   2.936   1.767   7.376 -1.7900  0.2045 -1.8854
  180MOL0     H23715   2.942   1.926   7.325  0.1383 -2.7526 -1.6214
  180MOL0     H23716   2.721   1.793   7.329 -3.2020  0.6595  1.7883
  180MOL0     H23717   2.706   1.947   7.408 -0.9321 -0.5911  0.3953
  180MOL0     H23718   2.672   1.684   7.519 -2.2250  0.4730 -0.5706
  180MOL0     H23719   2.769   1.790   7.623 -1.6879 -1.8385  1.6212
  180MOL0     H23720   2.520   1.796   7.660 -0.8920 -2.1596 -1.7203
  180MOL0     H23721   2.495   1.841   7.500  0.1321  0.2192  0.1771
  180MOL0     H23722   2.530   2.229   7.667  2.0766 -0.1197 -1.8348
  180MOL0     H23723   2.582   2.336   7.868  1.0613  0.0140 -0.3040
  180MOL0     H23724   2.733   2.213   8.413  0.3328  0.1944  1.8845
  180MOL0     H23725   2.822   2.356   8.583 -2.3969  0.0450 -1.9655
  180MOL0     H23726   2.942   2.452   8.730 -3.7270 -2.1808 -3.0162
  180MOL0     H23727   2.873   2.571   8.632 -0.2479 -1.0187 -2.1353
  180MOL0     H23728   3.115   2.604   8.798  0.7989  0.5909 -1.7787
  180MOL0     H23729   2.950   2.672   8.844  0.6428 -1.4165  0.9409
  180MOL0     H23730   3.081   2.848   8.769  3.2825  0.2625 -0.6437
  180MOL0     H23731   2.968   2.805   8.632 -0.1914 -1.9287 -0.1869
  180MOL0     H23732   3.256   2.709   8.644 -1.0629  0.0388  0.8651
  180MOL0     H23733   3.147   2.715   8.506 -1.8702  0.8518 -1.2809
  180MOL0     H23734   3.330   2.890   8.544  0.1139  1.0851 -2.2711
  180MOL0     H23735   3.223   2.973   8.655 -3.4607 -1.8045  1.3462
  180MOL0     H23736   3.084   2.946   8.406  0.0288 -1.9570  0.1118
  180MOL0     H23737   3.249   2.932   8.365  1.0262  0.4874 -0.5454
  180MOL0     H23738   3.313   3.151   8.424  0.9782 -3.7851  0.3857
  180MOL0     H23739   3.179   3.158   8.314  1.5291  1.3918 -0.0926
  180MOL0     H23740   3.144   3.317   8.477 -1.0587 -0.5474 -2.1170
  180MOL0     H23741   3.156   3.200   8.607  0.7149 -0.7154 -0.7185
  180MOL0     H23742   3.167   2.436   8.349  0.1622 -1.3530 -0.3910
  180MOL0     H23743   3.063   2.322   8.155 -2.1261 -1.9062  0.0175
  180MOL0     H23744   2.779   1.986   8.021  1.9805  3.2322  1.0841
  180MOL0     H23745   2.702   1.867   7.817  1.6028 -0.0094 -3.1255
  180MOL0     H23746   3.054   3.197   7.667  1.3546 -1.4178 -1.4018
  180MOL0     H23747   3.073   3.442   7.620  2.3002  0.7521 -2.5536
  180MOL0     H23748   3.303   3.853   8.035 -1.4882  0.4263  0.7136
  180MOL0     H23749   3.332   4.102   7.995  2.4238  1.4321 -1.2257
  180MOL0     H23750   3.309   4.282   7.564  0.3332  2.9953 -0.0811
  180MOL0     H23751   3.315   4.403   7.678  2.3114 -0.7958  1.4296
  180MOL0     H23752   3.069   4.244   7.622 -2.9233  3.1061 -1.0108
  180MOL0     H23753   3.085   4.324   7.776 -1.6575  0.0479 -2.2317
  180MOL0     H23754   3.126   4.467   7.527 -0.3989  1.6974 -1.1810
  180MOL0     H23755   3.104   4.560   7.674  0.1645  2.0843 -3.5520
  180MOL0     H23756   2.874   4.371   7.604 -4.8557  2.0625 -1.4112
  180MOL0     H23757   2.868   4.516   7.683 -3.1034 -0.7872 -1.1190
  180MOL0     H23758   2.835   4.544   7.249  0.0802 -4.4189 -0.8298
  180MOL0     H23759   3.309   4.043   7.574 -0.0282  0.7212  1.1296
  180MOL0     H23760   3.267   3.793   7.613 -0.0134 -1.0008  0.2827
  181MOL0     O23761  11.203   3.004  10.017 -0.0755  0.4019  0.0512
  181MOL0     C23762  11.085   3.043  10.017  0.6128 -0.2468 -0.3268
  181MOL0     O23763  10.984   2.971  10.086  0.2725 -0.4382  0.1054
  181MOL0     C23764  11.017   2.869  10.174  0.2254 -0.0719 -0.5675
  181MOL0     C23765  10.949   2.750  10.160 -0.5793 -0.8070 -0.3694
  181MOL0     C23766  10.967   2.654  10.263 -0.4267  1.2849 -0.1899
  181MOL0     C23767  11.043   2.682  10.377 -1.2019  0.4760 -0.5185
  181MOL0     O23768  11.028   2.593  10.482  0.0981 -0.2544  0.7463
  181MOL0     C23769  11.076   2.630  10.614 -0.3372  0.3238 -0.6433
  181MOL0     C23770  11.076   2.502  10.692  0.8689 -0.2472 -0.2333
  181MOL0     C23771  11.197   2.423  10.678 -0.7856 -0.3953  0.7157
  181MOL0     C23772  11.205   2.300  10.765 -0.1391 -0.7039  0.1183
  181MOL0     C23773  11.341   2.244  10.736 -0.0002 -0.5790  0.4010
  181MOL0     C23774  11.362   2.101  10.777  0.3622  0.2029 -0.3295
  181MOL0     C23775  11.344   2.083  10.932 -0.3707 -0.0245  0.0418
  181MOL0     C23776  11.424   2.182  11.026  0.3423  0.4773 -0.2008
  181MOL0     N23777  11.389   2.149  11.165  0.1302  0.9058 -1.0680
  181MOL0     C23778  11.305   2.214  11.258  0.1542 -0.1272 -0.3334
  181MOL0     C23779  11.322   2.156  11.384 -0.6415  0.3745  0.1702
  181MOL0     C23780  11.274   2.199  11.520  0.0824  0.7767 -0.4846
  181MOL0     C23781  11.134   2.138  11.546  0.5496  0.5326  0.3959
  181MOL0     C23782  11.101   1.987  11.569  0.3061  0.6221  0.6797
  181MOL0     C23783  11.100   1.893  11.444 -0.0020 -1.2062  0.8009
  181MOL0     O23784  11.074   1.754  11.462  0.3037  0.4515  0.2375
  181MOL0     C23785  10.964   1.723  11.544 -0.2047  0.2452 -0.6874
  181MOL0     C23786  10.828   1.745  11.494  0.4740 -0.0153  0.3871
  181MOL0     C23787  10.716   1.717  11.571  0.7170 -0.5087  0.1962
  181MOL0     C23788  10.750   1.655  11.697  1.1222 -0.4679 -0.5207
  181MOL0     C23789  10.638   1.620  11.789 -0.7425  0.0198  1.2322
  181MOL0     O23790  10.512   1.603  11.726  0.7686 -0.5274 -0.7548
  181MOL0     C23791  10.415   1.554  11.806  0.3389 -0.9058 -0.3011
  181MOL0     C23792  10.280   1.588  11.796 -1.3320 -0.8459 -0.8264
  181MOL0     C23793  10.185   1.532  11.883  0.5720 -0.1216 -0.1453
  181MOL0     C23794  10.218   1.430  11.977  0.3880 -0.3500 -0.0822
  181MOL0     O23795  10.147   1.379  12.077  0.4968 -0.0111  0.7016
  181MOL0     C23796  10.007   1.407  12.066  0.3250  0.4666  1.3618
  181MOL0     C23797   9.924   1.373  12.192 -0.0735  0.6629 -0.9791
  181MOL0     C23798   9.901   1.219  12.204  0.4209 -0.0891  0.2614
  181MOL0     C23799   9.818   1.178  12.321 -0.0591 -0.2823  0.6188
  181MOL0     C23800   9.729   1.054  12.308 -0.3479 -0.4795 -0.6519
  181MOL0     C23801   9.609   1.084  12.213  0.7734  0.4756 -1.3454
  181MOL0     C23802   9.490   0.989  12.252 -0.0990  0.2702  0.1565
  181MOL0     C23803   9.509   0.846  12.188  0.4091 -0.5800  0.6066
  181MOL0    Cl23804   9.676   0.775  12.187  0.1601  0.6441 -0.1095
  181MOL0     C23805  10.345   1.390  11.972  0.4975  0.1634  0.0427
  181MOL0     C23806  10.439   1.439  11.881 -0.7858 -0.5994 -0.3922
  181MOL0     O23807  10.662   1.623  11.907  0.1298 -0.3582 -0.3158
  181MOL0     C23808  10.879   1.634  11.735  0.0935 -0.0890  0.1067
  181MOL0     C23809  10.991   1.664  11.659  0.5469  0.4929 -0.4009
  181MOL0     N23810  11.418   2.062  11.372  0.2612  1.0529 -0.2351
  181MOL0     N23811  11.453   2.053  11.251 -0.5300  0.5512 -0.5121
  181MOL0     C23812  11.119   2.801  10.380 -0.0064  0.6840  0.5961
  181MOL0     C23813  11.108   2.894  10.277  0.8764  0.3115 -1.0161
  181MOL0     C23814  11.032   3.154   9.944  0.0943 -0.9727 -0.0583
  181MOL0     C23815  10.903   3.206   9.972 -0.9180 -0.5858  0.0193
  181MOL0     C23816  10.851   3.311   9.901 -0.1539 -0.3438  0.6372
  181MOL0     C23817  10.926   3.388   9.812 -0.6965  0.3071  0.7252
  181MOL0     O23818  10.864   3.499   9.760 -0.0405  0.1888 -0.9758
  181MOL0     C23819  10.944   3.570   9.661 -1.2365 -0.0185 -0.3468
  181MOL0     C23820  10.873   3.694   9.606 -0.4146  0.0252  0.2176
  181MOL0     C23821  10.887   3.818   9.705  0.1499 -0.3015 -0.1916
  181MOL0     C23822  10.812   3.937   9.637 -0.2776  0.7957 -0.4861
  181MOL0     C23823  10.884   3.965   9.507  0.4252  0.1789 -0.5772
  181MOL0     C23824  10.951   4.001   9.410  0.0180 -0.1060  0.2818
  181MOL0     C23825  11.060   3.344   9.791 -0.3564 -0.0319 -0.2593
  181MOL0     C23826  11.124   3.235   9.863 -0.7729 -0.5978 -0.5687
  181MOL0     H23827  10.887   2.729  10.073 -1.3928 -2.2536  0.5223
  181MOL0     H23828  10.931   2.552  10.253  1.5421  0.6391 -1.2611
  181MOL0     H23829  11.002   2.696  10.661  0.6771  0.8347  0.2778
  181MOL0     H23830  11.170   2.685  10.624  0.1766 -0.6654  0.0883
  181MOL0     H23831  10.983   2.451  10.664  1.4323 -1.3795 -0.0852
  181MOL0     H23832  11.056   2.505  10.799  3.8833 -3.8396  0.6072
  181MOL0     H23833  11.287   2.482  10.697  1.8465 -4.3974  2.1218
  181MOL0     H23834  11.212   2.399  10.572 -3.9235 -1.2261  0.3522
  181MOL0     H23835  11.192   2.315  10.873 -2.8886 -0.7274 -0.1507
  181MOL0     H23836  11.135   2.226  10.726  1.0839 -1.4077 -0.8257
  181MOL0     H23837  11.422   2.302  10.781  2.0443 -4.0628  1.6504
  181MOL0     H23838  11.350   2.244  10.627 -0.9369  1.0616  0.2989
  181MOL0     H23839  11.466   2.069  10.765  1.0595  2.2429 -0.0322
  181MOL0     H23840  11.290   2.044  10.717 -1.8794  0.5874  1.8172
  181MOL0     H23841  11.235   2.076  10.941 -0.4960  1.8630  0.5396
  181MOL0     H23842  11.379   1.980  10.939 -1.0941 -0.2742  0.0573
  181MOL0     H23843  11.397   2.288  11.018  1.4692  0.7438 -0.6880
  181MOL0     H23844  11.529   2.165  11.002 -0.2174 -0.2442 -2.4305
  181MOL0     H23845  11.250   2.306  11.237  5.1340  2.5359 -3.9431
  181MOL0     H23846  11.247   2.305  11.523  2.0675  1.3830 -1.8713
  181MOL0     H23847  11.337   2.167  11.604  1.3604 -3.7568 -2.8472
  181MOL0     H23848  11.068   2.159  11.461 -2.7065 -1.6420  2.1732
  181MOL0     H23849  11.088   2.197  11.627  2.8651  1.8351  0.8553
  181MOL0     H23850  11.158   1.934  11.646 -0.2208 -2.2266 -0.7535
  181MOL0     H23851  10.995   1.993  11.597 -0.0059 -2.7122  0.5995
  181MOL0     H23852  11.197   1.897  11.394 -0.5113 -1.3401 -0.2161
  181MOL0     H23853  11.030   1.931  11.370  1.4582 -0.7270 -0.3880
  181MOL0     H23854  10.822   1.778  11.391 -0.3723 -0.2713  0.3508
  181MOL0     H23855  10.617   1.737  11.531 -0.3311 -0.5663  2.6107
  181MOL0     H23856  10.253   1.665  11.724  1.1843  1.6001  0.6472
  181MOL0     H23857  10.080   1.560  11.883  0.3882 -0.5135  2.6247
  181MOL0     H23858   9.967   1.355  11.979 -2.1581  4.3473 -0.0793
  181MOL0     H23859   9.981   1.513  12.057 -0.4060  0.0936 -1.8102
  181MOL0     H23860   9.820   1.405  12.180 -1.0543 -2.6017 -2.2451
  181MOL0     H23861   9.959   1.407  12.290 -0.4195 -1.7520  0.0653
  181MOL0     H23862   9.996   1.164  12.196  1.5619  1.9884 -3.8628
  181MOL0     H23863   9.860   1.188  12.107  1.5519  1.8496 -0.9287
  181MOL0     H23864   9.877   1.170  12.413 -3.2032 -1.9828  2.6882
  181MOL0     H23865   9.756   1.265  12.342  2.3715  1.5521  0.6190
  181MOL0     H23866   9.685   1.034  12.406  1.4505 -1.4321 -0.0135
  181MOL0     H23867   9.804   0.977  12.295 -0.9608 -1.0572 -0.8400
  181MOL0     H23868   9.645   1.071  12.111  0.8638  0.9769 -1.3799
  181MOL0     H23869   9.578   1.188  12.223  1.4981  0.6415 -0.7511
  181MOL0     H23870   9.478   0.991  12.361 -2.6267  2.7462 -0.0417
  181MOL0     H23871   9.398   1.034  12.212  0.1550 -0.1521 -0.9540
  181MOL0     H23872   9.457   0.844  12.092 -3.3673  0.5602  2.4602
  181MOL0     H23873   9.448   0.779  12.249  3.4797 -3.4538  0.8401
  181MOL0     H23874  10.367   1.309  12.040 -0.9944 -1.1452 -0.9754
  181MOL0     H23875  10.540   1.405  11.898 -0.0994  1.8111  0.7513
  181MOL0     H23876  10.902   1.564  11.815 -2.3284 -0.8336  0.2521
  181MOL0     H23877  11.085   1.642  11.709 -2.2699 -0.6497  5.0633
  181MOL0     H23878  11.169   2.834  10.471 -1.6223 -1.3615  2.3412
  181MOL0     H23879  11.154   2.992  10.269  3.7453 -0.8764 -0.3723
  181MOL0     H23880  10.841   3.168  10.052 -3.2414  2.8117  0.0548
  181MOL0     H23881  10.754   3.347   9.935  0.5687  1.3987  0.9506
  181MOL0     H23882  10.972   3.512   9.573  1.6599  0.9219 -0.1628
  181MOL0     H23883  11.038   3.616   9.694 -1.0691  0.7265 -1.7796
  181MOL0     H23884  10.903   3.720   9.505  0.4036 -2.7316 -0.3165
  181MOL0     H23885  10.769   3.662   9.595  0.2662 -2.7189  1.0849
  181MOL0     H23886  10.994   3.837   9.717  0.0315  0.1792  0.1333
  181MOL0     H23887  10.852   3.818   9.808  0.2912  5.0311  0.1420
  181MOL0     H23888  10.707   3.910   9.620 -0.3150  0.3619  0.3617
  181MOL0     H23889  10.824   4.022   9.705 -0.0801 -0.9417  1.7834
  181MOL0     H23890  11.010   4.042   9.330 -1.9845  0.0268 -1.2038
  181MOL0     H23891  11.129   3.397   9.727  1.2737 -3.0173 -1.1325
  181MOL0     H23892  11.232   3.223   9.859 -0.2569  1.8864  2.3623
  182MOL0     O23893  10.209   4.124   6.536 -0.0393 -1.3925  0.2754
  182MOL0     C23894  10.306   4.073   6.606  0.2578  0.0021  0.5602
  182MOL0     O23895  10.308   4.068   6.743  0.5391 -0.4305  0.0745
  182MOL0     C23896  10.202   4.087   6.829 -0.1223 -0.6099  0.0583
  182MOL0     C23897  10.247   4.157   6.938 -0.0446 -0.2409 -0.9506
  182MOL0     C23898  10.151   4.193   7.039 -0.6453  0.6467 -0.4244
  182MOL0     C23899  10.026   4.127   7.039 -0.2779 -1.0351 -0.0552
  182MOL0     O23900   9.928   4.149   7.132  0.7088  0.4482  0.3266
  182MOL0     C23901   9.962   4.161   7.271 -0.0292 -0.2329 -0.4259
  182MOL0     C23902  10.040   4.037   7.329 -0.3965 -0.1432  1.1697
  182MOL0     C23903  10.027   4.042   7.489  0.0850 -0.3124  0.7753
  182MOL0     C23904  10.116   3.934   7.557  0.9001  0.5433  0.1723
  182MOL0     C23905  10.065   3.885   7.687 -0.5696  0.0103  0.2223
  182MOL0     C23906   9.985   3.758   7.670  0.2878  0.3986  0.6248
  182MOL0     C23907   9.918   3.711   7.800  0.3834  0.0998  0.3147
  182MOL0     C23908   9.844   3.815   7.881  0.5520 -0.5787  0.3097
  182MOL0     N23909   9.705   3.821   7.831  0.4111  0.5661 -0.4470
  182MOL0     C23910   9.604   3.745   7.882  0.1364  0.2072 -0.8584
  182MOL0     C23911   9.490   3.789   7.822  1.6233  0.9356  0.6037
  182MOL0     C23912   9.348   3.731   7.843 -0.0874 -0.0101  0.1392
  182MOL0     C23913   9.278   3.650   7.730  1.1843  0.3102  0.0460
  182MOL0     C23914   9.334   3.520   7.706 -0.4076  0.1903  0.5801
  182MOL0     C23915   9.292   3.414   7.797 -0.3464 -0.7886 -0.1418
  182MOL0     O23916   9.399   3.351   7.867  0.7914  0.0479  0.2698
  182MOL0     C23917   9.434   3.222   7.820 -0.4473 -0.1671 -0.3960
  182MOL0     C23918   9.444   3.176   7.686  0.7243 -0.0767 -0.2767
  182MOL0     C23919   9.505   3.053   7.665  0.3968  2.1822 -0.4064
  182MOL0     C23920   9.547   2.962   7.761  1.1212 -0.0014 -0.8708
  182MOL0     C23921   9.581   2.819   7.738  0.1425  0.4235 -0.4361
  182MOL0     O23922   9.698   2.821   7.666 -0.4480  0.1567  0.1207
  182MOL0     C23923   9.746   2.697   7.622 -0.3813 -0.7034  0.0762
  182MOL0     C23924   9.847   2.617   7.684 -0.2704 -0.5486  0.2482
  182MOL0     C23925   9.897   2.503   7.627  1.0446  0.0200  0.9655
  182MOL0     C23926   9.850   2.469   7.495 -0.2959 -0.0175 -0.4172
  182MOL0     O23927   9.905   2.359   7.436  0.7863 -0.1635 -0.1817
  182MOL0     C23928   9.912   2.345   7.294 -0.2550 -0.5734  0.0028
  182MOL0     C23929  10.005   2.222   7.274  0.8806 -0.2973 -0.5822
  182MOL0     C23930  10.051   2.198   7.129  0.2927  0.0965 -0.9796
  182MOL0     C23931  10.160   2.104   7.121  0.2254  0.0429  0.4661
  182MOL0     C23932  10.208   2.072   6.976 -0.2632 -0.6369 -0.6114
  182MOL0     C23933  10.360   2.042   6.981  0.0371 -0.4223 -0.0809
  182MOL0     C23934  10.403   1.932   6.887  0.3544 -0.2037  1.3743
  182MOL0     C23935  10.341   1.923   6.751  0.3715 -0.5851 -0.6485
  182MOL0    Cl23936  10.403   2.061   6.663  0.2528  0.0623  0.2166
  182MOL0     C23937   9.756   2.549   7.432 -0.1065  0.5108  0.2296
  182MOL0     C23938   9.699   2.656   7.497  0.6160  0.7650 -1.3913
  182MOL0     O23939   9.536   2.724   7.807  0.2385  0.0623 -0.2036
  182MOL0     C23940   9.533   3.007   7.898 -0.1636  0.4215  0.9002
  182MOL0     C23941   9.477   3.139   7.924  0.0278  0.2368  1.0957
  182MOL0     N23942   9.525   3.872   7.718  0.3770 -0.8569 -1.0160
  182MOL0     N23943   9.652   3.906   7.740  0.4028  1.2634  0.6351
  182MOL0     C23944   9.994   4.053   6.924 -0.0087  0.1913  0.7072
  182MOL0     C23945  10.075   4.038   6.813 -1.4275 -0.4618  0.0773
  182MOL0     C23946  10.415   4.010   6.545 -1.0025 -0.2923  0.2871
  182MOL0     C23947  10.543   3.992   6.600 -0.3856 -0.4121 -0.2787
  182MOL0     C23948  10.658   3.950   6.526  0.1614 -0.1040 -0.2259
  182MOL0     C23949  10.643   3.914   6.386  0.7211 -0.5394 -0.3107
  182MOL0     O23950  10.739   3.883   6.294  0.1097 -0.7468 -0.1555
  182MOL0     C23951  10.869   3.915   6.337  0.1982  0.0363 -0.3894
  182MOL0     C23952  10.967   3.855   6.232  0.1315 -0.7385 -0.3697
  182MOL0     C23953  10.994   3.949   6.111  0.0063 -0.3142 -0.9222
  182MOL0     C23954  10.869   3.976   6.031 -0.4915 -0.0190  1.0086
  182MOL0     C23955  10.846   3.863   5.934 -0.0212 -0.9356 -0.4865
  182MOL0     C23956  10.813   3.767   5.874 -0.3406  0.7022 -0.3111
  182MOL0     C23957  10.507   3.903   6.338  0.2432  0.2003  0.2481
  182MOL0     C23958  10.404   3.952   6.412 -0.2736  0.1642  1.2056
  182MOL0     H23959  10.345   4.204   6.937 -1.2842  2.4953 -0.5226
  182MOL0     H23960  10.193   4.266   7.108  3.9445 -2.0731  0.0560
  182MOL0     H23961   9.864   4.181   7.316  0.2882  0.3725  0.0069
  182MOL0     H23962  10.015   4.255   7.283 -1.4023  0.7227 -1.4651
  182MOL0     H23963  10.141   4.042   7.288 -0.7030  0.8179  0.4793
  182MOL0     H23964  10.001   3.939   7.302  0.6913 -1.0307  2.6756
  182MOL0     H23965   9.921   4.029   7.510  0.1457 -2.0711  0.2173
  182MOL0     H23966  10.063   4.140   7.521 -0.5478  0.1720  0.0468
  182MOL0     H23967  10.096   3.856   7.483 -1.5484 -1.3087  2.5708
  182MOL0     H23968  10.223   3.953   7.549  1.1417 -1.0192 -0.8511
  182MOL0     H23969  10.000   3.960   7.733 -0.7950 -0.0364 -0.0192
  182MOL0     H23970  10.152   3.872   7.752 -1.5302 -0.1810  1.5256
  182MOL0     H23971  10.048   3.673   7.644 -2.5903 -1.5325 -0.5035
  182MOL0     H23972   9.913   3.784   7.592 -1.6400  4.0064  3.3537
  182MOL0     H23973   9.854   3.624   7.782  1.1735 -0.0462 -2.0695
  182MOL0     H23974  10.005   3.671   7.853  0.8214  1.9640  1.0717
  182MOL0     H23975   9.891   3.913   7.893  1.6840 -1.2541  1.6693
  182MOL0     H23976   9.849   3.773   7.983 -1.9341 -1.6056  0.0817
  182MOL0     H23977   9.611   3.674   7.963 -5.4496  2.6196  2.3107
  182MOL0     H23978   9.285   3.814   7.875 -0.0231  0.4270 -0.8490
  182MOL0     H23979   9.364   3.659   7.925 -0.8103 -0.5899 -0.2195
  182MOL0     H23980   9.283   3.707   7.637 -0.6205 -1.0113 -0.9372
  182MOL0     H23981   9.172   3.638   7.757  1.2983  0.9070  0.7812
  182MOL0     H23982   9.298   3.500   7.604 -2.9734  4.9030  0.2930
  182MOL0     H23983   9.440   3.542   7.717 -0.3507  0.2875 -0.1125
  182MOL0     H23984   9.226   3.339   7.753 -2.7865 -0.4200  2.6308
  182MOL0     H23985   9.224   3.460   7.869 -0.6758 -1.4479 -0.0268
  182MOL0     H23986   9.425   3.238   7.599  0.7099 -1.4294 -1.2753
  182MOL0     H23987   9.517   3.028   7.560 -2.2400  0.2610 -0.3643
  182MOL0     H23988   9.886   2.672   7.769 -3.3686  1.6423  0.4248
  182MOL0     H23989   9.977   2.443   7.668  0.6223 -0.9759  0.3778
  182MOL0     H23990   9.943   2.440   7.249  0.3535 -0.3917  0.7794
  182MOL0     H23991   9.813   2.322   7.253 -0.7987  0.9169  0.4079
  182MOL0     H23992   9.952   2.131   7.305 -2.5223  1.4592 -0.6810
  182MOL0     H23993  10.084   2.238   7.348 -0.4282  0.7997  0.6586
  182MOL0     H23994  10.080   2.291   7.080 -2.8412  1.6581 -0.1459
  182MOL0     H23995   9.963   2.174   7.068  1.5785 -4.8985 -1.3073
  182MOL0     H23996  10.236   2.144   7.189  1.7606 -4.6182  1.8640
  182MOL0     H23997  10.130   2.009   7.167  2.2473 -0.7501  0.2454
  182MOL0     H23998  10.194   2.157   6.908  1.7743 -0.0421 -0.3812
  182MOL0     H23999  10.142   1.993   6.940 -0.2021 -0.8320 -0.2997
  182MOL0     H24000  10.409   2.024   7.077  2.6778 -2.8168 -1.7066
  182MOL0     H24001  10.400   2.135   6.941 -0.6502 -0.0252  0.1397
  182MOL0     H24002  10.512   1.934   6.890  0.3220  0.7910  2.8778
  182MOL0     H24003  10.373   1.838   6.935 -2.8356 -0.3041 -0.5217
  182MOL0     H24004  10.233   1.921   6.762  0.4495  0.4166  0.5614
  182MOL0     H24005  10.369   1.833   6.695 -1.7069 -1.5830 -0.1674
  182MOL0     H24006   9.731   2.522   7.330 -0.1117 -0.0337  0.3715
  182MOL0     H24007   9.620   2.719   7.457  0.7415  1.2004 -0.9594
  182MOL0     H24008   9.562   2.960   7.992 -1.6287 -1.9163  0.2847
  182MOL0     H24009   9.470   3.167   8.028 -4.0051  1.1439  0.7715
  182MOL0     H24010   9.891   4.018   6.922 -0.7511  2.1720  1.2828
  182MOL0     H24011  10.055   3.989   6.718 -3.4912 -0.9751  0.7377
  182MOL0     H24012  10.564   4.016   6.704  1.6997 -1.8807 -0.2995
  182MOL0     H24013  10.758   3.948   6.569  0.0520  1.3764  0.1595
  182MOL0     H24014  10.883   3.864   6.433  0.6192 -4.2360 -2.4985
  182MOL0     H24015  10.884   4.024   6.345  3.1937 -0.0734 -2.6796
  182MOL0     H24016  11.065   3.853   6.280 -0.3370  3.1643  1.1156
  182MOL0     H24017  10.930   3.758   6.198 -2.8378 -0.0435  0.5615
  182MOL0     H24018  11.069   3.905   6.045 -0.2536 -0.8483 -0.8669
  182MOL0     H24019  11.038   4.041   6.152  0.0562 -0.9787  0.5799
  182MOL0     H24020  10.781   3.997   6.092  1.2320  2.4969  2.8199
  182MOL0     H24021  10.892   4.060   5.966 -3.0589 -0.9058 -1.2632
  182MOL0     H24022  10.771   3.687   5.817  0.1925  1.7502 -2.3064
  182MOL0     H24023  10.488   3.874   6.235 -1.4397  1.5546  0.1392
  182MOL0     H24024  10.306   3.941   6.365  0.2302  2.0739 -0.4351
  183MOL0     O24025   2.959   8.620   4.553  0.1018  0.0802  0.7486
  183MOL0     C24026   3.042   8.680   4.484  0.8396  0.7684 -0.2196
  183MOL0     O24027   3.162   8.629   4.447 -0.9610  0.0906 -0.2129
  183MOL0     C24028   3.183   8.498   4.491 -0.0923 -0.3865  0.5259
  183MOL0     C24029   3.251   8.466   4.608 -0.0112  0.4396 -0.5607
  183MOL0     C24030   3.254   8.335   4.666  0.3825 -1.0425  0.3770
  183MOL0     C24031   3.208   8.230   4.591 -0.0203  0.1952 -1.4016
  183MOL0     O24032   3.183   8.100   4.644  0.2682 -0.7995  0.2577
  183MOL0     C24033   3.266   8.046   4.742  0.0925 -0.2117 -0.4912
  183MOL0     C24034   3.283   7.887   4.723  0.1023 -0.7616 -0.8147
  183MOL0     C24035   3.381   7.845   4.608  0.5183  0.2828 -0.0130
  183MOL0     C24036   3.441   7.709   4.617 -0.1879  0.9661 -0.2147
  183MOL0     C24037   3.408   7.602   4.497  0.2245  0.0049 -0.7587
  183MOL0     C24038   3.248   7.581   4.479  0.1697  0.4597 -0.7983
  183MOL0     C24039   3.217   7.486   4.367  0.7293  0.2869 -0.4695
  183MOL0     C24040   3.287   7.511   4.234 -0.0315  0.0167 -0.7465
  183MOL0     N24041   3.250   7.432   4.128 -0.1025 -0.2476  0.6994
  183MOL0     C24042   3.121   7.410   4.088  0.0788  0.0352  0.0600
  183MOL0     C24043   3.141   7.329   3.980 -0.3666  0.5525 -0.4856
  183MOL0     C24044   3.042   7.279   3.882  0.2724  0.6970 -0.1338
  183MOL0     C24045   3.022   7.367   3.763 -0.1903  0.5679  0.1020
  183MOL0     C24046   2.921   7.312   3.654  1.0602 -0.1887 -0.1620
  183MOL0     C24047   2.788   7.248   3.701  0.7010  0.9301  0.0992
  183MOL0     O24048   2.706   7.353   3.766  0.2481  0.1663  0.3245
  183MOL0     C24049   2.586   7.312   3.820  0.6112 -0.0158  0.3191
  183MOL0     C24050   2.470   7.385   3.795  0.4669  0.1288  0.0608
  183MOL0     C24051   2.355   7.341   3.852  0.5512 -0.1997  0.8183
  183MOL0     C24052   2.345   7.222   3.924 -0.7863  0.5094  0.8088
  183MOL0     C24053   2.223   7.177   4.004  0.7630  0.4610  0.4148
  183MOL0     O24054   2.248   7.079   4.102 -0.6595  0.0154 -0.4802
  183MOL0     C24055   2.145   7.012   4.165  0.0787 -0.5522 -0.9084
  183MOL0     C24056   2.021   6.984   4.111  0.6799  0.1631 -0.2765
  183MOL0     C24057   1.930   6.891   4.170  0.2205 -0.4224  0.1129
  183MOL0     C24058   1.978   6.803   4.268 -0.2756 -0.0874  0.1611
  183MOL0     O24059   1.905   6.691   4.308  0.7990 -0.7900 -0.3675
  183MOL0     C24060   1.897   6.645   4.446  0.4228 -0.2551 -0.3790
  183MOL0     C24061   1.753   6.657   4.507  0.7922 -0.9611  0.0873
  183MOL0     C24062   1.744   6.666   4.662 -0.5892  0.2938  0.6993
  183MOL0     C24063   1.735   6.515   4.719 -0.5597 -0.7894 -1.0828
  183MOL0     C24064   1.755   6.510   4.876 -0.0533 -0.9286  0.0986
  183MOL0     C24065   1.842   6.401   4.930  0.4009 -1.3291 -0.0492
  183MOL0     C24066   1.843   6.387   5.078  0.6719 -0.4396 -0.0640
  183MOL0     C24067   1.971   6.321   5.128 -0.1007 -0.1473 -0.0256
  183MOL0    Cl24068   2.105   6.446   5.106  0.4144 -0.0314  0.5674
  183MOL0     C24069   2.102   6.831   4.324  0.5710 -0.0674  0.3605
  183MOL0     C24070   2.177   6.936   4.282 -0.2950  0.1799  0.3534
  183MOL0     O24071   2.130   7.261   4.006  0.6319 -0.4183  0.5122
  183MOL0     C24072   2.460   7.146   3.943 -0.0523 -0.8414 -1.1206
  183MOL0     C24073   2.585   7.190   3.885  0.4490 -0.4182 -0.0666
  183MOL0     N24074   3.266   7.305   3.944 -0.4482  0.7437 -0.0683
  183MOL0     N24075   3.332   7.363   4.041  0.0273 -0.0503 -0.1142
  183MOL0     C24076   3.145   8.253   4.467  0.4606 -0.2511  0.5886
  183MOL0     C24077   3.125   8.384   4.415  0.2044 -0.3991  0.1270
  183MOL0     C24078   3.015   8.813   4.451 -0.3005  0.6813 -0.8450
  183MOL0     C24079   2.889   8.868   4.457 -0.7919  0.0034 -1.0792
  183MOL0     C24080   2.874   9.001   4.418  0.2874 -0.3894 -0.0464
  183MOL0     C24081   2.989   9.082   4.382  0.8650 -0.6960 -0.0367
  183MOL0     O24082   2.975   9.213   4.350  0.1725 -0.2634 -0.0429
  183MOL0     C24083   2.838   9.273   4.349 -0.0342  0.0708  0.8184
  183MOL0     C24084   2.755   9.250   4.215 -0.8971 -0.0392  0.1996
  183MOL0     C24085   2.600   9.282   4.228 -0.3686  0.7297  0.0472
  183MOL0     C24086   2.532   9.221   4.350  0.0016  0.0329 -0.5722
  183MOL0     C24087   2.392   9.251   4.338 -0.7707 -0.1149 -0.7202
  183MOL0     C24088   2.276   9.274   4.320  0.2215  0.8895  0.6447
  183MOL0     C24089   3.107   9.024   4.363  0.2485  0.6957  0.4680
  183MOL0     C24090   3.126   8.893   4.396  0.3684  0.9316 -1.2299
  183MOL0     H24091   3.299   8.552   4.654 -0.4655  0.0385  0.7045
  183MOL0     H24092   3.305   8.322   4.761 -1.6004 -1.1265  1.5036
  183MOL0     H24093   3.217   8.074   4.836 -3.7116 -0.3430 -2.2960
  183MOL0     H24094   3.371   8.078   4.734 -0.1595  0.4571 -1.1984
  183MOL0     H24095   3.184   7.847   4.703 -0.4274  0.9810 -1.8896
  183MOL0     H24096   3.312   7.846   4.820 -1.0008 -0.4303 -0.3296
  183MOL0     H24097   3.458   7.923   4.598  1.2420 -0.2752  0.9841
  183MOL0     H24098   3.327   7.849   4.513  0.6838  1.7028 -0.0716
  183MOL0     H24099   3.550   7.703   4.627 -0.4272 -2.5363  1.8824
  183MOL0     H24100   3.414   7.665   4.713  0.7449 -0.0441 -0.3958
  183MOL0     H24101   3.453   7.504   4.513  0.7578  0.7231  3.3489
  183MOL0     H24102   3.459   7.646   4.410  0.3038 -2.0620 -1.7991
  183MOL0     H24103   3.194   7.670   4.446  2.3866  1.3142 -2.4112
  183MOL0     H24104   3.209   7.526   4.565  0.8850  0.6450 -0.3474
  183MOL0     H24105   3.251   7.385   4.391 -0.3746 -0.0262 -0.1736
  183MOL0     H24106   3.108   7.478   4.362  0.7196  0.6287 -0.8314
  183MOL0     H24107   3.394   7.504   4.255 -0.4895 -0.2715  1.8056
  183MOL0     H24108   3.267   7.615   4.208 -0.1354  0.6173  1.5048
  183MOL0     H24109   3.022   7.445   4.112 -0.1060 -0.3101 -0.1714
  183MOL0     H24110   2.949   7.261   3.936 -0.0794  2.8188  0.0433
  183MOL0     H24111   3.082   7.185   3.842  1.1391  1.3017 -0.7126
  183MOL0     H24112   3.120   7.369   3.716  1.8822 -1.6047  3.8043
  183MOL0     H24113   2.990   7.462   3.807 -0.5421 -0.7489  2.9845
  183MOL0     H24114   2.888   7.393   3.589  2.4004  1.6427  1.2882
  183MOL0     H24115   2.972   7.241   3.589  0.4491  0.1920 -1.0745
  183MOL0     H24116   2.809   7.168   3.773 -1.0766  0.4569  0.1366
  183MOL0     H24117   2.727   7.197   3.626  0.3780 -1.1155  1.6443
  183MOL0     H24118   2.453   7.470   3.730 -4.5386 -0.3965  0.3378
  183MOL0     H24119   2.258   7.388   3.836  1.4575  1.3263 -0.3537
  183MOL0     H24120   1.987   7.042   4.026 -0.8743  1.1081  0.9348
  183MOL0     H24121   1.834   6.878   4.122 -1.1570  2.3074  1.8766
  183MOL0     H24122   1.952   6.711   4.513 -0.2294  0.4546 -0.5364
  183MOL0     H24123   1.932   6.542   4.458  1.4272  0.2395  1.2392
  183MOL0     H24124   1.704   6.563   4.479 -1.4872  0.1345  0.1755
  183MOL0     H24125   1.711   6.750   4.466  0.8318 -0.8718  0.2474
  183MOL0     H24126   1.654   6.714   4.700  0.8797  1.1606  3.3372
  183MOL0     H24127   1.832   6.714   4.707  2.7011 -2.3301 -2.2445
  183MOL0     H24128   1.641   6.462   4.702 -1.7166  1.0727 -0.8204
  183MOL0     H24129   1.801   6.455   4.656 -0.7930 -3.8602  1.3959
  183MOL0     H24130   1.656   6.497   4.921  0.5383  0.3061  1.8320
  183MOL0     H24131   1.811   6.600   4.902 -3.2230  1.4591 -0.6133
  183MOL0     H24132   1.947   6.410   4.899  1.4336 -1.1040  3.1770
  183MOL0     H24133   1.808   6.306   4.889  0.8994 -1.3801 -0.3596
  183MOL0     H24134   1.847   6.479   5.136 -1.0157 -0.8610  0.7860
  183MOL0     H24135   1.748   6.334   5.096  0.2585 -0.9716 -3.2421
  183MOL0     H24136   1.980   6.233   5.064  0.5631  0.1446 -0.3515
  183MOL0     H24137   1.962   6.281   5.229 -3.9678 -2.7917 -1.2071
  183MOL0     H24138   2.147   6.763   4.396 -2.2229 -1.4681  0.9238
  183MOL0     H24139   2.277   6.949   4.324 -0.3921 -0.4684  0.7881
  183MOL0     H24140   2.468   7.055   4.002 -1.9553  0.5789  1.5191
  183MOL0     H24141   2.667   7.124   3.906 -1.7043 -3.0174  0.7293
  183MOL0     H24142   3.108   8.165   4.416 -2.2837  0.7362  0.6756
  183MOL0     H24143   3.069   8.393   4.322  0.7163 -3.5784 -0.6137
  183MOL0     H24144   2.802   8.810   4.489  1.0956 -2.1546  0.4689
  183MOL0     H24145   2.776   9.046   4.433  1.3296  3.2201 -2.6520
  183MOL0     H24146   2.853   9.381   4.358 -0.5770  0.2733 -0.5446
  183MOL0     H24147   2.777   9.250   4.438 -1.3606 -0.9917 -0.3208
  183MOL0     H24148   2.795   9.319   4.140  0.5011  0.0093  0.9456
  183MOL0     H24149   2.771   9.144   4.192  1.5773  0.0440  1.1621
  183MOL0     H24150   2.567   9.223   4.142  0.1979 -3.2113  2.2694
  183MOL0     H24151   2.566   9.384   4.211 -2.6650 -0.3331 -2.5009
  183MOL0     H24152   2.544   9.113   4.366  0.7298  0.3299  1.0399
  183MOL0     H24153   2.566   9.270   4.441  2.1708 -0.3451 -1.1255
  183MOL0     H24154   2.169   9.282   4.317 -0.4856 -4.6777 -1.2862
  183MOL0     H24155   3.201   9.075   4.347  0.4981  0.3849  0.9085
  183MOL0     H24156   3.227   8.855   4.399  0.7546  1.8297  2.9516
  184MOL0     O24157   1.018   8.452   4.940  0.2643 -0.2843  0.1230
  184MOL0     C24158   0.927   8.529   4.972 -0.5005  0.1270  0.1537
  184MOL0     O24159   0.928   8.666   4.969 -0.2474  0.3086 -0.5241
  184MOL0     C24160   1.001   8.734   4.880  0.2513  0.3590  0.2033
  184MOL0     C24161   1.014   8.700   4.748 -0.1529  0.2966 -0.2275
  184MOL0     C24162   1.089   8.772   4.653  0.0293 -0.4690  0.6233
  184MOL0     C24163   1.153   8.890   4.706 -0.1653 -0.7507  0.2843
  184MOL0     O24164   1.235   8.971   4.622  0.1498  0.3466 -0.2327
  184MOL0     C24165   1.372   8.943   4.634  1.1528 -0.4858 -1.4610
  184MOL0     C24166   1.446   9.076   4.630  0.7292 -0.3516  0.2585
  184MOL0     C24167   1.577   9.037   4.584  0.1780  0.2689 -0.3764
  184MOL0     C24168   1.676   8.964   4.685 -0.8267 -0.2511  0.7470
  184MOL0     C24169   1.809   8.925   4.613  1.1809 -0.6347 -0.4081
  184MOL0     C24170   1.916   8.915   4.715  0.7960 -0.3434 -0.2740
  184MOL0     C24171   2.052   8.898   4.650  0.3337  1.2043  0.4159
  184MOL0     C24172   2.089   9.006   4.554  0.7247  0.0109 -0.2104
  184MOL0     N24173   2.067   9.146   4.594 -1.0816 -0.9099 -0.3331
  184MOL0     C24174   2.155   9.217   4.672  0.7462 -0.7978 -0.2792
  184MOL0     C24175   2.100   9.343   4.681 -0.2964 -0.4495  0.2105
  184MOL0     C24176   2.145   9.473   4.739 -0.4736 -0.6867 -0.0722
  184MOL0     C24177   2.170   9.466   4.889  0.6257  0.1131  0.1045
  184MOL0     C24178   2.182   9.597   4.971 -0.4584  0.4598  0.0828
  184MOL0     C24179   2.270   9.583   5.093  0.0365  0.6134 -0.3824
  184MOL0     O24180   2.207   9.562   5.214  0.7924 -0.0873 -0.6573
  184MOL0     C24181   2.128   9.455   5.242  0.7441  0.1426 -0.6875
  184MOL0     C24182   2.165   9.324   5.236 -0.8942 -0.0695  0.5818
  184MOL0     C24183   2.106   9.222   5.306  0.4690 -0.3521  0.4623
  184MOL0     C24184   1.984   9.254   5.377  0.5642  0.1677 -0.1566
  184MOL0     C24185   1.906   9.149   5.451 -0.9206 -0.3463  0.9235
  184MOL0     O24186   1.770   9.164   5.448 -0.8420 -0.8121  0.1053
  184MOL0     C24187   1.693   9.080   5.522 -0.6229  0.3867 -0.8628
  184MOL0     C24188   1.558   9.075   5.494  0.0619 -0.0558  0.2483
  184MOL0     C24189   1.458   9.024   5.587 -0.3805  0.3277  0.7740
  184MOL0     C24190   1.505   8.956   5.699  0.9561 -1.2072 -0.4053
  184MOL0     O24191   1.425   8.905   5.794  0.0283 -0.6077 -0.2353
  184MOL0     C24192   1.338   8.807   5.740 -0.1357 -0.1828 -0.3742
  184MOL0     C24193   1.195   8.864   5.755  0.7849 -0.6169  0.1046
  184MOL0     C24194   1.086   8.779   5.689  0.2500 -0.2184  0.4405
  184MOL0     C24195   1.069   8.633   5.750 -0.0197 -0.4265  0.5434
  184MOL0     C24196   0.930   8.574   5.715 -0.6312  0.4758 -0.3106
  184MOL0     C24197   0.903   8.422   5.747  0.0670  0.1276  0.4407
  184MOL0     C24198   0.871   8.383   5.890  0.2896 -0.7764  0.3916
  184MOL0     C24199   0.797   8.247   5.905  0.7234  0.5308 -0.6598
  184MOL0    Cl24200   0.656   8.228   5.782 -0.2716 -0.1908  0.3689
  184MOL0     C24201   1.640   8.959   5.731 -0.2159 -0.2083 -0.0853
  184MOL0     C24202   1.734   9.015   5.640  0.4125 -0.0863  0.8693
  184MOL0     O24203   1.971   9.054   5.486  0.5635  0.5214 -0.6849
  184MOL0     C24204   1.926   9.380   5.361  1.4740  0.3064 -1.0809
  184MOL0     C24205   2.004   9.485   5.312  0.2400 -0.2222 -0.1367
  184MOL0     N24206   1.986   9.346   4.607 -0.2025 -0.2314 -0.3950
  184MOL0     N24207   1.967   9.232   4.558  0.8616 -0.1244  0.8284
  184MOL0     C24208   1.137   8.923   4.839  0.3802 -0.4394  0.2127
  184MOL0     C24209   1.067   8.851   4.931  0.0427  0.2041  0.5779
  184MOL0     C24210   0.825   8.468   5.065 -0.3854  0.2024 -0.6255
  184MOL0     C24211   0.794   8.330   5.043  0.6384  1.2946 -0.2808
  184MOL0     C24212   0.722   8.258   5.141 -0.7418 -0.0770 -0.7722
  184MOL0     C24213   0.682   8.325   5.265  0.7092 -1.2341  1.2476
  184MOL0     O24214   0.628   8.264   5.376 -0.8297  0.0941 -0.5573
  184MOL0     C24215   0.596   8.124   5.372 -0.3449 -0.0142  0.2493
  184MOL0     C24216   0.462   8.103   5.291  0.7612  0.6863  0.7003
  184MOL0     C24217   0.363   8.207   5.309  0.0509  0.0441 -0.9454
  184MOL0     C24218   0.223   8.167   5.264  0.2374  0.0606 -0.5279
  184MOL0     C24219   0.162   8.079   5.361  0.2576  0.0098  0.0005
  184MOL0     C24220   0.093   8.023   5.440  0.0575  0.7448  0.0990
  184MOL0     C24221   0.720   8.465   5.289  0.3368  1.0150  0.5531
  184MOL0     C24222   0.786   8.533   5.185  0.5227  0.1097 -0.1997
  184MOL0     H24223   0.979   8.610   4.699  0.6875  1.2938 -2.8062
  184MOL0     H24224   1.099   8.744   4.549  1.0421 -1.9734  1.0718
  184MOL0     H24225   1.393   8.882   4.545 -0.3633 -0.3422 -1.9580
  184MOL0     H24226   1.406   8.891   4.723  0.4950  1.9661  0.3266
  184MOL0     H24227   1.433   9.118   4.730  0.3492 -0.1847  0.1407
  184MOL0     H24228   1.392   9.143   4.563  0.0960 -1.2699 -0.1704
  184MOL0     H24229   1.624   9.130   4.550 -1.4382  0.5748 -1.9456
  184MOL0     H24230   1.566   8.982   4.490 -1.8163 -0.3507  0.1640
  184MOL0     H24231   1.705   9.028   4.769  3.9372 -1.5544  0.3610
  184MOL0     H24232   1.638   8.866   4.714  4.0779 -2.5594  0.3111
  184MOL0     H24233   1.828   8.994   4.531 -0.7886 -1.8968 -2.0314
  184MOL0     H24234   1.800   8.826   4.569  1.3785 -0.7226 -0.2533
  184MOL0     H24235   1.894   8.835   4.786  4.2192 -1.2347 -0.0317
  184MOL0     H24236   1.931   9.009   4.769  1.8694 -0.4717 -0.3350
  184MOL0     H24237   2.128   8.896   4.729  0.5544 -0.4802  0.1916
  184MOL0     H24238   2.052   8.799   4.604  2.9601  1.0423  0.6057
  184MOL0     H24239   2.043   8.987   4.457  0.7504 -4.2610  0.4152
  184MOL0     H24240   2.197   9.000   4.538  0.7038  0.4965 -0.5694
  184MOL0     H24241   2.231   9.176   4.737 -2.7284 -1.5753  3.7041
  184MOL0     H24242   2.086   9.564   4.719 -0.3483  0.0260  2.5002
  184MOL0     H24243   2.235   9.502   4.684  0.1884 -1.6287  0.4917
  184MOL0     H24244   2.255   9.402   4.912  1.5792  1.6592  1.1060
  184MOL0     H24245   2.084   9.412   4.930 -0.2685  1.9120  0.7161
  184MOL0     H24246   2.226   9.664   4.897 -0.9915 -0.4675 -1.0985
  184MOL0     H24247   2.091   9.646   5.006  0.4909  0.0816  3.4375
  184MOL0     H24248   2.328   9.675   5.103  0.2558  0.5044 -0.6517
  184MOL0     H24249   2.335   9.495   5.093  0.1383  0.5733  2.6059
  184MOL0     H24250   2.263   9.311   5.191 -2.0239 -2.7651 -1.3517
  184MOL0     H24251   2.152   9.124   5.300 -0.3225 -0.9292  2.6854
  184MOL0     H24252   1.519   9.127   5.407 -4.1696  0.1724  2.0704
  184MOL0     H24253   1.352   9.042   5.585  0.0837  5.6323  4.1269
  184MOL0     H24254   1.348   8.707   5.782 -1.0059 -0.3488 -0.5528
  184MOL0     H24255   1.345   8.789   5.632 -3.5525  1.2552 -0.9509
  184MOL0     H24256   1.185   8.961   5.705  2.7632  0.4789  1.6881
  184MOL0     H24257   1.170   8.886   5.859  0.1059 -0.4868 -0.0862
  184MOL0     H24258   1.107   8.757   5.584  2.3389 -0.9641  0.9608
  184MOL0     H24259   0.989   8.830   5.688 -1.5191 -3.3337 -0.9362
  184MOL0     H24260   1.147   8.569   5.709  1.4404  2.5961 -1.8261
  184MOL0     H24261   1.087   8.642   5.858  1.8764 -0.5650  0.2814
  184MOL0     H24262   0.904   8.586   5.610  2.3151  2.7823 -0.9253
  184MOL0     H24263   0.858   8.642   5.761 -2.0952  3.2485 -5.8073
  184MOL0     H24264   0.996   8.376   5.714 -0.0830 -1.2553  1.8265
  184MOL0     H24265   0.824   8.392   5.677 -1.8315  1.0514  2.0726
  184MOL0     H24266   0.955   8.388   5.961 -0.5781  0.3051  1.3751
  184MOL0     H24267   0.803   8.462   5.923  0.8052 -0.5280  0.8721
  184MOL0     H24268   0.756   8.229   6.005  0.6123  1.7483 -0.4696
  184MOL0     H24269   0.875   8.170   5.897  1.0425  1.0048 -2.4452
  184MOL0     H24270   1.673   8.900   5.816  0.4207  0.3180  0.0376
  184MOL0     H24271   1.837   9.010   5.674  0.0354 -0.2251  2.0102
  184MOL0     H24272   1.830   9.403   5.405  2.0375  0.8102 -0.0676
  184MOL0     H24273   1.962   9.585   5.319 -0.3693 -0.1473 -3.1606
  184MOL0     H24274   1.181   9.015   4.876  2.5905 -1.6746  0.8598
  184MOL0     H24275   1.057   8.894   5.031  0.5007  2.3003 -0.2206
  184MOL0     H24276   0.824   8.265   4.961 -0.0537 -0.7905  1.0466
  184MOL0     H24277   0.721   8.151   5.122  2.9911 -0.8398  2.1769
  184MOL0     H24278   0.562   8.075   5.464 -1.7857 -1.7650 -1.1585
  184MOL0     H24279   0.680   8.061   5.342  1.1617  1.9456  0.1660
  184MOL0     H24280   0.479   8.094   5.183  0.5287  1.7753  0.5545
  184MOL0     H24281   0.421   8.002   5.299  1.9596 -0.2381 -2.9926
  184MOL0     H24282   0.388   8.289   5.241 -5.6778  4.3222  1.2707
  184MOL0     H24283   0.346   8.242   5.411 -1.6277 -3.0991 -0.0075
  184MOL0     H24284   0.171   8.257   5.232 -1.9044 -1.7022 -2.3063
  184MOL0     H24285   0.235   8.108   5.173  0.0990 -2.3531  0.9328
  184MOL0     H24286   0.032   7.977   5.516  0.4337 -0.3111 -0.2186
  184MOL0     H24287   0.716   8.521   5.382  0.1197  2.4470 -0.2860
  184MOL0     H24288   0.805   8.639   5.198  1.1194 -0.1786  1.5598
  185MOL0     O24289   6.486  10.439   7.479 -0.5405  0.4211  0.2047
  185MOL0     C24290   6.380  10.449   7.535  0.1156 -0.0807  0.4075
  185MOL0     O24291   6.326  10.570   7.577 -0.2080 -0.3261 -0.4592
  185MOL0     C24292   6.390  10.694   7.559 -0.4456 -0.3132 -1.3988
  185MOL0     C24293   6.531  10.719   7.597  0.4895 -0.4450  0.4243
  185MOL0     C24294   6.585  10.850   7.611 -0.1398 -0.0341  0.4810
  185MOL0     C24295   6.499  10.954   7.577  0.2672  0.7585  0.3914
  185MOL0     O24296   6.560  11.078   7.585 -0.0354 -0.0560  0.0881
  185MOL0     C24297   6.502  11.203   7.545 -0.0102  0.4668  0.7737
  185MOL0     C24298   6.555  11.310   7.618 -0.0472 -0.3440  0.6281
  185MOL0     C24299   6.705  11.328   7.607  0.2981 -0.0718  0.1921
  185MOL0     C24300   6.748  11.436   7.716 -0.2102 -0.2905 -0.8351
  185MOL0     C24301   6.882  11.506   7.684 -0.9113  0.1879  1.1172
  185MOL0     C24302   6.884  11.591   7.549  0.1772  0.0103  0.8602
  185MOL0     C24303   7.019  11.659   7.550 -0.6080 -0.5123  0.1034
  185MOL0     C24304   7.022  11.774   7.448  1.0713 -0.3484  0.1456
  185MOL0     N24305   6.992  11.721   7.315 -0.2725 -0.9668  0.0950
  185MOL0     C24306   6.863  11.714   7.272 -0.6390 -0.2205  0.1303
  185MOL0     C24307   6.865  11.636   7.158 -0.6598  0.5348 -0.3123
  185MOL0     C24308   6.754  11.609   7.075  0.8691 -0.1268 -0.5527
  185MOL0     C24309   6.737  11.462   7.066 -0.9276  1.9689 -0.1888
  185MOL0     C24310   6.708  11.405   7.191 -0.9264 -0.7260 -0.5229
  185MOL0     C24311   6.652  11.270   7.182  0.6481  0.1906 -0.2543
  185MOL0     O24312   6.513  11.277   7.165 -0.3234  0.4994  1.0612
  185MOL0     C24313   6.435  11.166   7.181 -0.6630  0.2024  0.8856
  185MOL0     C24314   6.300  11.174   7.152  0.1030  0.0511  0.9660
  185MOL0     C24315   6.213  11.064   7.174 -0.2479 -0.6034  1.1909
  185MOL0     C24316   6.269  10.939   7.204  0.3597  0.5330 -0.8688
  185MOL0     C24317   6.177  10.817   7.211  0.3910 -0.1269 -0.6387
  185MOL0     O24318   6.231  10.696   7.216  0.5174  0.6311 -0.1041
  185MOL0     C24319   6.134  10.593   7.221 -0.0500  0.8624 -0.5576
  185MOL0     C24320   6.063  10.570   7.335  0.4159 -0.0880  0.0315
  185MOL0     C24321   5.967  10.458   7.347  0.0421 -0.4306  0.1365
  185MOL0     C24322   5.950  10.380   7.232  0.2337  0.3320 -0.0406
  185MOL0     O24323   5.864  10.274   7.234  0.2161  0.6444  0.2773
  185MOL0     C24324   5.774  10.243   7.334 -0.4396 -1.8230 -0.6720
  185MOL0     C24325   5.693  10.116   7.293  0.1122  0.8408 -0.7144
  185MOL0     C24326   5.599  10.144   7.178  0.1448 -0.9085  0.8979
  185MOL0     C24327   5.532  10.012   7.137 -1.0602  0.4731 -0.2967
  185MOL0     C24328   5.436  10.046   7.020 -0.8126  0.5294  0.0900
  185MOL0     C24329   5.315   9.957   7.009 -0.2043 -0.1303 -0.0995
  185MOL0     C24330   5.261   9.952   6.866 -0.1649  1.0604 -0.2895
  185MOL0     C24331   5.362   9.923   6.752  0.3103 -0.2029  0.0519
  185MOL0    Cl24332   5.290   9.913   6.589 -0.5312 -0.2361  0.0865
  185MOL0     C24333   6.019  10.409   7.108  0.1591 -0.3352  0.5468
  185MOL0     C24334   6.114  10.510   7.106  0.2053 -0.4396  0.5008
  185MOL0     O24335   6.061  10.848   7.215  0.3595  0.1793 -0.8167
  185MOL0     C24336   6.402  10.929   7.223 -0.1965 -0.3620 -0.0731
  185MOL0     C24337   6.490  11.044   7.220  0.0646 -0.2965  0.9240
  185MOL0     N24338   7.008  11.619   7.130  0.0525  0.9110 -0.7737
  185MOL0     N24339   7.079  11.659   7.227  1.3450  0.8860  0.1088
  185MOL0     C24340   6.366  10.928   7.537  0.0261  0.3016 -0.6174
  185MOL0     C24341   6.303  10.806   7.539 -0.2269  1.0799 -0.3525
  185MOL0     C24342   6.300  10.325   7.569 -0.4510  1.3072 -0.7782
  185MOL0     C24343   6.323  10.190   7.521  0.2192  0.2597 -0.3487
  185MOL0     C24344   6.239  10.083   7.572 -0.4962  0.3378  0.2424
  185MOL0     C24345   6.143  10.096   7.668  0.1350  0.0130 -1.2228
  185MOL0     O24346   6.053   9.992   7.704 -0.2436 -0.4127 -0.0882
  185MOL0     C24347   6.101   9.859   7.688 -0.3458 -0.0579  0.9749
  185MOL0     C24348   6.003   9.764   7.767 -0.1223  0.5596  0.2170
  185MOL0     C24349   5.854   9.776   7.737  0.8334 -0.5650 -0.2621
  185MOL0     C24350   5.813   9.777   7.593  0.9965  1.2187  1.2881
  185MOL0     C24351   5.666   9.810   7.563 -0.1982  0.5809 -0.7172
  185MOL0     C24352   5.552   9.814   7.518 -0.4567 -0.6938 -0.8345
  185MOL0     C24353   6.121  10.230   7.721 -0.4299  0.5638  0.4889
  185MOL0     C24354   6.191  10.338   7.662 -0.1037  0.4154 -0.0434
  185MOL0     H24355   6.593  10.632   7.613  0.6365 -0.5508 -0.6965
  185MOL0     H24356   6.689  10.860   7.640  0.4597 -0.9902 -1.2021
  185MOL0     H24357   6.395  11.204   7.569 -0.3264  2.2476 -0.5133
  185MOL0     H24358   6.507  11.214   7.437 -1.6871 -0.9462  0.5094
  185MOL0     H24359   6.520  11.306   7.722  2.1328  0.5932  1.4650
  185MOL0     H24360   6.506  11.399   7.577 -3.6692 -1.4056  2.2642
  185MOL0     H24361   6.748  11.351   7.509 -0.1479 -3.5500 -0.9302
  185MOL0     H24362   6.754  11.235   7.636  2.3097  0.8365 -0.0770
  185MOL0     H24363   6.686  11.525   7.711 -0.4987 -0.5404 -1.9310
  185MOL0     H24364   6.743  11.392   7.816  0.1420  0.3881 -0.5135
  185MOL0     H24365   6.970  11.441   7.675  0.0647  1.7157 -1.5259
  185MOL0     H24366   6.917  11.564   7.770 -1.2049  0.6808  0.9021
  185MOL0     H24367   6.808  11.669   7.535  0.2736 -0.2227 -1.4733
  185MOL0     H24368   6.878  11.518   7.468  0.2827 -1.3321  2.0347
  185MOL0     H24369   7.041  11.685   7.654  0.0584 -2.9823  0.6552
  185MOL0     H24370   7.105  11.597   7.523 -1.6672 -2.4275  0.9203
  185MOL0     H24371   7.114  11.833   7.443 -0.3112  1.8235 -2.2136
  185MOL0     H24372   6.949  11.846   7.485 -1.0614 -1.8527 -0.9369
  185MOL0     H24373   6.782  11.742   7.338 -0.5267 -0.2095  0.2637
  185MOL0     H24374   6.768  11.650   6.974  2.7833 -0.8713 -0.6313
  185MOL0     H24375   6.667  11.665   7.112  1.0731 -1.2924  1.8797
  185MOL0     H24376   6.836  11.423   7.040 -0.4602  1.4772  2.0809
  185MOL0     H24377   6.658  11.439   6.994 -1.1876 -3.6092  1.4016
  185MOL0     H24378   6.796  11.411   7.254 -1.4323  2.7837  0.0549
  185MOL0     H24379   6.639  11.461   7.255 -3.0827  0.4801 -3.6626
  185MOL0     H24380   6.686  11.216   7.271  0.4613 -3.4818 -2.1753
  185MOL0     H24381   6.695  11.216   7.097  3.5009  3.1709 -0.9098
  185MOL0     H24382   6.267  11.274   7.125 -0.9599 -0.1858  1.3501
  185MOL0     H24383   6.112  11.097   7.154 -0.3952  0.4363  3.3678
  185MOL0     H24384   6.084  10.643   7.413  0.4434  2.2399 -2.0288
  185MOL0     H24385   5.906  10.435   7.434 -2.5852  0.4635 -1.3717
  185MOL0     H24386   5.702  10.324   7.347  1.0257 -0.3551 -1.4180
  185MOL0     H24387   5.819  10.221   7.431 -0.6695 -0.2956 -0.1928
  185MOL0     H24388   5.629  10.090   7.378  0.5790  0.5282 -0.4530
  185MOL0     H24389   5.765  10.036   7.272 -0.4532 -0.5279  2.0181
  185MOL0     H24390   5.650  10.189   7.093 -0.3062  0.5228  1.3400
  185MOL0     H24391   5.526  10.223   7.200 -0.4080 -0.8228 -1.0459
  185MOL0     H24392   5.607   9.935   7.116 -0.2229  1.0846  0.3647
  185MOL0     H24393   5.461   9.991   7.218 -3.3372  1.3996 -1.9302
  185MOL0     H24394   5.495  10.043   6.928 -2.3624  0.3198 -0.9276
  185MOL0     H24395   5.386  10.144   7.028 -1.9841 -0.1552  1.8162
  185MOL0     H24396   5.245  10.005   7.079 -1.5095  1.6815 -2.4816
  185MOL0     H24397   5.347   9.861   7.048  0.9537  1.4078  3.0727
  185MOL0     H24398   5.190   9.870   6.879 -2.1608  2.9604  1.7875
  185MOL0     H24399   5.203  10.043   6.847  1.1868  1.6392 -1.8341
  185MOL0     H24400   5.413   9.832   6.784  1.9554  1.9158  4.2258
  185MOL0     H24401   5.448   9.989   6.744 -0.4696  0.9630  0.9017
  185MOL0     H24402   6.012  10.351   7.017  1.0917 -0.0784  0.2949
  185MOL0     H24403   6.172  10.526   7.016  2.7412 -1.8171  1.7707
  185MOL0     H24404   6.462  10.840   7.241  4.5669  2.3488 -1.0304
  185MOL0     H24405   6.592  11.028   7.253  0.4886  1.6207  0.6466
  185MOL0     H24406   6.313  11.021   7.519  1.6256  1.4888  0.4751
  185MOL0     H24407   6.196  10.793   7.523 -0.3416 -0.1016  1.1657
  185MOL0     H24408   6.412  10.164   7.465 -0.4127  1.1467 -1.8016
  185MOL0     H24409   6.252   9.989   7.518 -1.0646  0.8715 -0.8503
  185MOL0     H24410   6.199   9.849   7.736 -0.6854  0.3862  1.7746
  185MOL0     H24411   6.105   9.838   7.580 -3.0780 -1.7789  1.1298
  185MOL0     H24412   6.032   9.664   7.733 -0.8246  0.3084  0.3431
  185MOL0     H24413   6.034   9.771   7.872  1.2544  2.1903 -0.2592
  185MOL0     H24414   5.810   9.866   7.781 -2.4183 -1.0423 -2.2679
  185MOL0     H24415   5.800   9.701   7.794  2.6969 -1.6477  0.1805
  185MOL0     H24416   5.874   9.843   7.530  0.0259  1.7605  0.8863
  185MOL0     H24417   5.827   9.676   7.553  0.3188  1.8590 -0.6731
  185MOL0     H24418   5.455   9.847   7.486  0.2870  1.2189 -1.2249
  185MOL0     H24419   6.034  10.240   7.785  0.6749  2.8404  1.7671
  185MOL0     H24420   6.175  10.436   7.706  1.6548  0.2440  1.0940
  186MOL0     O24421   7.664   9.588   1.667 -0.8017 -0.0147  0.2047
  186MOL0     C24422   7.688   9.571   1.787  0.5531 -0.2903  0.4755
  186MOL0     O24423   7.767   9.646   1.859  0.1784 -0.1959  0.1245
  186MOL0     C24424   7.869   9.730   1.814  0.4756 -0.8769 -0.1915
  186MOL0     C24425   7.886   9.790   1.688  1.0991 -0.6448 -0.1723
  186MOL0     C24426   7.991   9.885   1.665 -0.0289 -1.0482  0.6584
  186MOL0     C24427   8.086   9.917   1.768 -0.2662 -0.4769  0.3423
  186MOL0     O24428   8.182  10.005   1.715  0.1839  0.0389 -0.7077
  186MOL0     C24429   8.309  10.032   1.767 -0.1694 -0.6962 -0.0471
  186MOL0     C24430   8.405  10.044   1.657  0.8134 -0.0911 -0.0217
  186MOL0     C24431   8.543   9.985   1.690 -0.1341 -0.0161  0.3921
  186MOL0     C24432   8.629   9.951   1.555  0.1140 -0.5961  0.0647
  186MOL0     C24433   8.750   9.862   1.563 -0.6774 -1.1867  0.4089
  186MOL0     C24434   8.866   9.951   1.619  0.4356 -0.0557  0.1346
  186MOL0     C24435   8.868   9.977   1.775 -0.6180  0.3903 -0.6936
  186MOL0     C24436   9.014  10.004   1.805 -0.1346  0.0297 -0.3078
  186MOL0     N24437   9.036  10.067   1.940  0.2433  0.0074 -0.0886
  186MOL0     C24438   9.007  10.199   1.964  0.2618  0.3374  1.7934
  186MOL0     C24439   9.032  10.218   2.087 -0.7838  0.1142 -0.4602
  186MOL0     C24440   9.017  10.349   2.163  0.5904 -0.1441  1.0248
  186MOL0     C24441   8.879  10.369   2.227 -0.5292  0.9206  0.6794
  186MOL0     C24442   8.906  10.466   2.342  0.1343  0.4633  0.0499
  186MOL0     C24443   8.939  10.378   2.468 -0.0351 -1.4132  0.5583
  186MOL0     O24444   9.002  10.439   2.589  0.1053  0.2825  0.2041
  186MOL0     C24445   8.918  10.488   2.683  0.7984  0.1869 -0.6568
  186MOL0     C24446   8.779  10.468   2.689 -0.2451 -0.8531  0.8920
  186MOL0     C24447   8.698  10.534   2.787 -0.2003 -0.5146  0.0840
  186MOL0     C24448   8.762  10.631   2.872  0.6815  0.0920 -0.0277
  186MOL0     C24449   8.683  10.712   2.970  0.5547  0.6109  0.3417
  186MOL0     O24450   8.543  10.716   2.950  0.3548  0.4087 -0.1883
  186MOL0     C24451   8.459  10.772   3.038 -0.6839  0.3157  0.8629
  186MOL0     C24452   8.484  10.816   3.168  0.3144  0.0702  0.6633
  186MOL0     C24453   8.378  10.873   3.238 -0.0262 -0.3025  0.1114
  186MOL0     C24454   8.249  10.883   3.190 -0.3482  0.8689 -0.9837
  186MOL0     O24455   8.160  10.944   3.274 -0.5289  0.0509  0.1997
  186MOL0     C24456   8.114  11.073   3.228  0.8179 -0.0046  0.0146
  186MOL0     C24457   8.072  11.155   3.354  0.5892 -0.5582  0.1100
  186MOL0     C24458   7.947  11.103   3.435  0.2536  1.5626 -0.4798
  186MOL0     C24459   7.815  11.137   3.355 -0.0800  0.8769 -0.4986
  186MOL0     C24460   7.704  11.068   3.441  0.0946 -0.2071 -1.7569
  186MOL0     C24461   7.562  11.105   3.385  0.2478  0.2639  0.3256
  186MOL0     C24462   7.442  11.082   3.484 -0.3037 -0.3401 -0.0110
  186MOL0     C24463   7.398  10.936   3.470  0.1107 -0.6041  0.2615
  186MOL0    Cl24464   7.461  10.829   3.604 -0.2629  0.0717 -0.1873
  186MOL0     C24465   8.227  10.841   3.055 -0.4061  0.9854  0.1688
  186MOL0     C24466   8.331  10.775   2.983 -0.2211  0.7224 -0.7321
  186MOL0     O24467   8.746  10.776   3.050 -0.3721 -0.2988 -0.1013
  186MOL0     C24468   8.895  10.655   2.855  0.0471 -0.2044 -0.4042
  186MOL0     C24469   8.974  10.581   2.778 -0.6092  0.5957  0.6025
  186MOL0     N24470   9.098  10.107   2.150 -0.2178 -0.2582 -0.5739
  186MOL0     N24471   9.097  10.019   2.049 -0.2884  0.9922 -0.9528
  186MOL0     C24472   8.067   9.857   1.891  0.0389 -0.2986  0.0846
  186MOL0     C24473   7.964   9.771   1.909 -1.2462  0.9426 -1.2438
  186MOL0     C24474   7.627   9.461   1.861  0.3015 -0.0728 -0.1829
  186MOL0     C24475   7.632   9.453   2.002  0.0726  0.1724  0.4131
  186MOL0     C24476   7.559   9.349   2.064 -0.6748 -0.3331 -0.6063
  186MOL0     C24477   7.492   9.249   1.991 -0.8014  0.6715  0.2399
  186MOL0     O24478   7.419   9.152   2.050  0.0382 -0.4424  0.9071
  186MOL0     C24479   7.437   9.122   2.192  0.3849  0.3971  0.4831
  186MOL0     C24480   7.363   8.993   2.223 -0.6024 -0.3667  1.7787
  186MOL0     C24481   7.448   8.864   2.203  0.2773  0.4763  0.2347
  186MOL0     C24482   7.340   8.745   2.194 -0.5592 -1.3122  0.2784
  186MOL0     C24483   7.390   8.611   2.217 -0.9846 -0.1478  0.4610
  186MOL0     C24484   7.437   8.501   2.243  0.4817 -0.2630 -0.6060
  186MOL0     C24485   7.487   9.263   1.849 -0.2976  0.0961 -0.5995
  186MOL0     C24486   7.554   9.372   1.788  0.0502 -0.5073 -0.4806
  186MOL0     H24487   7.805   9.783   1.615  2.7601  1.8754 -2.4478
  186MOL0     H24488   8.000   9.940   1.572  0.5381 -1.1404  0.6545
  186MOL0     H24489   8.345   9.959   1.840  1.3860  1.6170  1.6352
  186MOL0     H24490   8.298  10.125   1.824  1.0137 -0.9251  0.5941
  186MOL0     H24491   8.409  10.149   1.628 -2.3823 -0.0020 -0.4788
  186MOL0     H24492   8.362   9.997   1.568 -1.5781 -1.5537  1.7567
  186MOL0     H24493   8.546   9.899   1.757  2.3400  1.0540  1.7910
  186MOL0     H24494   8.600  10.058   1.748  1.6638 -1.5175  0.6107
  186MOL0     H24495   8.572   9.882   1.493  0.9990 -1.2458 -0.0465
  186MOL0     H24496   8.651  10.037   1.491  3.6741 -1.2265  0.2328
  186MOL0     H24497   8.773   9.816   1.466 -1.3507 -0.6368 -0.0176
  186MOL0     H24498   8.729   9.777   1.629 -2.5105 -0.7041  0.4897
  186MOL0     H24499   8.864  10.047   1.567 -1.1087 -0.3121 -0.3253
  186MOL0     H24500   8.959   9.897   1.599  0.4656  0.6507 -1.8732
  186MOL0     H24501   8.810  10.061   1.815  2.1893  1.6255  1.1958
  186MOL0     H24502   8.846   9.879   1.818  6.7119 -1.6317 -0.0672
  186MOL0     H24503   9.055  10.071   1.729  0.5915 -0.3734 -0.2856
  186MOL0     H24504   9.079   9.916   1.801  2.0283  1.5479  0.0637
  186MOL0     H24505   8.964  10.278   1.903 -0.1970 -0.5172  0.9920
  186MOL0     H24506   9.040  10.428   2.091  0.8095 -1.1394 -0.0093
  186MOL0     H24507   9.101  10.357   2.234  3.7143  4.0386 -2.5702
  186MOL0     H24508   8.830  10.275   2.256 -4.1469  2.5067  0.2429
  186MOL0     H24509   8.823  10.411   2.143  2.5232  3.4025 -0.3120
  186MOL0     H24510   8.977  10.543   2.314  0.5616 -0.0318 -0.2372
  186MOL0     H24511   8.819  10.528   2.367  2.7903  3.8383  1.6716
  186MOL0     H24512   9.019  10.311   2.436 -1.0065 -3.5232  2.2809
  186MOL0     H24513   8.853  10.314   2.492 -1.1278  0.3530  1.6228
  186MOL0     H24514   8.737  10.391   2.626 -0.8918  1.4536 -1.7052
  186MOL0     H24515   8.591  10.514   2.788 -0.1700 -0.8075 -1.0508
  186MOL0     H24516   8.580  10.809   3.218  0.0625 -2.2585  0.9454
  186MOL0     H24517   8.392  10.911   3.338 -0.1011  1.0034 -0.3515
  186MOL0     H24518   8.031  11.070   3.157 -0.8791  2.2234  1.7246
  186MOL0     H24519   8.202  11.123   3.185  1.7000 -2.1941 -0.8243
  186MOL0     H24520   8.047  11.253   3.311 -0.5417 -0.4961  0.8650
  186MOL0     H24521   8.159  11.155   3.421  0.4985 -4.2577  0.4308
  186MOL0     H24522   7.928  11.144   3.535 -2.6935 -0.6594  0.0088
  186MOL0     H24523   7.959  10.996   3.456  2.7872  1.5861 -1.5038
  186MOL0     H24524   7.803  11.244   3.337  1.4819  1.7056  2.6542
  186MOL0     H24525   7.819  11.096   3.254  5.5545  1.9766 -1.0456
  186MOL0     H24526   7.711  11.105   3.544 -0.7177 -4.2032 -0.0891
  186MOL0     H24527   7.710  10.959   3.450  1.3332  0.0102  3.4688
  186MOL0     H24528   7.551  11.063   3.284 -1.7465 -0.4557  0.8048
  186MOL0     H24529   7.559  11.212   3.362 -2.4189 -0.4648 -3.7974
  186MOL0     H24530   7.468  11.104   3.588 -2.4203 -3.4216  1.3338
  186MOL0     H24531   7.360  11.147   3.453 -0.2522  0.5897  1.7197
  186MOL0     H24532   7.410  10.909   3.365  1.7545  2.4421 -0.4791
  186MOL0     H24533   7.289  10.946   3.470 -0.3012 -2.9725 -3.7975
  186MOL0     H24534   8.130  10.842   3.006 -0.5956  1.3102  0.5480
  186MOL0     H24535   8.312  10.736   2.884  0.0192 -3.2649  0.6331
  186MOL0     H24536   8.930  10.729   2.926 -3.8775  0.1069  1.4777
  186MOL0     H24537   9.079  10.608   2.781 -0.1698 -1.0191  0.9433
  186MOL0     H24538   8.139   9.876   1.970 -1.3971  0.1313  1.3268
  186MOL0     H24539   7.968   9.727   2.008  0.1872 -0.4143 -1.8525
  186MOL0     H24540   7.684   9.525   2.065  4.4731 -2.9783  0.8526
  186MOL0     H24541   7.554   9.349   2.172 -0.4643 -2.3864 -0.5682
  186MOL0     H24542   7.398   9.196   2.263 -2.7425 -1.4795  0.8753
  186MOL0     H24543   7.544   9.105   2.209  0.0264 -0.1635  2.4547
  186MOL0     H24544   7.339   8.985   2.330 -3.6512  2.3694  1.4805
  186MOL0     H24545   7.269   8.985   2.166  0.2019 -1.6755  0.5708
  186MOL0     H24546   7.509   8.838   2.290 -0.4060 -0.9761  0.3136
  186MOL0     H24547   7.512   8.867   2.114  0.7923  0.4189  0.5980
  186MOL0     H24548   7.262   8.775   2.264  0.5969  2.9756 -0.0192
  186MOL0     H24549   7.305   8.738   2.091 -0.2026 -3.4607  0.2565
  186MOL0     H24550   7.484   8.404   2.245 -0.7113 -0.8519  0.5995
  186MOL0     H24551   7.427   9.189   1.796  0.0478 -2.1946  2.0003
  186MOL0     H24552   7.557   9.376   1.680  1.5235 -1.7726 -0.5196
  187MOL0     O24553   2.905   3.921   9.202  0.4923  0.0281  0.4810
  187MOL0     C24554   2.820   3.881   9.273 -0.6747  0.5460 -0.4616
  187MOL0     O24555   2.826   3.763   9.335 -0.5622 -0.0712  0.8472
  187MOL0     C24556   2.947   3.703   9.344 -0.0141 -0.6175 -0.2469
  187MOL0     C24557   3.053   3.776   9.406 -0.3845 -0.4417 -0.0486
  187MOL0     C24558   3.176   3.711   9.443  0.7401 -0.7965  0.4361
  187MOL0     C24559   3.191   3.578   9.421  0.0241  0.2683  0.4146
  187MOL0     O24560   3.296   3.500   9.474  0.7977 -0.1133  0.2968
  187MOL0     C24561   3.406   3.573   9.530 -0.1753 -0.2682 -0.5815
  187MOL0     C24562   3.529   3.487   9.560  0.0016 -0.0232  0.3366
  187MOL0     C24563   3.589   3.422   9.427 -0.0970 -0.1826  0.1327
  187MOL0     C24564   3.607   3.527   9.312  0.5098  0.1129 -0.2399
  187MOL0     C24565   3.670   3.455   9.198 -0.7719 -0.1086 -0.5059
  187MOL0     C24566   3.718   3.536   9.085 -0.5579 -0.1435  0.8142
  187MOL0     C24567   3.792   3.438   8.987 -0.9534 -0.2001 -0.0100
  187MOL0     C24568   3.936   3.481   8.953  0.1954 -0.2467 -0.2542
  187MOL0     N24569   3.938   3.592   8.867  0.0342  0.3822 -0.2517
  187MOL0     C24570   3.910   3.596   8.731 -0.9543 -0.6732  0.5121
  187MOL0     C24571   3.903   3.731   8.699 -0.3585  0.6525 -0.8082
  187MOL0     C24572   3.868   3.790   8.573 -0.5888  0.6929 -0.0656
  187MOL0     C24573   3.990   3.821   8.486  0.7191  0.1781 -0.4401
  187MOL0     C24574   4.014   3.968   8.484 -0.8614  0.5764  0.4548
  187MOL0     C24575   4.055   4.034   8.611 -0.4811  0.5431  0.0140
  187MOL0     O24576   4.101   4.170   8.573 -0.0396  0.2233  0.0070
  187MOL0     C24577   4.146   4.259   8.668  0.4860 -0.8440  0.4905
  187MOL0     C24578   4.119   4.255   8.807  0.0698 -0.4831 -0.6854
  187MOL0     C24579   4.182   4.354   8.889  0.0500  0.1955  0.0829
  187MOL0     C24580   4.263   4.460   8.846  0.5821  0.8370 -0.0324
  187MOL0     C24581   4.337   4.546   8.942  0.9708  0.1577 -0.0053
  187MOL0     O24582   4.299   4.554   9.073  0.0373 -0.1216 -0.1347
  187MOL0     C24583   4.354   4.641   9.168  0.6250 -0.6476  1.0787
  187MOL0     C24584   4.463   4.734   9.145  0.6962  0.0862  0.1380
  187MOL0     C24585   4.505   4.827   9.241  1.0569 -0.7383 -0.8296
  187MOL0     C24586   4.450   4.835   9.364  0.3342  0.1178  0.2475
  187MOL0     O24587   4.487   4.928   9.461 -0.2323  1.1155  0.4309
  187MOL0     C24588   4.535   4.899   9.584  0.5780 -0.2431 -0.2537
  187MOL0     C24589   4.633   5.002   9.651  1.1472  1.2074  0.3363
  187MOL0     C24590   4.596   5.139   9.603 -0.0254 -0.0593  0.1188
  187MOL0     C24591   4.662   5.263   9.665  0.1843 -0.0723  0.2599
  187MOL0     C24592   4.579   5.389   9.626 -0.7707 -0.0412  0.0334
  187MOL0     C24593   4.601   5.506   9.719 -0.2654  0.2145 -0.1350
  187MOL0     C24594   4.511   5.624   9.692 -0.4101  0.8861 -0.7035
  187MOL0     C24595   4.480   5.681   9.827  1.0797 -0.6799  0.0619
  187MOL0    Cl24596   4.372   5.584   9.935  0.3469  0.1367  0.6921
  187MOL0     C24597   4.350   4.735   9.397  0.5095  0.6696 -0.4669
  187MOL0     C24598   4.304   4.646   9.296  0.2318  0.0481 -0.1814
  187MOL0     O24599   4.434   4.601   8.890 -0.4195 -0.0009  0.9331
  187MOL0     C24600   4.281   4.464   8.703  1.3214  0.3075  0.1124
  187MOL0     C24601   4.229   4.366   8.621 -0.1629  0.5977  0.0137
  187MOL0     N24602   3.935   3.802   8.810 -0.0109 -0.4501  0.7161
  187MOL0     N24603   3.941   3.722   8.911 -0.8580 -0.0780  0.0499
  187MOL0     C24604   3.095   3.509   9.350  1.0321 -0.3699  0.0809
  187MOL0     C24605   2.970   3.562   9.318 -0.0614  0.0341 -0.4424
  187MOL0     C24606   2.699   3.959   9.288  0.5323  0.7524 -0.0504
  187MOL0     C24607   2.577   3.899   9.320  0.2204  0.3018 -0.5578
  187MOL0     C24608   2.458   3.974   9.344  0.4614 -0.7327 -0.3508
  187MOL0     C24609   2.465   4.112   9.333  0.2240  0.3071  0.3297
  187MOL0     O24610   2.370   4.200   9.343 -0.5748  0.5325 -0.1164
  187MOL0     C24611   2.243   4.168   9.402  0.0531 -0.2586  0.9517
  187MOL0     C24612   2.259   4.181   9.551 -0.2954  0.0093 -0.0836
  187MOL0     C24613   2.310   4.319   9.589 -0.9101 -0.5045  0.0267
  187MOL0     C24614   2.292   4.339   9.740 -0.2412  0.2470  0.6271
  187MOL0     C24615   2.366   4.449   9.803 -0.1438 -0.2888  1.2203
  187MOL0     C24616   2.422   4.545   9.851  0.6083  0.6873 -1.3605
  187MOL0     C24617   2.581   4.172   9.294 -0.4170 -0.6072 -0.0455
  187MOL0     C24618   2.699   4.103   9.279  0.7660 -0.7904  0.7955
  187MOL0     H24619   3.047   3.882   9.428 -3.6507 -0.4657 -0.3864
  187MOL0     H24620   3.247   3.780   9.489  0.5434  0.3422 -0.8777
  187MOL0     H24621   3.368   3.618   9.622  1.7281 -0.5294  0.3885
  187MOL0     H24622   3.432   3.663   9.474  1.2492 -0.0656  0.3571
  187MOL0     H24623   3.498   3.422   9.642 -1.5931  2.2570  1.6519
  187MOL0     H24624   3.608   3.547   9.605 -0.5611  0.2264  1.0086
  187MOL0     H24625   3.525   3.342   9.388 -2.8787  2.3564 -0.8850
  187MOL0     H24626   3.689   3.384   9.451 -0.7916 -0.8593  2.1225
  187MOL0     H24627   3.513   3.574   9.284 -0.8044 -0.1065  3.3396
  187MOL0     H24628   3.685   3.596   9.345  3.6003 -2.1095 -2.2990
  187MOL0     H24629   3.609   3.367   9.173  2.3254 -2.8224  0.6991
  187MOL0     H24630   3.765   3.425   9.244 -0.1511  2.0356 -0.3120
  187MOL0     H24631   3.795   3.610   9.107  0.5621 -0.5683 -1.3576
  187MOL0     H24632   3.633   3.587   9.039 -0.0034 -1.2883 -1.6583
  187MOL0     H24633   3.803   3.336   9.024 -1.2521  0.4181  1.9054
  187MOL0     H24634   3.726   3.434   8.900 -1.2996  3.0439 -0.0415
  187MOL0     H24635   3.982   3.396   8.903 -0.6633 -1.0051  0.2069
  187MOL0     H24636   4.003   3.496   9.038  2.2978  1.6469 -2.1220
  187MOL0     H24637   3.889   3.509   8.669 -4.5143 -0.1831  0.8279
  187MOL0     H24638   3.819   3.884   8.599  1.9854  2.0261  0.2946
  187MOL0     H24639   3.806   3.713   8.526 -0.0844  0.2530 -0.0249
  187MOL0     H24640   3.965   3.782   8.386 -0.0212 -1.0972  0.2172
  187MOL0     H24641   4.084   3.777   8.520  1.8192  3.6008  1.3955
  187MOL0     H24642   4.091   3.997   8.411  0.4063 -2.5391  0.3962
  187MOL0     H24643   3.927   4.016   8.438  1.1649  1.1131 -3.2380
  187MOL0     H24644   4.142   3.988   8.660 -1.1499 -1.0165 -0.1987
  187MOL0     H24645   3.970   4.029   8.680 -0.3592 -1.2454  0.0877
  187MOL0     H24646   4.060   4.175   8.850 -4.2127  2.2468 -0.9031
  187MOL0     H24647   4.156   4.342   8.994 -0.5899 -0.1321 -0.1115
  187MOL0     H24648   4.522   4.745   9.054  0.0238 -1.0451 -0.4563
  187MOL0     H24649   4.565   4.909   9.204  0.8868  0.1801  0.8106
  187MOL0     H24650   4.579   4.799   9.583  0.1522 -0.4410 -1.7349
  187MOL0     H24651   4.443   4.881   9.640  0.9084 -1.6003 -0.1185
  187MOL0     H24652   4.731   4.973   9.612 -1.1747 -2.4357 -3.6563
  187MOL0     H24653   4.647   4.998   9.759  1.7032  6.3754  0.6921
  187MOL0     H24654   4.490   5.145   9.626  0.0582 -1.4135  0.9952
  187MOL0     H24655   4.613   5.145   9.495  1.6468  0.2859  0.3713
  187MOL0     H24656   4.647   5.237   9.770  1.4430  1.8497  0.9737
  187MOL0     H24657   4.767   5.277   9.638  0.7203  0.2585  2.3351
  187MOL0     H24658   4.473   5.364   9.634 -0.6358 -0.4821  0.4761
  187MOL0     H24659   4.613   5.403   9.523 -0.6627 -2.6605 -0.3385
  187MOL0     H24660   4.702   5.545   9.730 -1.6678  3.5268  3.2640
  187MOL0     H24661   4.578   5.468   9.820 -1.2593  2.1814  0.4323
  187MOL0     H24662   4.575   5.683   9.625  2.8644 -1.3622  0.1863
  187MOL0     H24663   4.430   5.589   9.628 -1.1130  1.1144  0.0476
  187MOL0     H24664   4.430   5.776   9.804  0.7829 -1.1173 -1.1437
  187MOL0     H24665   4.569   5.692   9.890  3.7803  1.3538 -3.6985
  187MOL0     H24666   4.282   4.738   9.482  0.4210  0.5147 -0.5301
  187MOL0     H24667   4.217   4.592   9.332  0.5689 -1.7676 -1.9045
  187MOL0     H24668   4.350   4.529   8.650 -0.5909  2.9850  0.7018
  187MOL0     H24669   4.250   4.360   8.515  1.2368 -0.0073  0.3092
  187MOL0     H24670   3.096   3.403   9.328 -2.0349 -0.0690 -2.1489
  187MOL0     H24671   2.893   3.492   9.288  0.8648 -1.5428  0.7167
  187MOL0     H24672   2.587   3.791   9.322 -0.2202  0.2259 -1.7815
  187MOL0     H24673   2.370   3.913   9.364  0.0112 -0.8692 -2.4717
  187MOL0     H24674   2.192   4.074   9.381 -4.7814  2.0888  0.7792
  187MOL0     H24675   2.173   4.246   9.369  1.2662 -0.2107 -1.8742
  187MOL0     H24676   2.164   4.169   9.604  0.9064 -1.9760  1.8012
  187MOL0     H24677   2.331   4.103   9.578 -1.7129 -1.5432 -0.5852
  187MOL0     H24678   2.254   4.388   9.525 -0.7628 -0.5153 -0.1147
  187MOL0     H24679   2.415   4.324   9.559 -0.6279  1.4989  1.2184
  187MOL0     H24680   2.191   4.374   9.764  0.2307  0.3039  2.6825
  187MOL0     H24681   2.315   4.243   9.787  0.6040 -0.5146 -1.2359
  187MOL0     H24682   2.495   4.620   9.874  1.9879 -1.0160  0.0838
  187MOL0     H24683   2.585   4.279   9.316 -5.5429 -0.0312 -0.7865
  187MOL0     H24684   2.796   4.152   9.278 -0.0159  0.8721 -1.6856
  188MOL0     O24685   0.183   0.758   6.937  0.1126  1.0551  0.1199
  188MOL0     C24686   0.303   0.769   6.963 -0.7048 -0.9654 -0.0664
  188MOL0     O24687   0.410   0.803   6.888 -0.3130 -0.5091 -0.1389
  188MOL0     C24688   0.374   0.901   6.792  0.0098 -0.9070 -0.0449
  188MOL0     C24689   0.395   0.870   6.659 -0.8217 -0.7078 -0.3380
  188MOL0     C24690   0.364   0.967   6.552 -0.5956 -0.4461  0.2027
  188MOL0     C24691   0.324   1.086   6.591  0.7895 -0.7038 -0.2602
  188MOL0     O24692   0.308   1.172   6.486  0.7333 -0.5822 -0.6842
  188MOL0     C24693   0.429   1.236   6.436 -0.4655  0.2684  0.3883
  188MOL0     C24694   0.447   1.359   6.511 -0.9201 -0.6137 -0.6368
  188MOL0     C24695   0.328   1.451   6.505 -0.2000  0.0838 -0.8599
  188MOL0     C24696   0.342   1.575   6.593  0.2903  0.0353  0.2437
  188MOL0     C24697   0.413   1.561   6.729 -0.6363 -0.5184 -0.0256
  188MOL0     C24698   0.411   1.692   6.794  0.4006 -0.6143  0.3520
  188MOL0     C24699   0.489   1.705   6.926  0.6612 -0.2411  0.4211
  188MOL0     C24700   0.498   1.849   6.978  0.8919 -0.5746 -0.3570
  188MOL0     N24701   0.363   1.918   6.986 -0.2938 -0.0803 -0.1370
  188MOL0     C24702   0.258   1.880   7.075 -0.5738 -0.5325  0.3114
  188MOL0     C24703   0.144   1.939   7.020 -0.7176 -0.2778 -0.2716
  188MOL0     C24704   0.004   1.919   7.057  0.7671 -0.3150 -0.1186
  188MOL0     C24705  -0.020   1.961   7.202 -0.1842  0.0732  0.1305
  188MOL0     C24706  -0.166   1.977   7.246  0.5283 -0.2709  0.3294
  188MOL0     C24707  -0.193   2.053   7.379 -0.0582  1.0997  0.5845
  188MOL0     O24708  -0.328   2.038   7.430  0.0692  0.8096  1.1589
  188MOL0     C24709  -0.351   2.109   7.542 -0.8493  0.5592 -0.5262
  188MOL0     C24710  -0.359   2.046   7.659 -0.4773 -0.5781 -0.1866
  188MOL0     C24711  -0.364   2.100   7.788  1.3011 -1.3527  0.4991
  188MOL0     C24712  -0.333   2.241   7.798  0.3276  0.1862 -0.1413
  188MOL0     C24713  -0.325   2.303   7.932  0.1176 -0.2376 -0.7242
  188MOL0     O24714  -0.315   2.449   7.938 -0.6046  0.7585  0.8440
  188MOL0     C24715  -0.303   2.508   8.059  0.1798 -0.5131 -0.7033
  188MOL0     C24716  -0.417   2.568   8.128 -1.1593  0.1107  0.0629
  188MOL0     C24717  -0.395   2.615   8.253  0.1262 -0.3934  0.3433
  188MOL0     C24718  -0.281   2.588   8.331 -0.0453  0.8855  1.3166
  188MOL0     O24719  -0.275   2.632   8.460 -0.2921 -0.1214  0.7552
  188MOL0     C24720  -0.313   2.536   8.558  0.5612  0.4301  0.4933
  188MOL0     C24721  -0.453   2.569   8.606  0.7972  0.5737 -0.7927
  188MOL0     C24722  -0.462   2.688   8.704  0.4177  0.1958  0.4203
  188MOL0     C24723  -0.432   2.638   8.851 -0.6345 -0.0213  0.1499
  188MOL0     C24724  -0.444   2.758   8.948  0.2230 -1.1871  0.6948
  188MOL0     C24725  -0.311   2.842   8.977 -0.9807 -0.9835 -0.3839
  188MOL0     C24726  -0.352   2.996   8.997  0.2819  0.5181 -0.4610
  188MOL0     C24727  -0.237   3.096   9.028  0.0709 -0.5024 -0.5600
  188MOL0    Cl24728  -0.161   3.062   9.183 -0.3564  0.0961  0.4175
  188MOL0     C24729  -0.171   2.513   8.271  0.8787 -0.1183  0.7965
  188MOL0     C24730  -0.187   2.482   8.136  0.6302  0.0627  0.5711
  188MOL0     O24731  -0.349   2.236   8.030  0.1174  0.3849 -0.1659
  188MOL0     C24732  -0.329   2.309   7.677  0.1598  0.0091  0.3881
  188MOL0     C24733  -0.330   2.246   7.552  0.3373 -0.7865  0.4839
  188MOL0     N24734   0.184   1.999   6.902 -0.1630  0.0501  0.8808
  188MOL0     N24735   0.318   1.997   6.887  0.3740 -0.2596 -0.3625
  188MOL0     C24736   0.300   1.123   6.726  0.0537 -0.7311 -1.3099
  188MOL0     C24737   0.329   1.029   6.828  0.1354  0.2782 -0.1193
  188MOL0     C24738   0.344   0.716   7.098 -0.0141  0.2699 -0.1443
  188MOL0     C24739   0.479   0.721   7.138 -0.3590 -0.9385  0.0379
  188MOL0     C24740   0.513   0.684   7.263 -0.6438  0.1748 -0.6430
  188MOL0     C24741   0.421   0.636   7.359  0.2878  0.6377  0.7054
  188MOL0     O24742   0.449   0.633   7.491  0.7447  0.0966  0.9909
  188MOL0     C24743   0.449   0.506   7.549  0.3495  0.1972  0.3609
  188MOL0     C24744   0.329   0.472   7.643  0.3279  0.2103  0.0387
  188MOL0     C24745   0.344   0.328   7.690  0.4828 -0.6307  0.7903
  188MOL0     C24746   0.463   0.301   7.783  0.5555  0.5724  0.3107
  188MOL0     C24747   0.449   0.360   7.924 -0.4692 -0.1671 -0.0199
  188MOL0     C24748   0.440   0.393   8.043 -0.0914  0.5049  0.4455
  188MOL0     C24749   0.283   0.639   7.324 -0.8811  0.0499 -0.3774
  188MOL0     C24750   0.245   0.676   7.196  1.0209 -0.1322  0.4363
  188MOL0     H24751   0.442   0.773   6.649 -2.3034 -1.3650 -1.2908
  188MOL0     H24752   0.386   0.936   6.450  0.4392 -0.2370  0.3572
  188MOL0     H24753   0.415   1.249   6.328 -1.6807  4.1658  0.8311
  188MOL0     H24754   0.516   1.175   6.459 -1.2807 -0.3965  1.8240
  188MOL0     H24755   0.530   1.418   6.472 -0.4577 -1.4446 -0.9191
  188MOL0     H24756   0.463   1.327   6.615 -2.2227  3.1352  0.9130
  188MOL0     H24757   0.244   1.390   6.539  1.0709 -1.2449  0.0137
  188MOL0     H24758   0.318   1.482   6.401  0.3998 -1.3253 -1.3587
  188MOL0     H24759   0.415   1.633   6.535  2.9656 -3.5897 -0.4035
  188MOL0     H24760   0.249   1.631   6.599 -0.4730 -0.8511 -2.1847
  188MOL0     H24761   0.519   1.541   6.708 -0.9181 -2.6835  0.3770
  188MOL0     H24762   0.361   1.488   6.792 -3.3565  0.2346 -1.2715
  188MOL0     H24763   0.312   1.726   6.823 -0.0207  0.2605 -1.9172
  188MOL0     H24764   0.450   1.773   6.732  0.6239 -0.5680  0.5513
  188MOL0     H24765   0.427   1.646   6.994 -1.4075  3.7993  2.3667
  188MOL0     H24766   0.592   1.667   6.916  1.4306  1.2045  2.2352
  188MOL0     H24767   0.555   1.922   6.919 -0.6616  2.1970  1.3685
  188MOL0     H24768   0.534   1.838   7.080  0.6815  2.4711  0.1287
  188MOL0     H24769   0.255   1.806   7.153  3.8788 -2.0505 -0.6574
  188MOL0     H24770  -0.016   1.812   7.051 -0.0965 -0.1292 -0.8657
  188MOL0     H24771  -0.065   1.974   6.991  0.6345  3.0557  2.5599
  188MOL0     H24772   0.026   2.060   7.208 -0.4948  0.1588  1.3251
  188MOL0     H24773   0.040   1.905   7.274  2.2788  0.1896 -1.7217
  188MOL0     H24774  -0.225   2.025   7.167  2.1009  0.7827 -0.2474
  188MOL0     H24775  -0.205   1.875   7.261  0.9469 -0.3317  1.0309
  188MOL0     H24776  -0.169   2.159   7.365 -0.4324  1.2252  0.9013
  188MOL0     H24777  -0.123   2.008   7.450  2.5026  0.2498 -2.2569
  188MOL0     H24778  -0.359   1.937   7.657 -0.2578 -0.5675 -1.1815
  188MOL0     H24779  -0.373   2.029   7.870  1.8757 -0.2049  1.5818
  188MOL0     H24780  -0.518   2.573   8.087 -2.9941  2.2773  4.2911
  188MOL0     H24781  -0.463   2.671   8.316 -0.5298 -0.9291  0.1168
  188MOL0     H24782  -0.248   2.528   8.646 -2.1844  1.2062  2.7660
  188MOL0     H24783  -0.314   2.438   8.509  1.6011  1.0931 -0.9292
  188MOL0     H24784  -0.510   2.483   8.642 -2.7790  2.4224 -1.5769
  188MOL0     H24785  -0.514   2.605   8.522 -3.7150 -0.8573  1.5457
  188MOL0     H24786  -0.562   2.731   8.697  1.9000  3.6120 -3.0471
  188MOL0     H24787  -0.392   2.768   8.680 -0.9461  1.2875 -0.0067
  188MOL0     H24788  -0.503   2.560   8.879  1.3014 -0.7506  3.6251
  188MOL0     H24789  -0.329   2.600   8.851 -0.7212 -0.2652 -0.6850
  188MOL0     H24790  -0.487   2.723   9.042  3.0592  0.7693  2.8993
  188MOL0     H24791  -0.512   2.823   8.894 -0.4227 -0.0037  2.8157
  188MOL0     H24792  -0.233   2.827   8.901 -0.6204  1.8403 -0.6785
  188MOL0     H24793  -0.267   2.818   9.074  3.9059  1.8063 -1.5355
  188MOL0     H24794  -0.404   3.027   8.906 -0.9864 -2.6093 -0.9063
  188MOL0     H24795  -0.427   3.008   9.075 -0.2528  1.9659 -1.1660
  188MOL0     H24796  -0.275   3.199   9.031 -2.2188 -1.2827 -1.1122
  188MOL0     H24797  -0.163   3.080   8.948 -1.1554  1.0407 -2.0707
  188MOL0     H24798  -0.082   2.483   8.326  2.8465 -0.4478 -2.3433
  188MOL0     H24799  -0.112   2.422   8.085  1.5744 -0.9866  3.0446
  188MOL0     H24800  -0.329   2.417   7.681  1.3065  0.2004 -2.5395
  188MOL0     H24801  -0.312   2.307   7.465  0.0968 -0.8475  0.3910
  188MOL0     H24802   0.255   1.217   6.756  2.2393  0.8194 -2.5984
  188MOL0     H24803   0.311   1.058   6.931 -0.6812 -1.1037  0.1491
  188MOL0     H24804   0.569   0.752   7.088  0.8635 -3.2251  0.6753
  188MOL0     H24805   0.618   0.697   7.288 -0.5018  2.9028 -2.2021
  188MOL0     H24806   0.548   0.502   7.595  0.8925  4.0304 -0.1284
  188MOL0     H24807   0.445   0.433   7.468  2.4311  0.5407 -0.1209
  188MOL0     H24808   0.333   0.542   7.727  3.1598 -2.7439  2.6502
  188MOL0     H24809   0.236   0.488   7.588  1.1344  2.3423 -0.8053
  188MOL0     H24810   0.350   0.271   7.596 -2.9922 -0.8697  0.5691
  188MOL0     H24811   0.257   0.289   7.744  1.0934 -1.0293  1.5031
  188MOL0     H24812   0.492   0.198   7.806  1.5252  0.9000  0.6045
  188MOL0     H24813   0.560   0.336   7.745  1.3006 -1.1492  0.5281
  188MOL0     H24814   0.421   0.442   8.136  1.1125  0.0403  0.9622
  188MOL0     H24815   0.207   0.628   7.401 -0.3691  3.3071  0.7750
  188MOL0     H24816   0.140   0.671   7.170  1.3340 -1.4643 -0.7138
  189MOL0     O24817   4.072  10.381   4.440  0.0223 -0.9739  0.2777
  189MOL0     C24818   4.191  10.371   4.442  0.2591  0.4078 -0.0163
  189MOL0     O24819   4.266  10.267   4.494  0.0090  0.1784 -0.0196
  189MOL0     C24820   4.208  10.164   4.563 -0.0149  0.2002  0.0719
  189MOL0     C24821   4.159  10.164   4.697  0.3898 -0.6969 -0.5317
  189MOL0     C24822   4.104  10.046   4.750 -0.3642  0.6678 -0.4683
  189MOL0     C24823   4.124   9.921   4.677  0.8363  0.1621 -0.7067
  189MOL0     O24824   4.076   9.816   4.753 -0.0158 -0.2199  0.2341
  189MOL0     C24825   4.064   9.690   4.684  0.3061  0.2572 -0.6021
  189MOL0     C24826   4.027   9.579   4.801  0.1757 -0.9584 -0.0126
  189MOL0     C24827   3.993   9.443   4.741 -0.0346  1.4792 -0.4611
  189MOL0     C24828   3.941   9.344   4.847  0.0856  0.3189  0.2433
  189MOL0     C24829   3.847   9.246   4.785  0.3785 -0.5575  0.1082
  189MOL0     C24830   3.920   9.146   4.704 -0.9880  0.4005 -0.4656
  189MOL0     C24831   3.838   9.069   4.615 -0.3073 -0.2452 -0.6662
  189MOL0     C24832   3.807   9.137   4.479 -0.0218 -0.1513  0.1010
  189MOL0     N24833   3.700   9.075   4.405 -0.3360  0.1739 -0.1037
  189MOL0     C24834   3.707   8.997   4.289 -0.3893 -0.1415  0.4877
  189MOL0     C24835   3.583   8.966   4.262 -0.0184 -0.5824  0.0712
  189MOL0     C24836   3.539   8.905   4.142 -0.5535  0.1080 -0.2411
  189MOL0     C24837   3.515   8.753   4.171 -0.6409  0.2626  0.7033
  189MOL0     C24838   3.384   8.714   4.134  0.8336  0.1617 -0.4403
  189MOL0     C24839   3.357   8.577   4.177  0.1941 -0.6129 -0.4695
  189MOL0     O24840   3.426   8.464   4.115  1.0696 -0.4665  0.7001
  189MOL0     C24841   3.365   8.344   4.136  0.1600 -0.8265  0.7916
  189MOL0     C24842   3.412   8.251   4.236  0.6692 -0.9765  0.1611
  189MOL0     C24843   3.343   8.134   4.250  0.2302  0.0292 -0.2380
  189MOL0     C24844   3.230   8.095   4.168  0.0447 -1.6330 -0.3104
  189MOL0     C24845   3.164   7.967   4.183 -0.5997 -0.7751  0.7269
  189MOL0     O24846   3.041   7.951   4.127 -0.5519  0.3868  0.9281
  189MOL0     C24847   2.958   7.846   4.160  0.1506  0.6576 -0.1111
  189MOL0     C24848   2.871   7.796   4.063  0.3040 -0.5465 -0.0642
  189MOL0     C24849   2.780   7.691   4.080 -0.5617  0.6224  0.2655
  189MOL0     C24850   2.777   7.619   4.199  0.9237 -0.6307  0.1072
  189MOL0     O24851   2.683   7.521   4.205  0.2954  0.5396  0.2747
  189MOL0     C24852   2.721   7.418   4.301 -0.0598 -0.1478  0.1796
  189MOL0     C24853   2.611   7.321   4.304 -0.0581 -0.7743 -0.6624
  189MOL0     C24854   2.476   7.391   4.341  1.2159  0.4091  0.7902
  189MOL0     C24855   2.370   7.289   4.378 -0.4759  0.3750 -0.5081
  189MOL0     C24856   2.227   7.351   4.390 -0.5485  0.6155  0.6581
  189MOL0     C24857   2.209   7.470   4.489 -0.0720 -0.0694 -0.4063
  189MOL0     C24858   2.097   7.571   4.456 -0.4427 -0.9791 -0.2275
  189MOL0     C24859   2.099   7.685   4.566 -1.0055  0.2857 -0.5743
  189MOL0    Cl24860   2.106   7.644   4.745 -0.3891  0.4880 -0.2368
  189MOL0     C24861   2.867   7.660   4.303  0.1234 -0.6549 -0.3606
  189MOL0     C24862   2.948   7.779   4.286  0.4012  0.1309 -0.0701
  189MOL0     O24863   3.224   7.877   4.245 -0.2179  0.3980 -0.1816
  189MOL0     C24864   3.187   8.196   4.072 -0.3343 -0.1258 -0.3388
  189MOL0     C24865   3.253   8.318   4.061 -0.2892  0.5826 -0.0292
  189MOL0     N24866   3.493   9.017   4.354  1.1974 -0.0307  0.7173
  189MOL0     N24867   3.570   9.081   4.441 -0.0109  1.0432 -0.1638
  189MOL0     C24868   4.165   9.928   4.548 -0.5276 -0.4164  0.4292
  189MOL0     C24869   4.208  10.043   4.491  0.2771  0.4169  0.1434
  189MOL0     C24870   4.266  10.484   4.384 -0.7791  1.1621 -0.4002
  189MOL0     C24871   4.395  10.496   4.422  0.0174 -0.7273  0.8225
  189MOL0     C24872   4.482  10.596   4.356 -0.4640  0.4131  0.2466
  189MOL0     C24873   4.427  10.681   4.258 -0.3180  0.2799  0.8826
  189MOL0     O24874   4.501  10.772   4.176 -0.3248 -0.2780  0.2607
  189MOL0     C24875   4.607  10.711   4.094  0.6804 -0.3680 -0.1092
  189MOL0     C24876   4.647  10.799   3.979  0.7494  0.1894  0.8056
  189MOL0     C24877   4.529  10.827   3.877 -0.2272  0.7182  0.2975
  189MOL0     C24878   4.464  10.708   3.812  0.9249 -0.8366  0.1342
  189MOL0     C24879   4.523  10.578   3.816  0.4381  0.2316  0.4479
  189MOL0     C24880   4.594  10.477   3.814 -0.4581  0.1785  0.2127
  189MOL0     C24881   4.287  10.676   4.233 -0.8639 -0.1177  0.4100
  189MOL0     C24882   4.219  10.563   4.284 -0.4751 -0.2002 -0.1276
  189MOL0     H24883   4.157  10.254   4.757  0.4395 -0.9881 -0.0935
  189MOL0     H24884   4.058  10.048   4.849 -1.1901 -0.0544 -0.8310
  189MOL0     H24885   4.161   9.677   4.636  1.2526  2.8224  0.4634
  189MOL0     H24886   3.975   9.691   4.621 -1.1643 -1.2966  1.3000
  189MOL0     H24887   3.952   9.627   4.865  0.9931  1.4983 -0.7720
  189MOL0     H24888   4.122   9.567   4.854  2.3110 -0.1493 -3.3368
  189MOL0     H24889   4.086   9.402   4.701 -0.4538 -0.5895  0.5646
  189MOL0     H24890   3.919   9.463   4.663  0.8466  3.1523 -0.9210
  189MOL0     H24891   4.031   9.297   4.888 -0.7281  0.2434  2.0427
  189MOL0     H24892   3.895   9.411   4.921  0.8956  5.6400 -3.4620
  189MOL0     H24893   3.779   9.302   4.721  3.5463 -2.0798 -5.1990
  189MOL0     H24894   3.794   9.193   4.864  1.9703  1.5388  2.7831
  189MOL0     H24895   3.968   9.072   4.769  0.2325  0.9382 -0.7295
  189MOL0     H24896   3.995   9.200   4.645  0.4413 -1.6857 -0.6446
  189MOL0     H24897   3.882   8.971   4.593  1.9748 -0.7421  4.5719
  189MOL0     H24898   3.744   9.049   4.668 -0.8067  0.4666 -1.2732
  189MOL0     H24899   3.894   9.121   4.415 -1.4725  1.3421 -2.4300
  189MOL0     H24900   3.795   9.246   4.486  0.6566  0.1224 -2.0556
  189MOL0     H24901   3.794   8.966   4.233  1.3712  1.0403  2.3966
  189MOL0     H24902   3.616   8.901   4.065 -1.2561  1.4073 -1.0496
  189MOL0     H24903   3.453   8.952   4.093 -0.0663  0.4144 -0.8220
  189MOL0     H24904   3.530   8.744   4.279 -0.1515 -1.6132  0.5143
  189MOL0     H24905   3.591   8.695   4.118 -0.3172  1.7810 -0.5698
  189MOL0     H24906   3.299   8.770   4.174  0.7239 -1.0043  1.0532
  189MOL0     H24907   3.357   8.719   4.028 -0.6443  1.0014 -0.0491
  189MOL0     H24908   3.248   8.567   4.173  0.2054 -0.8146 -0.2809
  189MOL0     H24909   3.386   8.576   4.282  0.0942  0.2846 -0.4205
  189MOL0     H24910   3.487   8.267   4.313  0.8174  0.1924 -0.2063
  189MOL0     H24911   3.365   8.071   4.336 -2.9422  1.7810  2.0599
  189MOL0     H24912   2.883   7.835   3.963 -0.9299  1.7171  0.5961
  189MOL0     H24913   2.727   7.666   3.989 -0.9195  3.1062 -0.2838
  189MOL0     H24914   2.726   7.453   4.405 -2.5103  0.0765  0.2715
  189MOL0     H24915   2.822   7.385   4.276  0.8747  2.9974 -0.6571
  189MOL0     H24916   2.622   7.242   4.379  0.3616  0.0174  0.1213
  189MOL0     H24917   2.610   7.274   4.205 -1.0528  0.9940 -1.5537
  189MOL0     H24918   2.444   7.462   4.264 -0.5012  3.1867  3.7889
  189MOL0     H24919   2.480   7.449   4.434  1.5945  1.8927 -0.1148
  189MOL0     H24920   2.359   7.208   4.305 -0.3724  0.7388 -0.9301
  189MOL0     H24921   2.408   7.245   4.471  0.9510  0.5668 -0.9709
  189MOL0     H24922   2.150   7.278   4.414  0.4378 -0.9873 -0.7468
  189MOL0     H24923   2.208   7.381   4.287  1.8227  1.5464  0.4114
  189MOL0     H24924   2.298   7.531   4.507  1.0412 -1.8247  0.2570
  189MOL0     H24925   2.188   7.424   4.586  1.6738 -3.6070 -1.5384
  189MOL0     H24926   2.102   7.615   4.356  1.1201 -1.8585 -0.5809
  189MOL0     H24927   2.001   7.519   4.464 -1.5353  1.0003  0.2849
  189MOL0     H24928   2.003   7.736   4.559 -2.3131 -2.2329 -3.0428
  189MOL0     H24929   2.186   7.750   4.555  0.6164 -1.4564  1.2148
  189MOL0     H24930   2.837   7.629   4.402 -4.6772  0.1363 -1.2948
  189MOL0     H24931   3.002   7.823   4.370  1.7706 -0.2470 -0.7210
  189MOL0     H24932   3.098   8.182   4.010 -0.6020  1.4043 -0.3252
  189MOL0     H24933   3.208   8.386   3.990 -1.9841  0.4213  0.8535
  189MOL0     H24934   4.169   9.833   4.497  0.4602 -1.4892  2.4017
  189MOL0     H24935   4.259  10.044   4.396  0.5187 -2.8820  0.1183
  189MOL0     H24936   4.448  10.443   4.500  0.6002 -0.1927  0.7981
  189MOL0     H24937   4.585  10.597   4.392 -0.0985 -0.0214 -0.7407
  189MOL0     H24938   4.575  10.610   4.069 -2.0930  0.1442  1.0357
  189MOL0     H24939   4.688  10.713   4.168 -1.0026  2.1606  1.8195
  189MOL0     H24940   4.682  10.897   4.013 -0.9449  0.0573  3.1285
  189MOL0     H24941   4.731  10.767   3.916  0.3641  0.0949  0.3297
  189MOL0     H24942   4.563  10.887   3.792 -0.8715 -0.5612 -0.8932
  189MOL0     H24943   4.459  10.891   3.933  1.4140  1.1940  1.9068
  189MOL0     H24944   4.363  10.703   3.853  0.6047  4.5315  0.6996
  189MOL0     H24945   4.455  10.733   3.706  0.2745 -2.3324 -0.1785
  189MOL0     H24946   4.652  10.387   3.811  0.5403  0.8099 -3.0564
  189MOL0     H24947   4.246  10.734   4.151  0.0722  2.8414  1.8927
  189MOL0     H24948   4.120  10.548   4.243 -1.0736 -2.8093  2.0423
  190MOL0     O24949   4.621   4.316   2.934  0.3278 -0.8112  0.7485
  190MOL0     C24950   4.668   4.250   3.031 -0.9403  0.5429 -0.2372
  190MOL0     O24951   4.605   4.166   3.115  0.3140 -0.2890 -0.7409
  190MOL0     C24952   4.472   4.126   3.106 -0.3139 -0.1323 -0.2293
  190MOL0     C24953   4.391   4.144   2.989  0.1452  0.2241  0.0290
  190MOL0     C24954   4.256   4.097   2.988  0.0875  1.0207 -1.2803
  190MOL0     C24955   4.204   4.031   3.106 -0.3981 -0.2100  1.2178
  190MOL0     O24956   4.076   3.987   3.093  0.5080  0.0728 -0.8042
  190MOL0     C24957   4.073   3.843   3.088  0.4004 -0.4936 -0.5469
  190MOL0     C24958   3.926   3.799   3.061  0.3139 -0.1009  0.9743
  190MOL0     C24959   3.861   3.853   2.928  1.0078 -0.2917  0.3115
  190MOL0     C24960   3.783   3.987   2.956  0.3830 -0.0392 -1.3302
  190MOL0     C24961   3.725   4.051   2.832 -0.5069 -0.0523  0.1802
  190MOL0     C24962   3.808   4.173   2.774 -0.5382  0.1668  0.6853
  190MOL0     C24963   3.944   4.110   2.717 -0.8901 -0.7027 -0.1154
  190MOL0     C24964   4.036   4.221   2.638  0.1239  1.2154  0.0605
  190MOL0     N24965   4.160   4.165   2.587 -0.5827 -0.3218  0.8824
  190MOL0     C24966   4.239   4.219   2.487 -0.1437  0.5365 -0.4199
  190MOL0     C24967   4.354   4.144   2.472 -0.1031 -0.2854 -0.0857
  190MOL0     C24968   4.439   4.158   2.347 -0.8348  0.4664 -0.7389
  190MOL0     C24969   4.483   4.303   2.311 -0.2702  0.2374  0.4854
  190MOL0     C24970   4.636   4.298   2.269 -0.2296 -0.0811  0.1056
  190MOL0     C24971   4.695   4.442   2.244  0.7604  0.0544  0.8187
  190MOL0     O24972   4.827   4.434   2.293 -0.0471  0.1478 -0.4549
  190MOL0     C24973   4.928   4.521   2.265 -1.2304  0.6650  0.2229
  190MOL0     C24974   5.050   4.506   2.331  0.5476 -1.4640  0.3047
  190MOL0     C24975   5.153   4.604   2.318  0.6298 -0.0093 -0.1253
  190MOL0     C24976   5.139   4.698   2.223  0.2282  0.4672 -0.1859
  190MOL0     C24977   5.248   4.796   2.207 -0.3596 -0.4377  1.0083
  190MOL0     O24978   5.363   4.775   2.277 -0.0772  0.1500  0.2101
  190MOL0     C24979   5.469   4.853   2.233 -0.8359  0.7566 -0.2012
  190MOL0     C24980   5.580   4.783   2.194  0.1857  0.3145  0.7823
  190MOL0     C24981   5.699   4.851   2.155  0.4295 -0.2911  0.6046
  190MOL0     C24982   5.712   4.988   2.163 -1.2135  0.1572 -0.5106
  190MOL0     O24983   5.824   5.051   2.112  0.2139 -0.0675 -0.0842
  190MOL0     C24984   5.856   5.174   2.179 -0.7145 -1.2698 -0.7609
  190MOL0     C24985   5.997   5.207   2.133  0.2148  0.1098  0.1778
  190MOL0     C24986   6.077   5.329   2.190  0.1793  1.2879 -0.8749
  190MOL0     C24987   6.229   5.302   2.177 -0.6703 -0.3722  1.0207
  190MOL0     C24988   6.291   5.306   2.315 -0.3766  0.2208 -0.4516
  190MOL0     C24989   6.274   5.435   2.408  0.1965 -0.0208 -0.1923
  190MOL0     C24990   6.275   5.572   2.332 -0.0263  0.0301  0.9695
  190MOL0     C24991   6.291   5.693   2.433  0.1819 -0.2497 -0.8960
  190MOL0    Cl24992   6.457   5.679   2.526 -0.5392 -0.1803  0.3078
  190MOL0     C24993   5.592   5.059   2.212 -0.4415  0.1607 -0.5550
  190MOL0     C24994   5.475   4.992   2.248  0.7487 -0.4923 -0.6864
  190MOL0     O24995   5.238   4.881   2.113  0.2736 -0.6522 -0.5032
  190MOL0     C24996   5.015   4.711   2.153  0.1849 -0.8607 -1.0237
  190MOL0     C24997   4.908   4.623   2.183 -0.4476 -0.8038  0.5857
  190MOL0     N24998   4.332   4.027   2.550  0.5574  0.2050 -0.6398
  190MOL0     N24999   4.223   4.046   2.616 -0.3809  0.0732 -0.5251
  190MOL0     C25000   4.285   4.018   3.216  0.3219 -0.3041 -0.0146
  190MOL0     C25001   4.418   4.066   3.221  0.1941 -0.6012  0.3970
  190MOL0     C25002   4.813   4.267   3.046 -0.5278  0.5849 -0.1367
  190MOL0     C25003   4.879   4.229   3.161 -0.6257  0.7873  0.5524
  190MOL0     C25004   5.016   4.264   3.176  0.1942 -0.8899  0.3471
  190MOL0     C25005   5.081   4.341   3.081  0.6330  0.4617 -0.2617
  190MOL0     O25006   5.211   4.389   3.093  0.5517  0.3803  0.2612
  190MOL0     C25007   5.288   4.369   3.209  0.5102  0.1507  0.0151
  190MOL0     C25008   5.442   4.395   3.199 -0.9684  0.0932 -0.2218
  190MOL0     C25009   5.483   4.491   3.089  0.0174 -0.1917 -0.3109
  190MOL0     C25010   5.400   4.615   3.085  0.6172 -0.5480  0.0875
  190MOL0     C25011   5.373   4.681   3.213  0.5890 -0.3103  0.1395
  190MOL0     C25012   5.355   4.725   3.326  0.6156 -0.0527  1.0688
  190MOL0     C25013   5.016   4.375   2.967 -0.4040 -0.2646  0.0798
  190MOL0     C25014   4.887   4.337   2.953 -0.7134 -0.0217  0.6850
  190MOL0     H25015   4.430   4.177   2.894  3.9081  0.7499  1.5817
  190MOL0     H25016   4.193   4.103   2.900 -2.6472  2.2247  0.6554
  190MOL0     H25017   4.097   3.803   3.187  0.0680 -0.1400 -0.3212
  190MOL0     H25018   4.141   3.794   3.018  2.1711  1.9349 -0.6663
  190MOL0     H25019   3.860   3.843   3.137 -2.9095  1.8195 -2.5472
  190MOL0     H25020   3.911   3.691   3.054 -0.4440 -0.0408  1.4761
  190MOL0     H25021   3.777   3.787   2.905 -1.2761  1.9903  1.5397
  190MOL0     H25022   3.933   3.863   2.846  1.2582 -0.2327  0.5357
  190MOL0     H25023   3.705   3.955   3.027  3.5972  2.7100  4.0388
  190MOL0     H25024   3.832   4.056   3.025 -3.0740 -1.6604  3.3476
  190MOL0     H25025   3.632   4.099   2.863 -0.7711 -0.6022  0.2409
  190MOL0     H25026   3.711   3.968   2.763  1.8828  2.7584 -4.1550
  190MOL0     H25027   3.817   4.245   2.855 -0.3811  2.9730 -1.6600
  190MOL0     H25028   3.761   4.238   2.699 -0.5688 -2.9101 -2.2341
  190MOL0     H25029   3.998   4.069   2.803  0.0845 -1.6334 -1.1395
  190MOL0     H25030   3.911   4.034   2.645 -1.0318  1.3178 -2.2779
  190MOL0     H25031   4.050   4.301   2.711 -0.0464  2.4422 -1.1939
  190MOL0     H25032   3.975   4.251   2.552  0.9994  1.2296 -0.5747
  190MOL0     H25033   4.216   4.314   2.438  0.0806  0.0020 -1.5859
  190MOL0     H25034   4.375   4.123   2.266 -1.2458  1.2156 -0.7485
  190MOL0     H25035   4.523   4.088   2.358 -0.2408  1.3394  0.6179
  190MOL0     H25036   4.465   4.361   2.402  2.3944  0.7194  0.7757
  190MOL0     H25037   4.425   4.342   2.227 -3.0627 -0.1556  2.1174
  190MOL0     H25038   4.689   4.268   2.359 -0.5016 -3.5669 -0.7743
  190MOL0     H25039   4.656   4.223   2.192 -1.6643  0.3238 -0.7105
  190MOL0     H25040   4.638   4.514   2.303  0.8876  0.6333  0.2451
  190MOL0     H25041   4.672   4.469   2.140 -1.6689 -0.5589  1.1214
  190MOL0     H25042   5.057   4.428   2.406 -0.0167 -0.9350  0.9299
  190MOL0     H25043   5.243   4.605   2.379 -0.1633 -0.4792  1.1088
  190MOL0     H25044   5.582   4.674   2.192 -0.2467  0.2593  2.4055
  190MOL0     H25045   5.775   4.788   2.110 -0.6737 -0.2073 -1.4895
  190MOL0     H25046   5.846   5.163   2.287  1.6312 -0.3735 -0.4099
  190MOL0     H25047   5.801   5.262   2.145 -0.3101 -1.9926 -3.5423
  190MOL0     H25048   5.995   5.214   2.024 -1.5724  1.1994  0.2409
  190MOL0     H25049   6.060   5.122   2.160  0.7612  0.1454 -0.9575
  190MOL0     H25050   6.056   5.334   2.297  0.8160 -2.3607 -0.4701
  190MOL0     H25051   6.053   5.414   2.125  1.0263  0.9183 -1.7077
  190MOL0     H25052   6.247   5.204   2.133 -0.6054  0.6807 -1.4885
  190MOL0     H25053   6.282   5.373   2.112  0.9038 -3.0829 -0.8734
  190MOL0     H25054   6.398   5.293   2.299 -0.8008 -0.7009 -2.8792
  190MOL0     H25055   6.255   5.217   2.368 -0.6685 -0.4526 -1.7310
  190MOL0     H25056   6.352   5.434   2.484  0.9186  2.1945 -0.8274
  190MOL0     H25057   6.178   5.435   2.461  0.2474 -3.0341  0.0584
  190MOL0     H25058   6.354   5.561   2.258 -0.6525 -1.4631  0.4778
  190MOL0     H25059   6.182   5.575   2.273  1.7388 -1.5766 -2.1350
  190MOL0     H25060   6.207   5.702   2.502  0.8423 -0.9994  0.0317
  190MOL0     H25061   6.292   5.783   2.371  1.0696 -1.0239 -2.0417
  190MOL0     H25062   5.574   5.166   2.215 -4.8780 -0.4059 -0.2913
  190MOL0     H25063   5.395   5.043   2.301  1.8592  1.0251 -0.4155
  190MOL0     H25064   4.992   4.791   2.083 -2.9459  1.3952  2.1756
  190MOL0     H25065   4.808   4.643   2.146  0.3821 -0.1316 -1.4708
  190MOL0     H25066   4.249   3.990   3.314  0.7337  0.7438  0.4403
  190MOL0     H25067   4.474   4.056   3.314  2.5166 -4.0884 -1.1705
  190MOL0     H25068   4.835   4.177   3.246 -1.8728 -1.4447 -1.3583
  190MOL0     H25069   5.060   4.239   3.272 -2.3186 -3.5957  0.9499
  190MOL0     H25070   5.265   4.269   3.245 -5.4912  2.0674  2.8168
  190MOL0     H25071   5.251   4.436   3.287  0.1115  2.2897 -1.8896
  190MOL0     H25072   5.475   4.436   3.295 -2.4901  1.2577 -0.1645
  190MOL0     H25073   5.486   4.298   3.174 -4.2345 -1.7184  0.4846
  190MOL0     H25074   5.465   4.450   2.989  0.9635 -0.3355 -0.4358
  190MOL0     H25075   5.591   4.511   3.093  0.8475 -4.0067  2.8970
  190MOL0     H25076   5.442   4.692   3.020 -1.3295 -2.0710 -3.2188
  190MOL0     H25077   5.302   4.599   3.039  0.0666 -3.5618  2.0634
  190MOL0     H25078   5.331   4.777   3.417 -3.9514  0.1089 -0.0055
  190MOL0     H25079   5.072   4.427   2.890 -1.1246  0.6923  0.1878
  190MOL0     H25080   4.842   4.356   2.856  0.7583 -2.5610 -0.5901
  191MOL0     O25081   1.817   1.389   9.828  0.1596  0.6601  0.4314
  191MOL0     C25082   1.733   1.430   9.905  0.1298 -0.5650 -0.4632
  191MOL0     O25083   1.606   1.470   9.874 -0.2532  0.7253 -0.5771
  191MOL0     C25084   1.555   1.450   9.743 -0.2060 -0.7318  0.0218
  191MOL0     C25085   1.560   1.337   9.671 -0.7520  0.7752  0.0243
  191MOL0     C25086   1.500   1.332   9.544 -0.5738  0.1473 -0.3467
  191MOL0     C25087   1.429   1.442   9.502  0.4283  0.5992  0.1692
  191MOL0     O25088   1.360   1.444   9.389  0.4544  0.1130 -0.2765
  191MOL0     C25089   1.213   1.435   9.410 -0.4755 -0.4821  0.4571
  191MOL0     C25090   1.122   1.533   9.330  0.8814  0.1930  0.2840
  191MOL0     C25091   1.144   1.673   9.383 -0.3556 -0.2505 -0.4291
  191MOL0     C25092   1.048   1.778   9.318 -0.4701  0.2521  0.4486
  191MOL0     C25093   1.030   1.907   9.399  0.2389  0.1211  0.4234
  191MOL0     C25094   0.946   2.012   9.320 -0.7610 -0.1275  0.0408
  191MOL0     C25095   0.794   1.977   9.333  0.0902 -0.0215 -0.1108
  191MOL0     C25096   0.712   2.077   9.248 -0.4020  0.6223  0.3493
  191MOL0     N25097   0.694   2.214   9.305 -0.1964  0.0814  0.1386
  191MOL0     C25098   0.774   2.327   9.265  0.5168  0.5213  0.0362
  191MOL0     C25099   0.714   2.430   9.328 -0.1471  0.4991  1.5805
  191MOL0     C25100   0.751   2.574   9.326  0.7269 -0.1783 -0.4148
  191MOL0     C25101   0.834   2.625   9.209  0.3044  0.9142 -0.4913
  191MOL0     C25102   0.861   2.765   9.209  0.4215 -0.4325 -0.9300
  191MOL0     C25103   0.934   2.824   9.084 -0.0319  0.0775 -0.3228
  191MOL0     O25104   1.033   2.920   9.123 -0.4595 -0.4639  0.1606
  191MOL0     C25105   1.010   3.054   9.151 -1.8762 -1.0918  0.7964
  191MOL0     C25106   0.882   3.115   9.142  0.4134 -0.4989 -1.0418
  191MOL0     C25107   0.856   3.237   9.207  0.5342 -0.1467  0.0169
  191MOL0     C25108   0.963   3.314   9.272  0.2156 -0.2300  0.9188
  191MOL0     C25109   0.934   3.433   9.341 -0.6689  0.3541 -0.3446
  191MOL0     O25110   1.046   3.511   9.390  1.0014  0.1704  0.6892
  191MOL0     C25111   1.030   3.601   9.494 -0.3337  0.0276 -0.4364
  191MOL0     C25112   1.143   3.682   9.513  0.1271 -1.3031 -0.2720
  191MOL0     C25113   1.155   3.767   9.626 -0.2621 -0.4367 -0.3217
  191MOL0     C25114   1.049   3.790   9.712  0.4568  0.4620  0.3992
  191MOL0     O25115   1.047   3.878   9.813 -0.2977  0.4549  0.0247
  191MOL0     C25116   1.129   3.836   9.924  0.3135  0.5092 -0.3712
  191MOL0     C25117   1.087   3.902  10.052 -0.9858  0.1515  0.3180
  191MOL0     C25118   1.146   4.041  10.066  0.2304 -0.4905  0.7429
  191MOL0     C25119   1.087   4.122  10.180  0.4379  0.1065 -0.0400
  191MOL0     C25120   1.109   4.279  10.155 -0.3933 -0.5907 -0.3116
  191MOL0     C25121   1.254   4.326  10.119 -0.0062 -0.4041  0.0645
  191MOL0     C25122   1.263   4.440  10.018  0.8092 -0.4123 -0.0387
  191MOL0     C25123   1.194   4.574  10.061 -0.1202  0.2141 -0.3463
  191MOL0    Cl25124   1.287   4.659  10.187 -0.2766  0.0270 -0.3522
  191MOL0     C25125   0.931   3.714   9.687  0.3233 -0.5118  0.1987
  191MOL0     C25126   0.924   3.618   9.581 -0.2307  0.8852 -0.4108
  191MOL0     O25127   0.814   3.467   9.348  0.0776  0.1796 -0.4463
  191MOL0     C25128   1.089   3.261   9.260  0.2846 -0.2329 -0.4073
  191MOL0     C25129   1.115   3.135   9.199 -0.3295 -0.2747  0.7229
  191MOL0     N25130   0.596   2.382   9.387  0.9476 -0.7134  0.1184
  191MOL0     N25131   0.582   2.260   9.360 -0.2758  0.2678  0.3607
  191MOL0     C25132   1.431   1.557   9.572  0.1033  0.4658 -0.3100
  191MOL0     C25133   1.497   1.561   9.692  0.7140  0.7583  0.3180
  191MOL0     C25134   1.779   1.454  10.045  0.4242  0.7801  0.8671
  191MOL0     C25135   1.712   1.551  10.127 -0.3619  0.5622  0.0649
  191MOL0     C25136   1.752   1.576  10.256 -0.2461 -0.7641  0.1894
  191MOL0     C25137   1.873   1.511  10.299  0.5262 -0.2445 -1.0971
  191MOL0     O25138   1.920   1.505  10.433  0.7762  0.8177  0.6581
  191MOL0     C25139   1.820   1.558  10.532  0.5666  0.2399  0.5101
  191MOL0     C25140   1.879   1.536  10.668 -0.8447  0.4599 -0.7093
  191MOL0     C25141   1.805   1.607  10.787 -0.0032  0.1986  0.1370
  191MOL0     C25142   1.836   1.537  10.920 -0.2562 -0.3128 -0.5922
  191MOL0     C25143   1.804   1.638  11.030  0.4039  0.2055  0.1611
  191MOL0     C25144   1.782   1.728  11.109  0.0701 -0.0429  0.4483
  191MOL0     C25145   1.928   1.416  10.229 -0.7189 -1.1229  0.1947
  191MOL0     C25146   1.886   1.379  10.101 -0.1503  1.0119 -0.1859
  191MOL0     H25147   1.610   1.247   9.706 -0.5537  0.6743 -0.5110
  191MOL0     H25148   1.508   1.236   9.493  1.1729 -2.6301  4.4702
  191MOL0     H25149   1.188   1.442   9.516 -3.4449 -2.7436  0.0306
  191MOL0     H25150   1.171   1.340   9.378 -1.7478 -0.2671  1.4387
  191MOL0     H25151   1.017   1.506   9.349  0.9024  1.0343  1.7015
  191MOL0     H25152   1.135   1.545   9.222 -2.1172  2.5056  0.0520
  191MOL0     H25153   1.247   1.701   9.358 -0.3812 -0.8745 -1.2814
  191MOL0     H25154   1.128   1.680   9.491 -0.5322 -0.4232 -0.4442
  191MOL0     H25155   1.086   1.811   9.220 -2.4864 -0.8214 -0.7643
  191MOL0     H25156   0.950   1.734   9.300 -1.5950  3.2676 -1.7491
  191MOL0     H25157   1.128   1.942   9.432  0.9883 -1.0891 -0.4655
  191MOL0     H25158   0.987   1.879   9.495 -0.7699 -0.3390 -0.1455
  191MOL0     H25159   0.977   2.016   9.215  3.4140 -2.4272  0.9569
  191MOL0     H25160   0.957   2.112   9.365  2.3544  0.5552 -1.9335
  191MOL0     H25161   0.778   1.879   9.286 -1.2600  0.8188 -1.4967
  191MOL0     H25162   0.755   1.972   9.435 -1.8630  0.3085 -0.8154
  191MOL0     H25163   0.616   2.028   9.228  1.2268 -1.6513 -2.8675
  191MOL0     H25164   0.774   2.094   9.159 -2.9398 -0.2945 -1.7311
  191MOL0     H25165   0.860   2.341   9.201 -1.2202  2.2011 -2.1063
  191MOL0     H25166   0.817   2.583   9.413  2.2428 -0.5814 -1.4809
  191MOL0     H25167   0.662   2.636   9.340 -0.5091 -2.1118  0.7642
  191MOL0     H25168   0.780   2.601   9.117 -0.3933 -0.1871  0.1728
  191MOL0     H25169   0.927   2.569   9.197  0.7363  0.7791  2.6111
  191MOL0     H25170   0.773   2.830   9.214  0.7107 -0.0520 -0.7210
  191MOL0     H25171   0.925   2.780   9.296  0.9307 -1.9841 -1.0089
  191MOL0     H25172   0.865   2.859   9.007 -2.5006 -0.5674  1.4725
  191MOL0     H25173   0.998   2.748   9.038 -2.4489 -1.9650 -0.5342
  191MOL0     H25174   0.804   3.071   9.081 -0.4903 -0.0323 -0.2437
  191MOL0     H25175   0.751   3.264   9.211  0.0624 -1.8546 -0.0106
  191MOL0     H25176   1.223   3.664   9.442 -2.3118 -4.0343 -2.6048
  191MOL0     H25177   1.245   3.825   9.643 -0.3175  0.2966 -2.2476
  191MOL0     H25178   1.235   3.849   9.904  0.6181 -0.9349  0.1348
  191MOL0     H25179   1.099   3.734   9.951 -0.1555  1.1116  1.5538
  191MOL0     H25180   1.121   3.841  10.136  1.8883  1.0177 -0.1073
  191MOL0     H25181   0.978   3.895  10.057 -1.1531  0.1299 -2.1335
  191MOL0     H25182   1.122   4.103   9.979  0.3585 -2.3326 -0.6575
  191MOL0     H25183   1.254   4.043  10.082  0.1252  2.8514  1.7855
  191MOL0     H25184   0.980   4.099  10.177  0.6691 -0.9352 -0.7208
  191MOL0     H25185   1.132   4.093  10.275  0.2821 -1.1568 -0.3243
  191MOL0     H25186   1.085   4.336  10.246  0.7693  1.2200 -1.0728
  191MOL0     H25187   1.045   4.310  10.072  0.5084 -0.4740 -0.9855
  191MOL0     H25188   1.301   4.247  10.060  0.8056  0.4841 -0.4950
  191MOL0     H25189   1.311   4.354  10.208  1.6813 -0.7422 -0.8828
  191MOL0     H25190   1.366   4.469   9.994  0.6909 -0.5786 -0.7541
  191MOL0     H25191   1.212   4.406   9.927  0.0522 -0.3160  0.3448
  191MOL0     H25192   1.090   4.548  10.081 -0.2443  0.2378 -0.9270
  191MOL0     H25193   1.194   4.630   9.967 -3.6715 -0.6608 -1.0218
  191MOL0     H25194   0.838   3.737   9.738 -0.1801 -1.4936 -0.2327
  191MOL0     H25195   0.838   3.553   9.566  0.3916 -0.0803  0.1257
  191MOL0     H25196   1.180   3.304   9.301  0.0809  1.2875 -1.4443
  191MOL0     H25197   1.216   3.096   9.199 -0.0760  0.2489  2.8803
  191MOL0     H25198   1.408   1.655   9.531  4.5393  2.3246  1.0526
  191MOL0     H25199   1.489   1.653   9.749 -1.8576  0.1488  1.0333
  191MOL0     H25200   1.634   1.610  10.080  1.0709  2.3806 -0.1466
  191MOL0     H25201   1.699   1.657  10.304  0.9225  3.1275 -4.2949
  191MOL0     H25202   1.721   1.513  10.518  0.9160  0.0638 -1.8401
  191MOL0     H25203   1.808   1.666  10.516 -1.7272  0.1729  1.3301
  191MOL0     H25204   1.857   1.433  10.695 -2.0393  1.1168  1.0535
  191MOL0     H25205   1.985   1.562  10.664  0.4278 -3.7319  1.1116
  191MOL0     H25206   1.696   1.611  10.776 -0.2743 -0.9629  2.0520
  191MOL0     H25207   1.850   1.707  10.787  0.7844 -0.0414  3.4049
  191MOL0     H25208   1.774   1.450  10.941  2.2964 -1.9076  0.9105
  191MOL0     H25209   1.943   1.513  10.919 -0.3030 -1.5345  4.0223
  191MOL0     H25210   1.756   1.809  11.174  0.0634 -0.1660  0.5998
  191MOL0     H25211   2.016   1.369  10.271 -2.1116 -2.3315  1.9256
  191MOL0     H25212   1.936   1.292  10.059 -0.4714 -0.5742  2.4914
  192MOL0     O25213   2.555   3.763   2.700 -0.0528 -0.5365 -0.1726
  192MOL0     C25214   2.678   3.754   2.698  0.7846  0.7405 -0.5745
  192MOL0     O25215   2.760   3.780   2.796 -0.2517 -0.7321  0.5658
  192MOL0     C25216   2.723   3.810   2.929 -0.3704  0.1203  1.2610
  192MOL0     C25217   2.609   3.862   2.976 -0.0825  0.1844  1.0216
  192MOL0     C25218   2.597   3.897   3.111  0.2470  0.0796  0.6051
  192MOL0     C25219   2.703   3.881   3.207  0.4373  0.2347 -0.0028
  192MOL0     O25220   2.686   3.942   3.324  0.9425 -0.0231 -0.2879
  192MOL0     C25221   2.760   3.909   3.434 -0.8496 -0.0251 -1.0546
  192MOL0     C25222   2.837   4.028   3.489 -0.2701 -0.3919 -0.4323
  192MOL0     C25223   2.896   3.995   3.634  0.9165  0.9316 -0.5792
  192MOL0     C25224   2.988   4.108   3.679  1.4746 -0.8263  0.3032
  192MOL0     C25225   2.924   4.236   3.707  0.3945  1.3221 -0.2524
  192MOL0     C25226   3.025   4.324   3.766  0.3091 -0.3504 -0.0778
  192MOL0     C25227   2.977   4.465   3.790  0.4028 -1.2848 -0.3615
  192MOL0     C25228   3.038   4.551   3.904  0.8365 -0.5480  0.4950
  192MOL0     N25229   3.179   4.575   3.885  0.5192  0.6395 -0.4126
  192MOL0     C25230   3.237   4.655   3.796  1.1395  0.4947  1.1292
  192MOL0     C25231   3.360   4.605   3.783 -0.5389 -0.7612 -0.1588
  192MOL0     C25232   3.464   4.672   3.706 -1.1238  0.2184  0.0461
  192MOL0     C25233   3.532   4.568   3.607  1.1414 -0.1687  0.8456
  192MOL0     C25234   3.643   4.495   3.677 -0.4629  0.5093 -0.6233
  192MOL0     C25235   3.760   4.578   3.726 -0.0767  0.4629  0.2792
  192MOL0     O25236   3.837   4.606   3.603  0.4094 -0.2666 -0.7556
  192MOL0     C25237   3.952   4.688   3.627  0.1251  0.1232  0.4820
  192MOL0     C25238   4.029   4.674   3.747 -0.3108  0.9185  0.0404
  192MOL0     C25239   4.145   4.753   3.766  0.6933  0.7312 -0.5354
  192MOL0     C25240   4.180   4.847   3.670  0.6642  1.4816 -0.0078
  192MOL0     C25241   4.303   4.927   3.691  1.1580 -0.1352  1.3431
  192MOL0     O25242   4.361   4.912   3.803 -0.5466  0.2839  0.1242
  192MOL0     C25243   4.503   4.914   3.821 -0.1593  1.1079  0.7410
  192MOL0     C25244   4.541   4.901   3.947 -0.6494 -0.1657  0.4689
  192MOL0     C25245   4.679   4.879   3.972 -0.2962 -0.2675 -0.3209
  192MOL0     C25246   4.771   4.867   3.868  0.5157 -0.4420  0.5161
  192MOL0     O25247   4.903   4.835   3.881 -0.6315 -0.6016  0.0218
  192MOL0     C25248   4.945   4.766   4.004  1.2822  0.3804 -0.5857
  192MOL0     C25249   5.088   4.716   3.991  1.1542 -0.2415  0.2917
  192MOL0     C25250   5.186   4.704   4.107 -0.1409  0.0828 -0.0752
  192MOL0     C25251   5.316   4.650   4.063  0.4307  0.9774  0.3492
  192MOL0     C25252   5.431   4.669   4.149 -0.9439  0.0922 -0.9116
  192MOL0     C25253   5.551   4.584   4.104 -0.4618 -0.5522 -0.1484
  192MOL0     C25254   5.664   4.592   4.203  0.6578 -0.2341 -0.2466
  192MOL0     C25255   5.765   4.483   4.175 -0.0951 -0.5328  0.2920
  192MOL0    Cl25256   5.822   4.515   4.010  0.2914  0.2834  0.5683
  192MOL0     C25257   4.725   4.890   3.739 -0.0008 -0.6104 -0.1900
  192MOL0     C25258   4.593   4.906   3.711 -0.5983 -0.3190 -0.3468
  192MOL0     O25259   4.342   4.985   3.593  0.2596  0.1399 -0.0322
  192MOL0     C25260   4.103   4.852   3.553  0.5671  0.1258 -0.2897
  192MOL0     C25261   3.994   4.768   3.528 -0.4517 -0.7575 -0.0442
  192MOL0     N25262   3.369   4.499   3.863  0.0202  0.8859 -0.0178
  192MOL0     N25263   3.264   4.480   3.925  0.7035 -0.3914 -0.5894
  192MOL0     C25264   2.814   3.830   3.151 -0.3444 -0.0942  0.6957
  192MOL0     C25265   2.830   3.806   3.015  0.6995  0.8116 -0.9262
  192MOL0     C25266   2.741   3.715   2.578  0.5842 -0.8303 -0.1440
  192MOL0     C25267   2.875   3.714   2.555  0.1984  0.3147 -0.6071
  192MOL0     C25268   2.926   3.687   2.428 -0.2033 -0.3123  1.1341
  192MOL0     C25269   2.835   3.655   2.321 -0.4561  0.1149  0.6238
  192MOL0     O25270   2.889   3.635   2.195 -0.4260 -0.0832 -0.4000
  192MOL0     C25271   2.812   3.558   2.104  0.6013  0.6756  1.0894
  192MOL0     C25272   2.889   3.566   1.963  0.1338  1.5686  0.0140
  192MOL0     C25273   2.810   3.494   1.853  0.1467  0.3770  0.4247
  192MOL0     C25274   2.878   3.504   1.720  0.1909 -0.2852  1.2312
  192MOL0     C25275   2.850   3.635   1.660  0.1658  1.3928  0.6161
  192MOL0     C25276   2.833   3.746   1.615  0.0057 -0.3727  0.2151
  192MOL0     C25277   2.697   3.665   2.339 -0.9744 -0.8215 -0.5320
  192MOL0     C25278   2.653   3.686   2.470 -0.3412  0.6618 -0.6355
  192MOL0     H25279   2.520   3.855   2.914 -0.8103  0.2352  2.0323
  192MOL0     H25280   2.506   3.941   3.150  0.5167  1.6205 -0.4163
  192MOL0     H25281   2.826   3.821   3.433  1.7883  1.7667  0.6285
  192MOL0     H25282   2.690   3.875   3.510  0.2373  0.3470  0.1526
  192MOL0     H25283   2.776   4.117   3.474 -2.2786 -2.0688 -3.3985
  192MOL0     H25284   2.932   4.040   3.435 -0.6626 -0.2771 -1.1107
  192MOL0     H25285   2.960   3.906   3.634  1.6663  1.4613 -0.0075
  192MOL0     H25286   2.819   3.974   3.708 -0.3381 -0.5330 -2.2062
  192MOL0     H25287   3.041   4.068   3.766 -0.4895  0.1005  2.0344
  192MOL0     H25288   3.056   4.146   3.603 -0.7986  0.2302 -1.3259
  192MOL0     H25289   2.851   4.224   3.787 -0.3025  4.4049 -0.2858
  192MOL0     H25290   2.880   4.282   3.619 -0.6211  2.4091  0.7804
  192MOL0     H25291   3.112   4.334   3.702 -0.8833 -0.2098 -1.7254
  192MOL0     H25292   3.040   4.288   3.869 -2.7416  1.1937  1.0395
  192MOL0     H25293   2.987   4.519   3.696  2.0737 -1.8465 -0.5403
  192MOL0     H25294   2.870   4.457   3.808 -0.3501  0.5643 -3.3478
  192MOL0     H25295   3.014   4.515   4.004 -4.7284  1.3287  0.1471
  192MOL0     H25296   2.978   4.641   3.912  0.9927 -0.1069 -2.2492
  192MOL0     H25297   3.201   4.738   3.735 -0.7639 -1.0061  0.0813
  192MOL0     H25298   3.539   4.708   3.776  2.1436 -0.4110 -2.8423
  192MOL0     H25299   3.426   4.763   3.657  2.1421  1.1810 -0.9552
  192MOL0     H25300   3.566   4.617   3.515  1.1360  1.9671  1.9392
  192MOL0     H25301   3.464   4.484   3.588  0.3758  0.4505  0.8061
  192MOL0     H25302   3.597   4.460   3.770  1.1470  2.2540  0.9318
  192MOL0     H25303   3.685   4.406   3.629  2.3016  1.3571  0.0137
  192MOL0     H25304   3.817   4.506   3.786  0.8415 -1.1667 -2.3576
  192MOL0     H25305   3.740   4.673   3.777  2.6520  1.0413  0.4314
  192MOL0     H25306   4.004   4.603   3.825  0.8639 -0.1717 -0.5368
  192MOL0     H25307   4.198   4.733   3.858  1.6378 -1.0965 -1.4285
  192MOL0     H25308   4.465   4.894   4.024 -2.2490  2.0117 -0.8057
  192MOL0     H25309   4.701   4.860   4.077  0.5360  2.1113 -0.0128
  192MOL0     H25310   4.884   4.676   4.022 -2.5147  2.3131 -2.4749
  192MOL0     H25311   4.937   4.837   4.087  1.0912 -0.8595  0.4981
  192MOL0     H25312   5.142   4.783   3.924  2.3013 -2.1299 -0.7645
  192MOL0     H25313   5.090   4.626   3.929 -2.4529  0.4931 -1.1131
  192MOL0     H25314   5.150   4.654   4.197  0.6603  1.7893  1.2418
  192MOL0     H25315   5.201   4.805   4.147 -1.2295  0.9047 -1.6142
  192MOL0     H25316   5.296   4.543   4.069 -0.2776  1.1398  0.9797
  192MOL0     H25317   5.329   4.675   3.957  1.2391 -0.6202  0.0485
  192MOL0     H25318   5.409   4.634   4.250 -0.0532  1.0131 -0.3807
  192MOL0     H25319   5.438   4.778   4.144  1.8861 -0.0041 -0.6083
  192MOL0     H25320   5.578   4.622   4.005  0.6041 -1.4852 -0.2432
  192MOL0     H25321   5.515   4.481   4.093 -1.4636 -0.2611  0.2737
  192MOL0     H25322   5.714   4.689   4.196  1.4960 -0.5406  1.0319
  192MOL0     H25323   5.614   4.589   4.300 -1.8255  1.3219 -1.3911
  192MOL0     H25324   5.722   4.383   4.161  0.5767 -0.4151 -3.9236
  192MOL0     H25325   5.849   4.480   4.245  0.7910  1.5782 -0.5859
  192MOL0     H25326   4.792   4.890   3.654  0.3835  1.5678  0.0683
  192MOL0     H25327   4.572   4.922   3.606  0.6878 -3.4822 -1.1890
  192MOL0     H25328   4.117   4.929   3.477 -1.4860  3.5899  2.4892
  192MOL0     H25329   3.940   4.767   3.434 -0.4695  0.8144 -0.0863
  192MOL0     H25330   2.888   3.817   3.229 -3.3864  0.5232  3.9298
  192MOL0     H25331   2.927   3.771   2.982  1.7395  0.9704  1.7470
  192MOL0     H25332   2.950   3.745   2.628  0.1543  1.8833 -1.1785
  192MOL0     H25333   3.031   3.688   2.400 -0.5156 -1.2450 -0.1611
  192MOL0     H25334   2.713   3.599   2.080  0.3172  0.6575  2.1668
  192MOL0     H25335   2.799   3.453   2.130  1.3578  0.9635  2.8166
  192MOL0     H25336   2.916   3.668   1.932  1.4738  0.6741 -1.9780
  192MOL0     H25337   2.983   3.518   1.990 -1.6352  0.1011  4.5052
  192MOL0     H25338   2.708   3.532   1.841 -0.3117 -1.1595 -0.7274
  192MOL0     H25339   2.797   3.393   1.893 -1.8613 -0.4095 -1.9754
  192MOL0     H25340   2.985   3.487   1.740  1.1761  3.1246 -0.5145
  192MOL0     H25341   2.837   3.427   1.654 -1.6567 -0.7699  2.8506
  192MOL0     H25342   2.849   3.847   1.581  1.9155  0.4326  3.1603
  192MOL0     H25343   2.632   3.663   2.252 -1.3714  1.3443 -0.3472
  192MOL0     H25344   2.550   3.719   2.467 -0.1520  1.1927 -1.7302
  193MOL0     O25345   4.620   7.214  10.146 -0.7741  0.0823  0.1329
  193MOL0     C25346   4.710   7.303  10.133 -0.2312  0.1559  0.0632
  193MOL0     O25347   4.844   7.281  10.119  0.5095 -1.0644  0.7170
  193MOL0     C25348   4.895   7.155  10.099  1.2598 -0.0534 -0.8234
  193MOL0     C25349   5.012   7.107  10.170  0.2835 -0.2880  0.6186
  193MOL0     C25350   5.058   6.973  10.121  0.8306 -0.6396 -0.6609
  193MOL0     C25351   5.008   6.909  10.006 -0.0601 -0.7712 -0.0096
  193MOL0     O25352   5.061   6.797   9.950 -0.0400  0.0682 -0.0665
  193MOL0     C25353   5.165   6.829   9.861 -0.9493  0.4421 -0.1493
  193MOL0     C25354   5.152   6.733   9.741 -1.1541 -0.2357 -0.0696
  193MOL0     C25355   5.039   6.767   9.644  0.1690  0.6364 -0.5044
  193MOL0     C25356   5.032   6.646   9.546 -0.6232  0.4330 -0.8681
  193MOL0     C25357   4.913   6.657   9.461  0.7221 -0.7510  0.1854
  193MOL0     C25358   4.932   6.753   9.343 -0.5946  0.6898 -0.1614
  193MOL0     C25359   4.814   6.840   9.312 -0.5030  0.6642 -0.4788
  193MOL0     C25360   4.805   6.880   9.169 -0.4567  0.3352  0.0923
  193MOL0     N25361   4.776   6.768   9.084 -0.6387  0.0158 -0.9096
  193MOL0     C25362   4.674   6.675   9.092 -0.0147 -0.3249 -0.3952
  193MOL0     C25363   4.719   6.561   9.037 -0.3438  0.4746  0.6812
  193MOL0     C25364   4.650   6.432   9.024  0.8643  0.2384 -0.2365
  193MOL0     C25365   4.547   6.423   8.920  0.0070 -1.0508  0.4382
  193MOL0     C25366   4.620   6.427   8.781 -0.2004 -0.6147 -0.3683
  193MOL0     C25367   4.516   6.385   8.674  0.0072 -0.9473  0.5128
  193MOL0     O25368   4.398   6.462   8.704  0.6099 -0.4102  0.6759
  193MOL0     C25369   4.290   6.450   8.609  0.3852  0.1188  0.1090
  193MOL0     C25370   4.179   6.516   8.641 -0.1372 -1.0001  0.7320
  193MOL0     C25371   4.064   6.522   8.551  0.8446 -0.5880 -0.4223
  193MOL0     C25372   4.070   6.458   8.422 -0.1252  1.1921  0.0786
  193MOL0     C25373   3.962   6.464   8.322  0.7169 -0.1278  0.1729
  193MOL0     O25374   3.990   6.399   8.204 -0.3956 -0.4071  1.0086
  193MOL0     C25375   3.889   6.367   8.123  0.2298 -0.2969 -0.0644
  193MOL0     C25376   3.812   6.459   8.061  0.4883 -0.7732 -0.7750
  193MOL0     C25377   3.691   6.422   7.997  0.2800  0.2911  0.8089
  193MOL0     C25378   3.670   6.284   7.960 -0.0615 -0.1656 -0.7228
  193MOL0     O25379   3.558   6.237   7.898 -0.3122  0.2324  0.1538
  193MOL0     C25380   3.461   6.333   7.871  0.1209  0.6181  0.0344
  193MOL0     C25381   3.326   6.256   7.846 -1.1363 -0.2212  0.3949
  193MOL0     C25382   3.219   6.347   7.799  0.3180 -0.2406  0.4582
  193MOL0     C25383   3.091   6.276   7.764 -0.0813 -0.8329 -0.7888
  193MOL0     C25384   2.993   6.381   7.716  0.9992  0.2905  1.1844
  193MOL0     C25385   2.878   6.316   7.625  0.1041  0.4100 -0.5448
  193MOL0     C25386   2.797   6.418   7.546 -0.6922  0.2716  0.6804
  193MOL0     C25387   2.668   6.351   7.496 -0.1577  0.1295 -0.0968
  193MOL0    Cl25388   2.578   6.456   7.390  0.0468 -0.1594  0.1771
  193MOL0     C25389   3.761   6.187   8.018  1.0215 -0.2711 -0.4953
  193MOL0     C25390   3.858   6.234   8.110 -0.7513 -0.6197 -0.2304
  193MOL0     O25391   3.850   6.510   8.354 -0.7243  0.3605  0.6678
  193MOL0     C25392   4.178   6.361   8.405  0.2733 -0.3019 -0.1543
  193MOL0     C25393   4.285   6.364   8.496 -0.5619 -0.0153  0.6755
  193MOL0     N25394   4.850   6.587   9.003  0.8046  0.9045 -0.1816
  193MOL0     N25395   4.882   6.706   9.018  0.6251 -0.0777 -0.6915
  193MOL0     C25396   4.884   6.957   9.961 -0.9743  0.6480  0.0386
  193MOL0     C25397   4.827   7.072  10.009  0.1655 -0.2689 -0.3648
  193MOL0     C25398   4.650   7.441  10.111 -1.0165  0.6939 -0.0033
  193MOL0     C25399   4.522   7.483  10.110  1.2906  1.2037  1.1346
  193MOL0     C25400   4.489   7.616  10.070  0.1239  0.8095 -0.2413
  193MOL0     C25401   4.583   7.719  10.060 -0.3269 -0.6485 -0.1075
  193MOL0     O25402   4.555   7.859  10.044 -0.5703  0.5819 -0.3030
  193MOL0     C25403   4.426   7.899  10.096 -0.6773  0.2571  0.4870
  193MOL0     C25404   4.436   8.051  10.119  0.0216 -0.1318 -0.2146
  193MOL0     C25405   4.301   8.089  10.193  0.3882 -1.0275 -1.0132
  193MOL0     C25406   4.268   8.237  10.193 -0.3092  0.0332  0.0230
  193MOL0     C25407   4.158   8.272  10.098 -0.9622  0.8926 -0.0066
  193MOL0     C25408   4.061   8.304  10.038  0.6641  0.6561 -0.1415
  193MOL0     C25409   4.716   7.671  10.054 -0.4154 -0.3279 -0.8544
  193MOL0     C25410   4.743   7.540  10.076 -0.3911 -0.3304 -0.2921
  193MOL0     H25411   5.073   7.160  10.243 -0.9690  5.1084 -1.7758
  193MOL0     H25412   5.144   6.939  10.177  2.5496  1.8935 -1.5856
  193MOL0     H25413   5.263   6.813   9.907  0.0961 -0.8796 -2.6666
  193MOL0     H25414   5.150   6.932   9.827  1.0609  0.6232 -0.5964
  193MOL0     H25415   5.144   6.636   9.790  1.4382  0.5370  2.1155
  193MOL0     H25416   5.244   6.734   9.682 -1.4210  1.9004 -0.5531
  193MOL0     H25417   5.063   6.857   9.587  0.1935  0.6042 -0.5440
  193MOL0     H25418   4.942   6.781   9.693  0.0673 -0.3082 -0.4270
  193MOL0     H25419   5.124   6.640   9.487 -1.0073  1.3193 -1.5836
  193MOL0     H25420   5.013   6.562   9.613  0.6636  2.1354  1.7998
  193MOL0     H25421   4.833   6.680   9.532  2.2735 -0.9809  2.0665
  193MOL0     H25422   4.894   6.558   9.420  1.0452 -0.8182  0.1957
  193MOL0     H25423   4.968   6.688   9.263  1.4965 -0.5495  1.6758
  193MOL0     H25424   5.015   6.823   9.358  1.4545 -1.3823 -1.2938
  193MOL0     H25425   4.732   6.781   9.352  0.9177  0.3504  2.1788
  193MOL0     H25426   4.820   6.937   9.363 -3.5839  1.5832 -1.6108
  193MOL0     H25427   4.905   6.911   9.138 -0.1064 -0.3091  0.5544
  193MOL0     H25428   4.742   6.966   9.145 -0.5985  0.9436  2.4251
  193MOL0     H25429   4.584   6.686   9.151 -0.1272 -0.7980 -0.4724
  193MOL0     H25430   4.587   6.415   9.112 -5.1415  3.0019 -3.3700
  193MOL0     H25431   4.726   6.355   9.013  1.0304  0.5674 -1.4972
  193MOL0     H25432   4.480   6.509   8.930 -0.9961 -1.8154  0.5090
  193MOL0     H25433   4.483   6.334   8.925 -2.5371  0.5785 -0.6793
  193MOL0     H25434   4.668   6.524   8.767  0.2013 -0.7291  0.1966
  193MOL0     H25435   4.699   6.352   8.790 -1.1823 -1.9170 -1.9215
  193MOL0     H25436   4.509   6.275   8.678 -0.8473 -1.0130 -1.6205
  193MOL0     H25437   4.548   6.405   8.572  0.1660 -3.8035 -0.0791
  193MOL0     H25438   4.193   6.572   8.733  1.6887 -0.5088  0.2001
  193MOL0     H25439   3.969   6.574   8.560  0.0065 -2.2565  0.9685
  193MOL0     H25440   3.819   6.564   8.087 -1.1406 -0.6910 -0.5705
  193MOL0     H25441   3.631   6.506   7.963 -2.3179 -1.2953  1.2755
  193MOL0     H25442   3.487   6.395   7.785  0.1734  1.6311  0.7712
  193MOL0     H25443   3.456   6.404   7.954  2.2125  3.1121 -1.8173
  193MOL0     H25444   3.294   6.209   7.939  2.1246 -2.1306  0.7073
  193MOL0     H25445   3.352   6.184   7.768  1.9283  1.3314 -0.1953
  193MOL0     H25446   3.262   6.399   7.713  4.7210 -1.6777  1.5596
  193MOL0     H25447   3.202   6.426   7.874 -3.8525  1.7438 -2.1862
  193MOL0     H25448   3.112   6.204   7.684 -0.2063 -2.6020  0.7013
  193MOL0     H25449   3.048   6.230   7.853  0.9693  1.4743  1.0065
  193MOL0     H25450   3.043   6.459   7.657 -0.2166  1.9556  2.2515
  193MOL0     H25451   2.943   6.428   7.801  2.1595 -0.8563  2.5456
  193MOL0     H25452   2.814   6.251   7.685 -1.1337  0.6119 -1.6174
  193MOL0     H25453   2.932   6.249   7.558  2.5584 -0.6160  2.2142
  193MOL0     H25454   2.776   6.503   7.611  1.8333  0.3711  1.4862
  193MOL0     H25455   2.858   6.457   7.464 -1.0910  3.4833  1.7722
  193MOL0     H25456   2.614   6.321   7.586 -0.6123 -0.0311 -0.4220
  193MOL0     H25457   2.688   6.260   7.439 -0.3257  1.4478 -2.3996
  193MOL0     H25458   3.742   6.085   7.987  0.9268 -0.9055  1.5070
  193MOL0     H25459   3.933   6.169   8.155 -0.0535  2.8562  4.3119
  193MOL0     H25460   4.189   6.301   8.315  2.1169 -1.2278  0.6324
  193MOL0     H25461   4.372   6.303   8.476 -1.0151 -0.6959  0.7713
  193MOL0     H25462   4.820   6.894   9.899  2.6381 -4.0452  0.5460
  193MOL0     H25463   4.736   7.094   9.954  1.3443 -1.7882 -3.1128
  193MOL0     H25464   4.438   7.415  10.124  0.7831  2.2398  3.4905
  193MOL0     H25465   4.383   7.634  10.058 -0.1560  2.7587  3.5372
  193MOL0     H25466   4.413   7.854  10.195 -1.8093 -0.2387  0.1199
  193MOL0     H25467   4.341   7.876  10.031 -1.1893  0.7205  0.9788
  193MOL0     H25468   4.522   8.084  10.179  1.9985 -0.6058 -2.6050
  193MOL0     H25469   4.442   8.101  10.022 -1.7720 -0.0287 -0.3038
  193MOL0     H25470   4.297   8.043  10.293  0.8716 -0.7884 -0.8825
  193MOL0     H25471   4.226   8.042  10.129 -2.1809 -0.1088  1.1426
  193MOL0     H25472   4.225   8.252  10.293 -0.4108  2.0449 -0.2812
  193MOL0     H25473   4.353   8.303  10.180  0.0443  0.2833  2.8997
  193MOL0     H25474   3.970   8.323   9.985  0.8851 -0.3329 -0.8907
  193MOL0     H25475   4.800   7.738  10.041 -0.6741  0.5986  1.7770
  193MOL0     H25476   4.849   7.514  10.072  0.8129  3.8595  0.0674
  194MOL0     O25477  10.112   0.665  10.839 -0.5210 -0.2539 -0.0006
  194MOL0     C25478  10.062   0.741  10.919 -0.2447  0.1788 -0.4994
  194MOL0     O25479   9.946   0.802  10.900  0.3977  0.0163  0.9544
  194MOL0     C25480   9.832   0.737  10.846 -0.2570  0.0922  0.2546
  194MOL0     C25481   9.806   0.599  10.844 -0.1856  0.0555 -0.9165
  194MOL0     C25482   9.692   0.548  10.801  1.0336  0.1634 -0.7028
  194MOL0     C25483   9.587   0.631  10.753 -1.1170  0.3798 -0.7816
  194MOL0     O25484   9.467   0.573  10.730 -0.5210  0.6593  0.6033
  194MOL0     C25485   9.347   0.656  10.716 -0.1242  0.2263  0.1781
  194MOL0     C25486   9.307   0.650  10.566  0.5259 -0.5032 -0.3259
  194MOL0     C25487   9.193   0.744  10.552  0.4735  0.6895 -0.0677
  194MOL0     C25488   9.153   0.765  10.402  0.5918  0.1747  0.5207
  194MOL0     C25489   9.063   0.656  10.342 -0.3507  0.1765 -0.1906
  194MOL0     C25490   9.034   0.691  10.196  0.3653  0.5321 -0.3131
  194MOL0     C25491   8.938   0.597  10.124  0.2421  1.7338  0.0633
  194MOL0     C25492   8.910   0.645   9.982  0.3875 -0.1792  0.0277
  194MOL0     N25493   8.794   0.572   9.932 -0.6686  0.7928 -0.3144
  194MOL0     C25494   8.665   0.570   9.984 -0.0272 -0.9239  0.4741
  194MOL0     C25495   8.592   0.497   9.888 -0.2241  0.1070 -0.7071
  194MOL0     C25496   8.447   0.470   9.924  0.3582  0.1493  0.5672
  194MOL0     C25497   8.368   0.603   9.892 -0.3171 -0.6881  1.1182
  194MOL0     C25498   8.220   0.571   9.907 -0.6749 -0.2137 -0.4518
  194MOL0     C25499   8.169   0.507  10.043 -0.1506  0.0699 -0.4184
  194MOL0     O25500   8.039   0.545  10.072 -0.0805  0.2882  0.4403
  194MOL0     C25501   7.942   0.464  10.039 -0.2551 -0.5746  1.2901
  194MOL0     C25502   7.811   0.525  10.053 -0.2481 -0.0223 -0.7802
  194MOL0     C25503   7.698   0.460  10.008 -0.6799 -0.5206  0.3726
  194MOL0     C25504   7.707   0.336   9.941 -0.0636 -0.0464 -0.2927
  194MOL0     C25505   7.589   0.273   9.884  0.8079  0.4105 -0.9036
  194MOL0     O25506   7.609   0.167   9.800  0.7706  0.9058  0.6637
  194MOL0     C25507   7.509   0.098   9.736  0.3234 -0.5472 -0.5825
  194MOL0     C25508   7.371   0.133   9.741  0.7015 -0.9373 -0.7379
  194MOL0     C25509   7.279   0.056   9.675  0.3198  1.0843  0.0149
  194MOL0     C25510   7.315  -0.070   9.627 -0.2917 -0.8863 -0.7124
  194MOL0     O25511   7.214  -0.133   9.568  0.3579 -0.3094  0.3649
  194MOL0     C25512   7.243  -0.234   9.476 -0.1896  0.6904 -0.2080
  194MOL0     C25513   7.257  -0.376   9.545 -0.5132  0.3182  0.2966
  194MOL0     C25514   7.328  -0.470   9.452 -0.9531  1.2766  0.6343
  194MOL0     C25515   7.282  -0.622   9.482  1.0361 -0.5869  0.4805
  194MOL0     C25516   7.303  -0.660   9.627 -0.7322 -0.5277  0.0451
  194MOL0     C25517   7.450  -0.630   9.680 -0.0402  0.1910 -0.1918
  194MOL0     C25518   7.484  -0.665   9.826  0.7135  0.2551  0.0844
  194MOL0     C25519   7.631  -0.629   9.841  0.7266  0.9938 -0.3327
  194MOL0    Cl25520   7.710  -0.685  10.000  0.0244 -0.3933  0.0225
  194MOL0     C25521   7.451  -0.105   9.617 -0.0359  0.0001 -0.1962
  194MOL0     C25522   7.546  -0.022   9.675 -0.6620  0.1291 -0.4070
  194MOL0     O25523   7.482   0.331   9.916  0.6268 -0.7513 -0.1625
  194MOL0     C25524   7.829   0.268   9.936  0.0049  0.1225 -0.8222
  194MOL0     C25525   7.949   0.336   9.977  0.1085  1.2545  0.4914
  194MOL0     N25526   8.666   0.472   9.781  0.6846 -0.9861 -0.2861
  194MOL0     N25527   8.783   0.522   9.807  0.8223  0.2547  0.5408
  194MOL0     C25528   9.619   0.764  10.732 -0.0153 -0.0490  0.5804
  194MOL0     C25529   9.735   0.817  10.783 -0.0689 -0.0347 -0.4670
  194MOL0     C25530  10.145   0.790  11.038  0.4371 -0.0427  0.4908
  194MOL0     C25531  10.086   0.876  11.126 -0.6003  0.2401 -0.6749
  194MOL0     C25532  10.147   0.937  11.232 -0.2950 -0.5746  0.3605
  194MOL0     C25533  10.287   0.927  11.246  0.1335  0.3543 -0.4271
  194MOL0     O25534  10.347   1.005  11.342  0.3806  0.5573 -0.0758
  194MOL0     C25535  10.493   1.024  11.332  0.4582  0.9805 -1.1193
  194MOL0     C25536  10.513   1.145  11.423  1.3635  0.1750  1.5421
  194MOL0     C25537  10.656   1.197  11.406 -0.4278 -0.1910 -0.5399
  194MOL0     C25538  10.676   1.324  11.485  0.2422 -0.7007  0.5870
  194MOL0     C25539  10.584   1.433  11.441 -0.6999  0.2702 -0.0429
  194MOL0     C25540  10.523   1.525  11.407  0.7934  0.3248 -0.4075
  194MOL0     C25541  10.351   0.827  11.172  0.0677 -0.5702  0.3508
  194MOL0     C25542  10.281   0.761  11.069  0.0848  0.2300 -0.4610
  194MOL0     H25543   9.886   0.539  10.885  1.6039  2.8380 -0.1082
  194MOL0     H25544   9.669   0.442  10.797 -1.7614  0.4962  2.1041
  194MOL0     H25545   9.365   0.757  10.754 -0.8619 -0.9071  3.8706
  194MOL0     H25546   9.266   0.632  10.785 -0.1368  1.8140  0.7465
  194MOL0     H25547   9.285   0.553  10.521  0.5197 -0.3687 -0.6118
  194MOL0     H25548   9.395   0.691  10.515  1.6030 -0.3971  1.5177
  194MOL0     H25549   9.214   0.843  10.594 -0.6813  2.1338 -2.7092
  194MOL0     H25550   9.115   0.685  10.601  0.5446 -0.3860 -1.2226
  194MOL0     H25551   9.087   0.850  10.385  0.2600 -0.6097 -3.0296
  194MOL0     H25552   9.247   0.780  10.347  0.0969 -2.8121 -1.4249
  194MOL0     H25553   8.971   0.658  10.401 -1.2073  1.3353 -1.4891
  194MOL0     H25554   9.113   0.559  10.355  1.6140  1.2963  0.8866
  194MOL0     H25555   9.129   0.667  10.148  0.3810 -2.0749  0.8469
  194MOL0     H25556   8.993   0.790  10.174 -2.3308 -0.3776  0.1354
  194MOL0     H25557   8.983   0.497  10.116  1.0387  2.2253 -3.2028
  194MOL0     H25558   8.849   0.594  10.187  2.3509  1.8826  3.2818
  194MOL0     H25559   9.000   0.629   9.922  0.2438 -2.9240  0.4202
  194MOL0     H25560   8.886   0.752   9.992 -0.5523 -0.5805  4.9595
  194MOL0     H25561   8.616   0.624  10.065 -0.1602  2.0891 -1.4286
  194MOL0     H25562   8.435   0.442  10.029 -1.0001 -1.8406 -0.0626
  194MOL0     H25563   8.414   0.385   9.864  1.2171  0.0363  0.2396
  194MOL0     H25564   8.383   0.649   9.794 -1.8097  1.9440  2.0157
  194MOL0     H25565   8.391   0.689   9.956 -0.5274  0.0462  0.2241
  194MOL0     H25566   8.177   0.671   9.891  4.2755  2.0884 -1.3530
  194MOL0     H25567   8.192   0.511   9.820  0.3706 -2.7557  0.8785
  194MOL0     H25568   8.234   0.543  10.123 -1.5288 -1.5901  1.5506
  194MOL0     H25569   8.180   0.399  10.054 -0.9265  0.0624  0.4030
  194MOL0     H25570   7.797   0.620  10.106 -3.8974 -1.4299  1.1318
  194MOL0     H25571   7.609   0.522  10.007 -0.3543  0.0644 -2.7899
  194MOL0     H25572   7.321   0.205   9.805 -1.0228 -2.3170 -0.4764
  194MOL0     H25573   7.173   0.081   9.680 -0.7416 -1.3837 -4.8001
  194MOL0     H25574   7.340  -0.212   9.431  1.1867 -4.0005 -0.0719
  194MOL0     H25575   7.163  -0.245   9.403  0.5106  2.6579 -1.3597
  194MOL0     H25576   7.155  -0.404   9.573 -0.3804  0.8436  1.3553
  194MOL0     H25577   7.309  -0.362   9.640 -0.1931  1.8256 -0.0702
  194MOL0     H25578   7.437  -0.468   9.455 -0.4899 -5.0040  0.0811
  194MOL0     H25579   7.309  -0.439   9.349 -0.4200  3.8887  1.2547
  194MOL0     H25580   7.181  -0.647   9.448  0.0917  2.9044  0.2289
  194MOL0     H25581   7.346  -0.686   9.422  0.6745 -2.3839  1.9341
  194MOL0     H25582   7.284  -0.767   9.643  1.5930 -0.9738  0.1957
  194MOL0     H25583   7.229  -0.602   9.683  0.1380  0.5933  0.0679
  194MOL0     H25584   7.471  -0.523   9.684  3.2295 -0.3274  0.0378
  194MOL0     H25585   7.523  -0.683   9.617  0.0513 -1.4063  1.1994
  194MOL0     H25586   7.412  -0.615   9.890  0.0467 -1.2565  0.5538
  194MOL0     H25587   7.451  -0.768   9.841 -2.1722  0.8566 -1.3486
  194MOL0     H25588   7.650  -0.524   9.819 -1.0138  2.6660  4.7264
  194MOL0     H25589   7.693  -0.680   9.767  1.5815  2.1839 -0.4507
  194MOL0     H25590   7.484  -0.193   9.563  2.8737 -0.1408  1.5860
  194MOL0     H25591   7.647  -0.049   9.646 -0.6456 -2.0010  1.3925
  194MOL0     H25592   7.849   0.172   9.890 -1.5974 -0.2086 -0.9029
  194MOL0     H25593   8.036   0.279   9.947 -1.2217  0.1152 -1.4185
  194MOL0     H25594   9.541   0.817  10.680 -1.1785 -1.6444  0.6214
  194MOL0     H25595   9.769   0.920  10.769 -4.4667  2.2871  3.3414
  194MOL0     H25596   9.983   0.910  11.116 -0.1965  2.3689  1.4807
  194MOL0     H25597  10.086   1.004  11.293 -0.5278 -1.2893  0.9288
  194MOL0     H25598  10.517   1.048  11.228 -0.6272  0.0794 -1.5961
  194MOL0     H25599  10.549   0.937  11.368 -2.1292  0.2662  1.6159
  194MOL0     H25600  10.442   1.221  11.390  0.2966 -0.7992  1.5388
  194MOL0     H25601  10.483   1.118  11.525 -2.7347 -0.0971  0.4359
  194MOL0     H25602  10.679   1.230  11.304 -1.3459  3.6801  0.3476
  194MOL0     H25603  10.730   1.120  11.430  0.4271  0.9212  0.5619
  194MOL0     H25604  10.655   1.308  11.591 -0.5132 -2.5141  0.1991
  194MOL0     H25605  10.778   1.362  11.494  0.1641 -0.0916 -0.7963
  194MOL0     H25606  10.459   1.605  11.379 -0.0991 -0.4789 -0.7283
  194MOL0     H25607  10.460   0.827  11.176  0.2005  3.3457  0.5639
  194MOL0     H25608  10.332   0.700  10.995  1.4297  0.7688 -0.0103
  195MOL0     O25609   6.568   4.809   0.034  0.6742 -0.2230  0.7539
  195MOL0     C25610   6.458   4.849   0.000  0.3738  0.0223  0.6186
  195MOL0     O25611   6.364   4.775  -0.047 -0.2516 -0.3961  1.3769
  195MOL0     C25612   6.363   4.640  -0.020  0.7788 -0.0545  0.2394
  195MOL0     C25613   6.316   4.588   0.106  0.0426 -0.2140 -0.9096
  195MOL0     C25614   6.315   4.450   0.137 -1.4611 -0.6531  0.3306
  195MOL0     C25615   6.353   4.363   0.027  0.0389 -0.0959 -0.0266
  195MOL0     O25616   6.352   4.233   0.053 -0.4326  0.2409  0.3113
  195MOL0     C25617   6.367   4.139  -0.058 -0.0431 -0.6916  0.0083
  195MOL0     C25618   6.397   4.001  -0.017  0.3884 -0.9254  0.0498
  195MOL0     C25619   6.350   3.891  -0.124  0.1756 -0.6004 -0.4183
  195MOL0     C25620   6.380   3.744  -0.092 -0.6068 -0.4550 -0.1389
  195MOL0     C25621   6.514   3.708  -0.037  0.3707 -0.2432  0.0901
  195MOL0     C25622   6.624   3.750  -0.132 -1.0031  0.1895  0.8529
  195MOL0     C25623   6.775   3.717  -0.094  0.1174  0.8080 -0.0622
  195MOL0     C25624   6.872   3.802  -0.166 -0.6362 -1.0676 -0.2062
  195MOL0     N25625   6.847   3.944  -0.168 -0.5660  0.5963 -0.3200
  195MOL0     C25626   6.839   4.013  -0.279  0.1761 -2.0316 -0.6796
  195MOL0     C25627   6.835   4.145  -0.240 -0.9203 -0.1104 -0.0061
  195MOL0     C25628   6.825   4.255  -0.329 -0.7418 -1.2123  0.1150
  195MOL0     C25629   6.679   4.273  -0.344  0.4285  0.1479  0.0462
  195MOL0     C25630   6.636   4.378  -0.441  0.0236  0.1186  0.4622
  195MOL0     C25631   6.484   4.385  -0.446 -0.0859  0.6224  0.2720
  195MOL0     O25632   6.420   4.260  -0.424 -0.5142 -0.5262  0.1442
  195MOL0     C25633   6.284   4.276  -0.445  0.0595  0.4123  0.3889
  195MOL0     C25634   6.209   4.154  -0.467 -0.2504  0.3193 -0.4982
  195MOL0     C25635   6.073   4.156  -0.488  0.0220 -0.1814 -0.0917
  195MOL0     C25636   5.997   4.276  -0.486  0.2414 -0.1932  0.4226
  195MOL0     C25637   5.851   4.274  -0.507 -0.1842  0.3976 -0.1974
  195MOL0     O25638   5.771   4.367  -0.451  0.2092 -0.7935  0.3364
  195MOL0     C25639   5.634   4.344  -0.420 -0.4713  0.2827  0.8436
  195MOL0     C25640   5.591   4.413  -0.309  0.3229  0.8149  0.1265
  195MOL0     C25641   5.467   4.402  -0.261 -0.7582  0.3966  0.3513
  195MOL0     C25642   5.384   4.321  -0.332  0.0377 -0.3125 -0.3244
  195MOL0     O25643   5.261   4.306  -0.270 -0.5238 -0.1901 -0.5611
  195MOL0     C25644   5.154   4.221  -0.302 -0.0507 -1.0345  0.0110
  195MOL0     C25645   5.025   4.281  -0.235 -0.6487  0.1814 -0.2115
  195MOL0     C25646   5.011   4.257  -0.079 -0.6483 -0.2466 -0.4883
  195MOL0     C25647   4.900   4.346  -0.011 -0.0199 -0.1123 -1.0429
  195MOL0     C25648   4.865   4.299   0.135 -0.2567  0.3844 -0.0057
  195MOL0     C25649   4.795   4.171   0.152  0.4375 -0.7301  0.0601
  195MOL0     C25650   4.764   4.149   0.297 -0.1330  1.1995  0.1298
  195MOL0     C25651   4.664   4.045   0.329  0.4579 -0.1070 -0.4930
  195MOL0    Cl25652   4.768   3.892   0.319 -0.6168  0.4188 -0.3819
  195MOL0     C25653   5.425   4.254  -0.447  0.9778  0.4236  0.3941
  195MOL0     C25654   5.549   4.269  -0.498  0.6086 -0.1349 -0.0156
  195MOL0     O25655   5.815   4.184  -0.582 -0.1609  0.2297  0.2770
  195MOL0     C25656   6.071   4.390  -0.459  0.4559  0.3970 -0.8586
  195MOL0     C25657   6.201   4.390  -0.428  0.0208 -0.6059  0.8732
  195MOL0     N25658   6.839   4.145  -0.102  0.0645  0.0892 -1.2353
  195MOL0     N25659   6.862   4.025  -0.057  0.9301  0.2753  0.2094
  195MOL0     C25660   6.384   4.419  -0.097 -0.0358  0.9697  1.2425
  195MOL0     C25661   6.388   4.555  -0.121  0.0432  0.6314 -0.2284
  195MOL0     C25662   6.434   4.990  -0.015 -0.2841 -1.0822  0.2625
  195MOL0     C25663   6.308   5.038  -0.067 -0.0895  0.1400 -0.1810
  195MOL0     C25664   6.275   5.173  -0.054 -0.3787 -0.3158 -0.3002
  195MOL0     C25665   6.372   5.259  -0.002  0.0063  0.2149  0.7011
  195MOL0     O25666   6.334   5.390   0.045  0.5054  0.7040  0.1062
  195MOL0     C25667   6.286   5.478  -0.064 -0.5932  1.4358  0.1046
  195MOL0     C25668   6.233   5.601   0.005  0.1303  0.7763 -0.0705
  195MOL0     C25669   6.224   5.716  -0.097  0.8215  0.3100 -0.0550
  195MOL0     C25670   6.178   5.835  -0.029 -0.0138  0.7499 -0.4183
  195MOL0     C25671   6.029   5.838  -0.002  0.0877 -0.6061  0.7062
  195MOL0     C25672   5.912   5.860   0.022 -0.2315 -0.8023  0.0839
  195MOL0     C25673   6.494   5.215   0.045 -2.2034  0.6835  0.3290
  195MOL0     C25674   6.526   5.082   0.042  0.0191 -0.6879  0.0493
  195MOL0     H25675   6.301   4.660   0.185  2.4537 -1.9459  1.3054
  195MOL0     H25676   6.290   4.420   0.238  1.5593 -1.9069  0.8321
  195MOL0     H25677   6.457   4.173  -0.110  0.9393 -0.4883  1.7852
  195MOL0     H25678   6.282   4.152  -0.126 -0.0635  3.0275  0.5491
  195MOL0     H25679   6.358   3.986   0.084  1.1583 -1.0129  0.3343
  195MOL0     H25680   6.504   3.997   0.005  1.0120  2.6166 -1.5922
  195MOL0     H25681   6.402   3.919  -0.216 -1.0363  1.6163 -0.4930
  195MOL0     H25682   6.241   3.899  -0.128  0.1207 -0.2013  1.1306
  195MOL0     H25683   6.305   3.713  -0.019 -1.1929  0.3848 -0.3682
  195MOL0     H25684   6.356   3.684  -0.180 -0.5889 -0.3510 -0.2150
  195MOL0     H25685   6.533   3.602  -0.019  2.3711 -0.0171 -0.4433
  195MOL0     H25686   6.523   3.750   0.064 -4.1465  0.0378  0.5882
  195MOL0     H25687   6.623   3.860  -0.136  1.3463  0.2547 -0.0792
  195MOL0     H25688   6.611   3.707  -0.232 -1.0739 -1.9454  1.7445
  195MOL0     H25689   6.788   3.735   0.013 -1.8080  2.7663 -0.1146
  195MOL0     H25690   6.787   3.611  -0.119  0.7161  1.1995 -1.5798
  195MOL0     H25691   6.880   3.774  -0.271  1.2959  1.1557 -0.7345
  195MOL0     H25692   6.975   3.788  -0.131  0.2476  0.5848 -1.9258
  195MOL0     H25693   6.833   3.976  -0.381  2.1216 -0.9350 -1.2392
  195MOL0     H25694   6.881   4.238  -0.422  2.6283  0.3910  1.6812
  195MOL0     H25695   6.862   4.347  -0.282  0.1778 -2.3026  1.6267
  195MOL0     H25696   6.628   4.302  -0.252 -0.1826 -0.5990 -0.0488
  195MOL0     H25697   6.633   4.176  -0.364 -1.5380  0.3233  3.0529
  195MOL0     H25698   6.684   4.470  -0.406 -1.4443  1.1510 -0.1411
  195MOL0     H25699   6.662   4.354  -0.544 -3.0915 -1.2971 -0.1219
  195MOL0     H25700   6.453   4.441  -0.534  3.0419 -0.5500 -1.7454
  195MOL0     H25701   6.462   4.455  -0.365 -2.4426 -1.2470  1.3621
  195MOL0     H25702   6.264   4.063  -0.450 -1.5810 -1.0239 -2.7657
  195MOL0     H25703   6.024   4.062  -0.514 -0.5885 -0.3954  1.7179
  195MOL0     H25704   5.660   4.489  -0.273 -0.2547  1.0436  0.7588
  195MOL0     H25705   5.432   4.452  -0.171 -0.0763  0.8038  0.4010
  195MOL0     H25706   5.166   4.124  -0.253 -1.2341 -0.5193  1.3923
  195MOL0     H25707   5.124   4.213  -0.407 -3.3160 -3.7537  0.9800
  195MOL0     H25708   4.939   4.232  -0.282 -0.4836 -2.6508  2.1666
  195MOL0     H25709   5.029   4.387  -0.260  3.6622  0.1721 -0.2795
  195MOL0     H25710   5.111   4.282  -0.042 -0.1332 -1.2709 -1.1462
  195MOL0     H25711   4.984   4.151  -0.070 -1.6882  0.0557  0.1475
  195MOL0     H25712   4.927   4.452  -0.003 -1.8640  0.2746  1.3418
  195MOL0     H25713   4.803   4.337  -0.061 -1.4425  0.9709  1.3472
  195MOL0     H25714   4.807   4.382   0.177  0.9383  1.1487  0.1646
  195MOL0     H25715   4.958   4.288   0.191 -1.3999 -1.0893  1.7511
  195MOL0     H25716   4.856   4.089   0.115  1.9568  1.6533 -3.1188
  195MOL0     H25717   4.699   4.172   0.099  1.0760 -0.5516 -1.1062
  195MOL0     H25718   4.862   4.132   0.344  0.1408 -1.6756 -1.2534
  195MOL0     H25719   4.719   4.238   0.342 -1.7058  0.6612 -0.3038
  195MOL0     H25720   4.580   4.030   0.260  0.6675  4.2144 -2.0038
  195MOL0     H25721   4.628   4.040   0.432  2.0685  2.2420  0.2546
  195MOL0     H25722   5.366   4.173  -0.489  0.6228  0.2182  1.2782
  195MOL0     H25723   5.578   4.224  -0.592  0.1780  0.6369 -0.5310
  195MOL0     H25724   6.023   4.487  -0.451  1.7133  1.0273  6.1613
  195MOL0     H25725   6.251   4.485  -0.414 -2.2114  1.1555 -2.0735
  195MOL0     H25726   6.400   4.355  -0.183  1.8582  0.6128  1.8133
  195MOL0     H25727   6.405   4.602  -0.217 -0.4279  0.7877 -0.2405
  195MOL0     H25728   6.233   4.982  -0.122 -2.5976  2.7632  0.3416
  195MOL0     H25729   6.188   5.218  -0.100  0.3459  0.4277 -0.9887
  195MOL0     H25730   6.199   5.436  -0.114 -1.3074 -0.6012  2.7817
  195MOL0     H25731   6.369   5.495  -0.133  1.9588 -2.0569  1.9754
  195MOL0     H25732   6.138   5.571   0.051  0.6047  1.1315  1.1602
  195MOL0     H25733   6.302   5.632   0.083  0.9478 -0.4115 -0.2883
  195MOL0     H25734   6.145   5.698  -0.170  1.3792  3.1869 -1.5028
  195MOL0     H25735   6.316   5.734  -0.154  0.3841 -0.8331 -1.1498
  195MOL0     H25736   6.237   5.831   0.063  1.0468  1.2753 -1.0548
  195MOL0     H25737   6.220   5.916  -0.088  0.3145  0.7497 -0.1855
  195MOL0     H25738   5.807   5.883   0.028 -0.2216 -0.4558 -0.8877
  195MOL0     H25739   6.560   5.294   0.080  0.2785 -1.1661  0.1031
  195MOL0     H25740   6.617   5.044   0.087  0.9123  2.7975  1.5352
  196MOL0     O25741   8.537   1.546   8.422  0.0474 -0.4668  0.5297
  196MOL0     C25742   8.581   1.488   8.326 -0.1324 -0.2181  0.9410
  196MOL0     O25743   8.503   1.432   8.235 -0.0183 -0.2540 -0.4361
  196MOL0     C25744   8.363   1.441   8.216 -0.7123 -0.6714 -0.5026
  196MOL0     C25745   8.276   1.534   8.286  0.7493  0.5118  0.6144
  196MOL0     C25746   8.135   1.528   8.268 -0.7418  0.1933 -0.4801
  196MOL0     C25747   8.081   1.427   8.179  0.5696  0.6010 -0.3030
  196MOL0     O25748   7.938   1.421   8.172  0.0442  0.4016 -0.2399
  196MOL0     C25749   7.876   1.323   8.084  0.5848  0.0254  0.0887
  196MOL0     C25750   7.720   1.348   8.088  0.0195 -0.3169  0.5972
  196MOL0     C25751   7.644   1.246   8.007  0.6441  1.0330  0.4661
  196MOL0     C25752   7.497   1.261   8.038  0.4389  0.1266  0.0587
  196MOL0     C25753   7.414   1.159   7.950  0.2055  0.2630  1.0284
  196MOL0     C25754   7.333   1.051   8.010 -0.5850 -0.0020  0.6538
  196MOL0     C25755   7.260   0.961   7.908 -1.2933  0.2187 -0.6804
  196MOL0     C25756   7.121   1.014   7.860  0.3537 -0.0622 -0.0650
  196MOL0     N25757   7.010   0.965   7.939  0.3630 -0.0134 -0.8931
  196MOL0     C25758   6.874   0.974   7.899  0.4938 -0.7999  0.0799
  196MOL0     C25759   6.797   0.911   7.990 -0.4954  0.2308 -0.2783
  196MOL0     C25760   6.643   0.907   8.007  0.1374 -0.1781 -0.2713
  196MOL0     C25761   6.576   0.791   7.922 -0.1509 -0.3147  0.2981
  196MOL0     C25762   6.648   0.658   7.930 -1.2115 -0.1174 -0.0788
  196MOL0     C25763   6.595   0.540   7.852  0.4509 -0.4923 -0.7755
  196MOL0     O25764   6.625   0.574   7.716  0.0009  0.4027  0.0569
  196MOL0     C25765   6.591   0.480   7.616  0.3764  0.4713 -0.5737
  196MOL0     C25766   6.600   0.525   7.486 -1.4438  0.1570 -0.0610
  196MOL0     C25767   6.550   0.443   7.375  0.9732 -0.3827  0.1083
  196MOL0     C25768   6.503   0.310   7.406 -0.0267  0.5534 -0.2449
  196MOL0     C25769   6.439   0.226   7.307 -0.7744 -0.0329  0.2975
  196MOL0     O25770   6.426   0.287   7.176 -0.0049 -0.3547  0.0691
  196MOL0     C25771   6.367   0.223   7.074  0.1949 -0.1586 -0.0251
  196MOL0     C25772   6.260   0.139   7.084  0.8090 -0.1979 -0.4188
  196MOL0     C25773   6.197   0.081   6.978  0.0760  0.0641 -0.4757
  196MOL0     C25774   6.231   0.115   6.845  0.1935  0.0385  0.0025
  196MOL0     O25775   6.160   0.077   6.729 -0.1566  1.3678  0.2205
  196MOL0     C25776   6.093  -0.051   6.728 -0.0824  0.0227 -0.0335
  196MOL0     C25777   5.975  -0.070   6.634 -0.6738 -0.5860  0.3381
  196MOL0     C25778   6.033  -0.075   6.492 -0.0514  0.4826  0.8163
  196MOL0     C25779   5.919  -0.098   6.395 -1.6892  0.4518 -1.0148
  196MOL0     C25780   5.963  -0.172   6.275 -0.0313 -0.0720 -0.2879
  196MOL0     C25781   5.898  -0.316   6.263 -0.4935  0.3416  0.4388
  196MOL0     C25782   5.958  -0.423   6.353 -0.0576  1.0961  0.4447
  196MOL0     C25783   5.845  -0.531   6.388 -0.7074 -0.7499 -0.1971
  196MOL0    Cl25784   5.768  -0.592   6.244  0.5947  0.0171 -0.3209
  196MOL0     C25785   6.339   0.201   6.824 -0.5659 -0.6794 -0.6104
  196MOL0     C25786   6.404   0.264   6.937  0.2319 -0.4811 -0.9160
  196MOL0     O25787   6.438   0.107   7.336  0.3461 -0.4594 -0.1721
  196MOL0     C25788   6.518   0.265   7.533  0.6339  0.0150  0.0384
  196MOL0     C25789   6.561   0.344   7.636  0.4825 -0.6167  0.1690
  196MOL0     N25790   6.885   0.863   8.091  0.4605  0.1271 -0.7729
  196MOL0     N25791   7.001   0.907   8.063 -0.1202 -0.1281 -1.2131
  196MOL0     C25792   8.164   1.345   8.100  0.0834  0.2851 -0.0644
  196MOL0     C25793   8.302   1.355   8.121  0.3121  0.3316  0.2208
  196MOL0     C25794   8.726   1.472   8.319 -0.6475  0.3374  0.3657
  196MOL0     C25795   8.798   1.369   8.247  0.2334  0.4406  0.4499
  196MOL0     C25796   8.931   1.338   8.273  0.1620  0.2539 -0.1671
  196MOL0     C25797   9.010   1.412   8.360 -0.4824 -0.5623  0.6818
  196MOL0     O25798   9.131   1.368   8.397 -0.4245  1.4899 -0.5136
  196MOL0     C25799   9.187   1.405   8.524  0.9995 -0.2056  0.2491
  196MOL0     C25800   9.291   1.308   8.561  0.4612 -0.2372 -0.1902
  196MOL0     C25801   9.347   1.357   8.702 -0.3703  0.4087  0.7156
  196MOL0     C25802   9.451   1.261   8.753  0.3292 -0.5531  0.1600
  196MOL0     C25803   9.484   1.297   8.899  0.1528  0.2532 -0.0686
  196MOL0     C25804   9.493   1.326   9.013 -0.1206  0.4145 -0.6031
  196MOL0     C25805   8.946   1.523   8.417 -0.0497  0.2705 -0.7414
  196MOL0     C25806   8.811   1.559   8.386  0.1971 -0.2103  0.1198
  196MOL0     H25807   8.319   1.618   8.340 -0.8373  0.1411  2.5676
  196MOL0     H25808   8.088   1.595   8.338  3.6655  2.0203  1.1165
  196MOL0     H25809   7.897   1.219   8.113 -0.1772 -0.0487  0.4111
  196MOL0     H25810   7.916   1.339   7.984  4.0211  1.7005  1.5523
  196MOL0     H25811   7.699   1.446   8.045 -0.4814  0.0049  1.5473
  196MOL0     H25812   7.688   1.343   8.192 -0.2643 -2.0493  0.4462
  196MOL0     H25813   7.671   1.147   8.044 -0.1408 -0.3476 -2.3956
  196MOL0     H25814   7.656   1.269   7.901 -1.8162 -1.2734 -0.4287
  196MOL0     H25815   7.481   1.236   8.143 -1.6075  1.4248  0.1104
  196MOL0     H25816   7.467   1.366   8.026  2.2249  0.8205  1.2410
  196MOL0     H25817   7.492   1.109   7.891 -1.1273  1.0827 -1.5727
  196MOL0     H25818   7.342   1.218   7.893  0.5906 -0.1563  0.0871
  196MOL0     H25819   7.265   1.109   8.075  0.9185  1.5822  0.8864
  196MOL0     H25820   7.391   0.991   8.080  1.9213 -1.3216 -2.3348
  196MOL0     H25821   7.333   0.941   7.829  1.7929 -0.8002  2.1922
  196MOL0     H25822   7.248   0.871   7.968  0.5970  1.3644  1.5872
  196MOL0     H25823   7.100   0.967   7.763  0.8444 -0.8196  0.1875
  196MOL0     H25824   7.099   1.119   7.840 -5.3180 -1.3386 -2.5643
  196MOL0     H25825   6.840   1.016   7.805  4.2717 -0.5587 -1.3785
  196MOL0     H25826   6.589   1.001   7.992  3.1236  1.7838  0.4670
  196MOL0     H25827   6.614   0.894   8.112  1.5140  0.8406  0.2672
  196MOL0     H25828   6.585   0.825   7.818  4.0367 -1.0501  0.2359
  196MOL0     H25829   6.473   0.769   7.951 -0.3940  1.3099  0.7124
  196MOL0     H25830   6.752   0.671   7.898  0.6672  2.0126  5.6679
  196MOL0     H25831   6.659   0.636   8.037  0.7915  2.6238  0.3798
  196MOL0     H25832   6.491   0.528   7.887 -0.1693  3.2072 -0.9826
  196MOL0     H25833   6.648   0.452   7.889 -2.7760 -2.8292 -1.2062
  196MOL0     H25834   6.628   0.629   7.483 -0.7401  0.1158  2.5343
  196MOL0     H25835   6.542   0.495   7.280 -1.3350  0.5447  0.7431
  196MOL0     H25836   6.212   0.119   7.180  1.4438  2.9175  0.6693
  196MOL0     H25837   6.111   0.016   6.996  1.5462 -2.1573 -1.0689
  196MOL0     H25838   6.053  -0.065   6.829 -1.1152  1.7659 -0.1696
  196MOL0     H25839   6.177  -0.120   6.714  0.7045  0.6371  1.4033
  196MOL0     H25840   5.903   0.012   6.643  3.3738  3.3405  0.6222
  196MOL0     H25841   5.929  -0.164   6.665 -2.7902  0.1067 -0.5467
  196MOL0     H25842   6.105  -0.156   6.481  2.1778  2.6867 -2.4136
  196MOL0     H25843   6.087   0.016   6.466 -1.6765  2.0316  2.5394
  196MOL0     H25844   5.847  -0.159   6.452 -1.1132  0.7125  0.0222
  196MOL0     H25845   5.877  -0.008   6.349  0.4820  1.7681 -0.5437
  196MOL0     H25846   6.071  -0.181   6.270 -0.0867 -1.5848  0.6751
  196MOL0     H25847   5.925  -0.117   6.188 -0.1923 -1.3610 -1.0627
  196MOL0     H25848   5.893  -0.341   6.157 -2.4390  2.8554 -0.1709
  196MOL0     H25849   5.793  -0.299   6.290 -0.3572  0.1788  1.0942
  196MOL0     H25850   6.037  -0.477   6.300  0.4278  1.1978  1.0559
  196MOL0     H25851   6.006  -0.376   6.439 -1.4302  3.8204 -0.1403
  196MOL0     H25852   5.775  -0.485   6.459 -0.2825  1.2250 -0.9846
  196MOL0     H25853   5.898  -0.611   6.440 -0.5386 -1.5719 -1.5851
  196MOL0     H25854   6.378   0.227   6.726  3.9352  0.6377  1.2682
  196MOL0     H25855   6.476   0.341   6.909 -1.6382  1.4447 -0.6798
  196MOL0     H25856   6.491   0.163   7.560 -3.9132  1.1310  0.6047
  196MOL0     H25857   6.563   0.303   7.737 -0.2285 -0.6026  0.1888
  196MOL0     H25858   8.122   1.275   8.028  1.3420 -1.7481  1.0716
  196MOL0     H25859   8.362   1.286   8.062  1.0250  2.0230 -1.1235
  196MOL0     H25860   8.740   1.302   8.185 -1.1087  0.5970  1.4915
  196MOL0     H25861   8.978   1.254   8.222 -0.8748  0.4356 -1.4874
  196MOL0     H25862   9.116   1.422   8.606  0.4300 -5.6144  1.2988
  196MOL0     H25863   9.241   1.497   8.502  2.3697 -0.9466  0.4144
  196MOL0     H25864   9.249   1.207   8.569 -0.7162  0.3769  3.7974
  196MOL0     H25865   9.374   1.303   8.490 -0.9674  0.8615 -2.0025
  196MOL0     H25866   9.270   1.358   8.779 -1.9523 -2.4721 -0.6487
  196MOL0     H25867   9.384   1.460   8.698 -2.4381  1.3660  3.3333
  196MOL0     H25868   9.418   1.157   8.750 -2.0181  0.1427 -2.4377
  196MOL0     H25869   9.542   1.269   8.693 -0.5591 -1.0637 -1.3177
  196MOL0     H25870   9.477   1.347   9.117  1.5345 -0.2576 -0.1847
  196MOL0     H25871   8.982   1.586   8.499  0.1624 -0.4876 -0.2470
  196MOL0     H25872   8.784   1.656   8.426 -1.0519 -0.1643 -0.7539
  197MOL0     O25873  11.302   8.673   4.463  0.0513  1.0380  0.0080
  197MOL0     C25874  11.264   8.696   4.344 -0.5222  0.4408 -0.5808
  197MOL0     O25875  11.145   8.649   4.288 -0.0882 -0.4883 -0.4813
  197MOL0     C25876  11.051   8.560   4.345 -0.1404  0.1684  0.6043
  197MOL0     C25877  11.075   8.481   4.467 -0.1516  0.9340  0.1582
  197MOL0     C25878  10.971   8.401   4.520 -0.2631  0.2549  0.5808
  197MOL0     C25879  10.846   8.405   4.462 -0.1009  0.6312 -0.5851
  197MOL0     O25880  10.747   8.342   4.526  0.3470 -0.0244 -0.2747
  197MOL0     C25881  10.608   8.369   4.507 -0.3107  0.0915 -0.7056
  197MOL0     C25882  10.535   8.262   4.420  0.7094 -0.7322 -0.2156
  197MOL0     C25883  10.411   8.313   4.331  1.2556  0.1485  0.3147
  197MOL0     C25884  10.294   8.206   4.306 -0.0580 -0.5895 -0.4685
  197MOL0     C25885  10.338   8.055   4.287 -0.7495  0.1613  0.5936
  197MOL0     C25886  10.219   7.969   4.252 -1.0734  0.9190  0.6620
  197MOL0     C25887  10.259   7.843   4.181  0.0084 -0.1360  0.3194
  197MOL0     C25888  10.201   7.725   4.242  0.1361  0.4240  0.9306
  197MOL0     N25889  10.058   7.728   4.243  0.0920  0.4591 -0.0173
  197MOL0     C25890   9.969   7.690   4.149 -0.5355 -0.3389  0.8085
  197MOL0     C25891   9.851   7.705   4.209  0.2347  0.2969  0.4669
  197MOL0     C25892   9.725   7.651   4.161  0.3559  0.2477 -1.2813
  197MOL0     C25893   9.649   7.756   4.083  0.0977  0.3602 -0.8422
  197MOL0     C25894   9.566   7.833   4.188 -0.1276 -0.2558  0.3597
  197MOL0     C25895   9.475   7.929   4.112 -0.8358  0.6100 -0.3245
  197MOL0     O25896   9.372   7.857   4.036  0.4301  0.1571 -0.1770
  197MOL0     C25897   9.343   7.904   3.915  0.6512 -0.0084  0.3071
  197MOL0     C25898   9.337   8.037   3.880 -0.0995 -0.1170 -0.7821
  197MOL0     C25899   9.325   8.073   3.746 -0.2980  0.2856  0.2421
  197MOL0     C25900   9.322   7.977   3.637  0.1177  0.2098  0.5338
  197MOL0     C25901   9.310   8.015   3.488 -0.1447 -0.4155 -0.2499
  197MOL0     O25902   9.267   8.141   3.453 -0.4282 -0.8595  0.4864
  197MOL0     C25903   9.295   8.177   3.322  0.1863  0.8729 -0.2770
  197MOL0     C25904   9.243   8.110   3.209  0.1989 -0.9709  0.8708
  197MOL0     C25905   9.243   8.171   3.079 -0.1457  0.1899 -0.7206
  197MOL0     C25906   9.296   8.301   3.068  0.0585 -0.0891  0.1486
  197MOL0     O25907   9.293   8.365   2.945  0.6241  0.0171  0.3740
  197MOL0     C25908   9.156   8.418   2.918  0.0147  0.2266  0.3745
  197MOL0     C25909   9.131   8.559   2.977 -0.7683 -0.2535 -0.3848
  197MOL0     C25910   8.994   8.596   2.945 -0.9289  0.3439  0.9265
  197MOL0     C25911   8.983   8.740   2.968 -0.6256 -0.7223  0.2155
  197MOL0     C25912   8.995   8.832   2.851  0.7597 -0.4233  0.2411
  197MOL0     C25913   8.875   8.816   2.750  0.7895 -0.1067 -0.7473
  197MOL0     C25914   8.911   8.854   2.604  1.2710 -0.0925  0.1278
  197MOL0     C25915   9.021   8.751   2.549  0.7356 -0.7603 -0.2847
  197MOL0    Cl25916   9.016   8.769   2.370 -0.0921  0.0384 -0.1726
  197MOL0     C25917   9.353   8.373   3.172 -0.4722  1.0802 -0.2692
  197MOL0     C25918   9.353   8.304   3.299 -0.3025 -0.1306  0.0080
  197MOL0     O25919   9.334   7.920   3.410  0.6200  0.1648  0.5204
  197MOL0     C25920   9.321   7.843   3.675 -0.0573  0.3854 -0.5988
  197MOL0     C25921   9.319   7.813   3.811  0.5752 -0.0048 -0.2591
  197MOL0     N25922   9.868   7.749   4.342  1.0370 -0.8703  0.0673
  197MOL0     N25923   9.992   7.759   4.364 -0.1822 -0.0340 -0.1042
  197MOL0     C25924  10.824   8.481   4.341 -0.5793 -0.4771 -0.2102
  197MOL0     C25925  10.928   8.555   4.285 -0.0535 -0.8173 -0.1365
  197MOL0     C25926  11.339   8.801   4.274 -0.1171 -0.1779  0.0329
  197MOL0     C25927  11.286   8.856   4.153  0.9119 -0.0761 -0.6805
  197MOL0     C25928  11.336   8.978   4.093  0.0003  0.9521 -0.5388
  197MOL0     C25929  11.435   9.039   4.164 -0.7383 -0.5981  0.7742
  197MOL0     O25930  11.487   9.163   4.133  0.1365 -0.1090  0.1980
  197MOL0     C25931  11.404   9.254   4.060  0.5107 -0.7224  0.1759
  197MOL0     C25932  11.437   9.396   4.076 -0.6689  0.6628 -0.7002
  197MOL0     C25933  11.572   9.440   4.028 -0.4362 -0.4614  0.5721
  197MOL0     C25934  11.592   9.589   4.040 -0.7899 -0.2206 -0.9396
  197MOL0     C25935  11.691   9.630   3.941  0.1450 -0.7257  0.0181
  197MOL0     C25936  11.772   9.659   3.855  1.3975 -0.1568  0.3945
  197MOL0     C25937  11.490   8.993   4.280  0.1164 -0.5531 -0.4321
  197MOL0     C25938  11.443   8.874   4.335  0.8197 -0.6913 -0.2089
  197MOL0     H25939  11.169   8.487   4.521 -0.1828 -2.1550  0.7207
  197MOL0     H25940  10.985   8.342   4.610 -0.6757 -0.3832  0.2407
  197MOL0     H25941  10.593   8.467   4.461  0.4343 -0.6011 -2.5188
  197MOL0     H25942  10.557   8.370   4.604  1.1396  2.4941  0.1222
  197MOL0     H25943  10.511   8.177   4.484  3.0995 -2.3534 -1.3274
  197MOL0     H25944  10.611   8.223   4.352 -0.8970 -0.3336 -2.3884
  197MOL0     H25945  10.453   8.353   4.238  1.5766 -0.6898  0.0924
  197MOL0     H25946  10.376   8.404   4.381 -2.3293 -0.5145 -0.7418
  197MOL0     H25947  10.233   8.232   4.393  1.6876 -1.2856  1.0326
  197MOL0     H25948  10.245   8.230   4.211 -0.5788 -3.0889 -0.8966
  197MOL0     H25949  10.397   8.012   4.369 -0.1494 -1.4092 -0.6021
  197MOL0     H25950  10.408   8.048   4.203  0.7137  1.0071  1.6981
  197MOL0     H25951  10.148   8.027   4.192 -0.8604  0.2782 -0.2308
  197MOL0     H25952  10.171   7.935   4.344 -0.3304 -4.0734 -0.5151
  197MOL0     H25953  10.216   7.846   4.080 -0.0904 -0.1772  0.3596
  197MOL0     H25954  10.367   7.835   4.165  1.2534  2.6381  5.4121
  197MOL0     H25955  10.234   7.715   4.345 -0.1463 -0.4203  0.9488
  197MOL0     H25956  10.235   7.643   4.177  1.8772  3.8329 -2.9671
  197MOL0     H25957   9.982   7.630   4.060 -5.1356  0.1991 -0.4783
  197MOL0     H25958   9.663   7.617   4.245 -1.0923 -2.1070 -3.1702
  197MOL0     H25959   9.747   7.564   4.098 -0.7384  1.2849 -3.1956
  197MOL0     H25960   9.594   7.698   4.009 -2.0772  1.1127  0.1113
  197MOL0     H25961   9.713   7.829   4.032  0.7466  1.6646  1.6193
  197MOL0     H25962   9.522   7.763   4.259 -0.1503 -0.6968 -0.0815
  197MOL0     H25963   9.630   7.897   4.250  1.0190 -0.6315 -0.4020
  197MOL0     H25964   9.544   7.991   4.053  0.5120  0.1155  0.6848
  197MOL0     H25965   9.428   7.991   4.188 -2.6130  2.8543 -3.0375
  197MOL0     H25966   9.347   8.118   3.952  1.9789 -2.4918  1.8009
  197MOL0     H25967   9.316   8.179   3.725  1.2637  0.7605  1.7310
  197MOL0     H25968   9.187   8.018   3.219  0.8973 -1.6859 -1.2782
  197MOL0     H25969   9.214   8.117   2.990  2.1582 -1.3661 -0.6088
  197MOL0     H25970   9.073   8.356   2.954 -0.6427 -0.1953 -1.7464
  197MOL0     H25971   9.157   8.424   2.809  3.8438  0.0465  0.2646
  197MOL0     H25972   9.203   8.633   2.940  2.4030 -2.9615 -0.0966
  197MOL0     H25973   9.154   8.567   3.083  3.1087 -2.0577 -0.9195
  197MOL0     H25974   8.916   8.547   3.003 -2.0242 -0.7049 -1.2896
  197MOL0     H25975   8.966   8.565   2.844  1.0904  0.2585  0.3573
  197MOL0     H25976   8.888   8.748   3.021  0.9029 -2.3725  3.4386
  197MOL0     H25977   9.055   8.771   3.044 -0.9031  1.4729 -0.3436
  197MOL0     H25978   9.091   8.818   2.801  1.0508 -1.0385  0.9527
  197MOL0     H25979   8.989   8.934   2.891 -2.2488 -0.7645  0.9504
  197MOL0     H25980   8.784   8.870   2.779  1.6122  0.9874 -0.1160
  197MOL0     H25981   8.851   8.710   2.739 -0.9196  0.4568 -3.3547
  197MOL0     H25982   8.820   8.838   2.546 -0.7803 -1.5648  3.4454
  197MOL0     H25983   8.936   8.960   2.594 -3.2696  1.0847 -0.9685
  197MOL0     H25984   8.995   8.649   2.578  2.2249 -0.8283  0.9273
  197MOL0     H25985   9.120   8.758   2.595  0.9390 -2.2441 -0.4696
  197MOL0     H25986   9.421   8.455   3.153  0.6806  0.8587  2.4558
  197MOL0     H25987   9.406   8.357   3.377  1.0352  0.1691 -1.0755
  197MOL0     H25988   9.337   7.759   3.608  0.7487 -0.3364  0.4770
  197MOL0     H25989   9.311   7.711   3.847 -1.7308  0.4167  0.6341
  197MOL0     H25990  10.731   8.484   4.286 -2.1835  3.8441  2.2591
  197MOL0     H25991  10.927   8.610   4.192 -3.5848  1.1849  0.8869
  197MOL0     H25992  11.196   8.808   4.115  0.3695  2.8658 -3.5918
  197MOL0     H25993  11.303   9.030   4.003  0.6570  0.9858 -0.7631
  197MOL0     H25994  11.299   9.246   4.091  0.8357 -0.6696  1.3427
  197MOL0     H25995  11.385   9.227   3.955 -2.6880 -0.3433  0.5547
  197MOL0     H25996  11.363   9.456   4.021 -1.2847  0.3813 -0.1886
  197MOL0     H25997  11.440   9.426   4.181 -1.0561 -0.6584 -0.3019
  197MOL0     H25998  11.573   9.412   3.923 -0.2932 -3.7175  1.3447
  197MOL0     H25999  11.660   9.393   4.073 -0.3753 -1.3761 -0.4837
  197MOL0     H26000  11.498   9.639   4.016 -0.8949  1.0343  1.6946
  197MOL0     H26001  11.634   9.610   4.139 -1.2539 -2.1155 -0.2824
  197MOL0     H26002  11.831   9.700   3.775  0.7098  3.3882  1.5314
  197MOL0     H26003  11.571   9.042   4.334  0.1116 -0.2550 -0.6922
  197MOL0     H26004  11.489   8.841   4.428  4.3245  2.0444 -0.7622
  198MOL0     O26005   7.838   1.707   1.563  0.1483  0.4989  0.6624
  198MOL0     C26006   7.754   1.773   1.509  0.1350  0.4807 -0.6775
  198MOL0     O26007   7.782   1.882   1.425  0.6130  0.0570 -0.2886
  198MOL0     C26008   7.903   1.945   1.413  1.1641  0.3757  1.7105
  198MOL0     C26009   7.893   2.049   1.306 -1.0421  0.1471  0.0974
  198MOL0     C26010   8.009   2.121   1.267 -0.3400  0.1205 -0.0005
  198MOL0     C26011   8.133   2.082   1.312 -1.0352  0.5549 -0.1116
  198MOL0     O26012   8.249   2.156   1.280 -0.3546  0.3433 -0.5357
  198MOL0     C26013   8.244   2.281   1.215 -0.2619 -0.5312  0.5030
  198MOL0     C26014   8.376   2.352   1.205  0.5098 -0.2556  0.1694
  198MOL0     C26015   8.359   2.504   1.195 -0.9455 -0.6885 -0.4655
  198MOL0     C26016   8.498   2.570   1.177  1.2630 -0.3871  0.4081
  198MOL0     C26017   8.507   2.715   1.207 -1.4147 -0.8769  0.4162
  198MOL0     C26018   8.396   2.798   1.143 -0.5597  0.6513  0.1559
  198MOL0     C26019   8.420   2.947   1.156  0.2045  0.3437  0.4418
  198MOL0     C26020   8.333   3.007   1.041 -0.3467  0.7791  0.4352
  198MOL0     N26021   8.304   3.153   1.040  0.3133 -0.6845 -0.6641
  198MOL0     C26022   8.285   3.252   0.947  0.0634  0.4902  0.3836
  198MOL0     C26023   8.259   3.363   1.013  0.4802  0.4993  0.4600
  198MOL0     C26024   8.235   3.500   0.958  0.3607 -0.5941  0.6448
  198MOL0     C26025   8.125   3.508   0.852 -0.6976  0.3539 -0.4931
  198MOL0     C26026   7.993   3.543   0.932 -0.9062  0.0598 -0.0092
  198MOL0     C26027   7.871   3.552   0.844  0.3100  0.1925 -0.4559
  198MOL0     O26028   7.751   3.536   0.914  0.9095 -0.2952 -0.8318
  198MOL0     C26029   7.668   3.646   0.904 -0.6053  0.3766  0.3263
  198MOL0     C26030   7.581   3.666   0.799  0.6430  0.3559  0.4585
  198MOL0     C26031   7.511   3.781   0.783  0.0967 -0.9347 -0.2117
  198MOL0     C26032   7.513   3.876   0.884 -0.5598 -0.1593 -0.0606
  198MOL0     C26033   7.435   4.005   0.870 -1.1996 -0.5716 -0.5486
  198MOL0     O26034   7.389   4.023   0.743  0.1480  0.0033  0.1560
  198MOL0     C26035   7.331   4.146   0.719 -0.3411  0.0009  0.2072
  198MOL0     C26036   7.386   4.266   0.758  0.1958 -0.3413 -0.0756
  198MOL0     C26037   7.331   4.390   0.728  0.1490  0.1051 -0.1938
  198MOL0     C26038   7.213   4.399   0.654  0.6322  0.0487  0.1353
  198MOL0     O26039   7.157   4.514   0.626 -0.1358  0.0486  0.6340
  198MOL0     C26040   7.222   4.591   0.523  0.2461  1.5655 -0.4826
  198MOL0     C26041   7.305   4.723   0.586 -0.8734 -0.1297 -0.5893
  198MOL0     C26042   7.383   4.803   0.464  0.4646  0.6586  0.1226
  198MOL0     C26043   7.513   4.868   0.516  0.1712 -0.7197  0.3453
  198MOL0     C26044   7.475   4.973   0.625  0.0174  0.4858 -0.3136
  198MOL0     C26045   7.391   5.086   0.565 -0.8052 -0.2861 -0.0007
  198MOL0     C26046   7.435   5.156   0.442  0.1072 -0.7314 -0.0226
  198MOL0     C26047   7.361   5.291   0.433  0.0718  0.8057  0.3879
  198MOL0    Cl26048   7.388   5.400   0.577 -0.3838  0.2006 -0.3019
  198MOL0     C26049   7.165   4.278   0.604  1.2394 -0.0015 -0.0534
  198MOL0     C26050   7.220   4.158   0.640 -0.9766  0.7177 -0.2809
  198MOL0     O26051   7.439   4.086   0.967 -0.2755  0.0167  0.1698
  198MOL0     C26052   7.592   3.856   0.998 -0.0170 -0.3108 -0.2960
  198MOL0     C26053   7.666   3.735   1.011 -0.3823 -0.4624  0.1526
  198MOL0     N26054   8.246   3.331   1.141  0.2844  1.3359  0.6362
  198MOL0     N26055   8.280   3.206   1.166 -0.3224 -0.1089  0.3927
  198MOL0     C26056   8.147   1.960   1.389  0.3695  0.3291 -0.0924
  198MOL0     C26057   8.030   1.889   1.444  0.6749 -0.5224 -0.2871
  198MOL0     C26058   7.607   1.722   1.523 -0.6226 -0.1872 -0.1548
  198MOL0     C26059   7.564   1.670   1.647  0.0060 -1.5077 -1.4426
  198MOL0     C26060   7.434   1.610   1.655  0.3600 -0.0077 -0.2552
  198MOL0     C26061   7.343   1.609   1.545 -0.3453 -0.4796 -0.4835
  198MOL0     O26062   7.212   1.553   1.549  0.5222 -0.3706 -0.7454
  198MOL0     C26063   7.154   1.518   1.685  0.6187 -0.1599  0.2732
  198MOL0     C26064   7.002   1.506   1.674  0.2346  0.0523  0.7514
  198MOL0     C26065   6.931   1.367   1.662 -0.2218  0.6405  0.0385
  198MOL0     C26066   6.973   1.305   1.525 -0.4608  0.3519  0.6848
  198MOL0     C26067   6.869   1.204   1.489  0.1025 -0.1089 -1.0333
  198MOL0     C26068   6.764   1.145   1.455  0.3359 -1.1768  0.2621
  198MOL0     C26069   7.384   1.668   1.426 -1.0070 -0.5178  1.2017
  198MOL0     C26070   7.513   1.724   1.414  0.0343  1.5431 -0.1324
  198MOL0     H26071   7.800   2.070   1.254 -1.0526 -0.1308  0.0035
  198MOL0     H26072   8.006   2.203   1.196  0.4545  0.7888  0.7076
  198MOL0     H26073   8.192   2.357   1.274  0.8296  1.5438 -1.0800
  198MOL0     H26074   8.208   2.266   1.113  0.2027 -0.4398  0.3223
  198MOL0     H26075   8.429   2.331   1.112  0.8971  3.9222 -0.7234
  198MOL0     H26076   8.442   2.336   1.291  1.6461 -0.8696 -0.7999
  198MOL0     H26077   8.305   2.539   1.284 -1.7877 -2.1996 -0.3442
  198MOL0     H26078   8.301   2.544   1.111 -3.1367  1.5302  1.9193
  198MOL0     H26079   8.567   2.504   1.231  5.2384  2.2374 -0.9993
  198MOL0     H26080   8.512   2.557   1.070  0.5319  0.5792  0.1882
  198MOL0     H26081   8.611   2.738   1.181 -0.9123  1.0666  3.6123
  198MOL0     H26082   8.507   2.739   1.314  0.5454  2.5813 -0.2192
  198MOL0     H26083   8.297   2.780   1.187  0.0911 -0.3474  1.2861
  198MOL0     H26084   8.411   2.771   1.038 -0.0384  0.3776  0.2938
  198MOL0     H26085   8.400   2.977   1.259 -2.8823 -0.0936  0.0669
  198MOL0     H26086   8.527   2.959   1.134 -0.1268 -1.3860 -2.7099
  198MOL0     H26087   8.242   2.947   1.033 -0.9873  1.9515 -3.0359
  198MOL0     H26088   8.388   2.991   0.948 -2.7378  0.1593 -0.9652
  198MOL0     H26089   8.313   3.248   0.842  4.6496  0.6301  1.3713
  198MOL0     H26090   8.329   3.530   0.913  2.0070 -4.2869  1.2524
  198MOL0     H26091   8.216   3.573   1.038  1.3208  0.9475 -0.4973
  198MOL0     H26092   8.126   3.409   0.807  4.5201 -0.6063  1.0645
  198MOL0     H26093   8.151   3.589   0.784 -3.7021  2.1766  0.3272
  198MOL0     H26094   7.985   3.455   0.997  1.7262 -2.4694 -2.8080
  198MOL0     H26095   8.007   3.637   0.987 -2.0145  2.3921 -3.4167
  198MOL0     H26096   7.885   3.455   0.796 -1.5286 -2.4801  3.7581
  198MOL0     H26097   7.874   3.633   0.771 -0.3390  3.7217  3.0925
  198MOL0     H26098   7.576   3.584   0.727  1.6563 -1.6953  2.5745
  198MOL0     H26099   7.439   3.784   0.703  1.0060 -1.9212 -1.0878
  198MOL0     H26100   7.481   4.268   0.810  1.3303  1.7325 -2.0425
  198MOL0     H26101   7.365   4.484   0.771  0.7929 -1.1550  2.2572
  198MOL0     H26102   7.154   4.641   0.454 -0.4511  0.0808 -0.9344
  198MOL0     H26103   7.285   4.526   0.462 -0.0919 -2.3125  2.8457
  198MOL0     H26104   7.383   4.692   0.656 -2.0925  0.2844  1.0153
  198MOL0     H26105   7.248   4.800   0.639 -0.1731  0.3590 -0.5327
  198MOL0     H26106   7.315   4.873   0.415  1.1103  0.4303 -1.1563
  198MOL0     H26107   7.412   4.731   0.387  2.1170  1.2136  0.1897
  198MOL0     H26108   7.572   4.786   0.557  0.1969 -0.2997  1.1618
  198MOL0     H26109   7.577   4.909   0.438  0.6622 -1.3598  0.4108
  198MOL0     H26110   7.563   5.015   0.675 -1.3366  1.6413  1.2258
  198MOL0     H26111   7.411   4.926   0.701  2.3338 -0.9124  0.8893
  198MOL0     H26112   7.380   5.153   0.650  0.0893 -0.3753  0.1992
  198MOL0     H26113   7.291   5.047   0.546 -1.4515 -0.7906  3.7043
  198MOL0     H26114   7.543   5.171   0.434 -0.0376  0.1094 -0.5510
  198MOL0     H26115   7.400   5.112   0.348  0.1519 -0.8664  0.0233
  198MOL0     H26116   7.258   5.261   0.411  1.0264 -0.1757 -3.7403
  198MOL0     H26117   7.399   5.353   0.352  1.5343 -0.5399 -0.0012
  198MOL0     H26118   7.081   4.277   0.537  1.2570  1.6005 -0.1202
  198MOL0     H26119   7.180   4.068   0.595  1.7220 -0.5506 -0.2869
  198MOL0     H26120   7.598   3.931   1.075 -5.0797 -0.9634  1.0555
  198MOL0     H26121   7.737   3.720   1.091 -1.2497 -0.2260  0.9861
  198MOL0     H26122   8.245   1.933   1.428 -0.7451 -1.5586  1.5499
  198MOL0     H26123   8.043   1.801   1.506 -0.2778 -0.7733 -0.4312
  198MOL0     H26124   7.629   1.656   1.732 -0.8380 -2.3566 -0.9170
  198MOL0     H26125   7.406   1.546   1.738 -3.6582  3.2524  1.2632
  198MOL0     H26126   7.192   1.589   1.759  1.6344 -2.2281  1.8310
  198MOL0     H26127   7.194   1.420   1.712  1.9673  0.3211  0.1093
  198MOL0     H26128   6.964   1.557   1.763  2.4279  1.4063  0.9796
  198MOL0     H26129   6.979   1.551   1.577  2.5594 -2.5129 -1.1600
  198MOL0     H26130   6.825   1.396   1.661 -0.8911 -1.4466 -2.7999
  198MOL0     H26131   6.960   1.312   1.752  0.5771 -0.8646 -1.0988
  198MOL0     H26132   6.982   1.371   1.439 -1.8696 -0.1606  0.1183
  198MOL0     H26133   7.067   1.249   1.533 -0.9794 -0.4507  1.3300
  198MOL0     H26134   6.682   1.083   1.426 -1.0662  1.5143 -2.1111
  198MOL0     H26135   7.326   1.680   1.335 -2.1698  3.3201  2.2790
  198MOL0     H26136   7.532   1.765   1.315 -2.6721 -0.0649 -1.4226
  199MOL0     O26137   1.812   2.796  10.792 -0.1813  0.1533 -0.3751
  199MOL0     C26138   1.747   2.702  10.844  0.2026 -0.9969  0.1909
  199MOL0     O26139   1.675   2.610  10.780 -0.5436  0.2316 -0.2066
  199MOL0     C26140   1.688   2.606  10.644 -0.1046  0.4104  0.1701
  199MOL0     C26141   1.572   2.598  10.564 -0.9699  0.3762  1.1402
  199MOL0     C26142   1.585   2.585  10.424 -0.1447  0.3452  0.4469
  199MOL0     C26143   1.713   2.574  10.370  0.3422  0.1219  0.7439
  199MOL0     O26144   1.713   2.550  10.232  0.5363  1.0562 -0.0179
  199MOL0     C26145   1.824   2.468  10.189  0.8833 -0.8845  0.0463
  199MOL0     C26146   1.793   2.428  10.043  0.2314  0.4061 -0.1079
  199MOL0     C26147   1.850   2.525   9.934 -0.1966 -0.6999  1.0561
  199MOL0     C26148   1.810   2.494   9.784 -0.4810  0.5076 -0.8183
  199MOL0     C26149   1.878   2.598   9.698 -0.0929  0.3506  0.6063
  199MOL0     C26150   1.822   2.593   9.552  0.8171 -0.0405 -0.4424
  199MOL0     C26151   1.895   2.697   9.464  0.0612  0.7020 -0.1327
  199MOL0     C26152   1.846   2.698   9.314 -0.5655  0.2661  0.0678
  199MOL0     N26153   1.852   2.568   9.250  0.1163  0.1751  0.5446
  199MOL0     C26154   1.739   2.497   9.205 -0.1957  0.7411  0.0991
  199MOL0     C26155   1.785   2.379   9.164  0.3111  0.3199 -0.2620
  199MOL0     C26156   1.707   2.266   9.094  0.9665 -0.0212  0.8083
  199MOL0     C26157   1.654   2.172   9.197  0.3701  0.3464  0.4715
  199MOL0     C26158   1.765   2.115   9.284  0.3952  0.2599 -0.6582
  199MOL0     C26159   1.702   2.018   9.389 -0.1827 -0.4708  0.8455
  199MOL0     O26160   1.800   1.960   9.469 -0.0733  0.0727 -0.1736
  199MOL0     C26161   1.764   1.934   9.601  0.6929  0.7926 -0.8877
  199MOL0     C26162   1.875   1.925   9.697  0.5348  0.1934  0.6160
  199MOL0     C26163   1.842   1.938   9.835 -0.1814  0.4020  0.3619
  199MOL0     C26164   1.710   1.943   9.883 -0.7736 -0.1259 -0.3660
  199MOL0     C26165   1.686   1.942  10.029  0.1563 -0.0623  0.0163
  199MOL0     O26166   1.791   1.979  10.113  0.2335 -0.3111  0.3504
  199MOL0     C26167   1.768   2.004  10.244  0.4292 -0.6882  0.2412
  199MOL0     C26168   1.709   2.122  10.283 -0.1176  0.5408  0.5564
  199MOL0     C26169   1.674   2.146  10.418  1.0433 -0.0013  0.0636
  199MOL0     C26170   1.698   2.049  10.510 -0.3277 -0.2606 -0.4742
  199MOL0     O26171   1.652   2.085  10.630  0.0991  0.0588 -0.3990
  199MOL0     C26172   1.752   2.134  10.715  0.6637  1.5959 -0.7547
  199MOL0     C26173   1.719   2.272  10.768 -0.1149 -0.2983 -0.4554
  199MOL0     C26174   1.604   2.283  10.866 -0.2613  0.3062 -1.5182
  199MOL0     C26175   1.641   2.219  11.013 -0.3523 -0.2795  0.4589
  199MOL0     C26176   1.520   2.241  11.102 -0.0835 -0.5120  0.7708
  199MOL0     C26177   1.499   2.178  11.235  0.1980  0.3079 -0.5111
  199MOL0     C26178   1.407   2.262  11.331 -0.7751 -1.5676  0.0088
  199MOL0     C26179   1.371   2.205  11.467 -0.6318  0.6110  0.4688
  199MOL0    Cl26180   1.514   2.190  11.546  0.1462  0.0151 -0.0114
  199MOL0     C26181   1.768   1.937  10.477  0.5389 -0.2908  0.0299
  199MOL0     C26182   1.800   1.911  10.339  0.3399  0.5774  0.0812
  199MOL0     O26183   1.573   1.894  10.067 -1.0820  0.1327 -0.4694
  199MOL0     C26184   1.605   1.911   9.788 -0.0871 -0.4981  0.1415
  199MOL0     C26185   1.633   1.905   9.650 -1.0500 -0.5907 -0.7469
  199MOL0     N26186   1.919   2.383   9.179 -0.8828  0.4544 -0.3513
  199MOL0     N26187   1.959   2.485   9.240  0.4298 -0.4315  0.6339
  199MOL0     C26188   1.822   2.592  10.445  0.3196 -0.1056 -0.3088
  199MOL0     C26189   1.813   2.598  10.582  0.0725 -0.3946  1.1054
  199MOL0     C26190   1.746   2.705  10.992  1.4235 -0.1300  0.1667
  199MOL0     C26191   1.862   2.749  11.063  0.3578  0.6136 -0.2745
  199MOL0     C26192   1.871   2.738  11.203 -0.6701 -0.5877  0.9738
  199MOL0     C26193   1.754   2.709  11.278 -0.3326  0.1541 -0.6767
  199MOL0     O26194   1.783   2.715  11.414  0.8092 -0.2958  0.4997
  199MOL0     C26195   1.681   2.687  11.504 -0.8103 -0.6814 -0.5021
  199MOL0     C26196   1.724   2.714  11.652  0.0543  0.0474 -0.8570
  199MOL0     C26197   1.799   2.851  11.677 -0.6385  0.7564 -0.6082
  199MOL0     C26198   1.826   2.890  11.827 -0.6549  0.0743 -0.1086
  199MOL0     C26199   1.711   2.952  11.882  0.1063  0.3139 -0.6035
  199MOL0     C26200   1.611   2.998  11.927  0.0189 -0.7096 -0.5673
  199MOL0     C26201   1.642   2.674  11.206 -0.1669  0.2181  0.5331
  199MOL0     C26202   1.638   2.668  11.068  0.2235  0.7854 -0.5440
  199MOL0     H26203   1.468   2.604  10.593 -1.6914 -2.0071 -0.7035
  199MOL0     H26204   1.494   2.576  10.367  0.1953 -3.2122  0.2326
  199MOL0     H26205   1.852   2.386  10.257  3.8973 -1.2582 -1.4856
  199MOL0     H26206   1.916   2.527  10.179  1.1521 -1.2858  0.0796
  199MOL0     H26207   1.686   2.410  10.031 -0.0621  2.1172 -0.2820
  199MOL0     H26208   1.842   2.331  10.029  1.4685  1.1423 -1.1078
  199MOL0     H26209   1.958   2.510   9.940 -0.5101 -3.5093  0.9283
  199MOL0     H26210   1.827   2.629   9.959 -1.0659 -0.3340 -1.0909
  199MOL0     H26211   1.843   2.392   9.761  1.8781  0.8310  0.7274
  199MOL0     H26212   1.702   2.491   9.770 -0.7988  2.6050  0.8519
  199MOL0     H26213   1.984   2.572   9.693  0.6651  3.1245  0.6416
  199MOL0     H26214   1.880   2.699   9.740  0.7697  1.2607 -1.4496
  199MOL0     H26215   1.717   2.621   9.548 -0.5964 -4.5114  0.1970
  199MOL0     H26216   1.828   2.488   9.519  2.6494  0.2172 -1.0598
  199MOL0     H26217   1.872   2.793   9.511 -2.3212 -0.0793  0.4332
  199MOL0     H26218   2.004   2.702   9.473 -0.0657  4.1309  0.7154
  199MOL0     H26219   1.915   2.769   9.267  1.5729  1.2204  4.1733
  199MOL0     H26220   1.745   2.739   9.318  0.1164  2.0605 -0.1625
  199MOL0     H26221   1.634   2.525   9.208 -0.2028  0.6470  0.9872
  199MOL0     H26222   1.770   2.206   9.027  1.6451 -1.3759  2.5753
  199MOL0     H26223   1.624   2.298   9.031  1.0096  0.1023  0.8143
  199MOL0     H26224   1.593   2.091   9.154  0.6246 -0.5542  1.7570
  199MOL0     H26225   1.596   2.226   9.272 -1.0387 -2.0449  1.2240
  199MOL0     H26226   1.841   2.053   9.236  3.5059  2.1846  1.4226
  199MOL0     H26227   1.818   2.196   9.334 -1.3553  0.1051  1.6216
  199MOL0     H26228   1.657   1.941   9.326 -1.4164  2.0953 -1.6399
  199MOL0     H26229   1.628   2.070   9.450 -0.5686 -0.6600  0.5404
  199MOL0     H26230   1.977   1.927   9.658 -0.3319  2.6714 -1.8257
  199MOL0     H26231   1.922   1.937   9.908  1.3933 -1.0765 -1.2743
  199MOL0     H26232   1.683   2.206  10.219 -2.2885 -1.6890 -1.7644
  199MOL0     H26233   1.621   2.238  10.441 -0.5795 -0.2937 -2.2024
  199MOL0     H26234   1.850   2.152  10.672  0.7643  0.1003 -1.1911
  199MOL0     H26235   1.763   2.070  10.803 -1.2482 -0.2448 -1.7516
  199MOL0     H26236   1.695   2.337  10.683 -0.7730  0.4415  0.2711
  199MOL0     H26237   1.812   2.300  10.817 -0.4148 -1.7971  1.0645
  199MOL0     H26238   1.514   2.231  10.832  0.8145 -0.5464 -3.1471
  199MOL0     H26239   1.588   2.388  10.895  0.5780  0.6384 -2.2126
  199MOL0     H26240   1.675   2.115  11.006  0.1423 -0.3310  2.8790
  199MOL0     H26241   1.725   2.267  11.064 -0.8470  2.4874 -1.1321
  199MOL0     H26242   1.438   2.200  11.042  2.4645 -1.5404 -2.2839
  199MOL0     H26243   1.515   2.346  11.131  2.2997 -0.4367  1.0821
  199MOL0     H26244   1.595   2.171  11.288 -0.5914 -0.5400  0.8446
  199MOL0     H26245   1.446   2.083  11.226 -3.5148  2.2252 -0.4709
  199MOL0     H26246   1.459   2.356  11.353  1.1861 -2.0263 -2.2683
  199MOL0     H26247   1.312   2.289  11.284 -0.9509  0.3911  1.3474
  199MOL0     H26248   1.330   2.105  11.456 -1.1828  1.0122 -1.6500
  199MOL0     H26249   1.308   2.269  11.530 -1.4720  1.6985 -1.3797
  199MOL0     H26250   1.792   1.856  10.545 -0.3729 -0.3645  0.2851
  199MOL0     H26251   1.856   1.823  10.308 -1.7258 -0.5755 -0.6040
  199MOL0     H26252   1.501   1.911   9.820 -1.2838 -4.1457 -3.0429
  199MOL0     H26253   1.542   1.909   9.590 -2.4179 -0.2754  1.2670
  199MOL0     H26254   1.919   2.595  10.397  1.2999 -0.0986  1.5693
  199MOL0     H26255   1.904   2.610  10.639 -0.2335 -0.5792  1.6354
  199MOL0     H26256   1.952   2.784  11.014 -0.9183  5.4215  0.3261
  199MOL0     H26257   1.958   2.777  11.256 -0.0074  0.5327 -0.8713
  199MOL0     H26258   1.631   2.590  11.500 -1.1300 -0.4926 -2.2932
  199MOL0     H26259   1.611   2.767  11.477  0.8379  0.5630 -1.2749
  199MOL0     H26260   1.635   2.703  11.714  0.4764 -2.0953 -0.5342
  199MOL0     H26261   1.804   2.643  11.676 -0.2940 -0.4396 -1.1116
  199MOL0     H26262   1.735   2.925  11.628  0.5266  1.3528 -1.2787
  199MOL0     H26263   1.898   2.850  11.631  0.4040  0.5348  1.5295
  199MOL0     H26264   1.841   2.798  11.885 -1.8236  1.2051  2.1478
  199MOL0     H26265   1.914   2.955  11.827  0.5384 -1.2214 -4.2763
  199MOL0     H26266   1.527   3.055  11.962 -0.9849 -3.7542  2.6339
  199MOL0     H26267   1.566   2.627  11.268 -0.2677  1.4360  1.3547
  199MOL0     H26268   1.539   2.654  11.027  0.4854 -3.2054 -0.2054
  200MOL0     O26269  11.390   5.161   7.331 -0.3200 -0.4279 -0.2982
  200MOL0     C26270  11.334   5.081   7.252 -0.0541 -0.3405 -0.0372
  200MOL0     O26271  11.323   4.952   7.262  0.0300  0.4046  0.2040
  200MOL0     C26272  11.410   4.872   7.332 -0.8434 -0.9008 -0.2747
  200MOL0     C26273  11.512   4.915   7.421 -0.5548  0.4985  0.7463
  200MOL0     C26274  11.594   4.818   7.477 -0.7915  0.3133 -0.3943
  200MOL0     C26275  11.570   4.677   7.475  0.0885  0.2815  0.8659
  200MOL0     O26276  11.652   4.580   7.533 -0.0577  0.0604 -0.4001
  200MOL0     C26277  11.683   4.600   7.670 -0.0724  0.4151  0.2684
  200MOL0     C26278  11.602   4.491   7.747  0.3471  0.5961 -0.2227
  200MOL0     C26279  11.676   4.441   7.864 -0.1774  0.3808 -0.0369
  200MOL0     C26280  11.568   4.375   7.960  0.5856 -0.9332  0.3402
  200MOL0     C26281  11.508   4.247   7.896 -0.5673  0.1753 -0.7147
  200MOL0     C26282  11.418   4.161   7.996 -1.0804 -0.0172  0.6727
  200MOL0     C26283  11.483   4.137   8.140 -0.4700  1.7627 -0.4658
  200MOL0     C26284  11.610   4.045   8.127 -0.0708  1.0262  0.0068
  200MOL0     N26285  11.567   3.907   8.070 -0.0990 -0.6934 -0.3840
  200MOL0     C26286  11.500   3.803   8.132 -0.0830 -1.0029  0.9933
  200MOL0     C26287  11.512   3.702   8.050  0.5051 -0.1882 -0.4895
  200MOL0     C26288  11.445   3.574   8.064 -0.5145  0.5244  1.0073
  200MOL0     C26289  11.345   3.552   7.950  0.1735  0.2209  0.2828
  200MOL0     C26290  11.229   3.654   7.945  0.1487 -0.4910  0.3894
  200MOL0     C26291  11.260   3.780   7.854  0.6736  0.2344 -0.7588
  200MOL0     O26292  11.139   3.856   7.819 -0.2580 -0.5291  0.7892
  200MOL0     C26293  11.148   3.962   7.744 -0.5999 -0.2949  0.7654
  200MOL0     C26294  11.266   4.029   7.689  0.2889  1.2886  0.0344
  200MOL0     C26295  11.258   4.147   7.617  0.9348  0.9459  0.5988
  200MOL0     C26296  11.142   4.222   7.611  0.1392  1.1389  0.4358
  200MOL0     C26297  11.137   4.357   7.557 -0.8754 -0.7792  0.1321
  200MOL0     O26298  11.011   4.423   7.558  0.2778  0.0710 -0.6586
  200MOL0     C26299  10.985   4.542   7.495 -0.6542  0.9963 -0.5318
  200MOL0     C26300  10.857   4.594   7.523  0.7734 -0.7924 -0.2102
  200MOL0     C26301  10.821   4.723   7.467 -0.0183  0.4411 -0.7801
  200MOL0     C26302  10.920   4.804   7.408 -0.2207 -0.2597  0.2243
  200MOL0     O26303  10.902   4.931   7.356 -0.0934  0.1789 -0.2363
  200MOL0     C26304  10.771   4.999   7.376  0.2651  0.8549  0.4015
  200MOL0     C26305  10.796   5.142   7.332  0.9131  0.2716 -0.1582
  200MOL0     C26306  10.869   5.220   7.443  0.2073 -0.8809 -0.2945
  200MOL0     C26307  10.876   5.371   7.410  0.4594 -0.5135 -0.3409
  200MOL0     C26308  10.981   5.412   7.310 -0.2025 -0.5945 -0.4707
  200MOL0     C26309  10.980   5.563   7.282 -0.0707  1.6854 -0.5146
  200MOL0     C26310  11.085   5.602   7.185  0.1512 -0.3920 -0.6165
  200MOL0     C26311  11.084   5.756   7.179 -0.2450  0.4307  0.4424
  200MOL0    Cl26312  11.198   5.836   7.071 -0.5287 -0.3558 -0.1682
  200MOL0     C26313  11.043   4.737   7.376  0.8507  0.4556  0.0370
  200MOL0     C26314  11.071   4.607   7.417 -0.7206 -0.2859 -1.0099
  200MOL0     O26315  11.250   4.400   7.517  0.0082  0.5286 -0.6495
  200MOL0     C26316  11.025   4.162   7.654  0.0476  1.2877 -0.1547
  200MOL0     C26317  11.029   4.035   7.713 -0.7225  0.3512 -0.2231
  200MOL0     N26318  11.579   3.745   7.939  0.0051 -0.1474 -0.3504
  200MOL0     N26319  11.608   3.874   7.945  0.1030  0.1592  0.7492
  200MOL0     C26320  11.477   4.645   7.387 -0.1161  0.2784  0.0216
  200MOL0     C26321  11.400   4.732   7.312  0.4261 -0.3260 -0.5590
  200MOL0     C26322  11.256   5.149   7.146  0.1236 -0.0343  0.2853
  200MOL0     C26323  11.298   5.270   7.088  0.8246  0.3202 -1.5142
  200MOL0     C26324  11.219   5.340   6.986 -0.1320  0.3626  0.6909
  200MOL0     C26325  11.105   5.290   6.931  0.2566  1.5285 -0.7696
  200MOL0     O26326  11.047   5.340   6.816 -0.4269 -0.2081  0.4007
  200MOL0     C26327  11.093   5.461   6.758 -0.0166  0.8334  0.7705
  200MOL0     C26328  11.011   5.543   6.666 -0.0685  0.0753  0.3749
  200MOL0     C26329  11.091   5.666   6.627 -0.3816  0.4783  0.5285
  200MOL0     C26330  11.016   5.792   6.568  1.0604  0.3297 -0.2159
  200MOL0     C26331  10.914   5.848   6.659 -0.3612  0.0625  0.1669
  200MOL0     C26332  10.834   5.887   6.738 -0.1577 -0.5802 -0.0861
  200MOL0     C26333  11.060   5.171   6.993 -0.0785 -0.7093  0.2142
  200MOL0     C26334  11.140   5.101   7.093 -0.3234  0.2447 -0.8806
  200MOL0     H26335  11.530   5.021   7.431 -1.4175  0.7351 -0.0638
  200MOL0     H26336  11.678   4.854   7.536  0.2803 -0.1830 -1.5865
  200MOL0     H26337  11.662   4.700   7.709  0.0914  0.2901  0.6887
  200MOL0     H26338  11.788   4.573   7.681 -0.5152 -3.0477 -2.3562
  200MOL0     H26339  11.555   4.415   7.684 -0.4237 -0.3424  1.4167
  200MOL0     H26340  11.514   4.545   7.785  0.0379 -1.3955  2.0803
  200MOL0     H26341  11.733   4.515   7.921  1.0928  1.5699 -2.6702
  200MOL0     H26342  11.755   4.374   7.827  0.2874  1.8629 -1.8445
  200MOL0     H26343  11.623   4.354   8.052 -1.4697 -2.2071  1.3407
  200MOL0     H26344  11.492   4.442   8.003 -0.6510 -1.6765 -0.6254
  200MOL0     H26345  11.589   4.184   7.858  0.6929  1.0240  0.5037
  200MOL0     H26346  11.449   4.275   7.808 -2.5978  4.0494  1.6316
  200MOL0     H26347  11.411   4.062   7.951  0.6898  0.2182 -0.1916
  200MOL0     H26348  11.315   4.197   7.989 -0.0684  3.5357  1.7198
  200MOL0     H26349  11.516   4.228   8.190  3.7160 -0.3952  1.1904
  200MOL0     H26350  11.413   4.075   8.197  0.0993  2.8182  1.4658
  200MOL0     H26351  11.648   4.034   8.229  0.9489  0.8524 -0.3834
  200MOL0     H26352  11.680   4.096   8.061  1.0154  1.6575  1.5976
  200MOL0     H26353  11.446   3.806   8.226  0.1163 -3.4147  1.2334
  200MOL0     H26354  11.396   3.570   8.161  0.3864  0.6726  1.4711
  200MOL0     H26355  11.518   3.492   8.059 -0.0262  1.0136 -1.0737
  200MOL0     H26356  11.304   3.451   7.959  3.2492 -1.9622 -5.5172
  200MOL0     H26357  11.401   3.541   7.857 -1.0323  2.5409 -0.8228
  200MOL0     H26358  11.140   3.605   7.903 -0.3308  1.9024 -1.5502
  200MOL0     H26359  11.201   3.683   8.047  0.4357 -1.2811  0.7035
  200MOL0     H26360  11.303   3.743   7.760  3.2714 -1.1836  0.8756
  200MOL0     H26361  11.329   3.840   7.913  0.0268  0.7606 -0.5319
  200MOL0     H26362  11.359   3.975   7.706 -0.5799 -0.0176  0.8223
  200MOL0     H26363  11.353   4.181   7.577  0.4848  3.0969  1.2324
  200MOL0     H26364  10.791   4.533   7.583  0.8275  0.8626  1.6534
  200MOL0     H26365  10.720   4.763   7.475 -0.7162 -1.3692 -0.0851
  200MOL0     H26366  10.739   4.999   7.480 -0.7744 -0.9707  0.1268
  200MOL0     H26367  10.689   4.951   7.322 -2.0106  2.2682  2.4028
  200MOL0     H26368  10.691   5.170   7.321  1.0799  0.4359 -1.4435
  200MOL0     H26369  10.835   5.148   7.230  0.7949  1.2120 -0.1613
  200MOL0     H26370  10.973   5.187   7.445  0.5585  0.0007 -1.9865
  200MOL0     H26371  10.806   5.209   7.533 -3.1825 -0.0033 -2.3572
  200MOL0     H26372  10.783   5.405   7.366  1.5124  0.1304 -2.1627
  200MOL0     H26373  10.885   5.417   7.509 -0.5109 -0.4172 -0.2935
  200MOL0     H26374  10.986   5.350   7.220  0.3276 -0.2859 -0.6568
  200MOL0     H26375  11.076   5.388   7.359 -0.3660  1.8072  1.2308
  200MOL0     H26376  10.989   5.607   7.382 -2.9250  2.4270 -0.4884
  200MOL0     H26377  10.878   5.583   7.246 -0.0686 -1.4048 -2.7270
  200MOL0     H26378  11.177   5.550   7.213 -0.9608 -2.2599 -0.3056
  200MOL0     H26379  11.072   5.571   7.081 -1.5908  0.7879 -0.7963
  200MOL0     H26380  11.097   5.781   7.285  1.2201 -0.8115  0.5933
  200MOL0     H26381  10.985   5.790   7.147 -0.8549 -4.0472 -3.5522
  200MOL0     H26382  11.104   4.788   7.303 -0.9740  0.2164 -1.7346
  200MOL0     H26383  11.160   4.556   7.382 -1.5357 -3.5597  1.3092
  200MOL0     H26384  10.932   4.218   7.642  1.5505  3.4839 -2.5485
  200MOL0     H26385  10.938   3.983   7.742 -1.0768  0.0118 -1.8592
  200MOL0     H26386  11.450   4.542   7.368  0.3339  0.2225 -0.3248
  200MOL0     H26387  11.339   4.698   7.230  3.3538 -0.6685 -2.7642
  200MOL0     H26388  11.386   5.327   7.116 -0.3233  2.3031 -1.7346
  200MOL0     H26389  11.262   5.433   6.950  1.7016 -0.5464  0.3865
  200MOL0     H26390  11.181   5.438   6.697 -1.4802  0.7647 -1.4227
  200MOL0     H26391  11.117   5.530   6.840 -5.8086  2.0829  1.8407
  200MOL0     H26392  10.987   5.486   6.577 -1.0799 -0.6812  1.1049
  200MOL0     H26393  10.913   5.564   6.711 -1.1159 -2.8981 -0.3240
  200MOL0     H26394  11.152   5.634   6.542 -0.4868  1.1452  0.1932
  200MOL0     H26395  11.143   5.707   6.714  0.8663  2.4260 -1.0277
  200MOL0     H26396  11.085   5.876   6.554  1.1070  0.4255  0.5193
  200MOL0     H26397  10.961   5.764   6.478  0.6743  1.5785 -0.3866
  200MOL0     H26398  10.764   5.926   6.808 -0.2676 -3.3915  1.5415
  200MOL0     H26399  10.972   5.130   6.943  0.5131 -1.7088 -0.0384
  200MOL0     H26400  11.091   5.006   7.115 -1.2943  1.0375  0.5427
  201MOL0     O26401   9.954   8.717   1.043 -0.2689 -0.2389  0.5592
  201MOL0     C26402   9.994   8.687   1.153  0.5194 -0.5245  1.2277
  201MOL0     O26403  10.078   8.580   1.184 -0.1903  0.2051 -0.2056
  201MOL0     C26404  10.139   8.515   1.087 -0.3545  0.6282 -0.1231
  201MOL0     C26405  10.135   8.376   1.108  0.3142 -0.1866 -0.2815
  201MOL0     C26406  10.209   8.297   1.029 -0.8359  0.5803  1.9184
  201MOL0     C26407  10.294   8.353   0.921  0.3600 -0.0249 -0.8630
  201MOL0     O26408  10.352   8.289   0.820 -0.0539  0.1840  0.0976
  201MOL0     C26409  10.261   8.190   0.753 -1.0953 -0.1941  0.3951
  201MOL0     C26410  10.310   8.168   0.606 -0.6544  0.1858  0.6330
  201MOL0     C26411  10.436   8.079   0.607 -0.0968  0.2248  0.0982
  201MOL0     C26412  10.565   8.163   0.640  0.8588 -0.2552  0.0537
  201MOL0     C26413  10.685   8.097   0.597  0.0316  0.9090 -0.7260
  201MOL0     C26414  10.822   8.135   0.667 -0.6853 -0.2795  0.3673
  201MOL0     C26415  10.884   8.264   0.614 -0.6598  0.1689  0.2371
  201MOL0     C26416  11.023   8.286   0.694  0.3495 -0.7867  0.2070
  201MOL0     N26417  11.014   8.281   0.849  0.3409  0.2803 -0.6275
  201MOL0     C26418  11.083   8.209   0.938 -1.1297  0.0632  0.6563
  201MOL0     C26419  11.027   8.235   1.057 -0.2292  1.0052  0.5304
  201MOL0     C26420  11.076   8.180   1.194 -0.2472 -0.0060 -0.0073
  201MOL0     C26421  11.229   8.183   1.207  0.5535  0.2268 -0.4104
  201MOL0     C26422  11.288   8.320   1.226  0.1330 -0.4252  0.0927
  201MOL0     C26423  11.233   8.403   1.348 -0.6907 -0.4165 -1.0552
  201MOL0     O26424  11.215   8.321   1.466  0.2889  0.0629 -0.3434
  201MOL0     C26425  11.147   8.388   1.564  0.1130 -0.4134 -1.0637
  201MOL0     C26426  11.003   8.393   1.545 -0.3011 -0.0154 -0.4228
  201MOL0     C26427  10.925   8.431   1.656 -0.4369  0.4107  1.2689
  201MOL0     C26428  10.981   8.466   1.777 -1.3397  0.0020 -0.2576
  201MOL0     C26429  10.891   8.505   1.882  0.0256 -0.5143 -0.0933
  201MOL0     O26430  10.768   8.447   1.886 -0.9027  0.0701  0.0412
  201MOL0     C26431  10.663   8.492   1.968 -0.2650  0.2417  0.6925
  201MOL0     C26432  10.593   8.387   2.019  1.0148 -0.3793 -0.1606
  201MOL0     C26433  10.496   8.413   2.114  1.1251  0.1281 -0.8910
  201MOL0     C26434  10.477   8.545   2.161 -0.4463 -0.8895 -0.0682
  201MOL0     O26435  10.398   8.585   2.262 -0.5756  0.0268 -0.1716
  201MOL0     C26436  10.275   8.512   2.292  0.8086 -0.6281 -0.4520
  201MOL0     C26437  10.206   8.570   2.411 -0.7264 -0.6230 -0.4824
  201MOL0     C26438  10.059   8.533   2.441 -0.8040 -0.6614  0.6760
  201MOL0     C26439  10.004   8.626   2.557  0.8839  0.4569 -0.0205
  201MOL0     C26440   9.904   8.728   2.498  0.1550  0.5734  0.3096
  201MOL0     C26441   9.856   8.828   2.598  0.1697  0.6611  0.8764
  201MOL0     C26442   9.908   8.964   2.581  1.1736 -0.4213  0.2059
  201MOL0     C26443   9.848   9.042   2.465  0.8094  0.3129  0.7964
  201MOL0    Cl26444   9.889   9.215   2.462 -0.0480 -0.3672 -0.1437
  201MOL0     C26445  10.547   8.655   2.102  0.1185  0.5435 -0.1031
  201MOL0     C26446  10.632   8.627   1.994  0.3545  0.4521 -0.6540
  201MOL0     O26447  10.929   8.582   1.964  0.4371 -0.8518  0.4992
  201MOL0     C26448  11.119   8.472   1.791  0.2025 -0.7507 -0.0351
  201MOL0     C26449  11.198   8.426   1.689 -0.0319 -0.8826  0.7009
  201MOL0     N26450  10.933   8.337   1.042  0.9876  0.5917  0.5478
  201MOL0     N26451  10.933   8.369   0.914  0.1476 -0.7100  0.1279
  201MOL0     C26452  10.315   8.483   0.922  0.7127  0.1101 -0.9516
  201MOL0     C26453  10.227   8.567   0.992  0.0087 -0.8000  0.1324
  201MOL0     C26454   9.948   8.765   1.266 -0.3730 -0.4084  0.1869
  201MOL0     C26455   9.865   8.890   1.252  0.3888  0.3409 -0.5687
  201MOL0     C26456   9.814   8.966   1.367  0.6380  1.3359  0.1980
  201MOL0     C26457   9.835   8.907   1.494  0.8271 -0.2325 -0.2701
  201MOL0     O26458   9.803   8.964   1.615  1.1581  0.4263 -0.1578
  201MOL0     C26459   9.709   9.071   1.601  0.2275  0.2462 -0.8886
  201MOL0     C26460   9.785   9.205   1.578 -1.0511 -0.2947 -0.2234
  201MOL0     C26461   9.706   9.329   1.636 -0.3392 -0.2279  0.9904
  201MOL0     C26462   9.751   9.461   1.556 -0.5986  1.4843 -0.3639
  201MOL0     C26463   9.710   9.449   1.418  0.4027  0.3466  0.1323
  201MOL0     C26464   9.649   9.440   1.310 -0.4153 -0.0650 -0.7154
  201MOL0     C26465   9.906   8.787   1.499 -0.3200  0.6626  0.3566
  201MOL0     C26466   9.953   8.722   1.392  0.2704 -1.0571  1.0014
  201MOL0     H26467  10.085   8.341   1.198  0.6020 -2.3469 -0.9077
  201MOL0     H26468  10.204   8.189   1.020 -3.4667  0.5019  3.2634
  201MOL0     H26469  10.156   8.220   0.748 -1.6887 -2.0431  0.9213
  201MOL0     H26470  10.256   8.100   0.815 -1.8820  0.4309  1.2654
  201MOL0     H26471  10.332   8.265   0.561 -4.4394  0.6629 -0.5936
  201MOL0     H26472  10.234   8.125   0.540  0.2039  0.3305 -0.4903
  201MOL0     H26473  10.438   8.034   0.507 -3.7436  2.1622 -1.0309
  201MOL0     H26474  10.422   8.004   0.686  1.9137  0.0656  0.3670
  201MOL0     H26475  10.558   8.263   0.595 -0.5282 -1.4671 -2.6857
  201MOL0     H26476  10.574   8.183   0.747  4.6255  1.4405 -0.4288
  201MOL0     H26477  10.697   8.093   0.489 -3.5435 -1.7567 -1.2195
  201MOL0     H26478  10.671   7.993   0.630  2.6057 -0.6260 -3.8460
  201MOL0     H26479  10.906   8.066   0.659  1.5099  2.4452 -2.4239
  201MOL0     H26480  10.791   8.147   0.771 -2.4452  3.7116 -0.4098
  201MOL0     H26481  10.914   8.255   0.509  1.2633 -0.4829  0.8101
  201MOL0     H26482  10.825   8.356   0.620  1.1232  1.3993 -0.1019
  201MOL0     H26483  11.078   8.376   0.667 -2.7532  1.7730  1.7595
  201MOL0     H26484  11.093   8.208   0.660  0.1637  0.3067 -3.0945
  201MOL0     H26485  11.172   8.147   0.929 -1.2530 -0.0067 -0.1598
  201MOL0     H26486  11.049   8.075   1.208  3.7245 -1.2716 -0.5270
  201MOL0     H26487  11.028   8.241   1.271  0.0848  3.8329 -2.5275
  201MOL0     H26488  11.258   8.127   1.118 -1.2402 -1.8287  0.2093
  201MOL0     H26489  11.265   8.118   1.287 -0.2980  2.0369  1.5516
  201MOL0     H26490  11.396   8.318   1.216  0.4640 -4.5071  2.5146
  201MOL0     H26491  11.276   8.372   1.130 -0.4817 -0.5905  0.0739
  201MOL0     H26492  11.142   8.458   1.321  0.3047  1.6146 -0.5073
  201MOL0     H26493  11.301   8.486   1.368 -0.5470  0.0744 -3.3123
  201MOL0     H26494  10.952   8.363   1.454  1.8914  0.5878 -1.9504
  201MOL0     H26495  10.818   8.441   1.644 -0.3326 -0.6024 -0.9778
  201MOL0     H26496  10.614   8.284   1.992  0.6661 -0.5220  0.1023
  201MOL0     H26497  10.452   8.331   2.169 -1.3870  1.1223 -1.2818
  201MOL0     H26498  10.287   8.403   2.293  0.3914 -0.7945 -3.7362
  201MOL0     H26499  10.213   8.527   2.203  0.2302  1.6906  0.2748
  201MOL0     H26500  10.202   8.679   2.401 -3.9053 -0.6249 -0.3767
  201MOL0     H26501  10.266   8.553   2.501 -0.1206  0.9535 -0.5520
  201MOL0     H26502  10.075   8.430   2.471  2.7253 -0.6664 -0.7160
  201MOL0     H26503  10.002   8.535   2.347  0.0597 -0.8222  0.1379
  201MOL0     H26504   9.943   8.565   2.625 -1.4294  1.4598 -1.0565
  201MOL0     H26505  10.090   8.671   2.608  2.3874 -2.4659  0.1878
  201MOL0     H26506   9.815   8.679   2.457 -0.9115  3.1279 -0.6432
  201MOL0     H26507   9.950   8.786   2.417 -2.0008 -0.3979 -1.7299
  201MOL0     H26508   9.871   8.785   2.697 -0.0466  3.0386  1.9948
  201MOL0     H26509   9.750   8.836   2.572 -0.1399 -2.7329  0.6693
  201MOL0     H26510   9.887   9.018   2.674 -0.3798  3.0210 -1.9406
  201MOL0     H26511  10.017   8.960   2.569  1.5267  2.0339  1.9223
  201MOL0     H26512   9.738   9.044   2.462  0.7976  0.0467  0.9788
  201MOL0     H26513   9.886   9.000   2.372 -2.2297 -1.3925  0.1858
  201MOL0     H26514  10.538   8.758   2.136  0.5181  0.8005 -0.7347
  201MOL0     H26515  10.684   8.697   1.929  2.8201 -2.1577 -1.7330
  201MOL0     H26516  11.168   8.492   1.885 -0.4654 -0.4750  0.2581
  201MOL0     H26517  11.301   8.428   1.723 -1.0631  1.1774  4.2208
  201MOL0     H26518  10.362   8.531   0.836 -1.9331 -0.8705 -3.0934
  201MOL0     H26519  10.234   8.675   0.982  0.1625 -0.7839  0.4048
  201MOL0     H26520   9.852   8.929   1.151 -0.4139  0.5806 -0.3852
  201MOL0     H26521   9.752   9.054   1.353 -0.6074  1.1442  3.4970
  201MOL0     H26522   9.658   9.073   1.697 -0.4124 -0.1902 -1.2168
  201MOL0     H26523   9.637   9.036   1.526  0.0200 -2.2022  0.3253
  201MOL0     H26524   9.885   9.203   1.621 -0.4623  1.7457 -1.3480
  201MOL0     H26525   9.804   9.208   1.471 -0.0318 -0.1402 -0.0469
  201MOL0     H26526   9.717   9.329   1.745  1.2930 -1.7722  0.8784
  201MOL0     H26527   9.599   9.325   1.613 -0.0874  0.2471 -0.3882
  201MOL0     H26528   9.714   9.550   1.607 -1.4993  0.2176  1.3098
  201MOL0     H26529   9.860   9.460   1.549 -0.5155  1.0419  0.7270
  201MOL0     H26530   9.612   9.423   1.210 -0.0954 -2.1811 -0.5300
  201MOL0     H26531   9.923   8.739   1.595  0.6750  3.0617  1.4596
  201MOL0     H26532  10.011   8.632   1.410  5.5360  1.5422 -0.9886
  202MOL0     O26533   2.083   3.316   9.939  0.5132 -0.1131 -0.4567
  202MOL0     C26534   2.033   3.354   9.834  0.4949 -0.3768  0.2120
  202MOL0     O26535   1.908   3.421   9.824 -0.5379  0.2036 -0.4294
  202MOL0     C26536   1.834   3.445   9.936  0.1592 -0.4726  0.0288
  202MOL0     C26537   1.699   3.474   9.905  0.3313 -0.3150  0.1174
  202MOL0     C26538   1.609   3.507  10.005 -0.3986  0.1485 -0.0207
  202MOL0     C26539   1.647   3.534  10.135 -0.0657  0.2918 -1.3443
  202MOL0     O26540   1.573   3.586  10.237  0.2315  0.7222  0.1917
  202MOL0     C26541   1.439   3.638  10.192  0.1817  1.0972  0.2122
  202MOL0     C26542   1.378   3.723  10.312  0.2953 -0.9441 -0.6821
  202MOL0     C26543   1.458   3.852  10.319 -0.3146  0.4587 -0.6381
  202MOL0     C26544   1.391   3.954  10.409 -1.3031  0.8347  0.2524
  202MOL0     C26545   1.479   4.076  10.449  0.7170  0.9582  0.7879
  202MOL0     C26546   1.408   4.144  10.569  0.2420  0.1698  0.2180
  202MOL0     C26547   1.439   4.290  10.562 -1.1212 -1.0998  0.1687
  202MOL0     C26548   1.341   4.360  10.653  0.0536 -0.4224  0.9996
  202MOL0     N26549   1.326   4.502  10.620 -0.1110 -0.4124 -0.7587
  202MOL0     C26550   1.416   4.594  10.567  0.1030  1.3184  0.6130
  202MOL0     C26551   1.337   4.706  10.544 -1.0245  0.5323  0.1570
  202MOL0     C26552   1.404   4.829  10.498 -0.2991 -0.5257  0.6839
  202MOL0     C26553   1.431   4.929  10.610 -0.6874 -0.3297 -0.8344
  202MOL0     C26554   1.468   5.068  10.579 -0.7589  1.0672 -0.2438
  202MOL0     C26555   1.625   5.073  10.548 -0.1403  0.4200 -0.3652
  202MOL0     O26556   1.688   5.049  10.675  0.9786 -0.1125 -0.0668
  202MOL0     C26557   1.826   5.061  10.670 -0.3051 -0.9229  0.2539
  202MOL0     C26558   1.896   5.015  10.779  0.4993  1.0554 -0.2535
  202MOL0     C26559   2.032   5.008  10.775 -0.9896 -0.1132  0.1534
  202MOL0     C26560   2.115   5.059  10.667  0.3589 -0.1499  0.4132
  202MOL0     C26561   2.263   5.048  10.661  1.2353  0.5450 -0.1358
  202MOL0     O26562   2.330   5.120  10.574 -0.2489  0.3844 -0.2053
  202MOL0     C26563   2.465   5.097  10.548 -0.4945 -0.2933  0.2478
  202MOL0     C26564   2.514   5.184  10.453  0.3991 -0.9233 -0.3031
  202MOL0     C26565   2.648   5.179  10.406  0.5084  0.6231 -0.0820
  202MOL0     C26566   2.734   5.086  10.462 -0.0263 -0.2526 -0.4536
  202MOL0     O26567   2.859   5.068  10.415 -0.5753 -0.6852  0.2564
  202MOL0     C26568   2.962   5.034  10.518  0.1227 -0.3625 -0.8530
  202MOL0     C26569   3.092   5.106  10.485  0.6347  0.1599 -0.7576
  202MOL0     C26570   3.202   5.083  10.585 -0.5327  0.0744  0.0539
  202MOL0     C26571   3.175   5.173  10.707  0.3674 -0.7322 -0.1497
  202MOL0     C26572   3.281   5.163  10.820 -0.5967 -0.0826 -0.0938
  202MOL0     C26573   3.422   5.188  10.754 -0.6360 -0.2799 -0.7711
  202MOL0     C26574   3.513   5.241  10.863  1.2152  0.8154 -0.2675
  202MOL0     C26575   3.641   5.316  10.811 -0.2410  0.0189  0.5969
  202MOL0    Cl26576   3.604   5.450  10.713 -0.0958 -0.3906 -0.6824
  202MOL0     C26577   2.685   4.990  10.550 -0.7253  0.3278 -0.4157
  202MOL0     C26578   2.549   4.994  10.589 -0.0071 -0.1697  0.6495
  202MOL0     O26579   2.307   4.952  10.729  0.2339 -0.4080  0.0840
  202MOL0     C26580   2.044   5.111  10.559  0.3649 -0.0511  0.3907
  202MOL0     C26581   1.904   5.108  10.558 -0.1338 -0.2042  0.4865
  202MOL0     N26582   1.207   4.689  10.599 -0.1248  0.1716  0.3679
  202MOL0     N26583   1.202   4.564  10.633  0.1322  0.4692  0.8626
  202MOL0     C26584   1.781   3.498  10.166  0.1582  1.0128  0.2988
  202MOL0     C26585   1.873   3.461  10.065 -0.2949  0.1247 -0.6269
  202MOL0     C26586   2.111   3.343   9.704 -0.1995  0.1674 -0.4058
  202MOL0     C26587   2.243   3.315   9.692  0.9048 -0.3414 -0.1447
  202MOL0     C26588   2.306   3.309   9.563  0.2189 -0.0843 -1.2144
  202MOL0     C26589   2.225   3.314   9.450 -0.1948  0.3015  0.1306
  202MOL0     O26590   2.281   3.312   9.324 -0.8186  0.3688  0.0879
  202MOL0     C26591   2.252   3.417   9.225  0.1002 -0.0490  0.8832
  202MOL0     C26592   2.374   3.496   9.178 -0.0839 -0.4008 -0.2344
  202MOL0     C26593   2.479   3.409   9.118 -0.0414  0.9996 -0.2054
  202MOL0     C26594   2.611   3.465   9.078  1.0918 -0.3118 -0.1496
  202MOL0     C26595   2.605   3.586   9.007 -0.0267 -0.6199  0.0347
  202MOL0     C26596   2.631   3.685   8.950  0.4925 -0.4677 -0.1569
  202MOL0     C26597   2.087   3.338   9.459 -0.1003  0.4082  0.2864
  202MOL0     C26598   2.034   3.358   9.585 -1.0645 -0.0711  0.1474
  202MOL0     H26599   1.660   3.466   9.804 -0.9172 -0.2531  0.5814
  202MOL0     H26600   1.504   3.508   9.978 -0.0719  1.7076 -1.3658
  202MOL0     H26601   1.374   3.551  10.183  2.1887 -0.4631 -0.1733
  202MOL0     H26602   1.446   3.689  10.095 -3.0942  1.2436 -0.0580
  202MOL0     H26603   1.390   3.678  10.411  3.7567  1.2271  0.0375
  202MOL0     H26604   1.271   3.746  10.301  0.6832  3.1280  1.7890
  202MOL0     H26605   1.466   3.891  10.218 -1.3687 -1.4097 -1.4997
  202MOL0     H26606   1.561   3.839  10.355 -0.0343 -3.2071 -2.3213
  202MOL0     H26607   1.301   3.986  10.356 -1.9252  0.0247  0.7856
  202MOL0     H26608   1.368   3.900  10.501  1.0114  1.3580  1.2251
  202MOL0     H26609   1.488   4.137  10.358 -1.8674 -2.9807 -2.4693
  202MOL0     H26610   1.580   4.040  10.468  0.0916 -0.2644  1.9602
  202MOL0     H26611   1.429   4.097  10.665 -1.1041  2.0138  1.4857
  202MOL0     H26612   1.301   4.128  10.559  0.7427 -2.0937 -3.6965
  202MOL0     H26613   1.539   4.310  10.600 -0.7045 -0.6095 -1.1360
  202MOL0     H26614   1.429   4.326  10.459  2.1099  2.0525  0.7561
  202MOL0     H26615   1.355   4.351  10.761  0.0782 -0.0786  1.0269
  202MOL0     H26616   1.241   4.318  10.642 -0.1984  0.3592  0.1585
  202MOL0     H26617   1.523   4.586  10.551 -0.1068 -1.9080  0.1496
  202MOL0     H26618   1.339   4.878  10.424 -0.8255  0.1219  1.5607
  202MOL0     H26619   1.500   4.793  10.459 -0.9318 -0.3845 -1.0963
  202MOL0     H26620   1.512   4.875  10.659  2.8759  0.4940 -5.1316
  202MOL0     H26621   1.346   4.927  10.679  1.3157 -0.3441  1.8161
  202MOL0     H26622   1.404   5.097  10.496  1.4965  3.6834 -1.2153
  202MOL0     H26623   1.451   5.136  10.664  1.6927  0.1879  1.0416
  202MOL0     H26624   1.646   5.172  10.505  0.5349  0.9288  1.0612
  202MOL0     H26625   1.641   4.995  10.473 -2.4207 -3.4950  2.8455
  202MOL0     H26626   1.841   4.970  10.861  1.7632 -2.1371 -1.0082
  202MOL0     H26627   2.099   4.974  10.853  1.5605  0.7957 -1.4698
  202MOL0     H26628   2.455   5.270  10.421 -1.1396 -3.0004 -3.5228
  202MOL0     H26629   2.675   5.246  10.325 -2.2733  0.1016 -1.5927
  202MOL0     H26630   2.973   4.925  10.524 -2.7768 -0.6418  1.4613
  202MOL0     H26631   2.923   5.070  10.613  0.5038 -2.6663  0.2374
  202MOL0     H26632   3.064   5.212  10.485  1.1309  0.2935 -1.1943
  202MOL0     H26633   3.135   5.075  10.390 -1.9764 -2.8282 -1.0998
  202MOL0     H26634   3.292   5.116  10.533 -0.5642 -0.2369 -0.2000
  202MOL0     H26635   3.220   4.975  10.597  1.0268  0.4799  1.7736
  202MOL0     H26636   3.182   5.272  10.661 -0.2380 -0.5695  0.0895
  202MOL0     H26637   3.074   5.165  10.748 -0.4088 -0.3200 -1.8701
  202MOL0     H26638   3.283   5.062  10.862  6.1858 -1.9134 -3.3790
  202MOL0     H26639   3.250   5.243  10.888 -2.2104 -0.7408 -0.0112
  202MOL0     H26640   3.419   5.263  10.675  2.3507  2.4731  1.4782
  202MOL0     H26641   3.463   5.096  10.711  2.2226  0.0018  1.0951
  202MOL0     H26642   3.463   5.312  10.929 -0.6410 -0.5286 -0.1383
  202MOL0     H26643   3.514   5.154  10.929 -3.4813  0.1873 -0.6691
  202MOL0     H26644   3.712   5.249  10.761 -0.1440  0.9333 -0.5593
  202MOL0     H26645   3.694   5.357  10.897  2.7714 -2.6918  0.2133
  202MOL0     H26646   2.742   4.898  10.562 -1.0761  0.1175 -0.3307
  202MOL0     H26647   2.505   4.911  10.643 -2.0376 -0.8353 -1.8195
  202MOL0     H26648   2.100   5.127  10.467 -0.3757  1.6012  0.1905
  202MOL0     H26649   1.863   5.133  10.461  1.9454  0.5758 -0.2420
  202MOL0     H26650   1.816   3.507  10.269 -0.9993  3.2235  0.5613
  202MOL0     H26651   1.978   3.466  10.094 -0.2767 -0.9096 -0.4769
  202MOL0     H26652   2.300   3.292   9.781 -0.2655 -0.3058  0.6308
  202MOL0     H26653   2.410   3.277   9.560  0.3738 -0.0689  1.3335
  202MOL0     H26654   2.169   3.483   9.253  0.2812 -1.0555  4.1821
  202MOL0     H26655   2.230   3.354   9.138  2.2042 -1.4693  1.3216
  202MOL0     H26656   2.341   3.558   9.094 -2.5221 -1.7352 -0.3441
  202MOL0     H26657   2.405   3.570   9.252  0.9231 -1.1352  0.0970
  202MOL0     H26658   2.446   3.353   9.029  1.8179 -0.4682 -0.0263
  202MOL0     H26659   2.487   3.333   9.196  0.2661  1.2732  0.0301
  202MOL0     H26660   2.663   3.487   9.171 -0.6090 -1.9653  1.2894
  202MOL0     H26661   2.672   3.387   9.033  2.3335  0.6081 -0.1173
  202MOL0     H26662   2.659   3.781   8.911 -1.2545  0.8500  1.6076
  202MOL0     H26663   2.027   3.327   9.370  0.2622  1.4315 -0.0926
  202MOL0     H26664   1.929   3.384   9.589 -1.1957 -0.3628 -1.1249
  203MOL0     O26665   7.661   3.067   6.598 -0.8791 -0.0735  0.2752
  203MOL0     C26666   7.704   3.096   6.707 -0.0439  0.3172 -1.0846
  203MOL0     O26667   7.626   3.139   6.818 -0.3385 -0.6736 -0.2145
  203MOL0     C26668   7.480   3.113   6.831 -0.1812 -0.3278  0.2604
  203MOL0     C26669   7.393   3.021   6.758  1.0364  0.5573 -0.6480
  203MOL0     C26670   7.252   3.013   6.784  0.3438 -0.5702 -0.1509
  203MOL0     C26671   7.204   3.087   6.893 -0.7970 -0.9708 -0.5207
  203MOL0     O26672   7.070   3.081   6.935  1.0533 -0.2574 -0.1214
  203MOL0     C26673   7.006   2.959   6.894 -0.5242  0.1344 -0.4637
  203MOL0     C26674   6.895   2.979   6.792 -0.6378  0.0204 -0.1610
  203MOL0     C26675   6.797   3.092   6.821 -0.2527  0.3525 -0.5186
  203MOL0     C26676   6.708   3.055   6.937  0.1929 -0.9465 -0.7383
  203MOL0     C26677   6.582   3.134   6.971  0.1809  0.6967  0.4116
  203MOL0     C26678   6.590   3.283   6.921 -0.1091  0.9240  0.6504
  203MOL0     C26679   6.457   3.352   6.914  0.1514  0.1671 -0.0991
  203MOL0     C26680   6.413   3.413   7.047  0.4693  0.5576  0.7632
  203MOL0     N26681   6.305   3.343   7.115  0.1895 -1.0800  0.6153
  203MOL0     C26682   6.206   3.268   7.059  0.5566 -0.1120 -0.4356
  203MOL0     C26683   6.110   3.249   7.156 -0.0588  0.2686 -0.3063
  203MOL0     C26684   6.001   3.152   7.147 -0.1678  0.2032  0.2765
  203MOL0     C26685   5.991   3.020   7.232  0.2562  0.1083 -0.1011
  203MOL0     C26686   6.074   3.021   7.361 -0.1323  0.7448  0.0455
  203MOL0     C26687   6.044   2.891   7.430 -0.2343  0.1224 -1.4241
  203MOL0     O26688   6.039   2.778   7.341 -0.1244 -0.0169 -0.0145
  203MOL0     C26689   6.008   2.654   7.398 -0.5101  0.2944 -0.1799
  203MOL0     C26690   5.934   2.573   7.307 -0.9697 -0.1198 -0.3456
  203MOL0     C26691   5.883   2.453   7.343 -0.5908  0.7950  0.0420
  203MOL0     C26692   5.900   2.403   7.479  0.1984 -0.9316  0.6433
  203MOL0     C26693   5.828   2.295   7.532 -0.0214 -0.3404 -0.0338
  203MOL0     O26694   5.813   2.293   7.662 -0.0042  0.0671 -0.6069
  203MOL0     C26695   5.770   2.195   7.743  0.9667  0.3809 -0.5551
  203MOL0     C26696   5.724   2.069   7.700 -0.4366  1.1045 -0.5942
  203MOL0     C26697   5.698   1.971   7.794  0.4102 -0.1493  0.4418
  203MOL0     C26698   5.704   2.006   7.936  0.1536  0.1540  0.4134
  203MOL0     O26699   5.669   1.918   8.032  0.2855  0.3089 -0.3449
  203MOL0     C26700   5.565   1.819   8.002  0.6625 -0.2242 -0.3702
  203MOL0     C26701   5.495   1.741   8.112 -0.3936  0.4891 -0.0793
  203MOL0     C26702   5.395   1.647   8.041  0.6481  0.1840 -0.0351
  203MOL0     C26703   5.329   1.536   8.135 -0.0885 -0.1256 -0.2715
  203MOL0     C26704   5.174   1.525   8.127 -0.0777 -0.5260  0.6693
  203MOL0     C26705   5.124   1.653   8.176 -0.4796  1.0631 -0.4859
  203MOL0     C26706   4.985   1.687   8.157  0.6584 -0.7376 -1.4492
  203MOL0     C26707   4.945   1.820   8.220  0.0512  0.1576  0.8029
  203MOL0    Cl26708   5.034   1.955   8.170 -0.0476  0.1644 -0.6400
  203MOL0     C26709   5.739   2.134   7.982  0.3293 -0.1463  0.0026
  203MOL0     C26710   5.774   2.221   7.877 -0.1628 -0.1140 -0.8302
  203MOL0     O26711   5.778   2.219   7.450  0.2799  0.2985 -0.3360
  203MOL0     C26712   5.976   2.486   7.570  1.2984 -0.4983 -0.2742
  203MOL0     C26713   6.035   2.605   7.526 -0.4276 -0.0058 -0.0553
  203MOL0     N26714   6.158   3.314   7.275  0.3141  0.7000  0.5368
  203MOL0     N26715   6.274   3.350   7.249 -0.1292 -0.3853  0.2197
  203MOL0     C26716   7.275   3.178   6.961 -0.5825 -0.3570 -0.5251
  203MOL0     C26717   7.415   3.192   6.930  0.9548  0.4168  0.1077
  203MOL0     C26718   7.845   3.127   6.712 -0.2628  1.4020 -1.2219
  203MOL0     C26719   7.901   3.166   6.838  1.2532 -0.5956 -0.2032
  203MOL0     C26720   8.031   3.212   6.851 -0.5226 -0.0603 -0.2682
  203MOL0     C26721   8.110   3.219   6.731 -0.4837 -0.2752 -1.1346
  203MOL0     O26722   8.233   3.279   6.747  0.3511 -0.2823  0.0198
  203MOL0     C26723   8.252   3.384   6.662 -0.8320 -0.0800 -0.4735
  203MOL0     C26724   8.382   3.453   6.704 -0.8483  0.3071  2.0467
  203MOL0     C26725   8.439   3.544   6.592  0.3877  0.1402 -0.1446
  203MOL0     C26726   8.392   3.689   6.611  0.5685  1.1732 -0.0591
  203MOL0     C26727   8.251   3.714   6.605  0.0592  0.1860 -1.1340
  203MOL0     C26728   8.125   3.724   6.603 -0.0450 -0.1897 -0.0331
  203MOL0     C26729   8.063   3.165   6.607 -0.3938 -0.4732  0.7602
  203MOL0     C26730   7.934   3.122   6.603  0.8742  0.1884  0.0912
  203MOL0     H26731   7.413   2.960   6.671 -2.6128 -1.2324 -0.4317
  203MOL0     H26732   7.189   2.945   6.728  2.2668 -2.2616 -0.4048
  203MOL0     H26733   6.972   2.915   6.988  2.0094 -1.4204 -0.1756
  203MOL0     H26734   7.073   2.878   6.865  0.6811  0.3876  1.4236
  203MOL0     H26735   6.838   2.886   6.788  0.0921 -0.4420  0.0705
  203MOL0     H26736   6.930   2.984   6.688 -1.4431  1.8697 -0.3857
  203MOL0     H26737   6.727   3.096   6.737  0.3792  2.6707 -1.0053
  203MOL0     H26738   6.845   3.187   6.843  1.1484 -1.3518  6.1896
  203MOL0     H26739   6.670   2.953   6.933  0.7049 -1.1163 -1.7730
  203MOL0     H26740   6.779   3.066   7.020 -0.1849  0.8993 -0.6148
  203MOL0     H26741   6.544   3.120   7.073 -0.6948 -1.8244 -0.2006
  203MOL0     H26742   6.499   3.089   6.916 -0.4019 -0.0574  1.8472
  203MOL0     H26743   6.636   3.290   6.822  1.4067  2.5670  1.4133
  203MOL0     H26744   6.660   3.340   6.981 -2.3844  1.9648  2.4847
  203MOL0     H26745   6.471   3.430   6.839 -1.2907  0.7990  0.2545
  203MOL0     H26746   6.383   3.283   6.873 -1.0629  1.7160 -0.6149
  203MOL0     H26747   6.381   3.516   7.034 -1.2521  0.0828  1.0429
  203MOL0     H26748   6.491   3.413   7.125  0.0640 -3.5068  1.3949
  203MOL0     H26749   6.205   3.235   6.956  3.2363  1.1689 -0.9528
  203MOL0     H26750   5.983   3.129   7.041 -2.4506  2.9791 -0.0683
  203MOL0     H26751   5.915   3.217   7.166 -2.1009 -1.8523 -0.9533
  203MOL0     H26752   6.025   2.933   7.176  1.4955 -2.1378  3.7761
  203MOL0     H26753   5.888   3.006   7.263  0.4080  1.3217  1.0545
  203MOL0     H26754   6.180   3.027   7.337  0.8232  1.2005  3.6881
  203MOL0     H26755   6.055   3.110   7.421 -2.7232  1.2633 -1.4108
  203MOL0     H26756   5.950   2.898   7.486 -1.5642  2.8455 -3.7088
  203MOL0     H26757   6.125   2.866   7.498  0.2687 -3.3272 -3.1012
  203MOL0     H26758   5.936   2.606   7.203 -0.2058 -1.5730 -0.8188
  203MOL0     H26759   5.841   2.393   7.264  1.2607 -0.6022  0.0481
  203MOL0     H26760   5.701   2.038   7.598 -0.6774 -0.1177 -0.1714
  203MOL0     H26761   5.665   1.873   7.760  0.0478  0.5725 -1.3957
  203MOL0     H26762   5.615   1.748   7.935  2.4019 -0.4149  1.0338
  203MOL0     H26763   5.481   1.870   7.955 -0.7311 -2.2546 -0.1697
  203MOL0     H26764   5.438   1.801   8.182 -2.1970  0.0838 -1.1375
  203MOL0     H26765   5.572   1.686   8.166 -0.0790  3.1679  2.4015
  203MOL0     H26766   5.455   1.593   7.968  0.4209  0.4395 -0.4169
  203MOL0     H26767   5.315   1.703   7.992  1.2366  0.9343 -0.1664
  203MOL0     H26768   5.375   1.440   8.110 -1.8991 -0.7309 -1.4930
  203MOL0     H26769   5.353   1.558   8.239  1.1934  0.3299 -0.6427
  203MOL0     H26770   5.135   1.453   8.200  1.8710 -1.7578  0.5666
  203MOL0     H26771   5.162   1.502   8.021  1.3625 -1.7123  0.7374
  203MOL0     H26772   5.187   1.731   8.135  0.3924 -0.2817 -1.7937
  203MOL0     H26773   5.142   1.654   8.284  1.5412  0.3786 -0.7704
  203MOL0     H26774   4.969   1.693   8.049  0.5241 -1.7273 -1.4881
  203MOL0     H26775   4.922   1.604   8.189 -0.9756 -1.0419 -4.9786
  203MOL0     H26776   4.934   1.817   8.329 -1.2593 -0.4226  0.6755
  203MOL0     H26777   4.845   1.841   8.181  0.6077 -2.0036 -2.1346
  203MOL0     H26778   5.730   2.151   8.089 -0.0161 -2.7045  0.4527
  203MOL0     H26779   5.816   2.317   7.904 -0.0422 -0.0490 -1.2490
  203MOL0     H26780   5.988   2.462   7.675 -1.0207 -2.0822 -0.3142
  203MOL0     H26781   6.104   2.668   7.582  0.2140  0.3851 -1.2416
  203MOL0     H26782   7.225   3.236   7.038  1.4662  1.7011 -0.6179
  203MOL0     H26783   7.475   3.266   6.983 -1.3917  2.2345  0.3631
  203MOL0     H26784   7.850   3.165   6.933 -0.2860  2.1307 -0.8872
  203MOL0     H26785   8.076   3.226   6.949  1.7100 -3.9377 -0.5256
  203MOL0     H26786   8.165   3.450   6.672  2.1870  4.3412 -0.6968
  203MOL0     H26787   8.258   3.340   6.562 -3.6537 -0.0912 -0.7139
  203MOL0     H26788   8.361   3.507   6.797 -1.5704  3.4115  0.2106
  203MOL0     H26789   8.452   3.374   6.730 -0.3936 -0.2962 -0.7655
  203MOL0     H26790   8.403   3.508   6.495 -1.6075 -0.4698  0.7656
  203MOL0     H26791   8.548   3.546   6.590  0.3968  2.1551  0.0951
  203MOL0     H26792   8.445   3.720   6.702  3.8296 -2.7991 -0.2868
  203MOL0     H26793   8.431   3.747   6.527  0.8663 -0.2428 -0.9181
  203MOL0     H26794   8.018   3.714   6.608  0.1215 -2.0601  0.3278
  203MOL0     H26795   8.137   3.160   6.527  3.0960  1.9289  3.5252
  203MOL0     H26796   7.897   3.089   6.506 -1.2098 -0.2937  0.9892
  204MOL0     O26797   8.568   4.121  11.463 -0.7641 -0.1434  0.4181
  204MOL0     C26798   8.580   4.038  11.372  0.1530 -0.0596  0.5745
  204MOL0     O26799   8.661   3.924  11.377  0.2770 -0.1278  0.7824
  204MOL0     C26800   8.740   3.912  11.489 -0.7122  0.2361  0.3121
  204MOL0     C26801   8.693   3.886  11.619 -1.0840 -0.0698  0.8739
  204MOL0     C26802   8.788   3.854  11.715  1.0065  1.0359 -0.1827
  204MOL0     C26803   8.929   3.841  11.689  0.2383 -0.6144  0.7801
  204MOL0     O26804   9.029   3.807  11.782  0.5035 -0.3903  0.0598
  204MOL0     C26805   8.999   3.767  11.913  0.1568 -0.1909 -0.1187
  204MOL0     C26806   8.982   3.887  12.004 -0.7708 -0.2411  0.2815
  204MOL0     C26807   8.934   3.841  12.139 -0.0243  0.1887 -0.7677
  204MOL0     C26808   8.993   3.718  12.209  0.9335  0.1141  0.1487
  204MOL0     C26809   8.955   3.681  12.359  1.5007  0.0443  0.3581
  204MOL0     C26810   8.807   3.674  12.377  0.9128  0.6868 -0.1541
  204MOL0     C26811   8.718   3.565  12.319 -0.4266 -0.3647 -0.2895
  204MOL0     C26812   8.771   3.429  12.374 -0.3412  0.1997  0.1843
  204MOL0     N26813   8.694   3.314  12.312 -0.6130 -0.2062  1.0075
  204MOL0     C26814   8.675   3.274  12.188 -0.2177 -0.5860 -0.4427
  204MOL0     C26815   8.624   3.151  12.183  0.2076  0.7574  0.9736
  204MOL0     C26816   8.610   3.047  12.073 -0.2007  0.0455 -0.1159
  204MOL0     C26817   8.714   2.937  12.064  0.1315 -0.2932  0.0715
  204MOL0     C26818   8.660   2.816  11.991  0.0901  0.4547  0.4754
  204MOL0     C26819   8.774   2.718  11.947  0.4732 -0.3864  0.1339
  204MOL0     O26820   8.716   2.609  11.869  0.3917  0.2128 -0.5928
  204MOL0     C26821   8.642   2.522  11.950 -0.5550 -0.1396  0.5407
  204MOL0     C26822   8.704   2.420  12.030 -0.2653 -0.2785  0.0303
  204MOL0     C26823   8.632   2.322  12.090  1.3165  1.1071 -0.5445
  204MOL0     C26824   8.489   2.340  12.098  0.1520  0.5792  0.1365
  204MOL0     C26825   8.402   2.249  12.185  1.1165  0.4350  0.1743
  204MOL0     O26826   8.462   2.137  12.230 -0.7359  0.8429 -0.9663
  204MOL0     C26827   8.385   2.039  12.284 -0.1359 -0.4460 -0.4251
  204MOL0     C26828   8.362   1.917  12.225 -0.3572 -0.6592  0.0744
  204MOL0     C26829   8.295   1.814  12.288  0.4966  0.1103 -0.3146
  204MOL0     C26830   8.238   1.833  12.414  0.2487  0.4342 -0.2622
  204MOL0     O26831   8.181   1.709  12.464 -0.6484 -0.4934 -0.4853
  204MOL0     C26832   8.156   1.714  12.606 -1.0007 -0.2843 -0.8189
  204MOL0     C26833   8.137   1.569  12.647 -0.5806 -0.2123 -0.3147
  204MOL0     C26834   8.075   1.572  12.783 -0.0342  0.5474 -0.1759
  204MOL0     C26835   8.102   1.440  12.843 -0.7414  0.0218 -0.9776
  204MOL0     C26836   8.038   1.430  12.980  0.4093  0.5634  0.3429
  204MOL0     C26837   7.895   1.370  12.986  0.3899  0.6741 -0.2464
  204MOL0     C26838   7.852   1.377  13.125  0.4511  0.6326 -1.2299
  204MOL0     C26839   7.712   1.319  13.129  0.0538 -0.4118  1.0554
  204MOL0    Cl26840   7.712   1.138  13.169 -0.6086 -0.1404 -0.1129
  204MOL0     C26841   8.258   1.953  12.486 -1.1696 -0.6861 -0.7583
  204MOL0     C26842   8.339   2.054  12.418 -0.4100 -0.1376  1.1069
  204MOL0     O26843   8.287   2.288  12.205  0.7203  1.2861 -0.6749
  204MOL0     C26844   8.429   2.447  12.031 -0.3379 -0.0727 -0.1433
  204MOL0     C26845   8.502   2.529  11.941 -0.8503  0.5525  0.9787
  204MOL0     N26846   8.592   3.123  12.315 -0.4739 -0.2187 -0.4025
  204MOL0     N26847   8.617   3.229  12.388  0.2821  0.1263 -0.5470
  204MOL0     C26848   8.972   3.868  11.563 -0.1737 -0.1565 -0.0904
  204MOL0     C26849   8.879   3.903  11.456  0.2044 -0.2879 -0.3292
  204MOL0     C26850   8.491   4.055  11.248 -0.1503  0.5627 -0.0181
  204MOL0     C26851   8.395   4.155  11.237 -0.4836 -0.4524  0.3403
  204MOL0     C26852   8.313   4.164  11.125  0.9472 -0.0819  0.2168
  204MOL0     C26853   8.349   4.089  11.008 -0.3342  0.5760  0.2935
  204MOL0     O26854   8.297   4.086  10.881 -0.3662 -0.1778  0.1234
  204MOL0     C26855   8.217   4.202  10.847 -0.2364  0.1998  0.2588
  204MOL0     C26856   8.298   4.321  10.809  0.7214 -1.1143  0.3699
  204MOL0     C26857   8.220   4.449  10.770  0.6400  0.6608  0.5311
  204MOL0     C26858   8.249   4.569  10.849  0.1250  0.8667 -0.3389
  204MOL0     C26859   8.249   4.552  10.994  0.0313 -0.6586 -0.4432
  204MOL0     C26860   8.218   4.519  11.115  0.5630  0.1861  0.1471
  204MOL0     C26861   8.446   3.985  11.015  0.1576 -0.5079  0.0243
  204MOL0     C26862   8.513   3.966  11.138 -0.7871 -0.3189  0.5411
  204MOL0     H26863   8.591   3.889  11.656 -1.2755 -0.7389  0.4163
  204MOL0     H26864   8.764   3.815  11.813  0.3328 -3.3648 -1.8809
  204MOL0     H26865   9.076   3.697  11.947  0.3326 -0.5919 -1.2879
  204MOL0     H26866   8.903   3.715  11.910 -2.3574  3.7097  2.3480
  204MOL0     H26867   8.917   3.962  11.957  1.1696 -0.9115 -4.0042
  204MOL0     H26868   9.080   3.936  12.003 -0.0242 -0.9617 -6.2594
  204MOL0     H26869   8.828   3.814  12.136  0.2471 -1.0548  0.2045
  204MOL0     H26870   8.933   3.932  12.200  1.5082 -0.7309  0.7163
  204MOL0     H26871   8.954   3.630  12.157  0.6819 -2.5558  4.3515
  204MOL0     H26872   9.099   3.703  12.187  1.1011  1.4078 -0.0279
  204MOL0     H26873   8.991   3.767  12.417  0.5477  0.3217  0.5532
  204MOL0     H26874   9.010   3.589  12.381  3.0452 -0.4074 -4.2475
  204MOL0     H26875   8.766   3.775  12.368 -2.2936  0.0750  4.0748
  204MOL0     H26876   8.800   3.669  12.486 -2.6519  2.2123 -0.1560
  204MOL0     H26877   8.618   3.592  12.355  0.1042  2.0992 -0.5255
  204MOL0     H26878   8.712   3.569  12.209  0.0680  1.5800 -0.2876
  204MOL0     H26879   8.756   3.436  12.482 -0.7193 -1.7024  0.2837
  204MOL0     H26880   8.876   3.421  12.346 -0.8728  2.7412 -3.1516
  204MOL0     H26881   8.711   3.342  12.112 -1.1963  0.8836  0.3551
  204MOL0     H26882   8.590   3.096  11.977 -1.6297  0.7379  0.5181
  204MOL0     H26883   8.517   2.995  12.098 -0.0769 -0.3473 -0.4547
  204MOL0     H26884   8.747   2.904  12.163  1.1375  4.9252  1.8073
  204MOL0     H26885   8.807   2.968  12.014  0.4716 -1.6087 -0.1417
  204MOL0     H26886   8.598   2.763  12.064  0.0409 -0.7055 -0.3925
  204MOL0     H26887   8.587   2.831  11.910 -1.4805 -0.0485  1.7309
  204MOL0     H26888   8.842   2.687  12.028  0.4689  0.0669  0.3144
  204MOL0     H26889   8.828   2.785  11.880 -0.2694  3.0539  2.7041
  204MOL0     H26890   8.812   2.421  12.022 -0.3391 -0.9749 -1.3435
  204MOL0     H26891   8.679   2.236  12.137 -1.9025 -1.7227 -2.0364
  204MOL0     H26892   8.411   1.908  12.129 -0.5122 -1.0878  0.0315
  204MOL0     H26893   8.276   1.715  12.249  1.1812 -0.5549  0.9775
  204MOL0     H26894   8.066   1.772  12.629 -0.3427  0.6840 -0.6330
  204MOL0     H26895   8.242   1.745  12.666 -0.5731  0.3072 -1.7170
  204MOL0     H26896   8.231   1.515  12.660 -2.2666 -2.8341  2.4645
  204MOL0     H26897   8.077   1.511  12.577  0.6010 -1.4174 -0.3769
  204MOL0     H26898   7.968   1.585  12.800 -0.0631  0.0974 -0.0114
  204MOL0     H26899   8.131   1.651  12.835  0.5577 -0.3857  0.6304
  204MOL0     H26900   8.084   1.358  12.772  1.4435 -1.2539 -0.1813
  204MOL0     H26901   8.210   1.436  12.863 -0.0050  0.4385 -4.2394
  204MOL0     H26902   8.040   1.522  13.039 -0.4421 -0.4621  2.0318
  204MOL0     H26903   8.097   1.357  13.036  0.3652 -0.8137 -1.3069
  204MOL0     H26904   7.894   1.267  12.950  1.8777 -0.1760  1.9292
  204MOL0     H26905   7.837   1.442  12.927 -1.3168  0.7978  1.4694
  204MOL0     H26906   7.914   1.318  13.194  0.7533  0.9513 -1.2273
  204MOL0     H26907   7.845   1.480  13.161  0.8903  0.2713 -0.0657
  204MOL0     H26908   7.675   1.328  13.027  3.4777  0.0293 -0.3016
  204MOL0     H26909   7.657   1.370  13.208 -0.8501  1.7020 -0.8431
  204MOL0     H26910   8.235   1.974  12.590  0.5993  0.9429 -0.6574
  204MOL0     H26911   8.351   2.153  12.462  1.4781  0.0338  0.2773
  204MOL0     H26912   8.323   2.463  12.048 -0.2472  2.3072 -1.3888
  204MOL0     H26913   8.459   2.619  11.897  1.5560  0.4323 -1.9483
  204MOL0     H26914   9.077   3.860  11.537  0.0223  0.5784  0.4386
  204MOL0     H26915   8.910   3.925  11.354  0.1571  1.5290  0.0193
  204MOL0     H26916   8.407   4.223  11.321  1.7123  4.6370 -3.5334
  204MOL0     H26917   8.233   4.237  11.120  0.8344 -0.0459  1.9291
  204MOL0     H26918   8.149   4.227  10.929  0.4742  0.5173  0.7668
  204MOL0     H26919   8.152   4.167  10.767 -1.5561 -1.2681  1.8764
  204MOL0     H26920   8.368   4.345  10.889 -1.7384  2.8538  1.6150
  204MOL0     H26921   8.345   4.277  10.721 -0.2317 -0.8346 -0.3080
  204MOL0     H26922   8.114   4.421  10.776  1.1668 -1.1306  2.6043
  204MOL0     H26923   8.238   4.477  10.666 -1.6793  1.2082  0.2174
  204MOL0     H26924   8.341   4.616  10.813  1.6919 -0.5294  1.6282
  204MOL0     H26925   8.169   4.643  10.839 -0.6652  0.7703  3.7252
  204MOL0     H26926   8.205   4.491  11.217 -0.0966 -2.2205 -0.5262
  204MOL0     H26927   8.461   3.926  10.926  0.6672  1.2175 -1.0955
  204MOL0     H26928   8.597   3.897  11.138  0.5155  1.0112 -2.9959
  205MOL0     O26929   5.417   3.034  10.116  0.0470 -0.4181  0.4900
  205MOL0     C26930   5.493   3.089  10.198  0.4616  0.3962 -0.2918
  205MOL0     O26931   5.543   3.029  10.314  0.1844 -0.6749  0.3866
  205MOL0     C26932   5.514   2.897  10.320 -0.0220 -0.3976 -0.3012
  205MOL0     C26933   5.588   2.799  10.262 -0.1091 -0.7384  0.7472
  205MOL0     C26934   5.558   2.668  10.282 -0.0436 -0.0462 -1.1280
  205MOL0     C26935   5.444   2.635  10.357 -1.2517 -0.1836  1.4634
  205MOL0     O26936   5.392   2.511  10.376  0.5423 -0.3105 -0.8110
  205MOL0     C26937   5.474   2.395  10.387  0.1814  0.3753 -0.0891
  205MOL0     C26938   5.592   2.406  10.497  0.6879 -0.5106  0.4736
  205MOL0     C26939   5.644   2.264  10.518  0.5505 -0.6798  0.2422
  205MOL0     C26940   5.763   2.260  10.609 -0.2886 -0.2314 -0.0660
  205MOL0     C26941   5.826   2.122  10.621  0.5776 -0.1658  0.2771
  205MOL0     C26942   5.867   2.054  10.491 -0.5723 -0.9114 -0.1762
  205MOL0     C26943   5.953   2.147  10.398 -0.0037 -0.6678  1.5123
  205MOL0     C26944   5.934   2.103  10.250  0.1354 -0.2671  0.5657
  205MOL0     N26945   5.992   2.204  10.159  0.0409 -0.3445  0.1253
  205MOL0     C26946   6.104   2.193  10.077  0.6518 -0.5306 -0.9400
  205MOL0     C26947   6.140   2.311  10.024  0.0623  0.0945 -0.1580
  205MOL0     C26948   6.246   2.342   9.930 -0.4696  0.7527 -0.9399
  205MOL0     C26949   6.270   2.252   9.819 -0.8702  0.5898  1.5156
  205MOL0     C26950   6.144   2.237   9.720 -0.6625 -0.3822 -0.3539
  205MOL0     C26951   6.073   2.107   9.724  0.0060  0.1029  0.4396
  205MOL0     O26952   6.137   2.007   9.644 -0.0953  0.1055 -0.0070
  205MOL0     C26953   6.104   1.871   9.658  0.0973  0.0759 -0.5702
  205MOL0     C26954   6.050   1.815   9.776 -0.0782  0.4581 -0.4966
  205MOL0     C26955   6.023   1.677   9.790 -0.3387  0.0395 -0.1997
  205MOL0     C26956   6.043   1.602   9.672 -0.9594  0.2231  0.1729
  205MOL0     C26957   6.006   1.459   9.687  0.0516  0.8834  0.5156
  205MOL0     O26958   6.008   1.400   9.804  0.8996  0.7077 -0.1376
  205MOL0     C26959   5.967   1.269   9.810 -1.2646 -0.9023  0.5800
  205MOL0     C26960   5.835   1.239   9.786  0.5246 -0.4250 -1.7256
  205MOL0     C26961   5.791   1.102   9.808  1.1301  0.6312 -0.5898
  205MOL0     C26962   5.886   1.010   9.848  0.1621 -0.2442 -0.9300
  205MOL0     O26963   5.853   0.873   9.853 -0.0922 -0.0616  0.1569
  205MOL0     C26964   5.912   0.805   9.958  0.1072 -0.1635  0.8511
  205MOL0     C26965   5.831   0.680   9.984 -0.4079  0.5152  0.8085
  205MOL0     C26966   5.856   0.601  10.115  0.4459 -0.4614  0.2849
  205MOL0     C26967   5.993   0.542  10.139  0.0813  0.4706 -0.4332
  205MOL0     C26968   6.035   0.473  10.009  0.4704  0.4973  0.6671
  205MOL0     C26969   6.176   0.397  10.024  0.2514  0.1319  0.0134
  205MOL0     C26970   6.211   0.358   9.879 -0.4476  0.3797 -0.4946
  205MOL0     C26971   6.354   0.279   9.866  0.5098 -1.3106  0.5771
  205MOL0    Cl26972   6.374   0.155   9.965 -0.1584 -0.2531 -0.2214
  205MOL0     C26973   6.020   1.046   9.873  0.3262 -0.4788 -0.1667
  205MOL0     C26974   6.058   1.178   9.851 -0.6536 -0.8263 -0.9136
  205MOL0     O26975   5.969   1.408   9.579 -0.3244  0.1634  0.3254
  205MOL0     C26976   6.084   1.658   9.557  0.6155  0.5105 -0.5189
  205MOL0     C26977   6.121   1.789   9.550 -0.2989  0.1658  0.8348
  205MOL0     N26978   6.049   2.392  10.076  0.4694 -0.0769 -1.3355
  205MOL0     N26979   5.956   2.334  10.147 -0.1125 -0.2621  0.2829
  205MOL0     C26980   5.366   2.726  10.420  0.5746  0.9475  0.3275
  205MOL0     C26981   5.409   2.859  10.403 -0.1044  0.4819  0.3237
  205MOL0     C26982   5.526   3.227  10.175 -0.6868  0.6101 -0.1358
  205MOL0     C26983   5.441   3.307  10.101  0.2701  0.0175  0.4669
  205MOL0     C26984   5.480   3.442  10.078  0.4632  0.8425  0.9408
  205MOL0     C26985   5.601   3.492  10.124 -0.8567  0.4531  1.0732
  205MOL0     O26986   5.630   3.630  10.110  0.2272  0.7725  0.6754
  205MOL0     C26987   5.777   3.658  10.095 -0.1694  0.8627 -0.3753
  205MOL0     C26988   5.793   3.803  10.045  0.3907 -0.8584 -0.0374
  205MOL0     C26989   5.741   3.807   9.896  0.3630  0.3458 -0.2505
  205MOL0     C26990   5.775   3.944   9.818  0.4148  0.3779  0.0457
  205MOL0     C26991   5.683   4.050   9.880  0.3978 -0.2477 -0.5981
  205MOL0     C26992   5.594   4.127   9.925  0.0332  0.0597  0.4582
  205MOL0     C26993   5.688   3.410  10.194  0.3098  0.5468  0.1197
  205MOL0     C26994   5.641   3.280  10.233  0.3776 -0.0611  0.9357
  205MOL0     H26995   5.681   2.818  10.209 -0.5338 -2.2192 -0.6127
  205MOL0     H26996   5.614   2.600  10.219  2.9171  2.1840 -1.1597
  205MOL0     H26997   5.517   2.370  10.290 -2.7504  0.5289 -1.5589
  205MOL0     H26998   5.401   2.319  10.415 -1.4714  1.9593  0.1339
  205MOL0     H26999   5.560   2.449  10.592 -1.5222  0.1314 -0.5029
  205MOL0     H27000   5.659   2.475  10.445 -4.4740  3.9990 -1.0749
  205MOL0     H27001   5.671   2.221  10.422  1.3951  3.5907 -1.6654
  205MOL0     H27002   5.560   2.202  10.550 -1.6494  1.9069 -0.1440
  205MOL0     H27003   5.831   2.335  10.568 -1.9913  1.2060 -0.3576
  205MOL0     H27004   5.730   2.290  10.709 -0.8794 -0.2265 -0.2573
  205MOL0     H27005   5.763   2.052  10.678 -0.2623 -2.1782 -2.8574
  205MOL0     H27006   5.918   2.141  10.677 -0.6916  5.3184  0.9981
  205MOL0     H27007   5.772   2.023  10.447  0.2632 -0.0851 -2.7021
  205MOL0     H27008   5.928   1.965  10.510  1.5614  0.7760  1.3822
  205MOL0     H27009   5.925   2.253  10.405  1.0170 -0.2477 -0.1886
  205MOL0     H27010   6.059   2.150  10.426  0.4486  3.4035  0.1154
  205MOL0     H27011   5.827   2.080  10.241 -0.5567  1.9486  2.2019
  205MOL0     H27012   5.983   2.007  10.230  0.1546  0.0027 -0.7677
  205MOL0     H27013   6.168   2.105  10.079 -0.6097 -1.4885  0.4374
  205MOL0     H27014   6.342   2.348   9.981 -1.4681 -0.9044  1.2941
  205MOL0     H27015   6.237   2.441   9.883  4.0423  0.4090 -3.0101
  205MOL0     H27016   6.290   2.152   9.860 -2.4276  0.5304  2.1865
  205MOL0     H27017   6.358   2.288   9.765 -0.7166 -0.5908  0.9545
  205MOL0     H27018   6.086   2.328   9.738  1.6344  1.0125  0.4142
  205MOL0     H27019   6.190   2.259   9.623 -0.2167  0.3009 -0.0025
  205MOL0     H27020   5.969   2.119   9.693  0.3028  1.1281 -0.1859
  205MOL0     H27021   6.054   2.072   9.826  2.6303 -0.2808  0.8727
  205MOL0     H27022   6.036   1.871   9.868 -1.7533  1.4692 -1.3348
  205MOL0     H27023   5.979   1.635   9.880  1.5879 -0.1645  0.7087
  205MOL0     H27024   5.772   1.326   9.768  3.9953  1.7102 -5.2634
  205MOL0     H27025   5.688   1.081   9.781  1.5063  1.6779 -3.1065
  205MOL0     H27026   5.925   0.866  10.048  2.0525  0.9572 -0.1164
  205MOL0     H27027   6.012   0.782   9.921  1.3718  1.6428  2.9239
  205MOL0     H27028   5.837   0.628   9.888 -2.4812  3.9321 -1.3795
  205MOL0     H27029   5.727   0.714   9.988 -1.3328 -1.4108 -2.8031
  205MOL0     H27030   5.793   0.511  10.108  0.6734 -0.6254  0.3447
  205MOL0     H27031   5.832   0.666  10.200 -1.5004 -0.4008 -0.2540
  205MOL0     H27032   6.065   0.618  10.169  0.5937 -1.0885  2.6545
  205MOL0     H27033   5.991   0.481  10.230  1.5358 -1.2773 -1.5143
  205MOL0     H27034   6.049   0.552   9.935  0.5837 -1.0329 -1.0093
  205MOL0     H27035   5.953   0.418   9.963  0.9462  2.4795 -2.8868
  205MOL0     H27036   6.172   0.318  10.099 -0.9262  1.7376  1.7264
  205MOL0     H27037   6.245   0.474  10.060 -2.2001  2.6140 -0.2536
  205MOL0     H27038   6.135   0.291   9.839  1.3564 -0.8555 -1.9897
  205MOL0     H27039   6.216   0.448   9.817 -1.8492  0.8177 -0.0335
  205MOL0     H27040   6.437   0.342   9.900 -0.8468  0.3407  0.9997
  205MOL0     H27041   6.367   0.250   9.762  3.7270 -1.7657  1.0038
  205MOL0     H27042   6.093   0.974   9.908  0.9222  1.0234  1.8472
  205MOL0     H27043   6.158   1.213   9.875 -0.0716 -1.5580 -2.1903
  205MOL0     H27044   6.110   1.588   9.478 -1.2432 -1.5046  0.5745
  205MOL0     H27045   6.173   1.831   9.464 -0.1794  1.8860  1.7115
  205MOL0     H27046   5.271   2.705  10.469  1.3636  0.3911  1.6497
  205MOL0     H27047   5.355   2.944  10.443 -0.7405  1.0337 -1.6125
  205MOL0     H27048   5.355   3.260  10.054  0.7231 -0.5589  0.1985
  205MOL0     H27049   5.416   3.514  10.027  1.4775  1.2271  0.1758
  205MOL0     H27050   5.828   3.596  10.021  1.3636  1.2112  0.3465
  205MOL0     H27051   5.834   3.645  10.188  0.7199 -1.5489 -1.1601
  205MOL0     H27052   5.752   3.877  10.114 -0.3854 -2.0370  0.8070
  205MOL0     H27053   5.900   3.825  10.048  0.2302 -0.1390  0.8260
  205MOL0     H27054   5.632   3.801   9.898  0.3281  0.8553  1.7517
  205MOL0     H27055   5.783   3.724   9.839  0.1794 -2.6014  3.5227
  205MOL0     H27056   5.881   3.971   9.819  0.8402 -1.1107 -0.8896
  205MOL0     H27057   5.747   3.928   9.713  0.9101 -0.3213  0.0158
  205MOL0     H27058   5.518   4.198   9.952  0.9338  1.3577 -0.3132
  205MOL0     H27059   5.790   3.434  10.225 -0.6884  1.5761  2.9915
  205MOL0     H27060   5.717   3.215  10.275  1.3462  1.8660  2.3248
  206MOL0     O27061   7.197   1.172   2.295  0.8238  0.1223 -1.1687
  206MOL0     C27062   7.085   1.173   2.242 -0.8655 -0.3370 -1.2301
  206MOL0     O27063   6.973   1.209   2.315  0.5666 -0.2291  0.5969
  206MOL0     C27064   6.983   1.270   2.444  1.0781 -0.5556  0.6151
  206MOL0     C27065   7.084   1.354   2.484 -0.2254  1.4357  0.0138
  206MOL0     C27066   7.069   1.423   2.610  0.5216  0.6117  0.2895
  206MOL0     C27067   6.948   1.425   2.682 -0.3899  0.9345 -0.1794
  206MOL0     O27068   6.919   1.499   2.787  0.6551 -0.7346 -0.2366
  206MOL0     C27069   6.934   1.641   2.780 -0.0704 -1.5282 -1.6201
  206MOL0     C27070   6.893   1.711   2.915 -0.4405 -1.3022  0.1244
  206MOL0     C27071   6.915   1.867   2.893  0.1799  0.1004  0.4527
  206MOL0     C27072   6.911   1.960   3.024  0.1047  0.2801 -0.5359
  206MOL0     C27073   6.962   2.107   2.997 -0.0806  0.4037  0.2799
  206MOL0     C27074   6.965   2.175   3.132  0.1990  1.5323  0.5993
  206MOL0     C27075   6.824   2.210   3.192  0.1132 -0.3790  0.5216
  206MOL0     C27076   6.758   2.323   3.127  0.2103 -0.2027  1.2124
  206MOL0     N27077   6.644   2.366   3.196  0.9949  0.0866 -0.5497
  206MOL0     C27078   6.588   2.487   3.183 -0.2451 -0.2662 -0.4390
  206MOL0     C27079   6.504   2.493   3.290 -0.3201  0.7785 -0.3649
  206MOL0     C27080   6.422   2.612   3.322  0.7910  0.8122  0.1203
  206MOL0     C27081   6.498   2.720   3.412  0.1737  1.4598  0.3078
  206MOL0     C27082   6.507   2.681   3.561  0.1289  0.0863  0.9414
  206MOL0     C27083   6.587   2.792   3.637  0.9631 -0.0974 -0.4483
  206MOL0     O27084   6.535   2.918   3.602 -0.0469 -0.1860  0.4077
  206MOL0     C27085   6.440   2.969   3.684  0.2894  0.9683  0.8206
  206MOL0     C27086   6.414   3.100   3.653  0.3680  0.3614  0.3941
  206MOL0     C27087   6.297   3.164   3.700 -0.7489 -0.1685  0.0526
  206MOL0     C27088   6.219   3.107   3.801 -0.2493 -0.0426 -0.6230
  206MOL0     C27089   6.110   3.190   3.863 -0.3543 -1.6861  0.6504
  206MOL0     O27090   6.105   3.320   3.821 -0.2081 -0.5027 -0.4746
  206MOL0     C27091   5.993   3.392   3.866  1.0747 -1.2657 -0.3365
  206MOL0     C27092   5.921   3.454   3.768 -0.7227  0.1611 -0.0597
  206MOL0     C27093   5.822   3.548   3.809 -0.0057 -0.0466 -0.2049
  206MOL0     C27094   5.796   3.576   3.944  0.3050  0.2079  0.7236
  206MOL0     O27095   5.687   3.659   3.971  0.2155  0.6894  1.0139
  206MOL0     C27096   5.648   3.678   4.110  0.0447  0.4551 -0.0929
  206MOL0     C27097   5.511   3.758   4.102 -0.1564  1.1727 -0.1976
  206MOL0     C27098   5.530   3.894   4.053  0.4226 -0.8450  0.3409
  206MOL0     C27099   5.421   3.982   4.110 -0.1289 -1.0866  0.4042
  206MOL0     C27100   5.425   4.116   4.042  0.0023 -0.6405 -0.4731
  206MOL0     C27101   5.332   4.219   4.119  0.1294 -0.0794  0.6119
  206MOL0     C27102   5.205   4.161   4.182  0.2099  0.0618  0.0156
  206MOL0     C27103   5.121   4.279   4.231 -0.1403 -0.1343  0.2775
  206MOL0    Cl27104   5.038   4.373   4.111 -0.8512  0.1515  0.2024
  206MOL0     C27105   5.875   3.512   4.048  0.2012 -0.2302  0.0971
  206MOL0     C27106   5.971   3.417   4.001 -0.6943 -0.4192 -0.8815
  206MOL0     O27107   6.053   3.138   3.962  0.1670  0.5737  0.8681
  206MOL0     C27108   6.251   2.977   3.842 -0.3595 -0.4929 -0.4273
  206MOL0     C27109   6.356   2.904   3.781 -0.3089 -0.6125  0.4549
  206MOL0     N27110   6.504   2.368   3.366  0.0615 -0.2676  0.2277
  206MOL0     N27111   6.584   2.293   3.302 -0.2874  0.7168  0.4516
  206MOL0     C27112   6.855   1.329   2.640  0.1373 -0.6582 -0.1662
  206MOL0     C27113   6.869   1.256   2.523 -0.1506  0.0728 -0.2029
  206MOL0     C27114   7.056   1.115   2.114 -0.4005  0.7685 -0.4610
  206MOL0     C27115   7.151   1.105   2.011 -0.1169  0.9221  0.1797
  206MOL0     C27116   7.120   1.028   1.897 -0.0442 -0.4812 -0.3847
  206MOL0     C27117   6.995   0.968   1.879 -0.7692  0.5375 -0.6005
  206MOL0     O27118   6.953   0.892   1.772  0.1525 -0.6179 -0.2610
  206MOL0     C27119   7.038   0.874   1.663  0.2052  0.4854  0.2405
  206MOL0     C27120   6.954   0.832   1.544 -0.2499 -0.4321  0.6409
  206MOL0     C27121   7.043   0.757   1.438  0.1402  0.2954 -0.6921
  206MOL0     C27122   7.115   0.850   1.344  0.5186 -0.3217 -0.3550
  206MOL0     C27123   7.051   0.869   1.211  0.2740 -0.1489 -0.5652
  206MOL0     C27124   6.995   0.891   1.107  0.6694  0.6554  0.2178
  206MOL0     C27125   6.900   0.976   1.982 -0.2045  0.2807  0.2485
  206MOL0     C27126   6.933   1.050   2.097 -0.5108 -0.1115 -0.1644
  206MOL0     H27127   7.176   1.365   2.427  0.0129 -4.7379 -1.5501
  206MOL0     H27128   7.136   1.489   2.663  1.0280 -1.5618  2.5513
  206MOL0     H27129   6.877   1.680   2.695 -3.5355  2.4336  2.0083
  206MOL0     H27130   7.039   1.667   2.764  0.2918 -0.1156  2.0906
  206MOL0     H27131   6.944   1.677   3.006 -2.5146 -1.3126  1.3323
  206MOL0     H27132   6.789   1.685   2.935 -0.3262 -1.6884  0.2178
  206MOL0     H27133   6.831   1.901   2.832  2.0276  3.0939 -0.6983
  206MOL0     H27134   7.010   1.892   2.843  0.7535  1.4552  2.1142
  206MOL0     H27135   6.809   1.948   3.061 -0.4703  0.9673 -1.8262
  206MOL0     H27136   6.972   1.914   3.102 -2.9451 -0.3734  1.6050
  206MOL0     H27137   6.883   2.149   2.934 -0.3467 -3.3688 -2.2225
  206MOL0     H27138   7.059   2.095   2.948 -0.1296  0.9521  0.0379
  206MOL0     H27139   7.028   2.264   3.119  1.2938  0.7709  0.4964
  206MOL0     H27140   7.012   2.117   3.213 -0.9681  2.4084  1.9578
  206MOL0     H27141   6.750   2.130   3.196 -2.3563  1.7505 -0.0838
  206MOL0     H27142   6.827   2.239   3.298 -0.4895  1.8698 -0.0255
  206MOL0     H27143   6.722   2.290   3.029 -1.9170  0.7379  1.6239
  206MOL0     H27144   6.834   2.401   3.112  1.7585 -0.9736  4.3539
  206MOL0     H27145   6.617   2.559   3.107 -0.9944 -1.0651 -1.5288
  206MOL0     H27146   6.324   2.584   3.360  1.2114 -0.4571  0.3232
  206MOL0     H27147   6.394   2.657   3.226  5.9934 -1.1612 -2.7603
  206MOL0     H27148   6.444   2.813   3.395 -0.5388  2.1398  5.0893
  206MOL0     H27149   6.601   2.715   3.373 -0.3754 -0.8619 -1.0297
  206MOL0     H27150   6.403   2.676   3.595 -0.2474  0.4223 -0.0931
  206MOL0     H27151   6.571   2.592   3.556  0.9955  0.6274  2.0003
  206MOL0     H27152   6.695   2.799   3.622  1.2805 -1.5835  0.9139
  206MOL0     H27153   6.572   2.769   3.743 -0.6448  3.4198  0.2403
  206MOL0     H27154   6.469   3.160   3.581 -0.2269 -1.9305 -2.1451
  206MOL0     H27155   6.290   3.269   3.674  1.5210 -0.1279 -0.6490
  206MOL0     H27156   5.943   3.427   3.665 -0.5885 -2.8292  0.6781
  206MOL0     H27157   5.771   3.592   3.724 -0.3551  0.5658  0.3189
  206MOL0     H27158   5.725   3.746   4.149  5.2719 -2.2912 -4.3087
  206MOL0     H27159   5.640   3.592   4.176  0.3039  1.7106  1.6514
  206MOL0     H27160   5.471   3.746   4.203  1.5296 -1.2765  0.2660
  206MOL0     H27161   5.445   3.706   4.032  0.8519  2.0623 -1.8830
  206MOL0     H27162   5.517   3.895   3.945 -0.2376 -1.4011  0.4116
  206MOL0     H27163   5.631   3.937   4.061  0.7247 -0.7614 -2.6904
  206MOL0     H27164   5.327   3.933   4.086 -1.8813  2.8801 -1.9114
  206MOL0     H27165   5.435   3.995   4.218  4.5290  0.2803 -0.1316
  206MOL0     H27166   5.397   4.100   3.938  2.2014  1.3940 -1.4549
  206MOL0     H27167   5.526   4.158   4.044 -0.1733 -0.2007  1.7055
  206MOL0     H27168   5.322   4.296   4.041 -3.4282 -0.4825  0.5182
  206MOL0     H27169   5.396   4.254   4.200  0.4515  1.7628 -0.3599
  206MOL0     H27170   5.156   4.097   4.108 -0.1454  1.8808 -1.3961
  206MOL0     H27171   5.230   4.112   4.276  2.0425 -3.0246 -1.9060
  206MOL0     H27172   5.188   4.344   4.288 -2.9716  2.0063  1.4533
  206MOL0     H27173   5.047   4.241   4.303  1.4872 -1.1959  1.4770
  206MOL0     H27174   5.861   3.532   4.154 -0.7911  1.9106 -0.3806
  206MOL0     H27175   6.028   3.359   4.073  1.2043  0.9359 -1.1869
  206MOL0     H27176   6.201   2.933   3.927 -0.4959  0.9367  0.2764
  206MOL0     H27177   6.367   2.797   3.792  2.4031 -0.8201 -2.7120
  206MOL0     H27178   6.759   1.323   2.690  0.4731 -2.8985  0.3213
  206MOL0     H27179   6.778   1.206   2.492  0.0107 -0.7335  0.5806
  206MOL0     H27180   7.238   1.170   2.007  3.4567 -3.3515 -5.0632
  206MOL0     H27181   7.191   1.027   1.815 -1.2124 -0.8203 -1.4458
  206MOL0     H27182   7.105   0.788   1.675  0.7817  1.1044  1.6999
  206MOL0     H27183   7.082   0.970   1.633 -0.1474  0.3454 -0.7650
  206MOL0     H27184   6.876   0.760   1.572  0.1670 -1.9932 -1.9333
  206MOL0     H27185   6.913   0.920   1.493  0.8912 -0.0599  0.3368
  206MOL0     H27186   6.986   0.688   1.375  2.5745 -1.7032 -0.8513
  206MOL0     H27187   7.114   0.689   1.486  0.3222  0.4172 -0.7900
  206MOL0     H27188   7.132   0.950   1.383 -2.1926  1.3593 -3.0484
  206MOL0     H27189   7.214   0.804   1.337  1.4805  0.0982  5.5807
  206MOL0     H27190   6.946   0.903   1.013  0.0541 -4.2213 -0.3545
  206MOL0     H27191   6.814   0.912   1.970 -0.4226  0.3211  1.4669
  206MOL0     H27192   6.855   1.045   2.173  0.4476 -1.4855  0.7706
  207MOL0     O27193   0.258   5.184   6.463 -0.0014  0.8607 -0.3999
  207MOL0     C27194   0.297   5.161   6.356 -1.4280  1.1981  0.1304
  207MOL0     O27195   0.307   5.030   6.305 -0.0291  0.5586  0.4367
  207MOL0     C27196   0.300   4.927   6.397  0.4017 -0.1415 -0.0188
  207MOL0     C27197   0.182   4.865   6.439  0.3134 -1.1814  0.0620
  207MOL0     C27198   0.188   4.761   6.533 -0.3103 -0.0348  0.8702
  207MOL0     C27199   0.302   4.708   6.577  0.4372 -0.4446 -0.5372
  207MOL0     O27200   0.291   4.612   6.673 -0.7564  0.1061  0.4116
  207MOL0     C27201   0.414   4.552   6.715  0.5260 -0.6028  0.2459
  207MOL0     C27202   0.445   4.425   6.627  0.2387  1.4797 -0.9278
  207MOL0     C27203   0.383   4.290   6.663 -0.1621 -1.0874  0.1648
  207MOL0     C27204   0.472   4.219   6.762  0.0750 -0.0898  1.1088
  207MOL0     C27205   0.434   4.075   6.776 -0.6185  0.4704 -0.4810
  207MOL0     C27206   0.498   4.011   6.897  0.1215  0.1594 -0.8148
  207MOL0     C27207   0.448   4.061   7.037  0.7091  0.7150  0.9781
  207MOL0     C27208   0.501   3.988   7.161 -0.5869 -0.2158 -0.4571
  207MOL0     N27209   0.635   4.041   7.198  0.3225  0.3507  0.5599
  207MOL0     C27210   0.675   4.080   7.324 -0.1369  0.1802 -0.1636
  207MOL0     C27211   0.810   4.104   7.319  0.0668 -1.5294  0.8498
  207MOL0     C27212   0.903   4.151   7.433  0.6003 -0.0561  0.9872
  207MOL0     C27213   1.050   4.132   7.387 -0.3143  0.1160  0.1374
  207MOL0     C27214   1.152   4.141   7.507  0.7285 -0.4257 -0.0115
  207MOL0     C27215   1.259   4.244   7.483  0.2569 -0.7670 -0.7254
  207MOL0     O27216   1.338   4.197   7.373  0.2447  0.7957  0.0088
  207MOL0     C27217   1.446   4.273   7.326  0.0312  0.3005  0.2042
  207MOL0     C27218   1.463   4.246   7.198  0.3218  0.5376 -0.0405
  207MOL0     C27219   1.561   4.322   7.131 -0.2768 -0.2915 -0.2636
  207MOL0     C27220   1.642   4.413   7.201  0.0972  0.4642 -0.6038
  207MOL0     C27221   1.730   4.500   7.131  0.8345 -0.1906  0.7996
  207MOL0     O27222   1.784   4.605   7.192  0.7558 -0.5545  1.2266
  207MOL0     C27223   1.819   4.722   7.129  0.3368 -0.4434  0.3556
  207MOL0     C27224   1.741   4.773   7.022  0.0859  0.4543  0.6797
  207MOL0     C27225   1.780   4.890   6.951 -0.2652  0.2054  0.2300
  207MOL0     C27226   1.897   4.954   7.005 -0.3599  0.4009  0.1912
  207MOL0     O27227   1.919   5.089   6.971  0.5823 -0.1402 -0.1150
  207MOL0     C27228   1.884   5.144   6.849  0.5276 -0.0456  0.1976
  207MOL0     C27229   1.932   5.285   6.822 -0.6842 -0.3108  0.5394
  207MOL0     C27230   1.909   5.381   6.937 -0.0383  0.5528 -0.3640
  207MOL0     C27231   2.030   5.480   6.963  0.9981  0.1407 -1.0288
  207MOL0     C27232   1.998   5.564   7.077  0.3337 -0.7076 -1.1992
  207MOL0     C27233   1.947   5.502   7.214 -0.0019  0.0743  0.4146
  207MOL0     C27234   2.054   5.416   7.271 -0.5317  0.4393 -0.3677
  207MOL0     C27235   2.006   5.336   7.386 -0.1479  0.3167 -0.5747
  207MOL0    Cl27236   2.153   5.258   7.463  0.1635  0.2889 -0.1593
  207MOL0     C27237   1.963   4.917   7.120  0.4241 -0.1996  0.9397
  207MOL0     C27238   1.924   4.800   7.178 -0.5201  0.3051 -0.4023
  207MOL0     O27239   1.752   4.471   7.012  0.1211  0.2572  0.4925
  207MOL0     C27240   1.628   4.424   7.339 -1.4404  0.1768  0.1412
  207MOL0     C27241   1.521   4.361   7.404  0.4206 -0.5870  0.0636
  207MOL0     N27242   0.849   4.088   7.182  0.7598 -0.8704 -0.1435
  207MOL0     N27243   0.735   4.063   7.108 -0.0841 -0.3297 -1.5092
  207MOL0     C27244   0.421   4.751   6.515  0.2242  1.4778 -0.5751
  207MOL0     C27245   0.422   4.863   6.431 -0.3021 -0.4062  0.3442
  207MOL0     C27246   0.318   5.270   6.268  0.6052 -0.6962 -0.8382
  207MOL0     C27247   0.323   5.240   6.129  0.1116 -0.5925  0.0475
  207MOL0     C27248   0.349   5.349   6.049 -0.9431  0.7917  0.2444
  207MOL0     C27249   0.347   5.483   6.097 -0.2685 -0.2265 -0.8374
  207MOL0     O27250   0.348   5.596   6.014 -0.1853 -0.0417  0.3352
  207MOL0     C27251   0.349   5.580   5.874  0.7241  0.6438  0.4440
  207MOL0     C27252   0.294   5.709   5.803 -0.3987  0.6678 -0.2722
  207MOL0     C27253   0.142   5.727   5.818  0.5066  0.4066  0.4119
  207MOL0     C27254   0.090   5.861   5.752 -0.1728 -0.3118 -0.3456
  207MOL0     C27255   0.144   5.991   5.787  0.9114 -0.6037 -1.0519
  207MOL0     C27256   0.204   6.098   5.816 -0.2693 -0.4246  0.8885
  207MOL0     C27257   0.348   5.509   6.234 -0.3266  0.1762 -0.1590
  207MOL0     C27258   0.332   5.399   6.321  0.0842 -0.1882 -0.2333
  207MOL0     H27259   0.086   4.908   6.415  0.3971  0.8937  2.9608
  207MOL0     H27260   0.100   4.739   6.592  1.3112 -0.4955  3.2236
  207MOL0     H27261   0.398   4.521   6.819 -0.7906  2.1186  0.9547
  207MOL0     H27262   0.504   4.614   6.725 -1.8069  2.7256  3.6552
  207MOL0     H27263   0.553   4.430   6.605  0.2636  0.3392 -1.1295
  207MOL0     H27264   0.415   4.448   6.524 -0.5282 -2.4055 -1.7285
  207MOL0     H27265   0.356   4.238   6.570  1.8832 -0.1674 -1.0081
  207MOL0     H27266   0.288   4.308   6.714  0.7443  0.6983  1.3148
  207MOL0     H27267   0.573   4.238   6.723 -1.1306  2.3151 -1.1217
  207MOL0     H27268   0.458   4.262   6.861  0.5359  0.5652  0.8908
  207MOL0     H27269   0.461   4.011   6.692 -1.7064 -2.4621  1.2340
  207MOL0     H27270   0.326   4.066   6.790 -0.5298 -2.3075 -1.1256
  207MOL0     H27271   0.607   4.007   6.888  0.0144 -4.5529 -2.8195
  207MOL0     H27272   0.482   3.903   6.896  1.0782 -0.0646  1.4882
  207MOL0     H27273   0.449   4.168   7.058  0.2046  0.4658  2.3853
  207MOL0     H27274   0.340   4.045   7.041  0.4989  1.9281  0.5302
  207MOL0     H27275   0.496   3.879   7.154  0.3230 -0.2287 -1.2058
  207MOL0     H27276   0.434   4.006   7.246  0.2590 -1.1673  0.4295
  207MOL0     H27277   0.618   4.092   7.415 -2.8826 -1.9376 -1.4578
  207MOL0     H27278   0.878   4.092   7.521 -0.5600  1.0654  1.4520
  207MOL0     H27279   0.874   4.252   7.463 -1.8247 -0.0938 -0.8554
  207MOL0     H27280   1.083   4.202   7.310 -0.1336 -1.5606 -1.3605
  207MOL0     H27281   1.062   4.031   7.347  0.9319 -0.1813  1.1537
  207MOL0     H27282   1.096   4.179   7.593 -0.0973  1.1323 -1.1800
  207MOL0     H27283   1.199   4.045   7.531 -1.6370 -1.9407 -1.0351
  207MOL0     H27284   1.312   4.240   7.579 -0.2711  1.1713 -0.3111
  207MOL0     H27285   1.215   4.341   7.460 -1.7178 -1.9817 -2.3332
  207MOL0     H27286   1.404   4.174   7.141  0.3097  1.1388 -0.8136
  207MOL0     H27287   1.572   4.303   7.025 -1.8334 -4.5416  0.1056
  207MOL0     H27288   1.655   4.722   6.980 -0.4254  0.6556  1.4579
  207MOL0     H27289   1.737   4.916   6.855  1.1452 -2.4840 -1.2502
  207MOL0     H27290   1.776   5.147   6.827  0.9129 -0.7366 -2.0132
  207MOL0     H27291   1.917   5.074   6.771 -1.3695 -3.5043  2.2117
  207MOL0     H27292   1.887   5.317   6.727  0.5468  2.1652  0.7246
  207MOL0     H27293   2.040   5.275   6.802 -1.3922 -3.3754 -3.0440
  207MOL0     H27294   1.886   5.318   7.024 -0.4100 -0.2757 -1.0569
  207MOL0     H27295   1.823   5.447   6.924  1.5027  3.4460  2.6101
  207MOL0     H27296   2.130   5.440   6.983  1.3684  1.5761  0.1222
  207MOL0     H27297   2.030   5.543   6.874  1.3510 -0.3337 -1.3764
  207MOL0     H27298   1.904   5.618   7.058 -0.7803 -0.7825  2.9874
  207MOL0     H27299   2.084   5.629   7.095  0.7918 -1.5662 -0.1676
  207MOL0     H27300   1.853   5.446   7.215  0.0875 -0.1282 -0.8459
  207MOL0     H27301   1.928   5.589   7.278 -2.2614  1.0948 -1.4578
  207MOL0     H27302   2.089   5.337   7.204  2.5326  1.1097  0.3168
  207MOL0     H27303   2.150   5.462   7.297  0.8087 -1.8125 -1.0557
  207MOL0     H27304   1.940   5.259   7.344  0.0824  0.6955 -1.6602
  207MOL0     H27305   1.947   5.401   7.451 -0.5273 -1.0574  0.5145
  207MOL0     H27306   2.045   4.977   7.157  1.3496 -1.1875  0.5621
  207MOL0     H27307   1.979   4.767   7.266  2.0125 -0.0019 -1.9992
  207MOL0     H27308   1.694   4.487   7.398 -0.4943 -0.1713 -0.5299
  207MOL0     H27309   1.512   4.379   7.510 -0.6553  5.6067 -0.6816
  207MOL0     H27310   0.520   4.712   6.539  0.1270  1.6029  0.0421
  207MOL0     H27311   0.517   4.909   6.405  1.2183 -2.0776  2.5692
  207MOL0     H27312   0.306   5.142   6.085  0.2212 -0.0171 -1.3380
  207MOL0     H27313   0.351   5.336   5.942 -0.0532 -2.8591  0.5789
  207MOL0     H27314   0.286   5.499   5.837  1.2155 -0.6152  2.2597
  207MOL0     H27315   0.454   5.560   5.850  0.5617 -0.4323  0.5919
  207MOL0     H27316   0.346   5.796   5.843  0.1952 -0.1911  0.8904
  207MOL0     H27317   0.325   5.689   5.700  1.0088  2.0038 -0.1414
  207MOL0     H27318   0.122   5.722   5.926  2.0417 -4.0099  0.7156
  207MOL0     H27319   0.098   5.630   5.790  4.0636 -3.1386  5.2588
  207MOL0     H27320   0.104   5.863   5.643 -0.1609  0.5281 -0.3292
  207MOL0     H27321  -0.018   5.868   5.769 -0.2000 -2.8158  1.1224
  207MOL0     H27322   0.257   6.189   5.838 -2.3980  0.6761  1.7301
  207MOL0     H27323   0.364   5.606   6.279  0.3151  0.5447 -1.1405
  207MOL0     H27324   0.318   5.419   6.427 -1.9955 -1.4071 -0.2285
  208MOL0     O27325  10.171   4.219   4.255  0.1167  0.6328 -0.1850
  208MOL0     C27326  10.199   4.171   4.145  0.3106  0.2205 -0.4170
  208MOL0     O27327  10.220   4.246   4.029  0.4863  0.2635 -0.0516
  208MOL0     C27328  10.255   4.383   4.031  0.2430  0.4995 -0.7710
  208MOL0     C27329  10.256   4.436   3.898  0.0002  0.4879  0.1202
  208MOL0     C27330  10.278   4.572   3.878 -0.6995 -0.0311 -0.0031
  208MOL0     C27331  10.290   4.659   3.989 -0.2192  0.4301  0.2583
  208MOL0     O27332  10.308   4.788   3.953  0.2860 -0.1086 -0.0066
  208MOL0     C27333  10.341   4.879   4.058 -0.2493 -0.4624 -0.1730
  208MOL0     C27334  10.354   5.029   4.017 -1.2533  0.6908  0.0594
  208MOL0     C27335  10.490   5.050   3.940  0.5235  0.0937 -0.1891
  208MOL0     C27336  10.486   5.191   3.891 -0.9594  0.5737  0.5103
  208MOL0     C27337  10.625   5.252   3.869  0.3315  0.4779 -0.0816
  208MOL0     C27338  10.592   5.362   3.753  0.4500 -0.0927  0.8497
  208MOL0     C27339  10.687   5.483   3.778  0.0321  0.4517  0.1257
  208MOL0     C27340  10.628   5.616   3.744 -0.4753  0.0239  0.3944
  208MOL0     N27341  10.703   5.732   3.783  0.2845  0.7027  0.2010
  208MOL0     C27342  10.735   5.834   3.693  0.2680  0.9049  0.0371
  208MOL0     C27343  10.794   5.925   3.771 -0.4286 -0.5691  1.2986
  208MOL0     C27344  10.847   6.059   3.718  0.8877  0.3070 -0.4129
  208MOL0     C27345  10.983   6.102   3.772  0.0007 -0.3586 -0.1910
  208MOL0     C27346  11.009   6.237   3.738 -0.7942 -0.6139 -0.3818
  208MOL0     C27347  11.159   6.268   3.768 -0.1388 -0.0193 -0.6937
  208MOL0     O27348  11.183   6.397   3.726 -0.4424 -1.0678 -0.0776
  208MOL0     C27349  11.289   6.466   3.784 -0.4489  0.0843  0.5767
  208MOL0     C27350  11.411   6.403   3.821 -0.1061 -0.3006  0.3218
  208MOL0     C27351  11.516   6.473   3.863 -0.0940  0.3177  0.2303
  208MOL0     C27352  11.499   6.610   3.895  0.2770 -0.2358 -0.0544
  208MOL0     C27353  11.617   6.692   3.934 -0.8930  0.1089 -0.8511
  208MOL0     O27354  11.601   6.815   3.985 -0.1496  0.4939 -0.2019
  208MOL0     C27355  11.676   6.856   4.093 -0.1015  0.0484  0.8617
  208MOL0     C27356  11.616   6.921   4.192  0.6474  0.0744 -0.9396
  208MOL0     C27357  11.689   6.972   4.309 -0.8619  0.1275  0.1381
  208MOL0     C27358  11.827   6.946   4.322 -0.3062  0.1405 -0.2005
  208MOL0     O27359  11.909   6.996   4.432  0.1982 -0.4922 -0.0469
  208MOL0     C27360  12.001   6.903   4.491  0.0762 -1.1637  0.4607
  208MOL0     C27361  11.945   6.790   4.576 -0.7553 -1.3971  0.2068
  208MOL0     C27362  11.838   6.839   4.664  1.1371  0.2026  0.7100
  208MOL0     C27363  11.886   6.947   4.764  0.0233  0.7856 -0.7999
  208MOL0     C27364  11.773   6.980   4.874  0.3421  0.9146 -0.7641
  208MOL0     C27365  11.756   6.860   4.976 -1.1819 -0.4255  0.0669
  208MOL0     C27366  11.633   6.873   5.059 -0.2553 -0.8620  0.0719
  208MOL0     C27367  11.634   6.993   5.156 -0.7635  0.5048 -0.4792
  208MOL0    Cl27368  11.502   6.979   5.280 -0.1322  0.2346  0.2010
  208MOL0     C27369  11.888   6.886   4.208 -0.4910  0.1799 -0.5520
  208MOL0     C27370  11.816   6.841   4.099  1.0161  1.2714  0.5444
  208MOL0     O27371  11.726   6.637   3.916 -0.8123  0.2201  0.2904
  208MOL0     C27372  11.382   6.671   3.861  0.3302  0.5463  0.0018
  208MOL0     C27373  11.274   6.603   3.808  0.2604  1.1333 -0.8979
  208MOL0     N27374  10.795   5.886   3.898  0.1867  0.3047  0.0079
  208MOL0     N27375  10.742   5.769   3.904  0.1051  0.0670 -1.2579
  208MOL0     C27376  10.293   4.610   4.122  1.0416 -0.0473 -0.5744
  208MOL0     C27377  10.273   4.476   4.136 -0.3288  1.1659  0.6459
  208MOL0     C27378  10.208   4.022   4.142  0.4970  0.3231 -0.7524
  208MOL0     C27379  10.168   3.940   4.257  0.3235 -0.2439  0.1068
  208MOL0     C27380  10.157   3.807   4.248  0.1998 -0.1331  0.3017
  208MOL0     C27381  10.189   3.741   4.135  0.3369 -0.9544 -0.6091
  208MOL0     O27382  10.171   3.599   4.132  0.6882  0.4028  0.1108
  208MOL0     C27383  10.263   3.511   4.056 -0.0295  0.2699 -0.4675
  208MOL0     C27384  10.334   3.412   4.154  0.0187 -0.1846  0.3932
  208MOL0     C27385  10.414   3.471   4.267  1.0260 -0.3218  0.2591
  208MOL0     C27386  10.486   3.357   4.325  0.3360 -0.1499  0.0692
  208MOL0     C27387  10.542   3.399   4.452  1.1565  1.7266 -0.4835
  208MOL0     C27388  10.576   3.415   4.570 -0.4362  0.3492  0.1013
  208MOL0     C27389  10.227   3.815   4.020 -0.2044 -0.2729  0.7174
  208MOL0     C27390  10.228   3.957   4.027  0.3152 -0.3901 -0.5730
  208MOL0     H27391  10.252   4.373   3.810  2.7360  0.1288  0.1480
  208MOL0     H27392  10.285   4.611   3.777  1.5659  0.7845  0.3969
  208MOL0     H27393  10.439   4.864   4.104  0.1900  0.6232 -0.7202
  208MOL0     H27394  10.269   4.879   4.141  0.5378 -3.1539  0.6033
  208MOL0     H27395  10.357   5.082   4.112  2.3135  1.4651 -0.3483
  208MOL0     H27396  10.275   5.055   3.946 -1.6651  3.1242  1.3207
  208MOL0     H27397  10.495   4.976   3.859  0.1028  3.0356 -3.1384
  208MOL0     H27398  10.570   5.041   4.014 -0.1465  0.1372  0.5540
  208MOL0     H27399  10.426   5.190   3.799 -0.4868 -0.4870  0.1934
  208MOL0     H27400  10.446   5.253   3.972  1.7966 -1.3088  3.5703
  208MOL0     H27401  10.704   5.187   3.829 -1.6325 -2.7568  0.9779
  208MOL0     H27402  10.661   5.289   3.965  0.6126 -0.9004  0.3723
  208MOL0     H27403  10.486   5.389   3.746 -0.1171 -2.3344 -0.4876
  208MOL0     H27404  10.627   5.331   3.654  2.2993 -0.4076  1.5610
  208MOL0     H27405  10.722   5.478   3.882 -0.0043  0.5502  0.1423
  208MOL0     H27406  10.768   5.480   3.704  0.1541 -0.9969  0.2904
  208MOL0     H27407  10.546   5.634   3.814 -0.5087  1.1186  0.0892
  208MOL0     H27408  10.583   5.619   3.644 -0.6845 -1.8339  0.3924
  208MOL0     H27409  10.738   5.824   3.585 -2.1083  0.8165 -0.0640
  208MOL0     H27410  10.775   6.139   3.740  3.0622  1.9972  1.0615
  208MOL0     H27411  10.851   6.053   3.609 -0.1329  2.5612 -0.6514
  208MOL0     H27412  11.062   6.032   3.742  1.1526  1.1760 -0.8855
  208MOL0     H27413  10.982   6.086   3.880  0.6095  0.3519 -0.0693
  208MOL0     H27414  10.994   6.258   3.632 -1.8338  0.2759 -0.0817
  208MOL0     H27415  10.947   6.302   3.801  1.4963  1.6332 -0.2900
  208MOL0     H27416  11.229   6.197   3.724  0.3794 -1.6817  2.4625
  208MOL0     H27417  11.178   6.270   3.876  4.6032  1.8759 -1.2876
  208MOL0     H27418  11.419   6.295   3.811  0.6451 -0.5259  2.8847
  208MOL0     H27419  11.609   6.423   3.886 -0.2999 -0.9332 -1.4153
  208MOL0     H27420  11.513   6.955   4.191  0.0838 -1.4121 -3.9817
  208MOL0     H27421  11.644   7.031   4.389  1.0903  1.5301  0.2825
  208MOL0     H27422  12.076   6.959   4.547 -2.0117 -0.6112  2.9229
  208MOL0     H27423  12.049   6.847   4.411  0.7553  0.3488 -0.2447
  208MOL0     H27424  12.026   6.747   4.636 -1.4379  0.1959  2.4457
  208MOL0     H27425  11.917   6.709   4.509  3.7983 -2.3309 -0.9066
  208MOL0     H27426  11.803   6.752   4.721  4.2205 -2.0175 -0.5154
  208MOL0     H27427  11.755   6.874   4.602  0.2241 -0.5638  1.4707
  208MOL0     H27428  11.970   6.902   4.816  0.9390 -0.2253 -3.0338
  208MOL0     H27429  11.907   7.039   4.708 -0.3599  0.7523 -1.0055
  208MOL0     H27430  11.673   6.983   4.828  1.1151 -2.4811 -3.0707
  208MOL0     H27431  11.794   7.071   4.929 -4.4018  0.6335  2.0671
  208MOL0     H27432  11.845   6.859   5.040 -0.3478  0.0987 -1.0510
  208MOL0     H27433  11.749   6.759   4.935 -1.7542 -0.8196  1.0931
  208MOL0     H27434  11.540   6.871   5.000  0.5630  0.3974 -1.3361
  208MOL0     H27435  11.629   6.788   5.128 -3.4329  1.9492  3.8497
  208MOL0     H27436  11.624   7.091   5.109 -1.6088  0.3246 -0.6886
  208MOL0     H27437  11.723   6.981   5.219 -1.3926 -0.2053  0.2948
  208MOL0     H27438  11.997   6.879   4.205 -0.5100 -1.7083  1.3907
  208MOL0     H27439  11.867   6.783   4.022  0.7146  1.2463  0.3625
  208MOL0     H27440  11.381   6.779   3.877  2.7890  1.0408 -2.4874
  208MOL0     H27441  11.178   6.644   3.777 -0.2368  0.1720 -0.6415
  208MOL0     H27442  10.302   4.680   4.204 -1.4255 -0.3300  0.0281
  208MOL0     H27443  10.266   4.439   4.238 -0.4329  0.7832  0.5021
  208MOL0     H27444  10.154   4.002   4.345 -2.5620  0.1997 -0.5513
  208MOL0     H27445  10.126   3.750   4.335 -1.1886 -0.0091 -0.0914
  208MOL0     H27446  10.331   3.566   3.991 -2.7751  0.7269 -3.2143
  208MOL0     H27447  10.197   3.444   3.999 -1.0985  0.0156  1.0019
  208MOL0     H27448  10.256   3.344   4.189 -0.0539 -1.1520 -1.5139
  208MOL0     H27449  10.382   3.336   4.092  1.3236  1.6405 -0.9610
  208MOL0     H27450  10.343   3.507   4.341 -0.0031 -1.7706  0.0112
  208MOL0     H27451  10.480   3.552   4.233  2.1799 -0.8439  1.2023
  208MOL0     H27452  10.410   3.284   4.353 -1.3348  0.5450 -2.3173
  208MOL0     H27453  10.566   3.324   4.259  2.3531 -2.2974  3.3312
  208MOL0     H27454  10.615   3.423   4.669  2.6636  0.5718 -1.0149
  208MOL0     H27455  10.241   3.760   3.928  2.0869 -1.7203  1.8702
  208MOL0     H27456  10.241   4.012   3.934  1.6839  1.0559  0.4096
  209MOL0     O27457   5.374  11.426   7.017 -0.3156  0.6273 -0.7779
  209MOL0     C27458   5.301  11.427   7.115 -0.2175 -0.5899 -0.0884
  209MOL0     O27459   5.293  11.528   7.203 -0.4117  0.3084 -0.2210
  209MOL0     C27460   5.376  11.635   7.217  0.2155 -0.8521 -0.0436
  209MOL0     C27461   5.350  11.703   7.345  0.0214  0.3808  1.1349
  209MOL0     C27462   5.421  11.825   7.376 -0.0996 -0.4228 -1.0482
  209MOL0     C27463   5.522  11.875   7.289 -0.1019  0.0746  0.3050
  209MOL0     O27464   5.594  11.981   7.323 -0.0900  0.6589  0.2627
  209MOL0     C27465   5.561  12.096   7.238 -0.9549 -0.3363 -0.5195
  209MOL0     C27466   5.605  12.229   7.306 -0.5837  0.3597  0.5374
  209MOL0     C27467   5.605  12.353   7.213 -0.5910  0.4256  0.3482
  209MOL0     C27468   5.709  12.346   7.098  0.2387 -0.3934 -0.8679
  209MOL0     C27469   5.738  12.484   7.045 -0.4319  0.0462 -0.0056
  209MOL0     C27470   5.853  12.482   6.934 -0.1324  0.3692 -0.7478
  209MOL0     C27471   5.838  12.593   6.828 -0.2490 -0.3302 -0.0520
  209MOL0     C27472   5.839  12.729   6.886 -0.6808  0.7071  0.5451
  209MOL0     N27473   5.970  12.794   6.898  0.7300 -0.4046 -0.1906
  209MOL0     C27474   6.036  12.841   7.016  0.1740 -0.0652  0.2126
  209MOL0     C27475   6.159  12.874   6.980 -0.5950  0.3899  0.9182
  209MOL0     C27476   6.262  12.948   7.055  0.5770  0.4896 -0.3508
  209MOL0     C27477   6.229  12.974   7.201 -0.7488  0.4684 -0.3339
  209MOL0     C27478   6.332  13.072   7.253 -0.1745 -1.0387 -1.1674
  209MOL0     C27479   6.340  13.069   7.404 -0.2633 -0.1188  0.3663
  209MOL0     O27480   6.408  13.185   7.454 -0.1218  0.2087 -0.0345
  209MOL0     C27481   6.548  13.177   7.473  0.6358 -0.3432  0.0356
  209MOL0     C27482   6.589  13.303   7.528 -0.0357 -0.2835  1.0909
  209MOL0     C27483   6.722  13.317   7.537 -0.3789  0.1378 -0.2756
  209MOL0     C27484   6.819  13.215   7.533 -1.1356 -0.1946  0.3128
  209MOL0     C27485   6.956  13.233   7.575 -0.5654 -0.1895 -0.2084
  209MOL0     O27486   7.047  13.134   7.557 -0.3880  0.0804  0.2024
  209MOL0     C27487   7.176  13.141   7.601 -0.5473 -0.2686  1.1051
  209MOL0     C27488   7.218  13.034   7.682 -0.6256  0.4055 -0.1664
  209MOL0     C27489   7.350  13.023   7.735  0.2260  0.2897 -0.2061
  209MOL0     C27490   7.441  13.122   7.687 -0.5199 -0.6896  0.3764
  209MOL0     O27491   7.573  13.135   7.728 -0.1090 -0.6732  1.1560
  209MOL0     C27492   7.688  13.111   7.649  0.2726 -0.6541  0.5097
  209MOL0     C27493   7.716  12.967   7.599  0.1946 -0.2666 -0.1892
  209MOL0     C27494   7.873  12.942   7.563  0.0315  0.5930  0.6448
  209MOL0     C27495   7.954  12.914   7.688 -0.0375  0.0105  0.4167
  209MOL0     C27496   8.107  12.918   7.654  0.1056  0.4696 -0.5275
  209MOL0     C27497   8.159  12.806   7.568  0.6919  0.0126  0.7495
  209MOL0     C27498   8.184  12.669   7.636  0.1234  0.5956 -0.9029
  209MOL0     C27499   8.054  12.587   7.662 -0.7239 -0.1958  0.0555
  209MOL0    Cl27500   8.041  12.569   7.844 -0.3053 -0.1667 -0.0622
  209MOL0     C27501   7.405  13.220   7.591 -0.0128  0.2452 -0.6774
  209MOL0     C27502   7.269  13.242   7.558 -0.6186 -0.7917 -0.6409
  209MOL0     O27503   6.979  13.341   7.629  0.2340 -0.5423 -0.5223
  209MOL0     C27504   6.767  13.092   7.487 -0.8370  0.3596 -0.0709
  209MOL0     C27505   6.633  13.072   7.456  0.4088 -1.2163  0.6280
  209MOL0     N27506   6.181  12.841   6.851 -0.1338 -0.7640  0.0563
  209MOL0     N27507   6.071  12.780   6.805  0.5449 -0.3243  0.2733
  209MOL0     C27508   5.539  11.815   7.161 -0.4341  0.0900 -0.4124
  209MOL0     C27509   5.467  11.694   7.123  0.7666  1.0882 -0.2018
  209MOL0     C27510   5.205  11.314   7.118 -0.7556  0.1688  0.0441
  209MOL0     C27511   5.220  11.206   7.025  0.7020  0.4939 -0.2360
  209MOL0     C27512   5.129  11.102   7.043 -0.3882  0.9643 -0.1634
  209MOL0     C27513   5.028  11.108   7.141 -0.7812  0.8304 -0.1302
  209MOL0     O27514   4.940  11.004   7.176 -0.1807  0.4896  0.5128
  209MOL0     C27515   4.884  10.913   7.072 -0.0384 -0.6203 -0.1125
  209MOL0     C27516   4.764  10.983   6.997 -0.7336  0.7724 -0.0748
  209MOL0     C27517   4.650  11.013   7.083  0.1259  0.8777  0.1288
  209MOL0     C27518   4.528  11.086   7.008 -0.1631 -0.1793 -0.2357
  209MOL0     C27519   4.482  11.011   6.888 -1.1122 -0.0124  0.0597
  209MOL0     C27520   4.458  10.945   6.787  0.3312  0.1789 -0.2739
  209MOL0     C27521   5.005  11.231   7.204  0.5271 -0.4679  0.1088
  209MOL0     C27522   5.092  11.333   7.196  0.1577 -0.6080  0.3616
  209MOL0     H27523   5.280  11.652   7.410 -1.3097 -0.5736 -0.9332
  209MOL0     H27524   5.421  11.860   7.479  0.8350 -1.2362 -0.7548
  209MOL0     H27525   5.455  12.105   7.210 -0.8270  0.7316 -0.6884
  209MOL0     H27526   5.613  12.082   7.142 -1.0298 -2.9236 -0.2439
  209MOL0     H27527   5.698  12.199   7.353 -0.4603 -1.5108 -0.7998
  209MOL0     H27528   5.544  12.269   7.388 -0.7048  0.9130  0.1832
  209MOL0     H27529   5.620  12.441   7.276  1.7748  0.8312 -0.6789
  209MOL0     H27530   5.505  12.359   7.169 -0.4304  0.0736 -0.0665
  209MOL0     H27531   5.801  12.326   7.154  0.7841  0.7984 -1.3056
  209MOL0     H27532   5.683  12.265   7.029  1.1046 -1.1411 -0.3447
  209MOL0     H27533   5.762  12.556   7.123 -0.0822 -0.1131  0.0372
  209MOL0     H27534   5.652  12.521   6.988  0.1322  1.0860 -0.2151
  209MOL0     H27535   5.855  12.391   6.873  1.6172 -1.4076  1.7517
  209MOL0     H27536   5.946  12.480   6.991  1.1587 -2.2306 -2.7256
  209MOL0     H27537   5.911  12.591   6.747 -1.0299  0.6840 -0.8072
  209MOL0     H27538   5.737  12.586   6.786  0.0252 -0.7583 -0.6521
  209MOL0     H27539   5.797  12.724   6.987 -2.9928  3.0021 -0.2028
  209MOL0     H27540   5.776  12.788   6.819  0.8732  2.7521  0.7822
  209MOL0     H27541   5.990  12.848   7.115 -0.3874 -0.2570 -0.0308
  209MOL0     H27542   6.295  13.037   7.001  4.0267  0.5739  1.5666
  209MOL0     H27543   6.348  12.880   7.053 -1.8100 -3.0692  3.0975
  209MOL0     H27544   6.233  12.872   7.242  0.0548  0.4160 -0.5379
  209MOL0     H27545   6.128  13.015   7.206 -0.7131  0.5168  0.0087
  209MOL0     H27546   6.430  13.051   7.209  0.4698  0.6802 -0.6245
  209MOL0     H27547   6.311  13.174   7.223 -1.1575  0.2774  3.2008
  209MOL0     H27548   6.383  12.975   7.439  0.9649  1.0794  2.2696
  209MOL0     H27549   6.235  13.058   7.433 -0.2245  1.5642  1.2976
  209MOL0     H27550   6.516  13.384   7.527 -0.5938 -0.7453  2.7331
  209MOL0     H27551   6.746  13.418   7.568 -1.0120  0.7986 -1.8353
  209MOL0     H27552   7.139  12.968   7.717 -1.8229  1.5240 -0.6632
  209MOL0     H27553   7.378  12.948   7.809 -0.2088  0.6179  0.2963
  209MOL0     H27554   7.774  13.153   7.702 -0.7412  2.6588 -0.2689
  209MOL0     H27555   7.679  13.176   7.562 -0.0202 -0.4891  0.6651
  209MOL0     H27556   7.657  12.964   7.507 -0.2010  1.5794 -0.0296
  209MOL0     H27557   7.678  12.908   7.683  1.0292  2.1445  2.0025
  209MOL0     H27558   7.892  13.036   7.511 -3.8771  0.7114 -0.9296
  209MOL0     H27559   7.887  12.864   7.487 -3.0215  1.5274 -1.0547
  209MOL0     H27560   7.927  13.001   7.749  2.7171  1.6791 -0.5574
  209MOL0     H27561   7.923  12.834   7.756 -1.9308  1.4097  1.2899
  209MOL0     H27562   8.166  12.916   7.746  1.5778  0.1220 -1.4422
  209MOL0     H27563   8.127  13.020   7.619  1.2569  1.0287  1.5862
  209MOL0     H27564   8.244  12.845   7.511 -1.2726  2.4425 -0.7521
  209MOL0     H27565   8.079  12.784   7.497 -0.3794 -1.8228  2.4355
  209MOL0     H27566   8.259  12.614   7.578 -0.0558  1.0708 -1.6037
  209MOL0     H27567   8.228  12.697   7.732 -0.1153 -1.1384 -0.2543
  209MOL0     H27568   8.066  12.483   7.629  1.4456  0.3990 -1.2834
  209MOL0     H27569   7.962  12.634   7.628 -0.1649 -0.6594 -2.2825
  209MOL0     H27570   7.472  13.297   7.553 -1.2742  1.5497 -0.3355
  209MOL0     H27571   7.244  13.335   7.507 -1.1631  1.9475  4.0938
  209MOL0     H27572   6.835  13.010   7.466 -2.2248  0.0442 -4.6125
  209MOL0     H27573   6.592  12.983   7.409 -0.3140  0.3338 -1.9181
  209MOL0     H27574   5.622  11.858   7.106  0.9355  3.0193  3.4463
  209MOL0     H27575   5.479  11.648   7.026 -0.0963  3.1157 -1.3254
  209MOL0     H27576   5.299  11.205   6.950 -0.5497  0.2001 -1.5940
  209MOL0     H27577   5.134  11.010   6.985 -3.3029  0.9711 -0.6209
  209MOL0     H27578   4.846  10.821   7.118 -1.4991 -0.3524 -0.7256
  209MOL0     H27579   4.959  10.887   6.998  0.2065  3.6132 -1.6035
  209MOL0     H27580   4.788  11.073   6.941  1.2417 -0.9375 -2.1901
  209MOL0     H27581   4.751  10.903   6.923  3.9438  0.2499 -0.6439
  209MOL0     H27582   4.695  11.077   7.159  5.7311  2.2936 -3.7697
  209MOL0     H27583   4.619  10.921   7.133 -0.6716  1.0180 -0.0793
  209MOL0     H27584   4.441  11.104   7.072 -0.2063  3.6050 -1.1516
  209MOL0     H27585   4.565  11.183   6.974 -1.2578 -0.4204 -2.2639
  209MOL0     H27586   4.431  10.902   6.693  2.9037 -1.0257 -0.5454
  209MOL0     H27587   4.925  11.226   7.278 -1.5483  3.4341 -1.5959
  209MOL0     H27588   5.080  11.430   7.243  1.6084 -0.1434 -0.1742
  210MOL0     O27589   5.510   7.807   6.719 -0.9660 -0.2228 -0.0299
  210MOL0     C27590   5.555   7.885   6.635 -0.0861 -0.4415 -0.3133
  210MOL0     O27591   5.496   7.915   6.520 -0.1631  0.8340  0.0258
  210MOL0     C27592   5.364   7.895   6.505  0.3349 -1.0287 -0.5181
  210MOL0     C27593   5.317   7.868   6.377 -0.2261  0.5526 -0.6901
  210MOL0     C27594   5.176   7.860   6.341  0.7206  0.1361  0.0428
  210MOL0     C27595   5.082   7.884   6.445  0.3700 -0.3136 -0.2034
  210MOL0     O27596   4.941   7.887   6.433 -0.0056 -0.1040 -0.5687
  210MOL0     C27597   4.874   7.835   6.318 -0.2725  0.5014 -0.1535
  210MOL0     C27598   4.772   7.724   6.359  0.0750  0.2207  0.0412
  210MOL0     C27599   4.686   7.676   6.244 -0.7394 -0.3894  0.2507
  210MOL0     C27600   4.576   7.593   6.313  0.1674  0.9340  0.4940
  210MOL0     C27601   4.502   7.507   6.220  0.6324  0.6711  0.7294
  210MOL0     C27602   4.368   7.565   6.168 -0.6127  0.6792  0.0958
  210MOL0     C27603   4.311   7.491   6.046 -0.1659  0.2787 -0.7113
  210MOL0     C27604   4.229   7.369   6.085  0.8271  0.2236 -0.6827
  210MOL0     N27605   4.183   7.289   5.968  0.0332  0.3893  0.6980
  210MOL0     C27606   4.113   7.330   5.862  0.2577 -0.2685 -0.4186
  210MOL0     C27607   4.081   7.219   5.793 -0.1766 -0.9434  0.0039
  210MOL0     C27608   3.985   7.211   5.674  0.5464 -0.0121  0.2998
  210MOL0     C27609   3.838   7.202   5.711  0.1262  0.7748  0.1547
  210MOL0     C27610   3.747   7.323   5.687  0.4712  0.1941  0.1981
  210MOL0     C27611   3.596   7.302   5.708 -0.5108  0.5206 -0.1939
  210MOL0     O27612   3.534   7.275   5.589 -0.1131  0.0822 -0.0308
  210MOL0     C27613   3.410   7.203   5.576  0.2270  0.3843  0.4673
  210MOL0     C27614   3.360   7.184   5.444  0.0922  0.7469  0.4729
  210MOL0     C27615   3.237   7.107   5.420 -0.7814 -0.8608  0.3627
  210MOL0     C27616   3.153   7.066   5.529  0.4332 -0.7896  1.2460
  210MOL0     C27617   3.009   7.027   5.501  0.6285 -0.0477  0.1335
  210MOL0     O27618   2.923   7.023   5.610 -0.4723  0.4154  0.2553
  210MOL0     C27619   2.792   6.993   5.586 -0.4809  0.5927 -0.9288
  210MOL0     C27620   2.754   6.865   5.617  0.1131  0.2705 -0.2968
  210MOL0     C27621   2.615   6.830   5.593 -0.0604 -0.3878 -0.0176
  210MOL0     C27622   2.524   6.928   5.550  0.2141 -0.7360 -0.7839
  210MOL0     O27623   2.397   6.897   5.512 -0.3539 -0.4694 -0.1927
  210MOL0     C27624   2.380   6.861   5.377  0.7870  1.2725  0.8938
  210MOL0     C27625   2.225   6.839   5.349  0.5983  0.5649  0.9335
  210MOL0     C27626   2.122   6.764   5.441 -0.2281  0.1256  0.3707
  210MOL0     C27627   2.150   6.610   5.485 -0.1143 -0.4282  0.4004
  210MOL0     C27628   2.089   6.551   5.614  1.1221 -0.9194  0.0725
  210MOL0     C27629   1.938   6.570   5.615 -0.1815  0.7385  0.6803
  210MOL0     C27630   1.852   6.505   5.734 -0.8904 -0.9866  1.3738
  210MOL0     C27631   1.860   6.354   5.735  0.1038 -1.5830  0.9060
  210MOL0    Cl27632   1.779   6.288   5.880 -0.0955  0.1118  0.0182
  210MOL0     C27633   2.576   7.056   5.533  0.2646  0.0990 -0.3199
  210MOL0     C27634   2.707   7.093   5.548  1.0104 -0.3481  1.1406
  210MOL0     O27635   2.978   7.013   5.378  0.2879  0.3551 -0.6006
  210MOL0     C27636   3.205   7.088   5.654  0.1318 -0.2801 -0.3095
  210MOL0     C27637   3.331   7.149   5.672 -0.4145 -0.2501  0.0146
  210MOL0     N27638   4.130   7.111   5.865 -0.8692  0.2675  0.3211
  210MOL0     N27639   4.194   7.156   5.967  0.2403 -0.4575  0.3379
  210MOL0     C27640   5.132   7.910   6.578  0.1379 -1.0398 -0.0516
  210MOL0     C27641   5.269   7.893   6.598  0.9095  0.2942  0.0896
  210MOL0     C27642   5.686   7.938   6.650  1.4422 -0.2329  0.1063
  210MOL0     C27643   5.749   7.982   6.541 -0.2319  0.4737  0.0241
  210MOL0     C27644   5.884   8.025   6.537 -0.3027  0.9651  0.0820
  210MOL0     C27645   5.960   8.025   6.662 -0.2044  0.0234 -0.1505
  210MOL0     O27646   6.075   8.105   6.674 -0.5195  0.3308  0.8707
  210MOL0     C27647   6.177   8.096   6.573 -0.2551  0.6386  0.0532
  210MOL0     C27648   6.311   8.089   6.656 -0.5662  0.2488  0.2023
  210MOL0     C27649   6.330   8.172   6.778 -0.9785  1.4612 -0.4528
  210MOL0     C27650   6.474   8.167   6.837 -0.1030  0.1317 -0.6109
  210MOL0     C27651   6.554   8.255   6.748 -0.5209  0.1096  0.3182
  210MOL0     C27652   6.618   8.337   6.680  0.0210  0.0844 -0.0932
  210MOL0     C27653   5.890   7.979   6.776 -0.9864  0.4138  0.2318
  210MOL0     C27654   5.762   7.938   6.771  0.6262 -0.6001  0.0462
  210MOL0     H27655   5.382   7.872   6.290  1.6189  1.0128  0.6641
  210MOL0     H27656   5.147   7.850   6.237 -0.6831  1.7141  0.2385
  210MOL0     H27657   4.954   7.791   6.259 -0.0594 -1.1597  1.2904
  210MOL0     H27658   4.823   7.909   6.256  0.2120  1.9885  1.1647
  210MOL0     H27659   4.701   7.769   6.429 -0.1112  0.3856 -0.2538
  210MOL0     H27660   4.829   7.643   6.404  3.9933  2.0315 -1.2269
  210MOL0     H27661   4.732   7.622   6.162 -1.4557 -1.6161  0.6295
  210MOL0     H27662   4.632   7.760   6.199 -0.0781  1.0468  1.9914
  210MOL0     H27663   4.622   7.523   6.384  0.8785 -0.3160 -1.1176
  210MOL0     H27664   4.505   7.661   6.360 -0.3645  1.0930 -0.5016
  210MOL0     H27665   4.492   7.413   6.275  3.3385 -0.9272 -1.2615
  210MOL0     H27666   4.561   7.491   6.129 -0.4939  0.7965 -0.0506
  210MOL0     H27667   4.379   7.670   6.141 -2.4484  0.7254 -0.6598
  210MOL0     H27668   4.296   7.563   6.250 -2.2415  0.3655 -1.2836
  210MOL0     H27669   4.244   7.561   5.996 -0.5157  1.1272  0.8722
  210MOL0     H27670   4.397   7.471   5.981  0.3475  0.1899 -0.0147
  210MOL0     H27671   4.141   7.412   6.133  1.1474 -0.2637  0.3732
  210MOL0     H27672   4.276   7.316   6.169  1.9884 -2.5013 -2.8707
  210MOL0     H27673   4.096   7.435   5.841  1.2829  0.5238  2.3022
  210MOL0     H27674   4.011   7.117   5.625 -1.6852 -1.5710  1.8989
  210MOL0     H27675   3.988   7.299   5.609 -2.4310  1.5462  2.0000
  210MOL0     H27676   3.839   7.175   5.817  1.4866  1.4290  0.3340
  210MOL0     H27677   3.799   7.127   5.641 -0.1460  2.3047 -1.4084
  210MOL0     H27678   3.778   7.405   5.753 -0.9372  2.4147 -1.7366
  210MOL0     H27679   3.756   7.353   5.583 -0.7956 -0.5857 -0.1563
  210MOL0     H27680   3.555   7.393   5.751 -0.4310  0.8368 -0.7707
  210MOL0     H27681   3.594   7.215   5.774 -3.9554  0.6690  0.1241
  210MOL0     H27682   3.423   7.218   5.363 -0.5873 -0.9603 -0.8286
  210MOL0     H27683   3.210   7.090   5.316  1.7325  1.4165 -0.7654
  210MOL0     H27684   2.815   6.796   5.675 -3.6742 -1.2852  2.2061
  210MOL0     H27685   2.579   6.728   5.597 -1.2195 -0.5583 -5.8331
  210MOL0     H27686   2.429   6.765   5.360 -0.7851 -0.3837  4.4541
  210MOL0     H27687   2.411   6.941   5.310  1.0027 -0.1701 -0.7669
  210MOL0     H27688   2.220   6.787   5.254 -0.8592  3.2742 -0.5977
  210MOL0     H27689   2.184   6.939   5.334 -0.4735  0.0011  0.0222
  210MOL0     H27690   2.037   6.765   5.373 -1.1025  0.1740  1.4438
  210MOL0     H27691   2.096   6.826   5.528 -0.2227  2.0504 -0.9195
  210MOL0     H27692   2.118   6.556   5.395 -1.5112  0.2122  0.4935
  210MOL0     H27693   2.258   6.609   5.502  0.2277  3.9449 -0.1720
  210MOL0     H27694   2.135   6.614   5.691  2.6649  2.1144 -3.0266
  210MOL0     H27695   2.118   6.447   5.632 -0.3806 -1.0848  1.7967
  210MOL0     H27696   1.891   6.535   5.522 -0.9777 -0.3132  1.4559
  210MOL0     H27697   1.912   6.675   5.635 -0.5497  0.9783 -0.9399
  210MOL0     H27698   1.880   6.548   5.830 -1.0000 -1.4297  1.6042
  210MOL0     H27699   1.748   6.537   5.719 -0.0111  2.1266  1.2728
  210MOL0     H27700   1.963   6.317   5.739  1.1769  0.8165 -1.3915
  210MOL0     H27701   1.805   6.324   5.645 -2.2728  0.4605  1.5593
  210MOL0     H27702   2.531   7.139   5.480 -1.1223 -0.4530 -0.0411
  210MOL0     H27703   2.747   7.191   5.521  0.5435 -0.7904 -1.4432
  210MOL0     H27704   3.150   7.069   5.746 -3.0257  3.1192 -1.2210
  210MOL0     H27705   3.349   7.183   5.774  1.8040  1.6514 -0.9166
  210MOL0     H27706   5.058   7.934   6.653 -2.1198  2.2897 -2.9770
  210MOL0     H27707   5.294   7.891   6.704 -1.4576  1.7690  0.7519
  210MOL0     H27708   5.700   7.989   6.445 -1.6177 -1.0309  0.5788
  210MOL0     H27709   5.932   8.068   6.450  2.3796  0.7421  1.3584
  210MOL0     H27710   6.164   8.182   6.506 -2.4462  0.3704  0.0415
  210MOL0     H27711   6.170   8.008   6.508 -0.3800  0.6903 -0.0062
  210MOL0     H27712   6.321   7.984   6.684 -2.7953 -0.1180 -0.1566
  210MOL0     H27713   6.393   8.104   6.585 -0.6213  1.7471  0.4192
  210MOL0     H27714   6.269   8.129   6.858  1.8786  0.4154  1.3541
  210MOL0     H27715   6.299   8.276   6.767 -2.7068  1.2659  1.7738
  210MOL0     H27716   6.475   8.192   6.944 -2.4729 -0.9355 -0.2738
  210MOL0     H27717   6.498   8.061   6.828  0.2103  0.1315  0.1054
  210MOL0     H27718   6.673   8.388   6.603  0.0266 -1.7227 -1.3528
  210MOL0     H27719   5.942   7.985   6.872  0.9738 -1.4443 -0.6499
  210MOL0     H27720   5.710   7.917   6.864 -1.2356 -1.9199 -1.2096
  211MOL0     O27721  10.419   0.943   2.285  0.2883  0.1960  0.1618
  211MOL0     C27722  10.539   0.962   2.284 -0.6456  0.4994  0.5370
  211MOL0     O27723  10.629   0.901   2.368 -0.3790 -0.8601  0.5746
  211MOL0     C27724  10.594   0.835   2.476 -0.5071 -1.1037  0.4103
  211MOL0     C27725  10.682   0.860   2.581  0.4110  0.4457 -1.1121
  211MOL0     C27726  10.659   0.799   2.713  0.4780 -0.1852  0.8726
  211MOL0     C27727  10.568   0.696   2.731 -0.0966  0.0313 -0.0100
  211MOL0     O27728  10.569   0.629   2.853 -0.2831 -0.1433 -0.4959
  211MOL0     C27729  10.544   0.487   2.839 -0.9221  0.6414  0.9577
  211MOL0     C27730  10.562   0.411   2.966  0.1772  0.8873 -0.5441
  211MOL0     C27731  10.500   0.477   3.086  0.0944  0.5599 -0.5533
  211MOL0     C27732  10.531   0.397   3.213  0.6280 -0.5877 -0.0377
  211MOL0     C27733  10.426   0.412   3.321  0.0012 -0.7304 -0.2824
  211MOL0     C27734  10.497   0.399   3.455 -0.3981  0.6102  0.4965
  211MOL0     C27735  10.404   0.435   3.571  0.7357 -0.0602 -0.2130
  211MOL0     C27736  10.491   0.418   3.695  0.3720  0.4716 -0.6396
  211MOL0     N27737  10.419   0.446   3.822 -0.3597  0.7101  0.2884
  211MOL0     C27738  10.292   0.402   3.853 -0.5472 -0.2632 -0.1530
  211MOL0     C27739  10.296   0.432   3.982  0.2373  0.1691  0.1828
  211MOL0     C27740  10.194   0.396   4.087  0.4803 -0.5142  0.4452
  211MOL0     C27741  10.042   0.370   4.036 -0.6793 -1.3609  0.7255
  211MOL0     C27742   9.984   0.484   3.951  0.3960  0.5353 -0.3779
  211MOL0     C27743   9.877   0.429   3.857  0.0691 -0.4809  0.0414
  211MOL0     O27744   9.933   0.363   3.742 -0.4844  0.4144 -0.4193
  211MOL0     C27745   9.947   0.423   3.619 -0.4050  1.1638  0.5376
  211MOL0     C27746   9.868   0.373   3.520 -0.7941 -0.0939 -0.1864
  211MOL0     C27747   9.864   0.411   3.383 -0.9998 -1.3555  0.0677
  211MOL0     C27748   9.940   0.521   3.348 -0.3498 -1.0569  0.0456
  211MOL0     C27749   9.937   0.568   3.207  0.9621  0.5789 -0.0331
  211MOL0     O27750   9.829   0.529   3.131  0.8658 -0.3320 -0.0590
  211MOL0     C27751   9.808   0.556   3.001  0.0240 -0.4641  0.2429
  211MOL0     C27752   9.860   0.675   2.943  0.3303  0.4284  1.4720
  211MOL0     C27753   9.837   0.699   2.810 -0.2144 -0.5215 -0.0187
  211MOL0     C27754   9.751   0.627   2.736  0.2330 -0.4272  0.1713
  211MOL0     O27755   9.721   0.665   2.605  0.2331 -0.2201  0.2638
  211MOL0     C27756   9.695   0.565   2.504  0.7060  0.2204 -0.8760
  211MOL0     C27757   9.730   0.623   2.374 -0.3147  0.1182 -0.0914
  211MOL0     C27758   9.643   0.738   2.326  0.2662 -0.3718 -0.0750
  211MOL0     C27759   9.691   0.788   2.185  0.2102  0.1286 -0.2384
  211MOL0     C27760   9.614   0.905   2.150 -0.0550 -0.4330  0.3287
  211MOL0     C27761   9.467   0.868   2.113 -0.4287  0.9257  0.0912
  211MOL0     C27762   9.442   0.831   1.965 -0.7428 -1.2150  0.4422
  211MOL0     C27763   9.305   0.810   1.913  0.7372 -0.5130 -0.8500
  211MOL0    Cl27764   9.311   0.725   1.756 -0.5911  0.1681 -0.4795
  211MOL0     C27765   9.701   0.503   2.791  0.6623 -0.5039 -0.3657
  211MOL0     C27766   9.728   0.465   2.922  0.1091 -0.4445  0.1410
  211MOL0     O27767  10.034   0.624   3.168  0.0436  0.1546 -0.1750
  211MOL0     C27768  10.019   0.580   3.446  0.3878  0.2022  0.1601
  211MOL0     C27769  10.027   0.533   3.579 -0.0744 -1.0449 -0.0302
  211MOL0     N27770  10.410   0.486   4.034  0.3903  0.7838  1.2256
  211MOL0     N27771  10.485   0.494   3.931 -0.0663 -0.5808  0.0634
  211MOL0     C27772  10.486   0.668   2.621 -0.0268 -0.3471  0.1966
  211MOL0     C27773  10.494   0.733   2.495  0.8143 -0.3077 -0.8615
  211MOL0     C27774  10.592   1.050   2.170  0.0827 -0.5287  0.2892
  211MOL0     C27775  10.521   1.065   2.050  0.5205  0.1211 -0.0949
  211MOL0     C27776  10.575   1.144   1.948  0.4650  0.1979  0.6054
  211MOL0     C27777  10.700   1.206   1.969 -0.7479 -0.3382 -0.0752
  211MOL0     O27778  10.748   1.264   1.852  0.4153  0.4663  0.6165
  211MOL0     C27779  10.890   1.266   1.828 -0.2429  0.0774  0.1576
  211MOL0     C27780  10.917   1.310   1.687  0.7418 -0.5047 -0.4642
  211MOL0     C27781  10.872   1.205   1.600 -0.3171  0.8476  0.1602
  211MOL0     C27782  10.942   1.222   1.456 -0.0285 -0.6644 -0.4566
  211MOL0     C27783  10.893   1.350   1.397  0.4003  0.2448  0.1178
  211MOL0     C27784  10.859   1.453   1.349 -0.2504 -0.2536 -0.2840
  211MOL0     C27785  10.767   1.197   2.090 -0.1977  0.6193 -0.3720
  211MOL0     C27786  10.712   1.119   2.190  0.0591 -0.1533 -0.1760
  211MOL0     H27787  10.760   0.935   2.586  2.9628 -2.1238  2.5969
  211MOL0     H27788  10.722   0.821   2.798  0.5472  2.7817  0.1844
  211MOL0     H27789  10.607   0.432   2.769 -0.7308  1.2099  0.6806
  211MOL0     H27790  10.440   0.464   2.813  0.2575 -1.9396 -2.2663
  211MOL0     H27791  10.665   0.380   2.987 -0.7552 -1.7019  0.5980
  211MOL0     H27792  10.506   0.318   2.952 -0.7667  1.2705  0.5534
  211MOL0     H27793  10.392   0.474   3.071 -0.0205  0.6099  0.2370
  211MOL0     H27794  10.523   0.583   3.100 -2.4077  1.0738  0.1132
  211MOL0     H27795  10.528   0.290   3.191 -2.2079 -1.4754  3.6322
  211MOL0     H27796  10.632   0.419   3.251 -0.2620  1.9831  1.0504
  211MOL0     H27797  10.326   0.367   3.308 -1.6864  2.5913  0.1840
  211MOL0     H27798  10.404   0.519   3.320  0.6385 -0.5997 -0.9116
  211MOL0     H27799  10.578   0.473   3.455 -0.5916  1.0764 -3.5633
  211MOL0     H27800  10.535   0.296   3.458 -2.4623 -0.2805 -1.3748
  211MOL0     H27801  10.365   0.536   3.579  0.1232 -0.4375  2.2382
  211MOL0     H27802  10.321   0.364   3.566  0.4751  0.3257 -2.4276
  211MOL0     H27803  10.571   0.493   3.695  0.6771  0.2306  1.8584
  211MOL0     H27804  10.538   0.319   3.703  0.8947  0.3296 -4.0794
  211MOL0     H27805  10.220   0.377   3.776  2.1111  4.1897 -4.7171
  211MOL0     H27806  10.191   0.482   4.155 -1.5227  1.9967 -2.5422
  211MOL0     H27807  10.232   0.306   4.135  0.6143 -0.0763  1.1842
  211MOL0     H27808   9.980   0.346   4.123  0.1504  0.4162  1.8698
  211MOL0     H27809  10.038   0.279   3.975 -1.5236 -0.5283 -0.4838
  211MOL0     H27810   9.945   0.564   4.015 -0.9060  0.1806 -0.6950
  211MOL0     H27811  10.068   0.532   3.900 -0.2935  2.3889  0.1164
  211MOL0     H27812   9.800   0.499   3.824  0.3255 -0.7732 -1.2139
  211MOL0     H27813   9.818   0.351   3.906 -0.7757  0.0411 -0.1138
  211MOL0     H27814   9.805   0.288   3.547 -4.8537  1.9197 -2.3609
  211MOL0     H27815   9.795   0.362   3.315  1.0902 -3.0212 -0.9727
  211MOL0     H27816   9.935   0.737   2.992  1.2776  0.0158  0.5944
  211MOL0     H27817   9.865   0.793   2.763  0.2515 -1.2967 -1.3576
  211MOL0     H27818   9.588   0.550   2.523  0.8957  0.8481  0.8744
  211MOL0     H27819   9.748   0.471   2.514 -0.2891 -0.0966  2.7096
  211MOL0     H27820   9.744   0.545   2.299 -0.9584  1.5463 -1.8024
  211MOL0     H27821   9.830   0.666   2.369  1.1994 -3.2445 -0.7782
  211MOL0     H27822   9.648   0.816   2.402  1.3104 -1.9284  1.5271
  211MOL0     H27823   9.540   0.702   2.328  0.6953 -1.6115  2.1909
  211MOL0     H27824   9.796   0.817   2.186  0.3643 -0.4302  0.4641
  211MOL0     H27825   9.673   0.706   2.115  1.8575 -0.0148 -0.5168
  211MOL0     H27826   9.659   0.955   2.064 -1.0404 -0.4836 -0.2312
  211MOL0     H27827   9.598   0.966   2.240 -0.7034 -0.6469  0.3644
  211MOL0     H27828   9.405   0.957   2.132 -0.7702  0.3026  2.1135
  211MOL0     H27829   9.431   0.789   2.180  0.5796  0.3271 -0.0595
  211MOL0     H27830   9.478   0.910   1.899 -0.7810  0.6394  2.5304
  211MOL0     H27831   9.500   0.744   1.930 -2.6983 -1.9374 -1.2692
  211MOL0     H27832   9.251   0.903   1.893 -3.2987 -2.6215 -0.8209
  211MOL0     H27833   9.261   0.753   1.996  1.7618 -0.0673  0.0200
  211MOL0     H27834   9.628   0.442   2.738 -0.0640 -0.4048  0.5024
  211MOL0     H27835   9.693   0.371   2.963  0.0690  0.3622  2.0664
  211MOL0     H27836  10.091   0.658   3.426  1.4509 -0.4115  1.4486
  211MOL0     H27837  10.102   0.567   3.650  2.3371 -2.4440 -1.7481
  211MOL0     H27838  10.407   0.597   2.645 -1.1407  0.8968  0.3062
  211MOL0     H27839  10.424   0.714   2.414  0.3793  1.2874 -0.8804
  211MOL0     H27840  10.426   1.020   2.024  0.9050 -0.3054 -0.7852
  211MOL0     H27841  10.513   1.147   1.859 -1.0516  3.4639  1.6402
  211MOL0     H27842  10.922   1.163   1.844 -1.4410 -0.1048  1.4545
  211MOL0     H27843  10.944   1.311   1.912 -3.3810 -1.2625  3.1011
  211MOL0     H27844  10.867   1.406   1.674  0.4451 -0.3422  1.5015
  211MOL0     H27845  11.023   1.336   1.677  0.6272  0.9362  1.4150
  211MOL0     H27846  10.765   1.201   1.580  0.1404  0.8762 -2.5696
  211MOL0     H27847  10.907   1.104   1.623  0.0765 -0.8390 -6.0925
  211MOL0     H27848  11.050   1.225   1.475 -0.3376  2.8595  1.4940
  211MOL0     H27849  10.916   1.135   1.395  0.5725  0.1179 -1.8688
  211MOL0     H27850  10.858   1.552   1.309  2.3668  0.3765  0.9746
  211MOL0     H27851  10.867   1.236   2.105  0.0619  0.5408 -1.7947
  211MOL0     H27852  10.759   1.126   2.287  1.8729 -0.6589 -0.9697
  212MOL0     O27853  10.023   8.799  11.400  0.2880  1.0021 -0.4925
  212MOL0     C27854   9.904   8.798  11.449  0.3082  0.5233  0.5448
  212MOL0     O27855   9.793   8.824  11.380 -0.8771 -0.6935 -0.1503
  212MOL0     C27856   9.823   8.842  11.245  0.5422  0.7703  0.4053
  212MOL0     C27857   9.825   8.740  11.153 -0.6270  0.9307 -0.1480
  212MOL0     C27858   9.838   8.763  11.019 -0.0753  0.1236  0.6808
  212MOL0     C27859   9.851   8.894  10.978  0.5186 -0.2831  0.2257
  212MOL0     O27860   9.855   8.919  10.839 -0.0734  0.4939  0.6878
  212MOL0     C27861   9.848   9.055  10.782 -0.9942 -0.1352 -0.7925
  212MOL0     C27862   9.827   9.043  10.633 -0.4591  0.5048 -0.2528
  212MOL0     C27863   9.841   9.186  10.566 -0.1701 -0.2260 -1.0459
  212MOL0     C27864   9.839   9.209  10.416  0.2709  0.4535 -0.8236
  212MOL0     C27865   9.883   9.343  10.366 -0.4948 -0.4055  0.2220
  212MOL0     C27866  10.039   9.353  10.380  0.5192 -1.0164  0.6243
  212MOL0     C27867  10.117   9.477  10.329  0.2056 -0.5158 -0.0782
  212MOL0     C27868  10.116   9.488  10.174  0.6132  0.8179 -0.0161
  212MOL0     N27869  10.201   9.606  10.139 -0.2496 -1.0812 -0.5169
  212MOL0     C27870  10.203   9.729  10.199 -0.0856  0.5322 -0.3494
  212MOL0     C27871  10.281   9.811  10.119  0.0466 -0.7011 -0.0799
  212MOL0     C27872  10.301   9.960  10.148  0.5111  0.7395 -0.5609
  212MOL0     C27873  10.426  10.024  10.090 -0.1758  0.5074  0.0240
  212MOL0     C27874  10.550   9.940  10.070  0.2943 -0.4342  0.4176
  212MOL0     C27875  10.591   9.867  10.194 -0.1794 -0.2679 -0.4427
  212MOL0     O27876  10.726   9.835  10.205 -0.4155 -0.7170  0.1987
  212MOL0     C27877  10.821   9.936  10.225  0.3628 -1.3650 -0.5510
  212MOL0     C27878  10.803  10.062  10.270  1.2154  0.8948  0.0405
  212MOL0     C27879  10.916  10.144  10.283  0.1596  0.5866 -0.0987
  212MOL0     C27880  11.046  10.103  10.267 -0.8596  0.4261 -0.7546
  212MOL0     C27881  11.169  10.180  10.304  0.3949  0.2420  0.2214
  212MOL0     O27882  11.293  10.119  10.300  1.3118  0.3325  0.1844
  212MOL0     C27883  11.416  10.181  10.321  1.2599  0.4851  0.5632
  212MOL0     C27884  11.520  10.098  10.347 -0.1070  1.3257  0.0693
  212MOL0     C27885  11.648  10.150  10.370 -0.7976 -1.2540 -0.3281
  212MOL0     C27886  11.673  10.293  10.375 -0.0389  0.4757  0.2328
  212MOL0     O27887  11.792  10.344  10.430 -0.3921 -0.2894  0.5052
  212MOL0     C27888  11.860  10.448  10.365 -0.7911 -0.0262  0.1466
  212MOL0     C27889  12.014  10.439  10.398  0.6397 -0.2310  0.8916
  212MOL0     C27890  12.075  10.319  10.325  0.2788 -0.8820  0.3836
  212MOL0     C27891  12.095  10.349  10.168 -0.5974  0.0990 -0.6165
  212MOL0     C27892  12.099  10.231  10.084  0.8078 -0.7836  0.1817
  212MOL0     C27893  12.152  10.275   9.949 -0.0536 -0.0839  0.2638
  212MOL0     C27894  12.180  10.152   9.863  0.1194  0.2656  0.2330
  212MOL0     C27895  12.062  10.091   9.787  0.2049 -0.3585 -0.2459
  212MOL0    Cl27896  11.976  10.214   9.688 -0.2665 -0.3601  0.0884
  212MOL0     C27897  11.565  10.377  10.336 -0.7056 -0.1157  0.3560
  212MOL0     C27898  11.436  10.321  10.309 -0.5335  0.8157 -0.1133
  212MOL0     O27899  11.152  10.294  10.351  0.1450  0.0112  0.2528
  212MOL0     C27900  11.063   9.977  10.213  0.9378  0.6647 -0.1064
  212MOL0     C27901  10.950   9.892  10.192 -0.2407 -0.0021 -0.0004
  212MOL0     N27902  10.318   9.739  10.010 -0.2088  0.4343 -0.0624
  212MOL0     N27903  10.266   9.622  10.022 -0.5380  0.4147 -0.6426
  212MOL0     C27904   9.850   8.995  11.068 -0.3043 -0.6713  0.2694
  212MOL0     C27905   9.837   8.973  11.208 -0.2901  0.6169  0.1801
  212MOL0     C27906   9.878   8.779  11.589 -1.2176 -0.5754 -0.2543
  212MOL0     C27907   9.760   8.814  11.649 -0.2356 -0.4317  0.1107
  212MOL0     C27908   9.752   8.815  11.796 -0.1544  0.0469 -0.2038
  212MOL0     C27909   9.853   8.788  11.886 -0.6484 -0.0746  0.9891
  212MOL0     O27910   9.836   8.778  12.024  0.0243  0.2405  0.2132
  212MOL0     C27911   9.710   8.767  12.089  0.5275 -0.8497  0.3177
  212MOL0     C27912   9.733   8.682  12.213  0.6063 -0.8122 -0.6097
  212MOL0     C27913   9.597   8.638  12.273 -1.0052  0.9759  0.5559
  212MOL0     C27914   9.632   8.540  12.387 -0.1171  0.0507  0.1406
  212MOL0     C27915   9.514   8.471  12.441 -0.5621  0.0643 -0.3330
  212MOL0     C27916   9.426   8.412  12.488  0.0765  1.1325 -0.3621
  212MOL0     C27917   9.969   8.749  11.816 -0.0868 -0.2808 -0.6043
  212MOL0     C27918   9.987   8.744  11.672  0.2534 -0.1223 -0.5974
  212MOL0     H27919   9.807   8.637  11.183  3.5880 -0.4359 -1.6080
  212MOL0     H27920   9.837   8.678  10.951 -4.1229 -1.9046  2.8822
  212MOL0     H27921   9.928   9.121  10.817 -2.4533 -0.2822  3.3001
  212MOL0     H27922   9.753   9.089  10.824 -1.7230  0.0798 -2.5188
  212MOL0     H27923   9.729   8.996  10.625  0.2478 -1.0344 -0.2542
  212MOL0     H27924   9.895   8.968  10.591 -2.0131  0.1603 -2.3395
  212MOL0     H27925   9.935   9.234  10.597 -1.6429  1.6189  0.8482
  212MOL0     H27926   9.764   9.249  10.610 -0.8391 -1.6290 -0.1420
  212MOL0     H27927   9.896   9.131  10.365  0.0149  0.7474 -1.5826
  212MOL0     H27928   9.738   9.192  10.377  0.2222  1.5444 -1.2053
  212MOL0     H27929   9.831   9.423  10.419  1.0648  2.0481 -1.7247
  212MOL0     H27930   9.860   9.356  10.260 -0.9241 -2.5693  0.0053
  212MOL0     H27931  10.079   9.263  10.332 -0.1456 -0.3694 -1.1936
  212MOL0     H27932  10.068   9.338  10.485  0.3318 -3.5385  0.3752
  212MOL0     H27933  10.077   9.566  10.378 -1.3172  0.5995 -3.0471
  212MOL0     H27934  10.218   9.449  10.360 -0.6142 -2.2875  1.1914
  212MOL0     H27935  10.017   9.498  10.128  1.6733  0.1505 -2.6391
  212MOL0     H27936  10.158   9.396  10.131  0.9218  0.0532  1.8380
  212MOL0     H27937  10.136   9.755  10.281  0.2999 -0.6874  0.3695
  212MOL0     H27938  10.312   9.965  10.257 -1.1005 -0.2270 -0.3217
  212MOL0     H27939  10.216  10.025  10.124  1.2295  1.3892 -1.4281
  212MOL0     H27940  10.437  10.106  10.161 -2.1930 -0.9865  2.2042
  212MOL0     H27941  10.398  10.059   9.990 -0.4940  0.2300  0.0145
  212MOL0     H27942  10.538   9.864   9.991  0.8365 -0.5142  0.4064
  212MOL0     H27943  10.642   9.995  10.044  0.2975 -1.5958 -2.4291
  212MOL0     H27944  10.546   9.767  10.202 -0.7150 -0.1304 -1.5302
  212MOL0     H27945  10.545   9.934  10.266  2.7298  2.3866 -0.8421
  212MOL0     H27946  10.703  10.103  10.278  2.6964  5.3703 -1.4033
  212MOL0     H27947  10.901  10.249  10.306  0.3479  1.4297 -3.3230
  212MOL0     H27948  11.504   9.991  10.354  0.0777  1.4048  2.1484
  212MOL0     H27949  11.735  10.098  10.407 -0.3860  1.0662  2.2789
  212MOL0     H27950  11.808  10.538  10.399 -0.1167  0.1088  0.8271
  212MOL0     H27951  11.856  10.455  10.255  1.8571  0.2700  0.0166
  212MOL0     H27952  12.028  10.419  10.505  0.9272 -3.2865  0.3687
  212MOL0     H27953  12.069  10.530  10.371  1.0257 -0.5482  0.6064
  212MOL0     H27954  12.002  10.239  10.341 -2.6893  1.4856 -0.4494
  212MOL0     H27955  12.166  10.309  10.386  0.6404 -0.6267 -0.1033
  212MOL0     H27956  12.032  10.426  10.122  1.3229  2.6398  0.7370
  212MOL0     H27957  12.197  10.389  10.160 -0.8487  1.6090  2.2575
  212MOL0     H27958  12.001  10.182  10.090 -0.0391  0.7512 -0.5081
  212MOL0     H27959  12.168  10.159  10.129  0.0868 -1.6145 -0.0145
  212MOL0     H27960  12.235  10.346   9.961 -0.7436  0.8693 -0.3726
  212MOL0     H27961  12.075  10.326   9.890 -0.2818 -0.9341 -0.1748
  212MOL0     H27962  12.260  10.164   9.790  0.8489 -0.9919  0.7967
  212MOL0     H27963  12.230  10.084   9.933 -1.7335  1.6957  3.1348
  212MOL0     H27964  12.000  10.024   9.848 -0.6354  1.6935  1.3221
  212MOL0     H27965  12.099  10.019   9.714  0.9903 -2.1605  1.8074
  212MOL0     H27966  11.587  10.483  10.348 -0.1682 -0.1095 -0.5324
  212MOL0     H27967  11.345  10.372  10.279 -1.1375 -1.5584 -2.7648
  212MOL0     H27968  11.162   9.955  10.173  2.7026  3.3059  2.4505
  212MOL0     H27969  10.952   9.800  10.135  0.0748 -0.7186  1.1338
  212MOL0     H27970   9.859   9.093  11.022  1.0023 -2.5200 -3.9252
  212MOL0     H27971   9.851   9.049  11.283 -0.5637  1.0179 -0.1689
  212MOL0     H27972   9.669   8.841  11.598 -1.8637 -2.4288  1.7631
  212MOL0     H27973   9.649   8.840  11.819 -0.6684 -1.4034 -0.7815
  212MOL0     H27974   9.633   8.719  12.027 -1.4785  0.6504  1.4942
  212MOL0     H27975   9.666   8.860  12.127 -0.7409  0.4793 -3.8820
  212MOL0     H27976   9.799   8.600  12.186  0.1109 -0.8025 -1.9341
  212MOL0     H27977   9.784   8.740  12.290 -0.8485  0.0510 -0.2437
  212MOL0     H27978   9.537   8.580  12.203 -1.0103 -0.8542  1.9825
  212MOL0     H27979   9.547   8.722  12.320 -2.9948 -0.2729  0.7615
  212MOL0     H27980   9.690   8.452  12.360 -3.9858 -1.8632 -2.7988
  212MOL0     H27981   9.683   8.602  12.462  0.3226  2.7597 -2.2339
  212MOL0     H27982   9.339   8.357  12.521 -1.2869  1.0107 -3.7362
  212MOL0     H27983  10.060   8.730  11.873 -1.1611 -4.4191  0.0355
  212MOL0     H27984  10.085   8.730  11.629 -0.9680 -0.7622 -3.4127
  213MOL0     O27985   2.193  10.118   6.582  0.5230  0.3142  0.1518
  213MOL0     C27986   2.113  10.153   6.666  0.4265  0.0737  0.1485
  213MOL0     O27987   1.977  10.149   6.654  0.4025 -0.5527 -0.8027
  213MOL0     C27988   1.927  10.090   6.550  0.0324 -0.1273  0.9655
  213MOL0     C27989   1.874  10.166   6.445  0.1058  0.8809 -0.5963
  213MOL0     C27990   1.816  10.096   6.336  0.5905 -0.3809 -0.0983
  213MOL0     C27991   1.780   9.956   6.344 -0.8282  1.0120  0.0740
  213MOL0     O27992   1.705   9.905   6.247  0.1921 -0.5223  1.2696
  213MOL0     C27993   1.715   9.755   6.232  0.1718 -0.1374  0.9430
  213MOL0     C27994   1.615   9.712   6.112  0.6430  0.1406 -0.7675
  213MOL0     C27995   1.633   9.771   5.973  0.2450  0.7548  0.3883
  213MOL0     C27996   1.774   9.762   5.913 -0.2757  0.2623 -0.7458
  213MOL0     C27997   1.764   9.817   5.773  0.4185  0.0015 -0.6377
  213MOL0     C27998   1.896   9.847   5.695 -0.5673  0.3405 -1.1680
  213MOL0     C27999   1.875   9.891   5.557 -1.0345 -0.4277 -0.3435
  213MOL0     C28000   1.992   9.847   5.469 -0.0205  0.7480  0.3128
  213MOL0     N28001   2.101   9.947   5.480 -0.2656 -0.0387  0.6763
  213MOL0     C28002   2.120  10.069   5.413  0.4026  0.8279  0.2636
  213MOL0     C28003   2.236  10.111   5.473  0.0688 -1.2785  0.0382
  213MOL0     C28004   2.306  10.233   5.461 -0.6648  0.0774  0.2841
  213MOL0     C28005   2.343  10.284   5.309 -0.0611  0.5075 -0.5876
  213MOL0     C28006   2.374  10.434   5.284 -1.1800  0.5137 -0.5730
  213MOL0     C28007   2.469  10.485   5.398  0.0249  0.1527 -0.5579
  213MOL0     O28008   2.525  10.607   5.343 -0.0277  0.2479 -0.2103
  213MOL0     C28009   2.628  10.671   5.406 -0.6561 -2.5912 -0.0240
  213MOL0     C28010   2.669  10.669   5.542  0.6762  0.0204 -1.0434
  213MOL0     C28011   2.750  10.768   5.590  0.0698 -0.5455 -0.7134
  213MOL0     C28012   2.793  10.877   5.515  0.2350  0.1491 -0.7342
  213MOL0     C28013   2.866  10.988   5.580 -0.9162 -0.2677 -0.5766
  213MOL0     O28014   2.966  10.956   5.671 -0.1632  0.3207  1.1006
  213MOL0     C28015   3.039  11.053   5.723  0.1686 -0.7341  0.4259
  213MOL0     C28016   3.015  11.084   5.855 -1.4235  1.6794  0.8178
  213MOL0     C28017   3.068  11.192   5.914 -0.3278 -0.4156  0.5497
  213MOL0     C28018   3.162  11.269   5.843 -0.2809  0.4498 -0.4495
  213MOL0     O28019   3.218  11.385   5.907  0.4621  0.7821 -0.4247
  213MOL0     C28020   3.122  11.472   5.974  0.2957  0.0775 -0.4158
  213MOL0     C28021   3.188  11.584   6.046  0.2398  0.8451  0.6967
  213MOL0     C28022   3.271  11.515   6.163 -0.5555  0.1884 -0.5576
  213MOL0     C28023   3.359  11.623   6.240 -0.0433 -0.1571  0.0192
  213MOL0     C28024   3.421  11.571   6.367 -0.5355  0.7460  0.9318
  213MOL0     C28025   3.328  11.509   6.483 -0.9620 -0.8054 -0.7260
  213MOL0     C28026   3.259  11.633   6.553  0.3953 -0.0967 -1.1164
  213MOL0     C28027   3.161  11.595   6.675 -0.2567  1.0305 -0.5774
  213MOL0    Cl28028   3.085  11.737   6.753  0.3006  0.0466  0.6913
  213MOL0     C28029   3.192  11.243   5.714 -0.7134  1.1781  0.4086
  213MOL0     C28030   3.130  11.132   5.644 -0.2998  0.1328 -0.0685
  213MOL0     O28031   2.836  11.104   5.550  0.3440  0.2377 -0.7880
  213MOL0     C28032   2.763  10.879   5.380 -0.5272 -0.5707 -0.4190
  213MOL0     C28033   2.682  10.778   5.328 -0.9276 -0.4527 -0.0425
  213MOL0     N28034   2.280  10.020   5.569 -0.0406  0.3208  0.3861
  213MOL0     N28035   2.203   9.916   5.563 -0.8667 -0.0384 -0.0337
  213MOL0     C28036   1.837   9.886   6.455  0.6092  1.6247  0.2934
  213MOL0     C28037   1.919   9.948   6.551  0.4097  0.4311 -0.6646
  213MOL0     C28038   2.162  10.197   6.799 -0.1267  0.5386  0.4705
  213MOL0     C28039   2.299  10.224   6.830  0.5963 -0.3378  0.2367
  213MOL0     C28040   2.334  10.267   6.962 -0.0715  0.2374  0.4638
  213MOL0     C28041   2.246  10.276   7.066  0.4102  1.0030  0.2837
  213MOL0     O28042   2.291  10.306   7.190 -0.3078  0.1824 -0.2666
  213MOL0     C28043   2.192  10.346   7.289 -1.0631  0.4019 -0.3282
  213MOL0     C28044   2.276  10.408   7.400 -0.2459  0.5708  0.6744
  213MOL0     C28045   2.327  10.289   7.475  0.1194 -1.0910  1.0352
  213MOL0     C28046   2.438  10.347   7.569 -0.8426 -0.0249 -1.0427
  213MOL0     C28047   2.565  10.371   7.498 -0.7630 -0.7154  0.3214
  213MOL0     C28048   2.669  10.383   7.434 -0.2534  0.2295 -0.7702
  213MOL0     C28049   2.113  10.255   7.040 -0.9979  0.1292  0.2779
  213MOL0     C28050   2.079  10.224   6.908 -0.2018  0.0281 -0.2697
  213MOL0     H28051   1.892  10.273   6.450 -0.2818  0.9827 -1.1829
  213MOL0     H28052   1.763  10.143   6.254  1.4275 -0.8628 -0.9273
  213MOL0     H28053   1.670   9.708   6.321 -2.4718  2.4056  1.0986
  213MOL0     H28054   1.814   9.726   6.197 -0.5513 -0.7932 -0.6539
  213MOL0     H28055   1.511   9.729   6.141  0.5473 -0.3740 -0.7973
  213MOL0     H28056   1.622   9.603   6.107  2.0247  0.1690 -0.0485
  213MOL0     H28057   1.609   9.878   5.978  1.3405  1.0240  0.1862
  213MOL0     H28058   1.567   9.713   5.908  1.6058  0.6568 -0.9635
  213MOL0     H28059   1.850   9.815   5.971 -0.3209 -1.5470  1.0513
  213MOL0     H28060   1.803   9.656   5.914 -0.0138  0.2770  2.7783
  213MOL0     H28061   1.700   9.907   5.772  2.7452  1.7731  0.5821
  213MOL0     H28062   1.703   9.748   5.715 -0.0896  2.9606 -3.9756
  213MOL0     H28063   1.956   9.755   5.699 -3.5469 -1.8115 -2.4022
  213MOL0     H28064   1.947   9.923   5.755 -0.0899 -1.8385  1.3644
  213MOL0     H28065   1.779   9.865   5.510 -1.9406  3.0557 -0.7275
  213MOL0     H28066   1.864  10.000   5.563  0.6134 -0.3159  2.7010
  213MOL0     H28067   1.960   9.842   5.364  0.1583 -3.1590  0.3057
  213MOL0     H28068   2.035   9.750   5.496  1.2633  1.1760 -0.1044
  213MOL0     H28069   2.068  10.137   5.347  0.5476  1.5678  0.9061
  213MOL0     H28070   2.393  10.236   5.526 -1.9714 -0.7382  2.1498
  213MOL0     H28071   2.238  10.309   5.500 -0.2053 -0.9154  3.2116
  213MOL0     H28072   2.257  10.260   5.246  1.2966 -4.2458 -1.0158
  213MOL0     H28073   2.431  10.228   5.278  0.4548  0.4096  0.9395
  213MOL0     H28074   2.416  10.443   5.183 -1.6438  1.3329 -0.6977
  213MOL0     H28075   2.283  10.492   5.295 -1.2414  0.7327 -2.0104
  213MOL0     H28076   2.556  10.422   5.423 -0.0308 -0.7282 -2.4453
  213MOL0     H28077   2.420  10.513   5.491  0.7191  1.9029 -0.6785
  213MOL0     H28078   2.620  10.592   5.601 -4.6932  2.3544 -1.8475
  213MOL0     H28079   2.780  10.759   5.694 -1.8138 -3.6566 -0.3074
  213MOL0     H28080   2.943  11.021   5.905 -1.3277 -0.5167 -1.6061
  213MOL0     H28081   3.044  11.204   6.019 -0.2734 -0.2778  0.5463
  213MOL0     H28082   3.064  11.424   6.053  0.2809 -0.2446 -0.6193
  213MOL0     H28083   3.059  11.510   5.893  1.1492 -1.3926 -1.8263
  213MOL0     H28084   3.116  11.657   6.085  0.7921  2.0489 -0.4453
  213MOL0     H28085   3.252  11.635   5.974  0.7605 -0.4308  0.2305
  213MOL0     H28086   3.339  11.440   6.121  2.9753  3.4280 -1.2149
  213MOL0     H28087   3.200  11.469   6.232 -1.3286  3.7692  1.2753
  213MOL0     H28088   3.435  11.643   6.164 -0.7935 -1.4612 -1.1215
  213MOL0     H28089   3.290  11.707   6.254  1.3083  0.6612  2.2826
  213MOL0     H28090   3.480  11.653   6.410 -0.3216 -0.1985  2.5486
  213MOL0     H28091   3.498  11.500   6.336  1.9795  1.6027  4.5567
  213MOL0     H28092   3.392  11.452   6.550 -2.7358 -1.2230  0.6882
  213MOL0     H28093   3.260  11.431   6.449  1.0940 -2.3269 -1.5511
  213MOL0     H28094   3.333  11.706   6.587  3.3999 -2.2555 -2.5128
  213MOL0     H28095   3.199  11.685   6.477 -1.4111 -0.6760 -0.1443
  213MOL0     H28096   3.221  11.559   6.759  0.0349  0.3849 -1.0589
  213MOL0     H28097   3.095  11.518   6.634  2.3170 -1.1842 -0.8478
  213MOL0     H28098   3.261  11.300   5.653  0.2378  0.4194  0.7401
  213MOL0     H28099   3.142  11.103   5.540 -0.6765  3.1034 -1.0471
  213MOL0     H28100   2.808  10.964   5.329  0.4859 -0.1986  1.0269
  213MOL0     H28101   2.650  10.785   5.225 -0.8184  2.6974  0.0360
  213MOL0     H28102   1.826   9.778   6.457  0.1670  1.6304 -0.9911
  213MOL0     H28103   1.956   9.903   6.642 -0.6775  1.2202  0.2039
  213MOL0     H28104   2.368  10.202   6.750 -1.7089 -0.5149 -1.8052
  213MOL0     H28105   2.437  10.297   6.978 -0.3775 -0.0010  3.5828
  213MOL0     H28106   2.127  10.262   7.315 -1.0832  0.2612 -0.8304
  213MOL0     H28107   2.134  10.425   7.242 -0.1214  1.2193 -0.1500
  213MOL0     H28108   2.357  10.463   7.351 -1.6896  0.4130 -2.1028
  213MOL0     H28109   2.198  10.473   7.442 -2.8662 -1.3586 -0.8958
  213MOL0     H28110   2.372  10.215   7.409 -0.1808  0.3735 -0.9092
  213MOL0     H28111   2.247  10.233   7.525 -0.8489  0.0839  0.8516
  213MOL0     H28112   2.406  10.442   7.613  1.9425  0.0383  1.1522
  213MOL0     H28113   2.456  10.276   7.650 -0.3391 -1.7879 -2.6393
  213MOL0     H28114   2.755  10.376   7.371  0.0637  1.2702 -0.4718
  213MOL0     H28115   2.038  10.256   7.119 -3.2598 -0.7238 -1.7246
  213MOL0     H28116   1.973  10.207   6.887 -0.7181  1.4218  1.0270
  214MOL0     O28117   4.996   6.738   1.327  0.6334  0.2615 -0.2212
  214MOL0     C28118   4.877   6.755   1.344 -0.2741  0.0325 -0.1383
  214MOL0     O28119   4.779   6.662   1.300 -0.6687 -0.8613 -0.5504
  214MOL0     C28120   4.824   6.531   1.266 -0.1024 -0.0786 -0.1069
  214MOL0     C28121   4.764   6.481   1.148  0.2603  0.1018  0.2428
  214MOL0     C28122   4.801   6.346   1.111  0.0192  0.1239  1.3030
  214MOL0     C28123   4.879   6.269   1.187 -0.2937  0.6786 -0.9126
  214MOL0     O28124   4.899   6.136   1.143  0.2394 -0.1486  0.0955
  214MOL0     C28125   4.896   6.029   1.240 -0.6957 -0.8678  0.3880
  214MOL0     C28126   4.750   5.994   1.273 -0.3351  0.3134 -0.4482
  214MOL0     C28127   4.688   5.905   1.165 -0.1357 -0.3867  1.4132
  214MOL0     C28128   4.541   5.949   1.146 -0.7501  0.6943 -0.7929
  214MOL0     C28129   4.469   5.832   1.075  0.1185  0.7935 -0.6680
  214MOL0     C28130   4.368   5.876   0.973  0.7649 -0.5396 -1.1958
  214MOL0     C28131   4.259   5.769   0.950 -1.3187  0.6368 -0.1621
  214MOL0     C28132   4.157   5.817   0.855  0.0747  0.6484  0.5903
  214MOL0     N28133   4.080   5.914   0.925  0.9228 -0.2188  0.5664
  214MOL0     C28134   3.980   5.890   1.023  0.2450 -0.4705 -1.1712
  214MOL0     C28135   3.913   6.004   1.034  1.2702  0.3213 -0.5255
  214MOL0     C28136   3.792   6.041   1.109 -0.8917 -0.0661  0.0848
  214MOL0     C28137   3.679   5.959   1.039  0.1318  0.1803 -0.0323
  214MOL0     C28138   3.544   5.977   1.113  0.1814  0.4452 -0.2631
  214MOL0     C28139   3.429   5.918   1.045 -0.1090  0.1735 -0.1515
  214MOL0     O28140   3.455   5.777   1.018  0.3031  0.3687  0.4544
  214MOL0     C28141   3.350   5.693   0.991 -0.0203  0.0568  0.7421
  214MOL0     C28142   3.372   5.562   0.960  0.0803  0.2938  0.1940
  214MOL0     C28143   3.267   5.462   0.944  0.5338 -0.0754  0.2689
  214MOL0     C28144   3.137   5.510   0.954  0.5637 -0.2551 -0.2204
  214MOL0     C28145   3.026   5.407   0.928  0.0681  0.4036  0.0308
  214MOL0     O28146   3.063   5.288   0.878  0.1718 -0.2670 -0.2771
  214MOL0     C28147   2.972   5.192   0.846 -0.5103 -0.5330 -0.6376
  214MOL0     C28148   2.900   5.124   0.948  0.6897 -0.2924 -0.2838
  214MOL0     C28149   2.815   5.029   0.896  1.0246 -0.5715 -1.2412
  214MOL0     C28150   2.805   5.007   0.764 -0.5573  0.4131 -0.2857
  214MOL0     O28151   2.716   4.905   0.732  0.1628 -0.0623 -0.1980
  214MOL0     C28152   2.767   4.794   0.658  0.0418  1.2835  0.4406
  214MOL0     C28153   2.648   4.723   0.592  1.6283 -0.1340  0.8923
  214MOL0     C28154   2.696   4.622   0.486  0.4078  1.2894  0.0963
  214MOL0     C28155   2.790   4.509   0.536  0.4369 -0.7437 -0.6175
  214MOL0     C28156   2.725   4.408   0.634  0.1621  0.6192 -0.5316
  214MOL0     C28157   2.817   4.301   0.690 -0.3807  0.8632  0.9824
  214MOL0     C28158   2.724   4.190   0.760 -0.2348 -0.3231  0.1598
  214MOL0     C28159   2.682   4.082   0.666 -1.4921  0.7263  0.7181
  214MOL0    Cl28160   2.832   3.974   0.647 -0.0574  0.1657  0.0811
  214MOL0     C28161   2.892   5.060   0.672 -0.2127 -0.1409  0.1600
  214MOL0     C28162   2.971   5.166   0.712  0.0536 -0.0102  0.6561
  214MOL0     O28163   2.912   5.437   0.951  0.4205 -0.0548 -0.3534
  214MOL0     C28164   3.105   5.655   0.968 -0.0725 -0.2317  0.7921
  214MOL0     C28165   3.214   5.739   0.993  1.0107 -0.3915  0.8640
  214MOL0     N28166   3.968   6.089   0.944 -0.0472 -0.1377  0.3608
  214MOL0     N28167   4.058   6.033   0.874 -0.3701 -0.4850 -0.5850
  214MOL0     C28168   4.945   6.330   1.308  0.2817  0.1037 -0.7598
  214MOL0     C28169   4.912   6.452   1.350  0.1237 -0.7846  0.7813
  214MOL0     C28170   4.831   6.882   1.391  0.7826 -0.0010 -0.6604
  214MOL0     C28171   4.694   6.920   1.403  0.3101 -0.3082 -0.2546
  214MOL0     C28172   4.648   7.045   1.445 -0.0807  0.0899  0.3325
  214MOL0     C28173   4.741   7.142   1.481  1.8066 -0.0269  1.3663
  214MOL0     O28174   4.712   7.276   1.523  0.6636 -0.4288 -0.4271
  214MOL0     C28175   4.586   7.338   1.504  0.6039 -0.0183 -0.6224
  214MOL0     C28176   4.597   7.462   1.406 -0.4546 -0.1895 -0.9691
  214MOL0     C28177   4.628   7.407   1.260 -0.9791 -0.0580  0.1484
  214MOL0     C28178   4.657   7.523   1.166 -0.0454  0.9425  1.2171
  214MOL0     C28179   4.784   7.586   1.181 -0.4879 -0.6090  0.1112
  214MOL0     C28180   4.892   7.646   1.190 -0.1826 -0.5180  0.4286
  214MOL0     C28181   4.866   7.105   1.489 -0.1522 -0.2890  0.2216
  214MOL0     C28182   4.919   6.977   1.441 -0.8654 -0.9007  0.2499
  214MOL0     H28183   4.689   6.535   1.092 -0.1684 -0.2524  0.4740
  214MOL0     H28184   4.736   6.312   1.031 -0.2560  0.3069  1.4424
  214MOL0     H28185   4.953   6.062   1.327  1.0918 -1.0741 -0.6566
  214MOL0     H28186   4.944   5.944   1.191 -2.6245 -0.8317 -1.7467
  214MOL0     H28187   4.697   6.089   1.279 -0.2502  0.2895  1.0928
  214MOL0     H28188   4.733   5.939   1.366  0.6430 -0.4647 -0.7077
  214MOL0     H28189   4.685   5.799   1.193 -1.7449 -1.0434 -0.9842
  214MOL0     H28190   4.741   5.901   1.069 -1.0293  0.7894  0.8413
  214MOL0     H28191   4.497   5.967   1.245  0.0954 -0.8656 -0.0895
  214MOL0     H28192   4.540   6.040   1.085  2.1198  3.5330  2.8880
  214MOL0     H28193   4.410   5.759   1.130 -0.8553 -0.4353 -3.1888
  214MOL0     H28194   4.540   5.770   1.020  0.5480 -0.0007  0.7375
  214MOL0     H28195   4.402   5.903   0.872 -0.2228 -2.8749 -2.2346
  214MOL0     H28196   4.325   5.967   1.015 -1.1968 -1.7171 -0.5384
  214MOL0     H28197   4.320   5.684   0.917  0.4329  1.7666  0.0373
  214MOL0     H28198   4.211   5.733   1.042 -2.7704 -2.7606 -2.0667
  214MOL0     H28199   4.095   5.733   0.822  0.2633  0.6068  0.3400
  214MOL0     H28200   4.191   5.862   0.761 -0.5386 -0.9708 -0.4527
  214MOL0     H28201   3.952   5.802   1.080 -4.2279  2.4059  1.7294
  214MOL0     H28202   3.778   6.146   1.081 -0.6230 -0.7770 -3.2078
  214MOL0     H28203   3.792   6.030   1.218  1.8700  5.5541  0.9798
  214MOL0     H28204   3.707   5.853   1.033 -0.6102  0.0263 -3.7764
  214MOL0     H28205   3.672   5.990   0.934 -0.2597 -1.0278 -0.3788
  214MOL0     H28206   3.544   5.942   1.216 -2.4178  4.1535  1.2131
  214MOL0     H28207   3.527   6.085   1.116 -2.3319  0.1250 -0.7289
  214MOL0     H28208   3.397   5.969   0.954 -0.5124  0.9393  0.4072
  214MOL0     H28209   3.343   5.921   1.113 -0.4249 -0.9229 -0.4801
  214MOL0     H28210   3.472   5.525   0.944  0.5085 -0.9121  4.4020
  214MOL0     H28211   3.298   5.360   0.924 -0.6219 -0.0844 -1.7041
  214MOL0     H28212   2.907   5.138   1.056  1.5976  0.8834 -0.4764
  214MOL0     H28213   2.756   4.973   0.969  1.0507 -0.1395 -0.8872
  214MOL0     H28214   2.812   4.726   0.731 -0.2702  2.7040  2.0259
  214MOL0     H28215   2.841   4.820   0.583  2.1535 -0.8737  1.6499
  214MOL0     H28216   2.595   4.806   0.544 -0.0211 -1.4916  0.2856
  214MOL0     H28217   2.590   4.668   0.666  0.5815 -3.1695 -1.9878
  214MOL0     H28218   2.750   4.678   0.410 -0.2770  2.1397  0.2206
  214MOL0     H28219   2.608   4.571   0.447  1.3131 -1.1068  0.9589
  214MOL0     H28220   2.829   4.450   0.453  0.8966 -0.8772 -0.3098
  214MOL0     H28221   2.869   4.544   0.603 -2.3073  2.1570  1.3622
  214MOL0     H28222   2.644   4.372   0.569 -1.3256  2.8518 -0.0329
  214MOL0     H28223   2.673   4.451   0.720 -1.0382 -2.9989  0.7144
  214MOL0     H28224   2.873   4.348   0.770  3.9827  0.4382 -1.4986
  214MOL0     H28225   2.883   4.263   0.611 -3.1107 -1.0616 -0.5410
  214MOL0     H28226   2.773   4.151   0.849 -2.1036 -0.3427  1.2353
  214MOL0     H28227   2.630   4.241   0.785 -1.5083 -1.9307 -1.1244
  214MOL0     H28228   2.642   4.109   0.567  0.2842 -1.4490 -0.6977
  214MOL0     H28229   2.597   4.037   0.718 -2.5588  3.1881  1.2849
  214MOL0     H28230   2.875   5.026   0.570 -1.5894 -1.1805  0.7097
  214MOL0     H28231   3.020   5.231   0.640 -2.5846  2.9959  1.3772
  214MOL0     H28232   3.000   5.683   0.961 -0.2643 -1.0842  0.1387
  214MOL0     H28233   3.187   5.842   1.011  0.6734  0.3367 -3.0981
  214MOL0     H28234   5.010   6.275   1.375  0.3801  0.7643 -0.2995
  214MOL0     H28235   4.960   6.482   1.443  0.8525  0.4229  0.0316
  214MOL0     H28236   4.624   6.838   1.388 -0.2947  0.3450 -1.1350
  214MOL0     H28237   4.542   7.067   1.440 -0.5599 -1.8349  1.0636
  214MOL0     H28238   4.535   7.372   1.594 -0.1549 -0.1752 -0.9823
  214MOL0     H28239   4.516   7.270   1.453  0.4917  1.4073 -2.4921
  214MOL0     H28240   4.513   7.532   1.399  0.2142  0.5726 -1.5301
  214MOL0     H28241   4.679   7.523   1.447 -1.1784 -0.2923  0.7357
  214MOL0     H28242   4.535   7.363   1.222 -1.9430  0.0835  2.2215
  214MOL0     H28243   4.702   7.327   1.264 -1.2030 -0.2527  4.2222
  214MOL0     H28244   4.657   7.487   1.062 -0.2696  1.4010  1.0539
  214MOL0     H28245   4.577   7.597   1.170 -2.2655 -1.2601  0.4700
  214MOL0     H28246   4.975   7.713   1.186  0.9665 -1.7285  2.5212
  214MOL0     H28247   4.935   7.181   1.524 -0.1971 -0.1460  0.0009
  214MOL0     H28248   5.027   6.970   1.439 -0.4040  2.8528  2.5612
  215MOL0     O28249   6.968   5.141   0.728  0.6513  0.3219 -0.4244
  215MOL0     C28250   6.905   5.212   0.646  0.1466  0.6189 -0.4187
  215MOL0     O28251   6.816   5.159   0.551  0.3296  0.3157 -0.7441
  215MOL0     C28252   6.810   5.026   0.507  0.0504  0.0878 -0.5763
  215MOL0     C28253   6.903   4.919   0.529  0.2135 -0.2048 -0.0577
  215MOL0     C28254   6.887   4.794   0.483  0.1650 -0.5072 -0.1662
  215MOL0     C28255   6.775   4.759   0.400  0.1323  0.1457  0.0172
  215MOL0     O28256   6.763   4.628   0.366 -0.7595 -0.0107 -0.1436
  215MOL0     C28257   6.655   4.600   0.279 -0.6750  0.4500  0.1639
  215MOL0     C28258   6.701   4.467   0.220  0.8184  0.0079 -0.0438
  215MOL0     C28259   6.696   4.344   0.325 -0.4674 -0.0828  0.1788
  215MOL0     C28260   6.654   4.224   0.244  0.0600  0.9188 -0.4723
  215MOL0     C28261   6.657   4.092   0.321  0.5155 -0.7193 -0.2796
  215MOL0     C28262   6.581   4.101   0.451 -0.6603 -0.4353 -0.1041
  215MOL0     C28263   6.572   3.969   0.536  0.0799 -1.1934 -1.4510
  215MOL0     C28264   6.543   3.847   0.457  0.0468  0.9312 -0.0507
  215MOL0     N28265   6.516   3.728   0.540  0.2778 -0.3398 -0.2844
  215MOL0     C28266   6.389   3.679   0.569  0.4407 -0.5110 -0.7635
  215MOL0     C28267   6.414   3.565   0.633 -0.5635  0.0930 -0.6802
  215MOL0     C28268   6.302   3.464   0.678 -0.5552  0.4575 -0.0751
  215MOL0     C28269   6.313   3.451   0.837 -0.8086 -0.1519  0.8766
  215MOL0     C28270   6.204   3.384   0.909  0.8543 -0.2868 -0.7970
  215MOL0     C28271   6.156   3.255   0.828  0.6760  0.0006  0.2419
  215MOL0     O28272   6.030   3.198   0.875  0.0049 -0.4245  1.0308
  215MOL0     C28273   6.014   3.064   0.863 -0.7944 -0.0339  0.5655
  215MOL0     C28274   6.090   2.979   0.773  0.7826 -0.2496  0.6650
  215MOL0     C28275   6.053   2.843   0.762 -1.4448 -0.0761 -1.6298
  215MOL0     C28276   5.938   2.796   0.829 -0.5300 -0.3044  0.1303
  215MOL0     C28277   5.880   2.667   0.805  0.0572  0.7957  0.1099
  215MOL0     O28278   5.759   2.631   0.865  0.3083 -0.2063  0.6820
  215MOL0     C28279   5.677   2.521   0.850 -0.1041 -0.2951 -1.3351
  215MOL0     C28280   5.537   2.528   0.885 -0.7074  0.9410  1.1048
  215MOL0     C28281   5.449   2.419   0.859  0.5824 -0.2465  1.2663
  215MOL0     C28282   5.495   2.303   0.800 -0.0383 -0.7736  0.2499
  215MOL0     O28283   5.422   2.196   0.772 -0.4999 -0.1715  0.6248
  215MOL0     C28284   5.313   2.158   0.852  1.7007  1.3256 -0.1270
  215MOL0     C28285   5.278   2.010   0.845 -0.1440  0.6236 -0.8237
  215MOL0     C28286   5.139   1.986   0.918 -1.1469 -0.3166 -0.1637
  215MOL0     C28287   5.108   1.835   0.931 -0.5617 -1.3980  0.3584
  215MOL0     C28288   4.971   1.826   0.985  0.4289  0.2571 -0.3371
  215MOL0     C28289   4.927   1.675   0.998  0.3004  0.7832  1.0015
  215MOL0     C28290   4.986   1.606   1.123 -0.3308 -0.8003 -0.3862
  215MOL0     C28291   4.950   1.463   1.147  0.2468  0.3214  0.3044
  215MOL0    Cl28292   4.995   1.344   1.014  0.0674 -0.0056  0.3368
  215MOL0     C28293   5.633   2.296   0.776 -0.3587  1.2529 -0.6718
  215MOL0     C28294   5.714   2.403   0.794 -0.6982 -0.7654 -0.1053
  215MOL0     O28295   5.949   2.592   0.739 -0.9835  0.3426 -0.3297
  215MOL0     C28296   5.878   2.874   0.927 -0.1752 -0.4108  0.5098
  215MOL0     C28297   5.914   3.007   0.935 -0.7067 -0.6310 -0.4712
  215MOL0     N28298   6.553   3.539   0.634 -0.3337  0.5569 -0.3669
  215MOL0     N28299   6.610   3.633   0.562 -0.5113  0.3801 -0.2728
  215MOL0     C28300   6.673   4.860   0.376  0.3601 -0.9295 -0.3898
  215MOL0     C28301   6.692   4.981   0.435 -0.2670 -0.1847  0.2337
  215MOL0     C28302   6.929   5.357   0.650  0.4606  0.2971  0.1570
  215MOL0     C28303   6.852   5.434   0.564  0.3821  0.0818 -0.5775
  215MOL0     C28304   6.867   5.575   0.560 -0.1770  0.3933  0.1352
  215MOL0     C28305   6.976   5.631   0.635  0.6220  0.7627 -0.0388
  215MOL0     O28306   6.991   5.769   0.637  0.2122 -0.0902 -0.2655
  215MOL0     C28307   6.932   5.848   0.537  0.0497 -0.7675  0.9561
  215MOL0     C28308   7.006   5.982   0.517  0.7303  1.1785 -0.3451
  215MOL0     C28309   7.154   5.988   0.570 -0.3651 -0.2549 -0.3292
  215MOL0     C28310   7.255   5.900   0.478 -0.3076 -0.2382 -0.1807
  215MOL0     C28311   7.254   5.951   0.339 -0.1193 -0.2869 -1.2583
  215MOL0     C28312   7.252   5.998   0.223  1.0032  0.5570 -1.3941
  215MOL0     C28313   7.053   5.544   0.716  0.1505  1.4337 -0.1011
  215MOL0     C28314   7.034   5.407   0.724  0.1399 -1.1183  0.2733
  215MOL0     H28315   6.996   4.939   0.581 -0.0519 -1.1746  0.8220
  215MOL0     H28316   6.962   4.716   0.491  1.8037  0.8544 -1.2592
  215MOL0     H28317   6.655   4.673   0.197 -0.0343  2.4884  1.8828
  215MOL0     H28318   6.560   4.584   0.330 -1.3960 -0.5413 -1.3926
  215MOL0     H28319   6.797   4.488   0.172 -0.5239  1.0568 -2.4153
  215MOL0     H28320   6.644   4.450   0.128 -1.4851  4.1943  0.3641
  215MOL0     H28321   6.636   4.371   0.412  1.1722  1.4969  0.8882
  215MOL0     H28322   6.794   4.328   0.368  2.3995  5.5324 -3.0581
  215MOL0     H28323   6.550   4.249   0.219 -0.7828  1.0823  2.7659
  215MOL0     H28324   6.711   4.212   0.152 -2.2821  1.8444 -2.1558
  215MOL0     H28325   6.761   4.059   0.330  0.7636 -0.1298 -0.8838
  215MOL0     H28326   6.610   4.013   0.261  0.3939  3.0391 -5.8383
  215MOL0     H28327   6.481   4.140   0.429 -2.5189 -4.3544  0.5612
  215MOL0     H28328   6.635   4.177   0.508 -1.5125  1.1380 -1.2927
  215MOL0     H28329   6.672   3.958   0.579  0.1749 -2.4089 -1.9518
  215MOL0     H28330   6.505   3.977   0.622  1.3245  0.8226 -0.5935
  215MOL0     H28331   6.636   3.825   0.404 -0.1455 -2.2181  0.6901
  215MOL0     H28332   6.458   3.861   0.390  1.3380  0.1885 -1.9236
  215MOL0     H28333   6.285   3.705   0.551 -0.3408 -1.7554  1.5994
  215MOL0     H28334   6.325   3.372   0.623  0.8317  1.9471 -2.1564
  215MOL0     H28335   6.202   3.484   0.641 -1.7598 -4.8402 -0.4668
  215MOL0     H28336   6.332   3.550   0.880 -0.1304  0.2017 -0.1920
  215MOL0     H28337   6.393   3.380   0.859  0.3287  0.7091 -0.3202
  215MOL0     H28338   6.219   3.357   1.014  0.4049  0.2964 -0.5810
  215MOL0     H28339   6.129   3.463   0.910  1.4564  0.3966 -3.1669
  215MOL0     H28340   6.239   3.184   0.824  1.1264  0.4144  1.7152
  215MOL0     H28341   6.125   3.280   0.726  2.2735 -0.0656 -0.2995
  215MOL0     H28342   6.155   3.030   0.702 -2.4884 -0.4323 -2.7345
  215MOL0     H28343   6.101   2.782   0.686  0.6905 -2.1909  1.1933
  215MOL0     H28344   5.498   2.619   0.930  0.1131  2.0881 -0.4124
  215MOL0     H28345   5.345   2.434   0.884 -0.0441  1.7673 -1.9541
  215MOL0     H28346   5.225   2.211   0.812 -2.3160 -5.0959 -1.3411
  215MOL0     H28347   5.327   2.178   0.958 -4.6240 -1.6876  1.7945
  215MOL0     H28348   5.351   1.950   0.899  0.6902  1.6750 -0.7318
  215MOL0     H28349   5.277   1.967   0.744 -0.7763  0.1660 -0.6271
  215MOL0     H28350   5.066   2.051   0.870  1.9455  2.2160 -1.7848
  215MOL0     H28351   5.141   2.029   1.019 -2.8762  0.2050 -0.3242
  215MOL0     H28352   5.109   1.795   0.829  0.8641  0.4529 -0.4171
  215MOL0     H28353   5.181   1.775   0.985 -0.9111 -1.5629  0.6515
  215MOL0     H28354   4.913   1.883   0.911  1.0220  1.6228  0.2144
  215MOL0     H28355   4.956   1.867   1.085 -1.7095 -0.0929 -0.4635
  215MOL0     H28356   4.947   1.617   0.907 -0.8284 -1.4899  2.1175
  215MOL0     H28357   4.818   1.668   1.004  0.2703  1.1390  0.8641
  215MOL0     H28358   5.092   1.599   1.097 -0.4971  0.2935 -1.4601
  215MOL0     H28359   4.972   1.669   1.211  1.5968  0.2918 -0.7980
  215MOL0     H28360   4.844   1.457   1.175  0.1054 -2.2141 -0.5284
  215MOL0     H28361   5.005   1.426   1.234  1.7188 -0.4626 -0.9082
  215MOL0     H28362   5.665   2.207   0.725 -3.0610 -0.6625  0.7134
  215MOL0     H28363   5.818   2.392   0.765 -0.8716 -0.6293 -0.8096
  215MOL0     H28364   5.797   2.833   0.986 -1.2811  0.0680 -0.6327
  215MOL0     H28365   5.865   3.063   1.014 -0.1159 -0.3373 -0.3124
  215MOL0     H28366   6.576   4.849   0.328 -1.7188  0.2928  3.1709
  215MOL0     H28367   6.618   5.054   0.404  0.8522  0.0389 -2.1598
  215MOL0     H28368   6.776   5.395   0.497 -1.0678  1.3618  0.2693
  215MOL0     H28369   6.806   5.623   0.484  1.0908 -0.8538 -1.7783
  215MOL0     H28370   6.825   5.856   0.558 -0.0282  3.0472 -0.2411
  215MOL0     H28371   6.945   5.801   0.439 -2.8105  0.9572 -0.3739
  215MOL0     H28372   6.998   5.995   0.408 -1.2920  0.7991 -0.2758
  215MOL0     H28373   6.953   6.060   0.571 -0.4633 -0.8071  1.4832
  215MOL0     H28374   7.147   5.958   0.675 -1.3729  1.3372  0.1001
  215MOL0     H28375   7.195   6.089   0.571  2.5584 -1.1494 -4.1996
  215MOL0     H28376   7.353   5.917   0.523 -1.8054  4.8957  1.7660
  215MOL0     H28377   7.234   5.793   0.480 -2.2508  0.0465 -1.9112
  215MOL0     H28378   7.247   6.032   0.121 -2.7688 -3.8348 -3.0764
  215MOL0     H28379   7.128   5.598   0.772  1.2858 -1.0989  0.9523
  215MOL0     H28380   7.103   5.341   0.777  2.4872 -4.1974 -5.6718
  216MOL0     O28381  10.751   1.778   4.640 -0.4389  0.3556 -0.4415
  216MOL0     C28382  10.758   1.739   4.520 -0.2252  0.1630 -1.8204
  216MOL0     O28383  10.815   1.614   4.479 -0.7056  0.3015 -0.7334
  216MOL0     C28384  10.850   1.512   4.571  0.8758 -0.6011  0.9014
  216MOL0     C28385  10.846   1.384   4.515 -0.5250 -0.6104  0.3525
  216MOL0     C28386  10.891   1.266   4.595 -0.6169 -0.1741  1.3019
  216MOL0     C28387  10.911   1.281   4.733  0.2354 -0.3587  0.4132
  216MOL0     O28388  10.944   1.181   4.825 -0.2561 -0.7354 -0.2646
  216MOL0     C28389  10.894   1.048   4.788 -0.0188 -0.8199 -0.4480
  216MOL0     C28390  10.937   0.952   4.896 -0.1613  0.3937 -0.7715
  216MOL0     C28391  11.095   0.952   4.925  0.2904 -0.3122 -0.8078
  216MOL0     C28392  11.154   0.870   5.034  0.7921  0.4295 -0.1327
  216MOL0     C28393  11.165   0.727   4.979 -0.0744  0.8793  0.7825
  216MOL0     C28394  11.200   0.625   5.089  0.2277 -0.1537 -0.8986
  216MOL0     C28395  11.178   0.478   5.052 -1.1200 -0.1121 -0.4422
  216MOL0     C28396  11.231   0.390   5.168 -0.1313 -0.2802 -0.5402
  216MOL0     N28397  11.253   0.254   5.116 -0.4366 -0.6673 -0.2938
  216MOL0     C28398  11.367   0.185   5.136 -0.0406  0.1386  0.6765
  216MOL0     C28399  11.355   0.071   5.055 -1.1992  0.5191  0.1095
  216MOL0     C28400  11.489  -0.009   5.035  0.2398 -1.3326  0.4693
  216MOL0     C28401  11.482  -0.164   5.045 -0.0505  0.0600 -0.0511
  216MOL0     C28402  11.545  -0.205   5.178  0.6169 -0.0914 -0.3895
  216MOL0     C28403  11.501  -0.349   5.221  0.1390 -0.3003  0.2519
  216MOL0     O28404  11.490  -0.438   5.104  0.6336  0.2860  0.1646
  216MOL0     C28405  11.601  -0.477   5.037 -0.2476 -0.1005  0.5935
  216MOL0     C28406  11.580  -0.512   4.904  0.3085  0.7495 -0.9920
  216MOL0     C28407  11.684  -0.573   4.829  0.4279 -0.2111  0.7612
  216MOL0     C28408  11.813  -0.586   4.889 -0.3866  0.4582  0.2011
  216MOL0     C28409  11.921  -0.652   4.819  0.7260  0.0767  0.6008
  216MOL0     O28410  12.022  -0.721   4.887  0.5603 -0.2735  0.0300
  216MOL0     C28411  12.131  -0.753   4.818 -1.6342 -0.2416 -0.5031
  216MOL0     C28412  12.214  -0.664   4.739  0.0246 -1.2061 -0.6088
  216MOL0     C28413  12.333  -0.710   4.680  0.4543  1.3758  0.9591
  216MOL0     C28414  12.367  -0.840   4.690  0.0940  0.5403 -0.3728
  216MOL0     O28415  12.482  -0.878   4.617  0.3687  0.1758  0.0414
  216MOL0     C28416  12.538  -1.010   4.638 -0.3537 -0.8032 -0.2488
  216MOL0     C28417  12.682  -0.997   4.594  0.0569 -0.3006 -0.0306
  216MOL0     C28418  12.754  -1.125   4.560  0.5150 -0.5423 -0.8031
  216MOL0     C28419  12.902  -1.094   4.527 -0.2071 -0.5475  1.2532
  216MOL0     C28420  12.978  -1.203   4.442  1.1119 -0.0871  0.2828
  216MOL0     C28421  13.132  -1.208   4.466  0.6140 -0.3914 -0.1621
  216MOL0     C28422  13.166  -1.263   4.607 -0.2894 -0.3663  0.3463
  216MOL0     C28423  13.306  -1.279   4.658 -0.5238  0.1742  0.4780
  216MOL0    Cl28424  13.378  -1.121   4.660  0.2414  0.4361 -0.3256
  216MOL0     C28425  12.283  -0.934   4.758  0.4743  0.1670  0.8580
  216MOL0     C28426  12.176  -0.888   4.824  0.5558  0.5110 -0.4928
  216MOL0     O28427  11.915  -0.635   4.695 -0.3696  0.2331  0.1015
  216MOL0     C28428  11.831  -0.555   5.023  0.0362 -0.1779  0.3631
  216MOL0     C28429  11.725  -0.501   5.094  0.5391 -0.2386 -0.3665
  216MOL0     N28430  11.236   0.084   4.982 -0.9413  0.6950  0.3616
  216MOL0     N28431  11.170   0.183   5.034 -0.2050  0.1161  0.0605
  216MOL0     C28432  10.895   1.411   4.784  0.9156  0.3593 -0.6701
  216MOL0     C28433  10.860   1.527   4.713 -0.2545  0.7079 -0.0475
  216MOL0     C28434  10.689   1.824   4.420  0.0216  0.5543  0.1009
  216MOL0     C28435  10.713   1.797   4.286 -0.4076  0.1364  0.0942
  216MOL0     C28436  10.643   1.870   4.186 -0.6126  0.5855 -0.2275
  216MOL0     C28437  10.539   1.949   4.229  0.9466 -0.5738  0.0574
  216MOL0     O28438  10.468   2.017   4.136 -1.0322 -0.4547 -0.0668
  216MOL0     C28439  10.538   2.134   4.094  0.0650 -0.4286  0.3879
  216MOL0     C28440  10.526   2.244   4.197 -0.1482  0.6922 -0.1667
  216MOL0     C28441  10.547   2.387   4.152 -0.2922  0.2622 -0.5271
  216MOL0     C28442  10.410   2.458   4.120  1.0197 -0.4245 -0.3712
  216MOL0     C28443  10.319   2.497   4.230 -0.2761  0.3161  0.5114
  216MOL0     C28444  10.267   2.520   4.334 -0.1437  0.2784  0.2239
  216MOL0     C28445  10.516   1.981   4.363  0.3439 -0.3253  0.0311
  216MOL0     C28446  10.599   1.925   4.455  0.0882 -0.2933 -0.2912
  216MOL0     H28447  10.839   1.382   4.407  3.6940  4.1204 -0.3644
  216MOL0     H28448  10.896   1.169   4.546 -1.9043  1.8102 -3.4039
  216MOL0     H28449  10.943   1.006   4.700  1.0511  1.1670 -0.8613
  216MOL0     H28450  10.786   1.052   4.766 -0.0400 -0.3032 -0.2505
  216MOL0     H28451  10.898   0.855   4.864  0.1992  0.7289 -2.3316
  216MOL0     H28452  10.884   0.978   4.988 -0.2024  2.7514 -1.3949
  216MOL0     H28453  11.114   1.058   4.944 -0.0422 -0.5483  1.0014
  216MOL0     H28454  11.150   0.930   4.833 -1.5333  1.6286 -2.4648
  216MOL0     H28455  11.252   0.907   5.065  0.9667  0.3029 -0.5213
  216MOL0     H28456  11.098   0.872   5.128 -0.2557 -2.0604 -0.6150
  216MOL0     H28457  11.254   0.725   4.915 -0.2898 -1.7150  0.4640
  216MOL0     H28458  11.076   0.691   4.928 -0.6345  1.2834  1.4589
  216MOL0     H28459  11.146   0.651   5.181  1.4816  1.7216 -0.6330
  216MOL0     H28460  11.303   0.641   5.121 -0.9014 -0.2310  3.4546
  216MOL0     H28461  11.072   0.456   5.036 -1.2585 -1.7643  2.1774
  216MOL0     H28462  11.223   0.435   4.962  2.1165 -4.3663  2.7864
  216MOL0     H28463  11.150   0.386   5.241  1.8700 -1.2216  1.7940
  216MOL0     H28464  11.319   0.434   5.215 -1.0239  0.2005  0.7263
  216MOL0     H28465  11.454   0.217   5.191  0.6154  0.4855 -0.5272
  216MOL0     H28466  11.577   0.022   5.092  1.0492 -0.3135 -1.2451
  216MOL0     H28467  11.519   0.002   4.930 -2.8379  0.6052 -0.3557
  216MOL0     H28468  11.533  -0.209   4.959 -0.3471 -2.1860  0.8846
  216MOL0     H28469  11.377  -0.193   5.037  0.0827 -0.7954  1.1149
  216MOL0     H28470  11.649  -0.205   5.145 -0.2508  1.5568 -3.5008
  216MOL0     H28471  11.518  -0.139   5.261 -0.7013 -1.1009  0.0275
  216MOL0     H28472  11.407  -0.346   5.276 -1.8564 -0.9033 -2.8602
  216MOL0     H28473  11.579  -0.369   5.295 -0.0705  0.4408  0.6810
  216MOL0     H28474  11.478  -0.499   4.868 -1.2244 -2.6765  1.4873
  216MOL0     H28475  11.661  -0.615   4.732  0.6282  0.1833  0.5412
  216MOL0     H28476  12.197  -0.558   4.722 -0.0333 -1.0293  0.5272
  216MOL0     H28477  12.401  -0.641   4.630  1.5548 -0.1387  0.2683
  216MOL0     H28478  12.491  -1.089   4.578 -0.2130 -2.7039  2.0226
  216MOL0     H28479  12.526  -1.049   4.739 -3.3856 -1.0869 -0.6258
  216MOL0     H28480  12.734  -0.933   4.665 -3.3217  0.1411  2.2820
  216MOL0     H28481  12.682  -0.942   4.499  0.0280 -0.1428  0.0608
  216MOL0     H28482  12.710  -1.158   4.465  3.2138  0.6456 -2.5712
  216MOL0     H28483  12.754  -1.199   4.640 -1.7019 -0.5894 -0.7663
  216MOL0     H28484  12.907  -0.989   4.495  0.1882 -0.3899  1.8014
  216MOL0     H28485  12.966  -1.077   4.615 -0.9444  0.0973  1.6758
  216MOL0     H28486  12.946  -1.182   4.340  0.2299  1.7739  0.8944
  216MOL0     H28487  12.933  -1.298   4.473 -0.4058  1.1815  2.2333
  216MOL0     H28488  13.159  -1.102   4.455 -0.4357 -0.3998 -4.4209
  216MOL0     H28489  13.192  -1.260   4.391  1.6887 -0.1090  0.4721
  216MOL0     H28490  13.110  -1.199   4.676 -1.7826 -1.5266  0.2549
  216MOL0     H28491  13.135  -1.368   4.612  1.0910 -1.2001 -4.2135
  216MOL0     H28492  13.364  -1.343   4.591  1.8918  0.7114  1.8962
  216MOL0     H28493  13.302  -1.331   4.754 -1.0155 -1.8125 -0.5691
  216MOL0     H28494  12.310  -1.039   4.757  0.3596  0.0995 -2.0219
  216MOL0     H28495  12.123  -0.966   4.878 -1.1265  1.4074 -0.7783
  216MOL0     H28496  11.930  -0.557   5.068 -0.3435  1.3517  1.3604
  216MOL0     H28497  11.761  -0.476   5.193  1.9323  0.9750 -1.1406
  216MOL0     H28498  10.903   1.423   4.892 -0.1466  0.0488 -0.5425
  216MOL0     H28499  10.848   1.615   4.775 -3.0752  0.9226 -0.7652
  216MOL0     H28500  10.782   1.718   4.260 -0.0108  0.0237  1.4035
  216MOL0     H28501  10.669   1.855   4.082 -0.2724  1.7974 -0.3313
  216MOL0     H28502  10.479   2.175   4.011  0.6126  0.0523  0.2332
  216MOL0     H28503  10.640   2.119   4.060  0.5320  2.5225  0.2195
  216MOL0     H28504  10.430   2.235   4.249  0.2784 -0.0872  0.5208
  216MOL0     H28505  10.608   2.226   4.266  1.6238  1.9603 -1.8509
  216MOL0     H28506  10.618   2.393   4.069  3.2165 -2.2966  2.0047
  216MOL0     H28507  10.600   2.440   4.231  1.3600  0.6537 -1.8381
  216MOL0     H28508  10.429   2.553   4.070  0.0017  1.3259  2.3164
  216MOL0     H28509  10.357   2.393   4.050  0.9672 -0.8838  0.0839
  216MOL0     H28510  10.222   2.551   4.426  2.2449  0.2781  1.4597
  216MOL0     H28511  10.438   2.045   4.401  1.8622  0.7114  1.5550
  216MOL0     H28512  10.570   1.934   4.559  2.6231 -1.5916  0.6112
  217MOL0     O28513   0.910  10.542   5.484 -0.1557  0.4832  0.2716
  217MOL0     C28514   0.846  10.470   5.403  1.1176 -0.0193  0.0005
  217MOL0     O28515   0.833  10.494   5.270 -0.6054 -0.7586 -0.5101
  217MOL0     C28516   0.898  10.601   5.220  0.0554 -0.3920  0.2950
  217MOL0     C28517   1.033  10.635   5.243  0.4649  1.1837  0.0480
  217MOL0     C28518   1.068  10.749   5.191 -0.5118  0.4765  0.7421
  217MOL0     C28519   0.990  10.842   5.109  0.3685 -0.7248 -0.4583
  217MOL0     O28520   1.028  10.961   5.058  0.0459  0.0179 -0.2144
  217MOL0     C28521   1.166  10.968   5.013 -0.1194  0.2423 -0.4056
  217MOL0     C28522   1.185  11.101   4.944 -0.5865 -0.5572  0.1693
  217MOL0     C28523   1.077  11.119   4.835 -0.4248  0.2849 -0.0614
  217MOL0     C28524   1.124  11.220   4.723  0.4383 -0.5993 -0.6055
  217MOL0     C28525   1.236  11.178   4.635 -0.5849  0.5561  0.2690
  217MOL0     C28526   1.253  11.023   4.596  0.2441 -0.4100 -0.5020
  217MOL0     C28527   1.380  11.013   4.526 -1.0107 -0.2801  0.1905
  217MOL0     C28528   1.410  10.861   4.508  0.1253 -1.0637  1.0105
  217MOL0     N28529   1.552  10.837   4.469 -0.4604 -0.4916 -1.4290
  217MOL0     C28530   1.626  10.903   4.376  0.5541  1.4069 -0.1339
  217MOL0     C28531   1.744  10.857   4.392 -0.9638 -0.0560  0.4331
  217MOL0     C28532   1.869  10.889   4.302  0.3572 -0.0110 -1.6764
  217MOL0     C28533   1.834  10.882   4.158  0.4491  0.0312  0.4923
  217MOL0     C28534   1.957  10.891   4.058 -0.0985  0.8525 -0.1691
  217MOL0     C28535   2.074  10.799   4.078  1.0333  0.4371 -0.1083
  217MOL0     O28536   2.013  10.665   4.073 -0.0878 -0.0651  1.0798
  217MOL0     C28537   2.045  10.594   3.963  0.4138 -0.5687  0.2486
  217MOL0     C28538   1.949  10.537   3.885  0.5188 -0.4636  0.2884
  217MOL0     C28539   1.959  10.441   3.783  0.1946 -0.3008  0.1245
  217MOL0     C28540   2.087  10.404   3.748 -0.6123 -0.0754  0.2786
  217MOL0     C28541   2.114  10.301   3.643  0.6291 -0.2700  0.2304
  217MOL0     O28542   2.238  10.273   3.607 -0.4256  0.1595  0.9103
  217MOL0     C28543   2.258  10.213   3.486  0.1095 -0.2350 -1.0181
  217MOL0     C28544   2.273  10.075   3.485 -0.1376  0.3894  0.3271
  217MOL0     C28545   2.291   9.995   3.374 -0.4217  0.4398  1.5486
  217MOL0     C28546   2.316  10.066   3.253 -0.0827  0.0032  0.8943
  217MOL0     O28547   2.327   9.996   3.133 -0.0909  0.4141 -0.2536
  217MOL0     C28548   2.456   9.935   3.145 -0.0758 -0.0363  0.6215
  217MOL0     C28549   2.569  10.050   3.120 -0.5740 -0.2023 -0.1966
  217MOL0     C28550   2.581  10.090   2.969 -0.6633 -0.7313 -0.0651
  217MOL0     C28551   2.679  10.206   2.945  0.1044 -0.2581 -0.0103
  217MOL0     C28552   2.824  10.177   2.983 -0.6637  0.7188 -0.1483
  217MOL0     C28553   2.919  10.208   2.867  0.8483 -0.1402  0.3649
  217MOL0     C28554   3.047  10.264   2.919  0.1849 -0.4712 -0.1637
  217MOL0     C28555   3.140  10.292   2.810 -1.0381  0.2466  0.3198
  217MOL0    Cl28556   3.209  10.133   2.743  0.5206  0.0093  0.2033
  217MOL0     C28557   2.322  10.206   3.256  0.2339 -0.0643 -0.0348
  217MOL0     C28558   2.302  10.279   3.380 -0.0160  0.6559 -0.2106
  217MOL0     O28559   2.011  10.256   3.589 -0.2310  0.1459  0.7355
  217MOL0     C28560   2.193  10.461   3.821  0.6326 -0.5150  0.6071
  217MOL0     C28561   2.176  10.553   3.926 -0.2212  0.5676  0.3073
  217MOL0     N28562   1.743  10.741   4.474 -0.2249 -0.8112 -0.0138
  217MOL0     N28563   1.632  10.745   4.527  0.7809  0.0460 -1.1224
  217MOL0     C28564   0.861  10.806   5.087  0.4080  0.0603 -0.0499
  217MOL0     C28565   0.820  10.685   5.135  0.4872  0.9176 -0.8102
  217MOL0     C28566   0.753  10.372   5.460 -0.3999 -0.2685 -0.1488
  217MOL0     C28567   0.715  10.373   5.593 -1.1628  0.1225  0.0799
  217MOL0     C28568   0.634  10.277   5.654 -0.0676  0.2390  0.0431
  217MOL0     C28569   0.588  10.177   5.583 -0.4653  0.3659  0.1715
  217MOL0     O28570   0.504  10.081   5.630 -0.0978  0.3103 -1.0341
  217MOL0     C28571   0.486  10.049   5.774 -0.2930  1.9603  0.0717
  217MOL0     C28572   0.342  10.001   5.803  0.5613  0.7217  0.1205
  217MOL0     C28573   0.305   9.900   5.694  0.0631  0.3463 -0.2261
  217MOL0     C28574   0.153   9.868   5.714  0.8297  0.3409  0.5796
  217MOL0     C28575   0.106   9.757   5.621  0.2251  0.0183  0.6356
  217MOL0     C28576   0.048   9.679   5.543  0.2569 -0.6238  0.4779
  217MOL0     C28577   0.619  10.169   5.449  0.5929 -0.3958  0.3080
  217MOL0     C28578   0.699  10.270   5.381 -0.5834 -0.2639 -0.0680
  217MOL0     H28579   1.087  10.577   5.317 -0.9074 -0.1646  0.0661
  217MOL0     H28580   1.164  10.788   5.221 -0.5212 -0.7009  2.4157
  217MOL0     H28581   1.192  10.897   4.934  1.8846 -1.0156  1.2851
  217MOL0     H28582   1.225  10.961   5.104  0.4056  0.7651 -0.6957
  217MOL0     H28583   1.285  11.100   4.900 -0.4095  1.1232  0.4696
  217MOL0     H28584   1.179  11.179   5.020 -0.5805  2.4575 -2.7108
  217MOL0     H28585   0.987  11.157   4.884 -0.0048 -0.4154  1.3016
  217MOL0     H28586   1.052  11.027   4.782 -2.3794  0.4966  0.4134
  217MOL0     H28587   1.034  11.234   4.662 -0.1856  1.7633  0.7465
  217MOL0     H28588   1.164  11.314   4.763 -1.2815  0.6486 -1.6694
  217MOL0     H28589   1.331  11.198   4.685 -0.3844  0.6751 -0.1497
  217MOL0     H28590   1.251  11.229   4.539 -1.1307 -2.8726 -1.8230
  217MOL0     H28591   1.169  10.996   4.530  0.7538  0.9765 -1.7648
  217MOL0     H28592   1.248  10.958   4.684 -0.3622  0.2316 -0.0485
  217MOL0     H28593   1.382  11.056   4.425  2.7727 -1.7360 -0.5596
  217MOL0     H28594   1.456  11.069   4.581 -2.0897  2.1436 -0.6649
  217MOL0     H28595   1.349  10.812   4.431 -0.3273  1.0817 -0.0751
  217MOL0     H28596   1.393  10.812   4.604  1.0491 -0.8462  1.2979
  217MOL0     H28597   1.586  10.971   4.302  2.4137  1.8413 -0.7944
  217MOL0     H28598   1.943  10.814   4.333  0.1236  1.2152  2.4391
  217MOL0     H28599   1.892  10.991   4.333 -3.0615  0.1340  1.1040
  217MOL0     H28600   1.773  10.966   4.125 -1.2562 -1.3340 -0.0106
  217MOL0     H28601   1.766  10.797   4.142 -0.3114 -0.1764  4.0482
  217MOL0     H28602   1.931  10.879   3.953  1.2330 -1.4524 -0.2996
  217MOL0     H28603   1.990  10.995   4.061  0.2910  0.7285  2.6188
  217MOL0     H28604   2.112  10.819   4.179  1.8541  3.6284 -0.9175
  217MOL0     H28605   2.148  10.818   4.000  1.7944  4.6346  1.3897
  217MOL0     H28606   1.846  10.566   3.904 -0.4049 -2.1218 -1.7648
  217MOL0     H28607   1.873  10.396   3.735  0.3917 -2.3800  1.5902
  217MOL0     H28608   2.256  10.037   3.586 -1.4406  2.4736  0.9661
  217MOL0     H28609   2.297   9.887   3.361  4.1914  0.3959  2.3012
  217MOL0     H28610   2.453   9.864   3.062  1.1151  0.4217  0.1736
  217MOL0     H28611   2.475   9.879   3.237  1.3082 -0.1108  0.2996
  217MOL0     H28612   2.664  10.004   3.150 -1.5353 -1.4353  1.1155
  217MOL0     H28613   2.571  10.135   3.189  2.4173 -0.4026  0.0891
  217MOL0     H28614   2.478  10.121   2.951 -0.9333 -1.3406  0.3960
  217MOL0     H28615   2.607  10.005   2.905  0.7738  0.7158 -1.4930
  217MOL0     H28616   2.674  10.244   2.842 -2.0065  2.1781  0.8895
  217MOL0     H28617   2.638  10.295   2.993  0.3887 -0.0946 -0.0656
  217MOL0     H28618   2.841  10.071   3.004  2.4602 -0.1759 -5.3705
  217MOL0     H28619   2.855  10.241   3.067  2.3711 -1.6062  0.6806
  217MOL0     H28620   2.869  10.291   2.816 -2.9598 -0.8888  2.5370
  217MOL0     H28621   2.936  10.128   2.794  2.5877  2.1934 -2.0167
  217MOL0     H28622   3.036  10.362   2.969  2.8474  2.0879 -4.0616
  217MOL0     H28623   3.105  10.203   2.988  1.1706 -2.9037 -2.9529
  217MOL0     H28624   3.227  10.349   2.845 -0.0609 -1.3880  0.6293
  217MOL0     H28625   3.091  10.352   2.733 -2.4056 -0.9041  0.2510
  217MOL0     H28626   2.360  10.265   3.173  1.6000  0.0723  0.6799
  217MOL0     H28627   2.296  10.387   3.382 -4.9240  0.6968  4.3852
  217MOL0     H28628   2.297  10.434   3.814  0.4459 -0.7858 -3.2033
  217MOL0     H28629   2.257  10.586   3.990  1.7685 -2.0975 -0.5953
  217MOL0     H28630   0.803  10.887   5.042  1.5639  2.5612  2.6249
  217MOL0     H28631   0.718  10.655   5.115  0.3433  2.2463 -2.3017
  217MOL0     H28632   0.769  10.448   5.650 -0.8895  1.1576 -1.4998
  217MOL0     H28633   0.611  10.290   5.760 -1.0729 -0.4123 -0.0736
  217MOL0     H28634   0.505  10.134   5.841 -0.9590  2.4692 -0.3796
  217MOL0     H28635   0.555   9.970   5.806  1.0909  2.1621 -2.2284
  217MOL0     H28636   0.342   9.951   5.900  0.8260 -0.0648 -0.2799
  217MOL0     H28637   0.270  10.083   5.817 -1.8151 -0.5877 -3.2209
  217MOL0     H28638   0.370   9.817   5.723  0.8761  1.0041 -0.1427
  217MOL0     H28639   0.328   9.940   5.594  0.6179 -0.1468 -0.3027
  217MOL0     H28640   0.136   9.836   5.817  1.6073  1.2103  0.9885
  217MOL0     H28641   0.097   9.959   5.689  0.3605 -0.4373 -1.3925
  217MOL0     H28642   0.008   9.607   5.474  0.5456  0.6744 -1.1269
  217MOL0     H28643   0.570  10.090   5.394 -4.2240  3.5568 -1.8852
  217MOL0     H28644   0.725  10.244   5.279 -0.2967  1.2962 -0.4131
  218MOL0     O28645   2.778   2.017   2.893  0.1425 -0.0824 -0.8732
  218MOL0     C28646   2.668   2.067   2.914 -0.8469 -0.5558 -0.1929
  218MOL0     O28647   2.639   2.194   2.870  0.3170 -0.1379  0.9145
  218MOL0     C28648   2.719   2.271   2.797  0.1993  0.2958  0.4608
  218MOL0     C28649   2.861   2.280   2.797  0.8101  0.3258 -0.6215
  218MOL0     C28650   2.930   2.375   2.723  0.8611  0.0731  0.2192
  218MOL0     C28651   2.862   2.469   2.645  0.3042 -0.4560  0.8208
  218MOL0     O28652   2.940   2.561   2.585 -0.5000  0.2083  0.0004
  218MOL0     C28653   2.987   2.663   2.677  1.6151  0.5250  0.5705
  218MOL0     C28654   2.954   2.805   2.630  0.2850  0.2907 -1.3132
  218MOL0     C28655   2.810   2.836   2.641 -0.5228 -0.1597  0.6272
  218MOL0     C28656   2.774   2.963   2.555 -1.3817  0.0880 -0.8743
  218MOL0     C28657   2.636   3.025   2.591  0.0550  0.1696 -1.0218
  218MOL0     C28658   2.526   2.968   2.504  0.5429  0.0003 -0.4046
  218MOL0     C28659   2.383   3.019   2.541 -0.0052 -0.8222  0.4386
  218MOL0     C28660   2.280   2.956   2.454  0.1272  0.2172  0.2060
  218MOL0     N28661   2.150   3.020   2.493 -0.4903 -0.4192 -0.7259
  218MOL0     C28662   2.097   3.132   2.432  0.5537  0.7178  0.7539
  218MOL0     C28663   1.964   3.128   2.455 -0.0670 -0.5380 -0.2109
  218MOL0     C28664   1.859   3.212   2.381 -0.4737 -0.3176 -1.4024
  218MOL0     C28665   1.813   3.318   2.487 -1.0770 -0.6492 -0.8399
  218MOL0     C28666   1.703   3.388   2.420 -0.1471 -0.7794 -0.5319
  218MOL0     C28667   1.635   3.485   2.515  0.7861  0.1144  0.6429
  218MOL0     O28668   1.729   3.570   2.566 -0.3099  0.2741 -0.4487
  218MOL0     C28669   1.698   3.678   2.646 -0.1429  0.2429  0.5881
  218MOL0     C28670   1.797   3.777   2.677 -0.5063 -0.8702 -0.1223
  218MOL0     C28671   1.768   3.882   2.765  0.3925 -0.5622 -0.0417
  218MOL0     C28672   1.637   3.904   2.808 -0.2625  1.2291  1.4809
  218MOL0     C28673   1.600   4.016   2.894 -0.6466 -0.0063  1.1815
  218MOL0     O28674   1.469   4.034   2.923  0.3306 -0.2964 -0.0134
  218MOL0     C28675   1.414   4.137   2.997  0.6736 -0.3386 -0.3268
  218MOL0     C28676   1.287   4.126   3.050  0.5092  0.5683  0.1410
  218MOL0     C28677   1.232   4.241   3.108  0.2694 -0.2335 -0.4098
  218MOL0     C28678   1.295   4.366   3.131  0.1196  0.6282  0.0201
  218MOL0     O28679   1.252   4.473   3.202  0.2852 -0.0447  0.6297
  218MOL0     C28680   1.120   4.469   3.249 -0.1568  0.0218 -0.4702
  218MOL0     C28681   1.021   4.530   3.133  0.3678 -0.5107 -1.2624
  218MOL0     C28682   0.866   4.507   3.160 -0.1331 -0.6293 -0.0820
  218MOL0     C28683   0.792   4.581   3.058  0.5522 -0.0818 -0.5738
  218MOL0     C28684   0.685   4.496   2.994 -0.0004  0.1420 -0.0886
  218MOL0     C28685   0.606   4.573   2.890 -0.4432  0.3349 -1.1803
  218MOL0     C28686   0.490   4.493   2.830  0.1864 -0.2788 -0.4010
  218MOL0     C28687   0.418   4.558   2.711  0.3595  0.8084 -0.0734
  218MOL0    Cl28688   0.273   4.443   2.685  0.7132 -0.5349 -0.2748
  218MOL0     C28689   1.422   4.375   3.066  0.3340 -0.4833 -0.7942
  218MOL0     C28690   1.471   4.265   2.995  0.1012 -0.5979  0.1949
  218MOL0     O28691   1.694   4.086   2.924 -0.4654  0.3338 -0.5562
  218MOL0     C28692   1.534   3.821   2.753  0.5003 -0.0389 -0.8298
  218MOL0     C28693   1.566   3.705   2.686 -0.2283 -0.2036  0.3741
  218MOL0     N28694   1.941   3.013   2.539 -0.5539  0.0164 -0.1111
  218MOL0     N28695   2.057   2.954   2.569  0.8818 -0.3370  0.2786
  218MOL0     C28696   2.720   2.461   2.642 -0.7469 -0.6845 -0.4648
  218MOL0     C28697   2.649   2.363   2.719 -0.4479 -0.8793  0.3233
  218MOL0     C28698   2.563   1.996   2.991 -0.7875  0.3497  0.4682
  218MOL0     C28699   2.587   1.854   3.008 -0.1740 -0.1291  0.3146
  218MOL0     C28700   2.481   1.770   3.054 -1.0416 -0.4107  0.4225
  218MOL0     C28701   2.366   1.825   3.103 -1.3756 -0.4701 -0.4765
  218MOL0     O28702   2.260   1.774   3.158 -0.0578  0.7279 -0.3911
  218MOL0     C28703   2.219   1.634   3.132 -0.0744 -0.1601  0.9355
  218MOL0     C28704   2.147   1.579   3.243 -0.1328  0.2145  0.5123
  218MOL0     C28705   2.140   1.433   3.251 -0.2080  0.0021  0.0762
  218MOL0     C28706   2.012   1.379   3.322 -0.0217 -1.2377 -0.4299
  218MOL0     C28707   2.008   1.233   3.313 -0.1594 -0.1167  0.1381
  218MOL0     C28708   1.991   1.110   3.299  1.0975 -1.0617  0.6685
  218MOL0     C28709   2.351   1.966   3.104  0.0944 -0.0137  0.3168
  218MOL0     C28710   2.447   2.055   3.037  1.1071  0.4492  0.2794
  218MOL0     H28711   2.928   2.220   2.858  0.3675  0.4592 -0.0057
  218MOL0     H28712   3.036   2.355   2.737  0.6902  0.8147  3.3029
  218MOL0     H28713   3.095   2.650   2.677  1.5428 -1.0990 -2.5082
  218MOL0     H28714   2.939   2.640   2.773  0.7383  1.0441  0.2709
  218MOL0     H28715   2.969   2.810   2.522 -2.7510  0.3929 -1.8182
  218MOL0     H28716   3.020   2.880   2.675 -1.9587  3.5775 -3.0793
  218MOL0     H28717   2.793   2.864   2.746  1.9137 -0.2319  1.1054
  218MOL0     H28718   2.748   2.751   2.612  0.4785 -0.0102 -2.1842
  218MOL0     H28719   2.864   3.026   2.551 -1.7158  0.5422 -1.4239
  218MOL0     H28720   2.775   2.944   2.447  0.4858 -0.9434 -0.7284
  218MOL0     H28721   2.639   3.134   2.590 -3.6292  0.4085 -1.8999
  218MOL0     H28722   2.612   2.993   2.693  0.0119 -1.1477 -1.4214
  218MOL0     H28723   2.513   2.860   2.516 -2.1661  0.1110 -1.4888
  218MOL0     H28724   2.556   2.990   2.401 -2.1597  1.2920 -1.0020
  218MOL0     H28725   2.370   2.989   2.645 -2.3752  1.2044  0.8278
  218MOL0     H28726   2.389   3.128   2.527 -0.6241 -0.9443 -0.9474
  218MOL0     H28727   2.272   2.848   2.465  0.0981 -0.0702 -2.1266
  218MOL0     H28728   2.293   2.985   2.349  1.0314 -3.3745 -0.8076
  218MOL0     H28729   2.139   3.206   2.366 -2.2973 -1.7473 -4.4596
  218MOL0     H28730   1.786   3.137   2.348  0.1713 -1.9980  0.7788
  218MOL0     H28731   1.916   3.260   2.300  1.8739  1.2737  1.0338
  218MOL0     H28732   1.886   3.394   2.516 -1.5160 -0.1248 -1.0835
  218MOL0     H28733   1.784   3.266   2.579  1.4588 -0.1860  0.3094
  218MOL0     H28734   1.749   3.446   2.339  3.3847  0.0617  1.8232
  218MOL0     H28735   1.619   3.331   2.380  0.6401 -2.5919  0.2743
  218MOL0     H28736   1.590   3.435   2.601 -1.1601  0.1731 -0.2933
  218MOL0     H28737   1.557   3.541   2.462  0.2344 -0.5866  0.6955
  218MOL0     H28738   1.898   3.752   2.648 -1.6968 -2.3324 -3.4627
  218MOL0     H28739   1.849   3.945   2.801  0.0176  0.8050 -1.4824
  218MOL0     H28740   1.225   4.038   3.056 -0.1842  1.1257  3.8273
  218MOL0     H28741   1.131   4.217   3.141  0.5996 -0.4999  0.4381
  218MOL0     H28742   1.133   4.527   3.341 -1.1679 -1.6822  0.8022
  218MOL0     H28743   1.090   4.367   3.272 -2.9851  0.1551 -2.9450
  218MOL0     H28744   1.047   4.480   3.039  0.2684 -2.5049 -0.2796
  218MOL0     H28745   1.031   4.639   3.125  0.1055 -0.0784  2.5647
  218MOL0     H28746   0.850   4.554   3.257  0.5102  2.3973 -1.3368
  218MOL0     H28747   0.835   4.402   3.158 -0.4226 -0.5397 -0.7831
  218MOL0     H28748   0.746   4.671   3.099 -0.5031  0.1686 -2.2131
  218MOL0     H28749   0.858   4.613   2.977 -1.3765  0.3661 -2.0346
  218MOL0     H28750   0.619   4.453   3.069  0.7489  1.3895  1.3334
  218MOL0     H28751   0.721   4.405   2.946 -1.0448 -0.8156  0.8910
  218MOL0     H28752   0.678   4.591   2.809  0.0932  4.4772 -0.0220
  218MOL0     H28753   0.571   4.664   2.939  2.6132  0.9280  0.1193
  218MOL0     H28754   0.511   4.392   2.794 -2.5156 -0.3558 -2.0374
  218MOL0     H28755   0.419   4.481   2.913  0.4531 -0.1696 -0.1537
  218MOL0     H28756   0.487   4.567   2.627  2.1240 -2.6062  0.7858
  218MOL0     H28757   0.383   4.656   2.743 -1.1433  0.8975 -1.8854
  218MOL0     H28758   1.482   4.465   3.075 -0.1511 -0.1934 -0.4365
  218MOL0     H28759   1.569   4.284   2.953 -0.7421  0.9976 -1.1699
  218MOL0     H28760   1.429   3.846   2.765  0.6023  1.5035 -2.6435
  218MOL0     H28761   1.484   3.636   2.667  0.2403 -1.2081  1.8175
  218MOL0     H28762   2.661   2.522   2.575 -0.7618 -0.4747 -0.2606
  218MOL0     H28763   2.542   2.363   2.734 -0.5956  1.9800 -0.0346
  218MOL0     H28764   2.671   1.806   2.959 -1.6991 -3.7301  0.9209
  218MOL0     H28765   2.494   1.662   3.048 -0.9137 -0.3569 -0.3474
  218MOL0     H28766   2.299   1.568   3.097  0.1268 -0.0475  1.1836
  218MOL0     H28767   2.155   1.634   3.042  1.4653 -2.6193 -0.2871
  218MOL0     H28768   2.170   1.628   3.338 -0.9138 -2.4175  2.1620
  218MOL0     H28769   2.043   1.604   3.221  0.3794 -0.2799 -3.1144
  218MOL0     H28770   2.222   1.395   3.312 -1.6601  1.9824  3.5576
  218MOL0     H28771   2.129   1.389   3.151 -3.5013 -1.2195  0.8314
  218MOL0     H28772   2.023   1.400   3.429  1.8641 -1.7514 -0.4882
  218MOL0     H28773   1.919   1.427   3.290  0.6931 -0.7493 -1.8728
  218MOL0     H28774   1.966   1.007   3.286  1.4939 -1.2229  1.1699
  218MOL0     H28775   2.253   1.996   3.140 -1.7004 -1.6301 -2.7833
  218MOL0     H28776   2.433   2.162   3.025  3.8738  1.0744  1.6449
  219MOL0     O28777   3.108   0.465   4.345  0.0468 -0.4259  0.5136
  219MOL0     C28778   3.212   0.525   4.354 -1.3323  0.2911 -0.7784
  219MOL0     O28779   3.240   0.636   4.435  0.1552 -0.6058  0.0139
  219MOL0     C28780   3.136   0.675   4.522 -0.6472 -0.0903 -0.7638
  219MOL0     C28781   3.128   0.820   4.547  1.0384 -0.4861 -0.3759
  219MOL0     C28782   3.032   0.867   4.642 -0.5507 -1.0990 -0.8315
  219MOL0     C28783   2.950   0.782   4.714  0.2410  0.2498  0.1611
  219MOL0     O28784   2.875   0.837   4.810 -0.6842 -0.7277 -0.0523
  219MOL0     C28785   2.806   0.748   4.903  0.3762 -0.2566  0.1123
  219MOL0     C28786   2.736   0.824   5.014  0.4164  0.0464 -0.2051
  219MOL0     C28787   2.630   0.736   5.071  0.6843 -0.9814  0.1811
  219MOL0     C28788   2.534   0.819   5.154 -0.0808 -0.1643 -0.1208
  219MOL0     C28789   2.410   0.748   5.207  0.0672  0.1350  0.4098
  219MOL0     C28790   2.337   0.847   5.298 -0.6102  0.7937  0.0672
  219MOL0     C28791   2.219   0.767   5.361 -1.0310  0.2962  0.1425
  219MOL0     C28792   2.108   0.729   5.272  0.3589 -1.1286  0.2819
  219MOL0     N28793   2.041   0.848   5.211  0.0063  0.8234 -1.1340
  219MOL0     C28794   1.977   0.940   5.282  0.6858  0.3688  0.0816
  219MOL0     C28795   1.921   1.008   5.169 -0.1562 -0.4382  0.8822
  219MOL0     C28796   1.835   1.129   5.170  0.7901  0.0750  0.1000
  219MOL0     C28797   1.687   1.112   5.149  0.8478  0.2164 -0.8797
  219MOL0     C28798   1.600   1.233   5.109 -0.5683  0.2577  0.7033
  219MOL0     C28799   1.554   1.309   5.229  0.0647 -0.3810  0.3548
  219MOL0     O28800   1.487   1.423   5.177  0.6503 -0.2490  0.5668
  219MOL0     C28801   1.432   1.502   5.279  0.1947 -0.1097 -0.1906
  219MOL0     C28802   1.355   1.607   5.238 -0.5875 -0.8196  0.0534
  219MOL0     C28803   1.288   1.695   5.328  0.0046  0.3422 -0.3388
  219MOL0     C28804   1.287   1.673   5.461 -0.4158 -0.0314  0.3360
  219MOL0     C28805   1.204   1.762   5.548 -0.9185  0.3053  0.0938
  219MOL0     O28806   1.138   1.862   5.495 -0.2976  0.0825  0.4843
  219MOL0     C28807   1.027   1.914   5.557 -0.3232  0.5271 -0.8210
  219MOL0     C28808   0.945   1.848   5.661  0.5834 -0.0754  0.4548
  219MOL0     C28809   0.828   1.904   5.699  0.2498  0.0053 -1.0194
  219MOL0     C28810   0.781   2.021   5.635 -0.2935  0.0514 -0.1157
  219MOL0     O28811   0.657   2.077   5.673  0.2968 -0.4029 -0.2515
  219MOL0     C28812   0.657   2.143   5.797 -1.0365 -0.2115  0.3633
  219MOL0     C28813   0.546   2.252   5.798 -0.5618 -0.7057  0.4955
  219MOL0     C28814   0.405   2.194   5.823  0.3852  0.5578  0.0949
  219MOL0     C28815   0.301   2.303   5.819  0.0500 -0.0105 -0.2911
  219MOL0     C28816   0.161   2.237   5.831 -0.9823 -0.8017  0.0460
  219MOL0     C28817   0.129   2.154   5.957 -0.0397  0.4439 -0.5862
  219MOL0     C28818   0.010   2.210   6.034 -0.0977  0.1901  0.9540
  219MOL0     C28819  -0.009   2.127   6.158  0.5569  0.1865 -0.0816
  219MOL0    Cl28820  -0.154   2.163   6.241  0.0189  0.2537  0.8297
  219MOL0     C28821   0.860   2.099   5.544 -0.4827 -0.3684 -0.5696
  219MOL0     C28822   0.981   2.039   5.505 -0.5662 -1.5063 -1.2106
  219MOL0     O28823   1.201   1.717   5.665  0.9994 -0.8067 -0.6817
  219MOL0     C28824   1.354   1.553   5.508 -0.9250 -0.4724  0.0984
  219MOL0     C28825   1.445   1.488   5.420 -0.1136 -0.5161 -0.6009
  219MOL0     N28826   1.947   0.949   5.054 -0.8549 -1.1284 -0.1627
  219MOL0     N28827   2.025   0.854   5.074  0.2350  0.3196 -0.6215
  219MOL0     C28828   2.955   0.640   4.687 -0.2225  0.3011  0.4333
  219MOL0     C28829   3.035   0.589   4.588 -0.4879  0.0990  0.5821
  219MOL0     C28830   3.319   0.483   4.272  0.4431  0.9077 -0.2817
  219MOL0     C28831   3.442   0.555   4.270  0.3757 -0.6832 -0.1003
  219MOL0     C28832   3.554   0.521   4.189  0.1393 -0.6130 -0.5288
  219MOL0     C28833   3.549   0.392   4.126  0.0450 -0.4659  0.3742
  219MOL0     O28834   3.645   0.362   4.036  0.1653  0.1618 -0.4678
  219MOL0     C28835   3.760   0.298   4.095 -0.2316 -0.0246 -0.1908
  219MOL0     C28836   3.802   0.171   4.018 -0.3491  0.5333  0.7102
  219MOL0     C28837   3.725   0.050   4.060 -0.1421  0.1484  0.5475
  219MOL0     C28838   3.730  -0.067   3.956 -0.2475  0.1935  0.0065
  219MOL0     C28839   3.862  -0.133   3.961 -0.2592  0.9939 -0.2054
  219MOL0     C28840   3.961  -0.207   3.962  0.2648 -0.7233  0.1477
  219MOL0     C28841   3.435   0.319   4.122 -0.5126  1.1846  0.4581
  219MOL0     C28842   3.323   0.366   4.194  0.0209 -0.7635  0.2695
  219MOL0     H28843   3.193   0.893   4.500 -1.5024  1.2653 -1.3491
  219MOL0     H28844   3.015   0.972   4.662 -1.8082 -1.3065 -0.7338
  219MOL0     H28845   2.875   0.678   4.951  2.6360  0.6613 -1.6238
  219MOL0     H28846   2.736   0.692   4.841  0.6908  1.4779 -1.9250
  219MOL0     H28847   2.685   0.913   4.979  2.1269  1.8285  1.5459
  219MOL0     H28848   2.802   0.854   5.096 -1.2883 -2.9250  2.5134
  219MOL0     H28849   2.673   0.662   5.139  0.6592 -0.8486  0.3407
  219MOL0     H28850   2.581   0.676   4.993 -0.2351  2.2082 -1.9192
  219MOL0     H28851   2.599   0.847   5.238  0.6048 -1.9903  0.0082
  219MOL0     H28852   2.500   0.897   5.086 -3.7164 -1.7469 -0.3198
  219MOL0     H28853   2.447   0.660   5.260  3.8766  1.6302  0.5535
  219MOL0     H28854   2.348   0.725   5.121 -0.6239 -3.0328  1.6269
  219MOL0     H28855   2.314   0.950   5.269  2.3309  2.3298  2.5170
  219MOL0     H28856   2.405   0.868   5.381 -0.5182 -2.1962  0.8503
  219MOL0     H28857   2.262   0.676   5.403  1.9251  0.7520 -1.5994
  219MOL0     H28858   2.177   0.830   5.440 -1.9102 -0.3911  0.2485
  219MOL0     H28859   2.022   0.690   5.327 -1.1345 -0.2228 -1.3057
  219MOL0     H28860   2.139   0.654   5.199  0.1081 -1.5249  0.5755
  219MOL0     H28861   1.970   0.949   5.390 -0.5310  0.3057  0.0218
  219MOL0     H28862   1.881   1.194   5.095  2.1834 -0.5764  0.3578
  219MOL0     H28863   1.849   1.173   5.269 -0.7537  0.4390  0.1953
  219MOL0     H28864   1.639   1.067   5.237  0.2352  0.4189 -1.1052
  219MOL0     H28865   1.675   1.038   5.069 -1.4010 -0.7123  0.2258
  219MOL0     H28866   1.664   1.296   5.047 -2.4202  2.2170  0.6857
  219MOL0     H28867   1.508   1.200   5.060 -0.1612 -2.4469  1.5967
  219MOL0     H28868   1.644   1.336   5.286 -1.1559 -0.5745  2.4697
  219MOL0     H28869   1.478   1.254   5.285 -0.3406 -3.0325 -2.4925
  219MOL0     H28870   1.344   1.604   5.131 -0.5417 -0.4730  0.0385
  219MOL0     H28871   1.227   1.774   5.285 -0.5974  0.7844  1.2611
  219MOL0     H28872   0.965   1.751   5.704 -2.8399 -0.3118  1.8209
  219MOL0     H28873   0.777   1.860   5.784 -0.0851 -0.2208 -1.3331
  219MOL0     H28874   0.752   2.189   5.826 -0.5648 -0.0707 -1.3197
  219MOL0     H28875   0.616   2.073   5.871 -2.7755  1.9682  1.5834
  219MOL0     H28876   0.542   2.308   5.704 -0.5515  0.6197  1.2732
  219MOL0     H28877   0.563   2.325   5.878 -1.2216  1.7081 -1.4451
  219MOL0     H28878   0.412   2.134   5.914  4.4340 -1.1253 -1.0650
  219MOL0     H28879   0.387   2.125   5.740  2.2252  0.9563 -0.6872
  219MOL0     H28880   0.316   2.375   5.899 -0.9050  1.1904 -1.1453
  219MOL0     H28881   0.320   2.364   5.730 -0.2924  1.0699  0.3551
  219MOL0     H28882   0.133   2.161   5.757 -6.2901  0.0695  0.7375
  219MOL0     H28883   0.087   2.316   5.812 -3.8081 -3.5983 -1.4821
  219MOL0     H28884   0.212   2.171   6.027 -1.7027 -3.1191  2.6481
  219MOL0     H28885   0.108   2.050   5.929 -2.6971  0.7573 -0.0126
  219MOL0     H28886   0.030   2.314   6.060  2.5460  0.2040 -0.7083
  219MOL0     H28887  -0.087   2.208   5.982 -0.1818  1.7013  1.0144
  219MOL0     H28888   0.070   2.134   6.233  1.1876  0.0382 -0.7274
  219MOL0     H28889  -0.010   2.022   6.129 -0.7131 -0.4659  2.0537
  219MOL0     H28890   0.829   2.187   5.489 -1.2525 -2.3198 -3.4228
  219MOL0     H28891   1.045   2.078   5.426 -2.6089  3.8117 -0.6730
  219MOL0     H28892   1.360   1.540   5.616 -0.4319  1.3476  0.3260
  219MOL0     H28893   1.515   1.426   5.474  1.8748  1.8558 -0.2492
  219MOL0     H28894   2.888   0.573   4.739 -1.4429 -1.2338 -2.8405
  219MOL0     H28895   3.033   0.481   4.580  2.4696 -0.0828  1.1374
  219MOL0     H28896   3.458   0.633   4.343  0.2881 -2.2730  1.7040
  219MOL0     H28897   3.644   0.579   4.173 -2.1947  3.3106 -0.7471
  219MOL0     H28898   3.735   0.278   4.200  0.7084  4.8635  1.1847
  219MOL0     H28899   3.839   0.371   4.113 -1.4968  0.4264  5.0865
  219MOL0     H28900   3.781   0.186   3.912 -1.1385 -0.1614  0.7640
  219MOL0     H28901   3.910   0.155   4.032 -0.4900 -3.4050 -1.3045
  219MOL0     H28902   3.625   0.081   4.092  0.3729  1.0113  1.3767
  219MOL0     H28903   3.781   0.010   4.145 -0.2375 -0.0021  0.5397
  219MOL0     H28904   3.646  -0.129   3.988 -0.7322  0.0506 -1.4685
  219MOL0     H28905   3.706  -0.030   3.855 -2.3424 -4.1183 -1.3363
  219MOL0     H28906   4.049  -0.267   3.958 -0.8822 -2.4186 -1.5402
  219MOL0     H28907   3.445   0.231   4.060 -2.3424  0.7669  0.6833
  219MOL0     H28908   3.235   0.303   4.190 -1.3772  0.9648  1.8065
  220MOL0     O28909   8.702  10.446   1.792 -0.1161  0.8622 -0.2508
  220MOL0     C28910   8.689  10.548   1.731 -0.8248 -0.3461 -1.0523
  220MOL0     O28911   8.788  10.635   1.684  0.2411 -0.2573  0.4339
  220MOL0     C28912   8.918  10.614   1.728 -0.3992 -0.3058  0.3514
  220MOL0     C28913   8.999  10.721   1.768 -0.1774  0.1147 -1.2186
  220MOL0     C28914   9.135  10.700   1.790  0.7048 -0.5025 -0.4265
  220MOL0     C28915   9.197  10.581   1.794  0.5967  0.9775  0.2102
  220MOL0     O28916   9.327  10.565   1.829  0.2796 -0.4742  0.4760
  220MOL0     C28917   9.368  10.439   1.872  0.7452  0.0723 -0.4475
  220MOL0     C28918   9.499  10.448   1.941  1.1003  0.2040  0.1427
  220MOL0     C28919   9.485  10.495   2.090 -0.2562 -0.1556  0.5851
  220MOL0     C28920   9.416  10.399   2.189  0.1499 -0.0542  0.3498
  220MOL0     C28921   9.464  10.401   2.349 -0.5421 -0.4425 -0.1593
  220MOL0     C28922   9.375  10.317   2.445  0.1956 -0.2823  0.2491
  220MOL0     C28923   9.463  10.290   2.572 -0.1126  0.3621 -0.1150
  220MOL0     C28924   9.394  10.349   2.688  0.0821 -0.0890 -0.6144
  220MOL0     N28925   9.432  10.292   2.814 -0.4365  0.5501  1.1967
  220MOL0     C28926   9.405  10.166   2.855  0.4320 -0.2431 -0.6648
  220MOL0     C28927   9.452  10.154   2.982 -0.3237 -0.2732  0.3799
  220MOL0     C28928   9.435  10.029   3.052  0.3541  0.3492 -1.0642
  220MOL0     C28929   9.540  10.015   3.164 -0.3825 -0.5158  0.1084
  220MOL0     C28930   9.528   9.877   3.236 -0.5439 -0.4641  1.1004
  220MOL0     C28931   9.436   9.882   3.360 -0.1875  0.1994  0.9321
  220MOL0     O28932   9.487   9.969   3.458  0.5227  0.1749  0.0546
  220MOL0     C28933   9.390  10.029   3.533 -0.4741 -0.9517 -0.7054
  220MOL0     C28934   9.293  10.121   3.479  0.1518  0.0280  0.3491
  220MOL0     C28935   9.203  10.172   3.574  0.4024  0.8804  0.1748
  220MOL0     C28936   9.220  10.157   3.706  0.3378  0.5138 -0.2282
  220MOL0     C28937   9.124  10.234   3.793 -1.0437  0.4842 -0.7292
  220MOL0     O28938   9.038  10.326   3.729 -0.8536  0.1877 -0.5705
  220MOL0     C28939   8.955  10.397   3.814 -0.7417 -0.3730 -0.9060
  220MOL0     C28940   8.951  10.538   3.830  0.0075  0.2166 -0.0613
  220MOL0     C28941   8.852  10.605   3.911 -0.6389  0.2169 -0.8354
  220MOL0     C28942   8.764  10.533   3.993  0.1290 -0.5602 -0.0377
  220MOL0     O28943   8.664  10.601   4.058  0.2945  0.5737  0.7479
  220MOL0     C28944   8.530  10.562   4.038  1.1300  0.0072 -0.4601
  220MOL0     C28945   8.438  10.674   4.059 -0.1274  0.0098  0.1695
  220MOL0     C28946   8.310  10.653   3.990  0.3757 -0.4877  0.7960
  220MOL0     C28947   8.204  10.757   4.035  0.3415  0.0613 -0.0491
  220MOL0     C28948   8.159  10.747   4.179  0.7534 -0.0406  0.4413
  220MOL0     C28949   8.031  10.829   4.198 -0.9513  0.1961 -0.3473
  220MOL0     C28950   7.915  10.777   4.109  0.3072  0.3681 -0.7868
  220MOL0     C28951   7.791  10.739   4.181 -0.4289 -0.5487 -0.3759
  220MOL0    Cl28952   7.656  10.728   4.056 -0.4702  0.0257 -0.0640
  220MOL0     C28953   8.782  10.393   3.994 -0.3646 -0.4227  1.7411
  220MOL0     C28954   8.854  10.331   3.889 -0.2501  0.8373 -0.4667
  220MOL0     O28955   9.114  10.195   3.913 -0.5405 -0.3409 -0.2861
  220MOL0     C28956   9.311  10.058   3.757 -0.6884 -0.4027 -0.5890
  220MOL0     C28957   9.400  10.000   3.666  0.2991  0.1831  0.1378
  220MOL0     N28958   9.513  10.278   3.013  0.0119 -0.1290 -0.1108
  220MOL0     N28959   9.505  10.358   2.911 -0.2762 -0.4751 -0.1425
  220MOL0     C28960   9.117  10.473   1.752 -0.1955 -1.0990  0.1009
  220MOL0     C28961   8.980  10.494   1.716  0.2359  0.4815 -0.1596
  220MOL0     C28962   8.550  10.594   1.712 -0.1437  0.4680  0.4432
  220MOL0     C28963   8.448  10.501   1.716  0.1907 -0.6193 -0.3031
  220MOL0     C28964   8.313  10.540   1.689  0.6416  0.2315  0.6606
  220MOL0     C28965   8.292  10.668   1.632  0.2274 -0.4464 -0.1851
  220MOL0     O28966   8.163  10.719   1.596 -0.7310  0.1141  0.5245
  220MOL0     C28967   8.059  10.628   1.578  0.4506 -0.0511 -0.6650
  220MOL0     C28968   7.940  10.701   1.524  0.3747 -0.0844  1.0367
  220MOL0     C28969   7.962  10.758   1.378 -0.0502  0.1107 -0.5071
  220MOL0     C28970   7.994  10.916   1.381  1.2137  0.2969 -0.5745
  220MOL0     C28971   7.878  10.992   1.433 -0.3232 -0.2019 -0.8306
  220MOL0     C28972   7.786  11.048   1.495  0.9317 -0.6709 -0.0777
  220MOL0     C28973   8.390  10.763   1.642 -0.9888 -0.6154 -0.5101
  220MOL0     C28974   8.519  10.729   1.688 -0.2153  0.0266 -0.7730
  220MOL0     H28975   8.953  10.819   1.773 -0.7013 -0.0771 -2.0127
  220MOL0     H28976   9.198  10.780   1.829 -1.4248  1.0370  0.0465
  220MOL0     H28977   9.370  10.393   1.773  1.0304  3.0346 -1.8926
  220MOL0     H28978   9.296  10.393   1.941  0.0397 -0.6037 -1.6033
  220MOL0     H28979   9.563  10.514   1.882 -0.3725 -0.1131 -1.9167
  220MOL0     H28980   9.538  10.346   1.942 -2.9423 -1.5583 -0.7842
  220MOL0     H28981   9.439  10.594   2.099  2.9136  1.5969 -0.9685
  220MOL0     H28982   9.585  10.511   2.131  0.7712 -2.7644 -0.6636
  220MOL0     H28983   9.308  10.413   2.186 -0.0810 -1.5613  0.4583
  220MOL0     H28984   9.444  10.302   2.145  3.0428  0.8884 -0.1275
  220MOL0     H28985   9.473  10.504   2.386 -2.4876  0.5089 -2.0804
  220MOL0     H28986   9.563  10.356   2.345 -0.7734 -0.9840  0.1389
  220MOL0     H28987   9.354  10.228   2.385  1.5867  0.4583 -1.4259
  220MOL0     H28988   9.293  10.387   2.461 -0.1214 -0.1679 -1.7085
  220MOL0     H28989   9.485  10.184   2.584 -0.5225  0.0937 -1.5170
  220MOL0     H28990   9.558  10.342   2.585  0.5151 -1.0206  1.1284
  220MOL0     H28991   9.290  10.315   2.686  0.5113 -1.5774  0.4208
  220MOL0     H28992   9.387  10.458   2.684 -0.4235  0.0126  1.5199
  220MOL0     H28993   9.338  10.092   2.812 -2.1506  0.1256  2.3589
  220MOL0     H28994   9.447   9.943   2.985 -1.4977 -0.6255 -0.2302
  220MOL0     H28995   9.332  10.024   3.090  0.6664  0.0685 -0.2389
  220MOL0     H28996   9.546  10.097   3.236 -0.4855 -0.3988 -0.0145
  220MOL0     H28997   9.637  10.002   3.114  1.4471 -1.0313  3.5003
  220MOL0     H28998   9.509   9.799   3.162  0.1534 -2.1436  2.6169
  220MOL0     H28999   9.624   9.842   3.277 -1.2650 -0.2400  3.1163
  220MOL0     H29000   9.416   9.783   3.402 -1.9528 -0.3050 -0.9493
  220MOL0     H29001   9.340   9.912   3.318  0.3159 -1.5623 -1.6511
  220MOL0     H29002   9.291  10.124   3.371 -2.1731 -3.4160  0.1303
  220MOL0     H29003   9.126  10.237   3.532 -0.2324  0.6487  0.9568
  220MOL0     H29004   9.021  10.601   3.776  0.5643 -0.4104 -0.0831
  220MOL0     H29005   8.855  10.713   3.924 -0.4532  0.0501  0.7806
  220MOL0     H29006   8.498  10.479   4.102  1.0019 -0.2157 -0.8054
  220MOL0     H29007   8.513  10.530   3.935  0.5748 -0.6764 -0.1651
  220MOL0     H29008   8.487  10.769   4.037 -0.0501 -0.0925 -0.1048
  220MOL0     H29009   8.415  10.680   4.166  0.5040  0.5117  0.2828
  220MOL0     H29010   8.267  10.553   4.001 -2.9513  0.5621 -1.0138
  220MOL0     H29011   8.314  10.662   3.881 -2.0425 -0.1831  0.6692
  220MOL0     H29012   8.244  10.857   4.012  1.0317  0.4237  2.4250
  220MOL0     H29013   8.120  10.740   3.967  2.1462 -0.6798 -2.2311
  220MOL0     H29014   8.231  10.772   4.257  0.0106  1.5981  0.6414
  220MOL0     H29015   8.138  10.642   4.201  2.0833 -0.2516  0.7884
  220MOL0     H29016   8.049  10.937   4.197  1.5684 -0.0784  2.0864
  220MOL0     H29017   8.010  10.810   4.304 -0.0229  0.7613 -0.0448
  220MOL0     H29018   7.885  10.845   4.029 -0.6055 -0.0960 -0.8573
  220MOL0     H29019   7.943  10.684   4.058 -2.0300 -0.7908 -0.0985
  220MOL0     H29020   7.752  10.815   4.249  0.8858 -0.5466  0.4067
  220MOL0     H29021   7.791  10.646   4.239 -2.3618 -0.7055 -0.5384
  220MOL0     H29022   8.714  10.336   4.057 -0.9704 -2.5327 -0.6559
  220MOL0     H29023   8.852  10.227   3.856 -0.3083  1.2339 -1.7760
  220MOL0     H29024   9.329  10.029   3.860  2.9539  1.8210 -0.3955
  220MOL0     H29025   9.482   9.936   3.697  1.5186  1.0112 -1.2533
  220MOL0     H29026   9.161  10.376   1.732 -2.4182 -2.5198  1.6350
  220MOL0     H29027   8.920  10.411   1.680 -0.2927  0.9764 -0.4532
  220MOL0     H29028   8.461  10.397   1.742  1.1147 -0.5046 -0.2858
  220MOL0     H29029   8.234  10.468   1.705  1.0803 -0.6448 -0.8962
  220MOL0     H29030   8.031  10.589   1.676 -0.3261  2.6273  0.2889
  220MOL0     H29031   8.090  10.547   1.512 -0.0477 -2.9330  2.3935
  220MOL0     H29032   7.859  10.629   1.512  0.5549 -0.3519  1.4123
  220MOL0     H29033   7.909  10.782   1.591  0.9418  0.3085  0.8305
  220MOL0     H29034   7.874  10.735   1.317  0.0515 -1.6186 -0.0513
  220MOL0     H29035   8.048  10.701   1.341  1.8953  3.1237 -0.9908
  220MOL0     H29036   8.081  10.923   1.446 -0.6771 -0.9811  2.2883
  220MOL0     H29037   8.008  10.950   1.278  0.3535 -1.8468 -1.4658
  220MOL0     H29038   7.723  11.095   1.568  1.6428 -1.6013  1.1751
  220MOL0     H29039   8.362  10.864   1.612 -1.2761  0.2439  2.3952
  220MOL0     H29040   8.597  10.804   1.700  0.6396 -1.0844  1.0691
  221MOL0     O29041  10.212   0.025   1.865  0.0036 -0.4088 -0.2754
  221MOL0     C29042  10.099   0.010   1.840  0.3866  0.0147  0.1588
  221MOL0     O29043  10.002  -0.035   1.924  0.4887  0.3010  0.1171
  221MOL0     C29044  10.029  -0.036   2.059  0.0165 -0.4857 -0.5129
  221MOL0     C29045  10.124  -0.116   2.130  0.3109  0.1193 -0.6238
  221MOL0     C29046  10.120  -0.140   2.266  0.2590  0.2048 -0.4591
  221MOL0     C29047  10.028  -0.061   2.347  0.6419 -0.6585  0.2972
  221MOL0     O29048  10.029  -0.089   2.475 -0.4988  0.7451 -0.1485
  221MOL0     C29049   9.940  -0.042   2.573  0.0304  0.3086  0.3552
  221MOL0     C29050   9.996  -0.083   2.707  0.4533  0.2699  0.4140
  221MOL0     C29051   9.955  -0.232   2.739 -0.2704  0.3662  1.1719
  221MOL0     C29052   9.978  -0.280   2.878  0.7781  0.4646  0.3511
  221MOL0     C29053   9.953  -0.427   2.890 -0.3387  1.2010 -0.3907
  221MOL0     C29054   9.978  -0.463   3.045  0.5423 -0.2020 -0.3192
  221MOL0     C29055   9.954  -0.609   3.078  0.3099 -0.5862  0.7489
  221MOL0     C29056   9.803  -0.644   3.074  0.6588  0.6765 -0.2985
  221MOL0     N29057   9.751  -0.688   2.941 -1.0493  0.1714 -0.4735
  221MOL0     C29058   9.643  -0.629   2.885  0.6572 -0.9621 -1.5795
  221MOL0     C29059   9.597  -0.706   2.786 -0.4498  0.6620 -0.0959
  221MOL0     C29060   9.483  -0.675   2.698 -1.0397  0.0162 -0.5120
  221MOL0     C29061   9.520  -0.712   2.556  0.1841 -0.8850  1.0639
  221MOL0     C29062   9.470  -0.630   2.439  0.3098  0.0981  0.0258
  221MOL0     C29063   9.313  -0.624   2.416  1.3708  0.6143  0.5165
  221MOL0     O29064   9.298  -0.551   2.297 -0.1333  0.2634  0.2475
  221MOL0     C29065   9.183  -0.563   2.222 -0.3414  0.3153 -0.0960
  221MOL0     C29066   9.078  -0.659   2.253 -0.5423  0.2262 -0.1442
  221MOL0     C29067   8.957  -0.645   2.177 -0.0411 -0.5910  0.3823
  221MOL0     C29068   8.951  -0.557   2.067 -0.5959 -1.1765  0.3805
  221MOL0     C29069   8.820  -0.529   1.996 -0.2135 -0.7724  0.1516
  221MOL0     O29070   8.792  -0.404   1.951 -0.6781 -0.9515  0.5580
  221MOL0     C29071   8.666  -0.381   1.903  0.2529 -0.0776 -0.9581
  221MOL0     C29072   8.571  -0.323   1.988 -0.0562  0.9507 -0.5935
  221MOL0     C29073   8.444  -0.293   1.953  0.4075  0.2104 -1.1894
  221MOL0     C29074   8.402  -0.318   1.822 -0.2633  0.0128 -1.3879
  221MOL0     O29075   8.273  -0.292   1.768  0.5962 -0.1848 -0.4020
  221MOL0     C29076   8.180  -0.231   1.858  0.8509  0.9039 -0.7538
  221MOL0     C29077   8.034  -0.234   1.813  0.3876 -0.8019  0.9040
  221MOL0     C29078   8.007  -0.151   1.673 -0.6323  0.1130 -0.2108
  221MOL0     C29079   8.097  -0.179   1.555  0.6220  0.2825 -0.3844
  221MOL0     C29080   8.009  -0.146   1.435  0.4227 -0.1382  1.0386
  221MOL0     C29081   8.084  -0.172   1.304 -0.7188  0.4866  0.3629
  221MOL0     C29082   8.015  -0.092   1.191 -0.2137  0.3130 -0.7354
  221MOL0     C29083   8.099  -0.094   1.059 -0.5041 -0.3300 -0.5709
  221MOL0    Cl29084   8.178  -0.239   1.018 -0.0117  0.1423 -0.2622
  221MOL0     C29085   8.499  -0.372   1.732  0.0535  0.7947 -0.7136
  221MOL0     C29086   8.632  -0.413   1.772  0.1773  0.5894  0.3256
  221MOL0     O29087   8.746  -0.627   1.987  0.2884  0.4111  0.5999
  221MOL0     C29088   9.067  -0.479   2.022 -0.4957 -0.1837  0.0435
  221MOL0     C29089   9.173  -0.477   2.113 -0.8742 -0.5482  0.0857
  221MOL0     N29090   9.674  -0.821   2.796 -0.4754  1.1235 -0.2750
  221MOL0     N29091   9.770  -0.816   2.890  0.1053 -0.7078 -0.2923
  221MOL0     C29092   9.945   0.027   2.275 -0.0133  0.1330  0.4714
  221MOL0     C29093   9.941   0.027   2.134  0.1480 -0.9946  0.0400
  221MOL0     C29094  10.067   0.049   1.707 -0.9100 -0.1365 -0.9077
  221MOL0     C29095  10.172   0.067   1.611  1.0428  0.0647  0.2223
  221MOL0     C29096  10.140   0.096   1.472  0.4342  0.2302 -0.0180
  221MOL0     C29097  10.009   0.117   1.432 -0.3328 -0.3973 -0.3069
  221MOL0     O29098   9.998   0.147   1.302  0.4007 -0.8520 -0.1428
  221MOL0     C29099   9.873   0.193   1.246  0.4159 -0.3807 -0.0785
  221MOL0     C29100   9.917   0.222   1.100  0.0409 -0.5120  0.0139
  221MOL0     C29101   9.801   0.245   1.010 -0.0484  0.0535 -0.2647
  221MOL0     C29102   9.720   0.375   1.048 -0.8571  0.6073 -0.6112
  221MOL0     C29103   9.804   0.491   1.074  0.0133  0.5345 -1.1705
  221MOL0     C29104   9.865   0.592   1.092  0.7458  0.5353 -1.1239
  221MOL0     C29105   9.905   0.103   1.519  0.2950  1.0162  0.1740
  221MOL0     C29106   9.932   0.065   1.658 -0.4634  0.3735 -0.1264
  221MOL0     H29107  10.195  -0.162   2.062  1.1747  1.6721 -0.8013
  221MOL0     H29108  10.184  -0.211   2.319 -1.5750 -2.1029 -1.1863
  221MOL0     H29109   9.843  -0.090   2.555  0.8637 -0.6265 -2.1025
  221MOL0     H29110   9.937   0.066   2.561 -5.3404  0.5341  1.3007
  221MOL0     H29111   9.952  -0.017   2.782 -4.0069  0.3338 -1.9519
  221MOL0     H29112  10.105  -0.076   2.709  0.4048  2.3906  3.8535
  221MOL0     H29113  10.013  -0.296   2.671 -2.4843 -1.2307  0.6843
  221MOL0     H29114   9.851  -0.253   2.713 -0.6993  3.7082 -0.3546
  221MOL0     H29115  10.083  -0.251   2.893  1.1388 -0.4224 -0.3598
  221MOL0     H29116   9.910  -0.228   2.946 -1.9169 -2.0573 -0.2391
  221MOL0     H29117  10.020  -0.500   2.843 -0.0110 -0.4334  2.3888
  221MOL0     H29118   9.851  -0.461   2.871  0.1103 -0.5115  0.0865
  221MOL0     H29119   9.922  -0.395   3.109  0.9962  0.1412 -0.2813
  221MOL0     H29120  10.085  -0.449   3.066  0.7924 -3.1705  1.0632
  221MOL0     H29121  10.007  -0.679   3.012  2.8298  1.7259  0.1554
  221MOL0     H29122   9.989  -0.633   3.179 -0.9833  1.8752  1.8716
  221MOL0     H29123   9.753  -0.549   3.098  0.7733  1.8695 -4.1102
  221MOL0     H29124   9.780  -0.720   3.150  1.1985  0.9065  0.1032
  221MOL0     H29125   9.601  -0.534   2.917 -0.1708 -0.7284 -3.2637
  221MOL0     H29126   9.471  -0.567   2.707 -1.0430 -0.0672  0.6406
  221MOL0     H29127   9.394  -0.731   2.727 -2.3898  0.9186 -2.6360
  221MOL0     H29128   9.493  -0.816   2.537 -2.5017  0.1323 -1.6325
  221MOL0     H29129   9.629  -0.701   2.548  0.0423 -0.2032 -0.2295
  221MOL0     H29130   9.493  -0.524   2.452 -0.7152  0.3044  0.2685
  221MOL0     H29131   9.518  -0.668   2.348  0.6393 -0.0346  0.2550
  221MOL0     H29132   9.253  -0.583   2.498 -2.6008  1.5292 -2.5772
  221MOL0     H29133   9.282  -0.728   2.405 -2.5842  1.8581 -1.9882
  221MOL0     H29134   9.086  -0.737   2.328 -1.7601 -1.0969 -1.2996
  221MOL0     H29135   8.874  -0.710   2.202  2.7258 -4.8730 -0.4803
  221MOL0     H29136   8.601  -0.300   2.090  0.7180 -2.3389  0.0448
  221MOL0     H29137   8.372  -0.261   2.028 -3.6964  0.0423 -4.6942
  221MOL0     H29138   8.196  -0.124   1.877  0.4370  0.8252  0.0353
  221MOL0     H29139   8.172  -0.291   1.948  3.2438  1.7774  0.1296
  221MOL0     H29140   7.981  -0.191   1.898  4.2004 -0.4580  3.3291
  221MOL0     H29141   8.004  -0.336   1.786 -2.3534 -0.3377  1.8872
  221MOL0     H29142   8.020  -0.045   1.699  1.9326 -0.5331  1.4128
  221MOL0     H29143   7.903  -0.172   1.646 -0.3657 -0.2468 -0.9929
  221MOL0     H29144   8.183  -0.112   1.549 -0.0768  1.1127 -1.5074
  221MOL0     H29145   8.119  -0.286   1.563 -0.0946  0.1321 -0.3657
  221MOL0     H29146   7.973  -0.043   1.446 -3.6692 -0.8795 -2.6900
  221MOL0     H29147   7.921  -0.210   1.423  0.9504 -0.5984 -0.6418
  221MOL0     H29148   8.086  -0.279   1.281 -0.9004  0.5591  0.0034
  221MOL0     H29149   8.190  -0.148   1.321 -0.6446  0.2434  0.2498
  221MOL0     H29150   7.915  -0.132   1.171 -1.5983  1.3504  3.1949
  221MOL0     H29151   7.998   0.007   1.234 -2.0886 -0.2145 -0.1653
  221MOL0     H29152   8.184  -0.027   1.074 -1.5457  0.5486  1.8026
  221MOL0     H29153   8.037  -0.072   0.971  1.4221  1.4585 -1.5629
  221MOL0     H29154   8.473  -0.381   1.627 -2.8362 -2.4104  0.0984
  221MOL0     H29155   8.715  -0.456   1.717  0.9428  0.9515  1.1640
  221MOL0     H29156   9.058  -0.418   1.933 -1.9652  1.9008  1.5188
  221MOL0     H29157   9.257  -0.414   2.088 -0.2530 -2.2142 -2.3905
  221MOL0     H29158   9.896   0.103   2.335  4.2912  2.0913  1.9582
  221MOL0     H29159   9.860   0.086   2.092 -1.1906 -3.4051 -0.9978
  221MOL0     H29160  10.275   0.057   1.643  0.2783 -2.0485  2.2866
  221MOL0     H29161  10.226   0.117   1.407  1.2418  3.5159  1.8591
  221MOL0     H29162   9.846   0.286   1.297  0.0164 -0.1809 -0.6492
  221MOL0     H29163   9.792   0.121   1.256  0.7819 -0.6638  1.0908
  221MOL0     H29164   9.981   0.309   1.079  2.0860 -2.1829 -0.9988
  221MOL0     H29165   9.973   0.144   1.048 -1.0215  0.4765 -2.8620
  221MOL0     H29166   9.744   0.153   0.997 -3.5800  2.4117 -4.5746
  221MOL0     H29167   9.833   0.262   0.906 -3.3689 -0.8140 -1.5552
  221MOL0     H29168   9.662   0.402   0.959 -0.2205  1.7709 -0.6905
  221MOL0     H29169   9.655   0.347   1.132  0.4826  2.2464  1.0413
  221MOL0     H29170   9.920   0.678   1.126 -1.0705  0.6440  1.9706
  221MOL0     H29171   9.804   0.108   1.477  0.7713 -5.6796 -3.1897
  221MOL0     H29172   9.849   0.039   1.724 -0.5249  1.7267  0.3502
  222MOL0     O29173   6.631   5.670   5.296 -0.4487  0.3001 -0.2966
  222MOL0     C29174   6.720   5.715   5.227 -0.6828 -0.1517 -0.0450
  222MOL0     O29175   6.792   5.657   5.135  0.1599  0.4218  0.1565
  222MOL0     C29176   6.727   5.547   5.079  0.0159 -0.3925  0.2695
  222MOL0     C29177   6.644   5.575   4.966 -1.2171 -0.8763  0.2661
  222MOL0     C29178   6.592   5.471   4.887 -0.7428 -0.2082  0.8700
  222MOL0     C29179   6.611   5.336   4.922  0.5151 -0.2596  0.0795
  222MOL0     O29180   6.537   5.244   4.844  0.2215 -0.1570  0.3282
  222MOL0     C29181   6.472   5.132   4.893  0.1261 -0.4107  0.5206
  222MOL0     C29182   6.415   5.063   4.772  0.2104 -0.4334  0.9115
  222MOL0     C29183   6.279   4.999   4.810 -1.0555  0.5931  0.1781
  222MOL0     C29184   6.178   4.960   4.698  0.4055 -0.1057  0.5973
  222MOL0     C29185   6.072   4.866   4.756  0.7360  0.2034 -0.0079
  222MOL0     C29186   5.950   4.838   4.672 -0.6846 -0.3695 -0.7755
  222MOL0     C29187   5.985   4.815   4.526  0.3966 -0.0041  0.3180
  222MOL0     C29188   5.860   4.747   4.456 -0.4317 -0.2624  0.1997
  222MOL0     N29189   5.723   4.803   4.473  0.9232  1.4521 -0.9847
  222MOL0     C29190   5.665   4.911   4.435  0.4922 -0.1076 -0.1257
  222MOL0     C29191   5.537   4.915   4.499 -0.3452  0.0086 -0.0605
  222MOL0     C29192   5.438   5.027   4.493  0.3476 -0.0288 -0.3477
  222MOL0     C29193   5.303   4.994   4.430  0.8729  0.0114  0.2566
  222MOL0     C29194   5.178   4.970   4.518  0.9418  0.4645  0.0686
  222MOL0     C29195   5.033   4.961   4.460  0.1973 -0.1362  0.3337
  222MOL0     O29196   4.995   4.833   4.410  0.4876 -0.4958 -0.3181
  222MOL0     C29197   4.869   4.796   4.375  0.3339 -0.0359  0.1320
  222MOL0     C29198   4.859   4.678   4.308 -0.0039 -1.0053  0.7316
  222MOL0     C29199   4.735   4.624   4.257  0.2892  0.1378 -0.1840
  222MOL0     C29200   4.617   4.688   4.291  0.1336  0.3973  0.1233
  222MOL0     C29201   4.485   4.622   4.257 -0.9328 -0.1285  0.9643
  222MOL0     O29202   4.483   4.527   4.153 -0.6760  0.3535 -0.6762
  222MOL0     C29203   4.363   4.488   4.104  0.2438 -0.2061  0.9238
  222MOL0     C29204   4.258   4.444   4.186 -0.8324  0.1489  0.1589
  222MOL0     C29205   4.139   4.398   4.133  0.4462  0.8252 -0.1309
  222MOL0     C29206   4.114   4.407   3.996 -0.5245 -0.5263 -0.8834
  222MOL0     O29207   4.001   4.370   3.933  0.2350 -0.4723  0.4331
  222MOL0     C29208   3.898   4.304   4.011 -0.9312  0.4404  1.4553
  222MOL0     C29209   3.929   4.153   3.994  0.0123 -0.1896  0.4550
  222MOL0     C29210   3.926   4.090   4.133  0.4260 -1.4944  0.3865
  222MOL0     C29211   3.944   3.933   4.110  1.1187 -0.0832 -0.5293
  222MOL0     C29212   3.989   3.847   4.239  0.2029  0.4048  0.0373
  222MOL0     C29213   4.027   3.703   4.199 -0.8940 -0.1613  0.9746
  222MOL0     C29214   3.935   3.634   4.092  0.0286 -0.1643  0.4083
  222MOL0     C29215   3.922   3.485   4.119  0.4999 -0.4365 -0.1461
  222MOL0    Cl29216   4.091   3.420   4.109 -0.1002  0.0613 -0.4295
  222MOL0     C29217   4.221   4.453   3.921  0.6826  0.3297  0.6303
  222MOL0     C29218   4.345   4.490   3.964 -0.0779 -0.2784 -0.1362
  222MOL0     O29219   4.384   4.664   4.308  0.3020 -0.3289 -0.4421
  222MOL0     C29220   4.628   4.805   4.360  0.5938  0.1471 -0.4706
  222MOL0     C29221   4.749   4.866   4.396 -0.8934 -0.2231 -0.0171
  222MOL0     N29222   5.511   4.792   4.558  0.9799 -0.5619 -0.0917
  222MOL0     N29223   5.625   4.728   4.540 -0.4695  0.2404 -0.2612
  222MOL0     C29224   6.682   5.314   5.039  0.4590  1.0042 -0.2082
  222MOL0     C29225   6.755   5.412   5.107 -0.2962 -0.4559  0.1792
  222MOL0     C29226   6.755   5.856   5.257  0.9204 -1.0446 -0.1689
  222MOL0     C29227   6.721   5.920   5.378 -0.9160 -0.7503 -0.0165
  222MOL0     C29228   6.761   6.044   5.395 -0.6529 -0.2195 -0.9441
  222MOL0     C29229   6.821   6.124   5.291  0.2982 -0.0475 -1.0824
  222MOL0     O29230   6.852   6.257   5.309 -0.2753  0.3694  0.1959
  222MOL0     C29231   6.960   6.276   5.404  0.8229 -0.0426  0.6169
  222MOL0     C29232   6.959   6.410   5.472 -0.1746  0.4017 -0.3802
  222MOL0     C29233   6.831   6.452   5.545  0.0125 -0.3807  0.1102
  222MOL0     C29234   6.759   6.352   5.621  0.2779  0.5157 -0.2406
  222MOL0     C29235   6.650   6.416   5.705 -0.3777 -0.3274 -0.2666
  222MOL0     C29236   6.566   6.473   5.775 -0.1767  0.3117 -0.3294
  222MOL0     C29237   6.843   6.072   5.166 -0.3954  0.0256  0.3085
  222MOL0     C29238   6.819   5.929   5.151 -0.3432  0.4430 -0.5483
  222MOL0     H29239   6.636   5.681   4.947 -1.7644 -0.7833  0.9551
  222MOL0     H29240   6.551   5.489   4.788  2.1382 -0.7038 -0.5383
  222MOL0     H29241   6.402   5.148   4.975  0.0050  0.9248  0.1836
  222MOL0     H29242   6.549   5.065   4.932 -0.0590 -0.2228  1.2295
  222MOL0     H29243   6.488   5.007   4.713  2.4503  2.5693  0.5754
  222MOL0     H29244   6.391   5.147   4.705 -0.4264 -0.1598  1.4789
  222MOL0     H29245   6.232   5.059   4.889  3.3621  2.8584  1.3831
  222MOL0     H29246   6.304   4.904   4.859  0.1519  1.0623  0.5113
  222MOL0     H29247   6.127   5.049   4.660  0.8966  1.3523  3.1313
  222MOL0     H29248   6.246   4.920   4.622 -0.4706 -1.7064  0.6162
  222MOL0     H29249   6.027   4.908   4.846 -3.3913 -0.2945 -1.6457
  222MOL0     H29250   6.122   4.770   4.768  4.3284  1.7132 -1.3192
  222MOL0     H29251   5.881   4.921   4.686 -0.2075 -0.3907  2.1691
  222MOL0     H29252   5.893   4.752   4.710 -0.2551 -0.9720 -1.4546
  222MOL0     H29253   6.020   4.913   4.492 -1.5110  0.2281 -1.1771
  222MOL0     H29254   6.064   4.740   4.521  0.7467  0.0579  3.1857
  222MOL0     H29255   5.859   4.644   4.493 -4.5305  0.5471  3.2027
  222MOL0     H29256   5.880   4.740   4.349  2.6356  1.6480  0.5192
  222MOL0     H29257   5.709   4.985   4.369  1.1702 -0.8050 -0.4764
  222MOL0     H29258   5.494   5.109   4.446  1.2275  0.0453  0.7668
  222MOL0     H29259   5.413   5.067   4.593  1.1538  2.4460 -1.0452
  222MOL0     H29260   5.319   4.909   4.363  0.0619  2.2387 -3.0355
  222MOL0     H29261   5.272   5.082   4.372 -0.7128 -0.6864 -0.0238
  222MOL0     H29262   5.208   4.876   4.565 -0.2267 -0.8103 -1.6318
  222MOL0     H29263   5.175   5.049   4.594 -1.9745 -0.3453  0.9239
  222MOL0     H29264   5.024   5.031   4.376 -2.9617 -0.4887  0.2372
  222MOL0     H29265   4.970   4.980   4.548  1.6218 -0.5445  1.4812
  222MOL0     H29266   4.957   4.639   4.284  0.3136 -0.1476  0.6027
  222MOL0     H29267   4.742   4.534   4.196  0.5095 -0.9064  1.3175
  222MOL0     H29268   4.264   4.430   4.294 -0.6894  1.3037  0.3148
  222MOL0     H29269   4.063   4.360   4.200 -4.7566  4.2451 -3.3999
  222MOL0     H29270   3.807   4.330   3.957 -1.4783 -0.8475  1.7068
  222MOL0     H29271   3.884   4.335   4.115 -0.6173  1.1492  1.2878
  222MOL0     H29272   4.031   4.143   3.958 -0.1250  0.5153 -0.1536
  222MOL0     H29273   3.859   4.099   3.929  0.1500 -0.0214  0.1682
  222MOL0     H29274   3.823   4.093   4.172 -0.6485 -1.0761 -2.2801
  222MOL0     H29275   3.992   4.119   4.215 -0.2520 -4.2410  2.0672
  222MOL0     H29276   3.849   3.904   4.066  0.8093  1.6335 -1.0600
  222MOL0     H29277   4.020   3.916   4.033 -0.1944 -0.4410 -1.7692
  222MOL0     H29278   3.928   3.834   4.329  4.3455 -0.2096  3.0438
  222MOL0     H29279   4.080   3.893   4.278 -0.0391  2.3929 -1.5888
  222MOL0     H29280   4.036   3.636   4.286  1.9233 -2.5120 -0.9370
  222MOL0     H29281   4.130   3.711   4.161 -1.5823  0.1255 -0.8910
  222MOL0     H29282   3.836   3.680   4.084  0.3820  0.2973 -1.7837
  222MOL0     H29283   3.988   3.652   3.998  0.8568  0.8309  1.0348
  222MOL0     H29284   3.853   3.427   4.056 -0.5257 -2.8672  2.9628
  222MOL0     H29285   3.871   3.486   4.215 -1.1639  2.3007 -0.9380
  222MOL0     H29286   4.196   4.480   3.819  2.1251 -1.0337 -0.1231
  222MOL0     H29287   4.420   4.536   3.900  0.1648  2.7591  2.0827
  222MOL0     H29288   4.532   4.856   4.369 -0.9365 -2.4231 -1.1452
  222MOL0     H29289   4.752   4.964   4.443 -2.6609 -0.7326  1.2469
  222MOL0     H29290   6.693   5.211   5.071 -0.3829  1.2162  0.8383
  222MOL0     H29291   6.829   5.384   5.181  3.1639 -2.0225 -3.4866
  222MOL0     H29292   6.657   5.866   5.447  1.3938 -1.3088  1.8067
  222MOL0     H29293   6.726   6.084   5.490  1.2512 -1.3972  0.3181
  222MOL0     H29294   7.052   6.258   5.348 -1.5663 -2.9837 -2.8590
  222MOL0     H29295   6.952   6.197   5.480 -0.4554  3.3807  4.4477
  222MOL0     H29296   7.047   6.419   5.536 -1.1748  2.4741  0.8400
  222MOL0     H29297   6.981   6.486   5.396 -3.0471  0.6110 -1.1371
  222MOL0     H29298   6.761   6.498   5.474 -1.4195 -3.7463 -0.8643
  222MOL0     H29299   6.859   6.531   5.615  0.5630 -1.2316  0.8727
  222MOL0     H29300   6.706   6.286   5.552 -1.2761  2.9015 -1.4926
  222MOL0     H29301   6.816   6.294   5.694 -1.1141  0.9399  1.2379
  222MOL0     H29302   6.491   6.531   5.826 -2.1695 -0.5749 -2.1041
  222MOL0     H29303   6.887   6.135   5.089 -0.2351  1.0984  1.2415
  222MOL0     H29304   6.841   5.887   5.054 -0.0070 -1.5697  0.3496
  223MOL0     O29305   0.128   5.463   7.218 -0.0119 -0.5102 -0.2503
  223MOL0     C29306   0.164   5.358   7.164 -0.9888  0.2138  0.0278
  223MOL0     O29307   0.175   5.334   7.032 -0.0002 -0.2092 -1.0370
  223MOL0     C29308   0.136   5.430   6.939 -0.2177 -0.8287  0.2473
  223MOL0     C29309   0.081   5.557   6.953  0.1646  0.2854  0.4627
  223MOL0     C29310   0.034   5.623   6.845 -0.4711 -1.6665 -0.6487
  223MOL0     C29311   0.025   5.579   6.712 -0.4682 -0.1387 -0.6139
  223MOL0     O29312  -0.013   5.681   6.622  0.2506  0.7767  0.1419
  223MOL0     C29313  -0.010   5.648   6.480  0.6477  0.6167  0.4932
  223MOL0     C29314  -0.046   5.763   6.389  0.5804 -0.4206  0.2267
  223MOL0     C29315   0.046   5.895   6.375  0.3219 -0.9821 -0.0920
  223MOL0     C29316   0.176   5.868   6.307 -0.3685  0.8034 -0.8414
  223MOL0     C29317   0.259   5.977   6.260  0.3105  0.6615  0.0228
  223MOL0     C29318   0.382   5.918   6.203  1.1618 -0.8075  0.0615
  223MOL0     C29319   0.450   6.027   6.117  0.9668 -0.5501  0.4357
  223MOL0     C29320   0.576   5.972   6.049 -0.5385 -0.4298  0.4569
  223MOL0     N29321   0.625   6.065   5.945 -0.1206  0.1679  0.8095
  223MOL0     C29322   0.735   6.147   5.960 -0.2021 -0.8912  0.0642
  223MOL0     C29323   0.726   6.240   5.863  0.6354 -0.2599 -0.2041
  223MOL0     C29324   0.830   6.342   5.833  0.9738 -0.5285 -0.0734
  223MOL0     C29325   0.961   6.299   5.767 -0.6543 -0.7498 -0.3929
  223MOL0     C29326   0.926   6.261   5.618 -0.2957 -0.7816 -0.4336
  223MOL0     C29327   0.914   6.390   5.535 -0.9382 -0.8002 -0.6949
  223MOL0     O29328   0.997   6.494   5.573  0.2935 -0.2771  0.5346
  223MOL0     C29329   1.129   6.499   5.517  0.2240 -0.4680  0.4651
  223MOL0     C29330   1.251   6.468   5.576  0.0715  0.0587  1.0208
  223MOL0     C29331   1.376   6.500   5.507  0.1502  0.7945  0.1347
  223MOL0     C29332   1.381   6.531   5.371 -0.7339 -0.2480 -0.8279
  223MOL0     C29333   1.511   6.568   5.303 -0.2426  0.3201  1.5883
  223MOL0     O29334   1.495   6.650   5.190 -0.5790  0.7900  0.3018
  223MOL0     C29335   1.591   6.741   5.169 -0.2779 -0.0899 -0.6911
  223MOL0     C29336   1.560   6.819   5.054 -0.1544 -0.1086  0.3850
  223MOL0     C29337   1.634   6.923   5.015  1.3409 -0.0308 -0.9926
  223MOL0     C29338   1.746   6.957   5.093  0.8385 -0.0461 -0.0932
  223MOL0     O29339   1.808   7.073   5.055 -1.6796  0.4999 -0.5290
  223MOL0     C29340   1.843   7.082   4.913  0.1634 -0.1905 -0.0088
  223MOL0     C29341   1.998   7.082   4.884 -0.2158 -0.5876 -0.2953
  223MOL0     C29342   2.084   6.956   4.937  0.5505 -1.0033  0.0695
  223MOL0     C29343   2.066   6.829   4.850  0.1824 -0.1332  0.8296
  223MOL0     C29344   2.123   6.705   4.912 -0.5243 -0.8216  0.2207
  223MOL0     C29345   2.275   6.708   4.928  0.0157  0.2614 -0.8855
  223MOL0     C29346   2.361   6.757   4.815  0.3047 -0.5091  0.6324
  223MOL0     C29347   2.514   6.704   4.805  0.2177 -1.0106  0.4873
  223MOL0    Cl29348   2.608   6.798   4.682  0.6293 -0.3204  0.3190
  223MOL0     C29349   1.775   6.891   5.207  0.4088  0.5858  0.4531
  223MOL0     C29350   1.704   6.785   5.252  0.1001  0.4047  0.9448
  223MOL0     O29351   1.614   6.506   5.325 -0.0610 -0.0373 -0.0605
  223MOL0     C29352   1.260   6.559   5.307  0.6408  0.3889  0.6155
  223MOL0     C29353   1.134   6.544   5.378 -0.6478  0.4572 -0.1869
  223MOL0     N29354   0.606   6.216   5.798  0.5990 -0.4135 -0.1338
  223MOL0     N29355   0.549   6.113   5.844  0.0085  0.1604 -0.2295
  223MOL0     C29356   0.096   5.457   6.684  0.2445 -0.5270  1.3921
  223MOL0     C29357   0.151   5.383   6.803  0.4915 -0.2926 -0.1524
  223MOL0     C29358   0.237   5.245   7.237  0.3481 -0.2908  0.1848
  223MOL0     C29359   0.267   5.120   7.178 -0.5045 -1.3524  0.2337
  223MOL0     C29360   0.333   5.020   7.253  0.6154 -0.4269 -1.4122
  223MOL0     C29361   0.372   5.055   7.388  0.2641  0.9117  0.4106
  223MOL0     O29362   0.439   4.945   7.448  0.2473 -0.0936  1.0108
  223MOL0     C29363   0.470   4.946   7.587 -0.2244 -0.6898 -1.5985
  223MOL0     C29364   0.604   5.015   7.638  0.8387 -0.6637  0.1487
  223MOL0     C29365   0.721   4.931   7.594 -0.2838 -0.8128 -0.5044
  223MOL0     C29366   0.776   4.856   7.699  0.1143  0.8390 -0.1809
  223MOL0     C29367   0.678   4.767   7.768 -0.1167 -0.6780  0.7307
  223MOL0     C29368   0.591   4.689   7.807 -0.0890  0.0024  1.8509
  223MOL0     C29369   0.340   5.177   7.448 -0.5368  0.3122  0.1414
  223MOL0     C29370   0.265   5.262   7.370 -0.7029 -0.4725 -0.2267
  223MOL0     H29371   0.065   5.604   7.050  0.2270  0.9274  0.1678
  223MOL0     H29372  -0.020   5.716   6.861 -0.3663 -1.3329 -2.0587
  223MOL0     H29373  -0.077   5.564   6.458  0.1152  0.2432  3.1783
  223MOL0     H29374   0.086   5.609   6.447  0.7148  0.3367  0.9984
  223MOL0     H29375  -0.146   5.801   6.415  1.3809  4.3167 -2.4170
  223MOL0     H29376  -0.054   5.704   6.297  2.2121  0.3125 -0.4189
  223MOL0     H29377   0.063   5.944   6.471 -1.1459 -0.7790  0.0867
  223MOL0     H29378  -0.009   5.964   6.309 -0.1958  0.1575  1.4858
  223MOL0     H29379   0.239   5.819   6.383 -3.3698 -0.4001  1.0434
  223MOL0     H29380   0.155   5.800   6.224  0.2047 -0.2266 -0.1731
  223MOL0     H29381   0.280   6.045   6.344 -0.2340 -2.0924  2.5560
  223MOL0     H29382   0.196   6.029   6.186 -1.4936  2.9685  2.9170
  223MOL0     H29383   0.378   5.821   6.154 -0.2183 -0.6782 -0.1247
  223MOL0     H29384   0.439   5.904   6.296 -2.6810  1.6338  3.0971
  223MOL0     H29385   0.373   6.049   6.042  1.1945 -1.3242 -0.0372
  223MOL0     H29386   0.466   6.118   6.176 -0.2664 -1.1747  1.7854
  223MOL0     H29387   0.555   5.880   5.994  1.8831 -1.9796  1.9207
  223MOL0     H29388   0.648   5.943   6.127 -1.1513 -1.7402  0.5664
  223MOL0     H29389   0.809   6.155   6.040 -1.9451  2.0914  1.5194
  223MOL0     H29390   0.862   6.368   5.935  0.3249 -2.2132  0.5997
  223MOL0     H29391   0.789   6.431   5.784  1.8187 -0.2067 -0.2202
  223MOL0     H29392   0.993   6.201   5.805 -0.0119 -0.3932  0.0090
  223MOL0     H29393   1.044   6.370   5.766 -1.0138 -0.0734  3.1464
  223MOL0     H29394   0.999   6.189   5.578 -0.5832 -1.6087  0.4907
  223MOL0     H29395   0.836   6.199   5.626 -0.3743 -0.3760  3.5920
  223MOL0     H29396   0.809   6.422   5.536  0.1359  3.3213  1.0490
  223MOL0     H29397   0.943   6.364   5.432  2.5381 -3.0223  0.6580
  223MOL0     H29398   1.251   6.430   5.678  1.6767  0.6518  1.2607
  223MOL0     H29399   1.471   6.483   5.556 -0.8538 -1.9009  1.3206
  223MOL0     H29400   1.485   6.784   4.983 -0.3896 -3.3188  2.0362
  223MOL0     H29401   1.610   6.976   4.924  1.3788 -0.3545 -1.1951
  223MOL0     H29402   1.799   7.174   4.873  0.8151 -0.0428 -0.3991
  223MOL0     H29403   1.794   6.999   4.862 -1.1590  2.2729 -3.0974
  223MOL0     H29404   2.031   7.178   4.923  2.8720 -1.6078 -0.0887
  223MOL0     H29405   2.018   7.083   4.776  2.7355 -5.9576 -0.1826
  223MOL0     H29406   2.040   6.932   5.034  0.1442 -1.9969 -0.3442
  223MOL0     H29407   2.188   6.984   4.958  0.4651 -2.4949  2.9754
  223MOL0     H29408   1.962   6.814   4.821  0.9665  0.1535 -2.4750
  223MOL0     H29409   2.128   6.840   4.761 -1.5136 -2.5238 -0.7671
  223MOL0     H29410   2.092   6.619   4.851  2.9539 -2.1004  0.0597
  223MOL0     H29411   2.084   6.693   5.014  1.3961  0.2603  1.1231
  223MOL0     H29412   2.303   6.603   4.941  2.2942  0.9304  0.1575
  223MOL0     H29413   2.309   6.766   5.015  2.6449  0.2699 -1.8441
  223MOL0     H29414   2.318   6.740   4.716  0.2597  1.6562  0.2283
  223MOL0     H29415   2.379   6.865   4.823 -0.1782 -0.4989  1.6095
  223MOL0     H29416   2.503   6.602   4.767 -4.4792 -0.2149 -1.0195
  223MOL0     H29417   2.554   6.705   4.907 -1.2959 -1.2632  1.1054
  223MOL0     H29418   1.858   6.920   5.271  0.2827  1.6736  0.1443
  223MOL0     H29419   1.751   6.734   5.335  1.9324 -1.0552 -0.8674
  223MOL0     H29420   1.256   6.589   5.203  4.6470 -1.6998 -0.3240
  223MOL0     H29421   1.038   6.578   5.340 -2.4068 -1.1051  2.5465
  223MOL0     H29422   0.087   5.409   6.587  0.6001  3.7289 -0.9909
  223MOL0     H29423   0.194   5.285   6.783 -0.4832 -1.1630  1.7571
  223MOL0     H29424   0.227   5.117   7.077  1.4035  4.9928 -1.2098
  223MOL0     H29425   0.363   4.920   7.222 -0.1557 -2.2406  2.9471
  223MOL0     H29426   0.463   4.845   7.629 -0.2876  1.2162  3.7553
  223MOL0     H29427   0.387   4.990   7.644  1.3022 -2.8609  2.7459
  223MOL0     H29428   0.604   5.116   7.596  1.5504 -0.2481  1.1170
  223MOL0     H29429   0.595   5.025   7.746  2.5697 -3.0674  0.6097
  223MOL0     H29430   0.797   5.003   7.563  0.2029 -1.2276 -0.2685
  223MOL0     H29431   0.686   4.879   7.504  0.2973 -0.2838 -1.0471
  223MOL0     H29432   0.860   4.795   7.665  0.7681  2.1517 -1.0140
  223MOL0     H29433   0.827   4.925   7.766 -0.5125  1.7693 -0.6324
  223MOL0     H29434   0.512   4.619   7.823 -0.1216 -0.2500  0.6832
  223MOL0     H29435   0.360   5.189   7.554  4.3747 -2.1945 -0.2209
  223MOL0     H29436   0.232   5.348   7.428 -1.3550 -1.2042  0.5341
  224MOL0     O29437   5.879   8.245   0.054 -0.1171  0.8754  0.1565
  224MOL0     C29438   5.807   8.300  -0.027  0.1875  0.2401  0.5353
  224MOL0     O29439   5.796   8.256  -0.157  0.7164 -0.5000 -0.6283
  224MOL0     C29440   5.878   8.157  -0.207  0.5732 -0.3034  0.9429
  224MOL0     C29441   6.012   8.150  -0.178  0.4287 -1.0093  0.7831
  224MOL0     C29442   6.096   8.053  -0.229 -0.1674 -0.3080  0.9776
  224MOL0     C29443   6.046   7.962  -0.312 -0.5720  0.4428  0.4387
  224MOL0     O29444   6.115   7.853  -0.373  0.5626  0.2256 -0.3563
  224MOL0     C29445   6.261   7.846  -0.361  0.2567 -0.2421 -0.4553
  224MOL0     C29446   6.337   7.918  -0.479  0.2232 -0.6140  0.3361
  224MOL0     C29447   6.487   7.868  -0.484 -0.0066  1.3429 -0.7744
  224MOL0     C29448   6.561   7.885  -0.620 -0.0197 -0.5046 -0.0524
  224MOL0     C29449   6.711   7.850  -0.597 -0.3810 -0.0428  0.7891
  224MOL0     C29450   6.775   7.892  -0.727  0.2817 -0.4597 -0.2884
  224MOL0     C29451   6.928   7.875  -0.724 -0.1170 -0.3832  0.0611
  224MOL0     C29452   6.996   7.947  -0.837  0.3631  1.5854  0.0718
  224MOL0     N29453   6.970   7.876  -0.974 -0.6738  0.0413 -0.6216
  224MOL0     C29454   7.035   7.764  -1.019  0.3795 -1.4943 -0.2410
  224MOL0     C29455   6.977   7.744  -1.140  0.4258 -0.0590 -0.6721
  224MOL0     C29456   6.978   7.631  -1.236 -0.5302  0.4344  1.4503
  224MOL0     C29457   7.121   7.631  -1.289 -0.3820  0.6081  0.4339
  224MOL0     C29458   7.154   7.523  -1.406 -0.1381 -0.4015  0.2313
  224MOL0     C29459   7.173   7.382  -1.353  0.1335 -0.7715 -0.5329
  224MOL0     O29460   7.305   7.369  -1.301  0.4241  0.5534  0.0622
  224MOL0     C29461   7.398   7.293  -1.367  0.4244  0.0914 -0.6761
  224MOL0     C29462   7.505   7.239  -1.301  0.0295  0.4961 -0.6172
  224MOL0     C29463   7.598   7.163  -1.370 -0.0535 -0.4825 -0.6471
  224MOL0     C29464   7.592   7.144  -1.504  0.6546  0.1294 -0.1179
  224MOL0     C29465   7.694   7.075  -1.586  0.5117  0.1040 -0.5937
  224MOL0     O29466   7.644   7.029  -1.711 -1.1709  0.2380 -0.1717
  224MOL0     C29467   7.747   6.977  -1.794  0.4321 -0.1850 -1.3210
  224MOL0     C29468   7.812   7.066  -1.871 -0.4959  0.6764  0.2058
  224MOL0     C29469   7.914   7.024  -1.949 -0.5743 -0.2198  0.1922
  224MOL0     C29470   7.946   6.886  -1.957  0.0973  0.2343  0.2561
  224MOL0     O29471   8.050   6.864  -2.046 -0.1179  0.2226 -0.2873
  224MOL0     C29472   8.117   6.740  -2.054 -0.7518 -0.1897  0.3242
  224MOL0     C29473   8.191   6.708  -2.186  0.2760 -1.0290  0.3832
  224MOL0     C29474   8.319   6.796  -2.215  0.5160  0.2479 -0.6176
  224MOL0     C29475   8.433   6.716  -2.288  0.9661 -0.0983 -0.1320
  224MOL0     C29476   8.381   6.676  -2.434  1.4095  0.2452  0.1961
  224MOL0     C29477   8.476   6.596  -2.514 -0.2206  0.2109 -0.5998
  224MOL0     C29478   8.438   6.579  -2.667 -0.7404 -0.5338  0.3818
  224MOL0     C29479   8.537   6.489  -2.748  0.3368 -0.3388 -0.6452
  224MOL0    Cl29480   8.469   6.412  -2.890  0.0535 -0.1588 -0.0759
  224MOL0     C29481   7.883   6.791  -1.872  1.2062 -0.7073 -0.0999
  224MOL0     C29482   7.783   6.840  -1.783 -0.6679 -0.6062  0.2216
  224MOL0     O29483   7.813   7.071  -1.544 -0.1827  0.4629 -0.1525
  224MOL0     C29484   7.487   7.207  -1.573 -0.5195 -0.1477 -0.5276
  224MOL0     C29485   7.394   7.288  -1.509 -1.0822 -0.5644 -0.0315
  224MOL0     N29486   6.887   7.843  -1.171  0.7885  0.0774 -0.0706
  224MOL0     N29487   6.870   7.916  -1.063 -0.2582 -0.2416 -0.2248
  224MOL0     C29488   5.916   7.962  -0.340  0.9456 -1.0393 -0.0607
  224MOL0     C29489   5.828   8.061  -0.296  0.3918  0.3375  0.9640
  224MOL0     C29490   5.750   8.437   0.002 -0.1256 -0.3006  1.2728
  224MOL0     C29491   5.685   8.520  -0.090  0.6733  0.7091 -0.5372
  224MOL0     C29492   5.616   8.635  -0.061  0.3102 -0.3873  0.3139
  224MOL0     C29493   5.617   8.681   0.069 -0.0314  0.2622  1.2237
  224MOL0     O29494   5.581   8.800   0.119 -0.0929  1.1449  0.3090
  224MOL0     C29495   5.518   8.901   0.042 -0.1533 -0.2739  0.4751
  224MOL0     C29496   5.424   9.007   0.117  0.2237  0.6233 -0.2007
  224MOL0     C29497   5.487   9.125   0.191  0.0669  1.5738 -0.7771
  224MOL0     C29498   5.558   9.080   0.313  0.3078  0.0198 -0.1779
  224MOL0     C29499   5.484   9.042   0.435  1.0320 -0.6829 -0.4157
  224MOL0     C29500   5.438   8.977   0.536  0.7796 -0.3036  0.2473
  224MOL0     C29501   5.675   8.597   0.162 -0.4518  0.4508  0.4173
  224MOL0     C29502   5.740   8.477   0.131  1.0163 -0.1828 -0.3518
  224MOL0     H29503   6.062   8.223  -0.114  2.9870 -3.9169  2.3749
  224MOL0     H29504   6.203   8.063  -0.217  0.0710 -2.6800  1.1687
  224MOL0     H29505   6.284   7.739  -0.357  0.8667 -0.1869 -1.9291
  224MOL0     H29506   6.291   7.887  -0.264 -2.3945  2.2493 -0.5415
  224MOL0     H29507   6.341   8.026  -0.465 -1.7347 -0.2971 -1.1414
  224MOL0     H29508   6.292   7.912  -0.578 -1.1797  0.5234  0.8818
  224MOL0     H29509   6.494   7.760  -0.466 -3.2725  0.8045 -2.1642
  224MOL0     H29510   6.553   7.904  -0.404  2.9480  0.9590 -2.8540
  224MOL0     H29511   6.505   7.812  -0.679  1.4218 -2.1472  0.5220
  224MOL0     H29512   6.544   7.978  -0.674  0.4229 -0.4613 -0.1210
  224MOL0     H29513   6.722   7.745  -0.565  2.3226  0.7375  2.8434
  224MOL0     H29514   6.753   7.903  -0.511  0.4806 -0.1578  0.4411
  224MOL0     H29515   6.757   7.999  -0.733  0.9658 -0.1191  2.4056
  224MOL0     H29516   6.736   7.839  -0.815 -2.4684  0.4618  0.2771
  224MOL0     H29517   6.970   7.906  -0.628  0.7878 -1.8034  0.1592
  224MOL0     H29518   6.955   7.769  -0.735  1.0145  0.1272 -4.0424
  224MOL0     H29519   7.102   7.944  -0.810  1.0985 -1.6957 -2.5686
  224MOL0     H29520   6.970   8.053  -0.836 -0.8516  1.4534  4.6941
  224MOL0     H29521   7.093   7.698  -0.956  2.0664  0.0996 -0.0283
  224MOL0     H29522   6.910   7.647  -1.320  1.0609 -4.3793 -1.1519
  224MOL0     H29523   6.950   7.534  -1.196  0.1295  0.8083  2.8728
  224MOL0     H29524   7.196   7.618  -1.210 -1.3210 -3.0673  0.8783
  224MOL0     H29525   7.135   7.733  -1.327 -0.8363  1.7870  3.1813
  224MOL0     H29526   7.083   7.523  -1.489  0.2682 -0.4101 -0.1207
  224MOL0     H29527   7.248   7.545  -1.459  0.2775 -0.4192  0.9493
  224MOL0     H29528   7.156   7.296  -1.419 -2.0196 -0.5095 -0.3659
  224MOL0     H29529   7.090   7.375  -1.283 -0.6911 -3.4778 -1.6565
  224MOL0     H29530   7.516   7.261  -1.195  1.7941  0.4094 -0.7433
  224MOL0     H29531   7.687   7.130  -1.318 -1.0872  0.6898  2.0494
  224MOL0     H29532   7.775   7.168  -1.863 -2.9315 -0.1320  0.2191
  224MOL0     H29533   7.965   7.098  -2.010 -2.0365  1.8509  1.3445
  224MOL0     H29534   8.052   6.658  -2.021 -1.3729  0.5197  0.8943
  224MOL0     H29535   8.203   6.738  -1.987  0.4081 -3.0857 -1.0656
  224MOL0     H29536   8.134   6.711  -2.279  2.0641  3.7264 -0.8600
  224MOL0     H29537   8.228   6.608  -2.164  0.5557 -0.7037  1.4220
  224MOL0     H29538   8.356   6.818  -2.114 -0.7590  1.3060 -0.3424
  224MOL0     H29539   8.293   6.889  -2.267 -0.4308  0.5521  0.3450
  224MOL0     H29540   8.524   6.777  -2.293 -0.4104  2.1350  0.4252
  224MOL0     H29541   8.465   6.633  -2.223 -2.7327 -1.0430  0.7108
  224MOL0     H29542   8.351   6.759  -2.499  2.5229 -0.7796 -1.7515
  224MOL0     H29543   8.289   6.620  -2.417  2.1325 -0.0951  3.5889
  224MOL0     H29544   8.488   6.493  -2.480  2.7365  0.0785 -1.7892
  224MOL0     H29545   8.574   6.644  -2.504  0.2001 -0.1893 -2.3887
  224MOL0     H29546   8.342   6.526  -2.667 -0.4852 -1.0114  0.8162
  224MOL0     H29547   8.410   6.672  -2.717 -0.3923 -2.3947 -3.7110
  224MOL0     H29548   8.585   6.414  -2.684 -0.1569 -0.9180 -0.9415
  224MOL0     H29549   8.622   6.544  -2.789  1.0397 -1.3237 -0.5630
  224MOL0     H29550   7.911   6.687  -1.864  1.4621 -0.5519  1.3490
  224MOL0     H29551   7.728   6.780  -1.710  1.9046 -2.1396  1.0433
  224MOL0     H29552   7.483   7.193  -1.681 -2.3333 -1.3790 -0.3521
  224MOL0     H29553   7.323   7.334  -1.577 -0.4390 -1.2122 -1.1873
  224MOL0     H29554   5.876   7.890  -0.411 -1.0454 -0.2167  0.1653
  224MOL0     H29555   5.721   8.057  -0.312  0.3386  1.1596  1.0774
  224MOL0     H29556   5.698   8.474  -0.188  1.0569 -4.2674  1.5557
  224MOL0     H29557   5.567   8.689  -0.142  2.5795  0.2903 -0.6634
  224MOL0     H29558   5.456   8.861  -0.038  1.6036  1.5451 -1.9583
  224MOL0     H29559   5.598   8.957  -0.009 -1.0120  0.1756 -0.4021
  224MOL0     H29560   5.368   9.048   0.033  0.3728 -1.9780 -1.6996
  224MOL0     H29561   5.350   8.969   0.188 -0.9749 -4.1110 -3.4457
  224MOL0     H29562   5.400   9.189   0.211 -3.2011 -1.9776 -2.3518
  224MOL0     H29563   5.559   9.177   0.127  1.1586  1.1618  0.0859
  224MOL0     H29564   5.631   9.000   0.293  2.8241  1.1496  3.4674
  224MOL0     H29565   5.633   9.156   0.335 -0.0235  0.7564 -1.4648
  224MOL0     H29566   5.403   8.941   0.631  0.5386 -0.5681  0.0617
  224MOL0     H29567   5.658   8.617   0.267  1.1835 -0.1435  0.8339
  224MOL0     H29568   5.790   8.422   0.210  4.1650 -0.4292 -2.3686
  225MOL0     O29569  10.411   6.643   5.432  0.2869 -0.5406  0.2141
  225MOL0     C29570  10.532   6.634   5.421 -0.1603  0.2088 -0.0289
  225MOL0     O29571  10.626   6.686   5.508  0.9115 -0.0211 -0.6084
  225MOL0     C29572  10.588   6.767   5.605  0.8034 -0.4317  0.1611
  225MOL0     C29573  10.588   6.714   5.731 -0.4038 -1.0810 -0.4849
  225MOL0     C29574  10.551   6.789   5.843  0.5414 -0.3987 -1.0983
  225MOL0     C29575  10.505   6.925   5.835 -0.0584  0.7676  0.3318
  225MOL0     O29576  10.467   6.992   5.950 -0.6804 -0.1931 -0.3961
  225MOL0     C29577  10.458   6.917   6.072  0.7733  0.5748 -0.3527
  225MOL0     C29578  10.438   7.010   6.191  0.6775  0.5224 -0.7196
  225MOL0     C29579  10.443   6.947   6.329 -0.6532 -0.1445 -0.0982
  225MOL0     C29580  10.307   6.894   6.377 -0.4395  1.2969 -0.7068
  225MOL0     C29581  10.322   6.807   6.507  0.1188 -0.2849  1.0042
  225MOL0     C29582  10.418   6.865   6.614  0.5468  0.0264 -1.4439
  225MOL0     C29583  10.455   6.746   6.704 -0.2363  0.5610 -0.0460
  225MOL0     C29584  10.606   6.723   6.700  0.4697 -0.2015 -0.5667
  225MOL0     N29585  10.640   6.604   6.778  0.6048  0.6503  0.5743
  225MOL0     C29586  10.671   6.499   6.706  0.0616 -0.0839  0.7010
  225MOL0     C29587  10.712   6.408   6.794  0.0667  0.1025 -0.0658
  225MOL0     C29588  10.752   6.270   6.752 -1.1100 -0.0368  0.2979
  225MOL0     C29589  10.904   6.247   6.754 -0.9881 -0.5362 -0.7118
  225MOL0     C29590  10.988   6.252   6.885 -0.4472  0.0122 -0.9831
  225MOL0     C29591  10.906   6.187   6.996 -0.1155  0.0179 -0.1131
  225MOL0     O29592  10.975   6.169   7.123  0.8519  0.3520 -0.3757
  225MOL0     C29593  11.042   6.269   7.160  0.1151 -0.1414  0.4117
  225MOL0     C29594  10.988   6.402   7.167 -0.9197  0.1969 -0.1705
  225MOL0     C29595  11.062   6.515   7.208 -0.1948  0.9198  0.7459
  225MOL0     C29596  11.200   6.491   7.246  1.0101 -0.7982  0.6755
  225MOL0     C29597  11.288   6.607   7.282  0.0391 -0.0169  0.3851
  225MOL0     O29598  11.405   6.577   7.351 -0.0021  0.2158 -0.8978
  225MOL0     C29599  11.480   6.677   7.410  0.5362  0.6383 -0.0858
  225MOL0     C29600  11.426   6.768   7.507 -0.2252  0.1736  0.5395
  225MOL0     C29601  11.506   6.865   7.561  0.1739 -0.6824  0.2926
  225MOL0     C29602  11.637   6.876   7.518 -0.7339 -0.0758 -0.4637
  225MOL0     O29603  11.712   6.987   7.551  0.1969 -0.1602  0.7244
  225MOL0     C29604  11.642   7.117   7.539 -0.3029  0.4637 -0.8117
  225MOL0     C29605  11.725   7.243   7.578  0.5389  0.2203  0.0811
  225MOL0     C29606  11.785   7.235   7.727 -0.4957 -0.3193 -0.3364
  225MOL0     C29607  11.862   7.370   7.756  0.1008 -0.4661 -0.5682
  225MOL0     C29608  11.761   7.481   7.769 -0.2631 -0.4149 -0.1863
  225MOL0     C29609  11.821   7.606   7.823  0.2763  0.0361 -0.1090
  225MOL0     C29610  11.726   7.723   7.838 -0.1548 -0.7120 -0.3823
  225MOL0     C29611  11.723   7.785   7.705  0.8462 -0.3212  1.0192
  225MOL0    Cl29612  11.584   7.896   7.705  0.1079  0.3326  0.0110
  225MOL0     C29613  11.693   6.782   7.437  0.7060  0.3791 -0.9023
  225MOL0     C29614  11.616   6.684   7.375  1.0202 -0.1381  0.2892
  225MOL0     O29615  11.243   6.715   7.253 -0.4944 -0.3297  0.1176
  225MOL0     C29616  11.249   6.355   7.253  0.0889 -0.5415  0.9790
  225MOL0     C29617  11.176   6.247   7.212  0.8319  0.3094  0.2355
  225MOL0     N29618  10.725   6.475   6.909 -0.9165 -0.2604 -0.4697
  225MOL0     N29619  10.683   6.596   6.901 -0.1188  1.0931  0.7558
  225MOL0     C29620  10.504   6.977   5.711 -0.1148  0.4479  0.4247
  225MOL0     C29621  10.554   6.903   5.600  0.5884 -0.1800  0.3739
  225MOL0     C29622  10.570   6.551   5.312 -0.5447 -0.1235 -0.2898
  225MOL0     C29623  10.475   6.496   5.224 -0.3930 -0.1151 -0.0112
  225MOL0     C29624  10.507   6.418   5.115  0.2025  0.9936  0.0935
  225MOL0     C29625  10.636   6.385   5.100 -0.6139 -0.2162  0.0324
  225MOL0     O29626  10.669   6.302   4.987  0.3148  0.2581  0.3105
  225MOL0     C29627  10.651   6.170   5.027  0.3112 -0.1852 -0.8761
  225MOL0     C29628  10.758   6.087   4.966 -1.3674  0.5973 -0.1985
  225MOL0     C29629  10.721   5.928   4.974  0.2252  0.2991 -0.2592
  225MOL0     C29630  10.799   5.839   4.873  0.3546  0.2622 -0.4225
  225MOL0     C29631  10.938   5.830   4.916 -1.1000 -0.2208  0.3935
  225MOL0     C29632  11.058   5.823   4.933 -0.7295 -0.9159 -0.4318
  225MOL0     C29633  10.732   6.432   5.186 -0.6873  0.3264  0.2766
  225MOL0     C29634  10.706   6.521   5.291  0.2019 -1.3491 -0.7513
  225MOL0     H29635  10.615   6.609   5.732  3.3692 -0.2961 -1.9177
  225MOL0     H29636  10.550   6.721   5.927 -0.3073 -2.0131 -2.3404
  225MOL0     H29637  10.550   6.860   6.088 -0.6768 -1.2313  2.5018
  225MOL0     H29638  10.376   6.845   6.061  1.3961 -0.0271 -1.2757
  225MOL0     H29639  10.337   7.050   6.176 -0.4056 -2.3435 -1.8265
  225MOL0     H29640  10.502   7.099   6.189 -0.6576  1.5398 -0.1241
  225MOL0     H29641  10.461   7.034   6.393 -0.1103  3.8677 -5.1336
  225MOL0     H29642  10.528   6.878   6.335  1.4663  2.3900  0.6758
  225MOL0     H29643  10.243   6.980   6.402  0.6659  2.8950 -2.9945
  225MOL0     H29644  10.249   6.834   6.306 -0.8190 -0.1843  0.8067
  225MOL0     H29645  10.377   6.722   6.467 -0.0654 -0.0791  0.3099
  225MOL0     H29646  10.228   6.773   6.552  0.1234  0.0694  1.2879
  225MOL0     H29647  10.371   6.946   6.671 -1.2943 -0.0766 -2.7256
  225MOL0     H29648  10.514   6.904   6.582  1.4508 -0.4123  0.5935
  225MOL0     H29649  10.433   6.772   6.808  1.4585 -2.5698  1.1959
  225MOL0     H29650  10.407   6.652   6.676 -1.9450  0.6682  2.2478
  225MOL0     H29651  10.659   6.811   6.739  1.6923 -0.1834 -2.1909
  225MOL0     H29652  10.637   6.729   6.596 -0.6816  1.3908 -0.8744
  225MOL0     H29653  10.661   6.491   6.598 -1.2788  0.7041  0.7410
  225MOL0     H29654  10.712   6.246   6.653  0.4423  2.3875 -1.0044
  225MOL0     H29655  10.699   6.194   6.810 -0.4404 -0.6574  0.1174
  225MOL0     H29656  10.952   6.308   6.676  0.0008  0.4819  0.6488
  225MOL0     H29657  10.917   6.145   6.716 -0.6230 -0.0572 -1.9179
  225MOL0     H29658  11.088   6.207   6.879 -0.9644 -1.3778  0.4594
  225MOL0     H29659  11.007   6.356   6.912 -4.0856  0.0439  2.2337
  225MOL0     H29660  10.887   6.088   6.954  1.6829 -0.3840 -0.0812
  225MOL0     H29661  10.811   6.233   7.024 -1.7947 -2.6504 -1.0485
  225MOL0     H29662  10.889   6.431   7.132  0.0363  0.9345 -2.4277
  225MOL0     H29663  11.015   6.613   7.211  1.1181  1.6919 -1.3706
  225MOL0     H29664  11.317   6.774   7.507 -0.2603 -0.0707  1.8692
  225MOL0     H29665  11.459   6.936   7.629  0.3281 -0.5972  0.3102
  225MOL0     H29666  11.550   7.105   7.597 -0.0986 -2.8201 -0.9793
  225MOL0     H29667  11.609   7.120   7.435  2.3129 -3.9146 -2.0611
  225MOL0     H29668  11.661   7.332   7.574 -0.8918 -0.8281 -1.2541
  225MOL0     H29669  11.808   7.265   7.509 -0.5555  1.5395 -0.8693
  225MOL0     H29670  11.855   7.153   7.743  1.2115  0.8780 -1.3451
  225MOL0     H29671  11.703   7.228   7.799  0.5332 -0.4806  0.8439
  225MOL0     H29672  11.925   7.350   7.843 -0.9314 -1.0730  0.0564
  225MOL0     H29673  11.931   7.396   7.675  1.6162  0.7049  1.0102
  225MOL0     H29674  11.673   7.450   7.826 -0.3155  0.8448  0.4720
  225MOL0     H29675  11.720   7.507   7.671 -3.9202  1.5246  1.6703
  225MOL0     H29676  11.918   7.627   7.776 -0.9950 -0.6271 -3.3020
  225MOL0     H29677  11.852   7.579   7.924 -5.8310 -2.0127  1.6778
  225MOL0     H29678  11.624   7.691   7.864 -0.5011  0.9172  0.4223
  225MOL0     H29679  11.764   7.799   7.908 -0.2505 -0.8874 -0.1380
  225MOL0     H29680  11.714   7.711   7.625 -1.1851 -0.1364  1.0357
  225MOL0     H29681  11.815   7.840   7.685  0.5709 -0.2767 -0.2358
  225MOL0     H29682  11.795   6.789   7.400  1.6417  0.0217  1.4400
  225MOL0     H29683  11.647   6.605   7.308  0.6465  0.1946 -0.2756
  225MOL0     H29684  11.347   6.338   7.297 -1.1340 -1.4803  3.5146
  225MOL0     H29685  11.216   6.146   7.213  3.3936  1.2220 -0.5166
  225MOL0     H29686  10.471   7.079   5.691  0.1275  0.0949 -2.1223
  225MOL0     H29687  10.565   6.969   5.514 -0.1722  2.7400  2.3771
  225MOL0     H29688  10.369   6.516   5.237 -0.8169 -1.4831 -1.1092
  225MOL0     H29689  10.435   6.406   5.035 -0.9651  0.8650  1.1355
  225MOL0     H29690  10.548   6.150   4.995 -0.8868  3.7198  0.0679
  225MOL0     H29691  10.660   6.143   5.132 -0.2045 -0.9883 -1.0258
  225MOL0     H29692  10.762   6.110   4.859 -2.0679  4.0083  0.4247
  225MOL0     H29693  10.856   6.092   5.014 -1.8363 -4.3705  1.8913
  225MOL0     H29694  10.619   5.912   4.939  0.0763 -2.8126  1.2567
  225MOL0     H29695  10.738   5.893   5.077  0.0964 -0.7344 -0.5742
  225MOL0     H29696  10.768   5.736   4.890  0.9054 -0.3227 -2.6204
  225MOL0     H29697  10.789   5.877   4.771  0.7826  1.8684  0.0993
  225MOL0     H29698  11.160   5.807   4.961 -0.3546 -0.4388 -1.4911
  225MOL0     H29699  10.828   6.390   5.159 -1.6335 -1.1823 -0.8757
  225MOL0     H29700  10.782   6.579   5.343 -3.2883 -0.1907  3.8210
  226MOL0     O29701  10.574   1.153   5.025 -0.2014 -0.2775 -0.7743
  226MOL0     C29702  10.620   1.273   5.015  0.6794  0.6754  0.8905
  226MOL0     O29703  10.592   1.362   4.911 -0.2611  0.6107  0.3354
  226MOL0     C29704  10.482   1.333   4.827  0.2254 -0.1120 -0.8024
  226MOL0     C29705  10.501   1.281   4.700  0.1108 -0.2899 -0.2724
  226MOL0     C29706  10.394   1.242   4.616 -0.3867 -0.2839  0.0595
  226MOL0     C29707  10.260   1.261   4.663  0.6877  0.5236 -0.7312
  226MOL0     O29708  10.151   1.226   4.589 -0.7421 -0.1891 -0.4117
  226MOL0     C29709  10.012   1.229   4.642 -1.1138 -0.5450 -0.1128
  226MOL0     C29710   9.927   1.157   4.546 -0.4970 -0.7668 -0.0132
  226MOL0     C29711   9.976   1.021   4.498 -0.0127  0.0355  0.0642
  226MOL0     C29712  10.003   1.016   4.345 -0.4933  0.0108  0.7003
  226MOL0     C29713  10.000   0.872   4.296  0.3511 -0.0081 -0.3241
  226MOL0     C29714  10.057   0.849   4.161  0.5429 -0.6581 -0.4059
  226MOL0     C29715   9.944   0.892   4.060 -0.4846 -0.5339  0.7239
  226MOL0     C29716   9.996   0.906   3.924 -0.4651 -0.2755 -0.1506
  226MOL0     N29717   9.885   0.921   3.834 -0.4374 -0.5126 -0.5451
  226MOL0     C29718   9.866   1.039   3.760 -0.3599  0.6557  0.3455
  226MOL0     C29719   9.784   0.992   3.651 -0.5454 -0.2896  0.4151
  226MOL0     C29720   9.746   1.082   3.531  0.3203 -0.3031 -1.4678
  226MOL0     C29721   9.818   1.063   3.401 -0.4190  0.2738  0.8152
  226MOL0     C29722   9.798   0.932   3.333  1.0953 -0.6640  0.2061
  226MOL0     C29723   9.876   0.911   3.203 -0.7696  0.2269 -0.2638
  226MOL0     O29724   9.883   1.024   3.111 -0.3847 -0.4736 -0.8053
  226MOL0     C29725   9.813   1.022   2.995 -0.1608 -0.8762  0.1120
  226MOL0     C29726   9.873   1.084   2.891  0.6589 -0.1168 -0.1183
  226MOL0     C29727   9.816   1.111   2.766 -0.3084 -0.1903 -0.3758
  226MOL0     C29728   9.694   1.058   2.747 -0.9433  0.8225  0.5985
  226MOL0     C29729   9.622   1.076   2.628  0.7150 -0.2678 -0.1157
  226MOL0     O29730   9.489   1.068   2.633  0.2928  0.1155 -0.2555
  226MOL0     C29731   9.414   1.087   2.521 -0.5144 -0.0374  0.0237
  226MOL0     C29732   9.373   0.967   2.468 -0.2511  0.1414  0.2576
  226MOL0     C29733   9.273   0.975   2.373  0.2326  0.0864 -0.1613
  226MOL0     C29734   9.230   1.101   2.325 -0.0738  0.5888 -0.1937
  226MOL0     O29735   9.127   1.092   2.235 -0.0959  0.2426 -0.1860
  226MOL0     C29736   9.038   1.203   2.218  0.8244  0.4081  0.5662
  226MOL0     C29737   8.895   1.151   2.192 -0.0624 -0.0590  0.7680
  226MOL0     C29738   8.795   1.277   2.150 -0.8065  0.7377 -0.5069
  226MOL0     C29739   8.775   1.377   2.264 -0.1195  0.1817 -0.1067
  226MOL0     C29740   8.681   1.493   2.240  0.4442  0.1900 -0.3025
  226MOL0     C29741   8.735   1.616   2.171 -0.0089 -0.1258  0.2283
  226MOL0     C29742   8.632   1.736   2.184  0.9001 -0.0127  0.9629
  226MOL0     C29743   8.632   1.802   2.314  1.0191 -1.1038 -0.3442
  226MOL0    Cl29744   8.575   1.968   2.336 -0.0694  0.1090  0.2069
  226MOL0     C29745   9.286   1.221   2.373  1.1289  0.9012  0.6556
  226MOL0     C29746   9.368   1.216   2.478 -0.5740  0.4554 -0.1620
  226MOL0     O29747   9.678   1.080   2.524  0.1261  0.5739  1.3099
  226MOL0     C29748   9.638   0.961   2.843 -0.6971 -0.7042  0.7429
  226MOL0     C29749   9.696   0.946   2.968 -0.6212  0.6033  0.0784
  226MOL0     N29750   9.751   0.863   3.680  0.1693 -0.6401 -0.1446
  226MOL0     N29751   9.808   0.825   3.790  1.4290 -0.4741  0.1274
  226MOL0     C29752  10.236   1.317   4.796 -0.2881  1.3068  0.6318
  226MOL0     C29753  10.347   1.353   4.875  0.5244  1.2892  0.3440
  226MOL0     C29754  10.725   1.314   5.114  0.1028 -0.5615  0.2715
  226MOL0     C29755  10.825   1.230   5.154  0.6354 -0.0638  0.0179
  226MOL0     C29756  10.938   1.272   5.229 -0.3806 -0.7023  0.1760
  226MOL0     C29757  10.940   1.409   5.281 -0.2748  0.5447  0.0074
  226MOL0     O29758  11.043   1.450   5.352  0.1468 -0.2904 -0.8589
  226MOL0     C29759  11.017   1.441   5.501 -0.6953  0.2692 -1.0530
  226MOL0     C29760  11.151   1.450   5.579 -0.4051 -0.5424  0.2315
  226MOL0     C29761  11.144   1.512   5.717 -0.4369  0.2473 -0.5724
  226MOL0     C29762  11.208   1.417   5.823  0.3282 -0.5206 -0.1841
  226MOL0     C29763  11.234   1.494   5.946  0.7419 -0.2639 -0.9361
  226MOL0     C29764  11.237   1.554   6.050  1.3974 -0.6715  0.2721
  226MOL0     C29765  10.835   1.491   5.247  0.5057 -0.0101  0.4588
  226MOL0     C29766  10.732   1.450   5.161  0.3222  0.1263 -0.9555
  226MOL0     H29767  10.603   1.254   4.674  0.0644 -0.4809 -0.2509
  226MOL0     H29768  10.412   1.199   4.518  0.3681  0.6290 -0.2173
  226MOL0     H29769   9.995   1.337   4.646  1.7346  0.1271 -2.2381
  226MOL0     H29770  10.010   1.182   4.740 -1.2142 -3.5525 -1.4499
  226MOL0     H29771   9.910   1.220   4.459 -4.6130  0.5675  1.5051
  226MOL0     H29772   9.825   1.157   4.585 -0.9169 -0.4080 -1.0632
  226MOL0     H29773   9.903   0.942   4.516 -0.8750  1.4449  3.5148
  226MOL0     H29774  10.053   0.985   4.567 -0.9017 -4.5128 -1.0332
  226MOL0     H29775   9.936   1.083   4.290  0.8763  1.1536  0.3799
  226MOL0     H29776  10.101   1.062   4.329 -1.6254  2.5127  0.3582
  226MOL0     H29777   9.899   0.835   4.310  1.3696 -2.6313  0.7748
  226MOL0     H29778  10.062   0.815   4.365 -0.9823 -1.1341 -0.0182
  226MOL0     H29779  10.084   0.743   4.153 -0.5989 -1.3563  3.1615
  226MOL0     H29780  10.147   0.912   4.155  2.3003 -2.7153  1.9889
  226MOL0     H29781   9.866   0.815   4.054 -0.0607 -1.0498  1.6253
  226MOL0     H29782   9.907   0.994   4.071 -0.0785 -0.0732 -1.5506
  226MOL0     H29783  10.041   0.811   3.896 -1.2104 -0.2800 -1.4500
  226MOL0     H29784  10.064   0.991   3.911 -0.9029  0.4107  1.7805
  226MOL0     H29785   9.909   1.136   3.782 -0.1245  1.2254 -2.3095
  226MOL0     H29786   9.760   1.185   3.565  1.9606 -1.1888  0.7706
  226MOL0     H29787   9.644   1.049   3.512 -0.5078  0.3519  1.4620
  226MOL0     H29788   9.926   1.065   3.418 -0.3409 -0.9507  0.5344
  226MOL0     H29789   9.799   1.151   3.339 -0.0591 -0.2032  0.0172
  226MOL0     H29790   9.785   0.851   3.405 -0.7413 -1.3565 -0.8437
  226MOL0     H29791   9.692   0.936   3.309  0.3215  0.9374  3.3447
  226MOL0     H29792   9.815   0.826   3.169  1.6497 -1.8132  0.1684
  226MOL0     H29793   9.979   0.878   3.218  0.2434  1.6613 -3.3373
  226MOL0     H29794   9.976   1.115   2.905  1.4331 -2.8218  0.8397
  226MOL0     H29795   9.855   1.171   2.684  4.1859 -0.9310  0.9412
  226MOL0     H29796   9.405   0.867   2.493  1.5642  0.7498  0.5202
  226MOL0     H29797   9.222   0.887   2.335  0.9312  0.3735 -1.8592
  226MOL0     H29798   9.071   1.254   2.128  1.1531  0.1840  0.5552
  226MOL0     H29799   9.034   1.280   2.295  1.5019  2.5014 -1.3741
  226MOL0     H29800   8.857   1.088   2.272 -3.7975  2.9905  1.6988
  226MOL0     H29801   8.904   1.091   2.102 -0.0533  1.1087 -0.0359
  226MOL0     H29802   8.699   1.234   2.119 -2.4118  0.8523  3.6282
  226MOL0     H29803   8.832   1.332   2.063 -3.1605  1.8801 -0.8583
  226MOL0     H29804   8.736   1.324   2.352 -1.5142  1.6683  0.2120
  226MOL0     H29805   8.876   1.416   2.280 -0.7316  1.7621  0.0660
  226MOL0     H29806   8.646   1.516   2.342 -1.2784  0.9028 -1.0044
  226MOL0     H29807   8.589   1.460   2.190  2.2248 -1.1993 -2.8809
  226MOL0     H29808   8.756   1.580   2.070 -0.9813 -1.4314  0.4708
  226MOL0     H29809   8.834   1.643   2.208  0.4551 -1.1211 -0.2582
  226MOL0     H29810   8.657   1.817   2.115  0.4545  1.4332  2.4307
  226MOL0     H29811   8.532   1.697   2.165  0.9290 -1.2125  2.9673
  226MOL0     H29812   8.737   1.806   2.342  1.7525  0.2765 -2.9340
  226MOL0     H29813   8.571   1.743   2.383 -1.6692 -0.2946 -1.8613
  226MOL0     H29814   9.240   1.310   2.331 -0.9122 -0.9917 -1.5119
  226MOL0     H29815   9.395   1.308   2.529  1.2641  0.2384 -0.6555
  226MOL0     H29816   9.536   0.927   2.830 -1.4775  1.8284 -0.5991
  226MOL0     H29817   9.645   0.882   3.040  0.2553  0.6318  0.7344
  226MOL0     H29818  10.139   1.334   4.842 -0.3834 -1.9879  1.9396
  226MOL0     H29819  10.330   1.382   4.978 -0.3167  1.1801  0.2436
  226MOL0     H29820  10.838   1.126   5.124  0.9740 -0.6732  2.1416
  226MOL0     H29821  11.029   1.213   5.243  0.0107 -0.3732 -0.9005
  226MOL0     H29822  10.954   1.360   5.538 -1.5677  0.9041 -1.0924
  226MOL0     H29823  10.961   1.533   5.524 -0.2206  0.2486  0.2410
  226MOL0     H29824  11.198   1.353   5.600 -1.6372 -1.0762  0.6053
  226MOL0     H29825  11.212   1.514   5.515 -3.7181  0.1440 -2.5053
  226MOL0     H29826  11.041   1.536   5.743 -1.0663 -1.4110 -1.3301
  226MOL0     H29827  11.202   1.604   5.709  2.3171 -1.1251  1.6375
  226MOL0     H29828  11.146   1.328   5.841  1.1306 -1.0063  0.2690
  226MOL0     H29829  11.298   1.387   5.768 -0.4020 -1.9267 -0.6672
  226MOL0     H29830  11.244   1.597   6.148 -4.2757 -4.3468  2.7987
  226MOL0     H29831  10.859   1.593   5.273  3.5253 -0.4773 -0.0326
  226MOL0     H29832  10.647   1.515   5.144  0.1957  0.5007  0.8632
  227MOL0     O29833   0.485   0.859  10.366 -0.0302  0.2891  0.1107
  227MOL0     C29834   0.609   0.849  10.371 -0.3944  0.2028 -0.8376
  227MOL0     O29835   0.695   0.793  10.280  0.4538 -0.3490  0.4207
  227MOL0     C29836   0.644   0.690  10.202 -0.3463 -1.1344 -0.3493
  227MOL0     C29837   0.641   0.560  10.253  0.1805 -0.5631  0.2061
  227MOL0     C29838   0.562   0.466  10.176  0.5142 -0.4410  0.7659
  227MOL0     C29839   0.490   0.500  10.051  0.0651 -1.0228 -0.3871
  227MOL0     O29840   0.402   0.412   9.989  0.2988 -0.5737 -0.6090
  227MOL0     C29841   0.384   0.277  10.029  0.1090  0.9718 -0.5496
  227MOL0     C29842   0.506   0.183  10.001 -0.5718  0.8756 -0.8698
  227MOL0     C29843   0.550   0.196   9.860 -0.1280  0.4422  0.7169
  227MOL0     C29844   0.670   0.110   9.830  0.2003 -0.0486 -0.2225
  227MOL0     C29845   0.699   0.083   9.675 -0.1469  0.6206  0.0473
  227MOL0     C29846   0.715   0.211   9.596 -0.3104 -0.4916 -1.1818
  227MOL0     C29847   0.816   0.205   9.477 -0.8141 -0.2565  0.9822
  227MOL0     C29848   0.969   0.197   9.528  0.3338 -0.9531 -0.4951
  227MOL0     N29849   1.061   0.230   9.418 -0.1537 -0.3856 -0.6255
  227MOL0     C29850   1.065   0.157   9.306  0.7033 -0.2115  0.3227
  227MOL0     C29851   1.149   0.227   9.231  0.3030 -0.6465 -0.0941
  227MOL0     C29852   1.156   0.209   9.084  0.1869  0.7697  0.0104
  227MOL0     C29853   1.309   0.196   9.054  0.5377  0.4479 -0.2744
  227MOL0     C29854   1.321   0.127   8.920  0.4337  0.3891  0.4752
  227MOL0     C29855   1.466   0.147   8.873  0.2807  0.6856  0.2914
  227MOL0     O29856   1.502   0.285   8.829 -0.0779 -0.0708  0.0537
  227MOL0     C29857   1.535   0.303   8.697  1.2585  0.3043 -1.0010
  227MOL0     C29858   1.446   0.268   8.593 -0.0487 -0.9850  0.6298
  227MOL0     C29859   1.490   0.304   8.461 -0.2060 -0.3002 -0.5688
  227MOL0     C29860   1.606   0.378   8.432 -0.6934 -0.2769 -0.3228
  227MOL0     C29861   1.642   0.427   8.303 -0.1234  0.3962  0.1412
  227MOL0     O29862   1.745   0.510   8.300 -0.3304  0.1502 -0.6932
  227MOL0     C29863   1.776   0.578   8.181 -0.9896  0.3330  0.9563
  227MOL0     C29864   1.813   0.517   8.057 -0.4238  0.9893  0.6372
  227MOL0     C29865   1.850   0.600   7.946 -0.0328  0.4655 -0.1159
  227MOL0     C29866   1.848   0.739   7.937 -0.3276 -0.9930  1.4486
  227MOL0     O29867   1.879   0.805   7.827  0.1965 -0.6568 -0.2870
  227MOL0     C29868   1.775   0.836   7.732 -0.7841  0.1600 -0.3615
  227MOL0     C29869   1.729   0.707   7.660  0.3860 -0.0551 -1.1546
  227MOL0     C29870   1.615   0.741   7.565  0.9019 -0.2056  0.5444
  227MOL0     C29871   1.555   0.609   7.500 -0.5637 -0.3140  0.9483
  227MOL0     C29872   1.661   0.558   7.391 -0.0676  1.7147  0.0753
  227MOL0     C29873   1.610   0.471   7.282  0.0417  0.0688 -0.5224
  227MOL0     C29874   1.572   0.332   7.313 -1.1379  0.3897 -0.6486
  227MOL0     C29875   1.594   0.230   7.195 -0.2249 -0.2412  0.2837
  227MOL0    Cl29876   1.524   0.293   7.042 -0.0380 -0.3572 -0.1812
  227MOL0     C29877   1.817   0.796   8.062 -0.5330  0.6993  0.2281
  227MOL0     C29878   1.783   0.718   8.177 -0.3891 -1.5759  1.5001
  227MOL0     O29879   1.588   0.377   8.202 -0.1902 -0.4322 -0.3157
  227MOL0     C29880   1.696   0.383   8.536 -0.3606  0.3540 -0.5188
  227MOL0     C29881   1.657   0.345   8.667 -0.5363  0.9177 -0.1267
  227MOL0     N29882   1.189   0.339   9.307 -0.2861  0.3483 -0.4456
  227MOL0     N29883   1.137   0.338   9.422  0.1060  0.2521 -0.2726
  227MOL0     C29884   0.517   0.628  10.004 -0.4976 -0.0587  0.3557
  227MOL0     C29885   0.601   0.719  10.072 -0.5846 -0.4148  0.4247
  227MOL0     C29886   0.663   0.907  10.501  0.2303  0.0112 -0.1057
  227MOL0     C29887   0.777   0.854  10.565 -0.4221  0.8529 -0.1888
  227MOL0     C29888   0.838   0.912  10.680  0.5989  0.1774 -0.5130
  227MOL0     C29889   0.774   1.022  10.740  0.9116  0.4366  0.1849
  227MOL0     O29890   0.835   1.060  10.855  0.2215  0.1731 -0.8453
  227MOL0     C29891   0.788   1.175  10.925 -0.2907  0.2532 -0.1472
  227MOL0     C29892   0.879   1.204  11.049 -0.1393  0.5902  0.9029
  227MOL0     C29893   0.889   1.085  11.145 -0.3666 -0.2217 -0.3317
  227MOL0     C29894   0.977   1.118  11.273  1.1758 -0.5448 -0.1152
  227MOL0     C29895   0.928   1.228  11.358 -0.7749 -0.7488 -0.3922
  227MOL0     C29896   0.882   1.324  11.415  0.7225  0.5370  1.1263
  227MOL0     C29897   0.655   1.075  10.680  0.9568  0.4735 -0.7876
  227MOL0     C29898   0.605   1.012  10.563  0.8541 -0.4962 -0.3723
  227MOL0     H29899   0.678   0.527  10.350 -1.6088 -0.0068  1.1136
  227MOL0     H29900   0.548   0.370  10.224  1.6622 -1.8738 -1.5995
  227MOL0     H29901   0.306   0.242   9.960  1.6685  2.4420 -3.2022
  227MOL0     H29902   0.346   0.263  10.131 -0.0077 -0.0561 -0.7242
  227MOL0     H29903   0.477   0.078  10.008  0.8623  0.3499 -2.2540
  227MOL0     H29904   0.587   0.211  10.069  0.5069 -4.3283  0.4033
  227MOL0     H29905   0.574   0.301   9.844 -0.0007  0.2225 -0.6573
  227MOL0     H29906   0.460   0.175   9.801 -1.5722  1.3898  2.4578
  227MOL0     H29907   0.754   0.153   9.884 -0.1293  1.4645 -0.8475
  227MOL0     H29908   0.658   0.014   9.881  0.0306 -2.5185 -4.4142
  227MOL0     H29909   0.614   0.022   9.642  0.7927 -0.4318 -0.5136
  227MOL0     H29910   0.791   0.024   9.674 -0.1148  0.5455  2.1693
  227MOL0     H29911   0.748   0.282   9.672 -1.7143 -2.6136  1.6486
  227MOL0     H29912   0.621   0.243   9.549  0.4223 -1.5303 -3.5126
  227MOL0     H29913   0.791   0.128   9.404 -0.9021 -0.4134  1.1786
  227MOL0     H29914   0.815   0.300   9.423  1.0053 -1.2173 -0.8773
  227MOL0     H29915   0.985   0.097   9.570  3.8439 -0.8497 -1.2557
  227MOL0     H29916   0.972   0.266   9.613 -1.2960 -1.8367  0.3189
  227MOL0     H29917   1.007   0.071   9.275 -1.7867  0.6865  2.1783
  227MOL0     H29918   1.112   0.291   9.026  0.3652  0.8295 -0.0422
  227MOL0     H29919   1.114   0.115   9.048  0.7770  0.6943 -0.5166
  227MOL0     H29920   1.358   0.126   9.123 -2.1302 -0.9606  0.3220
  227MOL0     H29921   1.364   0.291   9.057  0.2620  0.6090 -0.2623
  227MOL0     H29922   1.311   0.018   8.924  0.2563  0.4065  0.4864
  227MOL0     H29923   1.255   0.162   8.841  0.8294  0.4301  0.1562
  227MOL0     H29924   1.487   0.079   8.791 -0.4392  2.4669 -1.4412
  227MOL0     H29925   1.535   0.125   8.955 -0.8514 -0.7251  0.9095
  227MOL0     H29926   1.352   0.217   8.609 -0.8791  0.9765  2.2994
  227MOL0     H29927   1.417   0.276   8.386  0.4156 -5.3209  0.3991
  227MOL0     H29928   1.823   0.409   8.056  0.9265  1.0920  1.0573
  227MOL0     H29929   1.876   0.530   7.866  2.5024 -1.1650  1.9530
  227MOL0     H29930   1.823   0.901   7.657  3.0469 -0.2264  1.5170
  227MOL0     H29931   1.694   0.886   7.785  2.3136  0.9345  4.2761
  227MOL0     H29932   1.693   0.636   7.735  0.2577  1.1911 -0.0071
  227MOL0     H29933   1.812   0.662   7.604  0.7054 -0.5550 -0.3103
  227MOL0     H29934   1.646   0.814   7.490  0.8852 -1.3776 -0.6599
  227MOL0     H29935   1.533   0.792   7.617  1.1241  0.4723  0.2364
  227MOL0     H29936   1.525   0.534   7.574 -1.9269 -1.6058 -0.8256
  227MOL0     H29937   1.462   0.637   7.450  0.3619 -0.5265 -0.9900
  227MOL0     H29938   1.746   0.511   7.441  0.1998 -0.0332 -1.8812
  227MOL0     H29939   1.677   0.652   7.337 -2.7677  2.1270 -0.1534
  227MOL0     H29940   1.675   0.481   7.195  1.5151 -1.3332  0.3654
  227MOL0     H29941   1.517   0.522   7.252  0.3604  0.7335 -0.3984
  227MOL0     H29942   1.640   0.306   7.394  0.0481 -2.0897 -2.3290
  227MOL0     H29943   1.469   0.338   7.350 -0.1338  1.1853  2.3840
  227MOL0     H29944   1.555   0.135   7.232  3.4949 -2.1822 -0.3848
  227MOL0     H29945   1.695   0.201   7.165  0.3626  1.2209  0.7282
  227MOL0     H29946   1.817   0.904   8.073 -0.5531  0.6301  0.9533
  227MOL0     H29947   1.762   0.770   8.270 -2.9109  2.6069 -1.0750
  227MOL0     H29948   1.799   0.407   8.514  0.1947 -2.2995 -1.2678
  227MOL0     H29949   1.715   0.358   8.758 -0.6174  0.5677 -0.0230
  227MOL0     H29950   0.460   0.665   9.919  1.2467  2.9949  0.3438
  227MOL0     H29951   0.615   0.822  10.041  2.6922  0.3511  3.7340
  227MOL0     H29952   0.820   0.766  10.518  2.9904  1.7722  0.9921
  227MOL0     H29953   0.932   0.879  10.722  0.7769  1.3427  0.0510
  227MOL0     H29954   0.691   1.148  10.966 -2.3112  0.3789 -4.3114
  227MOL0     H29955   0.774   1.265  10.863 -1.3054  1.3409  1.5846
  227MOL0     H29956   0.977   1.231  11.008  1.5922 -3.0494  2.2166
  227MOL0     H29957   0.832   1.290  11.097  1.8824  1.0073  2.2517
  227MOL0     H29958   0.925   0.997  11.090 -3.7393 -2.5126  0.7913
  227MOL0     H29959   0.788   1.056  11.175  0.3871 -0.8560  1.8189
  227MOL0     H29960   0.985   1.038  11.348  0.3571  1.2674  2.0396
  227MOL0     H29961   1.073   1.147  11.230  0.2359  3.8352  0.2269
  227MOL0     H29962   0.843   1.410  11.464  3.5318  2.0001  0.9692
  227MOL0     H29963   0.586   1.147  10.721  1.8166  0.8183  0.1051
  227MOL0     H29964   0.517   1.054  10.516  2.5370 -1.0535 -4.3899
  228MOL0     O29965   2.704  10.542   6.656  0.5847  0.3491 -0.0367
  228MOL0     C29966   2.667  10.591   6.548 -0.1960  0.2754 -0.2039
  228MOL0     O29967   2.738  10.679   6.478  0.4295 -0.2479 -0.0803
  228MOL0     C29968   2.854  10.728   6.540 -0.5164 -1.2325 -0.3126
  228MOL0     C29969   2.957  10.655   6.597 -0.0505 -0.3127 -0.2689
  228MOL0     C29970   3.063  10.713   6.672 -0.0701  0.0460  0.2782
  228MOL0     C29971   3.070  10.855   6.674  0.1102  0.4723  0.5499
  228MOL0     O29972   3.169  10.927   6.737 -0.3587  0.2383  0.9117
  228MOL0     C29973   3.306  10.877   6.708 -0.6674  0.0358 -0.3546
  228MOL0     C29974   3.417  10.976   6.756  1.7183 -0.1328  0.2685
  228MOL0     C29975   3.445  11.082   6.652 -0.4919 -0.1043  0.8520
  228MOL0     C29976   3.588  11.116   6.668 -0.2599  0.2926 -0.5270
  228MOL0     C29977   3.650  11.216   6.565 -0.0286  0.2712  0.0886
  228MOL0     C29978   3.754  11.318   6.628  0.4933 -0.2195  0.8171
  228MOL0     C29979   3.758  11.429   6.523  0.6926 -0.9438  0.2915
  228MOL0     C29980   3.810  11.558   6.577 -1.0023 -0.8578  0.3781
  228MOL0     N29981   3.824  11.663   6.475 -0.1195  1.0048  0.4080
  228MOL0     C29982   3.875  11.636   6.350  0.6531  0.1182  0.2728
  228MOL0     C29983   3.876  11.756   6.274 -0.5027 -0.6272 -0.0701
  228MOL0     C29984   3.940  11.787   6.138 -0.6757 -0.4016  0.3713
  228MOL0     C29985   4.066  11.706   6.118  0.3214  0.2512 -0.1880
  228MOL0     C29986   4.129  11.753   5.985 -0.0646  1.0842 -0.0526
  228MOL0     C29987   4.216  11.870   5.998 -0.3727  0.8316  0.4994
  228MOL0     O29988   4.321  11.851   6.083 -0.7920  0.0096  0.0824
  228MOL0     C29989   4.374  11.970   6.144 -0.4377  0.3673  0.3941
  228MOL0     C29990   4.471  12.047   6.080 -0.5084  0.7432 -0.4615
  228MOL0     C29991   4.532  12.154   6.147 -0.3221 -0.5947 -0.1959
  228MOL0     C29992   4.479  12.209   6.260 -0.3839 -0.2241  0.0146
  228MOL0     C29993   4.539  12.327   6.319  0.3178  0.6346  0.5690
  228MOL0     O29994   4.669  12.380   6.286  0.0794  0.5187  0.2385
  228MOL0     C29995   4.712  12.501   6.325 -0.8048 -0.9529 -0.0776
  228MOL0     C29996   4.628  12.618   6.356  0.0258 -0.4099  1.4335
  228MOL0     C29997   4.681  12.740   6.389 -0.2854  0.2751 -0.4135
  228MOL0     C29998   4.818  12.759   6.393  0.1491 -0.3144  0.6960
  228MOL0     O29999   4.872  12.884   6.428  0.5376  0.0453 -0.2392
  228MOL0     C30000   4.797  13.006   6.425 -0.7141 -0.4194  0.3272
  228MOL0     C30001   4.869  13.094   6.532  0.1205 -0.6595  0.1844
  228MOL0     C30002   5.021  13.112   6.507  0.0201  0.4174  0.2243
  228MOL0     C30003   5.072  13.243   6.563  0.1799 -0.4741 -1.1251
  228MOL0     C30004   5.210  13.299   6.517 -0.4724  0.3945 -0.0468
  228MOL0     C30005   5.218  13.303   6.364 -0.5540 -0.2649  0.5742
  228MOL0     C30006   5.313  13.416   6.316  0.4288 -0.1516 -1.3338
  228MOL0     C30007   5.299  13.452   6.169 -0.0078 -0.4100 -0.7648
  228MOL0    Cl30008   5.370  13.608   6.113  0.2349  0.2083  0.1535
  228MOL0     C30009   4.904  12.642   6.362 -0.3202 -0.5189  0.1394
  228MOL0     C30010   4.854  12.516   6.335  0.0808 -0.7136 -0.2417
  228MOL0     O30011   4.474  12.379   6.414  0.2800  0.4666  0.7653
  228MOL0     C30012   4.390  12.131   6.335 -0.8791 -0.0625  0.0304
  228MOL0     C30013   4.337  12.013   6.269 -0.5423  0.0397 -0.1453
  228MOL0     N30014   3.805  11.848   6.354 -0.0704 -0.1260  0.4971
  228MOL0     N30015   3.769  11.789   6.464 -0.6580  0.4152 -0.7495
  228MOL0     C30016   2.968  10.927   6.602  0.3130 -0.7145 -0.6493
  228MOL0     C30017   2.864  10.863   6.545  0.4791 -0.5419 -0.1930
  228MOL0     C30018   2.541  10.549   6.492  0.2698  0.0168  0.6203
  228MOL0     C30019   2.485  10.610   6.369 -0.0641  0.0887  0.3483
  228MOL0     C30020   2.355  10.570   6.326  0.8301 -0.8120 -0.1282
  228MOL0     C30021   2.280  10.479   6.400  0.3137 -0.0037 -0.2364
  228MOL0     O30022   2.150  10.440   6.360  0.8636  0.4357  0.4040
  228MOL0     C30023   2.140  10.309   6.309 -0.5673  1.2620  0.3398
  228MOL0     C30024   2.248  10.265   6.204 -0.2729  1.0129  0.7685
  228MOL0     C30025   2.232  10.115   6.177 -0.3626 -0.5634 -0.1793
  228MOL0     C30026   2.109  10.073   6.095 -0.3622 -0.1751  0.1040
  228MOL0     C30027   2.108   9.930   6.106 -0.2767  0.7312  0.2090
  228MOL0     C30028   2.104   9.803   6.108 -0.3735 -0.9569 -0.6966
  228MOL0     C30029   2.346  10.405   6.503 -0.4386 -0.1514 -0.7768
  228MOL0     C30030   2.454  10.449   6.555 -0.3952 -0.3992  0.6516
  228MOL0     H30031   2.951  10.546   6.602 -0.2549 -0.3343 -0.9238
  228MOL0     H30032   3.146  10.656   6.711  0.3484  0.9806  0.7719
  228MOL0     H30033   3.306  10.864   6.600 -1.8556  1.3593 -0.5460
  228MOL0     H30034   3.331  10.781   6.753 -0.8551  0.4171  0.5835
  228MOL0     H30035   3.505  10.917   6.781  2.6470  1.4150  0.7755
  228MOL0     H30036   3.377  11.015   6.850 -0.6077 -2.1692  0.2292
  228MOL0     H30037   3.385  11.170   6.677  2.0440  1.3209  2.4062
  228MOL0     H30038   3.430  11.057   6.547 -0.3504  3.2267 -0.0652
  228MOL0     H30039   3.615  11.145   6.770  0.2385 -2.3774  0.1621
  228MOL0     H30040   3.643  11.022   6.658 -1.4890 -0.6473  1.0851
  228MOL0     H30041   3.564  11.268   6.522  0.3619  0.4461 -0.4916
  228MOL0     H30042   3.698  11.169   6.479 -1.9307  1.2049 -1.5634
  228MOL0     H30043   3.850  11.268   6.637  0.8425  0.0066 -1.2304
  228MOL0     H30044   3.716  11.368   6.718 -1.1541  1.0814 -0.5154
  228MOL0     H30045   3.813  11.393   6.435 -0.7871  0.8525 -1.4449
  228MOL0     H30046   3.655  11.457   6.500  0.1035 -0.6911  2.8916
  228MOL0     H30047   3.899  11.542   6.638 -0.7787 -3.0298 -0.4233
  228MOL0     H30048   3.732  11.584   6.649  0.7731 -0.8820  2.3898
  228MOL0     H30049   3.927  11.548   6.312 -0.1415  0.7419 -2.4349
  228MOL0     H30050   3.968  11.892   6.143  3.8948 -1.4133  0.0146
  228MOL0     H30051   3.869  11.766   6.057  1.9511  2.1640 -2.8954
  228MOL0     H30052   4.043  11.599   6.125 -0.0317  0.3204 -0.2975
  228MOL0     H30053   4.140  11.716   6.198  0.5692 -0.6905 -0.2847
  228MOL0     H30054   4.203  11.680   5.952  1.9701  2.6994  0.7065
  228MOL0     H30055   4.047  11.758   5.912 -1.1917  0.2514  1.1051
  228MOL0     H30056   4.162  11.957   6.038 -1.1393  2.1038 -2.9350
  228MOL0     H30057   4.236  11.897   5.894  2.1393 -1.3012  0.3585
  228MOL0     H30058   4.506  12.003   5.987 -3.9368  2.1012 -2.5656
  228MOL0     H30059   4.597  12.213   6.083 -0.1228 -1.9312 -1.2611
  228MOL0     H30060   4.521  12.631   6.361  0.1098  1.0339  0.3291
  228MOL0     H30061   4.604  12.810   6.419 -2.1675 -1.6882 -0.4209
  228MOL0     H30062   4.692  12.989   6.452 -2.5671 -0.3238 -5.4419
  228MOL0     H30063   4.797  13.046   6.323  0.7046 -0.9296  0.1134
  228MOL0     H30064   4.845  13.038   6.623 -0.5092  0.6352  0.8428
  228MOL0     H30065   4.822  13.192   6.539  0.4218 -0.6092  1.9974
  228MOL0     H30066   5.041  13.117   6.399  1.0605  2.0243  0.4662
  228MOL0     H30067   5.073  13.024   6.546  3.6051  1.9589 -0.6983
  228MOL0     H30068   4.998  13.323   6.550  0.0325 -0.1086  1.5517
  228MOL0     H30069   5.094  13.241   6.670  2.0296  0.8720 -1.4365
  228MOL0     H30070   5.292  13.239   6.558  0.4798  1.3443 -0.5347
  228MOL0     H30071   5.220  13.400   6.559 -1.7907  1.0833 -1.2809
  228MOL0     H30072   5.125  13.345   6.325  0.7185  0.2503 -2.1446
  228MOL0     H30073   5.222  13.201   6.325 -2.6870  0.3234 -1.3787
  228MOL0     H30074   5.283  13.511   6.361  1.2727  1.0367 -3.1559
  228MOL0     H30075   5.413  13.398   6.354 -0.8030  0.2305  2.4790
  228MOL0     H30076   5.192  13.470   6.152 -0.3155  0.4109  1.6220
  228MOL0     H30077   5.318  13.374   6.095 -3.3728 -0.1153 -2.1155
  228MOL0     H30078   5.011  12.653   6.376 -0.2161 -0.1610 -0.9223
  228MOL0     H30079   4.916  12.428   6.321 -1.0935 -1.8723  1.4381
  228MOL0     H30080   4.362  12.153   6.438 -0.7385  1.5012 -0.2438
  228MOL0     H30081   4.268  11.955   6.330  0.2837 -0.5548  0.2378
  228MOL0     H30082   2.970  11.036   6.603 -3.0917 -0.4906  1.7997
  228MOL0     H30083   2.789  10.925   6.496  1.6485  0.3995 -0.8578
  228MOL0     H30084   2.539  10.689   6.317 -3.0674  2.0794  0.0347
  228MOL0     H30085   2.309  10.610   6.236  3.4508  3.3661  0.1299
  228MOL0     H30086   2.039  10.303   6.268 -0.2880 -0.2841 -0.1847
  228MOL0     H30087   2.139  10.236   6.390  1.1650  0.2112 -0.5223
  228MOL0     H30088   2.227  10.336   6.124 -4.3371  1.4219  1.9972
  228MOL0     H30089   2.353  10.278   6.232 -0.7471  2.4464  2.0055
  228MOL0     H30090   2.231  10.067   6.276  1.7244 -3.4092 -1.3772
  228MOL0     H30091   2.323  10.087   6.123 -0.7561  0.2206 -1.2864
  228MOL0     H30092   2.012  10.111   6.129 -1.9290 -3.7647  0.0732
  228MOL0     H30093   2.132  10.100   5.992  0.4413 -2.0150 -0.2376
  228MOL0     H30094   2.091   9.698   6.121 -1.2025 -0.8194 -0.3029
  228MOL0     H30095   2.303  10.321   6.556 -0.8884  1.8307  2.2178
  228MOL0     H30096   2.485  10.390   6.641  0.4339 -0.6133  0.2198
  229MOL0     O30097   3.004   1.453   4.833  0.5230  0.5454  0.0349
  229MOL0     C30098   2.933   1.429   4.734  0.1349 -1.2415 -0.2658
  229MOL0     O30099   2.799   1.473   4.725  0.4045 -0.4220 -0.5167
  229MOL0     C30100   2.760   1.550   4.823  0.6168 -0.1648  0.1058
  229MOL0     C30101   2.742   1.511   4.952  0.9136 -0.1722 -0.2911
  229MOL0     C30102   2.693   1.606   5.047 -0.1643 -0.4883  0.2522
  229MOL0     C30103   2.678   1.737   5.021 -0.5964  0.0212 -0.0207
  229MOL0     O30104   2.638   1.826   5.116 -0.5075 -0.8196  0.0932
  229MOL0     C30105   2.670   1.963   5.099  0.4075  0.1855 -0.2523
  229MOL0     C30106   2.549   2.013   5.032  0.7441 -0.5425  1.1530
  229MOL0     C30107   2.501   2.148   5.089 -0.4892 -0.1960  0.9599
  229MOL0     C30108   2.376   2.192   5.011  0.5191 -0.8037 -0.4087
  229MOL0     C30109   2.341   2.332   5.056 -0.1885 -0.9123  0.0068
  229MOL0     C30110   2.199   2.361   5.011 -0.5888 -1.1275 -0.5775
  229MOL0     C30111   2.172   2.509   5.030 -1.0132 -1.4184 -0.3284
  229MOL0     C30112   2.022   2.520   5.019 -0.0478 -0.1843  0.6754
  229MOL0     N30113   1.967   2.651   5.061  0.0884  0.7004 -0.1189
  229MOL0     C30114   1.833   2.684   5.036 -0.2747  0.6294  0.4103
  229MOL0     C30115   1.809   2.790   5.114  0.2837 -0.1751  1.0110
  229MOL0     C30116   1.687   2.867   5.131  0.4862  0.2157 -0.3045
  229MOL0     C30117   1.683   2.973   5.019 -0.3601  0.3327  0.9050
  229MOL0     C30118   1.786   3.094   5.022  0.1706  0.1140 -0.9028
  229MOL0     C30119   1.877   3.089   4.901 -0.0396  0.7218 -0.9930
  229MOL0     O30120   1.814   3.148   4.791  0.1664 -0.5474  0.7175
  229MOL0     C30121   1.891   3.214   4.699 -0.3795  0.0593  0.5668
  229MOL0     C30122   1.836   3.223   4.569 -0.3727 -0.2815  0.6313
  229MOL0     C30123   1.896   3.295   4.459  0.6617  0.4974 -0.3407
  229MOL0     C30124   2.035   3.348   4.471  0.8579  0.8772 -1.3212
  229MOL0     C30125   2.108   3.424   4.367  0.5410  0.1763 -0.4723
  229MOL0     O30126   2.239   3.416   4.380 -0.2274 -0.2247  1.0944
  229MOL0     C30127   2.315   3.483   4.288 -0.3799 -0.1890 -0.3143
  229MOL0     C30128   2.378   3.409   4.187 -0.6399  0.0921 -0.1127
  229MOL0     C30129   2.477   3.473   4.100 -0.1829  0.1266  0.6528
  229MOL0     C30130   2.506   3.609   4.122  0.7184 -0.4062  0.2476
  229MOL0     O30131   2.593   3.686   4.043  0.6299  0.3766  0.3481
  229MOL0     C30132   2.578   3.665   3.906  0.0357 -0.2157  0.1640
  229MOL0     C30133   2.618   3.780   3.819 -0.8175 -0.0081 -0.0873
  229MOL0     C30134   2.535   3.907   3.847  0.2734  0.6161  0.3717
  229MOL0     C30135   2.382   3.876   3.852  0.0593  0.1049 -0.4487
  229MOL0     C30136   2.295   4.003   3.854 -0.0334 -0.1145  0.4884
  229MOL0     C30137   2.145   3.990   3.858  0.6466  0.0759  0.7833
  229MOL0     C30138   2.090   3.882   3.944  0.1383 -0.6512  0.7503
  229MOL0     C30139   1.934   3.885   3.936  0.4652  0.9052 -0.8172
  229MOL0    Cl30140   1.858   4.020   4.013 -0.2193 -0.3672 -0.8425
  229MOL0     C30141   2.442   3.685   4.233  0.8234 -0.3899  0.3671
  229MOL0     C30142   2.342   3.621   4.307 -0.3709 -0.0673 -0.8872
  229MOL0     O30143   2.048   3.479   4.277  0.0019  0.6907  0.4190
  229MOL0     C30144   2.091   3.326   4.600 -0.0181  0.5977  0.1949
  229MOL0     C30145   2.027   3.252   4.710  0.0975 -1.2483 -0.1105
  229MOL0     N30146   1.929   2.844   5.169  1.4075  0.8193  0.1951
  229MOL0     N30147   2.011   2.742   5.154  0.0836  1.2397 -0.7536
  229MOL0     C30148   2.710   1.775   4.881  0.1514  0.2524  0.0036
  229MOL0     C30149   2.744   1.683   4.785  1.1388 -0.4834 -0.3464
  229MOL0     C30150   2.991   1.365   4.617  0.1103 -0.4987  0.1902
  229MOL0     C30151   3.113   1.291   4.618  0.3576  0.4798 -0.5243
  229MOL0     C30152   3.159   1.227   4.503 -0.0190 -0.0498  1.0133
  229MOL0     C30153   3.082   1.228   4.388  0.1401  0.0542  1.0562
  229MOL0     O30154   3.115   1.148   4.283 -0.7095 -0.1878 -0.7623
  229MOL0     C30155   3.243   1.182   4.229 -0.2371  0.5267 -0.1080
  229MOL0     C30156   3.346   1.068   4.232  0.2303  0.1841  0.3162
  229MOL0     C30157   3.417   1.027   4.101 -0.1998 -0.3303 -0.0735
  229MOL0     C30158   3.481   0.888   4.115  0.8278  0.0566 -0.9421
  229MOL0     C30159   3.542   0.845   3.990  0.7225  0.6093 -0.0542
  229MOL0     C30160   3.605   0.801   3.899  0.4489  0.4311  0.4243
  229MOL0     C30161   2.957   1.291   4.392  0.2948 -0.2793  0.2326
  229MOL0     C30162   2.913   1.359   4.498  0.2464 -0.8225  0.0159
  229MOL0     H30163   2.752   1.404   4.967 -0.3039 -0.2873 -0.1893
  229MOL0     H30164   2.665   1.569   5.145 -1.0213  2.1949  1.0888
  229MOL0     H30165   2.766   1.976   5.048 -0.5096  0.1126 -2.0608
  229MOL0     H30166   2.678   2.009   5.198  1.3473  1.2481 -0.8029
  229MOL0     H30167   2.463   1.947   5.036 -1.1407  1.7392  0.6234
  229MOL0     H30168   2.571   2.029   4.926 -2.1131  0.6764  0.6524
  229MOL0     H30169   2.580   2.223   5.073  0.3520 -0.9662  1.4655
  229MOL0     H30170   2.487   2.148   5.197  1.0860  0.2661  1.1800
  229MOL0     H30171   2.401   2.191   4.905 -1.8523 -4.7458 -1.1561
  229MOL0     H30172   2.289   2.132   5.039 -0.5374  2.1299  3.5619
  229MOL0     H30173   2.411   2.408   5.020 -1.0203  0.2985  0.8484
  229MOL0     H30174   2.335   2.333   5.166 -2.0628 -1.8591 -0.0565
  229MOL0     H30175   2.137   2.293   5.070  0.6442 -1.2217  0.6817
  229MOL0     H30176   2.186   2.332   4.906 -2.6604 -0.2181 -0.6159
  229MOL0     H30177   2.220   2.550   5.119  3.5126 -1.4637 -2.4866
  229MOL0     H30178   2.212   2.560   4.942 -0.4794  2.3962  1.9211
  229MOL0     H30179   1.987   2.456   5.100  0.0169  2.0163  2.5320
  229MOL0     H30180   1.985   2.480   4.925  2.0104  0.1706 -0.3557
  229MOL0     H30181   1.770   2.630   4.965  1.6543 -1.7294  0.3517
  229MOL0     H30182   1.679   2.902   5.235 -2.2717 -0.4999 -0.2123
  229MOL0     H30183   1.606   2.795   5.122  1.1823 -1.0858  2.6940
  229MOL0     H30184   1.577   3.000   5.009 -1.1796 -2.6896  0.4087
  229MOL0     H30185   1.707   2.914   4.930  0.6581 -0.0628  1.4311
  229MOL0     H30186   1.734   3.190   5.020  0.2593  0.1967  0.2518
  229MOL0     H30187   1.829   3.093   5.122  1.6319 -0.0620 -1.4949
  229MOL0     H30188   1.911   2.990   4.867 -3.8885 -1.4665  0.8044
  229MOL0     H30189   1.962   3.153   4.925  1.3929 -1.6594  0.6986
  229MOL0     H30190   1.733   3.189   4.562 -0.4512  0.0031  0.3650
  229MOL0     H30191   1.846   3.312   4.363  0.0399 -0.2432 -0.1631
  229MOL0     H30192   2.346   3.305   4.176  1.7645 -0.7578  0.2686
  229MOL0     H30193   2.522   3.422   4.015 -1.6332  1.5927 -1.0777
  229MOL0     H30194   2.473   3.633   3.902 -0.3418 -0.3703  5.2139
  229MOL0     H30195   2.639   3.578   3.878  1.2908  0.8117 -0.3590
  229MOL0     H30196   2.627   3.754   3.713  2.5130  0.8033 -0.1282
  229MOL0     H30197   2.725   3.799   3.835 -0.9215 -0.0020  0.6362
  229MOL0     H30198   2.555   3.988   3.775  0.8636  2.9940  3.0373
  229MOL0     H30199   2.571   3.947   3.942 -1.5464 -1.8393  2.2235
  229MOL0     H30200   2.364   3.805   3.770  1.1552  0.2402 -0.8260
  229MOL0     H30201   2.351   3.832   3.947  1.0984 -0.3096 -0.2901
  229MOL0     H30202   2.326   4.083   3.786 -0.2038  0.8481  1.4985
  229MOL0     H30203   2.318   4.049   3.951  2.2281 -0.8922  0.3708
  229MOL0     H30204   2.113   3.973   3.755  1.4615 -4.6215  1.0657
  229MOL0     H30205   2.095   4.077   3.902 -0.6686 -1.0865  1.7160
  229MOL0     H30206   2.118   3.790   3.891  3.5142  0.6172  0.0400
  229MOL0     H30207   2.130   3.891   4.046 -5.3783  1.0731  3.1527
  229MOL0     H30208   1.892   3.792   3.976  0.9553 -0.5487 -3.4178
  229MOL0     H30209   1.902   3.876   3.831 -2.9084 -2.9040  0.2769
  229MOL0     H30210   2.464   3.791   4.247 -0.1941 -0.2198  0.7274
  229MOL0     H30211   2.288   3.655   4.395 -0.6519  1.1098 -1.4897
  229MOL0     H30212   2.189   3.371   4.604  0.8835 -0.6690 -3.3868
  229MOL0     H30213   2.091   3.241   4.797  1.6353  2.9905 -0.4476
  229MOL0     H30214   2.695   1.876   4.842 -2.3710  0.5961  1.6316
  229MOL0     H30215   2.763   1.706   4.681 -0.2255  1.2848 -0.2493
  229MOL0     H30216   3.152   1.276   4.718 -1.5658 -3.0541 -0.1378
  229MOL0     H30217   3.245   1.160   4.506 -0.3566 -0.8235 -2.2720
  229MOL0     H30218   3.287   1.274   4.269 -1.3462 -0.7929  4.7696
  229MOL0     H30219   3.227   1.197   4.122  0.4507 -3.4739 -0.9061
  229MOL0     H30220   3.423   1.082   4.308  0.7767 -0.5586 -0.0846
  229MOL0     H30221   3.293   0.976   4.255  2.2809 -0.8166  1.3859
  229MOL0     H30222   3.499   1.088   4.062 -1.3616  1.7059  0.5447
  229MOL0     H30223   3.343   1.011   4.022 -0.6322 -3.6744  0.8519
  229MOL0     H30224   3.564   0.891   4.186 -0.9096  0.8866  1.1872
  229MOL0     H30225   3.403   0.817   4.144  0.4023 -0.4300 -3.1571
  229MOL0     H30226   3.662   0.764   3.817  0.7921 -0.7245  1.1558
  229MOL0     H30227   2.893   1.281   4.305 -1.3563 -1.4675  1.5049
  229MOL0     H30228   2.825   1.419   4.480 -1.1483 -2.5670  0.7434
  230MOL0     O30229   2.141   0.222   5.915  1.1343  0.4403 -0.0987
  230MOL0     C30230   2.166   0.121   5.966 -0.8431 -0.9575 -1.0271
  230MOL0     O30231   2.127  -0.004   5.923  0.2509 -0.4016  0.1572
  230MOL0     C30232   2.072  -0.014   5.798  0.1949 -0.2919  1.4562
  230MOL0     C30233   2.138  -0.093   5.707  0.0736 -0.0264  0.1732
  230MOL0     C30234   2.087  -0.114   5.580  0.5374 -1.2938  0.0111
  230MOL0     C30235   1.962  -0.053   5.541  0.0745 -0.8463  0.3500
  230MOL0     O30236   1.930  -0.082   5.411  0.9177 -0.4886 -0.4137
  230MOL0     C30237   1.811  -0.008   5.365 -0.9004 -0.6227 -0.1006
  230MOL0     C30238   1.774  -0.055   5.231  0.3428  0.0364 -0.5591
  230MOL0     C30239   1.723  -0.203   5.244  0.0285  0.6577  0.6490
  230MOL0     C30240   1.588  -0.228   5.322 -0.0056  0.1396  0.5074
  230MOL0     C30241   1.533  -0.366   5.334 -0.7828  1.3148  0.0825
  230MOL0     C30242   1.401  -0.372   5.422  1.2123  1.0574 -0.2167
  230MOL0     C30243   1.331  -0.513   5.429  0.4933  0.5080  0.2748
  230MOL0     C30244   1.236  -0.500   5.547 -0.4637  0.1380 -0.0809
  230MOL0     N30245   1.121  -0.412   5.523 -0.0062  0.0226 -0.1684
  230MOL0     C30246   1.010  -0.458   5.451 -0.5590  0.6857  0.9475
  230MOL0     C30247   0.948  -0.345   5.415 -1.0844 -0.6388  0.0665
  230MOL0     C30248   0.830  -0.336   5.321  0.0476  1.1665 -0.2207
  230MOL0     C30249   0.696  -0.366   5.391  0.4680 -0.3478  0.5014
  230MOL0     C30250   0.627  -0.493   5.347  0.5028 -0.3511 -0.6549
  230MOL0     C30251   0.675  -0.616   5.415 -0.0644  0.7426  1.1747
  230MOL0     O30252   0.602  -0.727   5.348  0.3405 -0.2619 -0.0314
  230MOL0     C30253   0.496  -0.784   5.417  0.7032 -0.9936 -1.0759
  230MOL0     C30254   0.406  -0.712   5.498  0.1684  0.6357 -0.4186
  230MOL0     C30255   0.298  -0.778   5.546 -0.1055 -0.1534  0.0298
  230MOL0     C30256   0.272  -0.909   5.518  0.3888  0.0099  0.6651
  230MOL0     C30257   0.142  -0.969   5.571  0.7550 -0.5118 -0.7013
  230MOL0     O30258   0.084  -1.056   5.484  0.1342  0.1242 -0.1448
  230MOL0     C30259  -0.025  -1.129   5.534 -0.1031 -0.5549  1.5524
  230MOL0     C30260  -0.150  -1.083   5.490 -0.5131  0.1027  0.5232
  230MOL0     C30261  -0.264  -1.149   5.533  0.4336  0.2004 -0.0192
  230MOL0     C30262  -0.260  -1.263   5.616 -0.0574  0.5214 -0.0187
  230MOL0     O30263  -0.378  -1.321   5.651 -0.1800  0.3858 -0.2860
  230MOL0     C30264  -0.376  -1.462   5.617  0.1759  0.5486  0.0163
  230MOL0     C30265  -0.444  -1.543   5.732  0.1808 -0.1857  0.3818
  230MOL0     C30266  -0.375  -1.523   5.874  0.3554 -0.2968  0.6777
  230MOL0     C30267  -0.368  -1.659   5.954 -0.2452 -0.2167  1.3782
  230MOL0     C30268  -0.244  -1.731   5.905 -0.2360 -0.6486 -0.6596
  230MOL0     C30269  -0.264  -1.877   5.962 -0.2278 -0.2148  1.0243
  230MOL0     C30270  -0.333  -1.966   5.853  0.0396  0.3604  0.6292
  230MOL0     C30271  -0.371  -2.109   5.902 -0.4735 -0.3013 -0.2474
  230MOL0    Cl30272  -0.430  -2.186   5.754 -0.9305  0.1074 -0.2290
  230MOL0     C30273  -0.134  -1.321   5.645  0.6741  0.4348 -0.3867
  230MOL0     C30274  -0.018  -1.253   5.595 -0.3261 -0.5200  0.0057
  230MOL0     O30275   0.103  -0.945   5.686 -0.3468  0.1846 -0.2644
  230MOL0     C30276   0.359  -0.982   5.440 -0.3314  0.5179  0.4704
  230MOL0     C30277   0.469  -0.920   5.395  0.2116 -0.7188  0.8050
  230MOL0     N30278   1.021  -0.237   5.467  0.3774 -0.8224  0.6662
  230MOL0     N30279   1.129  -0.275   5.529  0.0774  0.3887 -0.2478
  230MOL0     C30280   1.909   0.036   5.630  0.1681 -0.1344 -0.4652
  230MOL0     C30281   1.959   0.057   5.759 -1.1453  0.4403 -0.8326
  230MOL0     C30282   2.247   0.131   6.094 -0.3758 -0.1617  0.0108
  230MOL0     C30283   2.245   0.245   6.174 -0.1793  0.1938  0.7997
  230MOL0     C30284   2.305   0.243   6.301  0.8532 -0.3608  0.1821
  230MOL0     C30285   2.373   0.135   6.353 -0.0594  0.5497 -0.0397
  230MOL0     O30286   2.429   0.150   6.481 -0.0879  0.1155  0.2007
  230MOL0     C30287   2.465   0.029   6.556  0.2305 -0.1902 -0.0010
  230MOL0     C30288   2.383   0.031   6.689 -0.4211  0.4086 -0.4797
  230MOL0     C30289   2.371  -0.115   6.739 -0.0863 -0.0666 -0.6706
  230MOL0     C30290   2.256  -0.115   6.841  0.0057  0.0474 -0.4821
  230MOL0     C30291   2.237  -0.254   6.887  0.2786  0.1816 -0.2624
  230MOL0     C30292   2.214  -0.368   6.911 -0.5527 -0.2718 -1.1826
  230MOL0     C30293   2.387   0.022   6.266  0.1818 -0.3314  1.6830
  230MOL0     C30294   2.319   0.016   6.140  0.0170 -0.6022  0.2925
  230MOL0     H30295   2.233  -0.130   5.744  0.5192  2.9631  2.4511
  230MOL0     H30296   2.136  -0.185   5.515 -0.0890 -2.0340  0.3354
  230MOL0     H30297   1.837   0.098   5.364 -1.8483 -0.3688 -1.7931
  230MOL0     H30298   1.727  -0.034   5.430 -0.9728 -3.4188 -1.1611
  230MOL0     H30299   1.855  -0.035   5.160  0.6089  0.2301 -0.2065
  230MOL0     H30300   1.685   0.002   5.203 -0.6199 -0.7939  0.6757
  230MOL0     H30301   1.802  -0.257   5.296 -1.1108  0.5220  2.3073
  230MOL0     H30302   1.707  -0.241   5.142 -2.8152  0.0977  1.2170
  230MOL0     H30303   1.606  -0.204   5.428 -2.1783 -0.8487  1.1684
  230MOL0     H30304   1.512  -0.164   5.275  2.4342  1.6002 -1.7213
  230MOL0     H30305   1.607  -0.424   5.390 -1.4876  0.7829  0.4890
  230MOL0     H30306   1.512  -0.413   5.237  4.4539 -0.6863 -0.4023
  230MOL0     H30307   1.329  -0.303   5.378  1.0111  0.2640 -1.1619
  230MOL0     H30308   1.419  -0.346   5.527  1.2348 -2.9508  0.9595
  230MOL0     H30309   1.275  -0.541   5.339  2.1162  1.3080 -1.0438
  230MOL0     H30310   1.407  -0.590   5.447 -2.0780 -2.1912  0.4622
  230MOL0     H30311   1.285  -0.479   5.643 -0.4937  1.9266 -0.4286
  230MOL0     H30312   1.201  -0.604   5.549  1.5129 -0.5618  0.7387
  230MOL0     H30313   1.000  -0.564   5.428  1.1332  1.2358 -3.0899
  230MOL0     H30314   0.846  -0.400   5.234 -1.8352  0.2681  0.0501
  230MOL0     H30315   0.825  -0.233   5.285 -1.0658  0.8752 -0.9591
  230MOL0     H30316   0.643  -0.272   5.375  3.0024  1.7097  3.2471
  230MOL0     H30317   0.713  -0.369   5.499  3.6596 -3.2621  0.0994
  230MOL0     H30318   0.524  -0.496   5.384  0.6202 -3.2222 -0.2915
  230MOL0     H30319   0.641  -0.511   5.240 -2.0361 -0.2945 -1.0596
  230MOL0     H30320   0.655  -0.601   5.522 -0.4782  1.4925  1.0051
  230MOL0     H30321   0.782  -0.634   5.405 -0.4810 -1.3544 -0.0288
  230MOL0     H30322   0.406  -0.605   5.514 -1.4726  0.5623  0.2514
  230MOL0     H30323   0.238  -0.719   5.615  0.0371  0.9473 -0.7512
  230MOL0     H30324  -0.154  -0.994   5.429 -3.0441 -1.5806 -2.0341
  230MOL0     H30325  -0.355  -1.102   5.499  0.2137  1.4756  2.1896
  230MOL0     H30326  -0.279  -1.510   5.605 -1.1197 -3.4853  3.2218
  230MOL0     H30327  -0.433  -1.474   5.525 -1.4181  0.8675  0.9113
  230MOL0     H30328  -0.439  -1.650   5.712  3.1768 -0.0737  0.0473
  230MOL0     H30329  -0.545  -1.503   5.719 -0.0678  0.6019  3.9061
  230MOL0     H30330  -0.425  -1.444   5.931  1.1497 -2.2367  4.4264
  230MOL0     H30331  -0.279  -1.476   5.851 -1.0046  2.5344  0.4817
  230MOL0     H30332  -0.363  -1.639   6.061  1.1822  0.0217  1.2807
  230MOL0     H30333  -0.455  -1.719   5.926  0.6338 -0.3401 -1.3534
  230MOL0     H30334  -0.158  -1.682   5.952  0.6361 -4.0914  1.7552
  230MOL0     H30335  -0.235  -1.743   5.797 -0.8329 -1.6064 -0.6152
  230MOL0     H30336  -0.308  -1.888   6.061 -3.6318 -5.8406 -0.6298
  230MOL0     H30337  -0.166  -1.924   5.977 -0.6549 -1.5665 -0.1260
  230MOL0     H30338  -0.420  -1.914   5.813  1.7616  2.0113 -1.1818
  230MOL0     H30339  -0.261  -1.975   5.772 -0.2351  0.6463  0.3563
  230MOL0     H30340  -0.445  -2.110   5.983 -1.2103 -0.1831 -0.9115
  230MOL0     H30341  -0.281  -2.159   5.939 -0.2773 -0.8552 -1.4630
  230MOL0     H30342  -0.112  -1.411   5.701  4.8516  0.4620 -1.6394
  230MOL0     H30343   0.076  -1.295   5.631  0.3027  1.6813  1.1499
  230MOL0     H30344   0.333  -1.087   5.424  2.8091 -0.7745  2.8423
  230MOL0     H30345   0.546  -0.967   5.335  1.9886 -2.1744  3.9365
  230MOL0     H30346   1.823   0.090   5.591  0.1234  1.1685  1.3114
  230MOL0     H30347   1.917   0.132   5.826 -0.3748 -0.3134  0.5413
  230MOL0     H30348   2.192   0.336   6.145  2.4241  1.2896 -0.8791
  230MOL0     H30349   2.280   0.324   6.369  2.7064 -1.0990  1.8385
  230MOL0     H30350   2.574   0.025   6.568  0.0988 -0.6086  1.1999
  230MOL0     H30351   2.428  -0.068   6.521 -1.0367 -1.4148  4.1863
  230MOL0     H30352   2.424   0.092   6.770 -2.5593  2.6262 -0.9796
  230MOL0     H30353   2.282   0.066   6.668 -2.6934 -4.6447  0.5328
  230MOL0     H30354   2.467  -0.153   6.775  0.3218  0.5143 -1.1357
  230MOL0     H30355   2.329  -0.187   6.667  1.9838 -1.2053 -0.7978
  230MOL0     H30356   2.281  -0.049   6.924 -3.9867  1.9480 -0.5548
  230MOL0     H30357   2.158  -0.081   6.806  0.2077 -0.2668 -1.3855
  230MOL0     H30358   2.162  -0.460   6.927 -2.0012  0.5349 -1.0722
  230MOL0     H30359   2.448  -0.062   6.298 -0.1663 -0.1812  2.7841
  230MOL0     H30360   2.318  -0.076   6.082  1.0120  0.7474 -2.0424
  231MOL0     O30361   4.062   8.340   0.891  0.4036 -0.2816  0.4917
  231MOL0     C30362   4.039   8.464   0.882  0.2814 -0.3293  0.3096
  231MOL0     O30363   3.918   8.527   0.911  0.3390 -1.8661 -0.2274
  231MOL0     C30364   3.816   8.458   0.984 -0.7487 -0.7405  0.1186
  231MOL0     C30365   3.757   8.509   1.092  0.3873  0.2924  0.6673
  231MOL0     C30366   3.652   8.450   1.163 -0.9335  0.1298 -1.3841
  231MOL0     C30367   3.603   8.326   1.120 -0.8750 -0.5458 -0.6623
  231MOL0     O30368   3.506   8.263   1.187  0.6845  0.4766  0.1855
  231MOL0     C30369   3.550   8.161   1.270  0.3750  1.0699  0.4164
  231MOL0     C30370   3.421   8.113   1.352  0.4511  0.3757 -0.3807
  231MOL0     C30371   3.294   8.078   1.272 -0.3734  0.6389  0.2959
  231MOL0     C30372   3.197   7.999   1.364 -0.3610 -0.4270  0.0868
  231MOL0     C30373   3.068   8.002   1.289 -0.1587 -0.5015 -0.0780
  231MOL0     C30374   2.979   7.897   1.353  0.0020  0.7320  0.3863
  231MOL0     C30375   2.828   7.916   1.313  0.3364 -0.0329  0.0749
  231MOL0     C30376   2.798   7.871   1.165  0.4359 -0.5253 -0.0127
  231MOL0     N30377   2.848   7.741   1.130  0.2790 -0.3577  0.5250
  231MOL0     C30378   2.901   7.704   1.017  0.1683 -0.5652 -0.1118
  231MOL0     C30379   2.939   7.569   1.027  0.5586 -1.0782 -0.1235
  231MOL0     C30380   2.985   7.485   0.916 -0.7102  0.2271  0.1126
  231MOL0     C30381   3.130   7.505   0.870  0.8427  0.4920 -0.3189
  231MOL0     C30382   3.169   7.657   0.876 -0.5873 -0.0575  0.0017
  231MOL0     C30383   3.314   7.680   0.828  1.1833 -0.5786  0.0708
  231MOL0     O30384   3.326   7.620   0.696  0.7974 -0.5112 -0.5099
  231MOL0     C30385   3.452   7.625   0.636  0.4465 -0.1628 -0.2227
  231MOL0     C30386   3.457   7.579   0.505  0.3808 -0.6233  0.1719
  231MOL0     C30387   3.573   7.577   0.434  0.9648  0.0950  0.5380
  231MOL0     C30388   3.696   7.616   0.495  0.2288  0.4119  0.6792
  231MOL0     C30389   3.827   7.602   0.428  0.5395 -0.2874  0.7572
  231MOL0     O30390   3.834   7.555   0.302  0.4652 -0.7532  0.3989
  231MOL0     C30391   3.963   7.543   0.242  1.1905  0.3606  0.4424
  231MOL0     C30392   4.033   7.425   0.244 -0.0948 -0.2220  0.1219
  231MOL0     C30393   4.167   7.434   0.193  0.3987 -0.5016 -0.4532
  231MOL0     C30394   4.216   7.532   0.124  0.5126 -0.4612 -0.2055
  231MOL0     O30395   4.341   7.527   0.065  0.1923 -0.4020 -0.5752
  231MOL0     C30396   4.381   7.640  -0.005 -0.3811  0.0857  0.4126
  231MOL0     C30397   4.508   7.639  -0.092  0.2512 -0.3924  0.0758
  231MOL0     C30398   4.546   7.767  -0.167 -0.2404  0.9742 -0.2779
  231MOL0     C30399   4.647   7.752  -0.280  0.2748 -0.7394  0.4142
  231MOL0     C30400   4.682   7.898  -0.328 -0.5452  0.1758  0.5247
  231MOL0     C30401   4.798   7.887  -0.431 -0.8806  0.5831 -0.0587
  231MOL0     C30402   4.825   8.024  -0.494  0.6981 -0.0124 -1.3267
  231MOL0     C30403   4.938   8.030  -0.587 -0.2647 -0.7801  0.2177
  231MOL0    Cl30404   5.094   7.988  -0.508 -0.5120  0.0434  0.3175
  231MOL0     C30405   4.135   7.651   0.125 -0.0546 -0.2444 -0.4359
  231MOL0     C30406   4.014   7.660   0.188 -0.4228  0.6128  0.3516
  231MOL0     O30407   3.924   7.627   0.486  0.0256 -0.4784  0.1144
  231MOL0     C30408   3.692   7.665   0.633  0.2226  0.0804 -0.1163
  231MOL0     C30409   3.576   7.663   0.701  0.1972 -0.5688 -0.1246
  231MOL0     N30410   2.912   7.531   1.155  0.1701 -0.1291  0.6967
  231MOL0     N30411   2.847   7.634   1.206 -0.5505  1.1148 -0.2227
  231MOL0     C30412   3.665   8.266   1.010 -0.8309 -0.0084 -0.0407
  231MOL0     C30413   3.772   8.329   0.946 -0.2058  0.2597 -0.4620
  231MOL0     C30414   4.147   8.550   0.835 -0.8529 -0.4812  0.6089
  231MOL0     C30415   4.269   8.499   0.783 -0.2240  0.3154 -0.3161
  231MOL0     C30416   4.372   8.592   0.760 -0.2868  0.4833  0.7877
  231MOL0     C30417   4.350   8.721   0.754  0.0289 -0.8183 -0.8274
  231MOL0     O30418   4.453   8.807   0.725  0.7525 -0.5502  0.6527
  231MOL0     C30419   4.512   8.873   0.846 -0.7366  0.7274  0.4857
  231MOL0     C30420   4.580   8.789   0.966  0.5071  0.4288 -0.8872
  231MOL0     C30421   4.678   8.862   1.062 -0.7522 -0.1508 -1.0265
  231MOL0     C30422   4.807   8.934   1.023 -0.2093 -0.2621 -0.4085
  231MOL0     C30423   4.905   8.831   0.979 -0.5290  0.6379  0.8937
  231MOL0     C30424   4.974   8.738   0.946  0.5118 -0.4384 -0.7209
  231MOL0     C30425   4.223   8.771   0.779  0.5188  0.4216 -0.1272
  231MOL0     C30426   4.119   8.684   0.821 -0.0504 -0.3791 -0.7483
  231MOL0     H30427   3.802   8.598   1.134  2.4890 -0.8157  0.9077
  231MOL0     H30428   3.620   8.509   1.248  2.1966  2.1570 -1.4776
  231MOL0     H30429   3.623   8.201   1.342  1.4892 -1.9241  1.0655
  231MOL0     H30430   3.598   8.084   1.209  3.1461  1.2068  2.2196
  231MOL0     H30431   3.385   8.196   1.414 -1.2833 -0.7582  0.2078
  231MOL0     H30432   3.455   8.038   1.424 -0.5112 -1.0505 -1.3522
  231MOL0     H30433   3.313   8.018   1.183 -1.6898  0.9955 -0.2502
  231MOL0     H30434   3.243   8.173   1.251 -0.2729  0.5060 -0.5753
  231MOL0     H30435   3.237   7.899   1.383  0.3676 -0.2919 -0.7387
  231MOL0     H30436   3.190   8.059   1.456 -0.0697 -1.1247  0.5751
  231MOL0     H30437   3.103   7.973   1.190  3.0451  0.3029  0.7094
  231MOL0     H30438   3.023   8.101   1.286 -2.1507 -1.3809 -1.2160
  231MOL0     H30439   2.982   7.898   1.463 -0.8202  2.7253  0.4407
  231MOL0     H30440   3.019   7.799   1.327  3.3150  1.2531  2.7976
  231MOL0     H30441   2.765   7.856   1.380  2.3755 -0.1620  2.0181
  231MOL0     H30442   2.797   8.021   1.314  0.9910  0.1939 -1.2433
  231MOL0     H30443   2.831   7.952   1.100 -0.7828  0.2080  0.2531
  231MOL0     H30444   2.690   7.861   1.151  0.1081 -1.5788  2.6681
  231MOL0     H30445   2.921   7.768   0.931 -0.3577 -1.4196 -0.8912
  231MOL0     H30446   2.910   7.502   0.839 -1.5702  0.6522  1.0272
  231MOL0     H30447   2.980   7.382   0.953 -1.3061  0.2292  0.0358
  231MOL0     H30448   3.134   7.466   0.769  0.5081  0.2381 -0.2367
  231MOL0     H30449   3.195   7.450   0.939 -3.4183 -3.3065  1.1840
  231MOL0     H30450   3.101   7.722   0.819  0.0991  0.2498 -0.4765
  231MOL0     H30451   3.173   7.691   0.980 -0.5902 -1.8948  0.6361
  231MOL0     H30452   3.378   7.618   0.892 -0.6228 -2.1446  0.4644
  231MOL0     H30453   3.353   7.782   0.829 -0.1946 -0.0473  0.5187
  231MOL0     H30454   3.367   7.561   0.447  0.0796 -1.5388  0.9066
  231MOL0     H30455   3.574   7.547   0.330 -1.8458  3.7205 -0.7518
  231MOL0     H30456   3.994   7.344   0.304 -1.5491  0.6723  0.4281
  231MOL0     H30457   4.219   7.342   0.217 -1.1444 -1.4690 -0.6427
  231MOL0     H30458   4.380   7.730   0.058  0.6175  3.1896 -3.6061
  231MOL0     H30459   4.306   7.676  -0.076 -1.0338  0.9738  1.5180
  231MOL0     H30460   4.508   7.563  -0.170 -0.0591  0.1028 -0.4128
  231MOL0     H30461   4.591   7.610  -0.027  0.0889 -3.0701 -0.7812
  231MOL0     H30462   4.585   7.845  -0.101 -2.5139  2.5357 -0.6796
  231MOL0     H30463   4.459   7.815  -0.211 -1.7124 -1.9263 -0.7227
  231MOL0     H30464   4.732   7.693  -0.244  0.3860 -1.2391 -0.6128
  231MOL0     H30465   4.606   7.692  -0.362  2.4114  2.0047 -2.9614
  231MOL0     H30466   4.709   7.960  -0.242 -1.1824 -0.1835  0.9945
  231MOL0     H30467   4.592   7.933  -0.379 -1.0534  0.2223  1.4309
  231MOL0     H30468   4.777   7.823  -0.517  2.1450  0.0648 -0.5278
  231MOL0     H30469   4.891   7.849  -0.388 -1.5262 -0.4169  0.4767
  231MOL0     H30470   4.730   8.068  -0.526 -0.6881 -2.3936 -0.6846
  231MOL0     H30471   4.860   8.080  -0.407  0.9343 -2.1154  0.0043
  231MOL0     H30472   4.941   8.132  -0.626  1.0481 -0.7067  0.4633
  231MOL0     H30473   4.912   7.968  -0.674 -1.6808  2.0620 -1.5257
  231MOL0     H30474   4.163   7.737   0.066  1.9408 -1.2705 -1.0744
  231MOL0     H30475   3.962   7.755   0.193  1.7154  1.7938  1.6739
  231MOL0     H30476   3.779   7.711   0.679 -0.8645 -0.6517  2.8933
  231MOL0     H30477   3.563   7.703   0.801 -1.1414  1.9335 -1.2105
  231MOL0     H30478   3.627   8.178   0.960 -4.0197  2.0584 -1.5853
  231MOL0     H30479   3.803   8.270   0.861  3.0574  0.3674  0.5455
  231MOL0     H30480   4.281   8.394   0.759  2.6676  0.2320  1.1169
  231MOL0     H30481   4.470   8.546   0.746  1.3983  4.5110 -2.7772
  231MOL0     H30482   4.437   8.937   0.893 -1.1507 -0.6972  1.8492
  231MOL0     H30483   4.591   8.937   0.807 -1.6905  1.8660  0.3530
  231MOL0     H30484   4.504   8.737   1.025 -0.1467  0.4127 -1.7259
  231MOL0     H30485   4.639   8.711   0.918  2.9983  1.1223  0.8602
  231MOL0     H30486   4.697   8.782   1.134 -0.0715  0.3568 -0.6256
  231MOL0     H30487   4.619   8.945   1.102  0.6896 -0.2455  1.5716
  231MOL0     H30488   4.781   9.007   0.946 -1.3797 -0.8069 -0.5418
  231MOL0     H30489   4.840   8.986   1.114 -1.9947  1.6281 -0.7645
  231MOL0     H30490   5.018   8.643   0.920 -0.6720 -2.2753  3.2317
  231MOL0     H30491   4.213   8.879   0.786  2.1041  0.5086  1.9026
  231MOL0     H30492   4.033   8.732   0.865  2.7657  0.5786  4.4510
  232MOL0     O30493   5.833   9.497   5.951 -0.3612 -0.1949 -0.4444
  232MOL0     C30494   5.772   9.421   5.877 -0.2399  1.0626  0.5804
  232MOL0     O30495   5.817   9.297   5.837  0.2216 -0.7381  0.4722
  232MOL0     C30496   5.889   9.233   5.932 -0.4859  0.2745  0.3772
  232MOL0     C30497   6.024   9.221   5.925  0.2244  0.3637 -0.6498
  232MOL0     C30498   6.092   9.164   6.029  0.0409 -0.0597 -0.1383
  232MOL0     C30499   6.022   9.110   6.146  0.2927  0.2022 -0.7560
  232MOL0     O30500   6.103   9.049   6.240  0.6713  0.0244  0.1544
  232MOL0     C30501   6.059   9.001   6.369 -0.3580  0.6474 -0.1482
  232MOL0     C30502   6.158   9.043   6.480 -0.5262  0.2856  0.2754
  232MOL0     C30503   6.116   9.176   6.526 -0.0011  0.6703  0.4788
  232MOL0     C30504   6.211   9.264   6.615  0.0058 -0.3605  0.0300
  232MOL0     C30505   6.153   9.403   6.660  0.3637 -0.1095 -0.7674
  232MOL0     C30506   6.261   9.510   6.686  0.4008  0.0862 -0.5301
  232MOL0     C30507   6.212   9.659   6.675 -0.3723  0.9506  0.2613
  232MOL0     C30508   6.316   9.773   6.699  0.5742 -0.1762  0.1212
  232MOL0     N30509   6.418   9.755   6.597  0.5070  0.1440  0.0339
  232MOL0     C30510   6.406   9.753   6.459  0.8520  0.5132 -0.1564
  232MOL0     C30511   6.535   9.752   6.408 -0.0626 -0.3453  0.3091
  232MOL0     C30512   6.579   9.730   6.265 -0.3778  0.5525  1.2005
  232MOL0     C30513   6.639   9.858   6.209  0.1389  0.0113 -0.2911
  232MOL0     C30514   6.684   9.834   6.062  0.4856 -0.1802  0.8390
  232MOL0     C30515   6.702   9.957   5.980  0.3208 -0.3997  0.1560
  232MOL0     O30516   6.761  10.062   6.056  0.0998 -0.4174  0.1210
  232MOL0     C30517   6.900  10.055   6.076 -0.2390  1.0240 -0.1676
  232MOL0     C30518   6.950  10.047   6.203  0.9150  0.3425 -0.3830
  232MOL0     C30519   7.088  10.047   6.221 -0.1190  0.0784 -2.1670
  232MOL0     C30520   7.176  10.044   6.108  0.1914  0.3013 -0.6731
  232MOL0     C30521   7.326  10.049   6.130 -1.0029  0.0346  0.5780
  232MOL0     O30522   7.370  10.037   6.254  0.2653  0.7312  0.4969
  232MOL0     C30523   7.497  10.077   6.284 -0.6618  0.2409  0.0229
  232MOL0     C30524   7.510  10.184   6.382 -0.1249 -0.3046 -0.3297
  232MOL0     C30525   7.632  10.219   6.430 -0.3897 -1.4466 -0.9006
  232MOL0     C30526   7.742  10.151   6.387 -0.5472 -0.5542 -0.1207
  232MOL0     O30527   7.864  10.205   6.433 -0.0770 -0.1744 -0.8334
  232MOL0     C30528   7.977  10.116   6.437  0.4887 -0.4350 -0.5408
  232MOL0     C30529   8.095  10.173   6.508 -0.3929 -0.1641  0.3125
  232MOL0     C30530   8.203  10.244   6.423 -0.6923 -0.7046 -0.6567
  232MOL0     C30531   8.300  10.314   6.518 -0.2064  0.2674  0.4983
  232MOL0     C30532   8.427  10.364   6.445  0.0310  0.2229 -0.1956
  232MOL0     C30533   8.531  10.437   6.529 -0.8585  0.2524  1.2617
  232MOL0     C30534   8.474  10.538   6.622  0.4848 -0.4435 -0.1492
  232MOL0     C30535   8.392  10.656   6.558  0.2491 -0.1650  0.0109
  232MOL0    Cl30536   8.311  10.736   6.691 -0.0547 -0.2709 -0.1559
  232MOL0     C30537   7.737  10.050   6.285  0.9258 -1.1714  0.1905
  232MOL0     C30538   7.614  10.006   6.239  0.3609  0.1070  0.8839
  232MOL0     O30539   7.400  10.036   6.027  0.4978 -0.6659 -0.5961
  232MOL0     C30540   7.124  10.033   5.979 -0.3293 -0.1919 -0.3502
  232MOL0     C30541   6.987  10.039   5.966 -0.4684 -0.1894 -1.1669
  232MOL0     N30542   6.622   9.768   6.517  0.8102  0.2777 -0.0815
  232MOL0     N30543   6.552   9.764   6.625  0.2300 -0.2852  0.1765
  232MOL0     C30544   5.886   9.132   6.163 -0.1974 -0.0779  0.7045
  232MOL0     C30545   5.823   9.197   6.054  0.4954  0.1217  0.5300
  232MOL0     C30546   5.641   9.457   5.807 -0.5101 -0.3661 -0.3657
  232MOL0     C30547   5.575   9.571   5.853  0.1781  0.3291  0.2895
  232MOL0     C30548   5.452   9.599   5.795  0.0996  0.1080 -0.9544
  232MOL0     C30549   5.387   9.528   5.698 -0.1278 -0.3971  0.2434
  232MOL0     O30550   5.262   9.567   5.658 -0.3221 -0.1606 -0.1125
  232MOL0     C30551   5.241   9.552   5.517 -0.1556  0.8139  0.0113
  232MOL0     C30552   5.132   9.645   5.471 -0.3842 -0.1467  1.6941
  232MOL0     C30553   5.079   9.611   5.337 -0.5396  0.5693 -0.6229
  232MOL0     C30554   5.179   9.609   5.229 -0.7678  0.8857  0.0247
  232MOL0     C30555   5.203   9.749   5.184  0.0192 -0.5434  0.3075
  232MOL0     C30556   5.221   9.872   5.169  0.6563 -1.4827 -0.0310
  232MOL0     C30557   5.450   9.410   5.659 -0.7993 -0.1242  0.2075
  232MOL0     C30558   5.583   9.380   5.711  0.0843  0.7129  0.4782
  232MOL0     H30559   6.088   9.260   5.847 -3.4991  3.2277 -2.5667
  232MOL0     H30560   6.197   9.137   6.024  0.2659  0.5284  0.9996
  232MOL0     H30561   6.065   8.892   6.365 -1.5603  0.6002 -1.4687
  232MOL0     H30562   5.963   9.047   6.392  0.3551  1.1086  2.2054
  232MOL0     H30563   6.263   9.032   6.452 -0.7471 -2.2854  0.2764
  232MOL0     H30564   6.149   8.974   6.565 -1.9903 -0.7344 -0.6649
  232MOL0     H30565   6.021   9.176   6.580 -0.4012  4.0907 -0.0318
  232MOL0     H30566   6.106   9.235   6.434  1.3533 -3.4746 -2.6543
  232MOL0     H30567   6.242   9.216   6.708  2.0099 -2.2947 -1.5282
  232MOL0     H30568   6.304   9.277   6.559 -0.3461 -2.5508 -1.1873
  232MOL0     H30569   6.097   9.387   6.753  2.2158 -1.8192  0.1183
  232MOL0     H30570   6.086   9.441   6.583  0.9862  2.3132 -0.1901
  232MOL0     H30571   6.346   9.502   6.617  1.4152  0.9918  0.5762
  232MOL0     H30572   6.298   9.486   6.786 -1.2360  1.9611  0.5728
  232MOL0     H30573   6.174   9.672   6.574 -0.2198  0.3869  0.1290
  232MOL0     H30574   6.135   9.659   6.753  0.0976  1.4015  0.7422
  232MOL0     H30575   6.350   9.778   6.803  1.4927  1.1407 -0.2163
  232MOL0     H30576   6.270   9.870   6.681 -1.2220 -1.1424 -0.7890
  232MOL0     H30577   6.319   9.728   6.399  0.6875  0.8274 -0.0548
  232MOL0     H30578   6.511   9.682   6.195  4.8262 -2.2352 -2.6185
  232MOL0     H30579   6.659   9.655   6.270 -0.4967  0.2128 -1.1337
  232MOL0     H30580   6.723   9.881   6.276 -1.2444  2.1214  0.8266
  232MOL0     H30581   6.566   9.937   6.229 -0.5420 -1.5916  5.2701
  232MOL0     H30582   6.778   9.779   6.057  1.4004  1.4439 -1.5542
  232MOL0     H30583   6.608   9.772   6.014 -1.3396 -1.6411  5.0958
  232MOL0     H30584   6.602   9.992   5.952 -0.3090 -2.6404 -0.6288
  232MOL0     H30585   6.766   9.941   5.892 -1.1442 -0.7588 -0.8822
  232MOL0     H30586   6.876  10.045   6.282  1.6201  2.4864  0.3893
  232MOL0     H30587   7.134  10.055   6.319 -1.7253  1.5103 -1.4747
  232MOL0     H30588   7.418  10.231   6.415 -1.9186 -3.6334 -0.1854
  232MOL0     H30589   7.651  10.295   6.505  0.1222 -0.4777 -1.9864
  232MOL0     H30590   8.004  10.089   6.334  3.0520  3.7540 -1.2104
  232MOL0     H30591   7.943  10.037   6.504  0.3249  0.4449  0.4249
  232MOL0     H30592   8.134  10.090   6.567 -0.7303 -2.1691 -2.1099
  232MOL0     H30593   8.057  10.253   6.573 -1.6502  0.2280 -0.8441
  232MOL0     H30594   8.156  10.316   6.355 -0.5950  0.0628  0.0718
  232MOL0     H30595   8.265  10.181   6.358 -1.6207 -0.2221 -2.0668
  232MOL0     H30596   8.250  10.399   6.567 -2.7162 -1.9742  2.1392
  232MOL0     H30597   8.339  10.242   6.590  0.3708 -0.7817 -0.8284
  232MOL0     H30598   8.391  10.434   6.368 -2.0197  0.7130  1.1184
  232MOL0     H30599   8.483  10.280   6.405  1.0717  1.8709 -2.4016
  232MOL0     H30600   8.609  10.474   6.462  0.3326 -2.4780  0.9752
  232MOL0     H30601   8.586  10.356   6.578 -0.5086  1.5917  3.1337
  232MOL0     H30602   8.414  10.488   6.698  2.0210 -0.1598  1.3275
  232MOL0     H30603   8.555  10.593   6.672 -0.1934  1.5720 -1.1683
  232MOL0     H30604   8.310  10.608   6.503 -0.6272  0.8165  0.4433
  232MOL0     H30605   8.439  10.739   6.504 -1.3318 -0.8747 -2.6766
  232MOL0     H30606   7.817   9.992   6.241  1.8570  1.5447 -1.9715
  232MOL0     H30607   7.614   9.933   6.159  1.0962 -1.1275  1.9734
  232MOL0     H30608   7.186  10.029   5.890  1.6508  1.9431  0.8318
  232MOL0     H30609   6.945  10.050   5.867  0.6292  2.8230 -1.4018
  232MOL0     H30610   5.821   9.101   6.243 -3.0887  0.5741 -1.2300
  232MOL0     H30611   5.715   9.199   6.051  0.4546 -1.3953 -2.2222
  232MOL0     H30612   5.618   9.635   5.930  0.6317 -0.4426  0.6967
  232MOL0     H30613   5.403   9.688   5.835  0.1492 -0.0029 -0.6433
  232MOL0     H30614   5.203   9.452   5.496  0.2010  0.2919  1.7433
  232MOL0     H30615   5.338   9.574   5.472 -0.1763  1.8894  0.4628
  232MOL0     H30616   5.055   9.623   5.545 -1.3074  0.5910  0.9833
  232MOL0     H30617   5.161   9.751   5.468 -2.0905  0.3507  1.9138
  232MOL0     H30618   4.990   9.673   5.322  0.5779  1.8726 -2.3541
  232MOL0     H30619   5.040   9.510   5.355 -2.9793  1.6513  0.7153
  232MOL0     H30620   5.273   9.564   5.260 -1.1584  0.7606  1.0439
  232MOL0     H30621   5.141   9.546   5.148 -0.4613 -1.5111  1.6600
  232MOL0     H30622   5.226   9.979   5.159 -0.2435 -1.5178 -0.9407
  232MOL0     H30623   5.408   9.345   5.582  2.7594  1.6457 -3.5899
  232MOL0     H30624   5.623   9.285   5.680  0.4778 -0.0118  2.9733
  233MOL0     O30625   8.676  10.135   7.702  0.7678  0.3527 -0.2176
  233MOL0     C30626   8.605  10.141   7.605 -1.2156  0.2987 -0.2022
  233MOL0     O30627   8.597  10.250   7.521  0.6486 -1.2957  0.9013
  233MOL0     C30628   8.643  10.377   7.550  0.7260 -0.6761  0.1637
  233MOL0     C30629   8.621  10.447   7.664  0.1474 -0.4608  0.2610
  233MOL0     C30630   8.665  10.585   7.680 -0.4792  0.0214  0.1705
  233MOL0     C30631   8.729  10.639   7.567  0.9201 -0.2357 -0.1787
  233MOL0     O30632   8.784  10.761   7.576 -0.0894  0.5649 -0.5650
  233MOL0     C30633   8.695  10.878   7.556 -0.1787  0.3312  0.3475
  233MOL0     C30634   8.697  10.927   7.415  0.4960 -0.5376 -0.5566
  233MOL0     C30635   8.620  11.058   7.401 -0.0786 -0.5953 -0.7336
  233MOL0     C30636   8.661  11.139   7.274 -0.8177  0.0294 -1.0098
  233MOL0     C30637   8.622  11.061   7.146  0.8369  0.3660 -0.4786
  233MOL0     C30638   8.468  11.051   7.132  0.3924  0.0376  0.2430
  233MOL0     C30639   8.423  10.960   7.012 -0.8814 -0.2951  0.6337
  233MOL0     C30640   8.441  10.814   7.051 -0.3079  0.1440 -0.2682
  233MOL0     N30641   8.321  10.751   7.101 -0.7525  0.9155 -0.1970
  233MOL0     C30642   8.248  10.667   7.031  0.0040 -0.3792  0.8519
  233MOL0     C30643   8.128  10.666   7.097 -0.3371  0.5003  0.2481
  233MOL0     C30644   8.004  10.582   7.059 -0.6415 -0.9539 -0.1182
  233MOL0     C30645   7.901  10.656   6.971  0.6977 -0.2400  0.1965
  233MOL0     C30646   7.935  10.620   6.822  0.9917  0.3951 -0.9304
  233MOL0     C30647   7.817  10.667   6.735  0.0849  0.5466  0.2519
  233MOL0     O30648   7.832  10.603   6.602 -0.9075 -0.6218 -0.4441
  233MOL0     C30649   7.900  10.669   6.502 -0.5100 -1.4383 -0.8009
  233MOL0     C30650   7.932  10.586   6.396 -0.0029  1.2040  0.3590
  233MOL0     C30651   7.985  10.624   6.277  0.4903  0.5484 -1.0056
  233MOL0     C30652   8.030  10.760   6.267  0.0239  0.7921  0.2716
  233MOL0     C30653   8.079  10.813   6.133 -1.0157 -0.0507 -0.1997
  233MOL0     O30654   8.085  10.956   6.110  0.2318  0.6384  0.0684
  233MOL0     C30655   8.139  11.005   5.990 -0.5095 -0.1283  0.0718
  233MOL0     C30656   8.098  10.971   5.859  0.5418  0.8228 -0.2936
  233MOL0     C30657   8.158  11.012   5.743 -0.6310  0.3331  0.5787
  233MOL0     C30658   8.270  11.083   5.744  0.8002  0.8281 -0.2609
  233MOL0     O30659   8.339  11.126   5.630 -0.5435 -0.6411 -0.1742
  233MOL0     C30660   8.249  11.171   5.535 -0.0498 -0.4264  0.7028
  233MOL0     C30661   8.331  11.256   5.434  0.9661  0.4482  0.1796
  233MOL0     C30662   8.249  11.301   5.318  1.5358 -0.4043 -0.3159
  233MOL0     C30663   8.273  11.446   5.281 -0.0296  0.2148  0.1224
  233MOL0     C30664   8.192  11.498   5.168  0.4254  0.5577 -0.4854
  233MOL0     C30665   8.194  11.415   5.039  0.2218 -0.1241  0.5890
  233MOL0     C30666   8.330  11.394   4.974  0.5157 -0.4409 -0.7942
  233MOL0     C30667   8.311  11.329   4.839 -0.8297 -1.1325  0.6271
  233MOL0    Cl30668   8.462  11.324   4.740  0.4743  0.2732  0.2021
  233MOL0     C30669   8.305  11.135   5.868  0.9844  0.8404 -0.7450
  233MOL0     C30670   8.234  11.105   5.987  0.4339 -0.5952  0.0726
  233MOL0     O30671   8.111  10.727   6.045  0.3237  0.3840 -0.2180
  233MOL0     C30672   8.024  10.850   6.375 -0.5233  0.5078  0.0352
  233MOL0     C30673   7.956  10.811   6.498  0.3365 -0.1442  0.3159
  233MOL0     N30674   8.133  10.743   7.215 -0.0578  0.9232  1.2398
  233MOL0     N30675   8.250  10.798   7.207 -0.0523 -0.0300 -0.0505
  233MOL0     C30676   8.748  10.565   7.445 -0.3313  0.5617  0.5357
  233MOL0     C30677   8.703  10.435   7.439 -0.8815 -0.1306  0.1743
  233MOL0     C30678   8.567  10.013   7.559  0.1613  0.4344  0.7258
  233MOL0     C30679   8.528   9.998   7.425  0.3825 -0.7055 -0.2718
  233MOL0     C30680   8.489   9.869   7.377 -0.0765 -0.5648 -0.5531
  233MOL0     C30681   8.507   9.750   7.449  0.9407  0.3535  0.7847
  233MOL0     O30682   8.484   9.627   7.402  0.2675 -0.4287  0.0377
  233MOL0     C30683   8.399   9.614   7.288 -0.0748 -0.3101 -0.2336
  233MOL0     C30684   8.384   9.473   7.235  0.1522  0.3152  0.3278
  233MOL0     C30685   8.508   9.405   7.193  0.7602  0.2457 -0.3797
  233MOL0     C30686   8.486   9.254   7.187 -0.4097 -0.4816  0.2438
  233MOL0     C30687   8.491   9.181   7.319 -0.1319  0.3710  0.5299
  233MOL0     C30688   8.499   9.113   7.421  0.1202 -0.4522  0.3740
  233MOL0     C30689   8.535   9.769   7.587 -0.1766 -0.5119 -0.0245
  233MOL0     C30690   8.565   9.894   7.634 -0.1925 -0.3576 -0.1118
  233MOL0     H30691   8.556  10.409   7.742 -1.7727  2.7825  0.4039
  233MOL0     H30692   8.665  10.647   7.768 -2.0942  2.0211 -1.1565
  233MOL0     H30693   8.704  10.961   7.627  2.7151  3.1535 -2.9931
  233MOL0     H30694   8.597  10.830   7.567  0.5481 -1.1873  0.4758
  233MOL0     H30695   8.651  10.849   7.353 -2.5622 -0.7686  1.8196
  233MOL0     H30696   8.802  10.952   7.393 -0.1776  2.3402 -0.8667
  233MOL0     H30697   8.649  11.124   7.483  1.9978 -4.4155  1.9175
  233MOL0     H30698   8.512  11.039   7.409 -0.1293  0.2382  5.8887
  233MOL0     H30699   8.609  11.235   7.283  1.4276  1.1680  0.9477
  233MOL0     H30700   8.767  11.165   7.288 -1.6241  1.5301  4.1982
  233MOL0     H30701   8.674  10.965   7.159  0.0358  0.0321  0.3663
  233MOL0     H30702   8.645  11.105   7.048  0.0931 -2.3658 -1.9875
  233MOL0     H30703   8.428  11.150   7.109 -0.7867 -0.1457  1.3688
  233MOL0     H30704   8.415  11.021   7.224 -0.3167  2.1182  0.5522
  233MOL0     H30705   8.321  10.967   6.973 -0.2682  0.2193 -0.9537
  233MOL0     H30706   8.482  10.973   6.921 -3.1146  0.2395 -0.8102
  233MOL0     H30707   8.529  10.797   7.114 -0.5442  0.3630  0.1219
  233MOL0     H30708   8.471  10.760   6.960 -0.3843  0.8276 -0.7058
  233MOL0     H30709   8.272  10.616   6.938 -4.0010  1.0755 -1.1860
  233MOL0     H30710   7.953  10.556   7.153  0.9626 -0.5659  0.9094
  233MOL0     H30711   8.026  10.485   7.014 -1.2727 -0.6577 -1.1015
  233MOL0     H30712   7.879  10.763   6.982 -2.9096 -0.9653  1.5833
  233MOL0     H30713   7.806  10.606   6.993  1.6777 -2.3309 -0.1523
  233MOL0     H30714   8.025  10.675   6.790 -0.1853  3.2347  0.3524
  233MOL0     H30715   7.965  10.515   6.823  1.0773  0.4229  0.3580
  233MOL0     H30716   7.801  10.774   6.721 -0.2787  0.4050 -0.4569
  233MOL0     H30717   7.719  10.624   6.761 -0.1399  0.7869 -0.1807
  233MOL0     H30718   7.911  10.480   6.411  2.6937  0.6949  1.0952
  233MOL0     H30719   7.995  10.560   6.190 -0.0113 -1.3993  0.3036
  233MOL0     H30720   8.014  10.905   5.836  0.0470  0.8734  1.2989
  233MOL0     H30721   8.109  10.975   5.653 -1.1261 -1.1097  1.4191
  233MOL0     H30722   8.163  11.226   5.575  0.2097  0.0419  0.6162
  233MOL0     H30723   8.206  11.089   5.477 -4.4038  1.1528  1.3101
  233MOL0     H30724   8.423  11.208   5.398  1.1987  0.3853  0.8330
  233MOL0     H30725   8.354  11.347   5.491 -1.4471  0.3543  1.4235
  233MOL0     H30726   8.142  11.286   5.332  1.5725  1.2183  2.2865
  233MOL0     H30727   8.274  11.219   5.249 -1.0072 -2.2843  0.8797
  233MOL0     H30728   8.256  11.515   5.364 -2.4136  0.2313 -0.3162
  233MOL0     H30729   8.379  11.447   5.252  0.2419 -2.7868  0.6788
  233MOL0     H30730   8.225  11.601   5.153  0.7256  0.6469  0.7041
  233MOL0     H30731   8.089  11.506   5.202  1.2052 -1.7739  3.0903
  233MOL0     H30732   8.124  11.457   4.966 -0.4766  0.2696  1.4708
  233MOL0     H30733   8.162  11.316   5.072  2.4460 -1.1096 -0.0367
  233MOL0     H30734   8.365  11.497   4.976  0.7797 -0.5394 -0.2447
  233MOL0     H30735   8.391  11.332   5.040  1.8040  0.9117 -0.6484
  233MOL0     H30736   8.243  11.396   4.787  2.3601  5.1349  3.4879
  233MOL0     H30737   8.269  11.228   4.845 -0.5903 -1.3668 -1.1952
  233MOL0     H30738   8.389  11.203   5.871 -0.4035  2.9794 -4.0000
  233MOL0     H30739   8.248  11.161   6.079 -0.5814 -0.4231  0.1333
  233MOL0     H30740   8.042  10.955   6.356  2.3302 -0.0373 -0.6374
  233MOL0     H30741   7.925  10.884   6.572 -2.7981 -0.4652 -0.5589
  233MOL0     H30742   8.809  10.613   7.369  0.0252  0.0430  0.4911
  233MOL0     H30743   8.728  10.363   7.361 -1.0715 -1.5217  1.3558
  233MOL0     H30744   8.498  10.083   7.365 -0.8944 -0.4877  0.6360
  233MOL0     H30745   8.449   9.859   7.276 -0.2575  1.5922 -0.7560
  233MOL0     H30746   8.421   9.682   7.205 -4.1358  0.1035 -1.2201
  233MOL0     H30747   8.297   9.646   7.315 -0.7593 -0.6374 -2.2508
  233MOL0     H30748   8.334   9.426   7.320 -3.7594 -0.1579 -2.0166
  233MOL0     H30749   8.301   9.475   7.164  0.4281  0.1481 -0.0024
  233MOL0     H30750   8.591   9.424   7.262 -0.4225  2.3141  0.5475
  233MOL0     H30751   8.538   9.443   7.094  0.6825 -2.1201 -1.3743
  233MOL0     H30752   8.396   9.230   7.130 -0.7606 -1.0732  1.0368
  233MOL0     H30753   8.574   9.225   7.128 -1.9080 -2.1873 -1.2890
  233MOL0     H30754   8.511   9.055   7.511 -0.9148 -2.0377 -0.4508
  233MOL0     H30755   8.522   9.682   7.650  1.3173 -3.4434 -3.4019
  233MOL0     H30756   8.617   9.907   7.729  1.6721 -1.1425 -0.9867
  234MOL0     O30757   7.098   6.479  10.057  0.5374  0.2729  0.0284
  234MOL0     C30758   7.052   6.577  10.005 -0.2988 -0.5184 -0.0802
  234MOL0     O30759   7.082   6.628   9.886 -1.0265 -0.8063 -0.3577
  234MOL0     C30760   7.207   6.619   9.823  0.2508 -0.1620  0.6700
  234MOL0     C30761   7.252   6.488   9.792  0.5826 -0.0253  1.2356
  234MOL0     C30762   7.368   6.475   9.724 -0.3103 -0.6923  0.9048
  234MOL0     C30763   7.443   6.591   9.676  0.9647  0.4786 -0.2619
  234MOL0     O30764   7.544   6.577   9.584 -0.8387 -0.7959 -0.4020
  234MOL0     C30765   7.486   6.582   9.451 -0.1908  0.4174 -0.2477
  234MOL0     C30766   7.558   6.478   9.360 -0.1775 -0.1876  0.0493
  234MOL0     C30767   7.709   6.504   9.358 -0.8659  0.8998  0.0086
  234MOL0     C30768   7.793   6.392   9.284  0.6314 -0.3179  0.0350
  234MOL0     C30769   7.948   6.410   9.280  0.8744  0.3363  0.8422
  234MOL0     C30770   8.013   6.293   9.207 -0.0100  0.1584  0.0169
  234MOL0     C30771   8.164   6.299   9.235 -0.6425  0.7478  0.5494
  234MOL0     C30772   8.215   6.245   9.373  0.4152  1.4252  0.2165
  234MOL0     N30773   8.314   6.318   9.449  0.4431 -0.2533  0.1171
  234MOL0     C30774   8.290   6.400   9.558  0.1807  1.2823 -0.2000
  234MOL0     C30775   8.404   6.460   9.592 -0.4589  0.0486 -0.1107
  234MOL0     C30776   8.429   6.530   9.721  0.0814 -0.5475  0.1872
  234MOL0     C30777   8.405   6.680   9.734  0.4599  0.2400 -0.6217
  234MOL0     C30778   8.476   6.761   9.625  0.6729  0.1744  0.0194
  234MOL0     C30779   8.625   6.731   9.603  0.3259 -0.7083 -0.9849
  234MOL0     O30780   8.697   6.730   9.721  0.7840  0.0839 -0.3211
  234MOL0     C30781   8.733   6.851   9.771  0.0830 -1.0815 -0.2227
  234MOL0     C30782   8.794   6.829   9.899 -0.3828 -0.9122  0.7661
  234MOL0     C30783   8.849   6.930   9.973  0.7003  0.8819  0.5442
  234MOL0     C30784   8.833   7.061   9.921  0.5443 -1.0473  0.3303
  234MOL0     C30785   8.887   7.180   9.989 -0.3550 -0.3530 -0.2849
  234MOL0     O30786   8.834   7.299   9.960 -0.3782 -0.2360 -0.0583
  234MOL0     C30787   8.896   7.410  10.019  0.0308  0.9528  0.9694
  234MOL0     C30788   8.905   7.421  10.153  0.2716  0.5397 -0.2249
  234MOL0     C30789   8.944   7.545  10.213 -0.7779  0.1637 -0.0512
  234MOL0     C30790   8.981   7.645  10.126 -1.0330 -0.2621 -0.1767
  234MOL0     O30791   9.033   7.765  10.164 -1.2789  0.3335 -0.2943
  234MOL0     C30792   9.147   7.772  10.249 -0.0611 -0.3988  0.4794
  234MOL0     C30793   9.204   7.917  10.256 -0.0933 -0.4538 -0.0666
  234MOL0     C30794   9.108   7.989  10.359  0.7053  0.1367 -0.9286
  234MOL0     C30795   9.161   8.117  10.411 -0.1532  0.7756  0.1327
  234MOL0     C30796   9.046   8.175  10.503 -0.6616 -0.2298  0.9070
  234MOL0     C30797   9.091   8.295  10.579 -0.0787 -0.2007 -0.1442
  234MOL0     C30798   8.968   8.371  10.630 -0.9077  0.7171  0.5614
  234MOL0     C30799   8.909   8.293  10.748  0.1152 -1.6134  0.2988
  234MOL0    Cl30800   8.757   8.214  10.704  0.5735  0.1105  0.3313
  234MOL0     C30801   8.968   7.632   9.989 -0.9315  0.4092  0.4813
  234MOL0     C30802   8.934   7.510   9.930 -0.0877 -0.0489  0.4103
  234MOL0     O30803   8.970   7.158  10.071 -0.0997 -0.9023  0.4739
  234MOL0     C30804   8.755   7.084   9.804 -0.3188  0.2079 -0.8648
  234MOL0     C30805   8.707   6.978   9.722  0.3535  0.1776 -0.2574
  234MOL0     N30806   8.499   6.433   9.502  0.1425  0.3548  0.5814
  234MOL0     N30807   8.451   6.333   9.431  1.3044 -0.1108 -0.1880
  234MOL0     C30808   7.394   6.719   9.714 -0.7827  0.0712  0.0486
  234MOL0     C30809   7.283   6.727   9.793  0.5217 -0.5863  0.4094
  234MOL0     C30810   6.925   6.625  10.055  0.7789  0.4022  0.6492
  234MOL0     C30811   6.828   6.675   9.969 -0.2319  0.2395  0.4936
  234MOL0     C30812   6.706   6.723  10.026 -1.4280 -0.0518  0.8906
  234MOL0     C30813   6.680   6.717  10.165  0.0112 -1.3423  0.8711
  234MOL0     O30814   6.577   6.788  10.217  0.0238  0.2238 -0.1684
  234MOL0     C30815   6.445   6.782  10.162 -0.0491  1.1526  0.2315
  234MOL0     C30816   6.365   6.867  10.250 -0.4954 -0.0847 -0.4583
  234MOL0     C30817   6.210   6.848  10.237 -0.3684  0.4783 -0.2081
  234MOL0     C30818   6.141   6.916  10.355  0.0838  0.1787  0.4607
  234MOL0     C30819   5.992   6.878  10.362 -0.1773 -0.0385 -0.0049
  234MOL0     C30820   5.874   6.843  10.355  0.4049  0.3655 -0.2712
  234MOL0     C30821   6.772   6.667  10.246  0.3483  0.8776 -0.3012
  234MOL0     C30822   6.891   6.610  10.190 -0.1957 -0.6504  0.1890
  234MOL0     H30823   7.200   6.396   9.816 -1.3728 -0.0800 -2.3805
  234MOL0     H30824   7.410   6.375   9.712  1.5586 -0.1511  2.3728
  234MOL0     H30825   7.505   6.685   9.421 -1.8046  0.0139 -3.0722
  234MOL0     H30826   7.377   6.568   9.448  0.0220 -1.6111 -0.0192
  234MOL0     H30827   7.521   6.482   9.257  0.5837 -2.9558 -0.4038
  234MOL0     H30828   7.545   6.377   9.398  2.5119  0.3903  2.9211
  234MOL0     H30829   7.746   6.512   9.461 -0.0454  0.2402 -0.2225
  234MOL0     H30830   7.730   6.601   9.312 -0.6396  1.1548  0.6400
  234MOL0     H30831   7.761   6.293   9.318 -1.1894 -0.0413 -0.7281
  234MOL0     H30832   7.761   6.392   9.179  3.1943  0.9031 -0.8221
  234MOL0     H30833   7.973   6.401   9.386  0.5888  2.7243  1.1792
  234MOL0     H30834   7.989   6.505   9.242  1.2721 -0.9566 -2.2855
  234MOL0     H30835   7.988   6.312   9.102  1.3917 -1.2511 -0.6113
  234MOL0     H30836   7.967   6.199   9.238 -0.1168 -0.1190 -0.9494
  234MOL0     H30837   8.227   6.239   9.168 -0.8148  0.6223  0.5006
  234MOL0     H30838   8.205   6.400   9.225  1.8453 -0.1789  0.6078
  234MOL0     H30839   8.258   6.147   9.351  0.5405  1.7132 -0.8547
  234MOL0     H30840   8.122   6.227   9.428 -0.1578  0.3512 -1.0390
  234MOL0     H30841   8.201   6.397   9.620 -0.9303  2.3385 -1.6692
  234MOL0     H30842   8.534   6.508   9.742  0.3344  0.7272  0.3532
  234MOL0     H30843   8.387   6.482   9.810  1.1952 -0.0211  1.0223
  234MOL0     H30844   8.444   6.715   9.830  3.0032 -2.0744 -0.6873
  234MOL0     H30845   8.298   6.705   9.737  0.9114  2.3928 -0.3864
  234MOL0     H30846   8.417   6.748   9.534 -0.9056 -1.6288  1.2313
  234MOL0     H30847   8.462   6.866   9.652  1.1888  0.2569 -0.0319
  234MOL0     H30848   8.672   6.802   9.534 -0.4635  3.3919  2.3098
  234MOL0     H30849   8.624   6.642   9.540  0.2680  0.6813 -3.0410
  234MOL0     H30850   8.812   6.730   9.938 -1.3885 -0.2870  2.9775
  234MOL0     H30851   8.915   6.913  10.057  0.1003  2.1756  1.2880
  234MOL0     H30852   8.867   7.342  10.217  0.2540  0.0491 -0.8405
  234MOL0     H30853   8.946   7.556  10.321 -2.0867 -0.7837  0.0920
  234MOL0     H30854   9.225   7.708  10.206 -2.2750 -0.5118 -3.8832
  234MOL0     H30855   9.122   7.736  10.349 -0.5917  1.5378  1.1004
  234MOL0     H30856   9.196   7.972  10.162 -1.1007 -0.9831 -0.3070
  234MOL0     H30857   9.305   7.919  10.297  0.2941 -0.7255 -0.9805
  234MOL0     H30858   9.091   7.928  10.448 -2.1728 -1.0588 -2.1585
  234MOL0     H30859   9.007   7.988  10.318  1.0874 -5.0427 -2.4574
  234MOL0     H30860   9.253   8.102  10.468  0.2375  0.1473 -0.6359
  234MOL0     H30861   9.170   8.194  10.334 -0.8622  2.7724  1.9359
  234MOL0     H30862   9.019   8.094  10.570 -0.8798 -0.8369  0.0970
  234MOL0     H30863   8.962   8.209  10.441 -1.2805  0.7859  2.2396
  234MOL0     H30864   9.133   8.365  10.506  0.9859  2.1142  2.5348
  234MOL0     H30865   9.173   8.273  10.648 -0.0782 -1.0339 -0.3925
  234MOL0     H30866   9.014   8.464  10.664  1.1031  1.2849 -3.1907
  234MOL0     H30867   8.895   8.387  10.550 -1.0475 -0.4663  0.4254
  234MOL0     H30868   8.889   8.372  10.822 -0.0209 -0.5022 -0.8977
  234MOL0     H30869   8.978   8.230  10.805  1.4367  0.8540  1.6139
  234MOL0     H30870   8.988   7.717   9.924 -0.5992  0.0624  0.1172
  234MOL0     H30871   8.936   7.505   9.822  4.0983 -0.7596  0.3791
  234MOL0     H30872   8.763   7.184   9.764 -1.0325 -0.0394 -1.6645
  234MOL0     H30873   8.658   7.000   9.627  0.7532  0.9820 -0.2860
  234MOL0     H30874   7.454   6.804   9.683  0.3124 -0.7918 -0.2957
  234MOL0     H30875   7.244   6.824   9.821  1.2868  0.1239 -0.8796
  234MOL0     H30876   6.827   6.688   9.862  1.1049  0.6045  0.5028
  234MOL0     H30877   6.626   6.768   9.969 -0.1068  0.1288 -0.8987
  234MOL0     H30878   6.409   6.679  10.158  1.1619  0.7411 -1.7782
  234MOL0     H30879   6.444   6.832  10.065 -1.5206  3.8547  1.5424
  234MOL0     H30880   6.394   6.846  10.353 -0.6412  0.5648 -0.2770
  234MOL0     H30881   6.390   6.974  10.244 -0.6850  0.0684  1.1449
  234MOL0     H30882   6.195   6.740  10.242  1.4876  0.2337  0.6956
  234MOL0     H30883   6.182   6.890  10.140 -1.9624 -0.0312  0.0003
  234MOL0     H30884   6.193   6.872  10.441 -0.0134 -2.5521 -0.7694
  234MOL0     H30885   6.143   7.022  10.332 -2.1338  0.1454 -0.0843
  234MOL0     H30886   5.769   6.822  10.363  0.5181 -0.3362 -0.5395
  234MOL0     H30887   6.759   6.667  10.353  0.5890 -1.1646 -0.2228
  234MOL0     H30888   6.961   6.565  10.260  1.1112  2.3131  0.9443
  235MOL0     O30889   6.564   3.141   1.321 -0.0113  0.0482  0.3772
  235MOL0     C30890   6.496   3.127   1.215  0.3792 -0.1683  0.4097
  235MOL0     O30891   6.524   3.172   1.093 -0.1346 -0.5807  0.7220
  235MOL0     C30892   6.612   3.273   1.066  0.8687 -0.2912 -0.5442
  235MOL0     C30893   6.668   3.280   0.937  0.2060  0.2046  0.5330
  235MOL0     C30894   6.759   3.383   0.902 -0.7231  0.5524 -0.1944
  235MOL0     C30895   6.788   3.484   0.996 -0.2967 -0.4694  0.3742
  235MOL0     O30896   6.858   3.591   0.952 -0.8144 -0.5621 -0.0180
  235MOL0     C30897   6.836   3.640   0.817 -0.6326 -0.1292  0.4444
  235MOL0     C30898   6.932   3.759   0.801  0.6881 -0.3417 -0.0554
  235MOL0     C30899   6.896   3.877   0.898  0.1461 -0.6317 -0.8778
  235MOL0     C30900   6.979   4.002   0.853  0.4066  0.1978  0.4036
  235MOL0     C30901   6.948   4.132   0.937 -0.4781 -0.9334 -0.1164
  235MOL0     C30902   6.982   4.114   1.087 -0.3939  0.0327 -0.4609
  235MOL0     C30903   7.011   4.240   1.167  0.2648  0.4650  0.2623
  235MOL0     C30904   6.996   4.216   1.325 -0.3739  0.8576 -0.6631
  235MOL0     N30905   7.025   4.339   1.398  0.8190  0.3002  0.0688
  235MOL0     C30906   7.135   4.347   1.484 -0.0932 -0.2398 -0.1522
  235MOL0     C30907   7.110   4.467   1.544 -0.2726 -0.0049 -0.8655
  235MOL0     C30908   7.195   4.544   1.641  0.1148 -0.7799 -0.4748
  235MOL0     C30909   7.246   4.679   1.598 -0.4564  0.2329  0.2733
  235MOL0     C30910   7.151   4.800   1.632  0.0196  0.6459  0.3699
  235MOL0     C30911   7.209   4.930   1.579 -1.3441 -0.0692 -0.2021
  235MOL0     O30912   7.305   4.972   1.682  0.1969  0.5877  0.5212
  235MOL0     C30913   7.310   5.111   1.690 -0.3383 -0.3686  0.6721
  235MOL0     C30914   7.338   5.198   1.578  1.1567  0.0821 -0.0377
  235MOL0     C30915   7.352   5.340   1.585 -1.0132  0.2567 -0.3156
  235MOL0     C30916   7.340   5.392   1.713 -0.2435 -0.7507  0.0005
  235MOL0     C30917   7.349   5.539   1.737  0.0979  0.4473  0.4195
  235MOL0     O30918   7.439   5.601   1.662 -0.2009 -0.0869 -0.3111
  235MOL0     C30919   7.445   5.736   1.649 -0.3387 -0.0521  0.1740
  235MOL0     C30920   7.422   5.832   1.741 -0.3529 -0.0591 -1.0175
  235MOL0     C30921   7.435   5.966   1.715  0.4020  0.6877  0.5660
  235MOL0     C30922   7.471   6.020   1.586  0.2594  0.9577 -0.3192
  235MOL0     O30923   7.491   6.149   1.548 -0.8532  0.1341 -0.2957
  235MOL0     C30924   7.449   6.269   1.615  0.6159  0.5911  0.1388
  235MOL0     C30925   7.558   6.299   1.711  0.1054 -0.4693  0.2890
  235MOL0     C30926   7.504   6.367   1.832  0.3782  0.5222  0.8271
  235MOL0     C30927   7.461   6.514   1.816  0.1217 -0.6870 -0.3843
  235MOL0     C30928   7.461   6.586   1.956  0.9112 -0.5336 -0.6595
  235MOL0     C30929   7.415   6.733   1.946 -0.5606 -0.3010 -0.9473
  235MOL0     C30930   7.426   6.820   2.080  0.5644 -1.6377  1.1512
  235MOL0     C30931   7.415   6.973   2.044 -0.2150 -0.2319 -0.0131
  235MOL0    Cl30932   7.256   7.031   1.990 -0.4178 -0.2081  0.0501
  235MOL0     C30933   7.494   5.921   1.486  0.9040 -0.7750  0.2125
  235MOL0     C30934   7.488   5.781   1.522 -0.4872  1.5093 -0.6583
  235MOL0     O30935   7.286   5.593   1.831  0.3926  0.9431 -0.0588
  235MOL0     C30936   7.314   5.309   1.819  0.0440  0.9984 -0.9459
  235MOL0     C30937   7.303   5.168   1.817 -1.1068  0.3894 -0.4717
  235MOL0     N30938   6.990   4.523   1.504  0.1590  0.4053  0.4249
  235MOL0     N30939   6.936   4.440   1.416 -0.2841 -0.2036 -0.2761
  235MOL0     C30940   6.739   3.476   1.125  0.0339 -0.0144  0.4995
  235MOL0     C30941   6.655   3.372   1.164 -0.9989  0.3044 -0.2358
  235MOL0     C30942   6.365   3.058   1.230  0.7412 -0.4123  0.1189
  235MOL0     C30943   6.306   3.048   1.352 -0.2177  1.2318 -0.5601
  235MOL0     C30944   6.180   2.981   1.362 -0.3288 -0.8131 -0.0788
  235MOL0     C30945   6.122   2.912   1.260  0.8943  0.8659  0.5669
  235MOL0     O30946   6.006   2.845   1.276  0.0980  0.3558  0.2878
  235MOL0     C30947   5.955   2.789   1.399 -0.1415  0.5504 -0.5509
  235MOL0     C30948   5.847   2.692   1.359 -0.3440  0.0651  0.9426
  235MOL0     C30949   5.715   2.747   1.306 -0.5387  0.2876 -0.0360
  235MOL0     C30950   5.607   2.635   1.286 -1.5669 -0.0164 -0.1457
  235MOL0     C30951   5.660   2.513   1.213  0.6716 -0.1832 -1.2677
  235MOL0     C30952   5.681   2.408   1.161 -0.4473  0.2970 -0.3002
  235MOL0     C30953   6.186   2.922   1.139 -0.7208 -0.0420 -0.1624
  235MOL0     C30954   6.298   2.999   1.121  0.2948  1.3575  0.1094
  235MOL0     H30955   6.630   3.202   0.872  4.6563 -1.7852 -0.0667
  235MOL0     H30956   6.787   3.387   0.797 -2.4977 -1.4893 -0.8198
  235MOL0     H30957   6.731   3.659   0.789 -0.8123 -1.1326  0.4000
  235MOL0     H30958   6.873   3.576   0.736  3.2384  2.3271  0.0522
  235MOL0     H30959   6.938   3.798   0.699  0.6153 -2.1394 -0.7843
  235MOL0     H30960   7.034   3.721   0.814 -0.1736 -2.1313  2.0651
  235MOL0     H30961   6.925   3.852   1.000  1.3994  2.9119 -0.2140
  235MOL0     H30962   6.791   3.905   0.916  0.4221 -1.5720  3.1841
  235MOL0     H30963   7.087   3.983   0.858  0.5652 -1.0918 -3.7679
  235MOL0     H30964   6.942   4.025   0.752 -1.2410  0.9221  1.1387
  235MOL0     H30965   6.841   4.151   0.920 -0.3704  0.4919  0.6266
  235MOL0     H30966   7.013   4.207   0.891 -1.3238 -1.3361 -2.0741
  235MOL0     H30967   7.073   4.055   1.103 -0.3758  0.7029  2.7583
  235MOL0     H30968   6.909   4.049   1.136  1.1201 -1.7857 -0.5093
  235MOL0     H30969   7.109   4.280   1.138  2.1704 -0.5005  4.5099
  235MOL0     H30970   6.935   4.315   1.142  0.0087  0.4602  1.0152
  235MOL0     H30971   7.065   4.142   1.365 -0.7516  2.2644  2.9728
  235MOL0     H30972   6.895   4.182   1.347 -0.6266 -0.9350 -3.9551
  235MOL0     H30973   7.217   4.276   1.490  0.1709 -0.0362 -1.1583
  235MOL0     H30974   7.284   4.490   1.674  2.1863  2.2379 -0.6565
  235MOL0     H30975   7.139   4.554   1.735 -1.5911  0.5901 -1.5796
  235MOL0     H30976   7.263   4.678   1.489  0.2486 -0.8533  0.3751
  235MOL0     H30977   7.344   4.696   1.644  0.9924 -1.5509 -1.9012
  235MOL0     H30978   7.056   4.779   1.582 -0.4992  2.0124  0.7372
  235MOL0     H30979   7.126   4.795   1.738  0.9823 -2.8705  0.5722
  235MOL0     H30980   7.130   5.006   1.568  1.9042  3.3602 -1.7600
  235MOL0     H30981   7.252   4.909   1.481 -0.2802 -0.5544  0.3549
  235MOL0     H30982   7.347   5.140   1.487 -0.1572 -2.7179  1.4867
  235MOL0     H30983   7.377   5.396   1.495  3.5765 -2.9540 -1.4007
  235MOL0     H30984   7.398   5.803   1.842 -0.6654 -0.0392 -1.0867
  235MOL0     H30985   7.409   6.028   1.801 -1.1482 -0.2850  0.8288
  235MOL0     H30986   7.356   6.242   1.667  0.7381 -2.2204 -0.9378
  235MOL0     H30987   7.431   6.347   1.541 -1.7527 -0.1673 -0.1820
  235MOL0     H30988   7.647   6.356   1.684 -0.1197 -0.1593  0.1958
  235MOL0     H30989   7.606   6.206   1.743 -2.8798 -1.5015  2.1850
  235MOL0     H30990   7.582   6.357   1.908  3.3397 -2.5042 -2.2526
  235MOL0     H30991   7.417   6.312   1.868 -0.1011  0.3914 -0.4767
  235MOL0     H30992   7.536   6.564   1.754  1.8726 -1.7899  0.7452
  235MOL0     H30993   7.360   6.521   1.775  0.3134 -0.3693 -0.8113
  235MOL0     H30994   7.558   6.588   2.007  0.2844 -3.7658  0.8465
  235MOL0     H30995   7.394   6.530   2.021 -0.6763  2.2228  0.2718
  235MOL0     H30996   7.312   6.733   1.909 -0.1605  4.3411 -2.7775
  235MOL0     H30997   7.486   6.771   1.871 -0.1063  1.2522  0.2145
  235MOL0     H30998   7.353   6.797   2.158 -1.4814  1.0176  0.1742
  235MOL0     H30999   7.523   6.794   2.122  3.3918  1.3402 -2.7673
  235MOL0     H31000   7.487   7.007   1.969 -2.3267  2.1214 -1.1093
  235MOL0     H31001   7.425   7.026   2.138  1.1802  2.0935 -1.3807
  235MOL0     H31002   7.512   5.954   1.384  3.0251  1.1658  1.1241
  235MOL0     H31003   7.519   5.703   1.454 -3.5127 -1.6440  1.2996
  235MOL0     H31004   7.304   5.348   1.920  1.4532  3.7366 -1.7883
  235MOL0     H31005   7.286   5.088   1.889 -2.9667  0.5584 -0.6849
  235MOL0     H31006   6.779   3.543   1.201  2.4218  1.3258 -1.7505
  235MOL0     H31007   6.622   3.366   1.267  3.9584  0.5569  1.6095
  235MOL0     H31008   6.355   3.093   1.438  0.1378  0.4049 -0.3276
  235MOL0     H31009   6.145   2.972   1.464  2.1938 -1.4776  0.7924
  235MOL0     H31010   5.899   2.860   1.460 -0.9473 -1.7325  1.5780
  235MOL0     H31011   6.029   2.743   1.465  1.0643  1.9434 -0.8966
  235MOL0     H31012   5.874   2.627   1.275  0.6835  0.0998  1.2305
  235MOL0     H31013   5.837   2.626   1.445  0.3975 -3.0180 -1.1889
  235MOL0     H31014   5.742   2.788   1.208  2.0945  2.3153  1.4077
  235MOL0     H31015   5.675   2.827   1.368 -3.3045 -0.0348 -1.2702
  235MOL0     H31016   5.564   2.623   1.386 -0.1869  4.1831  1.1782
  235MOL0     H31017   5.527   2.690   1.235 -1.0620  0.9668  0.1063
  235MOL0     H31018   5.694   2.315   1.110 -0.8597  0.6402 -1.0580
  235MOL0     H31019   6.152   2.847   1.069 -2.1181  2.3336 -2.1731
  235MOL0     H31020   6.344   3.001   1.023  2.0896  0.0100  0.8567
  236MOL0     O31021   5.064   4.978   5.116 -0.1048 -0.2800 -0.5718
  236MOL0     C31022   5.087   5.036   5.010 -0.2937 -0.2711  0.1918
  236MOL0     O31023   5.190   5.007   4.919  0.2575  0.1147  0.8222
  236MOL0     C31024   5.272   4.905   4.946  0.0340  0.2409 -0.1677
  236MOL0     C31025   5.232   4.775   4.951 -0.0252  0.2741  0.2799
  236MOL0     C31026   5.324   4.665   4.961 -0.9681  0.8199  1.0182
  236MOL0     C31027   5.468   4.695   4.954  1.2453  0.0141  0.3859
  236MOL0     O31028   5.557   4.589   4.951 -0.3406  0.2056 -0.0506
  236MOL0     C31029   5.690   4.612   4.904  0.2492 -0.9150 -0.1578
  236MOL0     C31030   5.770   4.481   4.914 -0.3194  0.4824 -0.6862
  236MOL0     C31031   5.734   4.392   4.799  0.0359  0.6009  0.5495
  236MOL0     C31032   5.809   4.263   4.829  0.1305 -0.4099  0.8117
  236MOL0     C31033   5.809   4.175   4.711  0.6340  0.4419  0.1173
  236MOL0     C31034   5.905   4.203   4.589  0.0664 -0.8002 -0.3202
  236MOL0     C31035   6.053   4.205   4.636  0.2604 -0.0680  0.5026
  236MOL0     C31036   6.143   4.244   4.525  0.2407  0.3822  0.7909
  236MOL0     N31037   6.281   4.266   4.564  0.1305 -0.6751 -0.2346
  236MOL0     C31038   6.354   4.173   4.632  0.4471 -0.0943  0.1777
  236MOL0     C31039   6.478   4.217   4.628  0.0691 -0.6388  0.5293
  236MOL0     C31040   6.601   4.141   4.676  0.0705 -0.4892 -0.0650
  236MOL0     C31041   6.645   4.200   4.797 -0.7258 -0.8641  0.1705
  236MOL0     C31042   6.724   4.097   4.876 -0.5190 -0.0054 -0.1177
  236MOL0     C31043   6.775   4.149   5.007  0.2571  0.9329 -0.2358
  236MOL0     O31044   6.884   4.244   4.986 -0.1847 -0.4473 -0.2056
  236MOL0     C31045   6.919   4.331   5.088 -1.1025  0.7752  0.2910
  236MOL0     C31046   6.899   4.290   5.220 -0.5182 -0.7696 -0.4946
  236MOL0     C31047   6.927   4.383   5.320 -0.2735 -0.9460 -0.3511
  236MOL0     C31048   6.999   4.505   5.295  0.4097  0.2220 -0.0547
  236MOL0     C31049   7.053   4.586   5.406 -0.5738 -0.1922  0.2044
  236MOL0     O31050   7.001   4.533   5.527 -0.2454 -0.2001  0.4363
  236MOL0     C31051   7.024   4.594   5.641  0.6737  0.3960 -0.0955
  236MOL0     C31052   7.132   4.556   5.729  0.8045  0.2793 -0.4501
  236MOL0     C31053   7.142   4.619   5.853  0.1379 -0.2859 -0.0269
  236MOL0     C31054   7.052   4.719   5.895 -0.8201 -0.4051  0.1807
  236MOL0     O31055   7.081   4.770   6.022 -0.3235  0.3768  0.7367
  236MOL0     C31056   6.972   4.817   6.104 -1.1533  0.4799 -0.3719
  236MOL0     C31057   6.904   4.697   6.179 -0.0534  1.2526  0.0042
  236MOL0     C31058   6.878   4.730   6.330 -0.9388 -0.3276 -0.3254
  236MOL0     C31059   6.765   4.836   6.341  0.7296  0.1359 -0.7976
  236MOL0     C31060   6.738   4.864   6.500 -0.1886 -0.5083 -0.7901
  236MOL0     C31061   6.703   4.742   6.583  0.7995  0.6463  0.2702
  236MOL0     C31062   6.662   4.784   6.718  0.2331 -0.2332 -0.9879
  236MOL0     C31063   6.520   4.765   6.741  0.5432  0.0450  0.6575
  236MOL0    Cl31064   6.477   4.851   6.893  0.1066 -0.2537  0.0732
  236MOL0     C31065   6.954   4.776   5.802  0.1099  0.0895  1.0082
  236MOL0     C31066   6.930   4.700   5.678 -0.8687  0.3218 -1.0235
  236MOL0     O31067   7.140   4.677   5.396  0.1240 -0.1071  0.5827
  236MOL0     C31068   7.031   4.540   5.160 -1.5553  0.4836  0.9138
  236MOL0     C31069   6.980   4.454   5.063  0.5287 -0.4379  0.4394
  236MOL0     N31070   6.478   4.326   4.547  0.3364  0.5225  0.4555
  236MOL0     N31071   6.360   4.364   4.515 -0.4154 -0.0193  0.1441
  236MOL0     C31072   5.502   4.829   4.952  0.8601  0.4975  0.1605
  236MOL0     C31073   5.408   4.934   4.954 -0.5326  0.5479  1.5245
  236MOL0     C31074   4.992   5.141   4.968  0.5686  0.4699  0.0060
  236MOL0     C31075   4.897   5.191   5.058  0.5146  0.2172  0.3344
  236MOL0     C31076   4.813   5.297   5.016  0.4127 -0.1132 -0.6202
  236MOL0     C31077   4.808   5.347   4.891 -0.5977  0.0165 -0.8194
  236MOL0     O31078   4.721   5.454   4.861 -0.3100 -0.2745  0.1093
  236MOL0     C31079   4.763   5.532   4.750  0.6481 -0.4625 -0.1345
  236MOL0     C31080   4.662   5.651   4.744 -0.5277 -0.1813 -0.0384
  236MOL0     C31081   4.710   5.773   4.660 -0.8547 -0.4004 -0.1639
  236MOL0     C31082   4.825   5.847   4.727  0.0843 -0.0457  0.5298
  236MOL0     C31083   4.819   5.982   4.666 -0.7859  0.0031 -0.7182
  236MOL0     C31084   4.826   6.098   4.631  0.1774 -0.0491 -0.8662
  236MOL0     C31085   4.899   5.294   4.807  0.0870 -0.4486 -0.7403
  236MOL0     C31086   4.988   5.194   4.842  0.2637 -0.1992  0.0430
  236MOL0     H31087   5.127   4.758   4.928  0.1624 -2.0613  0.8350
  236MOL0     H31088   5.295   4.562   4.949 -0.5892  0.5881  1.9826
  236MOL0     H31089   5.733   4.697   4.958 -3.2054  1.3991 -0.7816
  236MOL0     H31090   5.695   4.643   4.799  0.4959  2.3922  0.7140
  236MOL0     H31091   5.743   4.436   5.009  1.3946 -1.4804 -1.0486
  236MOL0     H31092   5.876   4.509   4.921 -0.6126  1.2683  0.8456
  236MOL0     H31093   5.764   4.446   4.709  2.1704 -0.2603  0.7029
  236MOL0     H31094   5.627   4.369   4.798  0.1406  0.0487 -1.4670
  236MOL0     H31095   5.912   4.277   4.864 -0.0602 -0.8070  1.5454
  236MOL0     H31096   5.754   4.211   4.908 -2.1676  0.0332 -0.4178
  236MOL0     H31097   5.711   4.177   4.661 -0.0608  2.8516  1.4118
  236MOL0     H31098   5.818   4.072   4.747 -0.7612 -0.2041 -1.2555
  236MOL0     H31099   5.884   4.306   4.559  2.6225  0.3990  1.5492
  236MOL0     H31100   5.888   4.138   4.503 -1.9699 -2.7119  1.4141
  236MOL0     H31101   6.076   4.268   4.723  1.4077  1.1193 -0.6028
  236MOL0     H31102   6.091   4.104   4.653  0.9223 -0.5181 -3.0190
  236MOL0     H31103   6.097   4.332   4.478  1.6571 -0.4573 -2.5145
  236MOL0     H31104   6.157   4.165   4.450  0.0734  0.5822  0.5437
  236MOL0     H31105   6.326   4.075   4.668  2.6819 -0.4969  0.9684
  236MOL0     H31106   6.685   4.146   4.607 -0.6002 -2.1057 -1.0605
  236MOL0     H31107   6.569   4.038   4.698 -0.0375 -0.7905 -1.5362
  236MOL0     H31108   6.554   4.227   4.852 -0.0120  1.1843  0.4389
  236MOL0     H31109   6.699   4.294   4.782 -2.3426 -0.2126 -2.1060
  236MOL0     H31110   6.668   4.004   4.892  0.4324 -0.8505 -1.5673
  236MOL0     H31111   6.817   4.070   4.827 -0.9073  3.1508 -2.9504
  236MOL0     H31112   6.801   4.064   5.070 -0.6752 -0.2338 -1.3760
  236MOL0     H31113   6.688   4.208   5.040 -2.5982 -3.6257  1.2484
  236MOL0     H31114   6.860   4.194   5.251 -1.4299 -0.1792  0.2388
  236MOL0     H31115   6.917   4.355   5.425  2.1490 -0.4446  0.0587
  236MOL0     H31116   7.186   4.469   5.691  0.6039 -0.4604  0.8727
  236MOL0     H31117   7.228   4.590   5.913 -0.0316  0.6056  0.6771
  236MOL0     H31118   6.883   4.852   6.050 -2.4629  0.3533  1.6149
  236MOL0     H31119   7.016   4.896   6.165  0.9471 -0.9204  0.0377
  236MOL0     H31120   6.965   4.606   6.174 -1.2765  0.3975 -5.1103
  236MOL0     H31121   6.810   4.673   6.128 -1.4369  3.5229  1.2836
  236MOL0     H31122   6.968   4.773   6.375 -0.0997 -1.2757 -1.0606
  236MOL0     H31123   6.864   4.633   6.378 -2.5045  0.8354  1.7480
  236MOL0     H31124   6.791   4.933   6.298  2.4119  0.3013  0.4725
  236MOL0     H31125   6.677   4.791   6.294  1.1669  0.4054 -1.8793
  236MOL0     H31126   6.656   4.935   6.516  1.5711  0.7477  4.8392
  236MOL0     H31127   6.823   4.923   6.536 -2.1778  3.1648 -1.5877
  236MOL0     H31128   6.787   4.674   6.600  2.6242  1.9778 -2.6833
  236MOL0     H31129   6.622   4.687   6.535 -0.8129  3.8145 -0.9257
  236MOL0     H31130   6.699   4.717   6.796 -0.9577  0.4365  0.1969
  236MOL0     H31131   6.677   4.890   6.737  1.0498 -0.8015  2.0901
  236MOL0     H31132   6.493   4.659   6.744 -0.1435  0.1713 -0.4860
  236MOL0     H31133   6.459   4.812   6.663  1.9243  2.5082  0.9673
  236MOL0     H31134   6.884   4.856   5.825 -2.0651 -0.8317 -1.8549
  236MOL0     H31135   6.839   4.715   5.621 -1.5545  0.0866 -0.0145
  236MOL0     H31136   7.102   4.621   5.145 -0.5543 -0.1080  2.2386
  236MOL0     H31137   6.997   4.470   4.957 -2.1311 -1.4893 -0.2450
  236MOL0     H31138   5.606   4.859   4.946  0.9549  1.3860  3.8231
  236MOL0     H31139   5.440   5.038   4.952  1.7709 -0.1136 -0.0335
  236MOL0     H31140   4.888   5.170   5.164 -0.5802  0.3962  0.2894
  236MOL0     H31141   4.741   5.346   5.080  1.3976  0.5791  0.0042
  236MOL0     H31142   4.743   5.494   4.649 -1.0110  1.8600 -0.7626
  236MOL0     H31143   4.869   5.557   4.752  0.6542 -0.4228  2.5161
  236MOL0     H31144   4.572   5.600   4.707 -1.8764  0.8951  1.5992
  236MOL0     H31145   4.628   5.680   4.844  0.5522 -1.3719  0.6995
  236MOL0     H31146   4.616   5.829   4.653 -2.3039 -2.4923  1.6095
  236MOL0     H31147   4.733   5.750   4.555 -0.4235 -1.2669  0.1125
  236MOL0     H31148   4.806   5.848   4.835  0.4147  1.2748  0.5956
  236MOL0     H31149   4.913   5.784   4.715 -2.2509 -3.8783  1.5585
  236MOL0     H31150   4.847   6.201   4.610  1.7201  0.0621  0.9480
  236MOL0     H31151   4.898   5.324   4.703  2.1124 -1.2134 -1.0185
  236MOL0     H31152   5.048   5.146   4.765 -2.7520 -2.4437 -1.1325
  237MOL0     O31153  10.472   7.705   7.887  0.4381 -0.6814  0.4762
  237MOL0     C31154  10.553   7.614   7.910  0.8065  0.3551  0.3020
  237MOL0     O31155  10.611   7.531   7.818 -0.4046  0.1473 -1.0355
  237MOL0     C31156  10.575   7.545   7.691 -1.3490  0.0482 -0.4247
  237MOL0     C31157  10.518   7.429   7.638  0.1451 -0.2922 -0.4289
  237MOL0     C31158  10.481   7.424   7.503  0.7956  0.7307  0.3068
  237MOL0     C31159  10.512   7.527   7.413  0.7264 -0.0576 -0.0621
  237MOL0     O31160  10.490   7.508   7.278  0.4201 -0.1292  1.2494
  237MOL0     C31161  10.480   7.627   7.203  0.7345  0.3513  0.5000
  237MOL0     C31162  10.424   7.562   7.077  0.5054 -0.8501 -0.6504
  237MOL0     C31163  10.385   7.659   6.968  0.0262 -0.7416  0.5418
  237MOL0     C31164  10.483   7.761   6.914  0.0711  1.1941 -0.5229
  237MOL0     C31165  10.601   7.710   6.846 -0.7252 -0.5436 -0.0096
  237MOL0     C31166  10.589   7.650   6.707  0.4141  0.1188 -0.5191
  237MOL0     C31167  10.565   7.758   6.590 -1.1118 -0.9788  0.1834
  237MOL0     C31168  10.452   7.728   6.500  0.1713  0.1856  0.5567
  237MOL0     N31169  10.325   7.755   6.569  0.6715  0.4304  0.1872
  237MOL0     C31170  10.227   7.663   6.597  0.7703  0.1724 -0.4917
  237MOL0     C31171  10.119   7.740   6.636 -0.5717  0.4862  1.6965
  237MOL0     C31172   9.979   7.698   6.667 -0.9996  0.1332 -0.1593
  237MOL0     C31173   9.943   7.709   6.817 -0.1785 -0.2082  0.2501
  237MOL0     C31174   9.990   7.829   6.886 -0.3412  0.1163 -0.4545
  237MOL0     C31175   9.902   7.873   6.996  0.5169  1.1224 -0.4093
  237MOL0     O31176   9.929   7.999   7.044 -0.8365  0.2906 -0.2944
  237MOL0     C31177  10.058   8.039   7.080 -0.6521 -0.3234  1.3019
  237MOL0     C31178  10.127   8.160   7.051  0.3351  0.2106  0.1483
  237MOL0     C31179  10.255   8.191   7.103  0.1798  0.0427 -0.2761
  237MOL0     C31180  10.319   8.097   7.182  0.2668  1.0768  0.2854
  237MOL0     C31181  10.454   8.115   7.220  0.0258 -0.5824  0.0633
  237MOL0     O31182  10.505   8.026   7.313  0.3248 -0.2930  0.4406
  237MOL0     C31183  10.640   7.989   7.318  0.0567 -0.0400 -0.3877
  237MOL0     C31184  10.724   7.987   7.438  0.6498  0.1263 -0.5628
  237MOL0     C31185  10.853   7.942   7.429 -0.2459  0.1428 -0.5677
  237MOL0     C31186  10.904   7.900   7.306 -0.2735  0.6279 -0.5545
  237MOL0     O31187  11.035   7.862   7.301  0.1563 -0.0050 -0.6571
  237MOL0     C31188  11.134   7.964   7.284 -0.7843 -0.2205  0.6970
  237MOL0     C31189  11.251   7.930   7.365 -0.2383 -0.0532 -0.1838
  237MOL0     C31190  11.385   7.968   7.303 -0.6541 -0.3955 -0.1679
  237MOL0     C31191  11.410   8.116   7.332 -0.6758 -1.5021  0.7615
  237MOL0     C31192  11.479   8.151   7.467 -0.0445  0.8270  0.3600
  237MOL0     C31193  11.525   8.294   7.479 -0.2029  0.4086 -0.2705
  237MOL0     C31194  11.609   8.317   7.610 -0.0627  0.2941 -0.7525
  237MOL0     C31195  11.518   8.341   7.727 -0.4729 -1.0425  0.0035
  237MOL0    Cl31196  11.390   8.455   7.696 -0.4882 -0.1892 -0.3261
  237MOL0     C31197  10.826   7.894   7.193  0.1089 -0.7963  0.4776
  237MOL0     C31198  10.692   7.940   7.196 -1.0132 -1.2802  0.5685
  237MOL0     O31199  10.522   8.205   7.164 -0.0701  0.7221  0.5536
  237MOL0     C31200  10.253   7.976   7.213 -0.5380 -0.4951 -0.0319
  237MOL0     C31201  10.127   7.952   7.173 -0.9243  0.0151  1.2355
  237MOL0     N31202  10.150   7.873   6.641 -0.0999  0.9835  0.3857
  237MOL0     N31203  10.277   7.883   6.599 -0.5577 -0.1662  0.1873
  237MOL0     C31204  10.568   7.653   7.471  0.8614  0.0195  0.3075
  237MOL0     C31205  10.600   7.659   7.611  0.1251 -0.7000  0.1847
  237MOL0     C31206  10.584   7.601   8.046 -0.6201 -0.0306  0.0647
  237MOL0     C31207  10.672   7.497   8.095 -0.3034  0.0180 -0.4383
  237MOL0     C31208  10.689   7.467   8.228  0.3994  0.1976  0.4455
  237MOL0     C31209  10.615   7.544   8.324  0.9868 -0.7649  0.4652
  237MOL0     O31210  10.630   7.509   8.456  0.0897  0.3157 -0.1361
  237MOL0     C31211  10.580   7.601   8.560 -1.1723 -0.0779 -0.3513
  237MOL0     C31212  10.662   7.563   8.688 -0.3610 -1.1357 -0.8211
  237MOL0     C31213  10.814   7.545   8.675  0.3925 -0.1686  0.3995
  237MOL0     C31214  10.886   7.682   8.721  0.0798 -0.4073 -0.3740
  237MOL0     C31215  11.029   7.644   8.770 -0.7150  0.4719  0.1644
  237MOL0     C31216  11.143   7.627   8.793 -0.5230 -0.0121  0.8128
  237MOL0     C31217  10.543   7.656   8.281  0.5770 -0.4530  0.8852
  237MOL0     C31218  10.519   7.681   8.144  0.7146  0.1011  0.4491
  237MOL0     H31219  10.496   7.354   7.714 -0.7248 -2.0902 -2.3762
  237MOL0     H31220  10.424   7.344   7.457  2.0568 -0.8390  1.3280
  237MOL0     H31221  10.581   7.667   7.188  2.4565 -3.8563 -0.5095
  237MOL0     H31222  10.418   7.698   7.260 -1.7178 -0.8620 -0.4987
  237MOL0     H31223  10.339   7.502   7.110  0.3748  1.2900  3.5505
  237MOL0     H31224  10.496   7.497   7.026  0.0319 -2.3902  0.5823
  237MOL0     H31225  10.296   7.709   7.010 -1.1706 -0.5141 -2.0674
  237MOL0     H31226  10.355   7.598   6.883  3.9303 -2.8693  0.4992
  237MOL0     H31227  10.424   7.832   6.855 -0.0428  2.2331  0.7951
  237MOL0     H31228  10.511   7.827   6.997  1.0898 -0.9501  0.9457
  237MOL0     H31229  10.651   7.638   6.912 -1.2594 -2.1292 -1.2466
  237MOL0     H31230  10.660   7.801   6.837 -0.3565 -0.8170 -0.4472
  237MOL0     H31231  10.509   7.577   6.707  4.3618 -4.8331  2.1069
  237MOL0     H31232  10.690   7.611   6.688  0.5936 -0.0217  0.6280
  237MOL0     H31233  10.546   7.856   6.634  0.3688 -2.0575  3.5022
  237MOL0     H31234  10.655   7.764   6.528 -0.4304 -0.3197  1.2047
  237MOL0     H31235  10.448   7.622   6.474  1.8474  0.8861 -3.1123
  237MOL0     H31236  10.464   7.791   6.412  0.0894 -0.5534  0.0073
  237MOL0     H31237  10.224   7.558   6.571  1.4295 -0.9972  3.4398
  237MOL0     H31238   9.980   7.591   6.644  1.3334  0.4369 -1.8460
  237MOL0     H31239   9.912   7.758   6.604  2.0129  1.8222 -1.9789
  237MOL0     H31240   9.971   7.625   6.880 -0.9830 -1.2962 -0.8020
  237MOL0     H31241   9.833   7.713   6.818 -0.1927 -0.4511 -0.2047
  237MOL0     H31242  10.093   7.808   6.914 -1.3029 -2.5913  1.5702
  237MOL0     H31243   9.974   7.906   6.810 -2.2847 -1.4480 -1.7507
  237MOL0     H31244   9.911   7.806   7.082 -4.0588  0.2586 -0.3294
  237MOL0     H31245   9.794   7.869   6.978  0.8373  2.5487 -3.0718
  237MOL0     H31246  10.081   8.234   6.987  4.3919  1.3114 -1.8704
  237MOL0     H31247  10.305   8.282   7.069 -2.4084  1.3808 -0.7330
  237MOL0     H31248  10.686   8.015   7.536  0.2551 -3.1650  0.3612
  237MOL0     H31249  10.921   7.930   7.513  0.6963  0.1615 -1.3047
  237MOL0     H31250  11.102   8.068   7.295  3.9948  1.6979 -0.8911
  237MOL0     H31251  11.169   7.961   7.180  0.3879 -0.9212  1.0981
  237MOL0     H31252  11.263   7.823   7.379 -0.8457 -0.4048 -2.0581
  237MOL0     H31253  11.243   7.977   7.463  3.4310 -0.0605  0.2367
  237MOL0     H31254  11.383   7.942   7.197 -1.3817  1.3414 -0.6056
  237MOL0     H31255  11.461   7.910   7.356 -1.1818 -2.2630 -1.3389
  237MOL0     H31256  11.487   8.156   7.265 -0.6289  2.5057  2.8869
  237MOL0     H31257  11.327   8.184   7.308  0.0176 -0.2717  1.7437
  237MOL0     H31258  11.560   8.078   7.471 -1.7494 -1.2009 -0.4191
  237MOL0     H31259  11.406   8.127   7.546 -0.9945  0.6477 -0.5443
  237MOL0     H31260  11.436   8.354   7.464 -1.7854 -1.3461  1.4280
  237MOL0     H31261  11.589   8.304   7.391  1.2659  2.1206  0.9095
  237MOL0     H31262  11.661   8.226   7.643 -2.0258 -1.8967 -3.2173
  237MOL0     H31263  11.683   8.397   7.603  0.8850  0.0602  3.6394
  237MOL0     H31264  11.577   8.376   7.813 -1.9350  1.6174  0.0385
  237MOL0     H31265  11.476   8.244   7.755 -1.8789 -1.1151 -2.1024
  237MOL0     H31266  10.867   7.856   7.100 -3.1215 -1.9627 -0.6236
  237MOL0     H31267  10.637   7.949   7.102  1.9004 -1.0108 -1.2425
  237MOL0     H31268  10.315   7.903   7.264  1.0200  0.7268 -0.0987
  237MOL0     H31269  10.074   7.859   7.192 -0.5061 -0.5094  0.0043
  237MOL0     H31270  10.589   7.736   7.404  1.4917 -2.0447 -2.2241
  237MOL0     H31271  10.653   7.747   7.648  2.5456 -0.6854 -2.9276
  237MOL0     H31272  10.704   7.416   8.030 -0.3772 -2.1739  2.0879
  237MOL0     H31273  10.754   7.391   8.270 -0.8557 -1.5210 -0.5973
  237MOL0     H31274  10.476   7.584   8.590 -0.2982 -0.5016  2.8256
  237MOL0     H31275  10.601   7.706   8.536 -1.5967 -0.8388 -4.9026
  237MOL0     H31276  10.640   7.635   8.767  0.5611 -1.1495 -0.5472
  237MOL0     H31277  10.619   7.468   8.722 -1.9520  0.8524  3.4846
  237MOL0     H31278  10.852   7.522   8.575  0.7172 -2.1472  0.9359
  237MOL0     H31279  10.841   7.459   8.737  0.5374 -1.4239 -1.3059
  237MOL0     H31280  10.903   7.744   8.633  2.0817  0.5954  0.6491
  237MOL0     H31281  10.835   7.743   8.797  0.5928  0.6784 -0.8829
  237MOL0     H31282  11.250   7.621   8.805 -0.5279  0.5353  1.1412
  237MOL0     H31283  10.492   7.723   8.350  1.3350 -2.1880  3.2695
  237MOL0     H31284  10.443   7.757   8.128  2.1809  1.4215 -0.6100
  238MOL0     O31285   1.617   2.741   3.840 -0.3119 -0.4869 -0.1205
  238MOL0     C31286   1.572   2.856   3.822 -0.5756 -0.4060  0.2928
  238MOL0     O31287   1.442   2.893   3.830  0.3516  0.0918  0.0406
  238MOL0     C31288   1.350   2.796   3.785 -0.2639  0.0195  0.3814
  238MOL0     C31289   1.222   2.809   3.841  0.4447  0.4442  0.6861
  238MOL0     C31290   1.123   2.723   3.804  1.1174 -0.3228  0.0371
  238MOL0     C31291   1.144   2.624   3.710  0.2047  0.1064  0.1134
  238MOL0     O31292   1.051   2.532   3.669  0.1716  0.1153  0.9277
  238MOL0     C31293   0.958   2.492   3.768  0.9544 -0.3030 -0.0900
  238MOL0     C31294   0.902   2.361   3.737 -0.3574 -0.6580  0.6807
  238MOL0     C31295   0.811   2.356   3.612 -0.6553  0.3515 -0.1864
  238MOL0     C31296   0.766   2.227   3.561  0.3877  0.0627  0.3020
  238MOL0     C31297   0.789   2.224   3.406 -0.0995 -0.4576 -0.4113
  238MOL0     C31298   0.705   2.134   3.324  0.1449  0.1443 -0.2564
  238MOL0     C31299   0.755   2.139   3.185 -0.5308 -0.2253 -0.2600
  238MOL0     C31300   0.663   2.047   3.103 -0.2935 -0.4582  0.1749
  238MOL0     N31301   0.731   2.014   2.981 -0.8172 -0.4318  1.0145
  238MOL0     C31302   0.802   1.898   2.959  0.9595 -0.4979 -0.0732
  238MOL0     C31303   0.825   1.884   2.830 -0.3964 -0.6766 -0.3384
  238MOL0     C31304   0.872   1.773   2.749 -0.5451  0.3762 -0.4432
  238MOL0     C31305   0.758   1.703   2.650  0.0087  0.0093  0.5833
  238MOL0     C31306   0.711   1.765   2.521 -0.6062  0.0474  1.1351
  238MOL0     C31307   0.571   1.824   2.518 -0.0510  0.8272 -0.3762
  238MOL0     O31308   0.549   1.865   2.379 -0.4007  0.3608 -0.3676
  238MOL0     C31309   0.487   1.986   2.361 -0.9193 -0.8013  1.4551
  238MOL0     C31310   0.374   1.982   2.286  0.8323  0.0156 -1.6570
  238MOL0     C31311   0.288   2.093   2.269 -0.3820  0.6141  0.8290
  238MOL0     C31312   0.324   2.210   2.333 -0.6488  1.3427 -0.0578
  238MOL0     C31313   0.230   2.323   2.332 -0.6317 -0.1811  0.3550
  238MOL0     O31314   0.110   2.320   2.256 -0.3798 -0.2676 -0.1237
  238MOL0     C31315   0.047   2.439   2.231  0.0645 -0.1046 -0.3371
  238MOL0     C31316  -0.092   2.426   2.243  0.4690  0.0027  0.1720
  238MOL0     C31317  -0.188   2.526   2.222 -0.0865 -0.1343  0.8440
  238MOL0     C31318  -0.137   2.647   2.176  0.2397  0.0525 -0.7575
  238MOL0     O31319  -0.218   2.750   2.142  0.6642  0.3867 -0.4968
  238MOL0     C31320  -0.267   2.820   2.255 -0.3696  0.3071 -0.4346
  238MOL0     C31321  -0.363   2.922   2.197  0.6811  0.3517 -0.1083
  238MOL0     C31322  -0.482   2.852   2.125 -0.8459  0.3857 -0.6006
  238MOL0     C31323  -0.596   2.951   2.086  0.2115  0.1860 -0.3408
  238MOL0     C31324  -0.700   2.893   1.989  0.5701  0.0408 -0.2385
  238MOL0     C31325  -0.781   2.788   2.067  0.0577  0.7252  0.1439
  238MOL0     C31326  -0.833   2.674   1.961  0.4365  0.0109  0.3062
  238MOL0     C31327  -0.955   2.612   2.010  0.5687  0.5778  0.6260
  238MOL0    Cl31328  -0.948   2.556   2.183 -0.0762  0.4759 -0.1177
  238MOL0     C31329   0.000   2.662   2.153 -0.2295  0.4977  0.2582
  238MOL0     C31330   0.094   2.560   2.183 -0.0822  0.5506 -0.0531
  238MOL0     O31331   0.263   2.410   2.413 -0.7717  0.6999  0.4878
  238MOL0     C31332   0.442   2.219   2.406  0.5399  0.3105 -0.4533
  238MOL0     C31333   0.520   2.113   2.420  0.3875  0.1629 -0.9813
  238MOL0     N31334   0.746   1.984   2.769 -0.4194  0.1125 -0.4076
  238MOL0     N31335   0.689   2.053   2.856  0.4612 -0.6849 -0.8283
  238MOL0     C31336   1.265   2.627   3.639  0.7309  0.1458 -0.7352
  238MOL0     C31337   1.365   2.706   3.681 -1.0877 -0.1846 -0.6754
  238MOL0     C31338   1.670   2.949   3.765 -1.6100 -0.5708  0.4404
  238MOL0     C31339   1.633   3.088   3.765 -0.3031  0.5208  0.3965
  238MOL0     C31340   1.722   3.179   3.687 -0.7708 -0.5385  0.2511
  238MOL0     C31341   1.825   3.132   3.604  0.2151 -0.3598  0.7518
  238MOL0     O31342   1.905   3.193   3.513  0.8848 -0.2596  0.3902
  238MOL0     C31343   1.830   3.298   3.447  0.1012 -0.6656 -1.6559
  238MOL0     C31344   1.845   3.434   3.512 -0.4097  0.0614  0.5812
  238MOL0     C31345   1.751   3.544   3.474 -0.2757  0.1413  0.3827
  238MOL0     C31346   1.780   3.679   3.541  0.1044 -0.1328  0.4580
  238MOL0     C31347   1.742   3.674   3.682  0.8640 -0.4435 -0.4736
  238MOL0     C31348   1.701   3.675   3.797  0.0243  0.3952  0.1785
  238MOL0     C31349   1.852   2.997   3.619 -0.1900  0.6022 -0.8163
  238MOL0     C31350   1.789   2.913   3.703  0.4541 -0.5565 -0.9450
  238MOL0     H31351   1.201   2.892   3.907 -0.3465 -0.7430  1.9846
  238MOL0     H31352   1.019   2.739   3.830  1.6260  1.5165  1.0624
  238MOL0     H31353   0.881   2.569   3.773  0.5605 -0.3941 -2.8986
  238MOL0     H31354   1.009   2.484   3.865  0.6516  0.0903  0.1020
  238MOL0     H31355   0.851   2.334   3.830  0.1996  1.9199  1.8274
  238MOL0     H31356   0.989   2.296   3.725 -1.2930 -1.8941  0.3023
  238MOL0     H31357   0.850   2.419   3.532  0.0678  0.8553  0.5410
  238MOL0     H31358   0.718   2.403   3.648 -0.8108  0.7153 -1.0413
  238MOL0     H31359   0.808   2.143   3.618 -3.1881 -2.4484 -0.4300
  238MOL0     H31360   0.660   2.215   3.581  0.5490 -0.9768  0.5827
  238MOL0     H31361   0.896   2.222   3.381  0.2721  1.9682  0.6297
  238MOL0     H31362   0.759   2.319   3.360  0.4169  0.0612  0.2952
  238MOL0     H31363   0.600   2.159   3.342  0.1711  0.0595  0.0295
  238MOL0     H31364   0.723   2.037   3.372  1.7998 -1.1942 -3.3175
  238MOL0     H31365   0.754   2.241   3.145  2.3854 -0.2585 -0.6776
  238MOL0     H31366   0.860   2.112   3.167 -1.3845 -2.2542 -2.9096
  238MOL0     H31367   0.561   2.085   3.094  0.5777  3.4415  3.5322
  238MOL0     H31368   0.660   1.953   3.158 -0.9549 -0.8614 -0.5341
  238MOL0     H31369   0.816   1.825   3.038 -0.6417 -1.4197 -0.5803
  238MOL0     H31370   0.905   1.696   2.818 -1.4338 -0.7829 -1.2627
  238MOL0     H31371   0.962   1.793   2.690  0.3987  1.3832  1.2548
  238MOL0     H31372   0.676   1.672   2.715 -0.3956  3.8256  2.1549
  238MOL0     H31373   0.813   1.612   2.624  2.1105  0.5730  2.7235
  238MOL0     H31374   0.788   1.835   2.488  0.3200 -0.8428  1.3395
  238MOL0     H31375   0.717   1.688   2.443  0.0697 -1.0944  2.2615
  238MOL0     H31376   0.575   1.913   2.582  1.9470  0.5277 -0.0006
  238MOL0     H31377   0.492   1.752   2.539  2.6996 -2.8851 -1.7124
  238MOL0     H31378   0.335   1.887   2.250  0.2569 -0.6159  0.4909
  238MOL0     H31379   0.193   2.078   2.217  0.0951 -1.9730  0.5696
  238MOL0     H31380  -0.132   2.330   2.272  0.0108 -0.5185 -2.0065
  238MOL0     H31381  -0.295   2.523   2.238  0.3293 -3.1147  4.1408
  238MOL0     H31382  -0.188   2.875   2.307 -1.4530  1.6552 -0.1303
  238MOL0     H31383  -0.300   2.750   2.332  3.2165  0.7353  1.6950
  238MOL0     H31384  -0.314   2.985   2.123  2.0958 -0.2070  0.3071
  238MOL0     H31385  -0.396   2.974   2.288 -0.0278  1.1660 -0.8207
  238MOL0     H31386  -0.527   2.779   2.194 -1.9304  2.4875  1.0203
  238MOL0     H31387  -0.449   2.795   2.038 -4.9144 -1.4977 -1.1424
  238MOL0     H31388  -0.643   2.980   2.181 -0.6060 -0.8304 -0.4072
  238MOL0     H31389  -0.554   3.038   2.035  1.7655  0.4992  1.3497
  238MOL0     H31390  -0.651   2.842   1.906  3.8428 -0.6888  1.9302
  238MOL0     H31391  -0.775   2.969   1.964  0.4995  0.5278  1.3300
  238MOL0     H31392  -0.870   2.841   2.104  1.4351  5.0733 -2.0640
  238MOL0     H31393  -0.730   2.734   2.146  0.0545 -2.8034 -2.0400
  238MOL0     H31394  -0.862   2.723   1.868 -2.9871  1.9420  2.1846
  238MOL0     H31395  -0.750   2.602   1.956  1.1067  0.7496  0.5078
  238MOL0     H31396  -0.987   2.534   1.940 -0.3374  1.0182  0.5311
  238MOL0     H31397  -1.039   2.682   2.002 -1.2746 -1.6283 -0.9436
  238MOL0     H31398   0.027   2.747   2.091 -1.8904 -0.9591 -2.6613
  238MOL0     H31399   0.200   2.555   2.160 -0.1903 -0.6726 -0.3225
  238MOL0     H31400   0.467   2.315   2.451 -1.6985  1.2423 -1.0647
  238MOL0     H31401   0.605   2.127   2.486  0.9357  2.8564 -2.1064
  238MOL0     H31402   1.279   2.548   3.566 -2.1697 -0.0037 -1.2338
  238MOL0     H31403   1.453   2.701   3.618 -0.6549  0.0533 -0.0995
  238MOL0     H31404   1.537   3.119   3.806 -0.9278 -0.2488 -0.4396
  238MOL0     H31405   1.695   3.284   3.683  0.9556  0.1211  3.1266
  238MOL0     H31406   1.724   3.270   3.447 -0.0591 -0.2040  0.7233
  238MOL0     H31407   1.848   3.300   3.339 -0.9530 -0.8879 -1.8446
  238MOL0     H31408   1.833   3.432   3.621 -0.4221  2.2423  0.6596
  238MOL0     H31409   1.945   3.472   3.490 -0.0477  0.1096  2.1462
  238MOL0     H31410   1.647   3.515   3.492 -1.1981  0.9880 -2.8804
  238MOL0     H31411   1.757   3.545   3.365  0.2194 -4.5020  0.1601
  238MOL0     H31412   1.886   3.706   3.541  0.1667 -0.1095 -2.0871
  238MOL0     H31413   1.729   3.764   3.496  0.8264  2.1508  3.6123
  238MOL0     H31414   1.677   3.676   3.901 -2.4501  0.0157 -0.3289
  238MOL0     H31415   1.931   2.958   3.555  0.3651  2.1909 -1.1450
  238MOL0     H31416   1.819   2.810   3.720 -0.9093 -1.1205 -1.7862
  239MOL0     O31417   8.453   4.950   4.292 -0.3052  0.4405  0.1601
  239MOL0     C31418   8.553   4.968   4.365 -0.8222 -0.8664  0.3976
  239MOL0     O31419   8.580   4.914   4.489 -0.1755  0.2913  0.2706
  239MOL0     C31420   8.481   4.824   4.523  0.7470 -0.8582  0.6146
  239MOL0     C31421   8.465   4.699   4.462  0.2110  0.1489  0.1882
  239MOL0     C31422   8.372   4.610   4.507 -0.7810  0.8295  0.5790
  239MOL0     C31423   8.274   4.642   4.602 -0.1968 -0.2056 -0.1870
  239MOL0     O31424   8.178   4.549   4.621  1.1890 -0.7079  0.2476
  239MOL0     C31425   8.074   4.578   4.716  0.0495 -0.1138 -0.4273
  239MOL0     C31426   7.950   4.633   4.641 -0.1167 -0.8033 -0.6373
  239MOL0     C31427   7.947   4.769   4.582 -0.3593  0.2622 -0.2953
  239MOL0     C31428   7.816   4.806   4.520  0.4213 -0.5607  0.2702
  239MOL0     C31429   7.818   4.955   4.489 -0.6488 -0.2105  0.6911
  239MOL0     C31430   7.677   5.005   4.445  0.0807 -0.3468  0.6318
  239MOL0     C31431   7.686   5.150   4.414  0.3114 -1.0226  0.6652
  239MOL0     C31432   7.742   5.170   4.270  0.1308  0.6477 -0.1211
  239MOL0     N31433   7.804   5.310   4.261  0.9353 -0.0046 -0.3617
  239MOL0     C31434   7.736   5.420   4.221  0.4791  0.3801  0.1913
  239MOL0     C31435   7.829   5.519   4.212 -0.6698 -0.4597 -0.3960
  239MOL0     C31436   7.804   5.658   4.170 -0.8080 -0.1238 -0.1740
  239MOL0     C31437   7.796   5.683   4.028 -0.1603 -0.1290  0.9524
  239MOL0     C31438   7.928   5.637   3.955  0.9255  0.9215  0.6806
  239MOL0     C31439   7.901   5.645   3.803  0.2954  0.0922  0.1396
  239MOL0     O31440   7.838   5.762   3.748 -0.2369 -0.0191 -0.0557
  239MOL0     C31441   7.836   5.762   3.613 -0.5121  0.1805 -0.8652
  239MOL0     C31442   7.823   5.884   3.566 -0.3931  1.1744  0.6902
  239MOL0     C31443   7.822   5.913   3.430 -0.2564  1.1825  0.5497
  239MOL0     C31444   7.821   5.805   3.336 -0.5113  0.7330  0.4215
  239MOL0     C31445   7.816   5.827   3.189  1.2722  0.3196 -0.3470
  239MOL0     O31446   7.788   5.716   3.114 -0.7572  0.1529 -0.3308
  239MOL0     C31447   7.773   5.740   2.978  1.0633  0.2193  0.0509
  239MOL0     C31448   7.833   5.653   2.895  0.7687  0.6635  0.1767
  239MOL0     C31449   7.816   5.663   2.758 -0.0382 -0.0902 -0.6239
  239MOL0     C31450   7.735   5.766   2.707 -0.2615 -1.0824  1.0863
  239MOL0     O31451   7.739   5.802   2.573 -0.7741 -0.7013 -0.1628
  239MOL0     C31452   7.847   5.746   2.492 -0.7328  0.8193 -0.1959
  239MOL0     C31453   7.792   5.616   2.419  0.2249  0.7266 -0.3514
  239MOL0     C31454   7.688   5.645   2.307 -0.6243  0.6127  0.3552
  239MOL0     C31455   7.679   5.519   2.210  0.5959 -0.8570  0.5581
  239MOL0     C31456   7.765   5.528   2.086 -0.4577  0.8296 -0.0507
  239MOL0     C31457   7.723   5.643   1.991  0.2236 -0.0294  0.8655
  239MOL0     C31458   7.814   5.661   1.876 -0.4581 -0.2642 -0.3486
  239MOL0     C31459   7.773   5.752   1.773 -0.2957 -0.0460 -0.0557
  239MOL0    Cl31460   7.830   5.916   1.787 -0.0762  0.1018  0.1547
  239MOL0     C31461   7.672   5.863   2.797 -0.5219 -0.0395  0.7017
  239MOL0     C31462   7.682   5.837   2.932  0.4558 -0.9027  0.8814
  239MOL0     O31463   7.835   5.936   3.142  0.0052  0.7552 -0.1554
  239MOL0     C31464   7.839   5.671   3.393  0.1674 -0.5563  0.3265
  239MOL0     C31465   7.847   5.651   3.529 -0.8408 -0.2353  0.7360
  239MOL0     N31466   7.953   5.459   4.244  0.2266 -0.3197 -0.2466
  239MOL0     N31467   7.932   5.335   4.267 -0.4852 -1.0044 -0.9066
  239MOL0     C31468   8.285   4.774   4.664 -0.9764 -0.5131  0.4311
  239MOL0     C31469   8.388   4.862   4.624  0.7145  0.6384 -0.4069
  239MOL0     C31470   8.637   5.086   4.321  0.3328 -0.2524  0.1443
  239MOL0     C31471   8.718   5.147   4.418  0.9030  0.2833  1.1865
  239MOL0     C31472   8.786   5.264   4.380  0.3025 -0.3738 -0.2267
  239MOL0     C31473   8.772   5.319   4.254  1.1946  0.0447 -0.3844
  239MOL0     O31474   8.826   5.442   4.223  0.4289 -0.5870  0.3057
  239MOL0     C31475   8.945   5.430   4.154 -0.1189  0.1614  0.2068
  239MOL0     C31476   8.953   5.562   4.074  0.3030  0.5377  0.0923
  239MOL0     C31477   8.974   5.689   4.162 -0.5400  0.4874 -0.0424
  239MOL0     C31478   8.928   5.811   4.084 -0.6006 -0.2294 -0.0568
  239MOL0     C31479   8.785   5.812   4.046  0.6758 -0.1917  0.2728
  239MOL0     C31480   8.666   5.817   4.027  0.2470 -0.2635  0.0834
  239MOL0     C31481   8.692   5.252   4.164 -0.3727 -0.4578 -1.0843
  239MOL0     C31482   8.633   5.129   4.188  0.1131  0.0990 -0.0324
  239MOL0     H31483   8.529   4.661   4.383 -1.9508 -0.6631 -1.2662
  239MOL0     H31484   8.391   4.514   4.459  1.0506  1.2172  0.4304
  239MOL0     H31485   8.111   4.644   4.795 -2.3746  2.5740 -1.3712
  239MOL0     H31486   8.050   4.480   4.760  0.1556 -1.1360 -2.5395
  239MOL0     H31487   7.871   4.636   4.716  0.6986  0.9785  0.1986
  239MOL0     H31488   7.920   4.557   4.568  0.1828 -3.7351  2.0617
  239MOL0     H31489   8.026   4.781   4.506 -1.1367 -1.0399 -1.3587
  239MOL0     H31490   7.956   4.844   4.661 -0.6956 -0.8194  0.8088
  239MOL0     H31491   7.807   4.751   4.426 -1.6359  0.1810 -0.0109
  239MOL0     H31492   7.735   4.788   4.591  2.6188 -2.2444  2.5482
  239MOL0     H31493   7.904   4.989   4.431 -0.7072 -2.4789 -0.8463
  239MOL0     H31494   7.840   4.998   4.587  4.7352 -2.2442  0.6901
  239MOL0     H31495   7.604   4.997   4.526 -1.2185  0.6212 -0.4048
  239MOL0     H31496   7.640   4.937   4.367 -0.7279 -0.2037  0.8845
  239MOL0     H31497   7.597   5.213   4.413 -0.6764 -2.3682  0.9188
  239MOL0     H31498   7.761   5.192   4.481  0.7592  2.4438 -1.7017
  239MOL0     H31499   7.662   5.158   4.195 -0.3170  2.6978 -0.0444
  239MOL0     H31500   7.811   5.089   4.244 -2.6945 -1.6048 -1.1546
  239MOL0     H31501   7.637   5.430   4.178  0.7205  6.7481  0.1884
  239MOL0     H31502   7.873   5.731   4.214 -2.6977  0.9759  1.1153
  239MOL0     H31503   7.706   5.684   4.211 -1.4368  0.6715 -2.0668
  239MOL0     H31504   7.774   5.789   4.011 -0.8159 -0.6086 -1.8227
  239MOL0     H31505   7.709   5.624   3.999 -0.1042  0.0845  0.3325
  239MOL0     H31506   8.011   5.706   3.969  0.9040  1.3329 -0.9944
  239MOL0     H31507   7.957   5.534   3.976 -2.8994 -0.8027 -1.4081
  239MOL0     H31508   7.842   5.556   3.778  1.9832 -0.3398 -2.7753
  239MOL0     H31509   7.999   5.631   3.756  0.4716 -2.3220  1.0905
  239MOL0     H31510   7.809   5.965   3.636 -0.5820 -0.1167  2.2133
  239MOL0     H31511   7.832   6.008   3.379  1.3276  0.9256  0.3393
  239MOL0     H31512   7.896   5.577   2.940 -0.0775 -0.2421 -0.1361
  239MOL0     H31513   7.868   5.594   2.693 -2.1178 -2.0051 -0.3789
  239MOL0     H31514   7.935   5.715   2.550 -1.4781 -3.9235 -1.1964
  239MOL0     H31515   7.875   5.815   2.412 -2.5268 -0.4850 -2.0462
  239MOL0     H31516   7.760   5.552   2.502  2.0283  3.0516  2.3262
  239MOL0     H31517   7.881   5.566   2.381  1.7087  4.2571 -2.0162
  239MOL0     H31518   7.710   5.740   2.256  0.3885  1.2375  1.8741
  239MOL0     H31519   7.593   5.649   2.360 -1.0268 -1.4473 -0.1549
  239MOL0     H31520   7.700   5.426   2.264 -2.6976 -2.5260 -0.7841
  239MOL0     H31521   7.575   5.513   2.178  1.1424 -3.2486 -1.0660
  239MOL0     H31522   7.752   5.431   2.037  5.3792  0.1293 -0.8852
  239MOL0     H31523   7.871   5.533   2.111 -0.7055 -2.0263  2.0916
  239MOL0     H31524   7.707   5.738   2.045  1.1156  2.0748 -2.3179
  239MOL0     H31525   7.621   5.633   1.953  1.2464 -1.9371 -1.5969
  239MOL0     H31526   7.914   5.689   1.912  0.1867 -0.2366 -2.0875
  239MOL0     H31527   7.836   5.565   1.829  0.6011  0.1477 -0.7208
  239MOL0     H31528   7.665   5.763   1.753 -0.1459 -1.8532 -2.2868
  239MOL0     H31529   7.823   5.723   1.680  0.4728  0.9160  0.0414
  239MOL0     H31530   7.619   5.938   2.738  0.6560 -1.3477 -2.2495
  239MOL0     H31531   7.631   5.915   2.989  1.5045  0.7222 -0.3110
  239MOL0     H31532   7.844   5.587   3.323  1.2642  0.7194 -1.2050
  239MOL0     H31533   7.853   5.546   3.555 -0.5545 -1.0350 -2.1795
  239MOL0     H31534   8.200   4.818   4.716  1.0694  1.3419  2.4308
  239MOL0     H31535   8.406   4.959   4.670  1.2736  1.4742 -2.3138
  239MOL0     H31536   8.734   5.111   4.519  0.6821  0.0566  1.1433
  239MOL0     H31537   8.852   5.309   4.454 -0.9171  1.4745 -0.2058
  239MOL0     H31538   8.943   5.342   4.089  1.4559  1.8300 -2.2456
  239MOL0     H31539   9.034   5.416   4.216 -2.0833  1.9599  3.7734
  239MOL0     H31540   9.035   5.547   4.003 -0.6648 -1.7624 -0.6107
  239MOL0     H31541   8.856   5.568   4.025 -1.0208 -0.9551  2.3495
  239MOL0     H31542   9.080   5.704   4.183 -0.4714  0.8102 -0.5874
  239MOL0     H31543   8.910   5.675   4.250  1.7172  3.0080  2.1425
  239MOL0     H31544   8.960   5.897   4.143  2.3128 -0.2596 -1.4224
  239MOL0     H31545   8.987   5.812   3.992 -0.6360  0.6536 -0.0759
  239MOL0     H31546   8.559   5.814   4.015 -0.5174  1.0829  4.6353
  239MOL0     H31547   8.689   5.298   4.065  0.2105  1.1377 -0.4092
  239MOL0     H31548   8.573   5.077   4.115  2.5843 -1.5869 -0.9612
  240MOL0     O31549   7.220   9.725   2.401  0.4625  0.0103 -0.5602
  240MOL0     C31550   7.309   9.702   2.319 -0.1836 -0.1105 -0.3114
  240MOL0     O31551   7.337   9.586   2.257 -0.1359 -0.0001  0.0164
  240MOL0     C31552   7.232   9.491   2.270  0.0673  0.7101 -0.5890
  240MOL0     C31553   7.110   9.503   2.199  0.1204  0.3597  0.4794
  240MOL0     C31554   7.019   9.397   2.181  0.0082  0.1969  0.3848
  240MOL0     C31555   7.031   9.281   2.264  0.5439  0.3086  0.2226
  240MOL0     O31556   6.944   9.172   2.266 -0.2912 -0.3553  0.0681
  240MOL0     C31557   6.819   9.184   2.194  0.1472  0.4764 -0.3446
  240MOL0     C31558   6.732   9.073   2.257 -0.3899  0.6391 -1.3159
  240MOL0     C31559   6.806   8.933   2.266 -0.2910  0.4014  0.7553
  240MOL0     C31560   6.847   8.883   2.124  0.6586 -0.3456 -1.3107
  240MOL0     C31561   6.904   8.738   2.126  0.0256 -0.2848  0.0680
  240MOL0     C31562   6.806   8.623   2.119  0.6558 -0.2090 -0.2922
  240MOL0     C31563   6.875   8.491   2.100  0.0966  0.0524 -1.2686
  240MOL0     C31564   6.775   8.370   2.106 -1.0088  0.2424  0.7162
  240MOL0     N31565   6.730   8.345   2.243 -0.7440  0.6987  0.2997
  240MOL0     C31566   6.617   8.399   2.295  0.6997  0.8906  0.7291
  240MOL0     C31567   6.618   8.346   2.425  0.4430 -0.7985  0.2621
  240MOL0     C31568   6.496   8.364   2.521 -0.1857  0.0758 -0.8158
  240MOL0     C31569   6.523   8.482   2.622 -0.3073  1.2469  0.2766
  240MOL0     C31570   6.535   8.623   2.547 -0.5307  0.4419 -0.7704
  240MOL0     C31571   6.565   8.723   2.662 -0.0943  0.2020 -0.5272
  240MOL0     O31572   6.575   8.862   2.631  0.0493  0.0673  0.0837
  240MOL0     C31573   6.697   8.925   2.653  0.3503  0.7765  0.3096
  240MOL0     C31574   6.691   9.063   2.657  0.1901  0.4796 -0.2809
  240MOL0     C31575   6.807   9.137   2.679 -0.1521  0.0077 -1.0381
  240MOL0     C31576   6.940   9.073   2.699  0.1454 -0.4761  0.1378
  240MOL0     C31577   7.063   9.155   2.728  0.2073  1.2121  0.9988
  240MOL0     O31578   7.057   9.285   2.765 -0.0255  1.4232  0.0524
  240MOL0     C31579   7.167   9.357   2.784 -0.8503 -0.3686  0.6591
  240MOL0     C31580   7.258   9.334   2.885  0.3069  0.3139 -0.5819
  240MOL0     C31581   7.367   9.418   2.902 -0.3895 -0.5043 -0.4855
  240MOL0     C31582   7.388   9.526   2.813  0.4226 -0.7851 -0.8462
  240MOL0     O31583   7.492   9.612   2.823 -0.3815 -1.3031 -0.1066
  240MOL0     C31584   7.563   9.619   2.953  0.5730  0.2358  0.2075
  240MOL0     C31585   7.664   9.719   2.942  0.4726 -0.9285 -0.3104
  240MOL0     C31586   7.786   9.659   2.879 -0.5212 -0.0430 -0.3237
  240MOL0     C31587   7.883   9.769   2.867 -0.8003  1.4646 -0.5937
  240MOL0     C31588   7.990   9.756   2.761  1.0209  0.5307  0.4456
  240MOL0     C31589   8.117   9.844   2.777 -0.4276  0.6321 -0.1798
  240MOL0     C31590   8.177   9.853   2.640 -0.3976  0.5008  0.6241
  240MOL0     C31591   8.310   9.929   2.631 -0.9226  0.4030 -0.8605
  240MOL0    Cl31592   8.347   9.918   2.454 -0.4269 -0.0656  0.2656
  240MOL0     C31593   7.299   9.550   2.708 -0.1151  0.1717 -0.1961
  240MOL0     C31594   7.189   9.469   2.700  0.2499  0.2916  0.3987
  240MOL0     O31595   7.166   9.093   2.709 -0.5130 -0.3131  0.5076
  240MOL0     C31596   6.943   8.937   2.706  0.4776  0.4215 -0.8390
  240MOL0     C31597   6.825   8.869   2.678  0.2465  0.1287 -0.7144
  240MOL0     N31598   6.730   8.266   2.440  0.2009 -0.4637 -0.6792
  240MOL0     N31599   6.802   8.266   2.336  1.3379 -0.5845  0.1401
  240MOL0     C31600   7.147   9.278   2.353  0.2750  0.2783  1.4833
  240MOL0     C31601   7.240   9.380   2.352 -0.4459  0.0602  0.6858
  240MOL0     C31602   7.391   9.822   2.286  1.5104 -0.1997  1.2108
  240MOL0     C31603   7.346   9.956   2.303 -0.3150  0.6180 -0.2134
  240MOL0     C31604   7.416  10.062   2.251  0.3306 -0.0321 -0.5890
  240MOL0     C31605   7.539  10.036   2.186 -0.3851 -0.9437 -0.2285
  240MOL0     O31606   7.612  10.127   2.120 -0.3412 -0.2791 -0.7183
  240MOL0     C31607   7.548  10.249   2.074 -0.1121 -0.7577  0.6403
  240MOL0     C31608   7.546  10.365   2.180  0.8778 -0.3877 -0.3962
  240MOL0     C31609   7.490  10.495   2.114 -0.1841  0.2891  0.9503
  240MOL0     C31610   7.523  10.623   2.193 -0.2688  0.9129 -0.4870
  240MOL0     C31611   7.489  10.623   2.340  0.7335  0.4425  0.2009
  240MOL0     C31612   7.465  10.629   2.460 -0.2222 -0.6434  0.2220
  240MOL0     C31613   7.590   9.903   2.189 -0.5405  0.4627 -0.2049
  240MOL0     C31614   7.523   9.797   2.236 -0.1801 -0.3566  0.1231
  240MOL0     H31615   7.099   9.590   2.137 -0.9280  2.1283  2.9823
  240MOL0     H31616   6.936   9.415   2.114 -0.5645 -1.0004  0.7458
  240MOL0     H31617   6.829   9.179   2.086  0.7201 -2.1343 -0.2227
  240MOL0     H31618   6.766   9.279   2.212  0.8630  1.8445 -4.4941
  240MOL0     H31619   6.638   9.065   2.203 -0.0407 -0.5330 -1.7891
  240MOL0     H31620   6.708   9.093   2.362  0.5830 -1.4485 -0.6307
  240MOL0     H31621   6.741   8.860   2.316 -2.1830  2.3415  1.2401
  240MOL0     H31622   6.893   8.937   2.332 -1.4374  1.4051  2.2769
  240MOL0     H31623   6.763   8.879   2.053 -0.1842 -1.4904 -0.2994
  240MOL0     H31624   6.913   8.959   2.081  0.9848  0.3615  0.3586
  240MOL0     H31625   6.955   8.728   2.223  0.0664 -2.2471 -0.1115
  240MOL0     H31626   6.979   8.746   2.047  1.5071  1.0866  1.5294
  240MOL0     H31627   6.731   8.633   2.039 -0.1983  0.0156  0.5222
  240MOL0     H31628   6.759   8.616   2.217  0.5591 -0.4994 -0.3574
  240MOL0     H31629   6.912   8.500   1.997 -2.5580 -1.3957 -2.4571
  240MOL0     H31630   6.956   8.472   2.170  1.0386  2.0454 -1.7418
  240MOL0     H31631   6.821   8.275   2.076 -2.7070 -0.1112 -0.9577
  240MOL0     H31632   6.699   8.374   2.028  0.2815  1.0709 -0.5427
  240MOL0     H31633   6.540   8.459   2.249  1.0493 -0.5956 -2.0293
  240MOL0     H31634   6.472   8.271   2.573  0.9269  1.5607  2.6522
  240MOL0     H31635   6.412   8.377   2.453  1.5260 -1.4433 -3.3460
  240MOL0     H31636   6.618   8.457   2.670 -0.1247  1.5561  0.0784
  240MOL0     H31637   6.441   8.475   2.694 -0.6060 -1.2152 -0.2116
  240MOL0     H31638   6.607   8.620   2.464  1.4966  0.2610  0.9264
  240MOL0     H31639   6.436   8.655   2.512 -0.4492 -0.0259 -1.4579
  240MOL0     H31640   6.647   8.686   2.725  0.3482  2.1062  0.0692
  240MOL0     H31641   6.487   8.723   2.738 -0.3267 -2.0265 -0.6866
  240MOL0     H31642   6.591   9.100   2.637 -0.1711  0.0452  0.6442
  240MOL0     H31643   6.788   9.244   2.682  0.7587  0.1806 -1.1576
  240MOL0     H31644   7.234   9.257   2.959 -3.1054  0.4426 -1.3704
  240MOL0     H31645   7.434   9.397   2.985  0.8312  1.3781 -0.9331
  240MOL0     H31646   7.614   9.529   2.990  1.6777  1.5645  2.0903
  240MOL0     H31647   7.495   9.661   3.028  1.3993 -0.2109  1.2285
  240MOL0     H31648   7.697   9.748   3.042 -0.9381  3.0719 -0.8383
  240MOL0     H31649   7.612   9.805   2.899 -5.0074 -2.8690  1.5448
  240MOL0     H31650   7.768   9.627   2.776 -1.9727 -2.5983  0.6305
  240MOL0     H31651   7.821   9.566   2.924 -3.9351 -2.0608 -1.4453
  240MOL0     H31652   7.828   9.861   2.847  0.6554  2.4695 -0.1659
  240MOL0     H31653   7.943   9.770   2.959 -1.7603 -2.5135  0.2826
  240MOL0     H31654   7.943   9.792   2.668  0.4249  1.0455  0.9327
  240MOL0     H31655   8.017   9.652   2.741 -0.4342  0.1949  0.0782
  240MOL0     H31656   8.188   9.798   2.846  1.4553 -2.3256 -3.7368
  240MOL0     H31657   8.091   9.947   2.805  1.0313  0.4260  2.1510
  240MOL0     H31658   8.186   9.751   2.603  2.4573  1.1542 -0.7391
  240MOL0     H31659   8.114   9.917   2.577  1.9645  1.4732 -0.8604
  240MOL0     H31660   8.392   9.884   2.688 -1.1508  1.5222  0.4030
  240MOL0     H31661   8.297  10.030   2.670 -2.3013 -0.9785  2.7061
  240MOL0     H31662   7.322   9.624   2.633  2.2562 -0.8761 -0.5928
  240MOL0     H31663   7.113   9.489   2.625  1.3297 -1.4852 -1.2560
  240MOL0     H31664   7.029   8.876   2.732  0.4036 -1.0650 -3.6935
  240MOL0     H31665   6.844   8.762   2.687  1.2075  0.4824  3.0045
  240MOL0     H31666   7.158   9.191   2.417 -2.3605 -2.1001 -1.0565
  240MOL0     H31667   7.327   9.376   2.416  0.4979 -0.6555 -0.5825
  240MOL0     H31668   7.257   9.985   2.359 -1.4320  2.2804 -2.6183
  240MOL0     H31669   7.366  10.157   2.267 -2.1240 -1.7769  4.0945
  240MOL0     H31670   7.446  10.230   2.038 -1.5410  1.2094  3.3069
  240MOL0     H31671   7.606  10.288   1.990  0.4637 -0.9479  0.9416
  240MOL0     H31672   7.475  10.347   2.262 -1.7949  1.5326 -2.1021
  240MOL0     H31673   7.653  10.376   2.200  1.7147 -2.4506 -3.2141
  240MOL0     H31674   7.383  10.483   2.094 -0.0144  1.2130 -0.7118
  240MOL0     H31675   7.535  10.521   2.017 -1.0320 -3.3438 -0.6036
  240MOL0     H31676   7.631  10.621   2.205 -0.5483 -1.1936  2.8331
  240MOL0     H31677   7.504  10.716   2.137 -0.4309  1.0173 -0.2596
  240MOL0     H31678   7.447  10.649   2.563 -1.0432 -2.5703  0.4935
  240MOL0     H31679   7.683   9.878   2.138  0.9490 -0.0371  2.5413
  240MOL0     H31680   7.562   9.698   2.216 -0.7050 -1.2272  2.9197
  241MOL0     O31681   8.516   7.141   7.247  0.7752 -0.0835  0.2036
  241MOL0     C31682   8.398   7.177   7.215 -0.1286 -0.9368 -0.3836
  241MOL0     O31683   8.297   7.101   7.162  0.2002  0.3266  0.8004
  241MOL0     C31684   8.324   6.972   7.119  0.0308 -0.4711  0.5118
  241MOL0     C31685   8.217   6.889   7.118 -0.3115 -0.3162  0.2476
  241MOL0     C31686   8.228   6.754   7.074  0.7756 -0.1768  0.3512
  241MOL0     C31687   8.355   6.707   7.022  0.3601  0.0268  0.0058
  241MOL0     O31688   8.368   6.582   6.975 -0.2598  0.5223  1.0344
  241MOL0     C31689   8.276   6.545   6.872 -0.1757 -0.3810 -0.1523
  241MOL0     C31690   8.316   6.415   6.817 -0.5160  0.0206 -0.6144
  241MOL0     C31691   8.232   6.399   6.696  0.4087 -0.2867 -0.6132
  241MOL0     C31692   8.259   6.257   6.643  0.3230 -0.1540 -0.9003
  241MOL0     C31693   8.197   6.233   6.504  0.1108  0.1102 -0.1495
  241MOL0     C31694   8.294   6.210   6.390  0.7379 -0.3333 -0.7779
  241MOL0     C31695   8.407   6.317   6.383  0.7403  0.5576  0.6010
  241MOL0     C31696   8.466   6.311   6.248  0.0538  0.1955 -0.0690
  241MOL0     N31697   8.571   6.419   6.236  0.0624 -0.2221 -0.3870
  241MOL0     C31698   8.596   6.496   6.129 -0.6753 -0.3963  0.4187
  241MOL0     C31699   8.711   6.560   6.160 -0.0061 -0.3403  0.6827
  241MOL0     C31700   8.788   6.662   6.083  0.1868 -0.5590 -0.2882
  241MOL0     C31701   8.867   6.592   5.969  0.3410 -0.1652 -0.2679
  241MOL0     C31702   8.782   6.529   5.862 -0.6542  0.8603  0.5677
  241MOL0     C31703   8.708   6.618   5.773  0.6031  0.2619 -0.8110
  241MOL0     O31704   8.584   6.547   5.729 -0.7538 -0.8404 -0.2535
  241MOL0     C31705   8.504   6.617   5.641 -0.1811 -0.1849 -0.1058
  241MOL0     C31706   8.425   6.544   5.543  0.4831  0.3136 -0.0394
  241MOL0     C31707   8.353   6.601   5.436 -0.1268  0.0845  0.2478
  241MOL0     C31708   8.329   6.742   5.430  0.4467 -0.1312  0.0605
  241MOL0     C31709   8.247   6.796   5.327 -0.2799  0.0223  0.0183
  241MOL0     O31710   8.219   6.719   5.211  0.8609  0.6813  0.1507
  241MOL0     C31711   8.167   6.770   5.100 -0.2380  0.6625 -0.0466
  241MOL0     C31712   8.066   6.695   5.043  0.7885  0.2219  0.2946
  241MOL0     C31713   8.007   6.723   4.919 -0.4834 -0.7281 -1.3323
  241MOL0     C31714   8.070   6.827   4.847 -0.4205 -0.7130  0.3090
  241MOL0     O31715   8.022   6.842   4.719 -0.0385  0.8650  0.2584
  241MOL0     C31716   8.061   6.739   4.625 -0.3379  0.0768 -0.4520
  241MOL0     C31717   7.971   6.755   4.502 -0.2885 -1.2298  0.1720
  241MOL0     C31718   7.968   6.624   4.427 -0.1385  0.2327  0.5091
  241MOL0     C31719   7.911   6.638   4.289 -0.1208 -0.2119  0.2363
  241MOL0     C31720   7.876   6.501   4.243  0.7076  0.8142 -0.0265
  241MOL0     C31721   7.780   6.514   4.125  0.8646  0.2095  0.1088
  241MOL0     C31722   7.679   6.408   4.112  0.4207  0.9767 -0.4534
  241MOL0     C31723   7.730   6.270   4.091 -0.4129  0.1787  0.4008
  241MOL0    Cl31724   7.798   6.250   3.928  0.1998  0.3159  0.4111
  241MOL0     C31725   8.166   6.909   4.905 -0.7152  0.2114  0.5194
  241MOL0     C31726   8.212   6.885   5.036  0.1698 -1.0146  0.2258
  241MOL0     O31727   8.220   6.913   5.340 -0.6708  0.4412  1.1820
  241MOL0     C31728   8.390   6.818   5.536 -0.0494  0.5362  0.3672
  241MOL0     C31729   8.478   6.761   5.637 -0.9164  0.9301 -0.9360
  241MOL0     N31730   8.744   6.532   6.291 -0.1206  0.4882  0.6706
  241MOL0     N31731   8.657   6.457   6.343 -0.3587 -0.0107 -0.6494
  241MOL0     C31732   8.453   6.796   7.009  0.2640 -0.3808 -1.1091
  241MOL0     C31733   8.443   6.928   7.058 -0.1486 -0.2311 -0.4028
  241MOL0     C31734   8.369   7.318   7.247 -0.0598 -0.5259  0.4009
  241MOL0     C31735   8.243   7.380   7.249  0.3686 -0.3765  0.2884
  241MOL0     C31736   8.215   7.513   7.292 -0.3053 -0.0416  0.6057
  241MOL0     C31737   8.319   7.588   7.336  0.1661  0.1504  1.0728
  241MOL0     O31738   8.309   7.713   7.399 -0.7774  0.2523  0.2734
  241MOL0     C31739   8.234   7.701   7.518  0.2437 -0.3064 -0.8648
  241MOL0     C31740   8.149   7.824   7.540  0.0146 -0.0080  0.8708
  241MOL0     C31741   8.099   7.859   7.676  0.1552 -0.0412  0.6939
  241MOL0     C31742   7.978   7.783   7.713  1.7516 -0.9799 -0.5862
  241MOL0     C31743   7.959   7.812   7.852  1.3131 -0.8172 -0.3774
  241MOL0     C31744   7.936   7.848   7.968 -0.3432 -0.4120 -0.5526
  241MOL0     C31745   8.451   7.541   7.319 -0.6684  0.1613 -0.5627
  241MOL0     C31746   8.473   7.409   7.273 -0.0638  0.1217 -0.3917
  241MOL0     H31747   8.119   6.923   7.148 -0.5369 -1.8959  1.4691
  241MOL0     H31748   8.152   6.679   7.092  0.7915 -0.2721  0.0209
  241MOL0     H31749   8.279   6.614   6.788  0.0668  0.9672  0.9250
  241MOL0     H31750   8.169   6.551   6.893  0.3678  0.8820  2.6897
  241MOL0     H31751   8.295   6.336   6.890  1.8542  1.7075  2.1319
  241MOL0     H31752   8.425   6.418   6.804 -0.0612 -0.9279  2.3210
  241MOL0     H31753   8.261   6.464   6.613 -1.6753  1.5036 -0.0568
  241MOL0     H31754   8.124   6.415   6.708  0.7947  1.4949  1.1180
  241MOL0     H31755   8.367   6.236   6.646  0.7625  1.8770 -0.7641
  241MOL0     H31756   8.207   6.188   6.710  0.9430 -0.9211 -1.1872
  241MOL0     H31757   8.131   6.318   6.484 -0.2465  0.5873  2.6261
  241MOL0     H31758   8.139   6.143   6.524 -0.7377  0.7027  0.1350
  241MOL0     H31759   8.233   6.211   6.299 -0.4541  5.3734 -0.2919
  241MOL0     H31760   8.336   6.113   6.417  2.4625  1.0846  2.1522
  241MOL0     H31761   8.366   6.411   6.422 -2.2017 -0.7350  0.8768
  241MOL0     H31762   8.487   6.294   6.454  1.9495  0.7487 -0.6498
  241MOL0     H31763   8.387   6.313   6.172  0.1675  3.2231 -0.2365
  241MOL0     H31764   8.526   6.220   6.251  1.6632  0.9199 -3.9647
  241MOL0     H31765   8.527   6.506   6.045  1.1525  2.8552 -0.8960
  241MOL0     H31766   8.856   6.715   6.151  0.5816 -1.3317 -0.0681
  241MOL0     H31767   8.726   6.747   6.052 -1.8481 -2.2282 -1.0399
  241MOL0     H31768   8.934   6.513   6.006  1.3850 -0.1745 -2.0960
  241MOL0     H31769   8.936   6.666   5.928  2.5227 -0.5999  2.3535
  241MOL0     H31770   8.849   6.472   5.796 -0.7075  0.0762  1.1774
  241MOL0     H31771   8.716   6.458   5.913  2.7164 -0.3840  3.6818
  241MOL0     H31772   8.769   6.655   5.690  1.4386  3.9723  1.2488
  241MOL0     H31773   8.683   6.706   5.832  0.5294 -1.0099  1.1258
  241MOL0     H31774   8.437   6.436   5.541  1.4515  0.4174 -1.8678
  241MOL0     H31775   8.302   6.532   5.370  0.6493 -4.7128  4.1089
  241MOL0     H31776   8.036   6.605   5.095  0.1698 -0.0336 -0.4908
  241MOL0     H31777   7.938   6.654   4.872 -1.0427 -0.5371 -0.7938
  241MOL0     H31778   8.034   6.643   4.670 -0.3260  0.6706  0.8991
  241MOL0     H31779   8.169   6.748   4.612  0.2143 -2.7588  1.2034
  241MOL0     H31780   8.006   6.840   4.443 -1.5164  0.2911  1.5495
  241MOL0     H31781   7.865   6.768   4.527 -0.0635 -0.9656  1.0283
  241MOL0     H31782   7.913   6.549   4.483 -1.2747 -0.7299 -1.7527
  241MOL0     H31783   8.071   6.591   4.410 -0.6157 -0.7196 -0.7055
  241MOL0     H31784   7.821   6.696   4.309  0.8197  0.2819  3.6346
  241MOL0     H31785   7.974   6.694   4.219 -2.6262  2.6875  0.1273
  241MOL0     H31786   7.829   6.457   4.332 -2.3149  2.3104 -0.7542
  241MOL0     H31787   7.962   6.440   4.212  1.3263  2.1693 -1.0861
  241MOL0     H31788   7.852   6.512   4.043  0.0902  0.1397 -0.5859
  241MOL0     H31789   7.717   6.603   4.134  1.8359  0.8069  1.2138
  241MOL0     H31790   7.599   6.409   4.187  0.9445 -0.7381  0.1768
  241MOL0     H31791   7.622   6.415   4.019 -0.1629 -2.2221 -0.4444
  241MOL0     H31792   7.646   6.200   4.097  0.0490 -0.3658  0.5778
  241MOL0     H31793   7.802   6.243   4.169  0.0512  0.9814  0.2704
  241MOL0     H31794   8.204   6.998   4.856  0.8789 -0.1088  1.1058
  241MOL0     H31795   8.291   6.955   5.061 -3.4061  3.8729 -0.4839
  241MOL0     H31796   8.382   6.926   5.542  1.2398  0.5891  1.5376
  241MOL0     H31797   8.532   6.822   5.709  1.1378 -2.3606  0.5364
  241MOL0     H31798   8.542   6.750   6.967 -0.5785 -2.2163 -0.9900
  241MOL0     H31799   8.537   6.983   7.055 -0.1779 -0.2357 -1.4581
  241MOL0     H31800   8.155   7.320   7.230 -0.3863  0.0881  2.0630
  241MOL0     H31801   8.115   7.555   7.291  0.9531  3.2015  0.2966
  241MOL0     H31802   8.310   7.693   7.596  2.4513 -1.3359 -2.9848
  241MOL0     H31803   8.180   7.606   7.529  2.2719 -1.3273  1.0550
  241MOL0     H31804   8.209   7.910   7.508 -0.8898 -0.1308 -1.2900
  241MOL0     H31805   8.063   7.819   7.473  1.0251 -0.8130 -0.3994
  241MOL0     H31806   8.073   7.965   7.681  3.5441  1.1794 -2.4913
  241MOL0     H31807   8.182   7.849   7.747  0.5739  0.2640  0.2516
  241MOL0     H31808   7.890   7.815   7.656  0.2466 -0.6640  1.7794
  241MOL0     H31809   7.999   7.678   7.694  1.8295 -1.1725  0.4917
  241MOL0     H31810   7.926   7.879   8.070  2.1085  2.1198 -0.9621
  241MOL0     H31811   8.524   7.619   7.337 -0.1495 -0.0630 -1.6408
  241MOL0     H31812   8.576   7.375   7.273 -0.3824 -0.8914  0.8619
  242MOL0     O31813   6.034   0.752   8.804 -0.2228 -0.4633  0.0274
  242MOL0     C31814   6.097   0.660   8.848 -0.8778 -0.2230 -0.2511
  242MOL0     O31815   6.183   0.660   8.954 -0.4882 -0.5053  0.1083
  242MOL0     C31816   6.222   0.763   9.031  1.0143 -0.8180  0.9998
  242MOL0     C31817   6.198   0.900   9.006  0.2407 -0.0914 -0.1932
  242MOL0     C31818   6.259   0.988   9.095 -0.1238  0.0283  0.0936
  242MOL0     C31819   6.328   0.952   9.212 -0.1011 -0.5710  0.4135
  242MOL0     O31820   6.369   1.062   9.280 -0.0280  0.8769  0.0974
  242MOL0     C31821   6.428   1.048   9.406  0.0068 -0.8912  0.2540
  242MOL0     C31822   6.483   1.186   9.458 -0.1962 -0.0648  0.9270
  242MOL0     C31823   6.379   1.302   9.418  0.5801  0.0646 -0.2358
  242MOL0     C31824   6.402   1.439   9.476  0.4148  0.0546  0.2504
  242MOL0     C31825   6.396   1.451   9.628  0.2766  0.4530  0.1701
  242MOL0     C31826   6.414   1.599   9.673 -1.4164 -0.7489 -0.5329
  242MOL0     C31827   6.381   1.611   9.824  0.1113  0.0148  0.6633
  242MOL0     C31828   6.389   1.755   9.880  0.1119  0.6917  0.5090
  242MOL0     N31829   6.336   1.772  10.018  0.4587  0.7465 -0.3624
  242MOL0     C31830   6.364   1.693  10.127  0.6240 -0.1655  0.7955
  242MOL0     C31831   6.285   1.746  10.224 -0.5868  0.6562 -0.2492
  242MOL0     C31832   6.256   1.691  10.365  0.6801 -0.0181  0.0160
  242MOL0     C31833   6.378   1.609  10.407  1.2121  0.2517  0.4390
  242MOL0     C31834   6.376   1.612  10.562  0.1001 -0.7994 -0.1204
  242MOL0     C31835   6.471   1.504  10.622 -0.9066  0.6692 -0.6557
  242MOL0     O31836   6.608   1.564  10.626  0.5063 -0.0598 -0.1240
  242MOL0     C31837   6.697   1.499  10.552 -1.3723 -0.3223 -0.3005
  242MOL0     C31838   6.683   1.424  10.436  0.9603 -0.2565 -0.4138
  242MOL0     C31839   6.792   1.359  10.386 -0.7315  0.1738 -0.1723
  242MOL0     C31840   6.914   1.364  10.444  0.9486  0.1007 -0.4615
  242MOL0     C31841   7.028   1.296  10.382  0.8357  0.9679 -0.4222
  242MOL0     O31842   7.013   1.282  10.244  0.1498 -0.7086  0.4694
  242MOL0     C31843   7.117   1.328  10.167  0.3751 -0.1176 -0.8921
  242MOL0     C31844   7.237   1.263  10.161 -0.6430  0.3868 -0.6437
  242MOL0     C31845   7.349   1.307  10.091 -0.5099 -0.4710 -0.0028
  242MOL0     C31846   7.347   1.421  10.021 -0.3258  0.0172 -0.1958
  242MOL0     O31847   7.449   1.473   9.937  0.4008  0.1084 -0.2579
  242MOL0     C31848   7.585   1.438   9.934 -0.1336  0.1767 -0.6426
  242MOL0     C31849   7.620   1.390   9.795 -0.6339  0.4849 -0.1491
  242MOL0     C31850   7.769   1.359   9.780 -0.7852 -0.1108  0.2424
  242MOL0     C31851   7.856   1.479   9.739  1.0390  0.6299 -0.2671
  242MOL0     C31852   7.833   1.524   9.599  0.9258 -0.3149 -0.6128
  242MOL0     C31853   7.906   1.652   9.568  0.4534 -0.5004 -0.1980
  242MOL0     C31854   7.874   1.700   9.428  0.2724 -0.7968  0.5825
  242MOL0     C31855   7.907   1.844   9.392  0.6359  0.8415  0.5228
  242MOL0    Cl31856   7.834   1.952   9.501  0.5815 -0.0383 -0.6923
  242MOL0     C31857   7.231   1.505  10.033  1.3532  0.5818 -0.1339
  242MOL0     C31858   7.116   1.453  10.103 -0.5650 -0.9978 -0.2762
  242MOL0     O31859   7.124   1.267  10.452  0.0612  0.4942  0.3220
  242MOL0     C31860   6.931   1.437  10.565 -0.0738  0.2653  0.0453
  242MOL0     C31861   6.825   1.507  10.612 -0.3523 -0.0548 -0.0578
  242MOL0     N31862   6.221   1.860  10.176  0.3409 -0.2623  1.0854
  242MOL0     N31863   6.244   1.874  10.048 -0.4574  0.4806 -0.3601
  242MOL0     C31864   6.353   0.815   9.237  0.3025  1.0099  0.0211
  242MOL0     C31865   6.296   0.730   9.143 -0.4112  0.4388 -0.6016
  242MOL0     C31866   6.065   0.530   8.792  0.6509 -0.8855 -1.2865
  242MOL0     C31867   5.949   0.510   8.716  0.2769  0.1892  0.6611
  242MOL0     C31868   5.933   0.382   8.654  1.1703  0.0203 -0.8802
  242MOL0     C31869   6.011   0.269   8.668 -0.6469  0.6289  0.4675
  242MOL0     O31870   5.995   0.154   8.595 -0.3598 -0.1945 -0.1990
  242MOL0     C31871   6.111   0.082   8.583  0.0885 -0.0121 -0.2609
  242MOL0     C31872   6.068  -0.048   8.504  0.0977 -0.2457 -0.5659
  242MOL0     C31873   5.957  -0.128   8.579 -0.2569  0.2459  0.2892
  242MOL0     C31874   5.904  -0.242   8.495  0.9635 -1.2071  0.5202
  242MOL0     C31875   5.767  -0.274   8.523 -0.2695 -0.0553  1.0510
  242MOL0     C31876   5.653  -0.322   8.540  1.2095 -0.8796 -0.1296
  242MOL0     C31877   6.112   0.288   8.765 -0.7278 -0.3743 -0.1812
  242MOL0     C31878   6.144   0.414   8.823 -0.3324  0.4773 -0.9324
  242MOL0     H31879   6.141   0.933   8.920 -0.2420 -1.0057 -0.2376
  242MOL0     H31880   6.262   1.095   9.075 -1.2100 -0.1581 -1.1997
  242MOL0     H31881   6.512   0.977   9.406  1.1859  0.2319  4.0263
  242MOL0     H31882   6.350   1.014   9.475  0.2257  0.1419  1.0349
  242MOL0     H31883   6.577   1.205   9.407 -0.5158  1.4258  0.8365
  242MOL0     H31884   6.497   1.202   9.565 -1.0201  1.4420  0.8482
  242MOL0     H31885   6.284   1.265   9.458  0.5314  1.7852  1.3719
  242MOL0     H31886   6.368   1.300   9.309 -1.6582 -4.8629 -0.1535
  242MOL0     H31887   6.501   1.475   9.446  1.6028 -4.5724 -2.2936
  242MOL0     H31888   6.331   1.509   9.431  0.9525 -0.0412 -0.7788
  242MOL0     H31889   6.466   1.399   9.694 -1.7797 -2.3960  0.2999
  242MOL0     H31890   6.294   1.418   9.652 -1.5275  1.4137 -4.8586
  242MOL0     H31891   6.357   1.667   9.609 -0.8691 -2.4248 -2.9301
  242MOL0     H31892   6.522   1.610   9.660 -1.2897  0.4300  1.1100
  242MOL0     H31893   6.279   1.575   9.837  0.6256 -1.9026 -0.1391
  242MOL0     H31894   6.450   1.545   9.878 -1.8165 -1.7790  1.0329
  242MOL0     H31895   6.342   1.821   9.806  0.3041 -3.2976 -3.6209
  242MOL0     H31896   6.493   1.787   9.889  0.2895  0.7439 -1.3409
  242MOL0     H31897   6.416   1.598  10.130 -1.1161 -1.1438  1.4240
  242MOL0     H31898   6.169   1.625  10.369  2.4173 -2.5385 -0.9030
  242MOL0     H31899   6.250   1.781  10.426 -2.7930  0.6811 -1.1555
  242MOL0     H31900   6.467   1.654  10.363  2.2543 -1.8711  0.2801
  242MOL0     H31901   6.368   1.505  10.377  1.2118 -0.2366  2.0103
  242MOL0     H31902   6.382   1.711  10.607  0.4181 -0.9149  0.0951
  242MOL0     H31903   6.278   1.575  10.594 -0.3946  0.3086 -0.3290
  242MOL0     H31904   6.471   1.420  10.552  1.8741  0.5986 -0.6859
  242MOL0     H31905   6.450   1.475  10.726  0.4741 -1.6251 -0.9325
  242MOL0     H31906   6.587   1.402  10.390  1.4581  0.1464 -1.7128
  242MOL0     H31907   6.798   1.308  10.291  1.8775 -0.8402  0.4405
  242MOL0     H31908   7.236   1.171  10.219  0.5267  1.1829  0.6922
  242MOL0     H31909   7.445   1.258  10.092  0.8067  1.8100 -2.1731
  242MOL0     H31910   7.600   1.361  10.011 -2.9774 -1.3340 -1.4246
  242MOL0     H31911   7.645   1.528   9.946  0.9901  0.2724 -5.1897
  242MOL0     H31912   7.590   1.464   9.721  1.6477 -0.1910 -1.8737
  242MOL0     H31913   7.558   1.302   9.771  1.5653 -0.5356 -2.6518
  242MOL0     H31914   7.789   1.280   9.709  2.2659  2.8687 -2.5603
  242MOL0     H31915   7.795   1.330   9.883 -2.3604 -0.4273  0.5802
  242MOL0     H31916   7.841   1.559   9.813  1.4838 -0.5988  1.2050
  242MOL0     H31917   7.960   1.447   9.748  0.4063 -1.3496  0.5456
  242MOL0     H31918   7.726   1.546   9.587  0.8320 -0.9929 -1.0770
  242MOL0     H31919   7.858   1.444   9.529  1.3808 -0.5173 -0.2246
  242MOL0     H31920   8.013   1.631   9.572  0.6434  0.2896 -0.8820
  242MOL0     H31921   7.879   1.734   9.636 -1.1739  0.3495 -1.7924
  242MOL0     H31922   7.931   1.640   9.357  0.2948 -0.0129 -0.0736
  242MOL0     H31923   7.768   1.692   9.401  0.6241  2.6664 -2.7000
  242MOL0     H31924   7.889   1.865   9.286  6.5916 -3.1525 -1.8314
  242MOL0     H31925   8.015   1.854   9.402  0.8011 -0.3073  0.0604
  242MOL0     H31926   7.214   1.590   9.968 -2.7872  0.1798  0.1190
  242MOL0     H31927   7.028   1.514  10.115  0.0369 -0.1620 -0.0231
  242MOL0     H31928   7.033   1.449  10.601  0.0060  1.2330 -0.4742
  242MOL0     H31929   6.841   1.577  10.693 -1.4229 -1.4602  1.4403
  242MOL0     H31930   6.414   0.780   9.320 -2.1628 -3.0896  0.3764
  242MOL0     H31931   6.316   0.624   9.154 -0.8965  0.3931 -0.1158
  242MOL0     H31932   5.887   0.595   8.690  0.8035 -0.0240 -1.5599
  242MOL0     H31933   5.861   0.376   8.573 -0.3392 -1.9934  0.4820
  242MOL0     H31934   6.140   0.045   8.682 -0.7507  0.5358  0.1983
  242MOL0     H31935   6.199   0.117   8.527  1.2487 -0.8995  0.9398
  242MOL0     H31936   6.031  -0.011   8.408  0.3515 -2.0644 -1.4066
  242MOL0     H31937   6.160  -0.104   8.487  1.1993  0.4219  2.5328
  242MOL0     H31938   5.878  -0.054   8.593 -0.6272 -0.0656 -0.1312
  242MOL0     H31939   5.994  -0.163   8.676 -0.0050  0.1855  0.1728
  242MOL0     H31940   5.907  -0.188   8.400 -1.2138  1.7005  1.9344
  242MOL0     H31941   5.967  -0.331   8.484  0.7396 -1.2397 -0.5209
  242MOL0     H31942   5.554  -0.362   8.529 -0.4901  2.6188  1.0251
  242MOL0     H31943   6.169   0.205   8.804 -2.5116 -1.6750 -0.2296
  242MOL0     H31944   6.221   0.418   8.899 -0.0581 -0.2961 -1.1628
  243MOL0     O31945   1.600   0.767   5.414  0.0943 -0.2273 -0.0774
  243MOL0     C31946   1.528   0.732   5.328 -0.6973  0.5619 -0.4494
  243MOL0     O31947   1.391   0.739   5.345 -0.1507  0.2625 -0.2874
  243MOL0     C31948   1.335   0.835   5.423 -1.1302 -0.5032  0.4496
  243MOL0     C31949   1.387   0.963   5.426 -0.1203 -0.6540 -0.1235
  243MOL0     C31950   1.330   1.069   5.498 -0.2240  0.1199  0.2831
  243MOL0     C31951   1.198   1.040   5.556 -0.2377  0.3250 -0.4939
  243MOL0     O31952   1.136   1.136   5.637  0.1874 -0.2825 -0.2169
  243MOL0     C31953   1.116   1.260   5.562 -0.0034  0.0879 -0.2697
  243MOL0     C31954   1.007   1.331   5.640  0.4963 -0.2042  0.3716
  243MOL0     C31955   1.043   1.399   5.773  0.3005 -0.6991  0.6105
  243MOL0     C31956   0.912   1.413   5.853  0.1248 -0.4982  0.2350
  243MOL0     C31957   0.924   1.482   5.988 -0.1636  0.4259 -0.1415
  243MOL0     C31958   0.792   1.491   6.057 -0.5026 -0.4399  0.0333
  243MOL0     C31959   0.794   1.565   6.197 -0.9509  0.6472  0.5583
  243MOL0     C31960   0.667   1.570   6.286 -0.6272  1.1826  0.5736
  243MOL0     N31961   0.713   1.601   6.422  0.7153 -0.9592  0.7300
  243MOL0     C31962   0.686   1.716   6.494 -0.8597 -0.6210  1.2306
  243MOL0     C31963   0.765   1.717   6.606  0.0006  0.3437  0.2612
  243MOL0     C31964   0.800   1.823   6.709 -0.6225  0.4238  0.6035
  243MOL0     C31965   0.798   1.967   6.653 -0.0278 -1.0447 -0.1768
  243MOL0     C31966   0.814   2.069   6.770  0.1930  0.0782 -0.6755
  243MOL0     C31967   0.768   2.209   6.730  0.1243  0.3406  0.1192
  243MOL0     O31968   0.630   2.232   6.759  0.5047 -1.0948 -0.3558
  243MOL0     C31969   0.587   2.253   6.883 -0.4297  0.3422  0.0768
  243MOL0     C31970   0.451   2.262   6.906 -0.5929  0.2431  1.3553
  243MOL0     C31971   0.399   2.275   7.032  0.1749  0.0910 -0.6139
  243MOL0     C31972   0.481   2.256   7.145  0.3402 -1.1403 -0.1873
  243MOL0     C31973   0.419   2.221   7.274 -0.2463  0.0965  0.3361
  243MOL0     O31974   0.289   2.182   7.272  0.5016 -0.1241  0.7720
  243MOL0     C31975   0.234   2.150   7.394 -0.3602 -0.0211 -0.4153
  243MOL0     C31976   0.136   2.229   7.467  0.5325  0.5904  1.0444
  243MOL0     C31977   0.070   2.166   7.579 -0.0269 -0.7756  1.0993
  243MOL0     C31978   0.097   2.036   7.614  1.3648  0.6594  0.3165
  243MOL0     O31979   0.027   1.986   7.727 -0.7047  0.4272 -0.1263
  243MOL0     C31980   0.009   1.843   7.723 -0.3033  0.1250 -0.7209
  243MOL0     C31981  -0.007   1.802   7.865  0.7680 -0.0919  0.0604
  243MOL0     C31982  -0.135   1.857   7.938 -0.1344  0.2580  0.3081
  243MOL0     C31983  -0.166   1.791   8.070 -0.1345 -0.6114  0.7483
  243MOL0     C31984  -0.267   1.886   8.134  0.3332 -0.0215 -0.9940
  243MOL0     C31985  -0.186   1.989   8.222 -0.4721  0.1917  1.1914
  243MOL0     C31986  -0.284   2.061   8.313 -0.1750 -0.3927 -0.0125
  243MOL0     C31987  -0.211   2.190   8.364  0.6948  0.0379 -0.3305
  243MOL0    Cl31988  -0.065   2.160   8.461  0.0722  0.4858 -0.6660
  243MOL0     C31989   0.206   1.977   7.561  0.4798  0.1196  0.2543
  243MOL0     C31990   0.276   2.025   7.453  0.0156 -0.0757 -0.9058
  243MOL0     O31991   0.483   2.251   7.379  0.3905  0.4020 -0.2131
  243MOL0     C31992   0.617   2.252   7.127 -0.9094 -0.7114  0.7320
  243MOL0     C31993   0.675   2.251   6.998 -0.0840  0.6948 -1.5153
  243MOL0     N31994   0.825   1.591   6.609 -1.1798 -0.3573  0.1848
  243MOL0     N31995   0.793   1.530   6.503  0.4374  0.0352 -0.0847
  243MOL0     C31996   1.136   0.920   5.547  0.1304  1.4519  0.2346
  243MOL0     C31997   1.206   0.819   5.470  0.5911  0.0603 -0.1917
  243MOL0     C31998   1.585   0.670   5.203  0.4480 -0.3916 -0.9148
  243MOL0     C31999   1.501   0.596   5.116 -0.6007 -0.5146 -0.4408
  243MOL0     C32000   1.551   0.562   4.988 -0.2228 -0.3980 -1.1774
  243MOL0     C32001   1.687   0.585   4.953  0.2548  0.0451  0.9942
  243MOL0     O32002   1.742   0.571   4.824 -0.1804 -0.6989  0.5967
  243MOL0     C32003   1.644   0.525   4.721 -0.0106  0.2335  0.4700
  243MOL0     C32004   1.696   0.532   4.580  0.6829  0.8993  0.0153
  243MOL0     C32005   1.695   0.684   4.550 -0.2755  0.2586  0.6962
  243MOL0     C32006   1.750   0.727   4.407 -0.0179  0.8085 -0.0583
  243MOL0     C32007   1.777   0.869   4.397  0.4256 -0.9589 -0.8680
  243MOL0     C32008   1.816   0.984   4.406  0.2540  0.3800  0.2560
  243MOL0     C32009   1.771   0.647   5.043 -0.6932  0.0559 -0.4736
  243MOL0     C32010   1.723   0.691   5.171  0.7093 -0.1363  0.9193
  243MOL0     H32011   1.484   0.980   5.380 -2.0457  0.7805 -4.1366
  243MOL0     H32012   1.376   1.166   5.514 -0.8232  0.3782  0.5024
  243MOL0     H32013   1.084   1.229   5.462  0.8558 -2.4553  0.1554
  243MOL0     H32014   1.208   1.319   5.566 -1.4991  2.5412  4.1700
  243MOL0     H32015   0.933   1.252   5.656 -2.0843  2.5284  3.3862
  243MOL0     H32016   0.961   1.402   5.569 -1.5429 -2.8826 -1.1825
  243MOL0     H32017   1.069   1.504   5.755 -2.4087  0.0945  0.8926
  243MOL0     H32018   1.127   1.354   5.826  0.2706 -0.6362  0.7120
  243MOL0     H32019   0.843   1.480   5.800  1.3860  0.3607 -0.3861
  243MOL0     H32020   0.866   1.315   5.867 -3.9699  1.1989  0.0622
  243MOL0     H32021   0.975   1.579   5.987 -1.4891  1.1584 -1.7878
  243MOL0     H32022   0.974   1.420   6.062 -1.1004  0.6504  0.7083
  243MOL0     H32023   0.747   1.392   6.074 -0.8593 -0.8949 -3.0626
  243MOL0     H32024   0.741   1.566   5.996  2.2092  1.6321  0.1286
  243MOL0     H32025   0.869   1.506   6.249  0.8430 -2.0102 -4.4280
  243MOL0     H32026   0.826   1.669   6.190 -2.2952  1.2234  2.1873
  243MOL0     H32027   0.617   1.473   6.289  1.3847  0.0984  1.6311
  243MOL0     H32028   0.595   1.640   6.243  0.0231  1.3425 -0.2831
  243MOL0     H32029   0.631   1.804   6.461  0.2006 -0.5064 -0.3391
  243MOL0     H32030   0.903   1.797   6.734  0.6542  2.9723 -1.4949
  243MOL0     H32031   0.734   1.808   6.795  1.4234 -3.5362  1.7111
  243MOL0     H32032   0.700   1.979   6.605  0.4727 -2.3690 -1.6067
  243MOL0     H32033   0.882   1.985   6.586 -0.0407  1.1087  0.2916
  243MOL0     H32034   0.759   2.038   6.859  1.0104 -0.2425 -0.2742
  243MOL0     H32035   0.920   2.080   6.797 -0.5176  1.1541  2.0358
  243MOL0     H32036   0.782   2.211   6.622  0.8599  2.7766  0.2105
  243MOL0     H32037   0.830   2.278   6.788  1.7764 -1.3430  0.4501
  243MOL0     H32038   0.377   2.280   6.828  0.1738  2.3414  1.0536
  243MOL0     H32039   0.291   2.278   7.048  0.2360 -2.3155  0.7151
  243MOL0     H32040   0.100   2.324   7.429 -1.6321 -0.5093  0.1727
  243MOL0     H32041  -0.011   2.220   7.627 -2.3400 -2.4410 -0.7089
  243MOL0     H32042   0.101   1.793   7.692  0.3274 -0.8775  2.4353
  243MOL0     H32043  -0.072   1.806   7.660 -1.2007  0.2643  0.3198
  243MOL0     H32044   0.067   1.859   7.922 -1.1638  2.2345  0.4131
  243MOL0     H32045   0.003   1.695   7.886 -1.9861 -0.6432 -1.1203
  243MOL0     H32046  -0.226   1.865   7.880  2.3244  2.2160 -3.6959
  243MOL0     H32047  -0.104   1.962   7.947 -1.2137  0.5834  0.3096
  243MOL0     H32048  -0.209   1.694   8.045 -3.8721  0.3645  2.6192
  243MOL0     H32049  -0.081   1.775   8.138 -0.0856  1.4955  1.2585
  243MOL0     H32050  -0.316   1.824   8.209  1.2904  0.3069 -0.0592
  243MOL0     H32051  -0.337   1.935   8.065 -2.1320 -0.8881  0.7608
  243MOL0     H32052  -0.135   2.058   8.155  0.5991 -1.3545  0.3791
  243MOL0     H32053  -0.099   1.953   8.278 -0.5447  0.6392  1.5994
  243MOL0     H32054  -0.382   2.084   8.268  1.1345  3.1346 -1.4660
  243MOL0     H32055  -0.296   1.992   8.396 -0.3892 -1.0473 -0.5745
  243MOL0     H32056  -0.269   2.253   8.432 -0.3009 -0.6510 -0.5117
  243MOL0     H32057  -0.191   2.249   8.274 -2.1171  0.8388 -0.5304
  243MOL0     H32058   0.253   1.888   7.601 -2.5436 -0.6751  2.3752
  243MOL0     H32059   0.352   1.961   7.410  2.9372  1.9257  0.9359
  243MOL0     H32060   0.678   2.222   7.212  0.0373 -1.9446 -0.3461
  243MOL0     H32061   0.781   2.227   6.992 -0.5259 -1.8932 -0.3734
  243MOL0     H32062   1.039   0.910   5.596 -1.4616 -0.1101 -2.9362
  243MOL0     H32063   1.155   0.723   5.464 -3.1444  1.9230 -2.8356
  243MOL0     H32064   1.404   0.587   5.164 -0.6082  3.8400  0.7718
  243MOL0     H32065   1.485   0.510   4.919  1.0633 -2.1255 -1.1498
  243MOL0     H32066   1.546   0.573   4.719 -0.3828 -0.4652 -2.1627
  243MOL0     H32067   1.628   0.419   4.743 -0.8903 -0.1577 -1.7681
  243MOL0     H32068   1.797   0.492   4.573  0.3914 -0.0458  0.9104
  243MOL0     H32069   1.628   0.480   4.510  0.5791  0.5361  0.3794
  243MOL0     H32070   1.767   0.729   4.619  0.9160  1.1470 -1.0597
  243MOL0     H32071   1.599   0.731   4.570  0.5187  2.4178 -0.2912
  243MOL0     H32072   1.839   0.665   4.391 -1.7551 -2.0756  0.6890
  243MOL0     H32073   1.674   0.678   4.346 -1.3217 -2.3293  3.7056
  243MOL0     H32074   1.848   1.086   4.415  2.0253  0.0191 -1.3118
  243MOL0     H32075   1.870   0.682   5.017 -1.1691  2.9088  1.1009
  243MOL0     H32076   1.782   0.746   5.244 -2.6937  1.8823  2.3532
  244MOL0     O32077   6.425  10.201   7.058 -0.1594 -0.4209  0.2090
  244MOL0     C32078   6.357  10.269   6.976 -0.4164  0.7755 -0.5020
  244MOL0     O32079   6.396  10.383   6.919 -0.7425  0.3788 -0.8168
  244MOL0     C32080   6.486  10.473   6.983 -0.1049  1.5176  0.3642
  244MOL0     C32081   6.538  10.574   6.906 -0.5138 -1.1059 -0.6046
  244MOL0     C32082   6.630  10.664   6.963  0.3863  0.6048  0.6101
  244MOL0     C32083   6.690  10.646   7.085 -0.6271 -0.8133 -0.3934
  244MOL0     O32084   6.777  10.741   7.124 -0.5184 -0.3862 -0.0882
  244MOL0     C32085   6.824  10.729   7.271 -0.2009  0.0101  1.5815
  244MOL0     C32086   6.850  10.871   7.323  0.7399 -0.6645  0.2623
  244MOL0     C32087   6.916  10.958   7.211  0.6995 -0.1236  0.0847
  244MOL0     C32088   6.979  11.078   7.278 -1.2657 -0.5342  0.5172
  244MOL0     C32089   7.048  11.166   7.174  0.9468 -0.0574 -1.1073
  244MOL0     C32090   7.088  11.304   7.216  0.1405 -0.0421 -0.1135
  244MOL0     C32091   7.225  11.330   7.286 -1.1341  1.1459 -0.8859
  244MOL0     C32092   7.221  11.256   7.418  0.1680 -0.3825  0.0883
  244MOL0     N32093   7.314  11.304   7.519  1.2289  0.0286 -0.2516
  244MOL0     C32094   7.447  11.328   7.499 -0.2387  0.2262  0.2964
  244MOL0     C32095   7.501  11.347   7.626 -0.1551  1.0314  0.1048
  244MOL0     C32096   7.646  11.342   7.635  0.5631  0.0308  0.4153
  244MOL0     C32097   7.699  11.203   7.662 -0.1135  0.7807  0.1130
  244MOL0     C32098   7.855  11.205   7.669  0.5010  0.6573  0.2848
  244MOL0     C32099   7.923  11.085   7.739  0.2563  0.7011 -0.3618
  244MOL0     O32100   7.865  11.055   7.874  0.2883  0.0092 -0.1474
  244MOL0     C32101   7.961  11.058   7.973  0.0250  0.3611 -0.4631
  244MOL0     C32102   7.983  10.946   8.055 -0.8758  0.1012 -0.3964
  244MOL0     C32103   8.069  10.954   8.162  0.4699  0.9903  0.6217
  244MOL0     C32104   8.145  11.074   8.188  1.1133  0.3211  0.9360
  244MOL0     C32105   8.248  11.075   8.295 -0.7595  0.8337 -0.8045
  244MOL0     O32106   8.284  11.194   8.347  0.4919  0.2659 -0.1401
  244MOL0     C32107   8.377  11.219   8.448  0.5461  0.2175 -1.3347
  244MOL0     C32108   8.462  11.325   8.446 -0.8214  0.1718 -0.9000
  244MOL0     C32109   8.563  11.333   8.543 -0.4014  0.5042  0.1381
  244MOL0     C32110   8.573  11.252   8.658 -0.0495  0.8402  0.4839
  244MOL0     O32111   8.693  11.270   8.726 -0.3163 -0.0323  0.5258
  244MOL0     C32112   8.739  11.180   8.825  0.1693 -0.1150 -0.9910
  244MOL0     C32113   8.664  11.213   8.955 -0.4433 -0.3639  0.0048
  244MOL0     C32114   8.730  11.174   9.086  0.1943  0.2803 -0.2490
  244MOL0     C32115   8.666  11.265   9.195  0.6691  0.4540  0.6660
  244MOL0     C32116   8.714  11.247   9.336 -0.4918 -0.3517  0.0155
  244MOL0     C32117   8.630  11.336   9.433  0.0081  0.7910 -1.1745
  244MOL0     C32118   8.716  11.378   9.560 -0.6113 -1.1026 -0.0120
  244MOL0     C32119   8.662  11.487   9.640  0.0548  0.0291 -0.6523
  244MOL0    Cl32120   8.508  11.448   9.719  0.3579  0.3724 -0.8139
  244MOL0     C32121   8.480  11.148   8.665  0.3238 -0.0531  0.3267
  244MOL0     C32122   8.389  11.131   8.562 -0.4408 -0.4698  0.9477
  244MOL0     O32123   8.290  10.964   8.337 -0.2290 -0.2441  0.3461
  244MOL0     C32124   8.114  11.193   8.116  0.6195 -0.4314  0.7451
  244MOL0     C32125   8.021  11.187   8.007 -0.4991  0.4756  0.7204
  244MOL0     N32126   7.398  11.356   7.715 -0.1123 -0.4048 -0.0827
  244MOL0     N32127   7.290  11.323   7.658  0.1586  0.3046  0.4718
  244MOL0     C32128   6.642  10.531   7.159  0.1910  0.1672  0.2766
  244MOL0     C32129   6.533  10.454   7.117 -0.2939 -0.2132 -0.2209
  244MOL0     C32130   6.250  10.196   6.904  0.6474 -0.2919 -0.2951
  244MOL0     C32131   6.216  10.064   6.939 -1.2581 -0.6358  0.6618
  244MOL0     C32132   6.124   9.999   6.864  0.6306  0.7715 -0.5270
  244MOL0     C32133   6.055  10.059   6.756  0.0811 -0.2139 -0.6101
  244MOL0     O32134   5.968   9.989   6.676  0.1619 -0.2204 -0.2271
  244MOL0     C32135   5.856   9.936   6.749  0.7957  0.3293 -0.0165
  244MOL0     C32136   5.752   9.870   6.656  0.9028  0.2205 -0.0361
  244MOL0     C32137   5.691   9.736   6.707 -0.7480  0.0851  0.3885
  244MOL0     C32138   5.786   9.618   6.688  0.3595  0.2495  0.5153
  244MOL0     C32139   5.792   9.546   6.560 -0.4677 -0.5896 -0.4239
  244MOL0     C32140   5.793   9.488   6.448 -0.1883  0.5555  0.5349
  244MOL0     C32141   6.088  10.191   6.726  0.3024  0.7698  0.0808
  244MOL0     C32142   6.183  10.268   6.799  0.0710  0.0832  0.7303
  244MOL0     H32143   6.507  10.595   6.804 -2.3051  0.7991  0.2402
  244MOL0     H32144   6.678  10.746   6.911  0.2241  0.0327 -0.4710
  244MOL0     H32145   6.920  10.676   7.272 -0.1940 -0.0198  3.9558
  244MOL0     H32146   6.749  10.681   7.334  0.0760 -1.8675  0.5778
  244MOL0     H32147   6.911  10.854   7.412  0.5520 -0.6791  0.3903
  244MOL0     H32148   6.759  10.918   7.361  0.1692  0.7772 -2.6424
  244MOL0     H32149   6.840  10.982   7.136 -0.0858 -2.4857  0.0353
  244MOL0     H32150   6.988  10.889   7.166  1.7147  1.2729 -0.4995
  244MOL0     H32151   6.901  11.135   7.330 -1.4852  1.8204 -2.1368
  244MOL0     H32152   7.047  11.038   7.353 -0.8803  0.3730  0.6652
  244MOL0     H32153   6.967  11.169   7.100  1.0237 -2.5170 -1.3962
  244MOL0     H32154   7.127  11.118   7.116 -0.4906  0.2902 -3.4536
  244MOL0     H32155   7.008  11.356   7.269 -0.8631 -1.4945 -0.1462
  244MOL0     H32156   7.091  11.366   7.126  1.9253 -0.1389 -0.1650
  244MOL0     H32157   7.315  11.292   7.237 -0.7643 -0.5345  0.9671
  244MOL0     H32158   7.249  11.434   7.312  1.8821 -0.0332  1.8713
  244MOL0     H32159   7.229  11.150   7.395 -1.5792 -1.7071  4.4850
  244MOL0     H32160   7.121  11.278   7.459  1.3740 -1.5071  4.1000
  244MOL0     H32161   7.487  11.325   7.399 -0.9516  3.1363 -0.1727
  244MOL0     H32162   7.674  11.420   7.707 -0.2279  2.1162 -1.4137
  244MOL0     H32163   7.695  11.368   7.541  2.8872 -1.2557  1.1842
  244MOL0     H32164   7.675  11.130   7.584  4.2937 -2.1070  1.1453
  244MOL0     H32165   7.656  11.164   7.755  0.2747 -2.1778 -0.8540
  244MOL0     H32166   7.897  11.213   7.568 -0.4526  0.8123 -0.1130
  244MOL0     H32167   7.891  11.298   7.715  1.7060  1.4042 -2.0128
  244MOL0     H32168   8.026  11.122   7.742  0.2928  0.5929 -0.2491
  244MOL0     H32169   7.927  10.999   7.671 -1.6504 -2.1599  2.8007
  244MOL0     H32170   7.934  10.851   8.038 -1.0180 -0.0189  0.6282
  244MOL0     H32171   8.072  10.863   8.221 -0.8041  1.9382  2.2453
  244MOL0     H32172   8.467  11.390   8.359  0.4263  1.3436 -0.0002
  244MOL0     H32173   8.635  11.414   8.535 -3.1553  3.3313  1.8350
  244MOL0     H32174   8.847  11.186   8.840  0.2369 -2.2462 -0.3056
  244MOL0     H32175   8.723  11.075   8.800 -0.1094  0.2308 -2.3537
  244MOL0     H32176   8.559  11.185   8.943 -0.7449  0.3294  0.8713
  244MOL0     H32177   8.652  11.322   8.952 -1.5664 -0.4903 -0.7996
  244MOL0     H32178   8.837  11.197   9.085 -0.4956  4.3076  0.3324
  244MOL0     H32179   8.711  11.073   9.122  0.5647  1.3070  3.2643
  244MOL0     H32180   8.682  11.372   9.176  0.4270  0.6159  1.3587
  244MOL0     H32181   8.560  11.240   9.194  1.1508 -1.7412  0.6511
  244MOL0     H32182   8.820  11.274   9.341 -0.5374 -0.1860  0.1018
  244MOL0     H32183   8.717  11.138   9.345 -0.3333 -0.4382 -0.9032
  244MOL0     H32184   8.547  11.276   9.472  1.0469 -1.3821 -2.0856
  244MOL0     H32185   8.599  11.420   9.370  2.7376  0.9656 -2.4308
  244MOL0     H32186   8.715  11.287   9.622 -0.6184 -1.4589 -0.5310
  244MOL0     H32187   8.816  11.417   9.538 -0.7540  0.3321  1.6308
  244MOL0     H32188   8.641  11.570   9.572 -0.3034 -0.9801 -1.8141
  244MOL0     H32189   8.739  11.523   9.708  2.1385  1.0883 -3.3765
  244MOL0     H32190   8.495  11.067   8.736  1.4440  0.2663  0.4614
  244MOL0     H32191   8.318  11.049   8.562 -1.8671  0.6486 -1.5989
  244MOL0     H32192   8.156  11.286   8.152  3.0697 -1.5773  1.0362
  244MOL0     H32193   7.995  11.280   7.958  0.6083  1.5077  2.0233
  244MOL0     H32194   6.693  10.496   7.249 -0.2841  0.7746  0.7806
  244MOL0     H32195   6.505  10.376   7.187  1.6546 -2.6342 -1.9706
  244MOL0     H32196   6.266  10.016   7.023 -0.4576  1.1473  1.2570
  244MOL0     H32197   6.099   9.897   6.893 -0.3893  0.8682 -1.0076
  244MOL0     H32198   5.790  10.010   6.797 -2.8445 -1.1025 -2.3523
  244MOL0     H32199   5.894   9.858   6.815  2.2165 -0.2029 -1.4204
  244MOL0     H32200   5.671   9.941   6.640  0.5091 -0.3126 -0.4346
  244MOL0     H32201   5.795   9.838   6.560 -0.1142  1.8764 -1.0824
  244MOL0     H32202   5.603   9.703   6.651  1.4364 -1.6830 -2.3245
  244MOL0     H32203   5.684   9.751   6.815 -1.0379  0.9207  0.2578
  244MOL0     H32204   5.890   9.650   6.705  1.2090 -1.4550 -1.1572
  244MOL0     H32205   5.763   9.554   6.774 -2.6889  1.9025  1.0689
  244MOL0     H32206   5.809   9.445   6.351  0.5569  4.0640 -1.0596
  244MOL0     H32207   6.022  10.229   6.649 -4.2930 -1.6484  2.4196
  244MOL0     H32208   6.201  10.371   6.771  0.8829  0.3676  2.1730
  245MOL0     O32209   9.350   0.720   2.942  0.3150 -0.2008 -0.0168
  245MOL0     C32210   9.337   0.598   2.937 -0.4367 -0.1464 -1.1167
  245MOL0     O32211   9.313   0.508   3.042 -0.1285  0.1733  0.2923
  245MOL0     C32212   9.319   0.561   3.168 -0.2216  1.6272 -0.8560
  245MOL0     C32213   9.448   0.612   3.219  0.1718  0.8269  0.7342
  245MOL0     C32214   9.450   0.660   3.351  0.9732  0.7009  0.0103
  245MOL0     C32215   9.349   0.635   3.443 -0.2998 -0.2129  0.1698
  245MOL0     O32216   9.366   0.679   3.567 -0.6016 -0.1920 -0.5463
  245MOL0     C32217   9.497   0.690   3.629  0.6746  0.8603  0.5334
  245MOL0     C32218   9.466   0.674   3.781  0.1392 -0.3357 -0.2957
  245MOL0     C32219   9.425   0.525   3.825  0.1221 -0.5874  0.0582
  245MOL0     C32220   9.389   0.531   3.971  0.7316  0.1582  0.8020
  245MOL0     C32221   9.358   0.398   4.028  0.0746  0.7757 -0.5797
  245MOL0     C32222   9.325   0.402   4.181 -0.1968  0.2962 -0.1302
  245MOL0     C32223   9.230   0.289   4.215  0.0466  0.3172  0.2164
  245MOL0     C32224   9.196   0.255   4.358  0.7163 -0.9395 -0.3471
  245MOL0     N32225   9.140   0.376   4.422 -0.8844 -0.8200 -0.3414
  245MOL0     C32226   8.999   0.409   4.421 -0.8712  0.6327  1.2532
  245MOL0     C32227   8.974   0.508   4.514 -0.0891 -0.4177 -0.3751
  245MOL0     C32228   8.852   0.582   4.552 -0.1217  0.2011 -0.4858
  245MOL0     C32229   8.793   0.541   4.686 -0.6189 -0.0278 -0.3270
  245MOL0     C32230   8.651   0.606   4.693  0.9965  0.2660 -0.8972
  245MOL0     C32231   8.579   0.549   4.809  1.1612 -0.0264 -0.6332
  245MOL0     O32232   8.569   0.413   4.794 -0.1153 -0.0313  0.2052
  245MOL0     C32233   8.592   0.322   4.892  0.4363 -0.2400  0.4789
  245MOL0     C32234   8.602   0.349   5.032  0.6623 -0.4115 -0.1941
  245MOL0     C32235   8.622   0.239   5.122 -0.2886 -0.1785  0.2206
  245MOL0     C32236   8.631   0.110   5.084 -0.1185 -0.2746  0.1703
  245MOL0     C32237   8.642   0.005   5.193 -0.3568 -0.5871  0.1520
  245MOL0     O32238   8.630  -0.122   5.142  0.4210 -0.0965  0.1063
  245MOL0     C32239   8.655  -0.237   5.217 -1.1250 -0.4024  0.6756
  245MOL0     C32240   8.738  -0.224   5.338  0.5858  0.5267 -0.2606
  245MOL0     C32241   8.751  -0.343   5.415 -0.2848 -0.1830 -0.4378
  245MOL0     C32242   8.695  -0.461   5.376 -0.7504 -0.5251  0.4178
  245MOL0     O32243   8.715  -0.576   5.452 -0.8365 -0.0949  0.0883
  245MOL0     C32244   8.619  -0.682   5.446  0.5847  0.1418 -0.4562
  245MOL0     C32245   8.494  -0.647   5.504 -0.0975  0.1746 -0.6182
  245MOL0     C32246   8.384  -0.743   5.495  0.0787  0.1687  0.3511
  245MOL0     C32247   8.422  -0.895   5.489 -0.0395 -0.0333  0.7180
  245MOL0     C32248   8.300  -0.994   5.499 -0.3146  0.3631  0.4810
  245MOL0     C32249   8.350  -1.132   5.486  0.1153  0.8494 -0.5599
  245MOL0     C32250   8.238  -1.247   5.515  0.9838  0.0849 -0.2684
  245MOL0     C32251   8.138  -1.262   5.398 -0.5246  0.4883 -0.1573
  245MOL0    Cl32252   7.991  -1.359   5.439 -0.1955 -0.3982  0.2563
  245MOL0     C32253   8.625  -0.462   5.254 -0.0096  0.1565  0.6159
  245MOL0     C32254   8.615  -0.356   5.169  0.3316 -0.4444  0.0126
  245MOL0     O32255   8.647   0.046   5.317 -0.5645  0.2711  0.7917
  245MOL0     C32256   8.624   0.086   4.945  0.8098  0.5345 -0.0622
  245MOL0     C32257   8.611   0.193   4.859 -0.6634  0.3913 -0.1594
  245MOL0     N32258   9.095   0.541   4.571  0.9029 -0.1015 -1.2727
  245MOL0     N32259   9.188   0.462   4.524 -0.1723 -0.4320  0.2915
  245MOL0     C32260   9.234   0.572   3.395  0.6907  0.7026  0.1249
  245MOL0     C32261   9.223   0.530   3.260  0.0103 -0.2045  0.4132
  245MOL0     C32262   9.304   0.540   2.799 -0.3815 -0.1884 -0.1511
  245MOL0     C32263   9.272   0.402   2.782 -0.4229 -0.6452  0.8157
  245MOL0     C32264   9.244   0.352   2.652  1.0220  0.2910 -1.0136
  245MOL0     C32265   9.251   0.445   2.543 -0.5104  1.2334  0.3740
  245MOL0     O32266   9.230   0.405   2.413 -0.5462 -0.3378  0.3207
  245MOL0     C32267   9.089   0.393   2.378 -0.5246 -0.3725 -0.4090
  245MOL0     C32268   9.091   0.330   2.236  0.0577 -0.5448 -0.8633
  245MOL0     C32269   9.153   0.423   2.131  0.4615 -1.0530 -0.5476
  245MOL0     C32270   9.052   0.531   2.087  0.6928 -0.5416 -0.6101
  245MOL0     C32271   9.029   0.636   2.183  0.7413 -0.0162 -0.4864
  245MOL0     C32272   9.004   0.723   2.265 -0.3194  0.6912  0.1277
  245MOL0     C32273   9.298   0.573   2.565  0.2338  0.6665  0.0785
  245MOL0     C32274   9.317   0.627   2.689 -0.1009 -0.0706  0.7688
  245MOL0     H32275   9.531   0.628   3.151 -1.0717 -2.3599 -1.8346
  245MOL0     H32276   9.542   0.710   3.380  0.7463  0.5265  1.0770
  245MOL0     H32277   9.522   0.795   3.612  0.2730  0.7565 -0.7952
  245MOL0     H32278   9.579   0.628   3.591  0.2579  0.9089 -0.4925
  245MOL0     H32279   9.388   0.748   3.800  1.1096  2.6254 -5.7147
  245MOL0     H32280   9.550   0.706   3.842 -1.3826 -2.0823  2.9425
  245MOL0     H32281   9.514   0.462   3.815  0.8527  0.2679  0.9047
  245MOL0     H32282   9.336   0.487   3.774 -1.1041 -0.5570  2.1062
  245MOL0     H32283   9.473   0.572   4.029 -0.3132 -0.5532  2.9369
  245MOL0     H32284   9.312   0.608   3.980 -0.4702 -0.9088  0.0623
  245MOL0     H32285   9.448   0.336   4.019  1.6416  2.7710  0.4873
  245MOL0     H32286   9.279   0.348   3.970  0.1413 -1.2090  0.9469
  245MOL0     H32287   9.284   0.502   4.198 -2.7914 -0.7877  0.4393
  245MOL0     H32288   9.421   0.385   4.230  0.4531 -1.3708 -1.8255
  245MOL0     H32289   9.140   0.311   4.156  1.4374  0.4802 -1.9543
  245MOL0     H32290   9.264   0.197   4.168 -0.1887  0.3692 -0.0569
  245MOL0     H32291   9.294   0.234   4.402  0.5502 -0.1778  0.3989
  245MOL0     H32292   9.135   0.166   4.376 -0.9035  0.2289  0.0774
  245MOL0     H32293   8.912   0.370   4.369 -0.2994 -0.0234  0.7598
  245MOL0     H32294   8.782   0.573   4.469 -2.0559  4.2165  0.4396
  245MOL0     H32295   8.882   0.687   4.554  2.8044 -0.4961 -2.2892
  245MOL0     H32296   8.849   0.583   4.770 -1.2717 -2.0999  1.2386
  245MOL0     H32297   8.802   0.432   4.695  1.6464  0.2604  2.4190
  245MOL0     H32298   8.656   0.714   4.710  3.4973  0.0496  0.2084
  245MOL0     H32299   8.597   0.584   4.600 -1.1201 -0.3649  0.4419
  245MOL0     H32300   8.475   0.581   4.820  1.0502  0.0250 -1.7026
  245MOL0     H32301   8.643   0.570   4.895  3.1924 -2.4789 -1.3943
  245MOL0     H32302   8.589   0.442   5.086 -2.0157 -2.0960  2.3531
  245MOL0     H32303   8.636   0.265   5.227  0.3875 -0.2430  0.1511
  245MOL0     H32304   8.785  -0.134   5.376 -0.9794  1.3255 -0.1609
  245MOL0     H32305   8.789  -0.342   5.517 -0.5646 -1.3062 -0.3140
  245MOL0     H32306   8.660  -0.769   5.499 -0.4252  0.4541  0.8870
  245MOL0     H32307   8.593  -0.711   5.344  2.6139 -0.3139 -0.8910
  245MOL0     H32308   8.462  -0.546   5.475  0.1023 -0.1884 -2.1514
  245MOL0     H32309   8.506  -0.614   5.608 -2.7965  2.6297 -0.9457
  245MOL0     H32310   8.327  -0.714   5.406  2.4913  0.0334 -1.3020
  245MOL0     H32311   8.326  -0.735   5.588  2.4144 -1.0693  2.0307
  245MOL0     H32312   8.476  -0.919   5.398  0.0658 -0.5936  0.9238
  245MOL0     H32313   8.493  -0.911   5.571  0.7778  0.5872  0.1566
  245MOL0     H32314   8.224  -0.965   5.426 -0.1084 -0.6641 -0.1601
  245MOL0     H32315   8.257  -0.988   5.599  0.2968 -1.5544  0.8943
  245MOL0     H32316   8.430  -1.149   5.559  1.1954  0.7320 -1.7251
  245MOL0     H32317   8.404  -1.140   5.391 -0.0604  2.5160 -0.8289
  245MOL0     H32318   8.286  -1.342   5.539 -1.9383 -2.1528 -2.5474
  245MOL0     H32319   8.176  -1.220   5.601 -0.4164 -0.0632 -1.2001
  245MOL0     H32320   8.200  -1.310   5.323  0.3330  2.2312 -0.6104
  245MOL0     H32321   8.100  -1.171   5.351 -0.9778  0.0147 -0.7190
  245MOL0     H32322   8.589  -0.554   5.207  1.9765  0.1217 -0.9464
  245MOL0     H32323   8.584  -0.363   5.066 -2.4473  1.8878  0.5801
  245MOL0     H32324   8.623  -0.009   4.894  0.1331  0.7566 -0.4694
  245MOL0     H32325   8.605   0.169   4.753 -1.8376  1.4698 -0.3535
  245MOL0     H32326   9.148   0.547   3.456  0.6645 -2.3062 -0.9410
  245MOL0     H32327   9.130   0.477   3.237 -0.1691 -1.3640  3.4106
  245MOL0     H32328   9.263   0.331   2.863 -0.6348  1.7789  3.0239
  245MOL0     H32329   9.209   0.250   2.638 -2.0663  1.2863 -1.2646
  245MOL0     H32330   9.037   0.489   2.386 -0.3941 -0.4073  1.2957
  245MOL0     H32331   9.031   0.325   2.441 -1.2881  1.0493  0.4600
  245MOL0     H32332   9.151   0.239   2.243 -0.7345 -1.0038  0.3345
  245MOL0     H32333   8.991   0.295   2.208 -0.2443 -0.0438 -0.4168
  245MOL0     H32334   9.169   0.372   2.035  2.4085  2.4428 -2.2515
  245MOL0     H32335   9.239   0.479   2.169  1.6640 -3.2950  0.2467
  245MOL0     H32336   9.081   0.579   1.993  3.0993 -2.6862 -1.0712
  245MOL0     H32337   8.959   0.475   2.073 -2.6553  3.9548  1.0755
  245MOL0     H32338   8.992   0.801   2.337  0.8473  1.2960 -0.2985
  245MOL0     H32339   9.298   0.631   2.473 -4.4593  2.6767  1.0674
  245MOL0     H32340   9.348   0.730   2.699  0.3565  0.6396 -4.9179
  246MOL0     O32341  10.853  10.730  11.139 -0.5590 -0.3610  0.4750
  246MOL0     C32342  10.918  10.640  11.097  0.2157 -0.2885 -0.6347
  246MOL0     O32343  10.864  10.546  11.019 -0.1753 -0.4300  0.4637
  246MOL0     C32344  10.753  10.557  10.946 -0.0690 -0.7145 -0.2905
  246MOL0     C32345  10.653  10.462  10.967 -0.4103  0.7585 -0.1717
  246MOL0     C32346  10.530  10.474  10.909  0.7281 -0.6121 -0.1527
  246MOL0     C32347  10.504  10.573  10.813 -0.1628  0.5698 -0.2184
  246MOL0     O32348  10.378  10.576  10.751 -0.1375  0.3488 -0.7992
  246MOL0     C32349  10.320  10.697  10.698 -0.8453 -0.0776  0.5276
  246MOL0     C32350  10.184  10.679  10.644 -0.1893 -0.6465  0.4195
  246MOL0     C32351  10.090  10.624  10.758 -0.0216  0.1219  0.3406
  246MOL0     C32352   9.965  10.573  10.684 -0.5551  0.0840 -0.6800
  246MOL0     C32353   9.855  10.503  10.762  0.4363 -0.1747  0.3164
  246MOL0     C32354   9.761  10.607  10.838  0.7565  0.3125 -0.7495
  246MOL0     C32355   9.714  10.552  10.968 -0.3646 -0.9722  0.3140
  246MOL0     C32356   9.570  10.502  10.948  0.2360  0.7291 -0.7462
  246MOL0     N32357   9.535  10.383  10.868 -0.2975  0.2073 -0.1477
  246MOL0     C32358   9.527  10.252  10.906  0.8161 -1.0017 -0.4577
  246MOL0     C32359   9.499  10.191  10.791  0.2997  0.0938  0.0233
  246MOL0     C32360   9.464  10.041  10.787 -0.4804 -0.0212 -0.4293
  246MOL0     C32361   9.571   9.947  10.851 -0.3360 -0.5166 -0.0216
  246MOL0     C32362   9.711   9.958  10.787 -1.1989 -0.4623  0.5749
  246MOL0     C32363   9.818   9.853  10.824  0.1093 -0.5854  0.5558
  246MOL0     O32364   9.816   9.839  10.962 -0.6943  0.1534 -0.0220
  246MOL0     C32365   9.756   9.732  11.014  0.4531  0.3365  0.0146
  246MOL0     C32366   9.672   9.644  10.941  0.3305 -0.4882 -0.3751
  246MOL0     C32367   9.619   9.529  10.995 -0.1829 -0.1003 -0.2528
  246MOL0     C32368   9.639   9.499  11.130 -0.6745  0.0566  0.1937
  246MOL0     C32369   9.598   9.375  11.188 -0.0299 -0.4403 -1.5517
  246MOL0     O32370   9.632   9.358  11.326  0.1854 -0.3873 -0.0366
  246MOL0     C32371   9.564   9.260  11.389  0.1692 -0.2655  0.1613
  246MOL0     C32372   9.515   9.274  11.518 -0.5163  0.5441 -0.2916
  246MOL0     C32373   9.470   9.169  11.602 -0.1567  0.2776 -0.0049
  246MOL0     C32374   9.477   9.037  11.554  0.8286 -0.0776  0.0008
  246MOL0     O32375   9.438   8.937  11.626 -0.3903  0.2061 -0.1409
  246MOL0     C32376   9.360   8.950  11.746 -0.6528 -0.5305  0.1475
  246MOL0     C32377   9.286   8.825  11.795  0.0858  0.3758  0.2418
  246MOL0     C32378   9.382   8.697  11.766  0.0603  0.4922 -0.4604
  246MOL0     C32379   9.332   8.567  11.822 -0.3819 -0.1770  0.4295
  246MOL0     C32380   9.326   8.569  11.972  0.6678  0.6440 -0.6397
  246MOL0     C32381   9.222   8.493  12.050 -0.2309  0.1024 -0.1288
  246MOL0     C32382   9.242   8.504  12.197  0.0626 -0.2676 -0.5757
  246MOL0     C32383   9.125   8.440  12.272  0.4044  0.4664  1.0963
  246MOL0    Cl32384   9.136   8.258  12.262  0.0866 -0.3455  0.3534
  246MOL0     C32385   9.521   9.016  11.425  0.2941  0.3993 -0.0908
  246MOL0     C32386   9.566   9.125  11.350 -0.1697 -0.1439  1.0146
  246MOL0     O32387   9.520   9.306  11.128  0.1842 -0.5124 -0.7559
  246MOL0     C32388   9.728   9.588  11.207  0.4550 -0.0894 -0.0368
  246MOL0     C32389   9.789   9.689  11.144  0.4549  0.7993 -0.4118
  246MOL0     N32390   9.499  10.273  10.684  0.0019 -0.0170 -0.8993
  246MOL0     N32391   9.513  10.390  10.731 -0.1442  0.0553  0.7098
  246MOL0     C32392  10.605  10.662  10.784 -0.6788  0.4475 -0.5185
  246MOL0     C32393  10.733  10.665  10.849  0.2184 -0.2743  0.4162
  246MOL0     C32394  11.052  10.625  11.144 -0.6801 -0.7592 -0.3795
  246MOL0     C32395  11.133  10.520  11.098  0.0572  0.8633  0.4600
  246MOL0     C32396  11.261  10.490  11.147 -0.8101  0.0509 -0.0386
  246MOL0     C32397  11.327  10.565  11.241  1.4018 -0.6904 -0.0756
  246MOL0     O32398  11.446  10.511  11.281 -0.7184  0.6790 -0.4845
  246MOL0     C32399  11.514  10.604  11.366  0.6101 -1.0125  0.1860
  246MOL0     C32400  11.662  10.570  11.406 -0.2681  0.4619  0.9647
  246MOL0     C32401  11.663  10.436  11.476 -0.6136  0.4933  0.2719
  246MOL0     C32402  11.796  10.404  11.543  1.0039  0.4804  0.2313
  246MOL0     C32403  11.912  10.455  11.474 -0.2031  0.3402  0.1574
  246MOL0     C32404  12.001  10.498  11.413 -0.4685 -0.3166  0.8034
  246MOL0     C32405  11.246  10.666  11.298 -0.2738  0.5051 -0.1293
  246MOL0     C32406  11.125  10.709  11.236 -0.1402 -0.5787 -0.0355
  246MOL0     H32407  10.684  10.392  11.044 -1.8229  0.8231  0.4769
  246MOL0     H32408  10.442  10.417  10.936 -0.7996  2.3918  1.7603
  246MOL0     H32409  10.385  10.717  10.612 -1.0546 -1.1252  0.1154
  246MOL0     H32410  10.315  10.772  10.777 -0.3092 -0.7744  1.2372
  246MOL0     H32411  10.186  10.611  10.558  0.2607  0.9913 -0.9060
  246MOL0     H32412  10.142  10.774  10.611 -2.1513 -0.8243  2.1724
  246MOL0     H32413  10.049  10.695  10.831 -2.5473 -1.7408  0.8835
  246MOL0     H32414  10.152  10.548  10.805  4.1205  2.1571 -1.3547
  246MOL0     H32415   9.909  10.656  10.641  0.9605  0.6253 -1.6554
  246MOL0     H32416   9.991  10.516  10.594 -1.0898  0.8905 -1.3680
  246MOL0     H32417   9.896  10.431  10.834  2.6342 -0.4371 -1.1061
  246MOL0     H32418   9.802  10.440  10.690  2.5067  0.1782 -1.6277
  246MOL0     H32419   9.681  10.631  10.767  1.4071 -1.1484 -2.0415
  246MOL0     H32420   9.805  10.705  10.860 -0.8939  0.5088  2.2637
  246MOL0     H32421   9.785  10.480  11.010 -0.9244 -1.3334  0.6602
  246MOL0     H32422   9.701  10.634  11.040  0.3522 -1.3972  0.9404
  246MOL0     H32423   9.518  10.593  10.916 -0.2222  0.4775 -0.7341
  246MOL0     H32424   9.524  10.490  11.047  0.0874  1.4891 -0.7153
  246MOL0     H32425   9.556  10.199  10.996  2.2530 -2.7849 -1.8775
  246MOL0     H32426   9.464  10.013  10.682 -0.1581 -1.0808 -0.1519
  246MOL0     H32427   9.361  10.023  10.822 -0.5410  0.8671 -0.1228
  246MOL0     H32428   9.534   9.845  10.834  4.0439 -2.0927 -1.3077
  246MOL0     H32429   9.583   9.966  10.959 -3.5184  0.7060  0.2403
  246MOL0     H32430   9.688   9.947  10.681  0.6755 -0.3396  0.1170
  246MOL0     H32431   9.756  10.056  10.803 -1.3430 -0.4368  0.8380
  246MOL0     H32432   9.908   9.893  10.778 -0.4611  0.4966  0.3401
  246MOL0     H32433   9.808   9.753  10.783 -0.2654 -1.2061  2.0759
  246MOL0     H32434   9.630   9.665  10.843 -3.3105 -0.0482  1.1489
  246MOL0     H32435   9.563   9.457  10.935 -1.3590  0.5475  0.0362
  246MOL0     H32436   9.515   9.372  11.565 -1.1828  0.1932  0.4811
  246MOL0     H32437   9.431   9.184  11.703  2.1149 -0.2438  1.0201
  246MOL0     H32438   9.285   9.029  11.733 -0.3853 -0.4206 -0.8290
  246MOL0     H32439   9.435   8.989  11.815  1.7218 -2.7313 -1.0017
  246MOL0     H32440   9.190   8.810  11.746  1.2075 -3.7808 -1.1228
  246MOL0     H32441   9.273   8.828  11.903  0.6208 -1.4113  0.3868
  246MOL0     H32442   9.481   8.714  11.807 -0.6284 -0.0900  1.5473
  246MOL0     H32443   9.411   8.690  11.660  0.9419 -1.0400 -0.1535
  246MOL0     H32444   9.235   8.539  11.779 -0.9898  4.3153 -1.6151
  246MOL0     H32445   9.394   8.481  11.794  0.3914  0.5352 -0.0595
  246MOL0     H32446   9.302   8.670  12.006  1.5469  0.6787 -0.0987
  246MOL0     H32447   9.425   8.531  11.998  0.1566 -0.9807 -0.9371
  246MOL0     H32448   9.194   8.396  12.008 -0.7332  0.4783 -0.6804
  246MOL0     H32449   9.136   8.554  12.022 -0.5552  1.7866  3.8859
  246MOL0     H32450   9.330   8.459  12.243 -0.2659  0.7812  1.1851
  246MOL0     H32451   9.242   8.609  12.229 -1.2011  0.4808 -2.8157
  246MOL0     H32452   9.026   8.478  12.244  0.2140 -0.7100  0.0690
  246MOL0     H32453   9.132   8.465  12.379  0.4346  1.3307  0.9004
  246MOL0     H32454   9.529   8.914  11.388 -0.3234 -0.4338  1.9012
  246MOL0     H32455   9.609   9.088  11.257  2.9110 -3.9861  3.6577
  246MOL0     H32456   9.754   9.571  11.311  1.1542 -2.0069 -0.4810
  246MOL0     H32457   9.866   9.734  11.206  4.9283 -3.0045 -2.5775
  246MOL0     H32458  10.585  10.735  10.706 -3.0519  0.8835  0.4007
  246MOL0     H32459  10.824  10.715  10.817  1.1669 -1.8988  0.4752
  246MOL0     H32460  11.096  10.451  11.022  0.3002  0.8823  0.3207
  246MOL0     H32461  11.307  10.401  11.104  0.6080  1.1782 -0.9427
  246MOL0     H32462  11.457  10.611  11.459 -1.8995  1.2263 -1.3947
  246MOL0     H32463  11.526  10.698  11.312 -2.7414  0.6015  2.0011
  246MOL0     H32464  11.727  10.561  11.318 -0.9904  1.0462  0.3443
  246MOL0     H32465  11.708  10.649  11.467 -2.3596  1.3452  1.4929
  246MOL0     H32466  11.648  10.355  11.404  2.3756 -0.6967  0.8323
  246MOL0     H32467  11.576  10.429  11.541 -0.8947  0.9453 -0.0463
  246MOL0     H32468  11.795  10.443  11.645  1.5578 -2.1077  1.3135
  246MOL0     H32469  11.806  10.295  11.542  2.7873  0.6022 -1.0513
  246MOL0     H32470  12.078  10.530  11.346 -0.0528 -1.8163  0.5249
  246MOL0     H32471  11.286  10.716  11.385  1.1561 -0.7203 -0.0421
  246MOL0     H32472  11.091  10.804  11.275  4.4952  1.0813  0.6184
  247MOL0     O32473   0.626   6.285   2.649  0.1186  0.9327 -0.1919
  247MOL0     C32474   0.650   6.167   2.671  0.1825 -0.3480 -0.6001
  247MOL0     O32475   0.589   6.063   2.606 -0.0407  0.8323 -0.9228
  247MOL0     C32476   0.520   6.087   2.490 -0.3864  0.4872  0.3442
  247MOL0     C32477   0.385   6.114   2.507  0.1254  0.7268  0.6294
  247MOL0     C32478   0.305   6.171   2.402 -1.1247  0.7907  1.0511
  247MOL0     C32479   0.359   6.157   2.270 -0.7153 -0.3215  0.4570
  247MOL0     O32480   0.293   6.206   2.159  0.1206 -0.1039 -0.5515
  247MOL0     C32481   0.154   6.177   2.129  0.3350  0.1054  0.6603
  247MOL0     C32482   0.116   6.207   1.983 -1.1682 -0.4103  0.6098
  247MOL0     C32483   0.107   6.362   1.958  0.4986 -0.2075 -0.5090
  247MOL0     C32484   0.043   6.380   1.825  0.5680  0.6229 -0.9142
  247MOL0     C32485   0.066   6.521   1.781  0.6425 -0.0778  0.2645
  247MOL0     C32486  -0.039   6.559   1.667  0.6781 -0.4024 -0.1951
  247MOL0     C32487  -0.000   6.498   1.524  0.4615 -0.3778 -0.6793
  247MOL0     C32488  -0.097   6.545   1.420  0.1589 -0.5551 -0.2458
  247MOL0     N32489  -0.083   6.482   1.288  0.6451  0.0656  0.0677
  247MOL0     C32490  -0.070   6.349   1.259  0.0267  0.7010 -0.6522
  247MOL0     C32491  -0.057   6.343   1.114 -1.0000  0.9350  0.5766
  247MOL0     C32492  -0.044   6.225   1.027 -0.3729  0.5035 -0.8087
  247MOL0     C32493   0.097   6.188   1.010 -0.4234 -0.2387  0.0994
  247MOL0     C32494   0.135   6.056   1.075 -0.2971 -0.0166  0.0618
  247MOL0     C32495   0.108   6.056   1.229  0.1396 -0.2670  0.4550
  247MOL0     O32496   0.208   5.966   1.273 -0.4847 -0.1418 -0.8218
  247MOL0     C32497   0.272   5.989   1.392 -0.2201  0.7904 -0.6206
  247MOL0     C32498   0.386   5.916   1.401 -0.2636 -0.2322 -0.2215
  247MOL0     C32499   0.459   5.925   1.517  0.3860  0.0032 -0.1610
  247MOL0     C32500   0.423   6.000   1.627 -0.2914  0.4158  0.6432
  247MOL0     C32501   0.512   5.999   1.751 -1.1804  0.1454  0.4071
  247MOL0     O32502   0.621   5.909   1.764  0.8486 -0.1018  0.3505
  247MOL0     C32503   0.718   5.926   1.873 -0.1902  0.0623  0.7412
  247MOL0     C32504   0.740   6.025   1.966  0.4063 -0.0185  0.8357
  247MOL0     C32505   0.854   6.020   2.050 -0.3836  0.4722  0.4948
  247MOL0     C32506   0.939   5.911   2.039  0.0925 -0.0608  0.3449
  247MOL0     O32507   1.039   5.914   2.139  0.0843  0.2408  0.6452
  247MOL0     C32508   1.065   5.786   2.189 -0.5610 -0.0421 -0.7376
  247MOL0     C32509   1.170   5.825   2.296  0.7814 -0.0162 -0.4354
  247MOL0     C32510   1.102   5.884   2.424 -0.0548 -0.2789  0.3677
  247MOL0     C32511   1.098   5.780   2.535  0.4171  0.4394  1.1239
  247MOL0     C32512   1.103   5.843   2.674 -0.5993  0.7447  0.2920
  247MOL0     C32513   1.149   5.747   2.782 -0.4091 -0.1367 -0.4034
  247MOL0     C32514   1.191   5.827   2.904  0.2507 -0.3645 -0.6751
  247MOL0     C32515   1.179   5.740   3.032  0.0268 -0.2030  0.2010
  247MOL0    Cl32516   1.311   5.603   3.038  0.3597  0.3082 -0.0836
  247MOL0     C32517   0.918   5.806   1.944 -0.4387 -0.1623 -0.7300
  247MOL0     C32518   0.810   5.814   1.868  0.8743 -0.3818 -0.0401
  247MOL0     O32519   0.468   6.063   1.846  0.1681  0.1805 -0.0030
  247MOL0     C32520   0.300   6.080   1.612 -0.3747  0.1813 -0.5647
  247MOL0     C32521   0.231   6.077   1.493  0.5941 -0.8639 -0.4306
  247MOL0     N32522  -0.052   6.469   1.077 -0.2141  0.4275 -0.1394
  247MOL0     N32523  -0.079   6.549   1.173  0.5544 -0.3106 -0.3150
  247MOL0     C32524   0.502   6.122   2.253  0.4543 -0.7630  1.0756
  247MOL0     C32525   0.576   6.085   2.361 -0.4780  0.8342  0.1911
  247MOL0     C32526   0.754   6.145   2.780 -0.6303  0.3793  1.0767
  247MOL0     C32527   0.742   6.037   2.866 -0.2530  0.2581  0.3997
  247MOL0     C32528   0.827   6.017   2.964 -0.8633 -0.5552 -0.3264
  247MOL0     C32529   0.938   6.099   2.986 -0.1254  0.2084  0.4761
  247MOL0     O32530   1.010   6.058   3.093 -0.2017 -0.3805  0.1392
  247MOL0     C32531   1.142   6.119   3.104  0.6867 -0.6915 -0.6029
  247MOL0     C32532   1.153   6.262   3.164  0.5152 -0.0934  1.0762
  247MOL0     C32533   1.145   6.277   3.320  0.2336  0.4475  0.5866
  247MOL0     C32534   1.249   6.225   3.417 -0.3050 -0.1983 -0.3853
  247MOL0     C32535   1.233   6.089   3.475  0.3431  0.6546 -1.3452
  247MOL0     C32536   1.215   5.976   3.512  0.1631  0.1863  0.2925
  247MOL0     C32537   0.945   6.215   2.905 -0.3545 -0.1999 -0.4459
  247MOL0     C32538   0.857   6.234   2.803  0.5142  0.4003  0.3330
  247MOL0     H32539   0.361   6.111   2.613  0.5756  0.0703  0.7221
  247MOL0     H32540   0.203   6.206   2.412 -0.5738  4.3034 -2.8611
  247MOL0     H32541   0.081   6.231   2.190  0.3575 -0.4881  1.2275
  247MOL0     H32542   0.110   6.077   2.137 -0.6707  0.3108 -1.6563
  247MOL0     H32543   0.015   6.170   1.966 -0.3471 -1.2306 -3.3885
  247MOL0     H32544   0.177   6.161   1.905 -0.2404 -0.2846  1.2422
  247MOL0     H32545   0.208   6.405   1.953  0.4730 -0.2968 -3.2393
  247MOL0     H32546   0.037   6.416   2.022  0.2007  0.0836 -1.0744
  247MOL0     H32547   0.080   6.305   1.754 -4.2391 -1.4470 -1.5791
  247MOL0     H32548  -0.063   6.363   1.845  0.6950  0.8534 -0.0152
  247MOL0     H32549   0.169   6.522   1.745  0.3324 -1.9928 -0.7622
  247MOL0     H32550   0.057   6.590   1.866  2.6516 -2.5657  2.7179
  247MOL0     H32551  -0.032   6.668   1.672 -1.0518 -0.3085  2.3092
  247MOL0     H32552  -0.139   6.522   1.693  1.7344 -4.3082 -1.0312
  247MOL0     H32553   0.101   6.532   1.503  2.7455 -3.2052  4.0198
  247MOL0     H32554  -0.001   6.390   1.546  2.6084 -0.3427 -0.2172
  247MOL0     H32555  -0.082   6.652   1.407 -4.4972  0.2485 -0.7992
  247MOL0     H32556  -0.197   6.532   1.461 -1.4303 -1.1536 -3.8716
  247MOL0     H32557  -0.071   6.267   1.330  1.2865  0.5503 -0.7821
  247MOL0     H32558  -0.090   6.244   0.929  0.0313 -0.4177 -1.1910
  247MOL0     H32559  -0.112   6.150   1.066  0.1328  0.8970  0.9118
  247MOL0     H32560   0.179   6.255   1.037 -0.2249 -0.1434 -0.6933
  247MOL0     H32561   0.123   6.176   0.904  1.3093  0.0582  0.4716
  247MOL0     H32562   0.096   5.973   1.015 -2.3223  0.9306  0.0011
  247MOL0     H32563   0.240   6.053   1.043 -0.4459 -1.0243 -0.3707
  247MOL0     H32564   0.006   6.026   1.254  0.0567 -2.1990 -1.8660
  247MOL0     H32565   0.135   6.157   1.261  3.8316 -1.4414  1.5530
  247MOL0     H32566   0.431   5.863   1.317  3.2938 -0.7902  1.8532
  247MOL0     H32567   0.553   5.877   1.540  1.4776  2.6010  1.3522
  247MOL0     H32568   0.683   6.117   1.971  1.3823  0.5254  3.0774
  247MOL0     H32569   0.879   6.104   2.115  0.0876  1.9994 -1.5542
  247MOL0     H32570   1.108   5.715   2.117 -1.5222 -3.6035  1.9035
  247MOL0     H32571   0.979   5.731   2.228  1.4422 -1.2734  2.3038
  247MOL0     H32572   1.237   5.901   2.254  1.4648  0.9775  2.2778
  247MOL0     H32573   1.231   5.738   2.322  0.8338  0.8205  2.5577
  247MOL0     H32574   1.013   5.943   2.402 -0.6745 -1.3843 -0.1900
  247MOL0     H32575   1.173   5.957   2.464 -1.2271  0.4988  1.0706
  247MOL0     H32576   1.018   5.706   2.519 -0.4639  1.6920 -0.6068
  247MOL0     H32577   1.196   5.731   2.531 -0.5148 -1.4978  0.7111
  247MOL0     H32578   0.997   5.867   2.686 -1.1981 -1.5620  0.1055
  247MOL0     H32579   1.160   5.936   2.669  0.5029  0.0749  0.1276
  247MOL0     H32580   1.235   5.684   2.757 -0.7966 -1.1927  0.8244
  247MOL0     H32581   1.071   5.680   2.818  1.5171 -0.8401  2.8693
  247MOL0     H32582   1.288   5.877   2.892  1.2731 -1.6403  1.4523
  247MOL0     H32583   1.115   5.905   2.911  1.6490  0.9691  0.2196
  247MOL0     H32584   1.078   5.702   3.048  0.6337 -1.7809  0.4951
  247MOL0     H32585   1.182   5.811   3.115 -0.2278  1.0092 -0.7932
  247MOL0     H32586   0.997   5.732   1.933  1.0202  1.4724 -1.7338
  247MOL0     H32587   0.810   5.740   1.789  1.4219 -0.5775  0.1393
  247MOL0     H32588   0.250   6.133   1.692 -1.2390 -1.6864  0.1949
  247MOL0     H32589   0.136   6.128   1.484  0.5589 -0.8379  0.0816
  247MOL0     H32590   0.543   6.124   2.152  0.4425 -1.7147  1.0376
  247MOL0     H32591   0.676   6.044   2.358 -0.7857  0.1204 -0.9853
  247MOL0     H32592   0.644   5.993   2.852 -0.0290 -0.5661  1.3008
  247MOL0     H32593   0.791   5.955   3.046  0.4571 -1.9077 -0.7368
  247MOL0     H32594   1.201   6.126   3.012  1.7417  2.1284  0.1761
  247MOL0     H32595   1.201   6.059   3.173  1.7010  0.3161 -0.5609
  247MOL0     H32596   1.252   6.294   3.132 -0.3389  0.1771 -1.4756
  247MOL0     H32597   1.070   6.320   3.124  0.4079 -0.7469  0.3445
  247MOL0     H32598   1.052   6.224   3.343 -1.1395  1.3464 -2.4375
  247MOL0     H32599   1.130   6.382   3.345 -1.9098  0.1538  0.7341
  247MOL0     H32600   1.344   6.236   3.365 -1.0387 -1.5256 -2.1031
  247MOL0     H32601   1.252   6.295   3.502 -1.2645 -0.3810 -0.1838
  247MOL0     H32602   1.199   5.870   3.520  0.8994  0.0992  0.7512
  247MOL0     H32603   1.019   6.293   2.921 -0.9378  0.2528  0.1004
  247MOL0     H32604   0.860   6.330   2.754  0.9423  3.1937  5.2429
  248MOL0     O32605   2.286  10.633  11.452 -0.0189  0.0444  0.6598
  248MOL0     C32606   2.377  10.710  11.411  0.0119  0.6044 -0.2875
  248MOL0     O32607   2.497  10.677  11.382 -0.0565  0.1516 -0.4653
  248MOL0     C32608   2.531  10.542  11.383 -0.0535 -1.1695 -0.0066
  248MOL0     C32609   2.527  10.461  11.271 -0.0369  0.1688  0.2470
  248MOL0     C32610   2.557  10.323  11.288  0.5243 -0.1941  0.0803
  248MOL0     C32611   2.597  10.270  11.410  0.1215 -0.3955  0.0457
  248MOL0     O32612   2.623  10.145  11.424  0.9545  0.7242 -0.7981
  248MOL0     C32613   2.752  10.116  11.474  0.0693  0.6694  0.9637
  248MOL0     C32614   2.770   9.958  11.484 -0.1093 -0.0428  0.3495
  248MOL0     C32615   2.814   9.899  11.341 -0.2804 -0.8992  0.2341
  248MOL0     C32616   2.820   9.743  11.325 -0.0714 -0.6007  0.0958
  248MOL0     C32617   2.692   9.671  11.308  0.0647 -0.9557 -0.2727
  248MOL0     C32618   2.627   9.703  11.167 -0.0804  0.1231  0.0115
  248MOL0     C32619   2.504   9.625  11.141  0.8183 -0.1991  0.2246
  248MOL0     C32620   2.448   9.619  10.997  0.1538 -0.2307  0.6311
  248MOL0     N32621   2.420   9.748  10.934  0.2825  0.6649  0.7435
  248MOL0     C32622   2.505   9.836  10.889 -0.2125 -0.3328  0.1520
  248MOL0     C32623   2.430   9.944  10.846 -0.1406  0.1100  0.0389
  248MOL0     C32624   2.480  10.073  10.792  0.9710  0.2659  0.1598
  248MOL0     C32625   2.602  10.124  10.859 -0.8487  0.0903  0.0520
  248MOL0     C32626   2.629  10.257  10.780  0.3535 -0.1516 -0.6088
  248MOL0     C32627   2.657  10.377  10.877  1.0941 -0.1458 -0.1298
  248MOL0     O32628   2.724  10.341  11.002 -0.1786 -0.2454  0.2452
  248MOL0     C32629   2.781  10.443  11.080  0.4452 -0.7493  1.2821
  248MOL0     C32630   2.748  10.583  11.070  0.0137 -0.6464 -0.2255
  248MOL0     C32631   2.791  10.672  11.157 -0.6507 -0.5876  0.2789
  248MOL0     C32632   2.873  10.634  11.276  0.2736 -0.3527  1.1516
  248MOL0     C32633   2.909  10.729  11.382  0.5410  0.0694  0.1064
  248MOL0     O32634   2.815  10.825  11.389 -0.6038  0.5473 -0.0631
  248MOL0     C32635   2.838  10.937  11.470  0.1408  0.3019 -0.2013
  248MOL0     C32636   2.870  10.933  11.608 -1.0172  0.4513 -0.4494
  248MOL0     C32637   2.860  11.047  11.684 -0.4234  0.0730 -1.1155
  248MOL0     C32638   2.831  11.171  11.619  0.7153 -0.0669 -1.2533
  248MOL0     O32639   2.829  11.293  11.690  0.0299 -0.3485 -0.1293
  248MOL0     C32640   2.921  11.297  11.804  0.0897  0.9609  0.0955
  248MOL0     C32641   3.067  11.271  11.761 -0.7710  0.8479 -0.6457
  248MOL0     C32642   3.159  11.272  11.888  0.2626  0.7697  1.1663
  248MOL0     C32643   3.304  11.233  11.871  0.3157  0.3986  0.1419
  248MOL0     C32644   3.384  11.265  12.001  0.1070 -0.3715 -0.7808
  248MOL0     C32645   3.366  11.161  12.111 -0.4797  1.5649  0.4552
  248MOL0     C32646   3.430  11.202  12.235  0.6800  0.6547 -1.4503
  248MOL0     C32647   3.367  11.334  12.287  0.0910  0.3874  0.2607
  248MOL0    Cl32648   3.490  11.462  12.236  0.1758 -0.4555  0.1653
  248MOL0     C32649   2.794  11.174  11.487  0.2039 -0.0693  0.4619
  248MOL0     C32650   2.796  11.055  11.412 -0.1995 -0.2247  0.2345
  248MOL0     O32651   3.002  10.719  11.457  0.0457 -0.0941  0.5013
  248MOL0     C32652   2.904  10.501  11.294 -0.4789 -0.3572  0.6259
  248MOL0     C32653   2.862  10.411  11.180  1.0611 -0.5255  1.1992
  248MOL0     N32654   2.293   9.909  10.862  0.0139 -0.4371  0.4673
  248MOL0     N32655   2.289   9.791  10.906  0.0091 -0.2809 -0.1480
  248MOL0     C32656   2.605  10.350  11.524  0.7677 -1.2500 -0.2170
  248MOL0     C32657   2.577  10.486  11.511  0.6195  0.2578 -0.9196
  248MOL0     C32658   2.343  10.851  11.386  0.7310  0.2635  0.3663
  248MOL0     C32659   2.440  10.938  11.328 -0.0565 -0.4099  0.7381
  248MOL0     C32660   2.413  11.075  11.315  0.1496 -0.3890  0.0590
  248MOL0     C32661   2.286  11.132  11.342  0.3076  0.4081  0.1130
  248MOL0     O32662   2.275  11.261  11.312 -0.3920 -0.0133 -0.3259
  248MOL0     C32663   2.154  11.324  11.354 -0.2284 -0.5738 -0.6695
  248MOL0     C32664   2.139  11.455  11.293 -0.3980 -0.2820  0.1162
  248MOL0     C32665   1.999  11.500  11.314  0.1774  0.5192  0.3192
  248MOL0     C32666   1.979  11.636  11.229 -0.8232 -0.2698 -0.6703
  248MOL0     C32667   2.011  11.619  11.089  0.1910 -0.3157  0.3506
  248MOL0     C32668   2.038  11.610  10.970 -0.1652  0.1391  0.0161
  248MOL0     C32669   2.188  11.046  11.416 -0.8230 -0.3396  0.4825
  248MOL0     C32670   2.219  10.905  11.432  0.3287 -0.0890 -0.2537
  248MOL0     H32671   2.499  10.495  11.171 -0.9090 -4.0920 -1.1777
  248MOL0     H32672   2.538  10.258  11.204  0.2744 -2.7088  1.9624
  248MOL0     H32673   2.776  10.171  11.566 -1.7309  0.4565  1.6198
  248MOL0     H32674   2.827  10.134  11.397  0.2325 -2.5615  0.2187
  248MOL0     H32675   2.679   9.916  11.528  0.8438  1.2152  3.8126
  248MOL0     H32676   2.844   9.929  11.559  0.6582 -0.8013 -0.6611
  248MOL0     H32677   2.917   9.931  11.326  1.2651 -1.9341  5.9959
  248MOL0     H32678   2.758   9.940  11.257  3.7084  0.7905 -1.8861
  248MOL0     H32679   2.881   9.722  11.237 -0.6801 -0.0902 -0.4643
  248MOL0     H32680   2.890   9.700  11.397 -0.6711 -0.4451  0.7881
  248MOL0     H32681   2.629   9.694  11.395  1.2476 -0.2161  0.4088
  248MOL0     H32682   2.707   9.563  11.307 -2.3203 -1.3429 -1.0746
  248MOL0     H32683   2.694   9.689  11.082 -2.2447 -2.7053 -1.3925
  248MOL0     H32684   2.609   9.811  11.162 -2.3229 -0.1124  1.5130
  248MOL0     H32685   2.506   9.526  11.189 -1.6747  0.1192  1.1559
  248MOL0     H32686   2.420   9.675  11.191  0.0093 -1.2289 -0.0508
  248MOL0     H32687   2.367   9.545  10.992  0.4227 -0.6477  2.0321
  248MOL0     H32688   2.527   9.578  10.933  1.4299 -1.6743  3.0049
  248MOL0     H32689   2.613   9.829  10.900 -0.0985  0.9412  0.0753
  248MOL0     H32690   2.397  10.140  10.817 -0.1587 -1.1715  0.4354
  248MOL0     H32691   2.501  10.059  10.686  1.8111 -1.3316  0.5077
  248MOL0     H32692   2.686  10.056  10.844 -1.7879 -1.3817  1.2142
  248MOL0     H32693   2.592  10.138  10.967  5.6545 -1.3546  1.2211
  248MOL0     H32694   2.722  10.242  10.724  0.3638 -0.8505 -0.4175
  248MOL0     H32695   2.546  10.284  10.715 -1.3433  0.1851  1.5858
  248MOL0     H32696   2.564  10.423  10.912  2.8035  5.7862 -2.2647
  248MOL0     H32697   2.709  10.459  10.825  0.7233  0.1469 -0.0431
  248MOL0     H32698   2.684  10.612  10.988 -0.1751 -2.0526 -0.5954
  248MOL0     H32699   2.765  10.777  11.153  2.4312  0.2510 -0.2855
  248MOL0     H32700   2.907  10.843  11.657 -3.2475  1.3884  3.4408
  248MOL0     H32701   2.875  11.046  11.791 -0.1308  2.8614 -1.0533
  248MOL0     H32702   2.879  11.232  11.881 -1.0466 -0.1182 -1.3592
  248MOL0     H32703   2.918  11.399  11.843 -3.4033  2.3448 -3.1430
  248MOL0     H32704   3.098  11.358  11.703 -2.6921  2.2782  0.3354
  248MOL0     H32705   3.089  11.178  11.708 -0.2828 -0.2007  1.3076
  248MOL0     H32706   3.105  11.203  11.953  0.4248 -1.0113 -0.5105
  248MOL0     H32707   3.146  11.370  11.936 -1.9971  1.4921 -0.6849
  248MOL0     H32708   3.302  11.127  11.845  0.8615  0.4997 -0.3335
  248MOL0     H32709   3.363  11.275  11.788  0.0610  0.9897  0.2503
  248MOL0     H32710   3.350  11.362  12.038 -2.6760 -1.7714  0.6763
  248MOL0     H32711   3.492  11.267  11.983  0.8565  2.0619  2.7800
  248MOL0     H32712   3.400  11.065  12.071 -2.7152  0.2733  1.4774
  248MOL0     H32713   3.263  11.133  12.134 -1.5364  0.9884 -3.9274
  248MOL0     H32714   3.408  11.120  12.304  0.2520 -0.3415 -2.7187
  248MOL0     H32715   3.538  11.203  12.224  0.6469 -0.2289 -1.9243
  248MOL0     H32716   3.364  11.315  12.394  0.9087 -1.9441 -0.0624
  248MOL0     H32717   3.273  11.344  12.231  1.0688  2.3360 -1.1226
  248MOL0     H32718   2.755  11.266  11.446  1.2516  1.1080  2.0259
  248MOL0     H32719   2.762  11.046  11.310 -1.0187 -1.3737  0.5903
  248MOL0     H32720   2.960  10.465  11.379  3.3620  0.1356 -1.4349
  248MOL0     H32721   2.890  10.307  11.170 -2.8121 -1.5548 -1.1898
  248MOL0     H32722   2.648  10.306  11.614  0.7045 -1.1406 -0.1332
  248MOL0     H32723   2.585  10.543  11.603  0.3032  0.1892 -0.8469
  248MOL0     H32724   2.532  10.887  11.302 -1.8421 -3.8269  0.5209
  248MOL0     H32725   2.488  11.138  11.270  0.1696  0.7535  1.5963
  248MOL0     H32726   2.144  11.331  11.463 -1.6320  0.2308 -0.8237
  248MOL0     H32727   2.075  11.258  11.319 -0.8978 -0.9228  1.3874
  248MOL0     H32728   2.209  11.519  11.348 -0.3303 -1.9887  2.1310
  248MOL0     H32729   2.168  11.452  11.187  0.4698  0.0586  0.3370
  248MOL0     H32730   1.976  11.516  11.420 -1.4525 -0.4518  0.1474
  248MOL0     H32731   1.929  11.424  11.277  2.2128 -1.4816  0.3395
  248MOL0     H32732   1.880  11.682  11.233 -1.3270 -1.4121  1.9102
  248MOL0     H32733   2.043  11.716  11.266 -2.7322  2.6214 -3.1291
  248MOL0     H32734   2.071  11.592  10.869 -0.5352 -2.4916  0.3079
  248MOL0     H32735   2.105  11.084  11.474  0.7787 -1.1117  3.4641
  248MOL0     H32736   2.147  10.851  11.493 -0.9091 -0.0628 -1.6500
  249MOL0     O32737   3.619  10.274   8.356 -0.1153  0.6138  0.6540
  249MOL0     C32738   3.594  10.175   8.295  0.0642  0.3046  0.6341
  249MOL0     O32739   3.473  10.154   8.218  0.3024 -0.3159 -0.7074
  249MOL0     C32740   3.387  10.256   8.220 -0.0221 -0.9456  0.0544
  249MOL0     C32741   3.292  10.261   8.312 -0.1859 -0.3788  0.5222
  249MOL0     C32742   3.209  10.374   8.323 -0.2053  0.6390  0.9480
  249MOL0     C32743   3.223  10.484   8.243  0.5230  0.0431  0.3892
  249MOL0     O32744   3.147  10.595   8.258  0.1299 -1.0044  0.4013
  249MOL0     C32745   3.160  10.711   8.174  0.0922  0.0020 -0.0309
  249MOL0     C32746   3.075  10.690   8.049  1.3487  0.3624 -0.1735
  249MOL0     C32747   2.927  10.692   8.091 -0.2155 -0.2187  0.2855
  249MOL0     C32748   2.851  10.622   7.986  0.6494 -0.4763  0.2832
  249MOL0     C32749   2.696  10.645   7.989 -0.4840 -0.3636 -0.6686
  249MOL0     C32750   2.623  10.584   7.868 -0.1891  0.0519 -0.7881
  249MOL0     C32751   2.476  10.621   7.869 -0.3434  0.2099 -1.3762
  249MOL0     C32752   2.399  10.534   7.965  1.1466  0.0069 -0.7047
  249MOL0     N32753   2.282  10.475   7.899 -0.2398 -0.0500  0.3372
  249MOL0     C32754   2.165  10.524   7.854  0.0468 -0.2386  0.3926
  249MOL0     C32755   2.085  10.428   7.805 -0.3015 -0.3431 -0.5903
  249MOL0     C32756   1.943  10.436   7.766  0.6422  0.5415  0.5917
  249MOL0     C32757   1.893  10.306   7.690 -0.1028 -0.3147  0.7051
  249MOL0     C32758   1.771  10.230   7.750 -0.9907  0.0736  0.0698
  249MOL0     C32759   1.640  10.289   7.726  0.3176  0.1251 -0.2695
  249MOL0     O32760   1.627  10.427   7.775  0.0191 -0.1869 -0.1933
  249MOL0     C32761   1.508  10.489   7.754 -1.8553 -0.5576 -0.0231
  249MOL0     C32762   1.383  10.439   7.719 -0.4138 -0.0808 -0.2279
  249MOL0     C32763   1.278  10.525   7.691  0.1298  0.0019 -1.4234
  249MOL0     C32764   1.295  10.666   7.684  0.1747  0.3571 -0.1071
  249MOL0     C32765   1.201  10.757   7.637  1.0902 -0.7223  0.5317
  249MOL0     O32766   1.226  10.882   7.668  0.3979 -0.0510  0.0079
  249MOL0     C32767   1.152  10.996   7.650  0.7877 -0.1770  0.5323
  249MOL0     C32768   1.195  11.100   7.737  0.2133 -0.0972  0.2612
  249MOL0     C32769   1.125  11.221   7.743  0.3169 -0.2470 -0.5942
  249MOL0     C32770   1.013  11.239   7.666 -0.3162 -1.1862  0.7507
  249MOL0     O32771   0.952  11.357   7.680  0.3123 -1.0478  0.7032
  249MOL0     C32772   0.840  11.348   7.767  0.5787 -0.1247 -0.2252
  249MOL0     C32773   0.735  11.467   7.744 -0.4391 -0.5900 -0.0973
  249MOL0     C32774   0.707  11.498   7.598  0.1572  1.4294  0.2300
  249MOL0     C32775   0.626  11.375   7.533  0.3092 -1.1731 -0.5469
  249MOL0     C32776   0.485  11.379   7.586  0.1723  0.2255 -0.3108
  249MOL0     C32777   0.391  11.289   7.516 -0.1153  0.2286 -1.3248
  249MOL0     C32778   0.307  11.188   7.619  0.6426  0.4903  0.6728
  249MOL0     C32779   0.193  11.110   7.560  0.1566  0.4802  0.4099
  249MOL0    Cl32780   0.225  11.054   7.386 -0.6181 -0.1760 -0.1678
  249MOL0     C32781   0.972  11.140   7.575  1.0604 -0.6787 -0.0990
  249MOL0     C32782   1.042  11.021   7.572 -0.4918 -0.5699  1.1231
  249MOL0     O32783   1.093  10.723   7.600 -0.2220  0.0558 -0.4575
  249MOL0     C32784   1.422  10.714   7.733  0.5279 -1.0964 -0.3421
  249MOL0     C32785   1.528  10.625   7.771  0.3307 -0.3035 -0.0088
  249MOL0     N32786   2.163  10.312   7.815 -0.1531 -0.2143 -1.1578
  249MOL0     N32787   2.282  10.343   7.863 -0.5830  0.2717 -0.1585
  249MOL0     C32788   3.309  10.471   8.137 -0.5185 -0.6932 -0.1060
  249MOL0     C32789   3.404  10.359   8.129 -0.2048 -0.0774  0.8477
  249MOL0     C32790   3.700  10.069   8.317 -0.3541  0.3238 -0.2618
  249MOL0     C32791   3.684   9.948   8.245 -0.2635  0.0655 -0.0548
  249MOL0     C32792   3.766   9.846   8.273 -0.4077  0.5600  0.1555
  249MOL0     C32793   3.876   9.861   8.350  0.8301  0.1243 -0.4639
  249MOL0     O32794   3.945   9.745   8.394  0.1583  0.0238 -0.4201
  249MOL0     C32795   3.928   9.703   8.532 -0.6318 -0.0806  0.2595
  249MOL0     C32796   4.069   9.655   8.583  0.1784 -0.4851  0.2454
  249MOL0     C32797   4.121   9.560   8.479 -0.0980  0.2724  0.6040
  249MOL0     C32798   4.043   9.431   8.460  0.6642 -0.2119  0.1453
  249MOL0     C32799   4.045   9.338   8.567 -0.3601 -0.1247  0.8217
  249MOL0     C32800   4.034   9.267   8.667  0.3547  0.3481  0.4064
  249MOL0     C32801   3.905   9.988   8.401  1.1362  0.0380 -0.1535
  249MOL0     C32802   3.807  10.087   8.407  1.3585  0.0513 -0.8394
  249MOL0     H32803   3.282  10.185   8.389 -0.2765 -0.4569  0.4333
  249MOL0     H32804   3.149  10.391   8.412 -1.3608 -3.7335  1.2282
  249MOL0     H32805   3.266  10.730   8.159  0.1873 -0.2839  0.2661
  249MOL0     H32806   3.120  10.798   8.227 -1.5690 -0.7810  0.0670
  249MOL0     H32807   3.093  10.595   7.999 -0.1224 -0.5075  0.8862
  249MOL0     H32808   3.097  10.771   7.978 -2.0061  2.8632  1.3761
  249MOL0     H32809   2.897  10.796   8.109  1.3458  0.7022 -1.9530
  249MOL0     H32810   2.920  10.643   8.188  1.6880 -0.4164  0.3685
  249MOL0     H32811   2.888  10.645   7.886  0.0190 -3.4477 -0.7249
  249MOL0     H32812   2.880  10.517   7.993  2.4057  0.0375  1.5801
  249MOL0     H32813   2.684  10.753   7.995 -2.0357 -0.6120  2.1252
  249MOL0     H32814   2.656  10.609   8.084  0.2250 -1.9541 -0.9402
  249MOL0     H32815   2.641  10.477   7.858 -2.0540 -0.3032 -0.6457
  249MOL0     H32816   2.670  10.628   7.779 -0.9391  0.5909 -0.9353
  249MOL0     H32817   2.468  10.727   7.896 -3.0632 -0.7761  2.5969
  249MOL0     H32818   2.448  10.607   7.764  0.2447 -3.2266 -1.1661
  249MOL0     H32819   2.357  10.599   8.043  2.8329 -0.3322  0.5508
  249MOL0     H32820   2.459  10.461   8.019 -1.9430  1.0696  4.9870
  249MOL0     H32821   2.137  10.629   7.855  1.0442  0.0361  1.1415
  249MOL0     H32822   1.935  10.534   7.719 -2.6150  1.0883  1.9927
  249MOL0     H32823   1.885  10.427   7.859  0.8139  0.1547  0.6630
  249MOL0     H32824   1.979  10.238   7.682 -0.3626 -0.6546  0.7327
  249MOL0     H32825   1.862  10.332   7.588  1.6005 -0.8699  0.0005
  249MOL0     H32826   1.773  10.130   7.704  1.9615  0.6568 -1.3346
  249MOL0     H32827   1.788  10.208   7.856  1.2862 -1.8001 -0.5781
  249MOL0     H32828   1.567  10.221   7.770 -0.2267  1.2799  0.6887
  249MOL0     H32829   1.630  10.290   7.617  2.2138 -3.0874 -0.5952
  249MOL0     H32830   1.371  10.332   7.702  0.1480  0.1720 -2.7449
  249MOL0     H32831   1.190  10.475   7.652  0.9597 -1.8160 -1.1072
  249MOL0     H32832   1.286  11.093   7.795 -1.4815 -1.8992  2.8845
  249MOL0     H32833   1.146  11.290   7.824 -1.3881  0.5869 -0.8090
  249MOL0     H32834   0.879  11.346   7.869 -1.7789  0.3880  0.7659
  249MOL0     H32835   0.794  11.249   7.754  2.6556 -1.4569  1.8314
  249MOL0     H32836   0.779  11.557   7.788  0.0300  0.3159 -2.2961
  249MOL0     H32837   0.644  11.431   7.793 -1.3178  0.7119 -0.7339
  249MOL0     H32838   0.796  11.523   7.539 -0.7196  1.1053 -1.2934
  249MOL0     H32839   0.650  11.590   7.583 -2.7025 -0.4196 -1.4066
  249MOL0     H32840   0.621  11.384   7.424 -1.3569 -2.2037 -0.5828
  249MOL0     H32841   0.689  11.287   7.550  3.1714  1.1008  1.7538
  249MOL0     H32842   0.442  11.475   7.614  0.8888  0.7916 -1.1086
  249MOL0     H32843   0.497  11.331   7.684 -2.5760  1.6395  0.8285
  249MOL0     H32844   0.456  11.213   7.470  1.1808 -0.5290  1.5517
  249MOL0     H32845   0.329  11.339   7.441  0.9318  1.4810 -1.3888
  249MOL0     H32846   0.364  11.097   7.641 -1.7102 -1.4829 -0.8921
  249MOL0     H32847   0.289  11.235   7.716  4.8410  2.6064  0.6703
  249MOL0     H32848   0.102  11.171   7.553 -1.6976 -2.1002  0.7358
  249MOL0     H32849   0.171  11.023   7.622  0.9386 -0.8726 -1.1140
  249MOL0     H32850   0.875  11.149   7.527 -0.2885  0.8854  2.6871
  249MOL0     H32851   0.991  10.936   7.527  2.8150 -2.7822  1.2264
  249MOL0     H32852   1.448  10.819   7.734 -0.0011 -0.8410  4.0427
  249MOL0     H32853   1.623  10.667   7.802 -0.0896 -0.3367  1.4084
  249MOL0     H32854   3.323  10.544   8.058  2.8493 -1.7840 -0.6919
  249MOL0     H32855   3.491  10.364   8.065  0.4248  2.5433  1.8079
  249MOL0     H32856   3.603   9.940   8.173  0.3739  0.3781 -0.8217
  249MOL0     H32857   3.750   9.753   8.220  0.5835  0.4741 -0.0120
  249MOL0     H32858   3.866   9.613   8.525  0.0930 -0.4842 -1.1321
  249MOL0     H32859   3.872   9.770   8.599 -0.8971  0.2876 -0.3266
  249MOL0     H32860   4.141   9.733   8.607  1.1932 -1.5937  0.8839
  249MOL0     H32861   4.068   9.600   8.677  1.4162 -2.9898 -1.1286
  249MOL0     H32862   4.222   9.538   8.515  0.2558 -0.3644 -0.7048
  249MOL0     H32863   4.141   9.613   8.386  1.1973 -0.0606  0.6583
  249MOL0     H32864   3.939   9.442   8.431 -0.0067 -2.6762  1.4023
  249MOL0     H32865   4.083   9.365   8.383 -2.2656 -1.3051 -0.5426
  249MOL0     H32866   4.017   9.213   8.758  1.7387  0.2964  0.6551
  249MOL0     H32867   3.992   9.994   8.466  1.8064 -1.8005 -0.8143
  249MOL0     H32868   3.814  10.166   8.481 -3.4634 -1.7855  2.0386
  250MOL0     O32869   0.410   9.473   0.580  0.3411 -0.1018  0.1788
  250MOL0     C32870   0.310   9.419   0.530  0.1885  0.3694  0.7176
  250MOL0     O32871   0.217   9.359   0.598  0.0672  0.1578 -0.5045
  250MOL0     C32872   0.233   9.219   0.585  0.0585 -0.1323  0.3418
  250MOL0     C32873   0.117   9.148   0.622 -0.1840 -0.3260  0.1998
  250MOL0     C32874   0.115   9.009   0.614  1.4046  0.5822  0.4599
  250MOL0     C32875   0.226   8.933   0.586 -0.3820 -0.4687  1.0629
  250MOL0     O32876   0.209   8.798   0.571  0.2017 -0.2396 -0.4264
  250MOL0     C32877   0.305   8.704   0.604 -0.2961  0.3424 -1.0496
  250MOL0     C32878   0.302   8.592   0.506 -0.0426 -0.1399 -1.0780
  250MOL0     C32879   0.378   8.467   0.559 -0.0008  0.1891 -0.1505
  250MOL0     C32880   0.318   8.337   0.510 -0.0468 -0.8688  0.3004
  250MOL0     C32881   0.389   8.225   0.586 -0.0408 -0.3626  0.7925
  250MOL0     C32882   0.356   8.224   0.731  0.6645 -1.4108 -0.0336
  250MOL0     C32883   0.408   8.090   0.788  0.6704 -1.0251  0.2581
  250MOL0     C32884   0.347   8.057   0.931 -0.2913  0.0528 -0.5925
  250MOL0     N32885   0.414   7.932   0.959  0.2656  0.9191  0.0777
  250MOL0     C32886   0.504   7.905   1.059 -0.1974 -0.0168  0.4995
  250MOL0     C32887   0.546   7.780   1.042  1.1113 -0.6352 -0.0191
  250MOL0     C32888   0.659   7.711   1.113 -0.5662  0.1760  0.9191
  250MOL0     C32889   0.653   7.634   1.247  0.7440  0.1837  0.0385
  250MOL0     C32890   0.560   7.515   1.256 -0.3817  0.0865  0.1039
  250MOL0     C32891   0.585   7.452   1.398 -0.1521  0.9594  1.2001
  250MOL0     O32892   0.514   7.324   1.415 -0.2914  0.1894  0.4789
  250MOL0     C32893   0.392   7.310   1.478 -0.1371 -0.4022  0.8556
  250MOL0     C32894   0.383   7.247   1.605 -0.3082  0.3136  0.5226
  250MOL0     C32895   0.254   7.231   1.661 -0.1320  0.1005  0.5094
  250MOL0     C32896   0.134   7.286   1.601 -0.6192  0.6208  0.3190
  250MOL0     C32897   0.006   7.260   1.665  0.6831 -0.0361  0.5046
  250MOL0     O32898   0.004   7.209   1.790  0.5851  0.0042 -0.0442
  250MOL0     C32899  -0.121   7.176   1.839  0.5009  0.2686  0.7851
  250MOL0     C32900  -0.224   7.271   1.840  1.0101 -0.0206 -0.0399
  250MOL0     C32901  -0.348   7.239   1.904 -0.2142  0.2831 -0.7383
  250MOL0     C32902  -0.372   7.110   1.955  0.3287  0.7718  0.0203
  250MOL0     O32903  -0.497   7.082   2.000  0.9628 -1.7055 -0.2677
  250MOL0     C32904  -0.562   6.964   1.982 -0.2077  0.3646 -0.2726
  250MOL0     C32905  -0.650   6.971   1.865  0.2384 -1.0836 -0.0754
  250MOL0     C32906  -0.674   6.820   1.807  0.0944  0.2207 -0.5539
  250MOL0     C32907  -0.785   6.832   1.696  0.0970  0.2182 -0.1492
  250MOL0     C32908  -0.910   6.780   1.767 -0.1263 -1.0142 -0.7316
  250MOL0     C32909  -1.038   6.801   1.685 -0.4144 -0.1798 -0.1790
  250MOL0     C32910  -1.171   6.812   1.758  0.7290 -0.1395  0.2072
  250MOL0     C32911  -1.292   6.827   1.656 -0.2425 -0.2140 -1.3456
  250MOL0    Cl32912  -1.330   6.674   1.575 -0.1701 -0.1167  0.1086
  250MOL0     C32913  -0.263   7.009   1.932 -0.9978 -0.5702 -0.1903
  250MOL0     C32914  -0.146   7.048   1.876 -0.7966 -0.6062  0.1497
  250MOL0     O32915  -0.092   7.271   1.589  0.8129  0.3177  0.2161
  250MOL0     C32916   0.148   7.356   1.484  0.4100 -0.9165 -0.1418
  250MOL0     C32917   0.277   7.373   1.424 -0.4115 -0.6716  0.3695
  250MOL0     N32918   0.475   7.723   0.941  0.1485 -0.2771  1.3170
  250MOL0     N32919   0.398   7.811   0.891 -0.0006 -0.3247  0.5143
  250MOL0     C32920   0.345   9.007   0.546 -0.2803 -1.1067 -0.7803
  250MOL0     C32921   0.346   9.146   0.554  0.1155 -1.6321 -0.4914
  250MOL0     C32922   0.296   9.443   0.385 -0.5212  0.3815 -0.6829
  250MOL0     C32923   0.331   9.554   0.320 -0.7484 -0.3562  0.5585
  250MOL0     C32924   0.301   9.577   0.185  0.3699 -0.2145  0.4644
  250MOL0     C32925   0.252   9.471   0.104  0.2759 -0.4689 -0.9779
  250MOL0     O32926   0.226   9.474  -0.025  0.0615 -0.1174  0.4678
  250MOL0     C32927   0.209   9.598  -0.096 -0.8967 -0.7074 -0.2358
  250MOL0     C32928   0.145   9.578  -0.237 -1.5349 -0.0428 -0.2825
  250MOL0     C32929   0.052   9.687  -0.281 -0.4047 -0.7328  0.5118
  250MOL0     C32930  -0.087   9.698  -0.219  1.0671  0.3068  0.4373
  250MOL0     C32931  -0.185   9.691  -0.319 -0.3901 -0.1762 -0.4063
  250MOL0     C32932  -0.272   9.683  -0.393  0.2769 -0.1316  0.6232
  250MOL0     C32933   0.215   9.357   0.171  0.0993  0.2006  1.0445
  250MOL0     C32934   0.230   9.343   0.304 -0.2700 -0.5316 -0.0281
  250MOL0     H32935   0.029   9.205   0.650 -1.9269 -3.0227  0.7079
  250MOL0     H32936   0.025   8.952   0.633  0.9764  1.7905  2.2885
  250MOL0     H32937   0.281   8.665   0.703  2.3314 -1.8630 -1.1436
  250MOL0     H32938   0.409   8.737   0.610  0.3715 -1.6674 -0.8072
  250MOL0     H32939   0.346   8.623   0.411 -0.8628  0.2295 -1.3403
  250MOL0     H32940   0.195   8.577   0.496 -0.1691 -2.8715  2.4356
  250MOL0     H32941   0.375   8.478   0.667  1.0713 -0.1805 -0.0722
  250MOL0     H32942   0.484   8.477   0.531 -0.1907  1.5671 -0.4702
  250MOL0     H32943   0.210   8.343   0.525  0.0436  3.4182  0.5855
  250MOL0     H32944   0.347   8.336   0.404  2.6115  0.4409  0.9454
  250MOL0     H32945   0.498   8.234   0.576 -0.1399  0.3770  0.3353
  250MOL0     H32946   0.361   8.135   0.531  1.6889  0.6504 -1.9583
  250MOL0     H32947   0.247   8.228   0.730  0.6658  0.1188  1.3254
  250MOL0     H32948   0.396   8.316   0.774  0.6829  1.2197 -4.9886
  250MOL0     H32949   0.387   8.005   0.723  0.2131 -1.3204  0.7837
  250MOL0     H32950   0.517   8.095   0.783  0.5708  0.9557 -3.2744
  250MOL0     H32951   0.238   8.045   0.921 -0.3763  1.7768 -2.3104
  250MOL0     H32952   0.379   8.128   1.007  1.7258 -0.5521 -0.8385
  250MOL0     H32953   0.551   7.975   1.127  1.0222  0.5315 -0.8614
  250MOL0     H32954   0.743   7.779   1.130  0.2943 -0.6522  0.1157
  250MOL0     H32955   0.698   7.642   1.037 -0.8689  1.1631 -0.1603
  250MOL0     H32956   0.636   7.711   1.323 -3.7972 -0.8169  0.3419
  250MOL0     H32957   0.752   7.593   1.268  0.0580 -0.3994  2.3549
  250MOL0     H32958   0.457   7.549   1.237 -0.6871 -0.6973  0.3225
  250MOL0     H32959   0.576   7.441   1.178 -0.0926  1.0199 -0.7517
  250MOL0     H32960   0.554   7.516   1.481 -3.4450 -2.0567  2.5733
  250MOL0     H32961   0.691   7.431   1.409 -0.1862 -0.1202 -0.2724
  250MOL0     H32962   0.477   7.223   1.655  0.0181 -0.6516 -0.5058
  250MOL0     H32963   0.244   7.183   1.758  1.5159  1.3926  1.3649
  250MOL0     H32964  -0.213   7.369   1.794 -0.3801  0.9124  1.5004
  250MOL0     H32965  -0.414   7.324   1.914  0.4802  0.8350 -0.7879
  250MOL0     H32966  -0.628   6.947   2.068  0.2110 -1.7425 -0.3116
  250MOL0     H32967  -0.492   6.880   1.987  0.4977  0.9752  0.5378
  250MOL0     H32968  -0.602   7.031   1.788 -0.2352 -0.4659  0.0983
  250MOL0     H32969  -0.746   7.017   1.893 -0.3291 -3.6863  2.7994
  250MOL0     H32970  -0.715   6.752   1.882  0.9200 -1.9344 -1.9771
  250MOL0     H32971  -0.584   6.778   1.764 -0.1277 -0.4571 -0.3725
  250MOL0     H32972  -0.778   6.934   1.658  2.9232  0.1986  0.0987
  250MOL0     H32973  -0.762   6.758   1.619  0.5575 -0.7381  0.8696
  250MOL0     H32974  -0.920   6.832   1.862 -1.0310  0.7976 -1.7614
  250MOL0     H32975  -0.906   6.676   1.802  0.2832  0.1159  3.0100
  250MOL0     H32976  -1.040   6.705   1.632  0.9866 -0.4312  0.1739
  250MOL0     H32977  -1.032   6.887   1.618 -0.3608  1.4953  1.8773
  250MOL0     H32978  -1.178   6.729   1.830  0.9385  0.4131  0.8726
  250MOL0     H32979  -1.169   6.904   1.816 -0.8823 -1.1194  1.9200
  250MOL0     H32980  -1.264   6.901   1.580  3.9318 -0.5244 -0.3676
  250MOL0     H32981  -1.378   6.860   1.715  0.7033 -1.2871  0.7623
  250MOL0     H32982  -0.279   6.906   1.963 -0.0377 -0.0430  2.3509
  250MOL0     H32983  -0.062   6.983   1.851 -0.5188  0.4443 -1.8591
  250MOL0     H32984   0.058   7.401   1.443  2.1899  1.5928 -1.6286
  250MOL0     H32985   0.287   7.434   1.335 -1.0821 -2.1968 -0.7952
  250MOL0     H32986   0.432   8.952   0.513 -0.2579 -1.0360 -0.8374
  250MOL0     H32987   0.427   9.211   0.523 -0.2985 -1.1565 -0.5865
  250MOL0     H32988   0.380   9.632   0.377 -0.4971  0.3240 -0.5533
  250MOL0     H32989   0.352   9.662   0.140  1.1923 -1.2235 -0.5705
  250MOL0     H32990   0.311   9.639  -0.094  0.4699 -3.8114  2.1693
  250MOL0     H32991   0.151   9.668  -0.034 -0.3450  0.0359 -0.5405
  250MOL0     H32992   0.228   9.554  -0.304 -2.2612  3.9230 -2.8740
  250MOL0     H32993   0.082   9.490  -0.219  0.8715 -2.3158 -2.2238
  250MOL0     H32994   0.042   9.685  -0.390  0.3965  3.9265  0.1191
  250MOL0     H32995   0.097   9.787  -0.269  1.6357 -1.7362  1.7358
  250MOL0     H32996  -0.114   9.617  -0.150 -0.8842  0.7906  0.3229
  250MOL0     H32997  -0.102   9.797  -0.173  1.7764 -0.6992  2.9883
  250MOL0     H32998  -0.339   9.668  -0.475  2.2997  0.2164 -1.1846
  250MOL0     H32999   0.159   9.279   0.121  0.0943  1.7270 -1.4488
  250MOL0     H33000   0.180   9.258   0.350 -2.1230 -0.0683 -1.0969
  251MOL0     O33001   8.139   0.819   3.874  0.2378 -0.2266 -0.5294
  251MOL0     C33002   8.247   0.868   3.840 -0.2317  0.7998  0.5430
  251MOL0     O33003   8.350   0.913   3.926  0.3396  0.4000  0.3237
  251MOL0     C33004   8.338   0.897   4.062  0.1975  0.6280 -0.0586
  251MOL0     C33005   8.317   0.770   4.114 -0.6306 -0.5811  0.0217
  251MOL0     C33006   8.269   0.761   4.250  0.8911  0.2372  0.7404
  251MOL0     C33007   8.266   0.870   4.338 -0.4037 -0.1196 -0.1413
  251MOL0     O33008   8.200   0.851   4.465 -0.2891 -0.1512  0.0283
  251MOL0     C33009   8.286   0.894   4.569 -0.4462  0.6685 -0.2122
  251MOL0     C33010   8.225   0.844   4.712 -0.1347 -0.0244 -0.4822
  251MOL0     C33011   8.253   0.693   4.754 -0.1115  1.0026  0.7335
  251MOL0     C33012   8.254   0.659   4.903 -0.4062  0.2319  0.2660
  251MOL0     C33013   8.235   0.504   4.915  0.1160 -0.2513  0.6117
  251MOL0     C33014   8.096   0.468   4.933  0.8011 -0.7688 -0.3162
  251MOL0     C33015   8.069   0.314   4.933  0.1058  0.1530  0.4984
  251MOL0     C33016   8.005   0.260   4.800  0.0267 -0.2760  0.2831
  251MOL0     N33017   8.104   0.263   4.691 -0.4190  1.0286 -1.1242
  251MOL0     C33018   8.096   0.333   4.581 -0.0938  0.6428  0.2236
  251MOL0     C33019   8.211   0.307   4.519 -1.2241  0.4048 -0.1815
  251MOL0     C33020   8.264   0.370   4.395  0.5841 -0.7241 -0.6333
  251MOL0     C33021   8.164   0.361   4.280  0.2556 -0.6989 -0.7262
  251MOL0     C33022   8.123   0.214   4.246 -0.3787 -0.0833 -0.4345
  251MOL0     C33023   8.051   0.207   4.109 -0.3196  1.2830 -0.3225
  251MOL0     O33024   7.938   0.290   4.103  0.5311 -0.6949 -0.2915
  251MOL0     C33025   7.892   0.330   3.986  0.1249 -0.3966  0.8001
  251MOL0     C33026   7.756   0.346   3.962 -0.1598  0.7323 -0.8292
  251MOL0     C33027   7.702   0.407   3.853 -0.0951  0.0152 -0.1125
  251MOL0     C33028   7.789   0.475   3.762 -0.1390 -0.6419  0.1775
  251MOL0     C33029   7.739   0.537   3.638  0.6948  0.2230  1.2050
  251MOL0     O33030   7.835   0.591   3.557 -0.1216  0.4936  0.0784
  251MOL0     C33031   7.801   0.681   3.455  0.7760  0.1856 -0.9762
  251MOL0     C33032   7.796   0.630   3.325 -0.4173  0.0592  0.1621
  251MOL0     C33033   7.784   0.726   3.219  0.3731  0.5367 -0.1448
  251MOL0     C33034   7.766   0.861   3.241 -0.1024 -0.5630 -0.1381
  251MOL0     O33035   7.766   0.962   3.147 -0.1399 -0.3931 -0.6671
  251MOL0     C33036   7.801   0.913   3.013  0.1440  0.2602  0.5864
  251MOL0     C33037   7.845   1.020   2.920 -0.3241 -1.1992 -0.8101
  251MOL0     C33038   7.741   1.138   2.900  0.0556 -0.6249 -0.1212
  251MOL0     C33039   7.596   1.093   2.871 -0.6893  0.1172  0.6092
  251MOL0     C33040   7.499   1.205   2.879 -0.1128 -0.7644  0.0662
  251MOL0     C33041   7.497   1.289   2.743 -0.3411 -0.1044 -0.9645
  251MOL0     C33042   7.458   1.205   2.620 -0.4767 -0.5275 -0.2537
  251MOL0     C33043   7.323   1.132   2.629  0.4928 -0.2704  0.1641
  251MOL0    Cl33044   7.345   0.968   2.707 -0.1128  0.3673 -0.1856
  251MOL0     C33045   7.770   0.903   3.374 -0.2677  0.4240 -1.1385
  251MOL0     C33046   7.781   0.817   3.485 -0.4666  0.2228 -0.7589
  251MOL0     O33047   7.616   0.535   3.615 -0.9010 -0.1266  0.5930
  251MOL0     C33048   7.930   0.465   3.778  0.4743  0.4908 -0.6053
  251MOL0     C33049   7.976   0.392   3.894 -0.5775 -0.5838  0.7456
  251MOL0     N33050   8.288   0.223   4.595  0.6859  0.5091  0.6242
  251MOL0     N33051   8.225   0.198   4.709 -0.7507 -0.4512 -0.4010
  251MOL0     C33052   8.311   0.999   4.289  0.5080  0.0339  0.4289
  251MOL0     C33053   8.343   1.011   4.151  0.7727  0.2728  0.2669
  251MOL0     C33054   8.262   0.912   3.702 -1.1468 -0.4230  0.0020
  251MOL0     C33055   8.150   0.903   3.613  0.1564  0.8035  0.2270
  251MOL0     C33056   8.152   0.962   3.485 -0.8087  0.2614 -0.3421
  251MOL0     C33057   8.271   1.042   3.449  0.6346  0.6567  0.3380
  251MOL0     O33058   8.281   1.114   3.336  0.3353  0.3050 -0.0326
  251MOL0     C33059   8.183   1.100   3.235  0.4427 -0.0883  0.7717
  251MOL0     C33060   8.189   0.980   3.150 -0.0721  1.0570  0.6108
  251MOL0     C33061   8.332   0.946   3.096 -1.2419  0.3663  0.0853
  251MOL0     C33062   8.369   1.039   2.978 -0.0979 -0.6675 -0.2181
  251MOL0     C33063   8.501   0.997   2.926 -0.1349  0.4440  0.2879
  251MOL0     C33064   8.609   0.972   2.865 -0.9704  0.0976 -0.3787
  251MOL0     C33065   8.383   1.041   3.535  1.0331 -0.3431  1.0479
  251MOL0     C33066   8.372   0.988   3.661 -0.7615  0.2927  0.3726
  251MOL0     H33067   8.320   0.683   4.049  1.6357 -0.1866 -0.4906
  251MOL0     H33068   8.240   0.667   4.296 -0.1671 -0.1291 -0.6011
  251MOL0     H33069   8.284   1.003   4.562 -0.8941  0.5546 -3.4287
  251MOL0     H33070   8.382   0.845   4.556 -0.7120 -0.1339  0.7711
  251MOL0     H33071   8.118   0.869   4.707  0.1111  1.2483  0.2068
  251MOL0     H33072   8.273   0.910   4.785  1.1137  0.5495 -1.7763
  251MOL0     H33073   8.350   0.683   4.705 -1.0125  4.0692 -2.0041
  251MOL0     H33074   8.175   0.637   4.701 -0.9134  0.3302  2.5269
  251MOL0     H33075   8.348   0.687   4.952 -0.1893 -3.1235  2.0164
  251MOL0     H33076   8.179   0.704   4.968  0.4020  1.5748  0.3234
  251MOL0     H33077   8.305   0.466   4.991 -0.5909 -1.1825  0.8128
  251MOL0     H33078   8.270   0.457   4.823 -0.8252 -2.2059  1.1817
  251MOL0     H33079   8.036   0.521   4.859 -0.5231 -1.9474 -0.1286
  251MOL0     H33080   8.058   0.501   5.030 -0.3975  2.7458 -1.8321
  251MOL0     H33081   8.163   0.262   4.949  1.4783  2.5431  0.7593
  251MOL0     H33082   8.009   0.280   5.018 -1.7428 -0.2378 -0.8941
  251MOL0     H33083   7.911   0.309   4.774  0.5058  0.3707 -0.2816
  251MOL0     H33084   7.979   0.154   4.806  0.3600 -0.3049  1.3811
  251MOL0     H33085   8.031   0.410   4.542  2.6670  1.6420 -2.8321
  251MOL0     H33086   8.355   0.318   4.364 -0.5277 -2.1115 -1.7213
  251MOL0     H33087   8.295   0.475   4.406 -2.2101  0.4786 -2.9037
  251MOL0     H33088   8.206   0.401   4.187 -1.5957 -2.7846 -2.5762
  251MOL0     H33089   8.083   0.427   4.312 -1.0290 -2.0074 -1.1688
  251MOL0     H33090   8.211   0.150   4.240 -0.5760 -0.3248 -0.7565
  251MOL0     H33091   8.056   0.169   4.320  1.4996 -1.7596  0.3346
  251MOL0     H33092   8.019   0.104   4.091 -1.4850  1.5209  0.2856
  251MOL0     H33093   8.117   0.239   4.028  0.6836  0.6825  0.2373
  251MOL0     H33094   7.690   0.298   4.034  0.6118  0.6621 -0.1575
  251MOL0     H33095   7.594   0.413   3.848 -0.0565  1.8818  0.3083
  251MOL0     H33096   7.799   0.522   3.313  4.0101 -0.1687  1.4609
  251MOL0     H33097   7.785   0.686   3.118  5.3034 -0.5265  0.0969
  251MOL0     H33098   7.710   0.861   2.982  0.8885 -0.6913 -0.0806
  251MOL0     H33099   7.883   0.841   3.018  0.4303  0.2838 -2.1288
  251MOL0     H33100   7.877   0.973   2.827  2.2699  2.6680 -2.0977
  251MOL0     H33101   7.936   1.065   2.961 -2.2252  0.7502  1.6554
  251MOL0     H33102   7.781   1.196   2.817 -2.0119  2.2936  0.7888
  251MOL0     H33103   7.742   1.210   2.982  3.3799  2.3108 -2.4144
  251MOL0     H33104   7.604   1.070   2.764 -3.8939  1.1354  0.0493
  251MOL0     H33105   7.573   1.013   2.941 -0.6795 -0.5391 -0.1225
  251MOL0     H33106   7.514   1.281   2.956 -0.8225  0.2599 -0.7733
  251MOL0     H33107   7.402   1.161   2.904  0.1921 -2.1840 -1.1317
  251MOL0     H33108   7.594   1.339   2.729 -0.3588  0.9231  1.9171
  251MOL0     H33109   7.420   1.367   2.738 -1.4863 -1.2683 -4.0624
  251MOL0     H33110   7.455   1.283   2.544 -1.2322 -2.2284 -2.0703
  251MOL0     H33111   7.532   1.138   2.576  1.4254  2.2265 -1.4814
  251MOL0     H33112   7.307   1.107   2.524  4.3267  2.6510 -1.3561
  251MOL0     H33113   7.245   1.201   2.663  0.6881 -0.4014  0.8980
  251MOL0     H33114   7.762   1.009   3.392  0.4378  0.6787 -2.2176
  251MOL0     H33115   7.778   0.864   3.582  1.3533  0.3785 -0.7428
  251MOL0     H33116   8.000   0.499   3.703 -0.1274  1.8344 -0.5814
  251MOL0     H33117   8.083   0.403   3.908 -0.4861  1.0947 -0.9159
  251MOL0     H33118   8.311   1.090   4.346  1.8612  2.1248 -2.6231
  251MOL0     H33119   8.339   1.113   4.114 -1.6432  1.0992  2.5014
  251MOL0     H33120   8.079   0.826   3.640 -1.2687  3.0372  3.4158
  251MOL0     H33121   8.072   0.951   3.412 -1.1656  0.9709 -0.0693
  251MOL0     H33122   8.202   1.182   3.166 -2.0414 -0.7286 -0.8195
  251MOL0     H33123   8.076   1.098   3.258  0.2302 -2.4935 -0.1231
  251MOL0     H33124   8.164   0.894   3.213  0.8441  1.2047  1.2042
  251MOL0     H33125   8.118   0.993   3.068  0.1357 -0.4746  0.1513
  251MOL0     H33126   8.348   0.845   3.059  0.0677  1.0580 -1.3499
  251MOL0     H33127   8.394   0.960   3.186 -1.1212  0.0604  0.0491
  251MOL0     H33128   8.287   1.039   2.906  0.4443  0.4113 -0.8538
  251MOL0     H33129   8.367   1.145   3.006 -3.5456 -0.0747 -2.1303
  251MOL0     H33130   8.691   0.951   2.800 -1.5935 -0.3917 -1.0317
  251MOL0     H33131   8.471   1.100   3.511  0.4185 -0.4721 -1.8036
  251MOL0     H33132   8.462   1.009   3.718  0.0938 -2.5739  0.2359
  252MOL0     O33133   9.878   7.727   8.355 -0.0067 -0.4934 -0.1803
  252MOL0     C33134   9.908   7.743   8.239 -0.8424  0.6753  0.5921
  252MOL0     O33135   9.835   7.804   8.127  0.1845  0.0351 -0.6363
  252MOL0     C33136   9.719   7.870   8.152 -0.7184  0.1200 -0.3867
  252MOL0     C33137   9.623   7.824   8.242  0.0460  0.3864 -1.0716
  252MOL0     C33138   9.502   7.888   8.243 -0.2974 -0.9620  0.0087
  252MOL0     C33139   9.468   7.988   8.157  1.1861 -0.8424  0.3963
  252MOL0     O33140   9.354   8.061   8.179 -0.4449 -0.1510 -0.2656
  252MOL0     C33141   9.344   8.199   8.143 -0.4984 -0.3010 -0.1577
  252MOL0     C33142   9.233   8.199   8.038  1.0607 -0.0212  0.2872
  252MOL0     C33143   9.213   8.336   7.970  0.4327 -0.0245 -0.3979
  252MOL0     C33144   9.088   8.331   7.883  0.2680 -0.4993 -0.8674
  252MOL0     C33145   8.950   8.272   7.956 -0.8154  0.0854 -0.4472
  252MOL0     C33146   8.819   8.317   7.877 -0.7721  0.0418 -0.2803
  252MOL0     C33147   8.679   8.290   7.940  0.0060 -0.0253  0.4666
  252MOL0     C33148   8.641   8.149   7.937  0.2146  1.3601  0.1375
  252MOL0     N33149   8.503   8.138   7.984  0.2702 -0.9755 -0.9047
  252MOL0     C33150   8.399   8.224   7.955  0.4759  0.4503  0.2519
  252MOL0     C33151   8.296   8.187   8.031 -0.5188 -0.0469  0.6134
  252MOL0     C33152   8.163   8.264   8.032 -0.2256  0.6817  0.5630
  252MOL0     C33153   8.039   8.195   7.989  0.4692 -0.1801 -1.3211
  252MOL0     C33154   7.909   8.267   8.026  1.1402  0.5563  1.4163
  252MOL0     C33155   7.786   8.194   7.991  0.7200  0.1038 -0.1208
  252MOL0     O33156   7.761   8.199   7.848  1.0604 -0.0013 -0.6289
  252MOL0     C33157   7.675   8.101   7.811  0.5160  0.3188  0.2447
  252MOL0     C33158   7.544   8.096   7.863  1.3813  0.5564 -0.4041
  252MOL0     C33159   7.449   8.004   7.804  0.3389  0.9825 -0.5519
  252MOL0     C33160   7.483   7.928   7.689  0.3069 -0.1631 -1.3636
  252MOL0     C33161   7.384   7.843   7.616  0.5397  0.1603 -1.1189
  252MOL0     O33162   7.278   7.796   7.684  0.3055 -0.1490 -0.3768
  252MOL0     C33163   7.173   7.737   7.631  0.4018 -0.4749 -0.5079
  252MOL0     C33164   7.052   7.753   7.703 -0.4385  0.0842 -0.2410
  252MOL0     C33165   6.943   7.660   7.679 -0.3689  0.0637 -0.1364
  252MOL0     C33166   6.953   7.558   7.579 -0.4848 -0.5693  1.0337
  252MOL0     O33167   6.855   7.462   7.572  0.1110 -0.5201  0.7124
  252MOL0     C33168   6.865   7.340   7.509  0.7261 -0.1368  0.3272
  252MOL0     C33169   6.763   7.342   7.383  0.5128 -0.1354  0.5232
  252MOL0     C33170   6.629   7.412   7.416 -0.2948  0.3563  0.0713
  252MOL0     C33171   6.556   7.339   7.533  0.9934 -0.1506  0.2185
  252MOL0     C33172   6.416   7.389   7.549 -0.2468 -0.4804  0.2073
  252MOL0     C33173   6.348   7.296   7.648 -0.0331  0.3793 -0.1301
  252MOL0     C33174   6.218   7.379   7.689 -1.0464  0.6539 -0.4279
  252MOL0     C33175   6.107   7.290   7.720 -0.4404  0.5724  0.3367
  252MOL0    Cl33176   5.984   7.392   7.783  0.1554  0.4517  0.5179
  252MOL0     C33177   7.071   7.564   7.501  0.6771  0.0550 -0.4022
  252MOL0     C33178   7.173   7.654   7.520 -0.1452 -0.2303 -0.1225
  252MOL0     O33179   7.404   7.817   7.503 -0.7610 -0.1797  0.3823
  252MOL0     C33180   7.616   7.950   7.638  0.8441  0.1815 -0.2777
  252MOL0     C33181   7.715   8.024   7.708  0.5509 -0.3696 -0.4877
  252MOL0     N33182   8.333   8.082   8.103  0.4549  0.6350  0.8642
  252MOL0     N33183   8.447   8.040   8.053 -0.2453 -0.7843  0.6264
  252MOL0     C33184   9.559   8.021   8.063 -0.0934  0.5144 -0.4625
  252MOL0     C33185   9.684   7.970   8.065  0.9759  1.2886  0.1175
  252MOL0     C33186  10.021   7.667   8.185  0.0775  0.8471 -0.1399
  252MOL0     C33187  10.088   7.577   8.275 -0.0523  0.0891  0.7650
  252MOL0     C33188  10.199   7.497   8.248  0.2629  0.4707 -0.2670
  252MOL0     C33189  10.242   7.499   8.114 -0.1394 -0.3727  0.4262
  252MOL0     O33190  10.317   7.405   8.049  0.4007  0.1757 -0.1708
  252MOL0     C33191  10.354   7.288   8.126 -0.8842  0.2875  0.4891
  252MOL0     C33192  10.451   7.200   8.050 -0.4315 -0.4467  0.1291
  252MOL0     C33193  10.488   7.081   8.133 -0.1832 -0.5507 -0.0529
  252MOL0     C33194  10.579   6.976   8.063  0.5022 -0.4720 -0.1818
  252MOL0     C33195  10.557   6.968   7.919 -0.8354 -0.1392  0.0714
  252MOL0     C33196  10.543   6.956   7.797 -0.8970  0.0655 -0.2543
  252MOL0     C33197  10.188   7.600   8.027 -0.6054 -0.0465 -0.6155
  252MOL0     C33198  10.088   7.679   8.066  0.4674 -0.9688 -1.0087
  252MOL0     H33199   9.622   7.741   8.311 -4.4452  2.6586  2.1075
  252MOL0     H33200   9.428   7.872   8.321 -2.4996 -0.0605 -1.7766
  252MOL0     H33201   9.444   8.235   8.116  0.1613 -0.8824  1.4176
  252MOL0     H33202   9.302   8.261   8.222 -1.1254  0.7566 -1.2868
  252MOL0     H33203   9.144   8.169   8.095  0.9822  0.1613  0.2622
  252MOL0     H33204   9.250   8.118   7.966  3.5636  0.9004 -0.2562
  252MOL0     H33205   9.290   8.367   7.899  0.2820  1.2588 -0.0285
  252MOL0     H33206   9.198   8.412   8.047  1.0625  1.1086 -1.3473
  252MOL0     H33207   9.059   8.432   7.850  0.6113 -0.6543 -1.6777
  252MOL0     H33208   9.112   8.285   7.787  2.0557 -0.7383 -0.3493
  252MOL0     H33209   8.937   8.304   8.059 -3.1463 -1.5538 -0.1474
  252MOL0     H33210   8.955   8.164   7.968 -1.5542  0.2861  2.2127
  252MOL0     H33211   8.822   8.286   7.772  0.9488  2.3841 -1.0148
  252MOL0     H33212   8.822   8.426   7.869  1.6448  0.0591  0.0230
  252MOL0     H33213   8.697   8.328   8.041  1.6277 -1.2395  0.6646
  252MOL0     H33214   8.613   8.359   7.885 -0.8907  0.0173  1.5517
  252MOL0     H33215   8.709   8.092   8.001 -1.3071  0.6326  1.1699
  252MOL0     H33216   8.642   8.106   7.837 -1.1206  1.2982  0.1338
  252MOL0     H33217   8.398   8.299   7.877 -0.0275  0.6570  0.4518
  252MOL0     H33218   8.168   8.345   7.958  2.2833 -1.6987 -2.0902
  252MOL0     H33219   8.147   8.300   8.134 -3.6698 -2.5265  1.3667
  252MOL0     H33220   8.042   8.098   8.038 -0.0991 -0.6747 -2.2397
  252MOL0     H33221   8.040   8.171   7.882  0.0950 -0.3079 -1.2992
  252MOL0     H33222   7.916   8.284   8.134 -1.4426 -1.7842  2.0968
  252MOL0     H33223   7.905   8.363   7.974 -1.8077  0.9496  2.1582
  252MOL0     H33224   7.699   8.235   8.043 -1.0639  2.2131 -4.3332
  252MOL0     H33225   7.810   8.093   8.025  1.4602  0.6161  0.9637
  252MOL0     H33226   7.515   8.151   7.952 -0.0368  1.4965 -1.4014
  252MOL0     H33227   7.345   8.009   7.836  0.7189  0.7525  0.7707
  252MOL0     H33228   7.038   7.827   7.782 -1.6770  0.0922 -0.4466
  252MOL0     H33229   6.868   7.669   7.757  0.3910  0.7831  0.5257
  252MOL0     H33230   6.833   7.269   7.587  0.3788  0.1179  0.4167
  252MOL0     H33231   6.968   7.310   7.484  0.8520 -0.3291  1.0460
  252MOL0     H33232   6.732   7.239   7.364 -1.1717  0.2064  1.1895
  252MOL0     H33233   6.810   7.388   7.296  0.7881 -1.2944  0.0388
  252MOL0     H33234   6.570   7.424   7.325 -3.1016 -1.8383  1.4479
  252MOL0     H33235   6.651   7.515   7.445 -1.0929  0.8174 -0.8999
  252MOL0     H33236   6.560   7.232   7.510  0.5481 -0.4581  1.4921
  252MOL0     H33237   6.605   7.351   7.630 -2.7719  0.4028  2.2785
  252MOL0     H33238   6.358   7.380   7.457  0.6059 -3.7259 -0.1366
  252MOL0     H33239   6.427   7.490   7.588  1.1064 -0.5721  0.1211
  252MOL0     H33240   6.406   7.271   7.737  0.7794  0.3567 -0.6544
  252MOL0     H33241   6.317   7.201   7.601  1.2577  0.0288 -0.3053
  252MOL0     H33242   6.231   7.458   7.763  1.5288  1.1945 -1.3620
  252MOL0     H33243   6.182   7.436   7.603  1.8667  0.7523 -1.6920
  252MOL0     H33244   6.143   7.230   7.803  0.8807  0.9057  0.0215
  252MOL0     H33245   6.085   7.229   7.631  0.6101  0.2056  0.3214
  252MOL0     H33246   7.080   7.499   7.414 -0.3252 -1.0581  0.2911
  252MOL0     H33247   7.253   7.631   7.451  1.7398  1.2164  1.4640
  252MOL0     H33248   7.652   7.892   7.554  0.8119  2.0219 -1.6185
  252MOL0     H33249   7.814   8.040   7.669  1.3554  1.1186  1.9051
  252MOL0     H33250   9.547   8.103   7.992 -2.3108  0.2292 -0.4986
  252MOL0     H33251   9.749   7.988   7.980 -1.3584  0.2220 -2.0101
  252MOL0     H33252  10.056   7.582   8.379 -0.8915  0.9709  0.4865
  252MOL0     H33253  10.255   7.449   8.327  2.7627  3.9760  0.3279
  252MOL0     H33254  10.268   7.222   8.144  0.4714 -1.2168  1.8162
  252MOL0     H33255  10.400   7.322   8.220 -1.3756  0.5691  0.6340
  252MOL0     H33256  10.406   7.177   7.953 -0.1620  0.5097 -0.2354
  252MOL0     H33257  10.539   7.258   8.021 -0.4116 -0.6152 -0.1501
  252MOL0     H33258  10.394   7.030   8.154 -1.3239  1.8050  0.9827
  252MOL0     H33259  10.547   7.099   8.223  1.4375  0.0103 -1.1598
  252MOL0     H33260  10.682   6.992   8.096 -0.5965  1.4024  2.6897
  252MOL0     H33261  10.558   6.871   8.086  0.1052 -0.5917 -1.0217
  252MOL0     H33262  10.514   6.925   7.699 -1.0887  0.3716 -0.2941
  252MOL0     H33263  10.231   7.603   7.927  2.4605 -1.8361  0.5331
  252MOL0     H33264  10.048   7.765   8.014 -1.8401 -0.6058  1.1369
  253MOL0     O33265  10.892   9.006   8.061  0.0853 -0.1161 -0.4949
  253MOL0     C33266  10.773   9.048   8.034  0.5634 -0.0635  0.3588
  253MOL0     O33267  10.686   9.121   8.117 -0.1879  0.9626  0.2901
  253MOL0     C33268  10.718   9.125   8.250 -0.4547 -0.3353 -0.8583
  253MOL0     C33269  10.605   9.131   8.333  0.7563 -0.2139  0.8012
  253MOL0     C33270  10.619   9.134   8.471  0.3960  0.9530 -0.5987
  253MOL0     C33271  10.751   9.144   8.532  0.2343 -0.1211  0.8502
  253MOL0     O33272  10.782   9.147   8.658  0.0731  0.5577 -0.1994
  253MOL0     C33273  10.677   9.191   8.742 -0.0114  0.0308 -0.6357
  253MOL0     C33274  10.707   9.190   8.895  0.4833  0.1394 -0.4888
  253MOL0     C33275  10.785   9.073   8.957  1.2420 -0.3577  0.7331
  253MOL0     C33276  10.776   9.049   9.106  0.2037  0.4431 -0.2228
  253MOL0     C33277  10.867   8.937   9.155 -0.8552 -1.0929 -0.1565
  253MOL0     C33278  10.889   8.927   9.316  0.4584 -0.0245 -1.0629
  253MOL0     C33279  10.788   8.832   9.390 -0.9211  0.4956 -0.8462
  253MOL0     C33280  10.726   8.714   9.317 -0.4847  0.1444 -0.5769
  253MOL0     N33281  10.651   8.638   9.428 -0.6025 -0.0517 -0.0586
  253MOL0     C33282  10.659   8.501   9.441  0.0081 -0.1817 -0.5246
  253MOL0     C33283  10.606   8.471   9.559  0.2898  0.1539 -0.9267
  253MOL0     C33284  10.608   8.340   9.628 -0.2914  0.5964 -1.0146
  253MOL0     C33285  10.736   8.353   9.731  0.4215 -0.5208  0.6952
  253MOL0     C33286  10.695   8.388   9.870  0.1405 -0.6466 -0.3714
  253MOL0     C33287  10.817   8.389   9.968  0.5616 -0.3296  0.0939
  253MOL0     O33288  10.856   8.255  10.014  0.3415  0.1132 -0.0298
  253MOL0     C33289  10.977   8.235  10.059  0.1332 -0.4727 -1.0038
  253MOL0     C33290  11.076   8.331  10.096  0.0794 -0.0803 -0.3144
  253MOL0     C33291  11.205   8.283  10.156  0.6384 -0.0619  0.0673
  253MOL0     C33292  11.235   8.150  10.175 -0.1274  0.9087 -0.0749
  253MOL0     C33293  11.360   8.104  10.232 -0.0399  0.0310 -1.6754
  253MOL0     O33294  11.392   7.970  10.223 -0.1028  0.1250  0.0410
  253MOL0     C33295  11.500   7.914  10.297 -0.4455 -0.8327  0.5325
  253MOL0     C33296  11.538   7.961  10.419  0.3932  0.7092  0.2828
  253MOL0     C33297  11.652   7.910  10.480 -0.0897 -1.1584  0.3032
  253MOL0     C33298  11.717   7.805  10.430 -0.4466 -0.2969  0.3218
  253MOL0     O33299  11.816   7.762  10.524  0.3548  0.3410  0.5376
  253MOL0     C33300  11.924   7.676  10.463 -0.4722  0.3362 -0.0265
  253MOL0     C33301  12.050   7.673  10.547  0.0606  0.1126 -0.5552
  253MOL0     C33302  12.033   7.592  10.677 -1.1818  0.1827  0.1696
  253MOL0     C33303  12.064   7.437  10.651  0.1099  0.2542  0.1469
  253MOL0     C33304  11.993   7.348  10.755 -0.2941  0.0278  0.2795
  253MOL0     C33305  12.069   7.350  10.890 -0.3261 -0.0694  0.2924
  253MOL0     C33306  12.005   7.274  11.000  0.6238  0.2385 -0.0970
  253MOL0     C33307  12.024   7.326  11.139  0.1888  0.5766  0.5540
  253MOL0    Cl33308  12.203   7.316  11.165 -0.0999  0.5695  0.5914
  253MOL0     C33309  11.672   7.739  10.313 -0.1419 -0.9136  0.4554
  253MOL0     C33310  11.563   7.796  10.250 -0.0183 -0.0327  0.7966
  253MOL0     O33311  11.438   8.190  10.269 -0.9631  0.8425 -0.8880
  253MOL0     C33312  11.145   8.056  10.126  0.8295 -0.1073  0.3163
  253MOL0     C33313  11.017   8.100  10.070 -0.2118 -0.4265  0.1275
  253MOL0     N33314  10.563   8.588   9.617 -0.5874  0.3995 -0.0949
  253MOL0     N33315  10.584   8.692   9.537 -0.2163  0.6406 -0.3237
  253MOL0     C33316  10.862   9.148   8.443 -0.2508  1.1968  0.3894
  253MOL0     C33317  10.846   9.146   8.306  0.6829  0.1663  0.4089
  253MOL0     C33318  10.718   9.002   7.911 -0.4663  0.5441 -0.0965
  253MOL0     C33319  10.742   8.880   7.856  0.7052  0.1025 -0.2039
  253MOL0     C33320  10.690   8.840   7.730 -0.7097 -0.5808 -0.3335
  253MOL0     C33321  10.606   8.920   7.651 -0.1492  0.6257 -0.2517
  253MOL0     O33322  10.549   8.878   7.530  0.3480 -0.2802  0.5948
  253MOL0     C33323  10.419   8.931   7.487 -0.5992  1.3994 -0.1398
  253MOL0     C33324  10.366   8.846   7.376 -0.1534 -0.3826  0.2098
  253MOL0     C33325  10.212   8.841   7.387 -0.5510  0.7129 -0.2299
  253MOL0     C33326  10.155   8.766   7.263  0.5185 -0.0342  0.5442
  253MOL0     C33327  10.007   8.788   7.257 -0.0668  0.3932  0.4202
  253MOL0     C33328   9.882   8.783   7.255 -0.8073  0.3179 -0.4838
  253MOL0     C33329  10.580   9.047   7.709 -0.3308 -0.2821 -0.2641
  253MOL0     C33330  10.643   9.087   7.822 -0.2858 -0.1790 -0.0254
  253MOL0     H33331  10.509   9.122   8.282  3.0957 -2.1151 -3.8352
  253MOL0     H33332  10.530   9.121   8.532 -0.0085  0.3891 -1.2860
  253MOL0     H33333  10.589   9.127   8.731 -2.1634  2.8732 -0.8018
  253MOL0     H33334  10.650   9.289   8.702 -1.9648 -0.1721  0.0731
  253MOL0     H33335  10.608   9.201   8.941  0.9997  1.1774  0.4242
  253MOL0     H33336  10.768   9.276   8.924  1.1839 -0.7424  0.7637
  253MOL0     H33337  10.891   9.066   8.932  0.5513 -3.9859 -2.1035
  253MOL0     H33338  10.745   8.985   8.905  1.8910  0.0721 -0.5325
  253MOL0     H33339  10.804   9.140   9.159  1.2929  0.2891 -0.5175
  253MOL0     H33340  10.673   9.018   9.127 -0.4484  1.7261 -1.3140
  253MOL0     H33341  10.969   8.960   9.123 -0.8682 -2.1442 -0.9950
  253MOL0     H33342  10.843   8.839   9.112 -0.8026 -1.1714 -0.0067
  253MOL0     H33343  10.879   9.027   9.359 -0.3411 -0.1579 -0.9131
  253MOL0     H33344  10.987   8.894   9.352 -0.8917  1.1582  4.8325
  253MOL0     H33345  10.860   8.797   9.464 -0.5034 -1.0471 -1.9422
  253MOL0     H33346  10.718   8.898   9.443 -0.3720 -0.2703  0.9025
  253MOL0     H33347  10.805   8.646   9.284 -1.5994 -1.7321  0.4849
  253MOL0     H33348  10.655   8.737   9.237 -1.7329  0.9234  0.7106
  253MOL0     H33349  10.710   8.427   9.381  1.3681  0.7691 -0.5885
  253MOL0     H33350  10.616   8.266   9.549 -0.5747  2.0966 -2.5055
  253MOL0     H33351  10.519   8.318   9.688 -0.5490 -1.5123 -2.0861
  253MOL0     H33352  10.810   8.425   9.695  0.1309 -1.4236 -1.9310
  253MOL0     H33353  10.783   8.255   9.716 -2.8191 -1.9959 -0.7291
  253MOL0     H33354  10.649   8.487   9.867  1.6205  0.1114  0.8725
  253MOL0     H33355  10.620   8.315   9.901 -0.0497  0.0208  0.8108
  253MOL0     H33356  10.806   8.463  10.047 -1.4901 -0.2785 -0.1935
  253MOL0     H33357  10.903   8.434   9.916  0.7233 -1.4628 -0.6557
  253MOL0     H33358  11.074   8.439  10.085  1.7213  0.1760  1.4180
  253MOL0     H33359  11.280   8.362  10.163  0.5397  0.1379 -0.9675
  253MOL0     H33360  11.469   8.034  10.461  0.7308 -0.2107  2.5365
  253MOL0     H33361  11.672   7.951  10.578  1.7772  1.4708 -1.0516
  253MOL0     H33362  11.953   7.729  10.371  0.1463 -2.0652 -1.2923
  253MOL0     H33363  11.890   7.577  10.433  5.1847 -2.2772  0.7502
  253MOL0     H33364  12.083   7.775  10.569  0.3583  0.3045 -1.8306
  253MOL0     H33365  12.132   7.630  10.489 -1.4079 -2.2054 -1.0532
  253MOL0     H33366  11.935   7.616  10.720  0.1448  2.5885  2.1020
  253MOL0     H33367  12.086   7.637  10.761  0.2084 -0.2520 -0.4510
  253MOL0     H33368  12.024   7.417  10.551  0.1514 -2.4343  0.5988
  253MOL0     H33369  12.171   7.420  10.662 -0.0740  0.3217  2.6436
  253MOL0     H33370  11.992   7.246  10.715 -0.8742  0.1180  0.0564
  253MOL0     H33371  11.888   7.376  10.762 -0.6901 -1.1771 -0.5123
  253MOL0     H33372  12.091   7.454  10.917 -0.0374 -0.5375  1.9808
  253MOL0     H33373  12.168   7.305  10.874  0.1340  1.0343 -0.0651
  253MOL0     H33374  11.898   7.268  10.978  0.3394  2.8100  0.2046
  253MOL0     H33375  12.041   7.171  11.007 -0.1684 -0.0555 -0.2886
  253MOL0     H33376  11.964   7.267  11.209  1.1941  0.4758  1.3567
  253MOL0     H33377  11.984   7.427  11.146 -0.4945  0.4487 -1.0458
  253MOL0     H33378  11.724   7.650  10.281  1.4641 -0.4108  1.5470
  253MOL0     H33379  11.529   7.757  10.155  2.3649 -3.0910  1.0700
  253MOL0     H33380  11.154   7.948  10.120 -0.4242 -0.2182  0.1471
  253MOL0     H33381  10.939   8.027  10.053  0.6934 -1.0453 -1.6828
  253MOL0     H33382  10.959   9.162   8.489  0.8928 -0.2275 -1.4576
  253MOL0     H33383  10.933   9.165   8.243 -0.1231 -1.3892 -1.2869
  253MOL0     H33384  10.800   8.805   7.908 -0.1745 -0.9384 -0.6995
  253MOL0     H33385  10.704   8.736   7.704 -0.1188 -0.1382 -1.9143
  253MOL0     H33386  10.451   9.027   7.446  1.6080  0.1289 -1.5793
  253MOL0     H33387  10.355   8.942   7.575 -0.7951  2.0950 -0.3552
  253MOL0     H33388  10.391   8.895   7.281 -2.5593 -0.8786 -0.7586
  253MOL0     H33389  10.405   8.744   7.387  3.6336  0.8071 -0.7906
  253MOL0     H33390  10.163   8.936   7.411  1.3539  0.7010  4.9858
  253MOL0     H33391  10.191   8.777   7.474  2.1084  0.1640  0.0862
  253MOL0     H33392  10.202   8.798   7.169 -0.3137  2.0947  0.7859
  253MOL0     H33393  10.169   8.658   7.273 -1.4329 -0.4087 -0.4142
  253MOL0     H33394   9.776   8.775   7.262 -0.9372 -0.0198 -2.2228
  253MOL0     H33395  10.507   9.107   7.656  1.3556  0.4238 -1.9089
  253MOL0     H33396  10.619   9.186   7.861  4.2354  1.3902 -0.6566
  254MOL0     O33397   2.441   9.437   3.485  0.1474  0.1076  0.8086
  254MOL0     C33398   2.431   9.347   3.398  0.5682 -0.0958  0.0381
  254MOL0     O33399   2.411   9.219   3.426 -0.2280  0.4276  0.4608
  254MOL0     C33400   2.338   9.199   3.546 -0.3668 -0.2965 -0.0206
  254MOL0     C33401   2.402   9.129   3.655 -0.4386  0.4324  0.1328
  254MOL0     C33402   2.336   9.118   3.782 -0.8225 -0.0395  0.5793
  254MOL0     C33403   2.196   9.138   3.792 -1.3928 -0.3442 -0.2282
  254MOL0     O33404   2.116   9.102   3.897  0.4383  0.4086  0.6070
  254MOL0     C33405   2.165   9.041   4.008  0.0866  0.8780 -0.5944
  254MOL0     C33406   2.064   9.055   4.124 -0.5487 -0.0219 -0.4910
  254MOL0     C33407   1.928   9.020   4.074  1.1119  0.0703  0.1049
  254MOL0     C33408   1.826   8.989   4.184  0.6576 -0.3667  0.0959
  254MOL0     C33409   1.699   8.929   4.114 -0.9963 -0.7057  0.6409
  254MOL0     C33410   1.580   8.894   4.214 -0.0543 -0.1189  0.7611
  254MOL0     C33411   1.480   8.804   4.145 -1.1216 -0.6014  0.2262
  254MOL0     C33412   1.356   8.811   4.241  1.0593 -0.8621  0.0728
  254MOL0     N33413   1.242   8.733   4.191 -0.0875 -0.0275  0.6111
  254MOL0     C33414   1.236   8.596   4.183  0.8234 -0.3431 -0.6887
  254MOL0     C33415   1.104   8.570   4.142 -0.0687  0.5620 -0.8321
  254MOL0     C33416   1.035   8.439   4.134  0.9951 -0.5506 -0.8539
  254MOL0     C33417   1.014   8.380   4.278 -0.5371  0.4938  0.7263
  254MOL0     C33418   0.996   8.462   4.405 -0.8205  0.0270 -0.1298
  254MOL0     C33419   0.919   8.384   4.510  0.0746  0.8429 -0.1830
  254MOL0     O33420   0.791   8.451   4.536  0.0895  0.8031  0.8628
  254MOL0     C33421   0.697   8.373   4.595  0.2280 -0.8608 -0.4248
  254MOL0     C33422   0.591   8.311   4.532 -0.3603  0.3398 -0.1856
  254MOL0     C33423   0.477   8.261   4.591  0.4634  0.6178  0.5134
  254MOL0     C33424   0.460   8.273   4.732 -0.1427 -0.0480  0.3224
  254MOL0     C33425   0.335   8.241   4.802 -0.5422  1.8213  0.2577
  254MOL0     O33426   0.239   8.202   4.724  0.4994  0.0623  0.1019
  254MOL0     C33427   0.103   8.210   4.763  0.0259 -0.4786  0.0643
  254MOL0     C33428   0.053   8.187   4.889 -0.2974  0.6799 -0.6584
  254MOL0     C33429  -0.086   8.199   4.910 -0.4173  0.6985 -0.5574
  254MOL0     C33430  -0.170   8.224   4.800  0.6157  0.2315 -0.2230
  254MOL0     O33431  -0.314   8.210   4.800  0.1454  0.3531  0.3203
  254MOL0     C33432  -0.381   8.263   4.914 -0.1214  0.3505 -0.3225
  254MOL0     C33433  -0.455   8.147   5.006 -0.2120 -0.2094  0.6714
  254MOL0     C33434  -0.359   8.049   5.060 -0.2485  0.1614 -0.4463
  254MOL0     C33435  -0.424   7.960   5.160 -0.7361 -0.9854 -0.8036
  254MOL0     C33436  -0.354   7.940   5.301  0.2688 -0.8487  0.2129
  254MOL0     C33437  -0.213   7.901   5.300 -0.5695  0.2612  0.0464
  254MOL0     C33438  -0.181   7.775   5.220  0.5754 -0.8490 -0.6652
  254MOL0     C33439  -0.030   7.756   5.192  1.2574 -0.2615  0.1525
  254MOL0    Cl33440   0.042   7.877   5.096  0.5111 -0.0639 -0.1982
  254MOL0     C33441  -0.113   8.258   4.681 -0.9421  0.2535 -0.0241
  254MOL0     C33442   0.020   8.242   4.652 -0.2316  0.8068 -0.1738
  254MOL0     O33443   0.317   8.271   4.914 -1.1734 -0.2882  0.1839
  254MOL0     C33444   0.557   8.347   4.798  0.4698 -0.0560 -0.2772
  254MOL0     C33445   0.677   8.393   4.736 -0.8063 -1.0398 -0.1583
  254MOL0     N33446   1.047   8.692   4.117  0.1232  0.6064 -0.5497
  254MOL0     N33447   1.129   8.791   4.142 -0.5184 -0.6761 -0.8159
  254MOL0     C33448   2.133   9.195   3.674  0.4732  0.4959 -0.0705
  254MOL0     C33449   2.205   9.229   3.556 -1.3644 -0.6759 -0.4220
  254MOL0     C33450   2.478   9.386   3.267  0.3202 -0.1450 -0.5845
  254MOL0     C33451   2.463   9.297   3.152 -0.1791  0.4265 -0.2916
  254MOL0     C33452   2.495   9.339   3.023  0.2456  0.6864 -0.2348
  254MOL0     C33453   2.540   9.469   2.995 -0.5815 -0.1121 -0.4623
  254MOL0     O33454   2.573   9.514   2.872 -0.1191  0.6562  0.4188
  254MOL0     C33455   2.522   9.446   2.761  0.7143  0.0562  0.3772
  254MOL0     C33456   2.533   9.531   2.638 -0.1272  0.0870  0.2612
  254MOL0     C33457   2.470   9.671   2.657  0.1750  0.9093  0.3873
  254MOL0     C33458   2.321   9.665   2.676  0.0953  0.7538  0.8139
  254MOL0     C33459   2.286   9.766   2.765 -0.5349  0.0504  0.5003
  254MOL0     C33460   2.260   9.846   2.846  1.1016 -0.2666 -0.9497
  254MOL0     C33461   2.541   9.556   3.109 -0.2984  0.3297  0.0145
  254MOL0     C33462   2.513   9.518   3.244 -0.1294 -0.7102  0.8327
  254MOL0     H33463   2.509   9.115   3.653 -0.5879 -1.4006 -3.2020
  254MOL0     H33464   2.392   9.072   3.863 -1.5392 -1.2214  0.4335
  254MOL0     H33465   2.252   9.100   4.036 -2.2479  4.4816 -0.2605
  254MOL0     H33466   2.183   8.934   3.997 -1.0095  0.0681  3.6067
  254MOL0     H33467   2.075   9.157   4.161  3.7848 -0.0543 -1.1716
  254MOL0     H33468   2.094   8.982   4.199  3.2841 -1.7712 -3.3733
  254MOL0     H33469   1.928   8.935   4.005 -1.3190  0.7935 -0.9026
  254MOL0     H33470   1.890   9.097   4.005 -0.0248 -0.8980 -0.3745
  254MOL0     H33471   1.879   8.918   4.249  0.6401  0.1725  0.7117
  254MOL0     H33472   1.809   9.077   4.247 -2.4699 -1.9631  1.7595
  254MOL0     H33473   1.734   8.838   4.064 -0.5874 -0.5224  0.5869
  254MOL0     H33474   1.656   9.005   4.048  0.9793 -1.2511 -1.4013
  254MOL0     H33475   1.535   8.984   4.257  0.8216 -0.7143  3.1370
  254MOL0     H33476   1.620   8.830   4.294 -0.2695  0.8915  1.7041
  254MOL0     H33477   1.449   8.847   4.049  0.8052 -1.2549 -0.7407
  254MOL0     H33478   1.508   8.701   4.123 -3.2638 -1.1182 -0.3490
  254MOL0     H33479   1.305   8.907   4.250 -0.9611 -1.5900 -2.2337
  254MOL0     H33480   1.393   8.787   4.341  0.3648  3.7027  1.6296
  254MOL0     H33481   1.313   8.529   4.219  0.4042 -0.4387  0.0480
  254MOL0     H33482   1.110   8.375   4.087 -1.3082 -3.2031 -1.1753
  254MOL0     H33483   0.943   8.436   4.074  3.0597 -0.2515 -4.3366
  254MOL0     H33484   1.105   8.327   4.307 -0.0157  1.9316  1.8135
  254MOL0     H33485   0.935   8.304   4.274  0.0087 -0.0524  0.0342
  254MOL0     H33486   1.091   8.494   4.449  0.5593 -2.1535 -1.3226
  254MOL0     H33487   0.934   8.549   4.383 -0.7815  0.4658  1.3561
  254MOL0     H33488   0.972   8.379   4.606  1.9567  1.6409 -1.1500
  254MOL0     H33489   0.906   8.281   4.477  1.3127  1.0818 -1.4953
  254MOL0     H33490   0.582   8.308   4.424 -2.7472  0.4085 -0.0550
  254MOL0     H33491   0.403   8.222   4.522 -0.7482  2.9472  0.3833
  254MOL0     H33492   0.119   8.155   4.969 -3.1821 -4.4020  0.1447
  254MOL0     H33493  -0.131   8.165   5.003 -0.5382 -0.8530 -1.1512
  254MOL0     H33494  -0.470   8.313   4.878  0.9517  1.2794 -1.7974
  254MOL0     H33495  -0.318   8.335   4.967  1.7735  0.3068 -2.3692
  254MOL0     H33496  -0.520   8.102   4.930  0.3301  1.4083 -0.8153
  254MOL0     H33497  -0.511   8.186   5.092 -0.4252  0.8072  0.0927
  254MOL0     H33498  -0.285   8.095   5.126 -2.3240  0.0868  2.0708
  254MOL0     H33499  -0.313   7.992   4.979 -1.0012  1.1595 -1.6322
  254MOL0     H33500  -0.527   7.990   5.177  0.1912  2.0170  0.0308
  254MOL0     H33501  -0.432   7.863   5.109  1.5543 -0.1988 -2.9181
  254MOL0     H33502  -0.398   7.851   5.347  0.9889 -1.7325 -0.7786
  254MOL0     H33503  -0.369   8.033   5.357  0.7371  0.7028 -2.1026
  254MOL0     H33504  -0.187   7.883   5.405  2.9416 -5.3209 -1.3361
  254MOL0     H33505  -0.154   7.986   5.264 -0.7519  0.2625 -0.2484
  254MOL0     H33506  -0.217   7.688   5.277 -1.1691  0.2896  0.0668
  254MOL0     H33507  -0.229   7.780   5.122  0.6577 -0.4015 -0.6836
  254MOL0     H33508  -0.020   7.665   5.132 -0.9540 -1.9535  2.1710
  254MOL0     H33509   0.033   7.729   5.278  0.7682  1.1624  0.9799
  254MOL0     H33510  -0.166   8.300   4.596  2.2782  3.7105 -0.5780
  254MOL0     H33511   0.061   8.247   4.551 -0.7415 -1.2601 -0.5302
  254MOL0     H33512   0.548   8.356   4.906  0.2247 -3.9893  0.1853
  254MOL0     H33513   0.752   8.452   4.788 -0.3261 -1.6673 -0.1269
  254MOL0     H33514   2.028   9.216   3.693 -0.8470 -5.0771  0.6415
  254MOL0     H33515   2.158   9.291   3.481  0.7084  1.5495  0.0047
  254MOL0     H33516   2.427   9.197   3.172 -3.9258  1.3083 -1.7454
  254MOL0     H33517   2.487   9.259   2.950  1.2926 -2.4895  2.8573
  254MOL0     H33518   2.418   9.417   2.778 -0.0614  0.8474 -2.4254
  254MOL0     H33519   2.573   9.351   2.743  0.0210 -0.7716  2.5214
  254MOL0     H33520   2.641   9.539   2.621 -0.0145 -4.0155 -2.3721
  254MOL0     H33521   2.481   9.479   2.558 -1.7093 -0.8506  1.8324
  254MOL0     H33522   2.477   9.737   2.570  0.3830 -0.5462 -0.7473
  254MOL0     H33523   2.520   9.701   2.750  1.2529 -1.3877  0.6283
  254MOL0     H33524   2.264   9.678   2.583 -2.8170 -2.0930  1.9933
  254MOL0     H33525   2.292   9.567   2.717  2.0572  0.1875  0.9555
  254MOL0     H33526   2.236   9.935   2.902  1.0343 -1.8712  1.7323
  254MOL0     H33527   2.562   9.661   3.090  2.4205 -0.0375  0.5796
  254MOL0     H33528   2.524   9.599   3.315  0.4636  1.3544 -1.4659
  255MOL0     O33529   5.766   4.692   9.980 -0.4359  0.2501 -0.3879
  255MOL0     C33530   5.692   4.654  10.072  0.3925  0.6704 -0.0168
  255MOL0     O33531   5.585   4.720  10.124  0.3399 -0.3265 -0.2631
  255MOL0     C33532   5.557   4.848  10.082 -0.0575 -1.3856 -0.3412
  255MOL0     C33533   5.421   4.881  10.102 -0.2563  0.2362 -0.7347
  255MOL0     C33534   5.347   4.992  10.066 -0.0197 -0.6661  0.8110
  255MOL0     C33535   5.426   5.099  10.012  1.0130 -0.0603  0.3157
  255MOL0     O33536   5.379   5.221   9.975  0.3468 -1.0942 -0.1810
  255MOL0     C33537   5.341   5.311  10.083 -1.0821 -0.6131 -0.3722
  255MOL0     C33538   5.462   5.384  10.150 -0.1940 -0.0540  0.8867
  255MOL0     C33539   5.575   5.436  10.058  0.1837 -0.8387 -0.0095
  255MOL0     C33540   5.711   5.428  10.128 -0.5743 -0.6127  0.6616
  255MOL0     C33541   5.830   5.467  10.035 -0.1934 -0.0580 -0.8370
  255MOL0     C33542   5.805   5.598   9.971  0.1584  0.1209  0.8141
  255MOL0     C33543   5.931   5.649   9.902  0.0629  0.1164 -1.2968
  255MOL0     C33544   5.908   5.780   9.842  0.7265  1.0919  0.0513
  255MOL0     N33545   6.015   5.853   9.762  0.0579 -0.5771  0.1395
  255MOL0     C33546   6.135   5.876   9.824 -0.4143 -0.0459  0.6373
  255MOL0     C33547   6.199   5.963   9.748 -1.0010 -0.2507  1.1835
  255MOL0     C33548   6.350   6.001   9.776 -0.4617  0.3437 -0.3679
  255MOL0     C33549   6.384   6.123   9.687 -0.2366  0.0220  0.5556
  255MOL0     C33550   6.369   6.262   9.743 -0.3444 -0.2771 -0.7579
  255MOL0     C33551   6.405   6.269   9.894  0.0455 -0.4962  0.0231
  255MOL0     O33552   6.546   6.257   9.905  0.4396  0.0961  1.1355
  255MOL0     C33553   6.605   6.264  10.032 -0.4804 -0.8096 -0.4904
  255MOL0     C33554   6.543   6.280  10.150 -0.1040 -0.7926 -0.2642
  255MOL0     C33555   6.620   6.290  10.268 -0.3960  0.3611 -1.6230
  255MOL0     C33556   6.764   6.298  10.267  0.0334 -0.4256 -0.6687
  255MOL0     C33557   6.843   6.327  10.389 -0.3285 -0.6657  0.0239
  255MOL0     O33558   6.977   6.321  10.370  0.0891 -0.3100  0.7735
  255MOL0     C33559   7.060   6.330  10.476 -1.2125  1.0968 -0.3541
  255MOL0     C33560   7.079   6.210  10.557 -0.2306 -0.5491  0.1565
  255MOL0     C33561   7.175   6.209  10.661  0.3788 -0.0252 -0.7863
  255MOL0     C33562   7.243   6.329  10.685 -0.4510 -0.1694  0.5022
  255MOL0     O33563   7.338   6.334  10.787  0.0112  0.7742 -0.1392
  255MOL0     C33564   7.467   6.318  10.730 -0.1487 -0.2296 -0.2589
  255MOL0     C33565   7.582   6.357  10.828  0.9739  1.0714  0.6540
  255MOL0     C33566   7.628   6.503  10.805  0.3144  0.6503  0.5625
  255MOL0     C33567   7.700   6.531  10.673 -0.8719  0.0870  0.4510
  255MOL0     C33568   7.768   6.670  10.681  0.0248  0.5856 -0.3833
  255MOL0     C33569   7.823   6.722  10.547  0.6729 -0.3049 -0.1146
  255MOL0     C33570   7.895   6.862  10.567 -0.0913  0.2961  0.6504
  255MOL0     C33571   7.909   6.947  10.439  0.8391  0.2783  0.3627
  255MOL0    Cl33572   7.749   6.955  10.356  0.1379  0.4074  0.6606
  255MOL0     C33573   7.222   6.449  10.612 -0.2795  0.3781  0.2438
  255MOL0     C33574   7.133   6.453  10.506  0.3902  0.5896  0.1820
  255MOL0     O33575   6.784   6.349  10.498 -0.0581  1.2197 -0.0634
  255MOL0     C33576   6.824   6.283  10.143  0.2987 -0.6050  0.6351
  255MOL0     C33577   6.748   6.273  10.032  0.9613 -0.1483 -0.1550
  255MOL0     N33578   6.112   6.011   9.657  0.1956 -0.1896  1.1981
  255MOL0     N33579   5.998   5.949   9.677  0.5694 -0.0175  0.2849
  255MOL0     C33580   5.565   5.081   9.988  0.7408 -0.2047 -1.4020
  255MOL0     C33581   5.634   4.959  10.032 -0.1920  0.2423  0.2472
  255MOL0     C33582   5.709   4.515  10.121  0.5432  0.5004 -0.0531
  255MOL0     C33583   5.595   4.462  10.180  0.1805 -0.5997 -0.5419
  255MOL0     C33584   5.602   4.324  10.222 -0.5174 -0.8248 -1.2514
  255MOL0     C33585   5.725   4.248  10.219  0.6740 -0.7064  1.2739
  255MOL0     O33586   5.735   4.120  10.269  0.2451 -0.1824  0.2115
  255MOL0     C33587   5.632   4.074  10.369 -0.1584 -0.4513  0.9242
  255MOL0     C33588   5.674   3.987  10.483  0.0183  0.6717 -0.6297
  255MOL0     C33589   5.750   3.868  10.422  0.0922  0.1611  0.9550
  255MOL0     C33590   5.779   3.769  10.532  0.6744  0.7170 -0.5677
  255MOL0     C33591   5.907   3.699  10.516  0.3397  0.0416  0.8821
  255MOL0     C33592   6.016   3.646  10.517  0.8901 -0.0044 -0.1640
  255MOL0     C33593   5.832   4.310  10.147  0.5892  0.4461 -0.4960
  255MOL0     C33594   5.825   4.443  10.110 -0.7908  0.1743 -0.3213
  255MOL0     H33595   5.373   4.794  10.144  1.5317  0.9782  3.3802
  255MOL0     H33596   5.240   4.990  10.083 -0.2214  1.5647  0.0643
  255MOL0     H33597   5.298   5.255  10.167 -0.6966 -2.6375 -1.4387
  255MOL0     H33598   5.266   5.382  10.047 -0.1209  0.0025 -1.2313
  255MOL0     H33599   5.515   5.316  10.216  4.0042  0.5028 -1.5919
  255MOL0     H33600   5.421   5.476  10.194 -3.4531 -1.1183  0.3695
  255MOL0     H33601   5.562   5.541  10.030  1.0552 -0.7954 -0.2942
  255MOL0     H33602   5.585   5.377   9.966  2.1188 -2.8276  1.3866
  255MOL0     H33603   5.720   5.503  10.208  0.4022 -0.4163  0.3870
  255MOL0     H33604   5.716   5.325  10.165  0.0443 -0.7466  0.2112
  255MOL0     H33605   5.844   5.403   9.948 -0.0335  1.9212 -2.3402
  255MOL0     H33606   5.926   5.470  10.086 -0.4240  0.0504 -0.3998
  255MOL0     H33607   5.784   5.670  10.050  0.2387  1.2895 -0.1980
  255MOL0     H33608   5.724   5.596   9.897  0.4388  0.2030  0.5044
  255MOL0     H33609   6.015   5.659   9.971 -0.0841 -2.4471 -0.6206
  255MOL0     H33610   5.955   5.576   9.824  0.8413 -0.1110 -0.8519
  255MOL0     H33611   5.868   5.850   9.916  1.4164  0.5182  0.9805
  255MOL0     H33612   5.828   5.768   9.768 -0.5882  2.0970  1.2499
  255MOL0     H33613   6.171   5.830   9.915  0.3164 -0.7470  0.0057
  255MOL0     H33614   6.404   5.910   9.751 -0.9344 -0.3476  1.0020
  255MOL0     H33615   6.375   6.016   9.882 -2.4208  1.9220 -0.0698
  255MOL0     H33616   6.320   6.123   9.598  2.2851 -1.0629 -1.3667
  255MOL0     H33617   6.489   6.115   9.660 -0.5015 -0.2704 -0.4347
  255MOL0     H33618   6.431   6.318   9.673 -3.0638  0.6382 -2.5889
  255MOL0     H33619   6.264   6.288   9.726 -0.7733 -2.1730 -1.2524
  255MOL0     H33620   6.369   6.188   9.958  3.4282  0.1487  3.0758
  255MOL0     H33621   6.366   6.355   9.949  0.8119 -0.0115 -0.1698
  255MOL0     H33622   6.435   6.279  10.158  0.0154 -0.2053  1.7579
  255MOL0     H33623   6.580   6.306  10.368  1.6732  1.7895 -0.9613
  255MOL0     H33624   7.040   6.109  10.548 -3.2098  0.3554  1.5429
  255MOL0     H33625   7.194   6.123  10.723 -0.5570 -0.0805 -0.5614
  255MOL0     H33626   7.473   6.380  10.641  0.9765  0.5506  0.3440
  255MOL0     H33627   7.481   6.213  10.701 -2.0544 -0.8065  0.7181
  255MOL0     H33628   7.673   6.300  10.813  0.7310  1.0249 -0.8544
  255MOL0     H33629   7.548   6.337  10.930  0.3656  1.1951  0.4847
  255MOL0     H33630   7.693   6.515  10.892  2.4115 -3.0528 -0.2709
  255MOL0     H33631   7.543   6.571  10.820 -1.1972 -1.1228  0.4409
  255MOL0     H33632   7.789   6.467  10.671  0.9024  2.2221  3.0103
  255MOL0     H33633   7.634   6.513  10.588 -1.4056 -3.4660  1.4527
  255MOL0     H33634   7.840   6.654  10.761  2.5714 -0.6604 -2.7650
  255MOL0     H33635   7.692   6.739  10.720  1.9214  3.8089 -1.9967
  255MOL0     H33636   7.736   6.737  10.483  2.1215 -3.0771 -2.9906
  255MOL0     H33637   7.872   6.632  10.508  0.1473 -2.1596  3.0967
  255MOL0     H33638   7.845   6.911  10.651  0.3069 -0.4620  1.3524
  255MOL0     H33639   7.996   6.855  10.610  0.7705 -1.5705 -1.4758
  255MOL0     H33640   7.986   6.912  10.370  1.6789  0.3172  1.2508
  255MOL0     H33641   7.950   7.044  10.470 -3.1470  2.0362  0.7852
  255MOL0     H33642   7.275   6.542  10.632  0.2512  0.4593 -1.3918
  255MOL0     H33643   7.128   6.545  10.449 -1.3784  0.5756  0.2635
  255MOL0     H33644   6.931   6.281  10.125  0.2535  0.3691  0.1898
  255MOL0     H33645   6.801   6.254   9.940  2.4627  2.6594  0.0286
  255MOL0     H33646   5.622   5.160   9.943  0.0990  0.4226 -1.1335
  255MOL0     H33647   5.734   4.939   9.997 -0.3499  1.5408 -1.0096
  255MOL0     H33648   5.499   4.511  10.188  1.1584  1.0520  3.1197
  255MOL0     H33649   5.512   4.277  10.261 -0.2296  0.2222  0.8127
  255MOL0     H33650   5.540   4.045  10.317  0.4014  2.0235 -1.6838
  255MOL0     H33651   5.613   4.171  10.416 -1.4891  0.1911 -0.8449
  255MOL0     H33652   5.741   4.040  10.550  0.6211  0.0411 -0.7146
  255MOL0     H33653   5.585   3.952  10.536 -0.3655 -2.5708 -3.0382
  255MOL0     H33654   5.837   3.903  10.366 -0.0147 -3.3641 -1.7807
  255MOL0     H33655   5.678   3.809  10.364 -0.5663 -0.4403  2.3422
  255MOL0     H33656   5.787   3.817  10.630  1.1762 -2.0403  0.8401
  255MOL0     H33657   5.702   3.693  10.550  0.2721  0.8818 -1.5220
  255MOL0     H33658   6.110   3.595  10.529  0.8753 -0.5625 -2.1608
  255MOL0     H33659   5.929   4.262  10.138 -0.2551 -0.9207 -3.6519
  255MOL0     H33660   5.917   4.490  10.077 -0.9425  1.0625  0.4767
  256MOL0     O33661  11.258   0.755   5.420  0.6111 -0.0895 -1.1104
  256MOL0     C33662  11.271   0.674   5.511 -0.0180 -0.1359  0.4800
  256MOL0     O33663  11.188   0.667   5.619  0.0203 -0.4244 -0.5545
  256MOL0     C33664  11.074   0.746   5.612  0.1769 -0.4401  0.2314
  256MOL0     C33665  10.979   0.746   5.500 -0.6098 -0.1502 -0.5296
  256MOL0     C33666  10.864   0.809   5.504  0.0423 -1.6046 -0.2141
  256MOL0     C33667  10.832   0.892   5.614  0.3267  0.0155 -0.5605
  256MOL0     O33668  10.725   0.968   5.619  0.6267  0.1546 -0.2403
  256MOL0     C33669  10.737   1.094   5.545 -0.4998  0.0847 -0.5558
  256MOL0     C33670  10.608   1.170   5.519 -0.3987 -0.5072 -0.9429
  256MOL0     C33671  10.529   1.089   5.416 -0.3222 -1.3076 -0.4012
  256MOL0     C33672  10.383   1.143   5.405 -0.1914  0.4952  0.0624
  256MOL0     C33673  10.280   1.053   5.325 -0.6711  0.2574 -0.1391
  256MOL0     C33674  10.248   0.914   5.384 -0.4696  0.4463  0.3190
  256MOL0     C33675  10.166   0.834   5.290  1.1632 -0.0835  0.6092
  256MOL0     C33676  10.185   0.686   5.325 -0.3037 -0.3974 -0.3372
  256MOL0     N33677  10.142   0.584   5.226 -0.2777  0.6340  0.4233
  256MOL0     C33678  10.161   0.594   5.091 -0.6439 -0.3077  0.0404
  256MOL0     C33679  10.102   0.489   5.032 -0.4195  1.3087 -0.4546
  256MOL0     C33680  10.082   0.472   4.881 -0.1777  0.4932 -1.0222
  256MOL0     C33681  10.212   0.447   4.802 -0.1898 -0.4002  0.4803
  256MOL0     C33682  10.288   0.321   4.848  0.4821  0.1578  0.4060
  256MOL0     C33683  10.226   0.195   4.780  0.4293 -1.2599 -0.4016
  256MOL0     O33684  10.215   0.215   4.636  0.0517 -0.1719  0.7802
  256MOL0     C33685  10.153   0.115   4.559 -0.0295 -0.5167 -0.3673
  256MOL0     C33686  10.151   0.135   4.421  0.0949  0.1638 -0.7269
  256MOL0     C33687  10.081   0.039   4.339  0.1355 -0.5111  0.5489
  256MOL0     C33688  10.029  -0.081   4.390  0.4662  0.9233 -0.2672
  256MOL0     C33689   9.968  -0.184   4.305  0.3327  0.2031 -0.8892
  256MOL0     O33690   9.895  -0.281   4.368 -0.3769 -0.2256  0.5286
  256MOL0     C33691   9.825  -0.373   4.281 -0.4309 -0.9163 -0.4192
  256MOL0     C33692   9.708  -0.312   4.228  0.0059  0.8063  0.2890
  256MOL0     C33693   9.637  -0.389   4.135 -0.2229  0.3197 -0.8871
  256MOL0     C33694   9.676  -0.503   4.075 -0.0976  0.1714  0.0046
  256MOL0     O33695   9.609  -0.548   3.960 -0.2623  0.6248 -0.5003
  256MOL0     C33696   9.547  -0.681   3.982 -0.5692 -0.2737  0.4619
  256MOL0     C33697   9.436  -0.702   3.872  0.1198 -1.4184 -0.0973
  256MOL0     C33698   9.509  -0.753   3.748  0.5258 -0.4237  0.5848
  256MOL0     C33699   9.404  -0.797   3.643  0.4959 -0.1306 -0.2168
  256MOL0     C33700   9.490  -0.855   3.522  0.8844  0.7840  0.5351
  256MOL0     C33701   9.407  -0.857   3.389 -1.0211 -0.7834  0.1420
  256MOL0     C33702   9.511  -0.869   3.277 -0.4902  0.2642  0.8317
  256MOL0     C33703   9.458  -0.828   3.133  0.3188  0.0009 -0.3921
  256MOL0    Cl33704   9.394  -0.660   3.131 -0.2203  0.2817 -0.2019
  256MOL0     C33705   9.773  -0.568   4.146 -0.4251  0.1620  0.6780
  256MOL0     C33706   9.856  -0.502   4.239  0.9164  0.3111  0.3288
  256MOL0     O33707   9.970  -0.167   4.183 -0.4198  0.0335 -0.2184
  256MOL0     C33708  10.030  -0.085   4.526  0.3218  0.5409  0.0800
  256MOL0     C33709  10.085   0.013   4.609 -0.3373  1.1499 -0.1657
  256MOL0     N33710  10.061   0.405   5.136 -0.3137 -0.2400 -0.5590
  256MOL0     N33711  10.077   0.465   5.255  0.4886  0.7499  0.4720
  256MOL0     C33712  10.927   0.896   5.724  0.7508 -0.5808  0.1732
  256MOL0     C33713  11.049   0.836   5.715  0.9950 -0.0882  1.0039
  256MOL0     C33714  11.374   0.570   5.493 -0.5151  0.4809  0.4023
  256MOL0     C33715  11.352   0.444   5.552  0.5039 -1.1795  0.1845
  256MOL0     C33716  11.445   0.345   5.530 -0.2487 -0.2383  0.1303
  256MOL0     C33717  11.554   0.361   5.436 -0.2969  0.2842  0.0723
  256MOL0     O33718  11.632   0.242   5.417  0.8232 -0.8048 -0.0694
  256MOL0     C33719  11.734   0.239   5.312  1.1982 -0.4835  0.1914
  256MOL0     C33720  11.810   0.111   5.311  0.1810  0.5346 -0.7010
  256MOL0     C33721  11.875   0.082   5.448 -0.0533  0.5135  0.2025
  256MOL0     C33722  11.943  -0.055   5.448 -0.7976 -0.2794 -0.5617
  256MOL0     C33723  11.842  -0.161   5.457  0.2578  0.1600  0.3072
  256MOL0     C33724  11.759  -0.250   5.468  0.1222  1.2103  0.8714
  256MOL0     C33725  11.569   0.486   5.382  0.4114 -0.2185  0.2980
  256MOL0     C33726  11.481   0.586   5.402 -0.0041  0.3343  0.2419
  256MOL0     H33727  10.997   0.699   5.404 -0.0997  0.7083 -0.8714
  256MOL0     H33728  10.790   0.805   5.425 -1.1179 -1.2044  0.8201
  256MOL0     H33729  10.787   1.091   5.448 -2.0487 -0.8351 -1.3654
  256MOL0     H33730  10.794   1.167   5.603  2.7336 -0.5727 -2.6774
  256MOL0     H33731  10.627   1.273   5.489 -1.2958  0.4671  1.5661
  256MOL0     H33732  10.562   1.165   5.618 -2.0554  0.0844 -1.6532
  256MOL0     H33733  10.528   0.982   5.439 -3.8383 -1.8292 -2.2015
  256MOL0     H33734  10.578   1.109   5.321  1.0735  2.5963  0.9181
  256MOL0     H33735  10.343   1.137   5.507  1.7786 -2.2525  0.7831
  256MOL0     H33736  10.387   1.242   5.359 -0.2171  0.5215  0.1175
  256MOL0     H33737  10.318   1.067   5.223 -2.4363  6.3166 -0.3879
  256MOL0     H33738  10.184   1.102   5.308  0.1461  1.7657 -0.6367
  256MOL0     H33739  10.189   0.926   5.475 -2.2711  2.1736 -0.9833
  256MOL0     H33740  10.344   0.870   5.413  0.0837  2.6805  2.1173
  256MOL0     H33741  10.060   0.860   5.289  1.3615  0.7982 -1.0075
  256MOL0     H33742  10.198   0.851   5.187 -0.2409  0.3904  0.2305
  256MOL0     H33743  10.134   0.672   5.421  0.6347  2.9718  0.7540
  256MOL0     H33744  10.291   0.662   5.339 -0.1043  0.8064  0.3518
  256MOL0     H33745  10.202   0.677   5.035  0.3685 -1.2085 -0.5739
  256MOL0     H33746  10.021   0.552   4.838  3.1252  2.6731 -2.0263
  256MOL0     H33747  10.030   0.376   4.880  2.4867 -1.1346  1.8561
  256MOL0     H33748  10.279   0.528   4.833  0.2448  0.1773 -1.8036
  256MOL0     H33749  10.203   0.452   4.693 -1.2697  2.1461  0.5973
  256MOL0     H33750  10.392   0.339   4.818 -0.0588 -0.1012 -1.7942
  256MOL0     H33751  10.278   0.314   4.957 -0.0813 -2.0960  0.2581
  256MOL0     H33752  10.134   0.153   4.821  0.8908 -1.0641  0.8744
  256MOL0     H33753  10.305   0.121   4.794  0.4580 -0.9945  0.9555
  256MOL0     H33754  10.188   0.234   4.396  1.6097 -0.1950 -0.0121
  256MOL0     H33755  10.077   0.044   4.230  0.2968 -3.0364  0.3600
  256MOL0     H33756   9.685  -0.206   4.240 -2.2894  0.7962 -2.7687
  256MOL0     H33757   9.542  -0.357   4.094 -1.5452 -1.4516  0.5889
  256MOL0     H33758   9.497  -0.685   4.080  0.4507 -1.9801  0.9472
  256MOL0     H33759   9.625  -0.756   3.974 -0.9304 -0.4747 -2.2049
  256MOL0     H33760   9.387  -0.606   3.851  1.1000 -0.4113  1.8554
  256MOL0     H33761   9.356  -0.763   3.912 -2.3680  1.0927 -0.9018
  256MOL0     H33762   9.588  -0.824   3.773  3.4592  2.8945  1.6123
  256MOL0     H33763   9.569  -0.669   3.712  2.5235 -0.3484  3.7207
  256MOL0     H33764   9.340  -0.883   3.664 -1.1502  0.5145 -2.2812
  256MOL0     H33765   9.343  -0.715   3.606  0.0725 -0.9463 -1.3617
  256MOL0     H33766   9.539  -0.952   3.535  1.6592  0.4338 -3.6258
  256MOL0     H33767   9.575  -0.787   3.511 -0.1316  2.0513  0.2220
  256MOL0     H33768   9.365  -0.756   3.390  1.4926  0.3577 -0.7708
  256MOL0     H33769   9.326  -0.931   3.383 -2.1897  0.5698 -1.4673
  256MOL0     H33770   9.603  -0.813   3.292  0.3689 -1.6602  3.4937
  256MOL0     H33771   9.548  -0.971   3.280  2.6448  1.2631  0.0872
  256MOL0     H33772   9.376  -0.886   3.090 -0.9473 -0.2942  2.1897
  256MOL0     H33773   9.542  -0.842   3.064  1.7743  1.3806  1.0099
  256MOL0     H33774   9.777  -0.673   4.118  1.6349  0.6423 -1.2214
  256MOL0     H33775   9.935  -0.545   4.300  0.6635  0.9978  1.1661
  256MOL0     H33776   9.976  -0.168   4.572 -1.7377 -0.1667 -3.2750
  256MOL0     H33777  10.065  -0.007   4.714  1.5954 -1.4748 -0.1896
  256MOL0     H33778  10.891   0.944   5.815  1.5036 -1.3798  0.9103
  256MOL0     H33779  11.107   0.861   5.803 -1.4222  0.5766  2.4893
  256MOL0     H33780  11.267   0.431   5.619 -2.8126  1.3964 -3.0782
  256MOL0     H33781  11.434   0.254   5.587  0.0734 -0.9824 -0.9525
  256MOL0     H33782  11.807   0.315   5.341  3.3215 -2.3721  0.0531
  256MOL0     H33783  11.689   0.257   5.214  1.4205  1.4983  0.4148
  256MOL0     H33784  11.731   0.035   5.305  0.9837 -0.2570 -1.8584
  256MOL0     H33785  11.880   0.097   5.228 -1.2604  0.9576 -2.0367
  256MOL0     H33786  11.799   0.092   5.526 -0.7886  2.4769 -0.6938
  256MOL0     H33787  11.958   0.152   5.467 -0.4637  1.1658 -0.3486
  256MOL0     H33788  12.007  -0.074   5.362 -4.0180 -1.8190 -2.8489
  256MOL0     H33789  12.009  -0.059   5.535  0.0912  0.4672 -1.1915
  256MOL0     H33790  11.696  -0.333   5.490  0.1715  0.1195 -2.5224
  256MOL0     H33791  11.658   0.512   5.325 -1.0976 -0.5226 -2.3590
  256MOL0     H33792  11.495   0.678   5.346  0.8601  0.9280  1.4076
  257MOL0     O33793   1.462   2.346   8.591  0.5614 -0.1986  0.5930
  257MOL0     C33794   1.408   2.239   8.567  0.0866 -0.3477  0.3810
  257MOL0     O33795   1.288   2.225   8.525 -0.1277  0.2564 -0.4108
  257MOL0     C33796   1.194   2.321   8.498 -0.3290  0.0448  1.1646
  257MOL0     C33797   1.062   2.272   8.493  0.4911  0.0318 -1.1897
  257MOL0     C33798   0.950   2.355   8.486 -0.3628 -0.5376  0.0860
  257MOL0     C33799   0.970   2.498   8.474  0.3059  0.3673  0.7077
  257MOL0     O33800   0.870   2.584   8.430 -0.2077 -0.6767 -0.9932
  257MOL0     C33801   0.736   2.546   8.477  0.2621 -1.0592  0.6002
  257MOL0     C33802   0.663   2.514   8.351  0.4069 -0.2767 -0.6226
  257MOL0     C33803   0.534   2.440   8.395  0.4686  0.5259  0.2971
  257MOL0     C33804   0.427   2.532   8.451  0.3731 -0.4890  0.5442
  257MOL0     C33805   0.299   2.447   8.486  0.0204  0.7096 -0.1803
  257MOL0     C33806   0.186   2.535   8.541  0.0123  0.3831 -0.2984
  257MOL0     C33807   0.076   2.447   8.609  0.4503  0.6158  0.3490
  257MOL0     C33808   0.111   2.412   8.759  0.0812  1.0486 -0.5166
  257MOL0     N33809  -0.010   2.379   8.830 -0.0162  0.0556 -0.8864
  257MOL0     C33810  -0.105   2.291   8.781 -0.7062 -0.3582  0.1068
  257MOL0     C33811  -0.211   2.323   8.852  0.5533 -0.4170 -0.1056
  257MOL0     C33812  -0.344   2.263   8.858 -0.0470 -0.4238 -0.3765
  257MOL0     C33813  -0.328   2.141   8.948 -1.0229  0.0936  0.2051
  257MOL0     C33814  -0.469   2.073   8.962  0.2624 -0.4243 -0.3982
  257MOL0     C33815  -0.511   2.039   9.101 -0.5200  0.1630 -0.1193
  257MOL0     O33816  -0.471   1.909   9.143 -0.6383 -0.0469  0.2521
  257MOL0     C33817  -0.394   1.876   9.247 -0.6231 -0.3202  0.1412
  257MOL0     C33818  -0.370   1.746   9.291 -0.8928 -0.1473  0.4889
  257MOL0     C33819  -0.280   1.711   9.392 -0.3828 -0.1852  0.4735
  257MOL0     C33820  -0.216   1.815   9.464 -0.1207  0.6130 -0.4570
  257MOL0     C33821  -0.141   1.782   9.584  0.9946  0.5626 -1.0523
  257MOL0     O33822  -0.133   1.881   9.675 -0.8024  0.4086 -0.6537
  257MOL0     C33823  -0.118   1.844   9.808 -0.5176 -1.3796  0.0965
  257MOL0     C33824   0.006   1.825   9.875 -0.0951  0.6693 -0.2169
  257MOL0     C33825   0.014   1.805  10.012 -0.9640  0.2559 -1.0969
  257MOL0     C33826  -0.104   1.818  10.092 -0.6184  0.0532 -0.3992
  257MOL0     O33827  -0.113   1.817  10.226  0.0039  0.0774 -0.2204
  257MOL0     C33828  -0.007   1.768  10.307  0.1795  0.3362  0.7615
  257MOL0     C33829  -0.037   1.777  10.454 -0.2906 -0.4334  0.1978
  257MOL0     C33830   0.077   1.715  10.545 -0.8790  0.0588  0.3759
  257MOL0     C33831   0.036   1.735  10.688 -0.1675  0.2277  0.5741
  257MOL0     C33832   0.157   1.714  10.785 -0.0709  0.6722  0.2699
  257MOL0     C33833   0.133   1.754  10.937 -0.6748  0.5286  0.5089
  257MOL0     C33834   0.263   1.747  11.021 -0.1012  0.0510 -0.7227
  257MOL0     C33835   0.234   1.850  11.134  0.4642 -0.4998  0.7887
  257MOL0    Cl33836   0.263   2.020  11.072 -0.3045 -0.2412  0.2567
  257MOL0     C33837  -0.224   1.848  10.022 -0.6430 -0.6999 -0.4118
  257MOL0     C33838  -0.225   1.863   9.884 -0.3112 -0.0380  0.2913
  257MOL0     O33839  -0.117   1.662   9.607  0.7205 -0.4215 -0.5297
  257MOL0     C33840  -0.220   1.938   9.415  0.3221  0.1383 -0.8998
  257MOL0     C33841  -0.306   1.973   9.308  1.0114 -0.3264 -0.1019
  257MOL0     N33842  -0.184   2.430   8.934  0.8788  0.5868 -0.2663
  257MOL0     N33843  -0.061   2.459   8.927 -0.2422 -0.2835  0.4367
  257MOL0     C33844   1.100   2.544   8.475  0.0435  0.1899  0.9539
  257MOL0     C33845   1.210   2.458   8.493  1.0479  0.1818  0.4921
  257MOL0     C33846   1.484   2.112   8.591 -0.6009 -0.6750 -0.1047
  257MOL0     C33847   1.430   1.980   8.564  0.3139 -0.6584 -0.1737
  257MOL0     C33848   1.500   1.861   8.598  0.2317  0.0552 -0.7664
  257MOL0     C33849   1.628   1.882   8.656 -0.5169 -0.1042 -1.4507
  257MOL0     O33850   1.718   1.779   8.691  0.4661  0.4406 -0.0689
  257MOL0     C33851   1.683   1.645   8.638 -0.0498  1.0316 -0.4047
  257MOL0     C33852   1.824   1.577   8.623  0.6118 -0.2919 -0.6011
  257MOL0     C33853   1.813   1.427   8.664  0.1556 -0.7619 -0.1091
  257MOL0     C33854   1.945   1.353   8.645 -0.6025 -0.0010  0.3024
  257MOL0     C33855   1.988   1.361   8.503  0.0359  1.2210 -0.0652
  257MOL0     C33856   2.048   1.373   8.400 -0.0183 -0.0127 -0.1099
  257MOL0     C33857   1.674   1.999   8.696 -0.4953 -1.0541  0.8384
  257MOL0     C33858   1.603   2.112   8.664 -0.2942 -0.0458  0.4528
  257MOL0     H33859   1.040   2.167   8.508 -1.8670  0.7883  1.5560
  257MOL0     H33860   0.855   2.306   8.468 -0.1883 -0.3224 -1.5684
  257MOL0     H33861   0.681   2.631   8.518 -0.1624 -0.1983 -1.5955
  257MOL0     H33862   0.726   2.458   8.541 -3.3633 -1.4539 -0.2789
  257MOL0     H33863   0.740   2.461   8.293  1.9033  2.2133 -1.0679
  257MOL0     H33864   0.643   2.597   8.283 -1.9232  0.4801  0.8976
  257MOL0     H33865   0.556   2.359   8.466  1.7468  1.2901  0.8241
  257MOL0     H33866   0.506   2.373   8.313  0.1199 -3.1497  3.1524
  257MOL0     H33867   0.460   2.576   8.545 -2.4516  1.5824  0.7098
  257MOL0     H33868   0.403   2.608   8.376  0.3893 -1.2422 -0.2459
  257MOL0     H33869   0.328   2.360   8.545  0.7295  0.8325 -0.3365
  257MOL0     H33870   0.255   2.392   8.403 -0.0524 -0.6461  0.7336
  257MOL0     H33871   0.158   2.613   8.469 -3.5466 -0.3811  0.0962
  257MOL0     H33872   0.239   2.592   8.618 -0.5638  0.3281  0.1476
  257MOL0     H33873  -0.018   2.503   8.597  0.4260  1.1551  2.5629
  257MOL0     H33874   0.060   2.353   8.556  2.3479 -1.1913  2.7419
  257MOL0     H33875   0.159   2.495   8.812 -1.3253  3.3128 -2.5815
  257MOL0     H33876   0.177   2.325   8.768 -0.0051  0.9565 -0.7827
  257MOL0     H33877  -0.101   2.224   8.696 -2.5186 -2.3105  1.4451
  257MOL0     H33878  -0.361   2.240   8.752  0.3330  1.6526 -0.9279
  257MOL0     H33879  -0.432   2.322   8.886 -1.4987 -3.0554  1.0091
  257MOL0     H33880  -0.284   2.141   9.048 -1.2741 -0.2068  0.3157
  257MOL0     H33881  -0.256   2.073   8.901 -0.5714 -0.3118  1.4457
  257MOL0     H33882  -0.540   2.139   8.911  0.5994 -0.9417 -1.5702
  257MOL0     H33883  -0.454   1.977   8.910  2.7875 -0.5661  0.4781
  257MOL0     H33884  -0.619   2.057   9.101 -0.1447  3.1014 -1.1179
  257MOL0     H33885  -0.468   2.114   9.168 -1.3554  0.9009 -0.3910
  257MOL0     H33886  -0.423   1.669   9.236 -1.5794  0.3670  0.4051
  257MOL0     H33887  -0.278   1.603   9.403  0.3730 -0.8260 -4.0056
  257MOL0     H33888   0.091   1.816   9.809  0.6938  3.0813  0.3969
  257MOL0     H33889   0.112   1.793  10.059 -2.7365 -0.4390  2.7927
  257MOL0     H33890   0.094   1.808  10.295  1.2554 -2.6308 -1.5605
  257MOL0     H33891   0.008   1.661  10.287  3.1688  0.7598  0.2207
  257MOL0     H33892  -0.121   1.708  10.470  1.3763 -3.0081 -1.4582
  257MOL0     H33893  -0.069   1.878  10.481 -0.8805  0.5715 -3.6333
  257MOL0     H33894   0.172   1.766  10.528 -0.4415 -0.7548  0.3183
  257MOL0     H33895   0.070   1.609  10.517  0.6215 -0.2413  1.0638
  257MOL0     H33896  -0.004   1.835  10.702  2.0181  1.5092 -1.5765
  257MOL0     H33897  -0.042   1.663  10.716  0.2712  0.1543  1.6714
  257MOL0     H33898   0.238   1.781  10.754  0.6065  1.6217  3.6221
  257MOL0     H33899   0.195   1.613  10.770 -2.1094  0.2729 -3.0624
  257MOL0     H33900   0.061   1.682  10.975 -1.3370  0.8132 -0.1851
  257MOL0     H33901   0.085   1.852  10.951 -1.1141  0.8168 -2.3681
  257MOL0     H33902   0.257   1.649  11.071 -0.1681  0.2868 -0.2633
  257MOL0     H33903   0.361   1.751  10.973  0.0236 -0.3333 -0.5104
  257MOL0     H33904   0.305   1.835  11.216  1.7192  0.4850 -0.0808
  257MOL0     H33905   0.133   1.839  11.175  0.5166 -3.3204  0.3801
  257MOL0     H33906  -0.314   1.858  10.082  0.9954  0.4942  2.0320
  257MOL0     H33907  -0.311   1.889   9.824 -0.2522 -1.2684 -0.3659
  257MOL0     H33908  -0.162   2.021   9.455  2.4233 -1.8781  0.4770
  257MOL0     H33909  -0.307   2.073   9.265 -2.1171  1.8431  4.2721
  257MOL0     H33910   1.131   2.644   8.446 -0.6554  0.4832  1.2082
  257MOL0     H33911   1.302   2.514   8.480  0.4899  1.4017  1.5443
  257MOL0     H33912   1.332   1.964   8.522 -0.4651 -2.5192  2.1426
  257MOL0     H33913   1.438   1.772   8.595 -1.3831  1.0346  1.0163
  257MOL0     H33914   1.640   1.634   8.538 -1.9118 -0.2367  0.4955
  257MOL0     H33915   1.611   1.599   8.706 -1.2414  1.1139 -1.5699
  257MOL0     H33916   1.868   1.593   8.524  0.8919 -0.6405 -0.5338
  257MOL0     H33917   1.888   1.620   8.701 -1.6193 -0.7746  1.6128
  257MOL0     H33918   1.726   1.388   8.611 -1.2451 -1.5022  2.5367
  257MOL0     H33919   1.795   1.418   8.771  0.0609 -2.3262 -0.2363
  257MOL0     H33920   2.018   1.390   8.717 -0.3556 -0.8795  0.5155
  257MOL0     H33921   1.922   1.252   8.679 -1.7805  1.2389  3.6486
  257MOL0     H33922   2.078   1.400   8.301  3.5000  3.0743  1.5544
  257MOL0     H33923   1.775   1.996   8.735  0.4819 -1.4584 -1.5415
  257MOL0     H33924   1.644   2.210   8.686 -1.1690  1.3207 -3.2348
  258MOL0     O33925   0.936   3.450   8.980  0.0461  0.4401 -0.4200
  258MOL0     C33926   0.922   3.513   8.884  0.2161 -0.6142  0.5232
  258MOL0     O33927   0.989   3.506   8.773  0.0801  0.6039 -0.1000
  258MOL0     C33928   1.097   3.432   8.743 -0.2170 -0.5888 -0.2941
  258MOL0     C33929   1.185   3.384   8.840  0.6660  0.6509  0.2846
  258MOL0     C33930   1.298   3.303   8.810  0.5256 -1.4505 -0.4774
  258MOL0     C33931   1.327   3.282   8.675  0.0327  0.6718  0.1452
  258MOL0     O33932   1.440   3.218   8.634  0.2013  0.3656  0.8663
  258MOL0     C33933   1.429   3.079   8.613  0.0534 -0.2098  1.1251
  258MOL0     C33934   1.398   3.005   8.743  0.2471  0.0362  1.6489
  258MOL0     C33935   1.514   3.026   8.841 -0.8264  0.3199 -0.3068
  258MOL0     C33936   1.486   2.966   8.985 -0.2154 -0.0206  0.3345
  258MOL0     C33937   1.553   3.059   9.092 -0.4854 -0.1237  0.7080
  258MOL0     C33938   1.705   3.089   9.057  0.0063  0.6462 -0.0537
  258MOL0     C33939   1.783   2.961   9.045  0.1003 -0.2735  0.1754
  258MOL0     C33940   1.935   2.983   9.027 -0.5585 -0.0685 -0.0790
  258MOL0     N33941   1.961   3.127   8.985  0.0873  1.2223  1.0333
  258MOL0     C33942   1.956   3.171   8.851 -0.4196 -0.3913 -0.0321
  258MOL0     C33943   2.007   3.298   8.874 -0.9180 -0.0506  0.2703
  258MOL0     C33944   2.039   3.398   8.763 -0.3608  0.5991  0.3472
  258MOL0     C33945   1.910   3.470   8.720  0.3627 -0.3688  0.3585
  258MOL0     C33946   1.878   3.595   8.798  0.4574 -0.4878 -0.2146
  258MOL0     C33947   1.835   3.582   8.947 -0.1010  0.1202  0.1932
  258MOL0     O33948   1.723   3.502   8.954 -0.4809  0.2734  0.8692
  258MOL0     C33949   1.687   3.459   9.079 -0.3111 -0.2032 -0.2531
  258MOL0     C33950   1.774   3.435   9.186 -0.3539 -0.2708  0.4547
  258MOL0     C33951   1.735   3.410   9.316  0.3611 -0.7339  0.3462
  258MOL0     C33952   1.602   3.385   9.333  0.5091 -0.2946 -0.6516
  258MOL0     C33953   1.548   3.338   9.467  0.6549  0.0814 -0.7259
  258MOL0     O33954   1.416   3.340   9.482 -0.8671 -0.1086 -0.3750
  258MOL0     C33955   1.386   3.349   9.620  1.5093  0.7361 -0.0156
  258MOL0     C33956   1.373   3.471   9.678 -1.0044 -0.2407 -0.3957
  258MOL0     C33957   1.322   3.490   9.802  0.2450  0.6930 -0.5134
  258MOL0     C33958   1.279   3.377   9.881  0.1296  0.6018  0.3081
  258MOL0     O33959   1.221   3.413  10.002 -0.0197  0.4751  0.3558
  258MOL0     C33960   1.224   3.332  10.118  0.0554 -0.8657  0.0100
  258MOL0     C33961   1.121   3.376  10.217  0.4920 -1.0221 -0.1883
  258MOL0     C33962   1.158   3.307  10.349  0.0511 -0.0416  0.3539
  258MOL0     C33963   1.041   3.308  10.451 -1.7231  1.5416  0.1636
  258MOL0     C33964   1.009   3.438  10.506  0.8432  0.0097  0.0857
  258MOL0     C33965   0.869   3.448  10.581 -0.0323  0.5116  0.5944
  258MOL0     C33966   0.839   3.584  10.644  0.1580  0.4635 -0.4345
  258MOL0     C33967   0.695   3.587  10.698 -1.0590  0.6377  0.6796
  258MOL0    Cl33968   0.698   3.729  10.813  0.0708 -0.6933  0.1623
  258MOL0     C33969   1.288   3.252   9.833 -0.4877  0.9845  0.2380
  258MOL0     C33970   1.334   3.238   9.700 -0.3582 -0.1657  0.5228
  258MOL0     O33971   1.630   3.292   9.543 -0.2776  0.5339 -0.4383
  258MOL0     C33972   1.508   3.393   9.223  0.4109  0.9517 -0.1291
  258MOL0     C33973   1.556   3.439   9.104  1.1788 -0.6592  1.0935
  258MOL0     N33974   2.039   3.320   9.002  0.3673  0.1003  0.8326
  258MOL0     N33975   2.011   3.210   9.075 -0.5254 -0.9793 -0.0348
  258MOL0     C33976   1.243   3.336   8.575  0.9056  0.6108  0.2488
  258MOL0     C33977   1.133   3.419   8.609 -1.2352  0.2691  0.2558
  258MOL0     C33978   0.812   3.603   8.888  0.0897 -1.5160 -1.0756
  258MOL0     C33979   0.787   3.673   8.770 -0.5916  0.3535 -0.4241
  258MOL0     C33980   0.680   3.768   8.758 -0.2793  1.2105 -1.3056
  258MOL0     C33981   0.598   3.800   8.868  0.2406 -0.6528  0.5791
  258MOL0     O33982   0.497   3.900   8.874 -0.0800 -0.5104 -0.5392
  258MOL0     C33983   0.479   3.974   8.758 -0.8861 -0.5966 -0.3762
  258MOL0     C33984   0.380   3.894   8.668  0.4415 -0.3848  0.3942
  258MOL0     C33985   0.317   4.008   8.576 -0.5337  0.5260  0.2208
  258MOL0     C33986   0.196   3.941   8.500 -0.9377  0.7635  0.3834
  258MOL0     C33987   0.237   3.819   8.421  0.1962 -0.3792  0.5415
  258MOL0     C33988   0.279   3.717   8.362 -0.2403  0.2879 -0.1895
  258MOL0     C33989   0.631   3.734   8.992  0.2228 -0.2972  0.1167
  258MOL0     C33990   0.729   3.637   8.998 -0.1614  0.0152  0.0245
  258MOL0     H33991   1.159   3.406   8.944  0.0832 -1.1369  0.5725
  258MOL0     H33992   1.362   3.267   8.890 -0.0448  1.3165  1.4135
  258MOL0     H33993   1.515   3.043   8.557  0.3692 -1.5091  2.3817
  258MOL0     H33994   1.346   3.075   8.542  1.5423  0.0451 -0.7098
  258MOL0     H33995   1.369   2.905   8.709 -1.2268  1.6261 -2.3857
  258MOL0     H33996   1.305   3.034   8.791 -1.2670 -1.5324 -0.1712
  258MOL0     H33997   1.535   3.133   8.844 -4.3033  1.1359 -0.8798
  258MOL0     H33998   1.605   2.973   8.810  1.2019  1.1301  3.5757
  258MOL0     H33999   1.379   2.945   9.000 -0.0332 -1.0149  0.2624
  258MOL0     H34000   1.536   2.872   8.964  0.8882  0.7126 -0.4058
  258MOL0     H34001   1.550   3.015   9.192 -0.0800  0.6697  1.0753
  258MOL0     H34002   1.499   3.153   9.102 -0.0561  0.1100  0.8634
  258MOL0     H34003   1.746   3.146   9.141 -3.2697  1.2886  1.2846
  258MOL0     H34004   1.706   3.157   8.971 -3.4186  2.1404  0.9220
  258MOL0     H34005   1.774   2.887   9.125 -2.7243  0.0996  0.3059
  258MOL0     H34006   1.748   2.917   8.952  1.7973  0.8316 -1.0462
  258MOL0     H34007   1.991   2.921   8.957  1.6863 -0.3730  1.8405
  258MOL0     H34008   1.982   2.968   9.125  0.6927  2.9815 -0.0909
  258MOL0     H34009   1.926   3.130   8.755  1.2617  0.8064 -1.1288
  258MOL0     H34010   2.086   3.340   8.683  1.6695  3.0834 -0.4177
  258MOL0     H34011   2.115   3.473   8.787 -0.7021  1.0840 -0.0617
  258MOL0     H34012   1.827   3.399   8.720 -2.2343  2.3990  1.8371
  258MOL0     H34013   1.929   3.504   8.617  1.2913 -1.2872  0.2174
  258MOL0     H34014   1.962   3.664   8.794 -0.3843  0.5163 -1.4599
  258MOL0     H34015   1.803   3.647   8.738  1.3672 -0.6600 -1.5398
  258MOL0     H34016   1.814   3.681   8.989  0.3421  0.8905 -1.3119
  258MOL0     H34017   1.920   3.546   9.006 -0.2438 -0.1506  0.2381
  258MOL0     H34018   1.881   3.434   9.171 -0.5224  0.3882 -0.9148
  258MOL0     H34019   1.799   3.394   9.403 -1.0106  3.8244  2.4846
  258MOL0     H34020   1.413   3.549   9.613  0.8101  0.7950  1.8258
  258MOL0     H34021   1.324   3.587   9.850 -1.9515  0.1748  0.7691
  258MOL0     H34022   1.326   3.347  10.155 -0.1306  2.5723 -0.5860
  258MOL0     H34023   1.203   3.230  10.084 -0.2393 -0.0394 -2.4555
  258MOL0     H34024   1.022   3.344  10.184  0.5838 -1.3028 -0.1928
  258MOL0     H34025   1.112   3.484  10.234 -3.7563 -1.3827  1.0780
  258MOL0     H34026   1.247   3.343  10.401  0.3394 -1.8319  1.1791
  258MOL0     H34027   1.183   3.205  10.320  0.0616  0.2869 -0.8394
  258MOL0     H34028   0.966   3.263  10.386  1.2069 -0.6815 -1.9994
  258MOL0     H34029   1.056   3.248  10.541  2.9270  0.0115 -1.3252
  258MOL0     H34030   0.998   3.526  10.441 -2.8919  0.8891  1.6263
  258MOL0     H34031   1.080   3.463  10.585  3.3738 -3.9492 -0.6511
  258MOL0     H34032   0.849   3.372  10.657 -3.7485  0.8463  0.1349
  258MOL0     H34033   0.792   3.422  10.507 -0.2744 -3.1301  1.9278
  258MOL0     H34034   0.900   3.595  10.734  2.2863 -2.5499 -1.3212
  258MOL0     H34035   0.849   3.671  10.578 -1.0602  3.6857  3.2894
  258MOL0     H34036   0.656   3.495  10.744 -0.4083 -0.2636 -0.5047
  258MOL0     H34037   0.628   3.617  10.617 -2.4204 -2.4347  0.5094
  258MOL0     H34038   1.258   3.166   9.893  1.7674  2.8150  4.4044
  258MOL0     H34039   1.337   3.144   9.645 -3.8601 -0.0247 -0.1258
  258MOL0     H34040   1.402   3.374   9.239  0.9558 -2.0267  0.6372
  258MOL0     H34041   1.475   3.454   9.033  0.4829  0.9623  2.1859
  258MOL0     H34042   1.270   3.302   8.475  2.6607 -0.6571  1.0982
  258MOL0     H34043   1.070   3.463   8.532 -1.8772 -0.7358  0.1711
  258MOL0     H34044   0.853   3.654   8.686  3.0623 -2.2441  2.6547
  258MOL0     H34045   0.672   3.815   8.661 -0.0520  0.7076 -1.5713
  258MOL0     H34046   0.576   3.999   8.714 -2.0759  3.8171 -0.9829
  258MOL0     H34047   0.437   4.071   8.787 -0.9456 -1.3243  2.2706
  258MOL0     H34048   0.430   3.819   8.605  2.5865  2.2699 -1.3075
  258MOL0     H34049   0.306   3.848   8.733 -1.8416 -1.8331 -2.9868
  258MOL0     H34050   0.399   4.042   8.513 -0.4940  0.6923  0.3626
  258MOL0     H34051   0.284   4.099   8.628  0.1274 -0.0308  1.6675
  258MOL0     H34052   0.107   3.925   8.562 -3.1340  1.2387 -2.3944
  258MOL0     H34053   0.170   4.004   8.415  3.7914 -1.2938 -3.0064
  258MOL0     H34054   0.318   3.638   8.301 -1.5264  0.1089 -0.8092
  258MOL0     H34055   0.573   3.739   9.084  0.4942  0.9745  0.2347
  258MOL0     H34056   0.755   3.603   9.098 -0.6298  1.8412  0.8313
  259MOL0     O34057   1.572   4.532   0.817  0.1788 -0.0714  0.1393
  259MOL0     C34058   1.594   4.475   0.712 -0.3444  0.4434  0.1572
  259MOL0     O34059   1.518   4.460   0.607 -0.0579  0.5882  0.0141
  259MOL0     C34060   1.386   4.498   0.614 -0.7358  0.1565 -0.4766
  259MOL0     C34061   1.291   4.401   0.658  0.5365 -0.0403  0.1344
  259MOL0     C34062   1.154   4.447   0.664 -0.4478  1.0709 -0.5808
  259MOL0     C34063   1.109   4.583   0.635 -0.5946 -0.3022 -0.9419
  259MOL0     O34064   0.975   4.621   0.633 -0.3232  0.5653  0.8169
  259MOL0     C34065   0.945   4.738   0.544  0.3907 -0.8760  0.1730
  259MOL0     C34066   0.798   4.786   0.575 -0.9638  0.2777  0.3502
  259MOL0     C34067   0.762   4.914   0.494 -0.0778  0.7264 -0.5893
  259MOL0     C34068   0.634   4.973   0.549 -0.0770  0.2586  0.4265
  259MOL0     C34069   0.587   5.088   0.453  0.2852 -1.3479  0.1301
  259MOL0     C34070   0.437   5.107   0.483 -0.0354  0.7504  1.0480
  259MOL0     C34071   0.402   5.252   0.426 -0.7901  0.4308  0.2585
  259MOL0     C34072   0.260   5.266   0.398  0.0240 -0.1465  0.5745
  259MOL0     N34073   0.191   5.294   0.527  0.0651 -0.1679 -0.7853
  259MOL0     C34074   0.153   5.207   0.625 -0.8429 -0.7080  0.5954
  259MOL0     C34075   0.125   5.286   0.734 -1.0129  0.5605 -0.0724
  259MOL0     C34076   0.123   5.220   0.867  0.2353  0.0636 -0.1117
  259MOL0     C34077   0.261   5.206   0.942  0.1998 -0.3114 -0.7216
  259MOL0     C34078   0.333   5.336   0.955  0.0270 -0.3249 -0.0562
  259MOL0     C34079   0.272   5.451   1.041 -0.1285  0.2327 -0.2645
  259MOL0     O34080   0.379   5.528   1.083  0.0845 -0.5209  0.6184
  259MOL0     C34081   0.371   5.562   1.215 -0.5357  0.8744  0.6460
  259MOL0     C34082   0.262   5.619   1.281 -0.2842 -0.3625 -0.6232
  259MOL0     C34083   0.260   5.626   1.417  0.2429 -0.5463  0.3236
  259MOL0     C34084   0.369   5.575   1.497  1.5534  0.1219 -0.0269
  259MOL0     C34085   0.360   5.593   1.641  0.8400 -0.3462 -0.7122
  259MOL0     O34086   0.461   5.538   1.712  0.0072 -1.0324 -0.6285
  259MOL0     C34087   0.493   5.552   1.849  0.0317 -0.7773 -0.1609
  259MOL0     C34088   0.559   5.445   1.920 -0.1840  0.6659 -0.4955
  259MOL0     C34089   0.611   5.467   2.042  0.0169 -0.0224  0.0993
  259MOL0     C34090   0.606   5.591   2.104 -0.1650  0.0775 -1.3351
  259MOL0     O34091   0.669   5.607   2.224 -0.7774 -0.0635 -0.3397
  259MOL0     C34092   0.628   5.707   2.316 -0.2932 -0.4966 -0.6937
  259MOL0     C34093   0.715   5.711   2.438 -0.7387  0.6979 -0.2501
  259MOL0     C34094   0.711   5.601   2.530 -0.4976  0.1159  0.9598
  259MOL0     C34095   0.785   5.628   2.661 -0.3235 -0.8117  0.6389
  259MOL0     C34096   0.735   5.541   2.769  0.5239  0.3922  0.4806
  259MOL0     C34097   0.795   5.575   2.899 -0.5567 -0.4197 -0.1190
  259MOL0     C34098   0.750   5.487   3.020 -0.0520 -0.5609 -0.8062
  259MOL0     C34099   0.817   5.521   3.150  0.0104  0.7066 -0.0015
  259MOL0    Cl34100   0.800   5.702   3.176  0.2721 -0.3789  0.2467
  259MOL0     C34101   0.534   5.696   2.035  0.0712 -0.1221 -0.6037
  259MOL0     C34102   0.474   5.675   1.909 -0.2958 -0.2082 -0.1722
  259MOL0     O34103   0.255   5.638   1.685  0.2537  0.1760 -0.5931
  259MOL0     C34104   0.474   5.507   1.429  0.1609 -0.0047 -0.3966
  259MOL0     C34105   0.477   5.506   1.290 -0.1706 -0.0404  0.2502
  259MOL0     N34106   0.172   5.411   0.704  0.1339 -0.7657  0.6602
  259MOL0     N34107   0.198   5.413   0.579  0.0611 -0.1337  0.8211
  259MOL0     C34108   1.214   4.669   0.599 -0.7387  0.8052 -0.8395
  259MOL0     C34109   1.344   4.630   0.592  0.1364  0.1294 -0.3752
  259MOL0     C34110   1.726   4.416   0.689  0.1796 -0.7878  0.0027
  259MOL0     C34111   1.735   4.300   0.618 -0.2149  0.7634  0.1704
  259MOL0     C34112   1.862   4.248   0.596 -1.5777  0.6854  0.6187
  259MOL0     C34113   1.983   4.311   0.641 -0.1497  1.4205 -0.0014
  259MOL0     O34114   2.096   4.251   0.599 -1.3963  0.2692 -0.1475
  259MOL0     C34115   2.218   4.322   0.599 -0.6519  0.6998  0.3140
  259MOL0     C34116   2.341   4.244   0.541 -0.6593  0.4288 -0.2527
  259MOL0     C34117   2.308   4.142   0.434 -1.3446  0.5885  0.2974
  259MOL0     C34118   2.418   4.045   0.394  0.3898 -0.1359 -0.6615
  259MOL0     C34119   2.359   3.957   0.292 -0.1699 -1.0019 -0.5605
  259MOL0     C34120   2.306   3.891   0.205  1.1731  0.6952 -0.0269
  259MOL0     C34121   1.967   4.429   0.714 -0.1599  0.3293 -0.4683
  259MOL0     C34122   1.839   4.482   0.739 -0.3962  0.1799 -0.7676
  259MOL0     H34123   1.315   4.299   0.687 -0.7303 -0.4567 -0.1778
  259MOL0     H34124   1.069   4.382   0.682  1.6690 -2.0873 -1.2460
  259MOL0     H34125   0.943   4.716   0.437  1.5684  1.4938 -0.4023
  259MOL0     H34126   0.995   4.832   0.570 -4.1981  2.5804 -2.0347
  259MOL0     H34127   0.789   4.809   0.682 -3.5349  0.0012  0.2570
  259MOL0     H34128   0.733   4.701   0.551  0.1872 -0.2680 -0.9733
  259MOL0     H34129   0.755   4.895   0.387  0.9415 -3.2639 -0.1180
  259MOL0     H34130   0.835   4.992   0.517  0.6154  0.4357 -1.7405
  259MOL0     H34131   0.562   4.891   0.551 -0.6558  0.7457 -0.2120
  259MOL0     H34132   0.646   5.010   0.652  0.7243  0.7415  0.1668
  259MOL0     H34133   0.604   5.066   0.347 -1.0503  1.6286 -0.8129
  259MOL0     H34134   0.636   5.177   0.491 -0.9611 -0.8919  0.7058
  259MOL0     H34135   0.402   5.094   0.586 -1.1629 -0.0984  0.5886
  259MOL0     H34136   0.379   5.031   0.430  0.7199  0.9401 -0.0778
  259MOL0     H34137   0.448   5.323   0.495  2.2243 -3.3105  2.4871
  259MOL0     H34138   0.449   5.267   0.328  0.9731  2.3096  1.3406
  259MOL0     H34139   0.219   5.186   0.337 -2.1166  2.2119 -1.3450
  259MOL0     H34140   0.260   5.362   0.345  0.4859  0.1416  1.0744
  259MOL0     H34141   0.134   5.100   0.618  2.1205 -1.2159 -2.3347
  259MOL0     H34142   0.073   5.124   0.854 -2.0631  1.5919 -4.8531
  259MOL0     H34143   0.060   5.280   0.933  0.0218 -1.4254  1.1012
  259MOL0     H34144   0.328   5.140   0.886  1.8802  0.8149 -0.1105
  259MOL0     H34145   0.241   5.155   1.036  1.0541  2.4868  1.1110
  259MOL0     H34146   0.436   5.313   0.986  1.3347  0.5075 -3.3604
  259MOL0     H34147   0.341   5.378   0.854  1.1578 -0.6300 -0.1061
  259MOL0     H34148   0.221   5.405   1.127 -2.7021  1.1962 -1.1622
  259MOL0     H34149   0.184   5.497   0.995 -1.2901 -0.0023  1.6174
  259MOL0     H34150   0.189   5.673   1.221 -0.1271 -0.9453 -1.3451
  259MOL0     H34151   0.171   5.671   1.461 -0.2097 -0.8063 -0.3184
  259MOL0     H34152   0.571   5.353   1.864  0.4746  0.2780  0.2665
  259MOL0     H34153   0.656   5.380   2.090  3.6300  0.3017 -2.3406
  259MOL0     H34154   0.526   5.690   2.351 -0.1665  0.7833  0.4006
  259MOL0     H34155   0.644   5.803   2.267  4.9177  0.3270  1.8753
  259MOL0     H34156   0.679   5.794   2.500 -1.0481 -0.9172  1.8519
  259MOL0     H34157   0.819   5.733   2.412 -0.5271  1.4661  1.1235
  259MOL0     H34158   0.752   5.509   2.487 -0.6962  0.7952 -0.7825
  259MOL0     H34159   0.606   5.586   2.556  0.0526 -1.4546  2.4253
  259MOL0     H34160   0.885   5.587   2.645 -0.9847 -2.5953  0.8604
  259MOL0     H34161   0.788   5.736   2.679  1.2504 -0.5341 -1.0069
  259MOL0     H34162   0.770   5.439   2.748 -1.5741 -0.7855  2.2525
  259MOL0     H34163   0.627   5.549   2.788  0.7456  2.2311  1.1850
  259MOL0     H34164   0.769   5.681   2.908 -0.6697  0.1125 -4.7056
  259MOL0     H34165   0.904   5.568   2.893 -0.4111  0.6542  0.7820
  259MOL0     H34166   0.646   5.513   3.042  0.6112 -0.4747  3.0293
  259MOL0     H34167   0.757   5.384   2.984  0.4352  0.2062 -3.0456
  259MOL0     H34168   0.921   5.490   3.141  0.2908  2.2388 -3.8762
  259MOL0     H34169   0.767   5.473   3.234  2.0560  1.9176  2.0070
  259MOL0     H34170   0.507   5.790   2.083 -1.6817  0.5409 -2.7306
  259MOL0     H34171   0.445   5.771   1.867 -0.8242  0.5881  1.8803
  259MOL0     H34172   0.545   5.448   1.485 -1.7740 -1.3813  0.7394
  259MOL0     H34173   0.541   5.446   1.227 -0.8753  1.0304 -1.5510
  259MOL0     H34174   1.189   4.768   0.564 -1.1591  1.5804  1.4425
  259MOL0     H34175   1.422   4.698   0.559  0.9720  0.1241  1.4184
  259MOL0     H34176   1.643   4.257   0.580  0.5159 -0.7033 -0.0072
  259MOL0     H34177   1.873   4.161   0.532 -0.3658  0.4101  1.1855
  259MOL0     H34178   2.244   4.358   0.699  2.7861 -0.1209 -0.1597
  259MOL0     H34179   2.203   4.417   0.546  0.3287  1.7180  1.7881
  259MOL0     H34180   2.425   4.305   0.506 -1.3819  0.4534 -2.0485
  259MOL0     H34181   2.377   4.186   0.626 -2.6821  0.3646  0.5983
  259MOL0     H34182   2.291   4.199   0.342  1.1266  4.8854  2.1760
  259MOL0     H34183   2.214   4.092   0.458 -0.7702  0.6095  2.8540
  259MOL0     H34184   2.508   4.080   0.343  0.9873 -2.6418 -1.4580
  259MOL0     H34185   2.447   3.986   0.482 -0.4371 -1.6121 -1.3611
  259MOL0     H34186   2.283   3.833   0.117 -1.6207  0.1234  0.9796
  259MOL0     H34187   2.058   4.468   0.759  0.8783 -2.2383 -0.1001
  259MOL0     H34188   1.832   4.568   0.804  1.2918  0.0452 -0.3676
  260MOL0     O34189   5.785   3.550   6.528 -0.2350  0.2844  0.3990
  260MOL0     C34190   5.730   3.446   6.485 -0.4181  0.7095  0.4920
  260MOL0     O34191   5.592   3.421   6.472  0.5253  0.8289 -0.4952
  260MOL0     C34192   5.511   3.519   6.488  0.3481 -0.7497 -0.0597
  260MOL0     C34193   5.455   3.579   6.370 -0.6141  0.3014 -0.5660
  260MOL0     C34194   5.364   3.686   6.379 -0.3260 -0.0622 -0.6308
  260MOL0     C34195   5.318   3.726   6.501 -0.0519  0.0162  0.6464
  260MOL0     O34196   5.212   3.821   6.516 -0.0865  0.0601  0.2168
  260MOL0     C34197   5.194   3.897   6.634  1.3729 -0.0422  0.7373
  260MOL0     C34198   5.089   4.003   6.590 -0.2893 -0.4712  0.8116
  260MOL0     C34199   5.019   4.088   6.699  0.3366 -0.0934 -0.1529
  260MOL0     C34200   5.114   4.169   6.795 -0.0947  0.5484  0.9954
  260MOL0     C34201   5.031   4.277   6.869  0.9026  0.1503 -0.3774
  260MOL0     C34202   5.119   4.330   6.992  0.9492  0.0602 -0.0505
  260MOL0     C34203   5.257   4.383   6.963 -0.3815 -0.1486 -0.1115
  260MOL0     C34204   5.255   4.476   6.837  0.7707 -0.3598  0.1546
  260MOL0     N34205   5.392   4.484   6.782 -0.5836 -0.8953 -0.0350
  260MOL0     C34206   5.492   4.524   6.850  1.0363 -0.2329 -0.7173
  260MOL0     C34207   5.599   4.504   6.768 -0.4454 -0.4290 -1.2513
  260MOL0     C34208   5.735   4.531   6.817  0.6439 -0.6479 -0.1677
  260MOL0     C34209   5.811   4.396   6.792 -0.0033  0.0835  0.0110
  260MOL0     C34210   5.822   4.305   6.915 -1.8308 -0.0973  0.2701
  260MOL0     C34211   5.942   4.351   7.002  0.5063 -0.4963 -0.2172
  260MOL0     O34212   5.961   4.275   7.121 -0.8071  0.9099 -0.4327
  260MOL0     C34213   6.070   4.187   7.108  0.6325  0.7819  0.2473
  260MOL0     C34214   6.195   4.207   7.038  0.3437  0.2711 -0.6962
  260MOL0     C34215   6.292   4.109   7.018 -0.2643  0.1838 -1.2291
  260MOL0     C34216   6.264   3.978   7.062  0.7233  1.0850  0.4801
  260MOL0     C34217   6.365   3.862   7.040 -0.5813  0.9081  0.0114
  260MOL0     O34218   6.474   3.881   6.964  0.1419  0.6711  0.1015
  260MOL0     C34219   6.555   3.774   6.949 -0.8255  0.0017  0.5562
  260MOL0     C34220   6.601   3.754   6.815 -1.0212 -0.1306 -0.0296
  260MOL0     C34221   6.715   3.677   6.786  0.2480 -1.5098 -0.8444
  260MOL0     C34222   6.774   3.610   6.887 -0.4555 -0.3942 -0.6449
  260MOL0     O34223   6.886   3.538   6.852 -1.3894 -0.5862 -0.3485
  260MOL0     C34224   6.996   3.551   6.944  0.9979  0.6601 -0.2548
  260MOL0     C34225   7.123   3.479   6.886  0.3962 -0.5991  0.1374
  260MOL0     C34226   7.185   3.526   6.764 -0.1796 -0.3206 -0.1719
  260MOL0     C34227   7.297   3.429   6.721  0.5007  0.0660 -0.5369
  260MOL0     C34228   7.380   3.505   6.617 -0.3963  0.0805  0.2235
  260MOL0     C34229   7.510   3.445   6.588 -0.1178  0.3220  0.3238
  260MOL0     C34230   7.595   3.512   6.473  0.2945 -0.0836 -0.8414
  260MOL0     C34231   7.735   3.445   6.467  0.4281 -0.6455  0.3528
  260MOL0    Cl34232   7.834   3.559   6.360 -0.1829 -0.0069 -0.2074
  260MOL0     C34233   6.721   3.620   7.016 -0.4262  1.2060 -0.5924
  260MOL0     C34234   6.610   3.700   7.052 -0.0078 -0.4960  0.2184
  260MOL0     O34235   6.346   3.760   7.103 -0.7839  0.0067 -0.0976
  260MOL0     C34236   6.138   3.955   7.123  0.5073 -0.7137  0.0844
  260MOL0     C34237   6.041   4.056   7.148 -1.1652 -0.0735 -0.2119
  260MOL0     N34238   5.554   4.457   6.647 -0.0350 -0.1557  0.5135
  260MOL0     N34239   5.426   4.450   6.659  0.5199  0.9942  0.7786
  260MOL0     C34240   5.385   3.673   6.612  0.1085 -0.2194 -0.4936
  260MOL0     C34241   5.483   3.571   6.610 -0.8237  0.2754  0.1768
  260MOL0     C34242   5.812   3.330   6.432 -0.4678  0.0818 -0.2590
  260MOL0     C34243   5.761   3.202   6.414  1.1028  0.6852 -0.6900
  260MOL0     C34244   5.832   3.105   6.336  0.8718 -0.1905 -0.0278
  260MOL0     C34245   5.965   3.138   6.290 -0.1037 -0.5247  1.0448
  260MOL0     O34246   6.041   3.048   6.211 -0.5252 -0.0049 -0.4998
  260MOL0     C34247   6.171   3.085   6.195 -0.0452 -0.5426  0.9231
  260MOL0     C34248   6.232   2.995   6.085  1.0479  0.0890  0.0887
  260MOL0     C34249   6.276   2.867   6.143 -0.2847  0.3596 -0.3440
  260MOL0     C34250   6.357   2.778   6.049  0.4566 -0.4994  0.3835
  260MOL0     C34251   6.290   2.647   6.036 -1.2489 -0.3652  1.0249
  260MOL0     C34252   6.223   2.550   6.008 -0.0981 -0.0211 -0.8983
  260MOL0     C34253   6.024   3.261   6.341  1.1415 -1.0261  0.8291
  260MOL0     C34254   5.945   3.361   6.397  0.1667 -0.4241  0.2368
  260MOL0     H34255   5.478   3.540   6.272 -1.6189 -3.0566  0.4115
  260MOL0     H34256   5.310   3.730   6.296  1.0453 -1.4595 -2.3430
  260MOL0     H34257   5.292   3.940   6.659  2.2856 -0.8748 -1.2232
  260MOL0     H34258   5.157   3.840   6.720 -1.6802 -0.6283 -0.8454
  260MOL0     H34259   5.010   3.943   6.545  2.5773 -4.3777  0.4963
  260MOL0     H34260   5.125   4.071   6.513 -1.0504  2.0475  2.5347
  260MOL0     H34261   4.956   4.031   6.767 -0.1584  1.5958  0.8750
  260MOL0     H34262   4.947   4.155   6.650  1.2688 -0.3036 -1.9100
  260MOL0     H34263   5.152   4.084   6.852  0.6835 -1.7348 -2.5924
  260MOL0     H34264   5.201   4.213   6.746 -1.5498  3.0039  0.4388
  260MOL0     H34265   4.940   4.239   6.917  0.9065  0.9993  0.3310
  260MOL0     H34266   4.999   4.354   6.799 -0.5847 -0.5058 -0.4628
  260MOL0     H34267   5.122   4.256   7.072 -0.8293 -2.3266 -2.0003
  260MOL0     H34268   5.073   4.425   7.020 -2.5110 -1.5641  0.3392
  260MOL0     H34269   5.298   4.424   7.056  0.9930  0.0106 -0.7551
  260MOL0     H34270   5.316   4.292   6.949 -2.9540 -3.1223  5.1691
  260MOL0     H34271   5.209   4.571   6.866  0.2078 -0.6607  0.2561
  260MOL0     H34272   5.204   4.427   6.754 -0.3975 -3.0770  2.3201
  260MOL0     H34273   5.506   4.569   6.947  0.9260 -0.8906 -0.3934
  260MOL0     H34274   5.732   4.556   6.924  0.7702 -0.7316 -0.1445
  260MOL0     H34275   5.787   4.603   6.754 -1.6056  1.7858  0.5723
  260MOL0     H34276   5.911   4.428   6.761  0.0006 -0.2575 -0.3363
  260MOL0     H34277   5.771   4.341   6.707  0.1948  2.2656 -1.5615
  260MOL0     H34278   5.726   4.299   6.967 -2.6618 -1.6442 -1.3330
  260MOL0     H34279   5.844   4.202   6.884  0.9647  0.7408 -0.8236
  260MOL0     H34280   5.915   4.451   7.037  1.8235  0.2651 -1.2878
  260MOL0     H34281   6.031   4.370   6.941 -1.2728  1.8024 -2.3201
  260MOL0     H34282   6.216   4.308   7.006 -1.1613  0.3077 -1.6694
  260MOL0     H34283   6.394   4.116   6.982  0.4434 -0.9931  0.4123
  260MOL0     H34284   6.555   3.823   6.744 -2.4082  0.2231  1.1584
  260MOL0     H34285   6.754   3.684   6.685 -5.5996  3.1426 -3.4285
  260MOL0     H34286   6.978   3.506   7.042  2.8857 -0.3681 -0.3477
  260MOL0     H34287   7.009   3.658   6.963 -1.5474  1.0545 -0.3077
  260MOL0     H34288   7.100   3.374   6.867  1.4010 -0.7137 -0.4757
  260MOL0     H34289   7.204   3.491   6.958 -0.4171  3.8818  0.5890
  260MOL0     H34290   7.223   3.628   6.768  0.6733 -0.6253 -0.3146
  260MOL0     H34291   7.110   3.530   6.685  1.9590 -0.2968 -2.3180
  260MOL0     H34292   7.360   3.404   6.807  1.0146  1.3431 -0.5244
  260MOL0     H34293   7.249   3.335   6.693  0.9982 -0.2014 -0.5135
  260MOL0     H34294   7.398   3.609   6.649 -1.3411 -0.1513  1.6004
  260MOL0     H34295   7.325   3.491   6.523  1.3833 -0.1578 -0.8239
  260MOL0     H34296   7.505   3.336   6.576 -0.0220  0.4542 -1.2044
  260MOL0     H34297   7.571   3.461   6.677 -1.0709  1.1239  0.8565
  260MOL0     H34298   7.544   3.514   6.376  0.4427  2.1082 -0.9256
  260MOL0     H34299   7.610   3.612   6.515 -0.4869 -0.3975  0.2203
  260MOL0     H34300   7.731   3.345   6.423  3.1215 -1.0819  0.9164
  260MOL0     H34301   7.765   3.453   6.572 -0.4618  0.7995  0.5234
  260MOL0     H34302   6.768   3.564   7.096 -1.4077 -0.6685 -1.2544
  260MOL0     H34303   6.575   3.703   7.155 -0.3327 -3.6404  0.2760
  260MOL0     H34304   6.105   3.856   7.154 -0.4227  0.5037  3.4127
  260MOL0     H34305   5.948   4.023   7.194  0.3563 -0.6080  2.7407
  260MOL0     H34306   5.353   3.719   6.705 -2.7319 -0.3074 -1.3201
  260MOL0     H34307   5.534   3.529   6.696  1.1625 -1.6785 -1.8255
  260MOL0     H34308   5.657   3.187   6.444  1.0653 -0.2831 -1.2727
  260MOL0     H34309   5.782   3.009   6.334 -0.3987  0.4152  0.7750
  260MOL0     H34310   6.230   3.083   6.287 -0.5062  4.8709  1.7061
  260MOL0     H34311   6.201   3.185   6.163  0.2482 -0.7182  0.6413
  260MOL0     H34312   6.171   2.970   5.998  2.6436 -0.4156 -0.9244
  260MOL0     H34313   6.319   3.041   6.037  1.0690 -0.7023 -0.6603
  260MOL0     H34314   6.188   2.816   6.182  0.1247  0.3894  0.6490
  260MOL0     H34315   6.329   2.896   6.235 -2.0989  2.9914 -0.0256
  260MOL0     H34316   6.371   2.823   5.950  0.3216  0.6623  0.8765
  260MOL0     H34317   6.455   2.772   6.097  0.3328  0.8808  0.8621
  260MOL0     H34318   6.163   2.463   5.992 -3.0755  1.6012  0.6369
  260MOL0     H34319   6.124   3.296   6.317 -0.0438  0.6248 -2.1673
  260MOL0     H34320   5.980   3.464   6.396  0.7676 -0.6081 -1.4541
  261MOL0     O34321   4.857  10.585  10.627  0.6344  0.3488  0.0641
  261MOL0     C34322   4.742  10.559  10.594 -0.2696 -0.3919  0.3635
  261MOL0     O34323   4.652  10.504  10.679 -0.2340 -0.4717  0.4735
  261MOL0     C34324   4.689  10.451  10.804  0.4165 -0.4380  0.1742
  261MOL0     C34325   4.671  10.317  10.823 -0.1606  0.0178  0.6600
  261MOL0     C34326   4.715  10.241  10.936 -0.3322 -0.8908 -0.0859
  261MOL0     C34327   4.764  10.307  11.046  0.2381 -0.5776  0.3334
  261MOL0     O34328   4.832  10.245  11.151  0.2110 -1.6507  0.4926
  261MOL0     C34329   4.856  10.321  11.273 -0.4573  0.0883  1.0913
  261MOL0     C34330   4.903  10.215  11.372 -0.2734  0.2984 -0.3110
  261MOL0     C34331   4.925  10.254  11.515 -0.0617 -0.2592  0.6809
  261MOL0     C34332   4.980  10.140  11.599 -0.1175  0.0342 -0.0925
  261MOL0     C34333   4.983  10.172  11.754  0.6498  0.5203  0.3074
  261MOL0     C34334   5.011  10.041  11.838  0.5766  0.0184  0.1946
  261MOL0     C34335   5.030  10.067  11.992  0.0579  0.0537  0.1461
  261MOL0     C34336   4.915  10.131  12.065 -1.2332 -0.2421  0.0230
  261MOL0     N34337   4.962  10.265  12.119  0.3784  0.5615  0.0190
  261MOL0     C34338   5.050  10.274  12.223 -0.0776 -0.3500  0.5541
  261MOL0     C34339   5.039  10.402  12.270  0.7095 -0.3139 -0.5569
  261MOL0     C34340   5.109  10.438  12.406  0.0145  0.4253  0.4122
  261MOL0     C34341   5.065  10.350  12.524  0.4698 -0.3863 -0.6684
  261MOL0     C34342   4.920  10.347  12.567  0.0943  0.3533 -0.0660
  261MOL0     C34343   4.884  10.227  12.669  0.0053 -0.9704  1.1043
  261MOL0     O34344   4.924  10.102  12.614  0.2849 -0.2010  0.4520
  261MOL0     C34345   4.943  10.017  12.724  0.5773  0.2752  1.1426
  261MOL0     C34346   4.838   9.978  12.798 -0.1417 -0.7770 -0.5705
  261MOL0     C34347   4.858   9.910  12.921  0.0235  0.0373 -0.0752
  261MOL0     C34348   4.995   9.883  12.966  0.3743 -0.3433  0.0120
  261MOL0     C34349   5.034   9.803  13.082 -0.3231 -0.0911  1.0329
  261MOL0     O34350   4.937   9.734  13.141 -0.1000  0.9759  0.0855
  261MOL0     C34351   4.971   9.633  13.230 -0.6061 -1.6965  0.2890
  261MOL0     C34352   4.871   9.613  13.313  0.3514  0.5081 -0.4665
  261MOL0     C34353   4.863   9.511  13.412 -1.0188  0.1532  0.0399
  261MOL0     C34354   4.968   9.417  13.412 -0.5094 -0.2965 -0.7897
  261MOL0     O34355   4.992   9.319  13.507 -0.2648  0.2838 -0.5479
  261MOL0     C34356   4.933   9.332  13.638  0.9876 -0.5293  0.6762
  261MOL0     C34357   4.999   9.227  13.730  0.8491  0.4687 -0.7016
  261MOL0     C34358   4.930   9.214  13.859  1.3147 -0.4833 -0.5308
  261MOL0     C34359   4.955   9.346  13.950 -0.4040  0.9065  0.9207
  261MOL0     C34360   4.897   9.322  14.091  1.5339  1.5777 -0.7821
  261MOL0     C34361   4.969   9.209  14.178 -0.1716 -0.1783 -1.4167
  261MOL0     C34362   4.867   9.121  14.247  0.2167 -0.9311  0.5618
  261MOL0     C34363   4.932   9.011  14.315  0.1073 -0.5582  0.2118
  261MOL0    Cl34364   4.855   8.977  14.474 -0.1773 -0.7001 -0.0526
  261MOL0     C34365   5.069   9.437  13.314  0.9188  1.0527  1.3978
  261MOL0     C34366   5.071   9.543  13.215 -0.8221  0.1011 -0.8726
  261MOL0     O34367   5.151   9.811  13.119  0.7933 -1.0827  1.0386
  261MOL0     C34368   5.096   9.911  12.876  0.9615 -0.1452  0.1594
  261MOL0     C34369   5.074   9.973  12.754 -0.2834  0.6369 -0.8497
  261MOL0     N34370   4.955  10.475  12.192  0.4618 -0.2617  1.0370
  261MOL0     N34371   4.907  10.394  12.102 -0.2164 -0.2217 -0.0822
  261MOL0     C34372   4.765  10.453  11.037 -0.0492 -0.7076  0.1521
  261MOL0     C34373   4.728  10.517  10.926  0.0639  0.5781  0.1894
  261MOL0     C34374   4.686  10.620  10.470 -0.9792  0.7630 -0.3599
  261MOL0     C34375   4.770  10.691  10.390 -0.3185  0.0698  0.0126
  261MOL0     C34376   4.728  10.738  10.267 -0.1830 -0.1143  0.5562
  261MOL0     C34377   4.599  10.722  10.223  1.1277  0.3537  0.1014
  261MOL0     O34378   4.568  10.780  10.110  0.0762  0.3239  0.0967
  261MOL0     C34379   4.444  10.740  10.043  0.0514  0.3827  0.2066
  261MOL0     C34380   4.433  10.726   9.888 -0.6462  0.0447 -0.2540
  261MOL0     C34381   4.540  10.824   9.816 -0.1767 -0.2918 -0.3620
  261MOL0     C34382   4.563  10.783   9.667 -0.8231 -0.1031 -0.3924
  261MOL0     C34383   4.650  10.661   9.671 -0.6370  0.3156 -0.1774
  261MOL0     C34384   4.726  10.567   9.698 -0.6424  0.0497  0.3966
  261MOL0     C34385   4.511  10.647  10.309 -0.3916  1.5275 -0.8647
  261MOL0     C34386   4.560  10.592  10.428  0.1704 -0.8766  0.7467
  261MOL0     H34387   4.624  10.262  10.742  2.2803 -1.4680  0.1627
  261MOL0     H34388   4.711  10.132  10.937 -3.0525 -0.9058 -1.5537
  261MOL0     H34389   4.769  10.379  11.306 -0.4035 -0.1648  1.6919
  261MOL0     H34390   4.933  10.396  11.252 -2.4554  2.4343  1.6600
  261MOL0     H34391   4.997  10.164  11.351 -0.5973 -1.8514  2.8849
  261MOL0     H34392   4.823  10.141  11.382 -1.5795  1.8373  1.1504
  261MOL0     H34393   4.831  10.296  11.553  0.3217  0.9743  0.2887
  261MOL0     H34394   5.001  10.333  11.519  1.1678 -1.4003  0.5785
  261MOL0     H34395   4.910  10.056  11.587 -2.2613  1.8672 -1.0440
  261MOL0     H34396   5.083  10.106  11.584 -0.5180 -0.2909 -2.6728
  261MOL0     H34397   4.879  10.198  11.778 -0.2900 -0.4803 -2.3477
  261MOL0     H34398   5.048  10.258  11.776  1.9841 -0.4290  0.1993
  261MOL0     H34399   5.106   9.993  11.814  0.6892 -0.1346  0.9289
  261MOL0     H34400   4.939   9.963  11.810 -0.6699  0.1067  2.8363
  261MOL0     H34401   5.047   9.967  12.035  1.3364  0.1140 -0.1868
  261MOL0     H34402   5.119  10.129  12.006  1.6459 -2.5737  2.8453
  261MOL0     H34403   4.880  10.074  12.151  1.3481 -1.6057  0.2715
  261MOL0     H34404   4.838  10.135  11.988 -2.1081  0.2758  0.8997
  261MOL0     H34405   5.111  10.200  12.275 -0.7263 -2.2092 -1.2026
  261MOL0     H34406   5.092  10.545  12.424 -4.6986 -0.5574  3.5869
  261MOL0     H34407   5.214  10.422  12.380 -0.6689 -1.7672 -1.2760
  261MOL0     H34408   5.111  10.399  12.611 -2.3873  0.2475  0.6228
  261MOL0     H34409   5.110  10.252  12.509 -0.6591 -0.8032 -1.4091
  261MOL0     H34410   4.916  10.441  12.623  1.6381  1.7515 -2.1441
  261MOL0     H34411   4.854  10.348  12.480 -1.5994 -3.4572  0.9550
  261MOL0     H34412   4.775  10.219  12.681 -0.2328 -1.9313 -1.0687
  261MOL0     H34413   4.931  10.254  12.763 -0.9179 -1.0538  1.6043
  261MOL0     H34414   4.743  10.022  12.768 -0.1170 -0.4459 -0.1713
  261MOL0     H34415   4.777   9.872  12.983 -0.6169  2.6848  0.8193
  261MOL0     H34416   4.794   9.689  13.317 -2.5576 -2.0280 -3.2510
  261MOL0     H34417   4.779   9.509  13.481  1.0677  1.8906  2.8727
  261MOL0     H34418   4.825   9.315  13.630  0.8478 -1.1371  3.2426
  261MOL0     H34419   4.950   9.435  13.671 -1.2686 -0.3512  1.4565
  261MOL0     H34420   5.105   9.252  13.744  1.7204 -2.5592 -1.1318
  261MOL0     H34421   5.001   9.126  13.686  1.0615  1.1628 -2.3789
  261MOL0     H34422   4.963   9.127  13.916 -3.9461 -0.5924  3.1234
  261MOL0     H34423   4.822   9.202  13.840  0.1034 -0.2621  4.7243
  261MOL0     H34424   5.059   9.374  13.967 -0.4414  1.6231  0.0963
  261MOL0     H34425   4.895   9.424  13.901 -1.8602 -0.1412  0.9700
  261MOL0     H34426   4.798   9.280  14.070  1.3387  2.1784 -1.0751
  261MOL0     H34427   4.884   9.407  14.159  1.1018  1.7148 -1.0339
  261MOL0     H34428   5.023   9.259  14.258 -1.5432  2.4522 -2.0292
  261MOL0     H34429   5.039   9.154  14.113  0.0014 -0.9705 -0.5777
  261MOL0     H34430   4.821   9.184  14.324 -2.0348 -0.2842 -1.1990
  261MOL0     H34431   4.793   9.084  14.176  0.4960 -1.0738  0.3461
  261MOL0     H34432   5.037   9.040  14.327  0.1924 -0.5391 -0.5619
  261MOL0     H34433   4.925   8.921  14.255  1.6206 -0.1049 -0.6852
  261MOL0     H34434   5.146   9.360  13.311  0.3003  0.4448  0.9266
  261MOL0     H34435   5.143   9.534  13.134  1.5384  1.8772  0.8566
  261MOL0     H34436   5.200   9.892  12.903  1.1166 -0.6812 -0.7484
  261MOL0     H34437   5.151  10.005  12.684 -0.6927 -0.3331 -1.7702
  261MOL0     H34438   4.800  10.519  11.116  2.9530 -1.5265 -0.3626
  261MOL0     H34439   4.744  10.624  10.932 -3.1481  1.5087 -3.5826
  261MOL0     H34440   4.878  10.690  10.405 -0.5323  0.8841  1.8385
  261MOL0     H34441   4.801  10.799  10.215  0.8862  1.1047  3.3104
  261MOL0     H34442   4.370  10.810  10.080 -1.1911 -0.9429  0.3214
  261MOL0     H34443   4.405  10.647  10.085  1.2217 -0.6377 -0.8498
  261MOL0     H34444   4.455  10.623   9.857  1.8494  0.2028  0.8309
  261MOL0     H34445   4.333  10.740   9.844 -0.0516 -0.5252 -1.8515
  261MOL0     H34446   4.629  10.833   9.879  1.3813 -2.5780 -2.0907
  261MOL0     H34447   4.489  10.921   9.818  2.2887  1.0827  0.0359
  261MOL0     H34448   4.475  10.759   9.607  0.4082 -0.6388 -2.0421
  261MOL0     H34449   4.615  10.870   9.627 -2.5874  1.4716  0.6074
  261MOL0     H34450   4.777  10.472   9.702 -0.4106  0.1104 -0.6963
  261MOL0     H34451   4.410  10.615  10.285 -0.9914  1.4979  1.4760
  261MOL0     H34452   4.500  10.533  10.497 -0.2466  0.2685  1.3869
  262MOL0     O34453   3.788   6.601   7.011 -0.6900  0.4804  0.4223
  262MOL0     C34454   3.883   6.519   6.979 -0.1935  0.1092  0.1665
  262MOL0     O34455   4.005   6.514   7.037  0.2482  0.4322 -0.0599
  262MOL0     C34456   4.043   6.605   7.131  0.7795 -0.3734 -0.6583
  262MOL0     C34457   4.108   6.716   7.074  0.5437 -0.7304  0.1438
  262MOL0     C34458   4.170   6.810   7.159  1.1356 -0.8824 -0.4184
  262MOL0     C34459   4.185   6.786   7.295 -0.4053  0.1309  1.0571
  262MOL0     O34460   4.267   6.869   7.375  0.1197  0.2033  0.2874
  262MOL0     C34461   4.403   6.824   7.370 -1.2053  0.1741  0.3416
  262MOL0     C34462   4.491   6.937   7.442 -0.8438 -0.2265 -0.6868
  262MOL0     C34463   4.474   7.078   7.386  0.2886  0.0504  0.5174
  262MOL0     C34464   4.555   7.183   7.455  1.0884 -0.2031 -0.0249
  262MOL0     C34465   4.549   7.322   7.381 -0.8245 -0.5244 -0.6278
  262MOL0     C34466   4.659   7.414   7.411 -0.4876 -0.9078 -0.3752
  262MOL0     C34467   4.663   7.461   7.558  0.1167 -0.2816  0.7240
  262MOL0     C34468   4.756   7.362   7.633 -0.6056  0.4919 -0.3639
  262MOL0     N34469   4.785   7.408   7.774 -0.0470  0.1213  0.2247
  262MOL0     C34470   4.723   7.513   7.846  0.7376  0.2963  1.5340
  262MOL0     C34471   4.772   7.520   7.967 -0.0636 -0.1939 -0.4673
  262MOL0     C34472   4.730   7.601   8.084 -0.0944 -0.5975  0.7675
  262MOL0     C34473   4.806   7.740   8.081  0.9134 -0.3405  0.7389
  262MOL0     C34474   4.747   7.844   7.995  0.2095 -0.1264 -0.7674
  262MOL0     C34475   4.804   7.991   8.008 -0.0451 -0.4317  0.2126
  262MOL0     O34476   4.714   8.069   7.932 -0.1618 -0.0473  0.1819
  262MOL0     C34477   4.742   8.206   7.924  0.2719  0.8280 -0.2142
  262MOL0     C34478   4.644   8.274   7.836 -0.6583  0.8202 -0.7404
  262MOL0     C34479   4.675   8.411   7.812  0.1607  0.3350  0.4504
  262MOL0     C34480   4.775   8.484   7.878 -0.2911  0.2367 -0.7032
  262MOL0     C34481   4.780   8.625   7.875  0.1223 -0.5419 -0.2799
  262MOL0     O34482   4.844   8.685   7.983  0.1715 -0.2079  0.2340
  262MOL0     C34483   4.852   8.821   8.005  0.2684 -0.3650  0.4074
  262MOL0     C34484   4.954   8.869   8.079  0.2429  0.1297  0.1531
  262MOL0     C34485   4.952   8.996   8.139 -0.7552  0.0142 -0.1515
  262MOL0     C34486   4.843   9.076   8.122 -0.2453 -0.3556 -0.7741
  262MOL0     O34487   4.845   9.197   8.195 -0.1740  0.2560  0.6947
  262MOL0     C34488   4.725   9.269   8.209  0.0059  0.5254  0.2481
  262MOL0     C34489   4.734   9.388   8.303  0.0290 -0.3829  0.4474
  262MOL0     C34490   4.627   9.505   8.290  0.0910 -0.6300 -0.2886
  262MOL0     C34491   4.651   9.608   8.401 -0.6050 -0.0665  0.3033
  262MOL0     C34492   4.579   9.742   8.368  0.0194  0.6098 -0.2940
  262MOL0     C34493   4.523   9.801   8.495  0.4984  0.2916 -0.3012
  262MOL0     C34494   4.475   9.945   8.478 -0.5571  0.3157 -0.1395
  262MOL0     C34495   4.340   9.952   8.543  0.8292  0.6699  0.4187
  262MOL0    Cl34496   4.286  10.126   8.536 -0.3834 -0.3242  0.0084
  262MOL0     C34497   4.739   9.035   8.039 -0.0051  0.2237  0.0097
  262MOL0     C34498   4.754   8.914   7.970 -1.2288 -0.3191  0.8607
  262MOL0     O34499   4.718   8.686   7.792 -0.7290 -0.1123 -0.0250
  262MOL0     C34500   4.859   8.411   7.976 -0.0186  0.6295 -0.5944
  262MOL0     C34501   4.840   8.279   7.996  0.2502  0.5477  0.2800
  262MOL0     N34502   4.866   7.417   7.978  0.1952  0.1650 -0.1844
  262MOL0     N34503   4.865   7.347   7.864 -0.6258 -0.4885  0.5222
  262MOL0     C34504   4.127   6.671   7.352  1.0337  0.1450 -0.2007
  262MOL0     C34505   4.060   6.584   7.270 -0.8901 -0.1469  0.4514
  262MOL0     C34506   3.851   6.432   6.862 -0.7288  0.1433  0.1018
  262MOL0     C34507   3.955   6.341   6.813 -0.0733  0.4808 -0.2454
  262MOL0     C34508   3.916   6.236   6.726 -0.0978 -0.4981  0.6191
  262MOL0     C34509   3.788   6.223   6.686  0.5322 -0.1982 -0.1506
  262MOL0     O34510   3.754   6.099   6.623 -0.2382 -0.0930  0.3180
  262MOL0     C34511   3.622   6.051   6.604 -0.1850  0.2099 -0.1786
  262MOL0     C34512   3.601   6.006   6.455  0.5610  0.9653 -0.3540
  262MOL0     C34513   3.454   5.951   6.442  0.0960 -0.2979  0.1862
  262MOL0     C34514   3.414   5.907   6.299 -0.0505 -0.3647  0.8225
  262MOL0     C34515   3.269   5.888   6.297  0.2984 -0.4371  0.1135
  262MOL0     C34516   3.147   5.877   6.290 -0.1572 -0.3904  0.0487
  262MOL0     C34517   3.687   6.318   6.735 -0.0864 -0.0563  1.2418
  262MOL0     C34518   3.722   6.425   6.804 -0.3453  0.0085  0.2623
  262MOL0     H34519   4.111   6.725   6.966 -2.3028  1.1787  0.1028
  262MOL0     H34520   4.216   6.889   7.100  0.5306 -1.6162 -1.9119
  262MOL0     H34521   4.429   6.812   7.265  0.6813 -0.4834  0.8345
  262MOL0     H34522   4.422   6.729   7.421 -0.8180  0.5072  0.8349
  262MOL0     H34523   4.595   6.912   7.419 -1.4906 -0.9338 -3.1655
  262MOL0     H34524   4.465   6.930   7.548  0.1172 -2.0350 -0.5231
  262MOL0     H34525   4.373   7.120   7.387  0.8605  1.5247 -0.3104
  262MOL0     H34526   4.498   7.094   7.280  1.5647 -0.4073  0.7151
  262MOL0     H34527   4.519   7.182   7.558 -2.1332 -1.8032 -0.9996
  262MOL0     H34528   4.661   7.160   7.448  0.8993 -0.7887 -1.3783
  262MOL0     H34529   4.455   7.374   7.401 -0.3560 -0.0878  0.5329
  262MOL0     H34530   4.543   7.310   7.273 -1.0733 -0.2490 -0.6432
  262MOL0     H34531   4.660   7.501   7.344  0.2573 -0.5999  0.0245
  262MOL0     H34532   4.754   7.362   7.394  0.0248  0.1576 -0.8370
  262MOL0     H34533   4.705   7.562   7.551 -2.4115  0.8173 -0.0862
  262MOL0     H34534   4.565   7.472   7.606 -0.0561  1.6614  0.0168
  262MOL0     H34535   4.852   7.345   7.584 -0.2792 -3.0848  1.2405
  262MOL0     H34536   4.715   7.261   7.638  0.6150 -0.2359 -3.2383
  262MOL0     H34537   4.644   7.574   7.804 -2.2702 -1.0560  4.7442
  262MOL0     H34538   4.775   7.558   8.174  0.3050 -0.8119  0.4662
  262MOL0     H34539   4.622   7.605   8.099 -0.2094 -0.5497 -0.0193
  262MOL0     H34540   4.908   7.725   8.044  0.7100 -1.4981  0.6236
  262MOL0     H34541   4.814   7.786   8.180 -2.0561  1.6702  0.1952
  262MOL0     H34542   4.777   7.808   7.895  1.2204  0.7137 -0.7899
  262MOL0     H34543   4.638   7.847   8.002  0.1234  0.6907 -2.0982
  262MOL0     H34544   4.905   7.985   7.966 -0.3834 -3.0961 -0.3955
  262MOL0     H34545   4.808   8.014   8.115  0.3546 -1.3913  0.4114
  262MOL0     H34546   4.568   8.218   7.782  0.5419 -2.4679  0.7471
  262MOL0     H34547   4.603   8.462   7.749 -0.2510  1.3709  1.7158
  262MOL0     H34548   5.044   8.816   8.107 -0.0933  0.9543  3.1894
  262MOL0     H34549   5.039   9.050   8.175  0.9843 -2.1813 -0.8416
  262MOL0     H34550   4.651   9.211   8.265  0.1020 -0.0207 -0.1870
  262MOL0     H34551   4.681   9.306   8.116  0.8071  2.2592  0.5194
  262MOL0     H34552   4.832   9.434   8.294 -0.6709  0.8926 -1.4774
  262MOL0     H34553   4.727   9.353   8.406  1.8853 -0.9213  0.4249
  262MOL0     H34554   4.529   9.464   8.315 -2.0937  3.3661 -1.4684
  262MOL0     H34555   4.622   9.542   8.188 -0.7090  0.6648  0.1894
  262MOL0     H34556   4.626   9.556   8.494  1.5135 -2.6258 -0.4380
  262MOL0     H34557   4.760   9.625   8.399 -0.6156  0.2146  1.3327
  262MOL0     H34558   4.497   9.710   8.302 -0.6761 -1.6643  1.5339
  262MOL0     H34559   4.645   9.802   8.304  0.7218 -1.8349 -2.0320
  262MOL0     H34560   4.609   9.814   8.562  2.8855  2.9212 -3.5402
  262MOL0     H34561   4.447   9.730   8.530 -1.7149  1.7426 -1.9249
  262MOL0     H34562   4.535  10.004   8.548 -2.6354 -1.7581  3.7275
  262MOL0     H34563   4.477   9.979   8.374  2.3168 -2.2826 -1.0885
  262MOL0     H34564   4.338   9.912   8.645  0.5107 -1.7340 -0.4751
  262MOL0     H34565   4.272   9.877   8.503  0.5812  0.9911  0.2281
  262MOL0     H34566   4.648   9.093   8.031 -1.5109 -2.0264 -0.0491
  262MOL0     H34567   4.681   8.882   7.897 -3.0688  1.0172  2.0088
  262MOL0     H34568   4.932   8.462   8.038  0.8220 -2.4326  1.1019
  262MOL0     H34569   4.913   8.229   8.060  4.5354  2.7055 -2.4374
  262MOL0     H34570   4.143   6.651   7.458 -0.1743 -2.2359 -0.4111
  262MOL0     H34571   4.012   6.498   7.315  1.5829 -0.5019  2.6902
  262MOL0     H34572   4.050   6.329   6.863 -1.0620  1.9910  2.1745
  262MOL0     H34573   3.974   6.150   6.693  2.8804  1.6749 -0.1776
  262MOL0     H34574   3.549   6.128   6.630  0.0708  1.2140 -2.2408
  262MOL0     H34575   3.609   5.972   6.679  1.5846  0.3407  0.3003
  262MOL0     H34576   3.634   6.094   6.399  2.4420 -0.7337 -2.1081
  262MOL0     H34577   3.669   5.929   6.417 -2.4776 -1.9398 -0.4126
  262MOL0     H34578   3.388   6.023   6.491  2.7716  0.4823  2.9471
  262MOL0     H34579   3.449   5.867   6.511  0.1291 -2.0755 -1.8633
  262MOL0     H34580   3.427   5.983   6.221  0.4480 -0.6720  0.6001
  262MOL0     H34581   3.482   5.822   6.291  2.4419  1.3119  2.5251
  262MOL0     H34582   3.040   5.866   6.287 -0.4157  1.6765 -3.4414
  262MOL0     H34583   3.582   6.326   6.709  0.3845 -1.9097 -1.8227
  262MOL0     H34584   3.643   6.498   6.822 -0.6391 -0.5826  1.4951
  263MOL0     O34585   5.210   6.176   6.547  0.5124  0.1725 -0.4002
  263MOL0     C34586   5.304   6.184   6.630  0.3586 -0.5328  0.1033
  263MOL0     O34587   5.348   6.083   6.713 -0.0265  0.3769 -0.0143
  263MOL0     C34588   5.294   5.960   6.721 -0.2627  0.6822  0.4759
  263MOL0     C34589   5.239   5.890   6.609  0.6580 -0.1058 -0.5727
  263MOL0     C34590   5.180   5.769   6.619  0.3403 -0.3212 -0.2668
  263MOL0     C34591   5.191   5.703   6.736  0.7027  0.3469 -0.6066
  263MOL0     O34592   5.142   5.573   6.748 -0.4902 -0.6690 -0.3432
  263MOL0     C34593   5.041   5.519   6.653 -0.4844 -0.2521  0.5829
  263MOL0     C34594   4.984   5.382   6.688 -0.1685  0.4343 -0.6231
  263MOL0     C34595   4.873   5.333   6.591 -0.0542 -1.0840  0.2604
  263MOL0     C34596   4.761   5.440   6.546 -0.8727  0.6307 -0.3950
  263MOL0     C34597   4.687   5.408   6.418 -0.2025 -0.4143  0.2129
  263MOL0     C34598   4.777   5.391   6.300 -0.1905  0.8264  0.5543
  263MOL0     C34599   4.711   5.437   6.173  0.2228 -0.1384  0.7966
  263MOL0     C34600   4.792   5.406   6.051  0.1931  0.0390 -0.4925
  263MOL0     N34601   4.753   5.500   5.937  0.2480  0.4443  0.6452
  263MOL0     C34602   4.847   5.584   5.880 -0.3345  0.0496 -0.5877
  263MOL0     C34603   4.800   5.590   5.753 -0.3162  0.0084  0.5331
  263MOL0     C34604   4.860   5.690   5.655 -0.0415 -0.8399  0.3483
  263MOL0     C34605   4.795   5.822   5.673  0.5417 -1.2595 -0.6181
  263MOL0     C34606   4.830   5.935   5.572  0.2788 -0.2240 -0.3136
  263MOL0     C34607   4.777   5.910   5.428 -0.4721  0.6110 -0.0330
  263MOL0     O34608   4.634   5.898   5.431  0.7027 -0.5708 -0.9041
  263MOL0     C34609   4.561   5.828   5.338  0.7644  0.2111  0.0017
  263MOL0     C34610   4.559   5.860   5.202  0.7600  0.3524  0.2187
  263MOL0     C34611   4.462   5.796   5.117 -1.3248 -0.3691 -0.1543
  263MOL0     C34612   4.391   5.686   5.166  0.2442  0.5784 -0.7782
  263MOL0     C34613   4.304   5.598   5.090 -0.5857 -0.6215 -0.0075
  263MOL0     O34614   4.255   5.669   4.977  0.1375  0.3286 -0.2454
  263MOL0     C34615   4.196   5.602   4.872 -0.3465  1.3796 -0.7899
  263MOL0     C34616   4.062   5.638   4.838 -0.3728 -0.4817  1.2255
  263MOL0     C34617   3.996   5.573   4.736  0.1952  0.4954 -0.0114
  263MOL0     C34618   4.071   5.491   4.652  0.9429  0.7241  0.2896
  263MOL0     O34619   3.997   5.437   4.544 -0.8600 -0.5073 -0.1906
  263MOL0     C34620   4.065   5.367   4.437  0.7966 -0.2609 -0.1689
  263MOL0     C34621   3.951   5.323   4.340  0.1573  0.9101 -0.1373
  263MOL0     C34622   3.848   5.423   4.293 -0.3348  1.1302  0.3203
  263MOL0     C34623   3.759   5.349   4.180  0.0278  0.3847 -0.5971
  263MOL0     C34624   3.624   5.422   4.153 -0.3090 -0.4617  0.3093
  263MOL0     C34625   3.632   5.543   4.056 -0.3180  0.4726 -0.2340
  263MOL0     C34626   3.509   5.617   4.019  1.0088 -1.0085 -0.5526
  263MOL0     C34627   3.525   5.693   3.890 -0.0774  0.9024 -0.0612
  263MOL0    Cl34628   3.686   5.779   3.880  0.4027 -0.3959  0.0999
  263MOL0     C34629   4.212   5.469   4.682  0.2815  0.2658  0.5655
  263MOL0     C34630   4.271   5.511   4.802 -0.2169  1.1961  0.1377
  263MOL0     O34631   4.279   5.483   5.120 -1.4235 -0.1800  0.2223
  263MOL0     C34632   4.404   5.649   5.306  1.0174  0.6967  0.6018
  263MOL0     C34633   4.482   5.725   5.392 -0.4564 -0.2833 -0.6437
  263MOL0     N34634   4.684   5.518   5.733  0.5747 -0.5592  0.5873
  263MOL0     N34635   4.658   5.465   5.845 -0.5284  0.2262  0.2452
  263MOL0     C34636   5.257   5.755   6.853 -0.1319  0.4174  0.9118
  263MOL0     C34637   5.309   5.884   6.841  0.6330  0.0872 -0.4056
  263MOL0     C34638   5.354   6.323   6.672 -0.1318  0.4917  0.8741
  263MOL0     C34639   5.378   6.426   6.575  0.0186 -0.1378 -0.4540
  263MOL0     C34640   5.444   6.543   6.615  1.0308 -0.4088  0.5505
  263MOL0     C34641   5.490   6.572   6.739  0.6794  0.2282  0.5342
  263MOL0     O34642   5.554   6.691   6.759  0.1452  0.9089  0.0565
  263MOL0     C34643   5.647   6.689   6.872 -0.9372 -0.3808 -0.7714
  263MOL0     C34644   5.753   6.806   6.868  0.2662  0.9039  0.3160
  263MOL0     C34645   5.720   6.916   6.765  0.3100 -0.5853  0.4778
  263MOL0     C34646   5.816   7.033   6.783 -0.5357 -0.8810  0.0743
  263MOL0     C34647   5.955   6.997   6.743  0.0023  0.7789  0.6602
  263MOL0     C34648   6.069   6.961   6.720  0.8590  0.0948  0.1011
  263MOL0     C34649   5.459   6.475   6.838 -0.0632  1.0688 -0.4308
  263MOL0     C34650   5.395   6.351   6.803  0.1702  0.2413 -0.4770
  263MOL0     H34651   5.231   5.935   6.511 -1.6642  3.0093  0.8708
  263MOL0     H34652   5.130   5.729   6.531 -1.0037 -0.1037  0.3799
  263MOL0     H34653   5.086   5.502   6.555 -0.7558 -1.4805  0.6616
  263MOL0     H34654   4.964   5.598   6.657 -2.1880 -1.6172 -2.1442
  263MOL0     H34655   4.932   5.390   6.784  2.9591  2.3246  1.0809
  263MOL0     H34656   5.065   5.309   6.694 -0.6047  0.0502  2.4101
  263MOL0     H34657   4.819   5.247   6.632  1.1138 -1.9309  0.0585
  263MOL0     H34658   4.921   5.295   6.501 -0.2166 -2.0213  0.5563
  263MOL0     H34659   4.704   5.463   6.637 -0.1617  0.4867  0.0944
  263MOL0     H34660   4.819   5.531   6.525  3.3862 -1.3485  1.5456
  263MOL0     H34661   4.615   5.488   6.398  1.5758  1.3415  0.4755
  263MOL0     H34662   4.617   5.327   6.438 -1.0682 -0.0177 -1.0775
  263MOL0     H34663   4.816   5.289   6.295  0.3319  0.9037  2.5042
  263MOL0     H34664   4.866   5.452   6.321  2.1579 -2.3173  0.4380
  263MOL0     H34665   4.623   5.377   6.152 -0.9820  1.2973  1.5548
  263MOL0     H34666   4.685   5.543   6.179  1.2272  0.2297 -0.6901
  263MOL0     H34667   4.781   5.299   6.030 -1.2215 -0.1298  0.9400
  263MOL0     H34668   4.897   5.416   6.080 -0.4181  0.8832  1.5782
  263MOL0     H34669   4.940   5.624   5.920 -0.2865 -0.6691  0.0267
  263MOL0     H34670   4.847   5.653   5.552  1.3555  1.2165 -0.6400
  263MOL0     H34671   4.969   5.698   5.650 -0.1509  0.4170 -0.6760
  263MOL0     H34672   4.824   5.856   5.773  0.8060 -1.0412 -0.7681
  263MOL0     H34673   4.686   5.812   5.679  0.3840  0.7112  1.3582
  263MOL0     H34674   4.770   6.022   5.599 -1.5926 -1.8743  1.1926
  263MOL0     H34675   4.936   5.961   5.577 -0.1074  1.4295 -0.1845
  263MOL0     H34676   4.816   5.818   5.383  0.2278  0.7289  0.3301
  263MOL0     H34677   4.813   5.988   5.359  2.1217  0.4581  1.0405
  263MOL0     H34678   4.623   5.938   5.163 -0.3581  2.3344  2.0978
  263MOL0     H34679   4.453   5.830   5.015 -2.6234 -2.1691 -0.6976
  263MOL0     H34680   4.026   5.731   4.882  0.0810  1.6944 -2.5324
  263MOL0     H34681   3.891   5.587   4.712  0.2471  0.8596 -0.0294
  263MOL0     H34682   4.118   5.283   4.482  1.0662 -0.2311 -0.4277
  263MOL0     H34683   4.140   5.427   4.385 -1.6307  0.0872 -3.5819
  263MOL0     H34684   3.908   5.231   4.383  2.7811 -0.5016 -0.2906
  263MOL0     H34685   4.001   5.290   4.249  2.0112 -1.1360  1.4908
  263MOL0     H34686   3.883   5.522   4.260 -1.5261  1.4400 -0.0758
  263MOL0     H34687   3.792   5.451   4.382  2.2176  0.1820  2.3461
  263MOL0     H34688   3.810   5.327   4.086 -0.2285  0.2054 -0.6933
  263MOL0     H34689   3.711   5.260   4.221 -4.0807  2.9804  0.9385
  263MOL0     H34690   3.575   5.460   4.243 -2.2546  2.3216 -1.7734
  263MOL0     H34691   3.559   5.341   4.119 -1.5215 -0.5541  2.6035
  263MOL0     H34692   3.679   5.496   3.969  2.9483 -1.5607  2.3529
  263MOL0     H34693   3.708   5.612   4.094  0.1594  0.7709 -1.6610
  263MOL0     H34694   3.436   5.537   4.003 -3.2788  2.4085 -0.0209
  263MOL0     H34695   3.464   5.675   4.100  0.1222  1.2302 -2.5372
  263MOL0     H34696   3.440   5.757   3.867 -2.1860 -2.6489 -3.5120
  263MOL0     H34697   3.527   5.610   3.818 -2.8089 -0.4582  1.2804
  263MOL0     H34698   4.254   5.406   4.604 -1.6938 -0.9202  0.3697
  263MOL0     H34699   4.371   5.477   4.828  0.1417  1.4705 -0.8423
  263MOL0     H34700   4.348   5.566   5.348  2.5522  0.6388  2.7090
  263MOL0     H34701   4.483   5.715   5.500 -1.8756 -0.9437 -0.6632
  263MOL0     H34702   5.278   5.690   6.937  3.0656 -0.5768 -0.5087
  263MOL0     H34703   5.365   5.936   6.917  0.0859  2.4262 -1.5069
  263MOL0     H34704   5.347   6.415   6.472 -0.7739 -1.1639 -0.1268
  263MOL0     H34705   5.465   6.610   6.532 -4.0064 -3.5356 -3.8899
  263MOL0     H34706   5.710   6.600   6.879  0.5368  0.7755  2.6336
  263MOL0     H34707   5.573   6.709   6.950 -1.1804  0.1668 -1.1411
  263MOL0     H34708   5.748   6.850   6.968 -0.0959 -0.3920  0.8913
  263MOL0     H34709   5.853   6.764   6.854 -0.0622 -0.2714  1.2385
  263MOL0     H34710   5.619   6.947   6.790 -0.6440 -0.7946 -2.7136
  263MOL0     H34711   5.729   6.877   6.663  0.2323  0.6282 -0.0024
  263MOL0     H34712   5.773   7.121   6.735  1.5970  0.6174  0.7745
  263MOL0     H34713   5.821   7.063   6.888 -2.5336  0.3527 -0.1435
  263MOL0     H34714   6.172   6.932   6.708  0.2968 -1.3539 -1.7819
  263MOL0     H34715   5.489   6.486   6.942  1.5050  0.8576 -0.8383
  263MOL0     H34716   5.396   6.273   6.878  4.6801  1.4739  1.0439
  264MOL0     O34717   8.031   6.488   7.742 -0.3832  0.2563 -0.2305
  264MOL0     C34718   7.987   6.376   7.715  0.0693 -0.6851 -0.6099
  264MOL0     O34719   7.861   6.344   7.687  0.2205  0.7360 -1.3295
  264MOL0     C34720   7.766   6.442   7.703  0.0906 -0.6653 -0.5597
  264MOL0     C34721   7.693   6.493   7.598 -1.1635 -0.6257  0.3855
  264MOL0     C34722   7.630   6.619   7.600 -0.4044 -0.4939 -0.9733
  264MOL0     C34723   7.617   6.690   7.730  0.4217  0.1660 -0.0071
  264MOL0     O34724   7.523   6.789   7.747  0.0923 -0.5893 -0.3503
  264MOL0     C34725   7.394   6.773   7.687 -0.8600  0.6899  0.0096
  264MOL0     C34726   7.295   6.862   7.761 -0.7632 -0.1854 -0.0678
  264MOL0     C34727   7.270   6.816   7.910  0.1127  0.5303  0.2933
  264MOL0     C34728   7.166   6.906   7.972  0.9792  0.2651  0.1864
  264MOL0     C34729   7.166   6.916   8.126  0.4799 -0.0398  0.0295
  264MOL0     C34730   7.103   6.800   8.205 -0.2944  0.0910 -0.2479
  264MOL0     C34731   7.098   6.821   8.354 -0.6837  0.2436 -0.7164
  264MOL0     C34732   6.975   6.898   8.413 -0.5443 -0.0803  0.1623
  264MOL0     N34733   6.938   6.842   8.544  0.0318  0.4720  0.6261
  264MOL0     C34734   6.842   6.744   8.554 -0.1036 -0.9175 -0.3406
  264MOL0     C34735   6.853   6.705   8.685 -0.5356  1.1234  0.6064
  264MOL0     C34736   6.782   6.578   8.745  0.2410 -0.7154  0.9168
  264MOL0     C34737   6.669   6.622   8.834  0.5397  0.2157 -0.9105
  264MOL0     C34738   6.714   6.696   8.960  0.0057  0.4620  0.5961
  264MOL0     C34739   6.578   6.715   9.033  0.9089 -0.2365 -0.2611
  264MOL0     O34740   6.591   6.784   9.161 -0.4656  0.8142 -0.3728
  264MOL0     C34741   6.472   6.815   9.226  0.2446 -0.6081  0.3282
  264MOL0     C34742   6.342   6.763   9.208 -0.8012 -0.4628  1.1853
  264MOL0     C34743   6.238   6.796   9.290 -0.2268 -0.1436 -0.9955
  264MOL0     C34744   6.249   6.897   9.383 -1.3006 -0.1311 -0.0269
  264MOL0     C34745   6.145   6.930   9.476 -0.1705  0.1159  0.1388
  264MOL0     O34746   6.046   6.843   9.489  0.8901  0.6197 -0.0439
  264MOL0     C34747   5.937   6.853   9.571 -0.6976 -0.4185 -0.1740
  264MOL0     C34748   5.878   6.743   9.618 -0.1659 -0.8099  0.5499
  264MOL0     C34749   5.763   6.750   9.701 -0.7497 -0.5306  0.2463
  264MOL0     C34750   5.695   6.873   9.706  0.5516 -0.0730 -0.3184
  264MOL0     O34751   5.583   6.862   9.775  0.1375  0.1139 -0.2869
  264MOL0     C34752   5.492   6.979   9.777 -0.2210  0.8771 -0.3819
  264MOL0     C34753   5.421   6.998   9.639 -0.1402 -0.1789 -0.3318
  264MOL0     C34754   5.351   7.133   9.620 -0.2043 -0.4485  0.4584
  264MOL0     C34755   5.441   7.249   9.637  1.0376  0.5155 -0.0089
  264MOL0     C34756   5.377   7.375   9.579 -0.3017 -0.2036 -0.8940
  264MOL0     C34757   5.256   7.421   9.655  0.1767 -0.1613 -0.8785
  264MOL0     C34758   5.269   7.414   9.815  1.3267 -0.1635  0.5387
  264MOL0     C34759   5.135   7.452   9.869 -0.7839  0.0151  0.6312
  264MOL0    Cl34760   5.129   7.482  10.041  0.0394 -0.3529  0.3663
  264MOL0     C34761   5.753   6.989   9.657 -0.1026  0.7287 -0.2587
  264MOL0     C34762   5.875   6.978   9.588 -0.1453 -0.5159 -0.4769
  264MOL0     O34763   6.155   7.030   9.537  0.0113 -0.2365 -0.0698
  264MOL0     C34764   6.382   6.968   9.387 -0.3307  0.2883  0.9388
  264MOL0     C34765   6.487   6.926   9.304 -0.2566 -0.4600  0.5100
  264MOL0     N34766   6.946   6.788   8.750 -0.2738  0.7158  1.0999
  264MOL0     N34767   6.996   6.868   8.661  0.7029  0.5243  0.1704
  264MOL0     C34768   7.679   6.630   7.841  0.5604 -0.5592 -0.4387
  264MOL0     C34769   7.756   6.515   7.831 -0.2353  0.2031  0.1192
  264MOL0     C34770   8.067   6.262   7.716 -1.3928  0.0270 -0.3431
  264MOL0     C34771   8.017   6.134   7.753  0.3010 -0.4130 -0.1661
  264MOL0     C34772   8.107   6.026   7.774  0.6924  0.0446 -0.6313
  264MOL0     C34773   8.247   6.040   7.755  0.2385 -0.7156  0.5427
  264MOL0     O34774   8.322   5.927   7.773 -0.3335  0.7653  0.3567
  264MOL0     C34775   8.459   5.929   7.744 -0.6983 -1.0315 -0.1698
  264MOL0     C34776   8.514   5.794   7.781 -0.8628 -0.2706 -0.0910
  264MOL0     C34777   8.661   5.798   7.798  0.7015 -0.1151  0.6931
  264MOL0     C34778   8.727   5.788   7.655 -0.2837 -0.7270  0.3280
  264MOL0     C34779   8.733   5.656   7.595 -0.6889  0.5009 -1.2192
  264MOL0     C34780   8.720   5.548   7.544  0.1436 -0.0490  0.3530
  264MOL0     C34781   8.291   6.171   7.711 -0.1728 -0.6211 -1.1380
  264MOL0     C34782   8.201   6.278   7.696  1.4968  0.2490  0.4299
  264MOL0     H34783   7.695   6.445   7.501  1.5242 -0.1478  0.1295
  264MOL0     H34784   7.594   6.659   7.505  0.8390  0.1541 -1.1939
  264MOL0     H34785   7.361   6.670   7.703  0.5662  0.6249  3.4286
  264MOL0     H34786   7.401   6.810   7.584  4.3542 -0.8006 -0.5043
  264MOL0     H34787   7.202   6.868   7.703 -0.3855  1.0061 -0.5704
  264MOL0     H34788   7.334   6.964   7.761 -1.0083 -0.0532  1.6875
  264MOL0     H34789   7.363   6.844   7.960 -0.3909  1.7113  0.6188
  264MOL0     H34790   7.253   6.709   7.928  0.1290  0.9294  3.2228
  264MOL0     H34791   7.181   7.011   7.945 -1.7401  1.4499  2.7082
  264MOL0     H34792   7.071   6.874   7.929  3.3299 -3.0299 -3.2406
  264MOL0     H34793   7.124   7.014   8.149  2.3299  0.8379 -0.1128
  264MOL0     H34794   7.270   6.923   8.157  0.0880 -0.9128  1.6266
  264MOL0     H34795   7.164   6.710   8.190 -0.7121 -0.3335  0.5820
  264MOL0     H34796   7.005   6.776   8.163  0.4768 -0.4843 -1.8289
  264MOL0     H34797   7.114   6.730   8.412 -1.3810 -0.1217 -1.0941
  264MOL0     H34798   7.193   6.874   8.371 -1.8709  1.8415  1.3924
  264MOL0     H34799   6.890   6.895   8.344 -1.0946  0.2451  0.8238
  264MOL0     H34800   7.002   7.004   8.425  0.4347  0.2763 -3.6788
  264MOL0     H34801   6.776   6.704   8.477  0.1550 -3.2900  0.5958
  264MOL0     H34802   6.858   6.521   8.799  2.0325  2.3250  1.8594
  264MOL0     H34803   6.736   6.524   8.662 -0.7373  2.9304 -1.1331
  264MOL0     H34804   6.610   6.535   8.865  0.6022  1.4712  3.4115
  264MOL0     H34805   6.608   6.694   8.780  1.2007  1.2634 -0.2902
  264MOL0     H34806   6.790   6.631   9.004 -1.6208 -1.1742  1.1345
  264MOL0     H34807   6.744   6.798   8.934 -2.2771  1.2538  0.8714
  264MOL0     H34808   6.543   6.615   9.059  4.2826 -2.0461 -1.9155
  264MOL0     H34809   6.509   6.776   8.974 -1.8267  0.0865  2.9777
  264MOL0     H34810   6.329   6.682   9.137  0.3509 -0.3133  0.7843
  264MOL0     H34811   6.139   6.756   9.270 -1.5290  2.5948 -0.3933
  264MOL0     H34812   5.933   6.649   9.612  5.1636  1.9526  0.5078
  264MOL0     H34813   5.718   6.660   9.741  1.6276 -1.3102  1.3435
  264MOL0     H34814   5.558   7.063   9.801  0.6697  0.7764 -2.2663
  264MOL0     H34815   5.418   6.968   9.856  2.5754  2.0999  2.6233
  264MOL0     H34816   5.348   6.917   9.624  1.3324 -1.4807 -0.7998
  264MOL0     H34817   5.501   6.994   9.564  1.7607 -0.6987  1.6037
  264MOL0     H34818   5.263   7.138   9.684 -1.7339  0.6252 -1.6402
  264MOL0     H34819   5.305   7.131   9.521  1.2194  0.3780 -0.2666
  264MOL0     H34820   5.456   7.258   9.745 -3.3052 -5.0344  1.5542
  264MOL0     H34821   5.537   7.227   9.588 -0.4005 -2.8016 -1.6990
  264MOL0     H34822   5.359   7.368   9.471 -0.1628 -0.8563 -0.8758
  264MOL0     H34823   5.461   7.444   9.588 -0.4523 -0.3242  4.9589
  264MOL0     H34824   5.186   7.339   9.636  0.1348 -0.0743 -1.1012
  264MOL0     H34825   5.229   7.519   9.613 -0.3342 -1.9382 -5.3607
  264MOL0     H34826   5.293   7.313   9.849 -2.1017 -0.9830  0.9434
  264MOL0     H34827   5.348   7.484   9.842 -1.3301  5.0795 -3.5200
  264MOL0     H34828   5.063   7.371   9.864 -2.2955  1.1211  2.8984
  264MOL0     H34829   5.108   7.538   9.807  1.5308 -2.1690 -3.9389
  264MOL0     H34830   5.716   7.089   9.675 -0.1040  1.1895 -2.5089
  264MOL0     H34831   5.921   7.069   9.551 -0.0004  0.0578  1.0443
  264MOL0     H34832   6.404   7.046   9.459  0.8826 -0.7543  1.7464
  264MOL0     H34833   6.583   6.973   9.325 -0.0925 -1.9209  3.6403
  264MOL0     H34834   7.677   6.676   7.939  4.4676  0.9892 -0.8942
  264MOL0     H34835   7.825   6.465   7.899 -1.0269 -2.0861 -0.6591
  264MOL0     H34836   7.914   6.121   7.785  0.4921  1.3396  1.3453
  264MOL0     H34837   8.077   5.932   7.818  1.1040  0.7665  1.3137
  264MOL0     H34838   8.513   6.001   7.806 -0.1742 -1.6008  0.0497
  264MOL0     H34839   8.486   5.953   7.641  2.5977 -2.1842  0.3091
  264MOL0     H34840   8.490   5.761   7.882 -0.1154 -1.4745 -0.2809
  264MOL0     H34841   8.480   5.715   7.713 -0.2725  0.9936 -1.9251
  264MOL0     H34842   8.687   5.709   7.857  1.1742 -0.7032 -0.3598
  264MOL0     H34843   8.707   5.887   7.842 -0.4485 -0.4207  2.6024
  264MOL0     H34844   8.685   5.865   7.590  0.6234 -0.5981 -0.1224
  264MOL0     H34845   8.832   5.818   7.664  0.9339 -3.5172 -2.4387
  264MOL0     H34846   8.703   5.456   7.493 -1.3037  2.0529 -3.3656
  264MOL0     H34847   8.390   6.199   7.679 -1.0911  1.9298 -1.9473
  264MOL0     H34848   8.240   6.371   7.657  0.1644  1.2386  1.3506
  265MOL0     O34849   2.081   6.667   9.850 -0.6702  0.4706  0.0765
  265MOL0     C34850   2.156   6.571   9.823 -0.4781 -0.0502  0.3749
  265MOL0     O34851   2.109   6.464   9.744 -0.9445  0.0948  0.5270
  265MOL0     C34852   2.015   6.476   9.647 -0.3459 -0.5601 -0.0583
  265MOL0     C34853   1.996   6.362   9.569  0.9902  0.4889  0.1026
  265MOL0     C34854   1.896   6.355   9.469 -0.9346 -0.5413  0.7838
  265MOL0     C34855   1.818   6.472   9.437 -1.7952 -0.5687 -0.6324
  265MOL0     O34856   1.736   6.473   9.326  0.4900 -0.2145 -0.2065
  265MOL0     C34857   1.798   6.555   9.222 -0.1684  0.0725 -0.7429
  265MOL0     C34858   1.876   6.465   9.136 -0.1366  0.0448  0.6548
  265MOL0     C34859   1.911   6.540   9.007 -0.2500 -0.2841  0.8533
  265MOL0     C34860   2.014   6.473   8.918 -0.5223  0.2664 -0.3629
  265MOL0     C34861   2.032   6.558   8.791 -0.1456 -1.0628  0.1662
  265MOL0     C34862   2.070   6.696   8.818  0.4451 -0.2063  0.1580
  265MOL0     C34863   2.143   6.758   8.702 -0.2052 -0.6084 -0.3454
  265MOL0     C34864   2.293   6.768   8.708  0.2532 -0.4905 -0.9854
  265MOL0     N34865   2.350   6.635   8.725  0.4756  1.4762 -1.1053
  265MOL0     C34866   2.421   6.549   8.646  0.9738  0.7942 -0.1815
  265MOL0     C34867   2.456   6.442   8.716 -0.6196  0.0530 -0.1772
  265MOL0     C34868   2.518   6.322   8.670  0.2504 -0.5915  0.7811
  265MOL0     C34869   2.664   6.346   8.640 -1.1422  0.2967 -0.9370
  265MOL0     C34870   2.762   6.333   8.766 -0.7242  0.9717 -0.2527
  265MOL0     C34871   2.753   6.455   8.866  0.1689 -0.3477 -0.2350
  265MOL0     O34872   2.866   6.542   8.834 -0.9595  0.2368  0.5315
  265MOL0     C34873   2.888   6.665   8.897  1.0831  0.1322  0.7987
  265MOL0     C34874   2.796   6.729   8.974 -0.1345 -0.1819  0.0464
  265MOL0     C34875   2.825   6.862   9.012  0.3315 -0.0157  0.0721
  265MOL0     C34876   2.943   6.928   8.996 -0.4951  0.6113 -0.7842
  265MOL0     C34877   2.965   7.054   9.069 -0.1367  0.1016  0.0729
  265MOL0     O34878   2.871   7.090   9.164  0.4517 -0.1745 -0.8262
  265MOL0     C34879   2.896   7.185   9.259 -0.8763 -0.7317  0.2140
  265MOL0     C34880   2.841   7.154   9.391 -0.0497 -0.4827 -0.4367
  265MOL0     C34881   2.866   7.241   9.501 -0.0851 -0.7837 -0.2815
  265MOL0     C34882   2.936   7.360   9.488  1.3630  0.2955 -0.5611
  265MOL0     O34883   2.957   7.451   9.595 -0.3427  0.2345 -0.3388
  265MOL0     C34884   3.068   7.403   9.684 -0.2344  0.7495 -1.1765
  265MOL0     C34885   3.186   7.508   9.680 -0.0573 -0.1067 -0.4827
  265MOL0     C34886   3.121   7.647   9.714  0.7503 -0.9120 -0.7082
  265MOL0     C34887   3.222   7.768   9.741  0.3369 -0.0498  0.0049
  265MOL0     C34888   3.149   7.902   9.757 -0.2786  0.5698 -0.4257
  265MOL0     C34889   3.238   8.015   9.791 -0.6041 -0.3028  0.1577
  265MOL0     C34890   3.279   8.026   9.933 -0.5807 -0.1974  0.4498
  265MOL0     C34891   3.363   8.157   9.947 -0.3651 -1.1347  0.0852
  265MOL0    Cl34892   3.246   8.297   9.987 -0.6910 -0.2105  0.1640
  265MOL0     C34893   2.983   7.397   9.360 -0.2054 -0.1060 -0.5135
  265MOL0     C34894   2.973   7.309   9.251  0.3282  0.4448 -0.1263
  265MOL0     O34895   3.078   7.106   9.049  0.6649  0.3759 -0.2632
  265MOL0     C34896   3.041   6.860   8.925  0.6347  0.0244  0.4421
  265MOL0     C34897   3.003   6.728   8.873  0.5625 -0.1232  0.7597
  265MOL0     N34898   2.410   6.454   8.838 -0.1381 -0.6937  0.7277
  265MOL0     N34899   2.346   6.566   8.846  0.0747  0.0993 -0.4792
  265MOL0     C34900   1.824   6.583   9.520  0.2435  0.2569  0.4387
  265MOL0     C34901   1.920   6.588   9.618 -0.8458 -0.2505  0.5193
  265MOL0     C34902   2.286   6.562   9.897 -0.1832 -0.2045  0.6084
  265MOL0     C34903   2.375   6.456   9.867  0.8935  0.0287  0.2767
  265MOL0     C34904   2.495   6.446   9.931 -0.0785  0.1897  0.6536
  265MOL0     C34905   2.549   6.553  10.003  0.3441 -0.0015  0.3517
  265MOL0     O34906   2.679   6.568  10.037 -0.2809  1.0458  0.4460
  265MOL0     C34907   2.781   6.460  10.034  0.0373 -0.3096 -0.2698
  265MOL0     C34908   2.854   6.437   9.906  0.0631 -0.0885  0.2520
  265MOL0     C34909   2.884   6.570   9.832 -0.1465  0.7215 -0.0994
  265MOL0     C34910   2.944   6.550   9.694  0.0702  0.5846  0.6898
  265MOL0     C34911   3.011   6.664   9.631 -0.1445  0.7791  0.1074
  265MOL0     C34912   3.057   6.745   9.563 -1.1483 -0.6404  0.0265
  265MOL0     C34913   2.471   6.670  10.017 -0.3299  0.1824 -1.5530
  265MOL0     C34914   2.332   6.659   9.992 -0.2015 -0.1934 -0.3599
  265MOL0     H34915   2.064   6.279   9.584 -0.8562 -0.7871  2.1699
  265MOL0     H34916   1.886   6.257   9.424  0.9360 -0.5287  0.2609
  265MOL0     H34917   1.860   6.636   9.261  1.1131 -1.8827  1.5344
  265MOL0     H34918   1.713   6.601   9.170 -1.3419 -1.4731 -0.2673
  265MOL0     H34919   1.812   6.381   9.112 -1.4167  0.1138  3.4584
  265MOL0     H34920   1.972   6.439   9.181  0.4894  2.2696  0.7290
  265MOL0     H34921   1.934   6.647   9.019 -1.8596  0.1463  0.3509
  265MOL0     H34922   1.816   6.535   8.954  0.3132  1.3963 -0.4200
  265MOL0     H34923   2.113   6.454   8.961 -0.5390  2.1554  0.6092
  265MOL0     H34924   1.981   6.374   8.885  0.8642  0.6551 -3.1375
  265MOL0     H34925   1.943   6.549   8.729  0.0522 -2.6771  0.0743
  265MOL0     H34926   2.115   6.505   8.742  0.9393 -1.7008  2.5376
  265MOL0     H34927   2.132   6.686   8.908 -2.6415  1.4337  2.7149
  265MOL0     H34928   1.980   6.755   8.835 -0.5750 -0.7166 -2.8969
  265MOL0     H34929   2.112   6.697   8.616  0.0783 -0.3516 -0.6296
  265MOL0     H34930   2.106   6.860   8.688  2.1907  0.4106  0.4103
  265MOL0     H34931   2.321   6.835   8.789 -3.1026 -0.5009  0.3531
  265MOL0     H34932   2.340   6.815   8.621  0.4170  0.4654 -0.3926
  265MOL0     H34933   2.448   6.577   8.544  0.4391  0.6924 -0.3540
  265MOL0     H34934   2.467   6.269   8.589 -1.3604  1.7230  0.1714
  265MOL0     H34935   2.507   6.251   8.752  2.2996  1.1682  2.6892
  265MOL0     H34936   2.676   6.434   8.577  1.8547  1.4240  1.0251
  265MOL0     H34937   2.688   6.260   8.576 -1.3453  1.1591 -2.2004
  265MOL0     H34938   2.718   6.244   8.810  0.4207  0.5287  0.0294
  265MOL0     H34939   2.866   6.317   8.737 -0.8546  0.0028 -0.2076
  265MOL0     H34940   2.746   6.414   8.968 -0.0498 -1.2212 -0.5910
  265MOL0     H34941   2.658   6.510   8.857  0.4928  0.4801  1.0249
  265MOL0     H34942   2.703   6.689   9.012 -2.4607  1.7275 -3.1476
  265MOL0     H34943   2.748   6.918   9.064  2.3778  1.8034  1.3144
  265MOL0     H34944   2.780   7.065   9.405 -2.4655  1.2691  1.0980
  265MOL0     H34945   2.821   7.212   9.595 -2.8029  0.9107 -0.9330
  265MOL0     H34946   3.111   7.305   9.663  0.6501  0.5701  1.1742
  265MOL0     H34947   3.049   7.399   9.792  3.3969  0.7369 -0.4378
  265MOL0     H34948   3.233   7.507   9.581  2.8540 -0.6666  0.7937
  265MOL0     H34949   3.269   7.497   9.750 -1.5213  3.6576  2.1840
  265MOL0     H34950   3.055   7.628   9.800  4.4202 -2.8702  1.9583
  265MOL0     H34951   3.069   7.675   9.622  0.1511 -3.4065 -1.2081
  265MOL0     H34952   3.280   7.746   9.830 -1.3737  0.9191  1.4319
  265MOL0     H34953   3.279   7.773   9.648 -1.2500  1.2681 -0.9674
  265MOL0     H34954   3.099   7.894   9.854  2.3771  0.0008  1.0250
  265MOL0     H34955   3.093   7.923   9.666 -0.8254 -0.5438 -0.3622
  265MOL0     H34956   3.192   8.111   9.768  1.5549  1.0117  1.0712
  265MOL0     H34957   3.330   8.001   9.733 -1.0701  0.0121 -0.6711
  265MOL0     H34958   3.186   8.045   9.986 -0.0394  2.8684  0.5295
  265MOL0     H34959   3.340   7.941   9.964  2.9394  1.6098 -0.8984
  265MOL0     H34960   3.413   8.157   9.850 -1.7152 -0.2194 -0.6239
  265MOL0     H34961   3.428   8.152  10.035  0.1870 -3.3351 -0.3787
  265MOL0     H34962   3.024   7.498   9.359 -1.3720  0.4052  0.4604
  265MOL0     H34963   3.017   7.344   9.158  2.1754  3.2872  1.6396
  265MOL0     H34964   3.140   6.895   8.896 -0.8550  1.6870 -3.2798
  265MOL0     H34965   3.073   6.665   8.819 -1.5233 -0.2138 -2.0449
  265MOL0     H34966   1.747   6.658   9.500 -1.0770 -0.8102  1.3080
  265MOL0     H34967   1.931   6.680   9.674  1.3423 -1.0998  1.6077
  265MOL0     H34968   2.351   6.382   9.791  0.4693  0.8890 -0.4429
  265MOL0     H34969   2.543   6.351   9.909 -1.1483 -0.3242  0.4234
  265MOL0     H34970   2.745   6.367  10.078 -1.9703  0.1846 -0.7527
  265MOL0     H34971   2.866   6.497  10.093  2.1089 -1.0770 -2.6133
  265MOL0     H34972   2.943   6.377   9.929  0.2198  0.2490  0.5505
  265MOL0     H34973   2.784   6.383   9.843  2.4160  0.9939 -3.5956
  265MOL0     H34974   2.960   6.633   9.880  1.3306  1.7300 -3.4189
  265MOL0     H34975   2.796   6.634   9.819 -0.5223  0.6392  1.7945
  265MOL0     H34976   3.023   6.475   9.702 -1.0198 -0.8224 -0.9794
  265MOL0     H34977   2.867   6.501   9.633 -2.5986  2.3555  2.4289
  265MOL0     H34978   3.107   6.818   9.503  2.1271 -0.6962  2.3628
  265MOL0     H34979   2.507   6.765  10.056 -0.9884 -0.3236  0.4173
  265MOL0     H34980   2.267   6.744  10.012 -1.5355 -1.0030 -1.1129
  266MOL0     O34981  11.236  10.442   8.679  0.9330 -0.5805  0.0779
  266MOL0     C34982  11.188  10.532   8.754  0.8057  0.9026 -0.1195
  266MOL0     O34983  11.233  10.561   8.879 -0.0747 -0.6650 -0.3673
  266MOL0     C34984  11.351  10.512   8.932 -0.0795  0.7820  0.1872
  266MOL0     C34985  11.475  10.483   8.875  1.4524 -0.7310  1.1439
  266MOL0     C34986  11.577  10.433   8.951 -0.0536  0.7196  0.4631
  266MOL0     C34987  11.567  10.426   9.085 -0.2053 -0.2960 -0.0834
  266MOL0     O34988  11.670  10.371   9.156 -0.5690  0.2603  0.0169
  266MOL0     C34989  11.748  10.460   9.232  0.3465 -0.0305 -1.0279
  266MOL0     C34990  11.844  10.547   9.155  0.2705  0.2890 -0.1838
  266MOL0     C34991  11.943  10.629   9.231  1.3284  0.0085  0.3199
  266MOL0     C34992  12.048  10.548   9.302  0.8884  0.1085 -0.6767
  266MOL0     C34993  12.016  10.537   9.448 -0.7824 -0.6423 -0.3979
  266MOL0     C34994  12.066  10.658   9.530 -0.8198 -0.9562  0.4293
  266MOL0     C34995  12.032  10.647   9.688  0.1914 -0.2504  0.0548
  266MOL0     C34996  11.899  10.585   9.720 -0.2880  0.5975 -0.2534
  266MOL0     N34997  11.788  10.680   9.696 -0.8528 -0.6452  0.1712
  266MOL0     C34998  11.699  10.721   9.787 -1.1091 -0.2639 -0.2076
  266MOL0     C34999  11.632  10.825   9.722  0.2911 -0.5905 -0.0917
  266MOL0     C35000  11.519  10.901   9.783  0.6381 -0.4305  0.8897
  266MOL0     C35001  11.383  10.837   9.764  1.0329  0.1600 -0.0520
  266MOL0     C35002  11.354  10.712   9.851 -0.3001 -0.2594  1.5399
  266MOL0     C35003  11.213  10.664   9.865 -0.1081 -0.3244  0.2106
  266MOL0     O35004  11.137  10.693   9.749  0.2862  0.3422 -0.5788
  266MOL0     C35005  11.025  10.770   9.768  0.7226 -0.6114  0.5078
  266MOL0     C35006  10.933  10.761   9.871  1.2224  0.0262 -0.4320
  266MOL0     C35007  10.809  10.821   9.858 -0.7675  0.7487 -0.0125
  266MOL0     C35008  10.771  10.881   9.743  0.2305 -0.3532  0.3056
  266MOL0     C35009  10.631  10.932   9.747 -2.0203  1.1232  0.9126
  266MOL0     O35010  10.594  11.015   9.640 -0.2077 -0.0639  0.3318
  266MOL0     C35011  10.475  11.067   9.627  0.9345 -0.2672 -0.2455
  266MOL0     C35012  10.470  11.208   9.622  0.6668 -0.6064 -1.0085
  266MOL0     C35013  10.352  11.277   9.572 -0.3533  0.3866  0.4766
  266MOL0     C35014  10.240  11.196   9.539  0.0263 -0.1328  0.0275
  266MOL0     O35015  10.115  11.239   9.494  0.2014  0.2068 -0.6199
  266MOL0     C35016  10.104  11.381   9.484  1.1896  0.6788 -0.2087
  266MOL0     C35017   9.980  11.422   9.417 -0.2035  0.5759 -0.1814
  266MOL0     C35018   9.840  11.365   9.465  0.1716  0.2233 -0.8137
  266MOL0     C35019   9.719  11.409   9.375  0.6324  0.3818 -0.3775
  266MOL0     C35020   9.593  11.347   9.421 -0.1697  0.7879 -0.1594
  266MOL0     C35021   9.480  11.341   9.325  0.9959  0.0016  0.9023
  266MOL0     C35022   9.455  11.469   9.239  0.6819 -0.4708 -0.7928
  266MOL0     C35023   9.542  11.499   9.112 -0.5044  0.2054  0.2396
  266MOL0    Cl35024   9.587  11.350   9.022  0.1446  0.5354  0.2856
  266MOL0     C35025  10.243  11.056   9.558  0.6166 -0.5909 -0.1697
  266MOL0     C35026  10.355  10.992   9.606 -0.3015  0.1264  0.3241
  266MOL0     O35027  10.558  10.898   9.838  1.0645 -0.0557  0.2697
  266MOL0     C35028  10.860  10.898   9.635 -0.6264 -0.0556 -0.2234
  266MOL0     C35029  10.999  10.843   9.652  0.3601 -0.0218  0.8805
  266MOL0     N35030  11.684  10.848   9.601  0.3013  0.0550  1.1699
  266MOL0     N35031  11.779  10.761   9.586 -0.3977 -0.3590 -0.3142
  266MOL0     C35032  11.444  10.452   9.145  0.3472  0.3006  0.9223
  266MOL0     C35033  11.337  10.493   9.065 -0.0341  1.8339  0.6745
  266MOL0     C35034  11.066  10.604   8.703 -0.8543  0.0320  1.3989
  266MOL0     C35035  11.013  10.563   8.576  0.6766 -0.7080  0.6942
  266MOL0     C35036  10.896  10.621   8.529  0.0814  0.0125 -0.2278
  266MOL0     C35037  10.827  10.720   8.606 -1.3460  0.7012  0.4745
  266MOL0     O35038  10.717  10.789   8.576  0.4275  0.1750 -0.9945
  266MOL0     C35039  10.615  10.732   8.496  0.2807 -0.6389  0.0895
  266MOL0     C35040  10.530  10.667   8.597 -0.0349  1.2742  0.4921
  266MOL0     C35041  10.478  10.764   8.707  0.4205 -0.9218  0.4583
  266MOL0     C35042  10.376  10.707   8.801  0.0365  0.4413  0.7289
  266MOL0     C35043  10.235  10.751   8.764  0.2976  0.2753  0.1374
  266MOL0     C35044  10.120  10.780   8.747 -0.5370  0.2337 -0.0263
  266MOL0     C35045  10.878  10.754   8.729  0.8520  0.7123  0.1375
  266MOL0     C35046  10.998  10.697   8.778 -0.4829 -0.7636  0.3346
  266MOL0     H35047  11.494  10.496   8.769  0.3754  0.4242  1.0684
  266MOL0     H35048  11.669  10.396   8.908 -0.6050 -0.1851  0.0248
  266MOL0     H35049  11.811  10.404   9.302  1.0749  2.1680  0.1377
  266MOL0     H35050  11.694  10.533   9.292  0.1838 -1.9405  1.2820
  266MOL0     H35051  11.797  10.621   9.090 -0.8000  0.1471  0.4190
  266MOL0     H35052  11.901  10.483   9.087  1.0607  1.3075 -0.5255
  266MOL0     H35053  11.889  10.690   9.305  0.4970  0.9732 -1.0508
  266MOL0     H35054  11.988  10.700   9.161  0.0413 -0.0278 -0.5661
  266MOL0     H35055  12.044  10.443   9.270 -1.6520  0.7395 -2.7814
  266MOL0     H35056  12.147  10.595   9.294  0.8507  0.1403 -0.9657
  266MOL0     H35057  12.056  10.444   9.490  0.7961  0.9650  1.8690
  266MOL0     H35058  11.908  10.530   9.465 -0.2622 -3.1315  2.8372
  266MOL0     H35059  12.024  10.750   9.488  0.2660 -1.8043 -2.8259
  266MOL0     H35060  12.171  10.672   9.500 -1.9120  1.2219 -3.0661
  266MOL0     H35061  12.110  10.582   9.730 -2.1559 -1.2891  3.1525
  266MOL0     H35062  12.048  10.736   9.749 -1.1376 -0.0786  0.1889
  266MOL0     H35063  11.898  10.577   9.829 -2.1940 -2.3492 -0.3690
  266MOL0     H35064  11.889  10.484   9.680 -0.1287 -0.5196  2.3245
  266MOL0     H35065  11.678  10.686   9.888  1.8463 -2.7275 -0.3045
  266MOL0     H35066  11.534  10.995   9.729 -0.1579  0.0275  1.4489
  266MOL0     H35067  11.547  10.899   9.888  0.8369 -3.3577  0.8568
  266MOL0     H35068  11.372  10.813   9.658  3.5668  0.2056 -0.3791
  266MOL0     H35069  11.313  10.910   9.806  1.1259 -0.3451  1.0348
  266MOL0     H35070  11.394  10.619   9.807 -1.7115 -1.4082  2.5791
  266MOL0     H35071  11.397  10.730   9.949  0.5016 -0.4766  1.2364
  266MOL0     H35072  11.182  10.725   9.950 -1.4378  1.5407 -1.5206
  266MOL0     H35073  11.198  10.558   9.886 -3.1331 -0.4211 -1.7804
  266MOL0     H35074  10.944  10.683   9.946 -0.1351 -1.3291 -1.5702
  266MOL0     H35075  10.743  10.801   9.942 -1.7755 -0.6943 -1.0883
  266MOL0     H35076  10.562  11.262   9.645 -0.1576 -0.3935  2.2441
  266MOL0     H35077  10.330  11.383   9.566  0.4282  0.5936  1.1703
  266MOL0     H35078  10.182  11.418   9.417  1.5453  1.5501  0.6703
  266MOL0     H35079  10.098  11.428   9.583  1.2087 -0.4878  0.3633
  266MOL0     H35080   9.990  11.394   9.311  0.2006 -0.5069  0.1346
  266MOL0     H35081   9.971  11.531   9.409  1.7696  0.8174  0.4587
  266MOL0     H35082   9.824  11.410   9.564 -0.5474 -0.0326 -0.8106
  266MOL0     H35083   9.851  11.256   9.470 -0.0913  0.1755 -1.2423
  266MOL0     H35084   9.694  11.516   9.383 -1.2338  0.0067 -0.6989
  266MOL0     H35085   9.746  11.380   9.274  1.5554 -2.3195  0.5576
  266MOL0     H35086   9.542  11.409   9.496  0.5949  1.2379 -0.0042
  266MOL0     H35087   9.603  11.250   9.470 -2.4560  0.5641 -0.0183
  266MOL0     H35088   9.382  11.338   9.374 -1.4628  0.9308 -3.4056
  266MOL0     H35089   9.478  11.251   9.263  3.5768 -0.5053  1.4301
  266MOL0     H35090   9.354  11.458   9.199  1.6538 -2.1259 -3.0153
  266MOL0     H35091   9.448  11.555   9.306  0.5043 -0.6146 -0.6257
  266MOL0     H35092   9.629  11.547   9.159 -1.7330  2.8068  0.0753
  266MOL0     H35093   9.501  11.583   9.055 -1.1147  0.0454  0.4401
  266MOL0     H35094  10.160  10.993   9.527  0.2474  0.3680 -1.1922
  266MOL0     H35095  10.363  10.884   9.603 -0.0458  0.1411  0.4204
  266MOL0     H35096  10.838  10.968   9.555 -0.3605  0.0070 -0.2407
  266MOL0     H35097  11.080  10.855   9.581  0.2961 -1.7801  0.4445
  266MOL0     H35098  11.437  10.443   9.253  0.7705  1.2636  1.0368
  266MOL0     H35099  11.245  10.528   9.112 -1.1073 -0.1120  0.1371
  266MOL0     H35100  11.068  10.488   8.519 -0.8050 -3.3107  2.4860
  266MOL0     H35101  10.861  10.624   8.427  1.0563  0.2621 -0.5642
  266MOL0     H35102  10.642  10.658   8.421  3.0810  2.4551 -2.2382
  266MOL0     H35103  10.557  10.812   8.448  0.7883 -2.0492 -3.1284
  266MOL0     H35104  10.444  10.631   8.540  0.3911  0.3067  0.4539
  266MOL0     H35105  10.577  10.584   8.650  0.4128  1.4490  0.3670
  266MOL0     H35106  10.448  10.855   8.654  2.6481 -1.0639 -1.1927
  266MOL0     H35107  10.564  10.795   8.767  0.8737  3.5128 -2.0492
  266MOL0     H35108  10.383  10.598   8.809  1.5336  0.6007  1.9294
  266MOL0     H35109  10.386  10.735   8.906  0.5246  0.5463  0.6586
  266MOL0     H35110  10.019  10.811   8.731 -0.6810  2.2179  3.5865
  266MOL0     H35111  10.815  10.815   8.793 -4.1153 -2.8672 -0.7108
  266MOL0     H35112  11.020  10.732   8.878 -1.8710  2.5550 -0.4026
  267MOL0     O35113   3.153   5.761   9.975  0.1749 -0.8051  1.0504
  267MOL0     C35114   3.111   5.656   9.937 -0.0912  1.1233  0.0628
  267MOL0     O35115   3.081   5.542  10.011  0.2627 -0.3510  0.0554
  267MOL0     C35116   3.090   5.553  10.144 -0.2522  1.2364 -1.0681
  267MOL0     C35117   3.031   5.645  10.214  0.6622  0.3714 -0.1302
  267MOL0     C35118   3.058   5.668  10.348 -0.0287 -0.3423  0.2200
  267MOL0     C35119   3.151   5.592  10.413 -0.5088  0.6149 -0.3070
  267MOL0     O35120   3.161   5.632  10.541  0.3739 -0.7457 -0.1835
  267MOL0     C35121   3.259   5.569  10.625  0.2687  0.1545 -0.2056
  267MOL0     C35122   3.300   5.661  10.729 -0.8732  0.1594  0.5876
  267MOL0     C35123   3.398   5.755  10.661  0.5842 -0.2072  0.8921
  267MOL0     C35124   3.476   5.850  10.759  0.5145 -0.7287 -0.1798
  267MOL0     C35125   3.602   5.898  10.697 -0.1741  0.1648 -0.2296
  267MOL0     C35126   3.667   5.980  10.805  0.1693 -0.7723  0.8287
  267MOL0     C35127   3.810   6.024  10.746  0.0280 -0.3582  1.4694
  267MOL0     C35128   3.872   6.147  10.823 -0.4712 -0.3020  0.0622
  267MOL0     N35129   4.005   6.185  10.770 -0.1900  0.6742 -0.2459
  267MOL0     C35130   4.033   6.300  10.698 -0.5305 -0.6393  0.5259
  267MOL0     C35131   4.168   6.320  10.718  0.3389 -0.5571 -0.9392
  267MOL0     C35132   4.216   6.451  10.667 -0.4450 -0.9002  0.7113
  267MOL0     C35133   4.361   6.476  10.720 -0.3515  0.9320  0.8754
  267MOL0     C35134   4.409   6.609  10.669  0.1637  0.9766 -1.2268
  267MOL0     C35135   4.540   6.657  10.730  0.2630 -0.0944 -0.3513
  267MOL0     O35136   4.545   6.803  10.733  0.0078  0.2058  0.5205
  267MOL0     C35137   4.661   6.864  10.764  0.2304  0.9769 -0.3264
  267MOL0     C35138   4.780   6.806  10.811  0.7014  0.1989  0.5404
  267MOL0     C35139   4.892   6.882  10.850  0.3862  0.2876  0.1380
  267MOL0     C35140   4.888   7.027  10.861  0.7785  0.2320 -0.1784
  267MOL0     C35141   5.006   7.101  10.895 -0.4455 -0.5989  0.1492
  267MOL0     O35142   5.113   7.031  10.958  0.6732 -0.8382  0.6888
  267MOL0     C35143   5.215   7.106  11.011 -0.6782 -0.3942 -0.2443
  267MOL0     C35144   5.355   7.112  10.967  1.1928  0.3903  0.0582
  267MOL0     C35145   5.445   7.197  11.026  0.3412  0.6498 -0.0319
  267MOL0     C35146   5.403   7.268  11.146 -0.5242 -1.6870  1.5991
  267MOL0     O35147   5.508   7.344  11.195 -0.3079  0.1293  0.8647
  267MOL0     C35148   5.470   7.451  11.288  0.8589  0.4604 -0.1804
  267MOL0     C35149   5.412   7.555  11.185 -0.5089 -0.3316 -0.1662
  267MOL0     C35150   5.409   7.701  11.231 -0.0224 -0.4699 -0.1043
  267MOL0     C35151   5.532   7.759  11.300  0.2483 -0.0842  0.8660
  267MOL0     C35152   5.513   7.918  11.317  0.5066  0.0649  0.1899
  267MOL0     C35153   5.384   7.968  11.388 -0.2319  0.0799 -0.1145
  267MOL0     C35154   5.380   8.122  11.418 -0.0159  0.2588  0.4743
  267MOL0     C35155   5.298   8.148  11.540  0.4041  0.3756 -0.1391
  267MOL0    Cl35156   5.393   8.105  11.682 -0.6032 -0.1102 -0.4604
  267MOL0     C35157   5.273   7.263  11.190  1.3385  0.4513 -0.3901
  267MOL0     C35158   5.185   7.168  11.131  0.5626 -0.4252 -0.4661
  267MOL0     O35159   4.999   7.224  10.875 -0.2020  0.8826  1.0669
  267MOL0     C35160   4.760   7.084  10.823 -0.2069 -0.5699  0.7470
  267MOL0     C35161   4.648   6.999  10.788 -0.1468  0.1276 -0.0733
  267MOL0     N35162   4.221   6.206  10.782  0.6214  0.3674  0.6559
  267MOL0     N35163   4.121   6.128  10.816 -0.4515  1.0343 -1.2932
  267MOL0     C35164   3.225   5.506  10.337  0.7564 -0.2309 -0.6128
  267MOL0     C35165   3.197   5.493  10.199  0.8273 -0.1480  0.0065
  267MOL0     C35166   3.076   5.641   9.794 -0.2556 -1.0987  0.5331
  267MOL0     C35167   3.128   5.732   9.704 -0.1043 -0.2926  0.3940
  267MOL0     C35168   3.106   5.724   9.574  0.2800 -0.0868  1.0821
  267MOL0     C35169   3.015   5.629   9.524 -0.6792  1.4745 -0.1663
  267MOL0     O35170   3.022   5.606   9.393  0.4334  0.7431  0.4105
  267MOL0     C35171   2.915   5.538   9.322 -0.3885 -0.7040 -0.8610
  267MOL0     C35172   2.926   5.559   9.167  1.1091  0.2112 -0.4126
  267MOL0     C35173   2.890   5.706   9.121  0.3404  0.5540 -0.8624
  267MOL0     C35174   2.938   5.735   8.984 -0.6874  0.8136 -0.0698
  267MOL0     C35175   2.879   5.668   8.873  0.1767 -0.7390 -0.3633
  267MOL0     C35176   2.831   5.608   8.782 -0.6373  0.5403 -0.2887
  267MOL0     C35177   2.943   5.549   9.610  0.0915  0.0162  0.3631
  267MOL0     C35178   2.987   5.546   9.743  0.6176 -0.1073 -0.4773
  267MOL0     H35179   2.949   5.705  10.174  2.2899  0.4293 -3.8624
  267MOL0     H35180   2.997   5.750  10.386 -0.5451  0.3754 -1.9801
  267MOL0     H35181   3.339   5.532  10.560 -0.4916  0.2094 -1.1935
  267MOL0     H35182   3.201   5.485  10.665 -2.2417  2.1524  0.6606
  267MOL0     H35183   3.331   5.605  10.817  0.1017  0.7446  0.6310
  267MOL0     H35184   3.225   5.734  10.759  0.1546  1.1866  0.7469
  267MOL0     H35185   3.350   5.813  10.582  2.3197  0.5098  0.3179
  267MOL0     H35186   3.476   5.696  10.612  0.8817  0.6312  0.3335
  267MOL0     H35187   3.417   5.939  10.785 -0.1016 -0.6504 -1.7117
  267MOL0     H35188   3.487   5.793  10.851  0.2301 -0.8763 -0.2353
  267MOL0     H35189   3.573   5.940  10.600  0.2529  0.4479 -0.2385
  267MOL0     H35190   3.672   5.819  10.666  2.6033  1.5926  1.9081
  267MOL0     H35191   3.678   5.924  10.899  0.8052  0.5725  1.5827
  267MOL0     H35192   3.611   6.069  10.834 -0.0783  0.6029 -3.1977
  267MOL0     H35193   3.881   5.941  10.749  0.1413 -0.2560  1.6514
  267MOL0     H35194   3.792   6.058  10.644 -1.7690  3.2233  2.7884
  267MOL0     H35195   3.889   6.120  10.927  0.5303 -0.5735 -0.1660
  267MOL0     H35196   3.800   6.227  10.805  0.7890  1.3958  2.1365
  267MOL0     H35197   3.958   6.358  10.644 -2.2100 -1.9151  1.3827
  267MOL0     H35198   4.147   6.530  10.699  1.5859  1.9380 -1.4344
  267MOL0     H35199   4.214   6.462  10.559 -1.6328  0.1660  0.8237
  267MOL0     H35200   4.427   6.402  10.674  1.1266  3.1758 -0.8112
  267MOL0     H35201   4.364   6.463  10.829 -4.3712 -3.3432  0.7775
  267MOL0     H35202   4.431   6.610  10.562  0.3227  2.0175 -1.1955
  267MOL0     H35203   4.332   6.686  10.683 -1.5900 -0.5536 -2.1782
  267MOL0     H35204   4.624   6.621  10.669 -0.4242 -1.5773 -0.4846
  267MOL0     H35205   4.544   6.614  10.831 -1.7145  0.7993  0.1499
  267MOL0     H35206   4.792   6.698  10.810 -2.1164 -0.2093  0.3667
  267MOL0     H35207   4.985   6.834  10.877  0.1889 -0.3173 -0.2503
  267MOL0     H35208   5.377   7.049  10.881  1.2563  0.8556 -0.2723
  267MOL0     H35209   5.541   7.227  10.986 -0.5137 -0.2693 -2.9874
  267MOL0     H35210   5.557   7.502  11.332 -0.5576  2.5117  0.4051
  267MOL0     H35211   5.400   7.411  11.362 -0.1218 -3.1882 -2.8028
  267MOL0     H35212   5.313   7.523  11.151  0.9249 -3.2196 -1.9372
  267MOL0     H35213   5.482   7.561  11.102  0.0841  1.8422  0.4317
  267MOL0     H35214   5.326   7.707  11.302 -0.6064 -3.0395 -0.4675
  267MOL0     H35215   5.388   7.764  11.144  2.5419 -1.1098 -1.2633
  267MOL0     H35216   5.540   7.720  11.402  0.2585 -0.0828  0.8658
  267MOL0     H35217   5.620   7.740  11.237 -0.6596 -1.1686 -0.1041
  267MOL0     H35218   5.512   7.965  11.218 -3.2513 -2.3151 -1.1684
  267MOL0     H35219   5.604   7.955  11.365 -1.1707 -0.6259  4.2754
  267MOL0     H35220   5.380   7.899  11.474 -0.0802 -2.3897 -1.9762
  267MOL0     H35221   5.293   7.945  11.332 -0.2935  0.8981 -0.3616
  267MOL0     H35222   5.485   8.150  11.431  1.0537 -2.9506 -0.1795
  267MOL0     H35223   5.342   8.182  11.335 -0.1952 -0.0740  0.3146
  267MOL0     H35224   5.204   8.091  11.532  0.7636 -0.1154 -0.9146
  267MOL0     H35225   5.275   8.255  11.530  1.7645  0.7437  0.4289
  267MOL0     H35226   5.229   7.305  11.280 -1.9154 -0.8749 -1.1999
  267MOL0     H35227   5.084   7.162  11.169  1.6429 -1.8144  2.4630
  267MOL0     H35228   4.749   7.192  10.830 -2.2809 -0.4886 -2.0480
  267MOL0     H35229   4.558   7.051  10.756 -0.4287  1.2098  2.2692
  267MOL0     H35230   3.303   5.440  10.373  1.0288  1.0548  1.2967
  267MOL0     H35231   3.251   5.416  10.144  1.0239 -0.1150  0.1540
  267MOL0     H35232   3.196   5.804   9.748 -1.0942  2.9161 -2.8660
  267MOL0     H35233   3.166   5.786   9.509 -2.1831  2.2448  0.8530
  267MOL0     H35234   2.816   5.571   9.354  0.3710 -1.4083  2.6039
  267MOL0     H35235   2.922   5.431   9.343  1.2337  0.0123  3.2395
  267MOL0     H35236   3.027   5.530   9.134 -0.6689 -3.5913 -3.2167
  267MOL0     H35237   2.858   5.487   9.121 -0.8478  3.2813 -2.7509
  267MOL0     H35238   2.951   5.776   9.179 -0.7688  1.1353 -0.3456
  267MOL0     H35239   2.783   5.732   9.122  0.8076  2.6793  0.1778
  267MOL0     H35240   2.935   5.844   8.972  1.2665  1.1454  1.8995
  267MOL0     H35241   3.039   5.694   8.982 -1.0014  0.0475 -0.7314
  267MOL0     H35242   2.778   5.543   8.715 -2.0975  2.7849 -1.4386
  267MOL0     H35243   2.863   5.482   9.582  0.6894 -1.3390  1.7199
  267MOL0     H35244   2.935   5.485   9.817  1.5743 -0.2202  0.1164
  268MOL0     O35245   1.927   1.466   1.423 -0.6702 -0.0501  0.6074
  268MOL0     C35246   1.917   1.359   1.483  1.0753 -1.2628  0.4172
  268MOL0     O35247   1.849   1.259   1.434  0.9467  1.2403 -0.7910
  268MOL0     C35248   1.919   1.148   1.389  0.1200  0.5172 -0.0624
  268MOL0     C35249   2.058   1.126   1.393  2.2069 -0.4442 -0.3089
  268MOL0     C35250   2.108   0.998   1.364 -0.0142 -0.4935 -0.9139
  268MOL0     C35251   2.031   0.891   1.324 -0.5000 -0.6158 -0.6299
  268MOL0     O35252   2.098   0.789   1.260  0.1997  0.3451  0.3974
  268MOL0     C35253   2.233   0.737   1.279  1.0191  0.6132 -0.5701
  268MOL0     C35254   2.254   0.649   1.164  0.3268  0.3085  0.4985
  268MOL0     C35255   2.396   0.626   1.132  0.5512  0.8068  0.2947
  268MOL0     C35256   2.408   0.567   0.987  1.2952  0.0918  0.6488
  268MOL0     C35257   2.548   0.579   0.935 -0.1661  0.4803  0.3606
  268MOL0     C35258   2.642   0.462   0.985 -0.0866 -0.2868 -0.3093
  268MOL0     C35259   2.776   0.456   0.909 -0.5162 -1.3564 -1.0957
  268MOL0     C35260   2.880   0.564   0.953 -0.4175  0.8222  0.5255
  268MOL0     N35261   3.020   0.537   0.901 -0.9730  0.0683  0.0510
  268MOL0     C35262   3.054   0.450   0.806 -0.7475 -0.6695  0.0219
  268MOL0     C35263   3.195   0.443   0.807  0.2424 -0.4348 -0.6432
  268MOL0     C35264   3.281   0.362   0.719 -0.0695  0.6401  0.2976
  268MOL0     C35265   3.268   0.375   0.559 -0.1457 -0.8510 -0.4989
  268MOL0     C35266   3.155   0.300   0.495  0.0569  0.6254  0.0501
  268MOL0     C35267   3.143   0.151   0.524 -0.9637  0.8804 -0.3287
  268MOL0     O35268   3.099   0.122   0.652 -0.3048 -0.3920 -0.4020
  268MOL0     C35269   2.965   0.148   0.683 -0.3920  0.3590  0.6547
  268MOL0     C35270   2.861   0.193   0.599  0.0328 -0.2573  0.3042
  268MOL0     C35271   2.735   0.201   0.635  0.0223  0.4777  0.3427
  268MOL0     C35272   2.694   0.161   0.766  0.3588 -0.2443  0.9255
  268MOL0     C35273   2.553   0.150   0.805  0.7213 -0.1783  1.0883
  268MOL0     O35274   2.468   0.190   0.708 -0.3738 -0.0993  0.0137
  268MOL0     C35275   2.333   0.202   0.723  0.0183  0.4551 -0.5331
  268MOL0     C35276   2.270   0.231   0.855  0.0704 -0.8811  0.2614
  268MOL0     C35277   2.127   0.250   0.862 -0.1481  0.2792 -0.7642
  268MOL0     C35278   2.048   0.228   0.750  0.4947  0.0004  0.6672
  268MOL0     O35279   1.912   0.204   0.735  0.1618  0.1402 -0.1762
  268MOL0     C35280   1.822   0.215   0.857  0.0806 -0.4156  0.0711
  268MOL0     C35281   1.690   0.278   0.818  0.0387  0.0752  0.8224
  268MOL0     C35282   1.599   0.182   0.748  0.3326 -0.5630 -0.3862
  268MOL0     C35283   1.458   0.242   0.755  0.0298  0.6376 -0.0494
  268MOL0     C35284   1.415   0.359   0.657 -0.3445  0.6941  0.2954
  268MOL0     C35285   1.428   0.318   0.508  0.6514  0.0465 -0.3858
  268MOL0     C35286   1.362   0.416   0.411  0.4129  1.7394 -0.3555
  268MOL0     C35287   1.355   0.366   0.273 -0.4978  0.6061 -0.7379
  268MOL0    Cl35288   1.276   0.205   0.284 -0.3273 -0.4183  0.1579
  268MOL0     C35289   2.118   0.205   0.624  0.1764 -0.1931  0.1903
  268MOL0     C35290   2.258   0.202   0.606 -0.4518 -0.5794 -0.1996
  268MOL0     O35291   2.518   0.111   0.917  0.1798  0.4357 -0.4549
  268MOL0     C35292   2.795   0.113   0.845 -0.5670 -0.8106  0.1379
  268MOL0     C35293   2.932   0.120   0.811 -0.3228  0.9259  1.1916
  268MOL0     N35294   3.237   0.524   0.916  0.2396  0.1015 -0.1244
  268MOL0     N35295   3.130   0.581   0.970  0.3097  0.7943  0.3591
  268MOL0     C35296   1.891   0.912   1.306  0.4670  0.2586 -1.3671
  268MOL0     C35297   1.845   1.041   1.330 -0.1423  0.5153 -0.2264
  268MOL0     C35298   2.011   1.343   1.598  0.0973  0.6521 -1.5582
  268MOL0     C35299   2.126   1.413   1.616  0.4116  0.6317 -0.5425
  268MOL0     C35300   2.198   1.397   1.747 -1.1187 -0.2984  0.3849
  268MOL0     C35301   2.163   1.301   1.840  0.4351 -0.2065 -0.6034
  268MOL0     O35302   2.236   1.272   1.950 -0.4074 -0.2728  0.0335
  268MOL0     C35303   2.379   1.275   1.956  0.2923 -0.4398 -0.5281
  268MOL0     C35304   2.433   1.160   2.050 -1.2126 -0.2098 -0.2905
  268MOL0     C35305   2.440   1.028   1.979  0.3142  0.3767  0.1230
  268MOL0     C35306   2.549   0.944   2.045 -0.1917 -0.0066  0.1128
  268MOL0     C35307   2.687   0.998   2.038 -0.0136 -0.7081 -0.6579
  268MOL0     C35308   2.798   1.054   2.041  1.1677 -0.6609  0.1477
  268MOL0     C35309   2.041   1.239   1.819 -0.9725 -0.8828  0.1470
  268MOL0     C35310   1.960   1.263   1.707 -0.4692 -0.0496  0.9323
  268MOL0     H35311   2.126   1.200   1.435  1.6777 -1.7041  3.0842
  268MOL0     H35312   2.215   0.994   1.380 -0.1102 -1.2862 -0.4142
  268MOL0     H35313   2.246   0.697   1.380  0.1078  0.2031 -0.6054
  268MOL0     H35314   2.304   0.819   1.263  0.4527  1.5681  1.4813
  268MOL0     H35315   2.227   0.705   1.074 -2.1940 -2.5528 -0.7358
  268MOL0     H35316   2.196   0.556   1.163 -1.2343  1.2467  0.4780
  268MOL0     H35317   2.442   0.550   1.197  3.1522  1.3967 -0.7047
  268MOL0     H35318   2.452   0.718   1.155  0.4368  0.0587  4.2150
  268MOL0     H35319   2.384   0.460   0.984  0.4462  0.1900  2.6185
  268MOL0     H35320   2.342   0.616   0.915 -0.5113 -1.3985  1.2014
  268MOL0     H35321   2.595   0.672   0.968 -1.8735  1.3153  0.5672
  268MOL0     H35322   2.543   0.592   0.827  1.0883  0.7552  0.3219
  268MOL0     H35323   2.606   0.359   0.973 -3.0336  0.4008  1.6270
  268MOL0     H35324   2.676   0.474   1.088  3.4711  2.9271 -1.6507
  268MOL0     H35325   2.817   0.355   0.917  1.3972 -0.5925 -0.8235
  268MOL0     H35326   2.756   0.460   0.802 -0.4366 -2.5829 -1.1731
  268MOL0     H35327   2.887   0.554   1.062 -0.5045  0.4740  0.4987
  268MOL0     H35328   2.834   0.660   0.930 -2.1211 -0.0602  0.0846
  268MOL0     H35329   2.981   0.397   0.745 -0.1725  0.4882 -1.7507
  268MOL0     H35330   3.276   0.260   0.757  0.1710  1.1713  1.8415
  268MOL0     H35331   3.383   0.386   0.752  0.4120 -1.4392  0.4442
  268MOL0     H35332   3.366   0.354   0.515  1.0397 -0.4169  1.7483
  268MOL0     H35333   3.258   0.480   0.534  4.4268 -1.0388 -4.3922
  268MOL0     H35334   3.063   0.356   0.514 -0.2659 -0.0507  0.5486
  268MOL0     H35335   3.161   0.294   0.386  1.5536 -0.7524  0.1604
  268MOL0     H35336   3.241   0.104   0.515 -0.2553  2.2342  0.0395
  268MOL0     H35337   3.062   0.123   0.455 -0.0945  1.2528 -1.5398
  268MOL0     H35338   2.879   0.221   0.496 -1.1796 -0.7700 -0.0626
  268MOL0     H35339   2.665   0.232   0.558  1.0520 -0.3192 -0.9723
  268MOL0     H35340   2.341   0.241   0.936  1.3483 -0.3612 -0.8829
  268MOL0     H35341   2.084   0.277   0.957 -3.3824  0.0641 -2.0309
  268MOL0     H35342   1.883   0.275   0.926  1.1892  1.3012 -2.2520
  268MOL0     H35343   1.800   0.124   0.914 -0.8718 -1.0131 -1.2098
  268MOL0     H35344   1.718   0.362   0.755 -2.7480 -0.4325 -1.2837
  268MOL0     H35345   1.654   0.319   0.913  0.5640  2.7528 -0.0505
  268MOL0     H35346   1.602   0.078   0.783  1.2085 -0.5184 -0.3002
  268MOL0     H35347   1.638   0.164   0.647 -1.7148 -3.4159 -0.7999
  268MOL0     H35348   1.405   0.151   0.725 -0.2877  0.2340  1.6055
  268MOL0     H35349   1.423   0.291   0.847  0.2819 -1.7507  1.4028
  268MOL0     H35350   1.497   0.431   0.667  2.6247 -2.2720 -0.5381
  268MOL0     H35351   1.321   0.407   0.684 -2.2024 -0.1589 -3.8928
  268MOL0     H35352   1.387   0.217   0.496 -1.0100  0.6867 -0.4625
  268MOL0     H35353   1.536   0.312   0.492  0.2808 -1.1434 -3.0862
  268MOL0     H35354   1.260   0.436   0.446 -0.1331  0.7019 -1.2795
  268MOL0     H35355   1.420   0.509   0.406  2.3508  0.7557  1.8443
  268MOL0     H35356   1.459   0.368   0.238  0.1328  0.0603  1.0462
  268MOL0     H35357   1.297   0.430   0.206  1.2413  2.3770 -0.6395
  268MOL0     H35358   2.068   0.190   0.529  1.1094  2.0144 -0.7153
  268MOL0     H35359   2.306   0.185   0.510 -0.7988  0.9794 -0.6902
  268MOL0     H35360   2.766   0.075   0.943  2.6370 -2.0162  0.7517
  268MOL0     H35361   3.021   0.090   0.866 -1.4661 -2.7880  1.2924
  268MOL0     H35362   1.831   0.833   1.262  0.1592 -2.3720  3.1942
  268MOL0     H35363   1.738   1.060   1.334 -0.0217  1.0343  0.9573
  268MOL0     H35364   2.175   1.471   1.538  2.4125 -0.1537  0.0950
  268MOL0     H35365   2.288   1.452   1.772 -0.6712 -0.9211  0.1531
  268MOL0     H35366   2.411   1.367   2.006  1.2405 -2.2334  2.4480
  268MOL0     H35367   2.420   1.268   1.855  0.0330 -0.9577 -0.6023
  268MOL0     H35368   2.533   1.191   2.079 -0.4851 -2.9357  0.3866
  268MOL0     H35369   2.362   1.172   2.133 -0.4387 -0.6764  0.4404
  268MOL0     H35370   2.464   1.052   1.874 -1.0818  0.2322 -0.2510
  268MOL0     H35371   2.337   0.996   1.995  0.0474 -0.4928 -2.6538
  268MOL0     H35372   2.527   0.925   2.151 -1.5765  2.0365  0.2424
  268MOL0     H35373   2.562   0.847   1.997  2.4100  0.6251 -0.6130
  268MOL0     H35374   2.887   1.113   2.031 -0.2387  1.2330 -2.0555
  268MOL0     H35375   2.008   1.153   1.877 -1.3626  0.0951  1.4006
  268MOL0     H35376   1.863   1.218   1.693 -1.2632  1.8847 -0.1807
  269MOL0     O35377   5.807   5.959   5.446  0.1163  0.4476  0.2105
  269MOL0     C35378   5.861   5.864   5.499 -0.7602 -0.6157 -0.7077
  269MOL0     O35379   5.928   5.870   5.623 -0.3454  0.3890  0.0293
  269MOL0     C35380   5.939   5.996   5.679 -0.0396  0.1650 -0.1053
  269MOL0     C35381   5.839   6.051   5.767 -0.5932  0.4681  0.1834
  269MOL0     C35382   5.857   6.186   5.826 -0.2293  1.0309 -0.1873
  269MOL0     C35383   5.975   6.261   5.795 -0.8512  0.1858  1.1376
  269MOL0     O35384   6.002   6.384   5.856  0.3151 -0.1905 -0.1769
  269MOL0     C35385   6.009   6.379   6.003  0.2841  0.5812  0.1918
  269MOL0     C35386   6.155   6.341   6.056  0.5909  0.0141  0.5351
  269MOL0     C35387   6.226   6.458   6.125 -0.7312  0.1389  0.9299
  269MOL0     C35388   6.366   6.427   6.156  0.4120  0.5477 -1.0881
  269MOL0     C35389   6.442   6.539   6.221 -0.7706 -0.6590 -0.2535
  269MOL0     C35390   6.451   6.665   6.133  0.0386  0.2993  0.1574
  269MOL0     C35391   6.591   6.701   6.111 -0.5621 -0.3445  0.4788
  269MOL0     C35392   6.663   6.768   6.239  0.6100 -0.0994 -0.5186
  269MOL0     N35393   6.804   6.821   6.220  0.3347 -0.1111  0.4613
  269MOL0     C35394   6.893   6.811   6.329  0.5013 -0.0383  0.8328
  269MOL0     C35395   7.015   6.867   6.284 -0.7398  0.0310 -0.9441
  269MOL0     C35396   7.141   6.872   6.374 -0.5120  0.3294 -0.3726
  269MOL0     C35397   7.225   6.745   6.353 -0.6074  1.3864 -0.0302
  269MOL0     C35398   7.145   6.609   6.391 -0.3805 -1.5886  0.9912
  269MOL0     C35399   7.098   6.526   6.264  0.7501 -0.4882 -1.2317
  269MOL0     O35400   6.984   6.459   6.321  0.4268 -0.7912  1.1145
  269MOL0     C35401   6.925   6.362   6.237 -0.0432 -0.1617  0.3992
  269MOL0     C35402   6.809   6.310   6.300 -0.4533  0.1335 -0.1573
  269MOL0     C35403   6.727   6.222   6.234  0.4318  0.5762  0.9988
  269MOL0     C35404   6.756   6.194   6.095 -0.1310 -0.6964 -0.5900
  269MOL0     C35405   6.670   6.119   6.005  0.2818 -0.2764  0.5694
  269MOL0     O35406   6.561   6.065   6.057  0.5454 -0.2188  1.1917
  269MOL0     C35407   6.499   5.960   5.996  0.5033 -0.3671  1.1972
  269MOL0     C35408   6.510   5.836   6.058  0.1126 -0.3717 -0.3236
  269MOL0     C35409   6.452   5.722   6.000  0.6994  0.0389  0.1490
  269MOL0     C35410   6.391   5.739   5.877  0.3153 -0.0946 -0.7342
  269MOL0     O35411   6.341   5.619   5.814 -1.0251 -1.6648  0.0612
  269MOL0     C35412   6.211   5.627   5.755  1.0537 -0.3111  0.2340
  269MOL0     C35413   6.167   5.491   5.701  0.2309 -0.6318 -0.5428
  269MOL0     C35414   6.092   5.411   5.803  0.4449  0.3677 -0.5245
  269MOL0     C35415   6.179   5.345   5.913 -0.6177 -0.0376  0.0162
  269MOL0     C35416   6.108   5.259   6.018 -0.6710 -0.4127 -0.6479
  269MOL0     C35417   6.083   5.124   5.970  0.9425  0.1766 -0.3477
  269MOL0     C35418   6.045   5.036   6.090  0.4015 -0.5515  0.5662
  269MOL0     C35419   6.001   4.892   6.047  0.1696 -0.8274  0.1974
  269MOL0    Cl35420   6.119   4.822   5.925 -0.1039 -0.0226 -0.4727
  269MOL0     C35421   6.379   5.864   5.814  0.2954  0.0873  0.1611
  269MOL0     C35422   6.428   5.975   5.876 -0.0954 -0.4307  1.0442
  269MOL0     O35423   6.693   6.123   5.886  0.7197 -0.1320 -0.2335
  269MOL0     C35424   6.875   6.249   6.038  0.9270 -0.5657  0.1117
  269MOL0     C35425   6.966   6.318   6.108 -0.1402  0.1759 -0.7112
  269MOL0     N35426   6.996   6.895   6.151  0.9282 -0.2952  0.7835
  269MOL0     N35427   6.879   6.862   6.110 -0.9409  0.7552 -0.3080
  269MOL0     C35428   6.076   6.200   5.700  0.2973  0.7321  0.2683
  269MOL0     C35429   6.049   6.076   5.653 -1.1888 -0.8264 -0.3186
  269MOL0     C35430   5.877   5.738   5.418 -0.1027  0.3201 -0.6294
  269MOL0     C35431   5.902   5.614   5.490  0.5939 -0.3316 -0.3061
  269MOL0     C35432   5.930   5.492   5.417 -0.2265  0.2156 -0.5262
  269MOL0     C35433   5.944   5.504   5.274  0.5695 -0.1476  0.1081
  269MOL0     O35434   5.971   5.379   5.219  0.0336 -0.7073  0.3434
  269MOL0     C35435   5.962   5.365   5.084  0.8048 -0.6546  0.0761
  269MOL0     C35436   5.830   5.305   5.047  0.5699 -0.3319  0.2355
  269MOL0     C35437   5.848   5.216   4.932 -0.0945  0.2485 -0.6235
  269MOL0     C35438   5.716   5.149   4.897 -0.5848  0.3325  0.0521
  269MOL0     C35439   5.628   5.228   4.808 -0.0948 -0.3726 -0.0441
  269MOL0     C35440   5.569   5.292   4.720 -0.0917 -0.3059 -0.2777
  269MOL0     C35441   5.907   5.635   5.213  0.3255  0.0167 -0.0874
  269MOL0     C35442   5.878   5.748   5.280 -0.2754  0.2586  0.5188
  269MOL0     H35443   5.747   6.002   5.797  0.1766 -1.1580 -0.0146
  269MOL0     H35444   5.781   6.209   5.900  1.5130 -0.9140  2.3885
  269MOL0     H35445   5.928   6.322   6.050 -0.3761  2.2685  1.1897
  269MOL0     H35446   5.994   6.483   6.031  0.8171  1.1638 -1.5497
  269MOL0     H35447   6.209   6.316   5.964  0.6956  5.7582 -1.3723
  269MOL0     H35448   6.152   6.250   6.118  2.8681  0.4324  1.3552
  269MOL0     H35449   6.171   6.486   6.216 -0.5027  1.2342  0.7414
  269MOL0     H35450   6.232   6.540   6.053  1.4566  1.3602  2.3461
  269MOL0     H35451   6.375   6.342   6.225  1.7351 -0.3142 -2.2539
  269MOL0     H35452   6.419   6.384   6.070 -0.0337 -1.6299 -0.3424
  269MOL0     H35453   6.543   6.510   6.250 -0.4210  1.9997  1.5365
  269MOL0     H35454   6.384   6.576   6.307  0.9790  2.2964 -0.2134
  269MOL0     H35455   6.376   6.742   6.158 -1.1131  0.0985 -2.3542
  269MOL0     H35456   6.414   6.639   6.033 -3.6073  2.2628  0.8116
  269MOL0     H35457   6.638   6.610   6.073 -1.4023 -0.3510 -0.5923
  269MOL0     H35458   6.598   6.777   6.032 -2.1625 -0.7417 -0.0760
  269MOL0     H35459   6.640   6.697   6.319 -1.5763  0.2606 -0.7703
  269MOL0     H35460   6.617   6.864   6.263  0.8321 -0.3608  1.1005
  269MOL0     H35461   6.867   6.773   6.427 -0.6540  0.3904  0.7169
  269MOL0     H35462   7.115   6.888   6.479 -0.1795  0.0831 -0.2491
  269MOL0     H35463   7.207   6.960   6.370  0.4192 -0.4219 -2.4239
  269MOL0     H35464   7.308   6.738   6.424 -2.2134 -0.6585  1.7893
  269MOL0     H35465   7.269   6.740   6.253 -0.5574 -2.2695  0.0403
  269MOL0     H35466   7.219   6.549   6.445  2.3968  1.1481  0.4563
  269MOL0     H35467   7.064   6.635   6.460  0.4616  1.7937  0.8833
  269MOL0     H35468   7.176   6.457   6.231  0.0509 -0.9508 -1.9527
  269MOL0     H35469   7.060   6.578   6.176 -2.4812 -1.6602 -0.6505
  269MOL0     H35470   6.782   6.344   6.399  1.3419 -3.5580  1.8238
  269MOL0     H35471   6.638   6.179   6.279  0.1999  1.1995  1.1402
  269MOL0     H35472   6.544   5.825   6.160  2.8271 -3.7590 -1.4144
  269MOL0     H35473   6.440   5.629   6.055 -0.6439 -0.3328 -0.7289
  269MOL0     H35474   6.192   5.707   5.683 -2.5955 -0.4159  0.8707
  269MOL0     H35475   6.140   5.649   5.835  1.1751 -0.7927  0.4772
  269MOL0     H35476   6.250   5.432   5.662  2.0019  0.4391  1.4032
  269MOL0     H35477   6.106   5.520   5.616  2.2843  0.3197 -1.7581
  269MOL0     H35478   6.043   5.326   5.756 -0.2662  0.0142  0.8039
  269MOL0     H35479   6.020   5.469   5.861  0.1175 -1.5248  1.0608
  269MOL0     H35480   6.248   5.275   5.865 -1.4905 -0.5685 -0.4964
  269MOL0     H35481   6.221   5.436   5.956 -0.8265 -0.0630  0.2776
  269MOL0     H35482   6.017   5.307   6.055 -0.2105  0.5587 -0.7406
  269MOL0     H35483   6.189   5.246   6.091  2.0254  1.7516 -3.0100
  269MOL0     H35484   6.172   5.083   5.922  2.2241 -1.0642  2.8369
  269MOL0     H35485   6.005   5.137   5.894  2.0090  1.1295 -1.3192
  269MOL0     H35486   6.140   5.032   6.145  3.1196 -1.8148 -3.6470
  269MOL0     H35487   5.966   5.074   6.154 -2.3389 -2.2020 -1.6237
  269MOL0     H35488   5.896   4.880   6.017  0.6125 -1.4550 -1.1665
  269MOL0     H35489   6.021   4.823   6.129  1.6577 -0.9604 -0.2476
  269MOL0     H35490   6.330   5.880   5.718 -1.7745 -1.4722  0.8887
  269MOL0     H35491   6.415   6.071   5.827 -2.9170 -1.6121 -0.7717
  269MOL0     H35492   6.902   6.227   5.935  0.0572  0.5836 -0.3897
  269MOL0     H35493   7.047   6.366   6.054  0.0847  0.3148 -0.2511
  269MOL0     H35494   6.169   6.247   5.672  1.6868 -2.2112 -0.4064
  269MOL0     H35495   6.123   6.040   5.582 -2.2548 -1.7788 -0.9789
  269MOL0     H35496   5.901   5.622   5.598 -0.7481 -1.8975 -0.1512
  269MOL0     H35497   5.958   5.405   5.475 -2.1353  0.3635  0.6953
  269MOL0     H35498   6.046   5.304   5.049  1.4210 -1.2888  2.4678
  269MOL0     H35499   5.967   5.458   5.027 -4.2549  0.0569  0.3800
  269MOL0     H35500   5.806   5.240   5.132  1.7856 -0.1300  0.7661
  269MOL0     H35501   5.752   5.380   5.029  0.4231 -0.4670  0.3081
  269MOL0     H35502   5.928   5.146   4.960  0.8466  1.2454 -0.7192
  269MOL0     H35503   5.889   5.266   4.844  0.3881  2.1147  0.6042
  269MOL0     H35504   5.726   5.054   4.844 -0.9553 -0.5178  1.4483
  269MOL0     H35505   5.678   5.118   4.995  1.1327  1.4043  1.1042
  269MOL0     H35506   5.502   5.355   4.665 -2.5517 -1.5615  1.0734
  269MOL0     H35507   5.905   5.652   5.105 -2.0036  0.7998  0.0248
  269MOL0     H35508   5.872   5.846   5.233 -1.5818 -0.2672 -0.4487
  270MOL0     O35509   6.867   9.069   0.219 -0.1002 -0.3248 -0.5421
  270MOL0     C35510   6.900   8.973   0.151 -0.5830  0.3712  0.2001
  270MOL0     O35511   6.835   8.850   0.159 -0.3885 -0.2563  0.0871
  270MOL0     C35512   6.725   8.832   0.249 -0.6548  0.6785  0.0511
  270MOL0     C35513   6.596   8.883   0.214 -0.5273  0.1624 -1.2408
  270MOL0     C35514   6.485   8.828   0.280 -1.0288 -0.0176  0.5406
  270MOL0     C35515   6.498   8.718   0.365 -0.2284  0.0669 -0.3340
  270MOL0     O35516   6.386   8.654   0.395 -0.4510  0.2969  0.2302
  270MOL0     C35517   6.356   8.650   0.530  0.3250 -0.3239  0.2516
  270MOL0     C35518   6.206   8.620   0.534 -0.0291  0.3637  0.4268
  270MOL0     C35519   6.169   8.478   0.501 -0.7201  0.8731  0.4948
  270MOL0     C35520   6.018   8.485   0.478  0.8456 -0.3581 -0.3045
  270MOL0     C35521   5.964   8.343   0.470 -0.4566  0.4735  0.9539
  270MOL0     C35522   5.812   8.356   0.504  0.5688 -0.6911 -0.6840
  270MOL0     C35523   5.730   8.237   0.436  0.1953 -0.9096  0.3306
  270MOL0     C35524   5.585   8.233   0.475 -0.0563  0.3449 -0.1635
  270MOL0     N35525   5.553   8.189   0.613  0.0956  0.8639 -0.8363
  270MOL0     C35526   5.637   8.145   0.714 -0.7863  0.0828 -0.0726
  270MOL0     C35527   5.559   8.130   0.821 -1.2514  0.0917  0.2368
  270MOL0     C35528   5.625   8.075   0.940  0.4442 -0.1857 -0.6377
  270MOL0     C35529   5.569   8.100   1.073 -0.0739  0.9446  0.7689
  270MOL0     C35530   5.621   8.006   1.181  0.2250 -0.2613  0.5005
  270MOL0     C35531   5.545   8.026   1.315 -0.2729 -0.3496  0.3511
  270MOL0     O35532   5.403   8.017   1.296 -0.4133 -0.4648  0.8070
  270MOL0     C35533   5.326   8.072   1.389  0.2006 -0.5867 -0.2965
  270MOL0     C35534   5.193   8.093   1.355  0.4219  0.9054  0.4166
  270MOL0     C35535   5.098   8.153   1.440 -0.4168  0.2205 -0.3223
  270MOL0     C35536   5.136   8.199   1.570 -0.0636  0.2984  0.3473
  270MOL0     C35537   5.041   8.271   1.646  0.1596 -0.6757 -0.2072
  270MOL0     O35538   5.079   8.325   1.767  1.1500  0.5132 -0.2289
  270MOL0     C35539   4.986   8.361   1.857 -0.6052 -0.9737  0.1739
  270MOL0     C35540   5.020   8.335   1.986  0.8269  0.6966 -0.5336
  270MOL0     C35541   4.927   8.368   2.089 -0.7335  0.5957 -0.8423
  270MOL0     C35542   4.800   8.426   2.056 -1.0029  0.4974 -0.1592
  270MOL0     O35543   4.724   8.487   2.145 -0.3973  0.8547 -0.2180
  270MOL0     C35544   4.626   8.392   2.195  0.3437  0.4477  0.1328
  270MOL0     C35545   4.490   8.469   2.222  0.1363 -0.1273  0.1207
  270MOL0     C35546   4.397   8.402   2.318  0.1865 -0.0759  0.0237
  270MOL0     C35547   4.286   8.486   2.361 -0.6797 -0.3592 -0.1805
  270MOL0     C35548   4.229   8.432   2.491  0.3645  0.0537  0.2233
  270MOL0     C35549   4.152   8.542   2.569  0.1349  0.0786 -1.3553
  270MOL0     C35550   4.108   8.493   2.709  0.5196  0.3252 -0.8435
  270MOL0     C35551   3.992   8.568   2.768  0.8108  0.8782 -0.6777
  270MOL0    Cl35552   4.061   8.734   2.783 -0.2916  0.2670 -0.1596
  270MOL0     C35553   4.766   8.449   1.930  0.3229  1.0657 -0.4553
  270MOL0     C35554   4.848   8.411   1.828 -0.3729  0.3868  0.3578
  270MOL0     O35555   4.923   8.268   1.599 -1.2648  0.0775 -0.5855
  270MOL0     C35556   5.269   8.180   1.609 -0.2754  0.2906  0.3652
  270MOL0     C35557   5.366   8.121   1.519 -0.5203 -1.6246  0.0825
  270MOL0     N35558   5.428   8.153   0.780 -0.0823 -0.6785 -0.2910
  270MOL0     N35559   5.429   8.207   0.658 -0.6357  0.1913  0.7649
  270MOL0     C35560   6.629   8.664   0.393 -0.2138 -0.5964  0.0076
  270MOL0     C35561   6.735   8.728   0.339 -0.8125 -0.8824 -0.1809
  270MOL0     C35562   7.030   8.982   0.091 -0.6057 -0.8467 -1.2348
  270MOL0     C35563   7.104   8.870   0.044  0.2954 -0.0067 -0.8124
  270MOL0     C35564   7.233   8.879   0.008 -0.5872  0.2665 -0.7749
  270MOL0     C35565   7.292   9.005  -0.018 -0.2535 -0.3493 -0.8535
  270MOL0     O35566   7.420   9.033  -0.061  0.1641 -0.0330  0.0455
  270MOL0     C35567   7.514   8.922  -0.093  0.8852  0.0346  0.1052
  270MOL0     C35568   7.628   8.902   0.009  0.1033 -1.2105  0.0576
  270MOL0     C35569   7.695   9.034   0.041  0.5159 -0.7374 -1.3611
  270MOL0     C35570   7.796   9.038   0.157 -0.3499  0.2334  0.2914
  270MOL0     C35571   7.751   8.967   0.278 -0.7482  0.0384  1.1746
  270MOL0     C35572   7.708   8.938   0.385 -1.6703 -0.1525 -0.4549
  270MOL0     C35573   7.226   9.112   0.027 -0.6691 -0.6518 -0.7646
  270MOL0     C35574   7.098   9.102   0.076 -0.1891  0.4088  0.4221
  270MOL0     H35575   6.587   8.956   0.134  1.4161  0.5440 -1.1739
  270MOL0     H35576   6.391   8.858   0.235 -0.0689  2.4010  0.0127
  270MOL0     H35577   6.360   8.755   0.560 -4.5579 -0.3836  2.0268
  270MOL0     H35578   6.416   8.569   0.573  0.4385 -2.3249 -3.2746
  270MOL0     H35579   6.165   8.690   0.462  2.1972  0.5980 -0.6913
  270MOL0     H35580   6.167   8.635   0.635  0.3105 -1.1904  0.8118
  270MOL0     H35581   6.183   8.416   0.591  1.8170  0.6091 -0.0046
  270MOL0     H35582   6.208   8.427   0.413 -1.3115  0.2125  0.6165
  270MOL0     H35583   5.969   8.529   0.566 -1.5835 -1.2797 -1.0997
  270MOL0     H35584   6.000   8.542   0.387 -3.2648 -0.9751 -0.0695
  270MOL0     H35585   6.021   8.285   0.543 -3.4026 -1.5648  1.8260
  270MOL0     H35586   5.970   8.299   0.370 -2.4157  0.7806  0.6580
  270MOL0     H35587   5.778   8.448   0.455  0.1805  0.9426  2.4486
  270MOL0     H35588   5.790   8.355   0.611 -0.8078 -3.1388 -0.9076
  270MOL0     H35589   5.738   8.250   0.328 -1.9285  2.6280  0.4542
  270MOL0     H35590   5.779   8.141   0.456  1.6680 -0.5802 -1.4596
  270MOL0     H35591   5.531   8.157   0.416  2.2747  0.4315 -2.5980
  270MOL0     H35592   5.540   8.331   0.456 -1.7049 -0.0212  1.6194
  270MOL0     H35593   5.745   8.147   0.704 -0.6843  1.8986  0.9461
  270MOL0     H35594   5.731   8.100   0.940 -0.0627  2.2957 -0.1617
  270MOL0     H35595   5.616   7.968   0.921  1.4310 -0.1072 -1.5962
  270MOL0     H35596   5.460   8.087   1.076 -0.5104  3.1457  6.1680
  270MOL0     H35597   5.586   8.206   1.091  2.4705  0.6007  0.8180
  270MOL0     H35598   5.608   7.903   1.145  2.1746 -0.1081 -0.8367
  270MOL0     H35599   5.729   8.026   1.184  0.7045 -1.7254 -2.5240
  270MOL0     H35600   5.583   8.121   1.354  1.7270 -1.4180  1.1941
  270MOL0     H35601   5.581   7.937   1.369  1.3274  0.1267  0.1224
  270MOL0     H35602   5.159   8.051   1.261  1.2943 -1.8476  1.2402
  270MOL0     H35603   4.995   8.158   1.408 -0.2245 -2.4244 -1.7019
  270MOL0     H35604   5.118   8.301   2.018 -0.5774 -0.9177  2.5039
  270MOL0     H35605   4.976   8.353   2.185 -2.4355 -1.6377 -0.2469
  270MOL0     H35606   4.668   8.345   2.284 -0.3701  0.9844  0.7690
  270MOL0     H35607   4.594   8.317   2.121 -0.6202  1.4403 -0.4880
  270MOL0     H35608   4.440   8.483   2.126 -1.1157  1.6648  0.9782
  270MOL0     H35609   4.514   8.566   2.267 -2.0352 -0.3803  2.0106
  270MOL0     H35610   4.461   8.369   2.401  1.0895 -1.2612 -1.1043
  270MOL0     H35611   4.351   8.315   2.269 -2.2946  0.2106  1.6700
  270MOL0     H35612   4.314   8.591   2.376  0.4647 -1.0083  2.7367
  270MOL0     H35613   4.211   8.487   2.281 -0.2051 -0.6659 -0.6392
  270MOL0     H35614   4.299   8.388   2.563 -0.3258  1.4891  1.8549
  270MOL0     H35615   4.156   8.354   2.468  0.2541 -0.0899  1.0449
  270MOL0     H35616   4.072   8.572   2.501  1.8302  1.1416 -2.9964
  270MOL0     H35617   4.222   8.625   2.581  0.7746 -0.3771 -1.8267
  270MOL0     H35618   4.085   8.387   2.722  2.4689 -0.0747 -0.3313
  270MOL0     H35619   4.188   8.508   2.782 -0.7360 -0.9880  0.8705
  270MOL0     H35620   3.969   8.526   2.866 -3.7785  1.5611 -1.2466
  270MOL0     H35621   3.897   8.564   2.714 -0.5705  1.4794  1.6125
  270MOL0     H35622   4.670   8.501   1.921 -2.1913 -2.4730  2.6924
  270MOL0     H35623   4.824   8.430   1.724  3.6368 -0.8701 -0.9924
  270MOL0     H35624   5.315   8.220   1.699 -0.1215 -1.2490  1.0103
  270MOL0     H35625   5.464   8.098   1.561  0.4469  0.7761 -0.6800
  270MOL0     H35626   6.649   8.576   0.453  0.0403  1.0966  2.5475
  270MOL0     H35627   6.837   8.695   0.356 -0.6880 -1.6312 -2.1278
  270MOL0     H35628   7.052   8.775   0.047 -1.9078  1.0491 -2.6589
  270MOL0     H35629   7.294   8.789   0.003  0.5909  1.0885 -1.5971
  270MOL0     H35630   7.555   8.944  -0.192  1.3399 -0.3879  0.1990
  270MOL0     H35631   7.466   8.824  -0.104  2.7396 -1.0257  0.9991
  270MOL0     H35632   7.600   8.851   0.101  0.1290  1.8489  1.8771
  270MOL0     H35633   7.698   8.831  -0.037  1.7112 -0.7421  1.6744
  270MOL0     H35634   7.622   9.114   0.055  0.9624 -0.7009  1.3855
  270MOL0     H35635   7.738   9.059  -0.056  2.7101 -1.5041 -0.6531
  270MOL0     H35636   7.891   8.993   0.127 -0.7797 -0.6572  0.2182
  270MOL0     H35637   7.813   9.146   0.159 -2.1234  0.5624 -0.3365
  270MOL0     H35638   7.705   8.914   0.490  0.6285  2.3190  0.2644
  270MOL0     H35639   7.272   9.210   0.016 -0.1698 -0.7332  0.3974
  270MOL0     H35640   7.048   9.194   0.105  3.8945  3.9138 -2.4449
  271MOL0     O35641   1.111  10.375   1.448 -0.0730  0.0404  0.0296
  271MOL0     C35642   1.013  10.312   1.492 -0.6983  0.1269  0.8332
  271MOL0     O35643   0.997  10.285   1.626  0.8650 -0.3617  1.1101
  271MOL0     C35644   1.103  10.329   1.703  0.1080 -0.0861  0.5177
  271MOL0     C35645   1.157  10.241   1.786 -0.0625  0.7805 -0.5614
  271MOL0     C35646   1.263  10.278   1.872 -0.1582  0.0133 -0.2326
  271MOL0     C35647   1.312  10.410   1.877  0.4454  0.8912  1.3328
  271MOL0     O35648   1.399  10.454   1.979  0.4491 -0.3929  0.2408
  271MOL0     C35649   1.534  10.423   1.955 -0.0815 -0.6826  0.4425
  271MOL0     C35650   1.603  10.515   1.859  0.4453 -0.5129  0.4836
  271MOL0     C35651   1.578  10.662   1.899 -0.0223  0.4760 -0.2193
  271MOL0     C35652   1.682  10.750   1.836  0.2316  0.3013  0.5947
  271MOL0     C35653   1.658  10.905   1.849  0.7871 -0.1435 -0.4237
  271MOL0     C35654   1.789  10.987   1.860  0.4023 -1.3643  0.7028
  271MOL0     C35655   1.781  11.132   1.863 -0.0866  0.3644  1.0820
  271MOL0     C35656   1.913  11.197   1.925  1.1512 -0.5419 -0.0567
  271MOL0     N35657   1.901  11.227   2.065 -0.6693 -0.8563  0.0938
  271MOL0     C35658   1.844  11.339   2.118 -0.2181  0.1633 -0.3771
  271MOL0     C35659   1.825  11.333   2.254 -0.3176  0.3782 -0.6000
  271MOL0     C35660   1.747  11.411   2.346  0.0338 -0.0938 -0.0563
  271MOL0     C35661   1.803  11.555   2.363 -0.6715  0.3516 -0.3022
  271MOL0     C35662   1.957  11.560   2.418  0.3200 -0.2349  0.4190
  271MOL0     C35663   1.991  11.705   2.426 -0.8705 -0.4821 -0.1826
  271MOL0     O35664   1.990  11.783   2.301  0.3699  0.2514  0.4971
  271MOL0     C35665   2.021  11.919   2.311  0.3058  0.2044  0.5734
  271MOL0     C35666   2.078  11.970   2.191 -0.2152 -1.1563  0.3604
  271MOL0     C35667   2.102  12.107   2.181 -0.4796  0.0164 -0.2381
  271MOL0     C35668   2.083  12.198   2.286 -0.1747  0.5448 -1.1314
  271MOL0     C35669   2.112  12.343   2.275 -0.0592  1.4904  0.3015
  271MOL0     O35670   2.084  12.426   2.380  0.1044  0.2119 -1.7978
  271MOL0     C35671   2.144  12.545   2.365 -0.0927 -0.6581  0.1577
  271MOL0     C35672   2.234  12.600   2.465 -0.4617  0.3839  1.4926
  271MOL0     C35673   2.282  12.729   2.465 -0.1348 -0.4330  0.5322
  271MOL0     C35674   2.231  12.815   2.364 -0.1292 -0.4682 -0.2420
  271MOL0     O35675   2.252  12.948   2.369 -0.2869 -0.7215  0.2801
  271MOL0     C35676   2.341  13.011   2.270  0.4075  0.1399 -0.0437
  271MOL0     C35677   2.259  13.127   2.217 -0.4768  0.2668 -0.6160
  271MOL0     C35678   2.212  13.082   2.078  0.5112  0.3256 -0.4241
  271MOL0     C35679   2.082  13.151   2.038 -0.7208  0.3978 -0.1954
  271MOL0     C35680   2.087  13.297   2.029  0.5886 -0.3641  0.2347
  271MOL0     C35681   1.954  13.353   1.983  0.1175 -0.7714 -0.5138
  271MOL0     C35682   1.942  13.509   1.979  0.0748 -0.1535 -0.1518
  271MOL0     C35683   2.023  13.575   1.874  0.8816  0.7068  0.5531
  271MOL0    Cl35684   2.201  13.570   1.919  0.1396 -0.3702 -0.1176
  271MOL0     C35685   2.130  12.771   2.276 -0.4904 -0.2506 -0.0162
  271MOL0     C35686   2.093  12.637   2.274 -0.3476  0.3432  0.2611
  271MOL0     O35687   2.160  12.376   2.167  0.5423  0.1569  0.5653
  271MOL0     C35688   2.029  12.143   2.407 -0.6593 -0.0254 -0.6988
  271MOL0     C35689   2.008  12.009   2.420  0.5609  0.1856  0.6957
  271MOL0     N35690   1.893  11.213   2.287  0.5312  0.2251  0.2260
  271MOL0     N35691   1.934  11.154   2.175 -0.4406 -0.5522 -0.1291
  271MOL0     C35692   1.248  10.506   1.793  0.7485  0.1092 -0.2800
  271MOL0     C35693   1.149  10.462   1.706  1.4337  0.4842 -1.2691
  271MOL0     C35694   0.909  10.273   1.399 -0.4158 -0.1592  0.4498
  271MOL0     C35695   0.891  10.331   1.265  0.2933 -0.7937 -1.1945
  271MOL0     C35696   0.784  10.297   1.188  0.9122 -0.9656 -0.6258
  271MOL0     C35697   0.683  10.210   1.235 -0.3289 -0.1678  0.8007
  271MOL0     O35698   0.588  10.199   1.143  0.9602  0.3369 -0.2189
  271MOL0     C35699   0.488  10.108   1.161  0.1870 -0.0090 -0.8383
  271MOL0     C35700   0.530   9.972   1.111 -1.1784 -0.2923 -0.5187
  271MOL0     C35701   0.520   9.972   0.955  0.1126  0.9698  0.0353
  271MOL0     C35702   0.373   9.975   0.915  0.1143 -0.5211  0.4470
  271MOL0     C35703   0.341   9.913   0.788  0.7029  0.0644  0.7441
  271MOL0     C35704   0.319   9.855   0.684  0.1397  0.2599  0.4675
  271MOL0     C35705   0.692  10.155   1.364  0.6147  0.1924  0.2047
  271MOL0     C35706   0.805  10.190   1.441  0.3822  0.3726 -0.0996
  271MOL0     H35707   1.135  10.135   1.789  0.9961  0.5498  1.2444
  271MOL0     H35708   1.305  10.203   1.938  1.2042  4.0986  4.0922
  271MOL0     H35709   1.535  10.319   1.921 -1.4442 -0.1426 -1.4383
  271MOL0     H35710   1.581  10.423   2.054  0.1501  0.3630  0.3522
  271MOL0     H35711   1.566  10.491   1.759  0.5957 -2.5312  0.8614
  271MOL0     H35712   1.712  10.502   1.860  0.5847  0.2957  2.8018
  271MOL0     H35713   1.580  10.678   2.007 -0.4664 -2.9950  0.4177
  271MOL0     H35714   1.481  10.693   1.858 -1.3248 -1.4954  1.1408
  271MOL0     H35715   1.780  10.722   1.875 -0.1122 -2.4208 -0.2926
  271MOL0     H35716   1.689  10.734   1.728  0.0649  1.4825  0.3939
  271MOL0     H35717   1.625  10.935   1.950 -0.3388  1.0428 -1.1036
  271MOL0     H35718   1.589  10.941   1.772  1.7035  0.2597 -1.0742
  271MOL0     H35719   1.854  10.963   1.775 -0.2492 -2.1949  0.4348
  271MOL0     H35720   1.852  10.950   1.941  1.6329 -2.3710 -0.6462
  271MOL0     H35721   1.751  11.170   1.765 -1.5494  4.9964  3.0440
  271MOL0     H35722   1.697  11.157   1.928 -2.7262 -0.2148 -1.8534
  271MOL0     H35723   1.948  11.287   1.874  2.0537 -1.5211 -1.2187
  271MOL0     H35724   1.996  11.126   1.916  2.1232  0.3892  1.1810
  271MOL0     H35725   1.808  11.415   2.051 -0.7733  0.5523  0.3438
  271MOL0     H35726   1.746  11.365   2.445 -4.2523  2.5264  1.4019
  271MOL0     H35727   1.646  11.414   2.306  0.0273 -2.9101 -0.4822
  271MOL0     H35728   1.738  11.603   2.436  0.5319 -0.0255  1.0722
  271MOL0     H35729   1.806  11.607   2.267  0.6213  1.5260  0.3304
  271MOL0     H35730   1.963  11.528   2.523 -1.4941  0.9239  0.9293
  271MOL0     H35731   2.026  11.501   2.357 -1.9845 -0.3119 -2.3180
  271MOL0     H35732   2.094  11.706   2.463 -0.2159 -2.0892 -1.8176
  271MOL0     H35733   1.922  11.742   2.502 -1.0652 -2.4142  0.6204
  271MOL0     H35734   2.085  11.906   2.103 -0.7313  1.7717 -1.9754
  271MOL0     H35735   2.124  12.140   2.080 -0.4362  0.9176  0.0502
  271MOL0     H35736   2.256  12.535   2.549  1.6480 -0.6240  0.2403
  271MOL0     H35737   2.338  12.771   2.548 -0.5573  0.7299  0.2494
  271MOL0     H35738   2.387  12.951   2.191  5.5968  2.2453  1.0086
  271MOL0     H35739   2.423  13.058   2.324  0.1079 -1.1226  1.5910
  271MOL0     H35740   2.322  13.213   2.196  1.2878 -1.0323 -0.8729
  271MOL0     H35741   2.179  13.159   2.285  1.7007  0.0236  2.2360
  271MOL0     H35742   2.190  12.975   2.082  3.2649 -0.3003 -0.3447
  271MOL0     H35743   2.289  13.114   2.007  1.6686  1.2065  1.1673
  271MOL0     H35744   2.058  13.125   1.934 -0.2669  0.9662 -0.4452
  271MOL0     H35745   2.004  13.118   2.108  1.2607 -1.2219  1.3464
  271MOL0     H35746   2.156  13.327   1.949 -0.5252 -0.0174 -0.6099
  271MOL0     H35747   2.131  13.349   2.114  2.7625  1.8763 -2.0697
  271MOL0     H35748   1.872  13.313   2.044  0.1611 -2.7355 -1.6653
  271MOL0     H35749   1.928  13.330   1.879  1.8920  0.7542 -1.3422
  271MOL0     H35750   1.836  13.517   1.955  0.3236 -0.7469 -1.5313
  271MOL0     H35751   1.976  13.552   2.073  0.8760 -1.1365  0.0257
  271MOL0     H35752   1.996  13.676   1.843  4.2471  1.7403  0.5919
  271MOL0     H35753   2.009  13.513   1.786  1.0824 -2.2724  2.4750
  271MOL0     H35754   2.077  12.850   2.223 -0.6489  0.3874  1.0609
  271MOL0     H35755   2.017  12.594   2.210  0.7028 -2.0829  0.5118
  271MOL0     H35756   2.004  12.211   2.487  0.8322 -0.8441  0.5153
  271MOL0     H35757   1.973  11.973   2.516  0.6766  1.1110  1.0969
  271MOL0     H35758   1.268  10.612   1.797 -1.3175  0.5192  0.4407
  271MOL0     H35759   1.101  10.527   1.634 -2.8176 -0.6692  0.2065
  271MOL0     H35760   0.968  10.403   1.238 -0.4227  0.2494 -0.4877
  271MOL0     H35761   0.780  10.343   1.089 -0.7810  0.3591  0.0021
  271MOL0     H35762   0.402  10.148   1.106 -1.6318 -2.0195  0.4022
  271MOL0     H35763   0.449  10.113   1.263  2.4833  1.8827  0.0432
  271MOL0     H35764   0.633   9.957   1.143 -1.0007  1.2851 -0.2831
  271MOL0     H35765   0.469   9.906   1.173 -1.9637  0.8045 -0.0859
  271MOL0     H35766   0.573   9.887   0.911  1.5260  2.4705 -1.2873
  271MOL0     H35767   0.563  10.062   0.910 -0.9976  1.3983 -0.2212
  271MOL0     H35768   0.317   9.919   0.991  1.5157  0.6126  2.4032
  271MOL0     H35769   0.330  10.076   0.913 -1.0607 -0.9815  1.2627
  271MOL0     H35770   0.302   9.805   0.591  0.5202 -0.4175  0.7545
  271MOL0     H35771   0.622  10.091   1.418  1.9354  0.2798  2.1246
  271MOL0     H35772   0.810  10.151   1.542  0.1069 -0.2649 -0.3229
  272MOL0     O35773   6.981   9.270  10.588 -0.3569 -0.5905 -0.1398
  272MOL0     C35774   6.993   9.392  10.616  0.0806  0.7701 -0.9356
  272MOL0     O35775   6.894   9.490  10.612  0.3989  0.0397 -0.0172
  272MOL0     C35776   6.774   9.430  10.572  0.0184  1.1344  0.9543
  272MOL0     C35777   6.755   9.384  10.443 -0.4820  0.5384  0.2595
  272MOL0     C35778   6.628   9.351  10.395  0.2716 -0.9918  0.3066
  272MOL0     C35779   6.516   9.341  10.481 -1.6950 -0.9336  0.7912
  272MOL0     O35780   6.406   9.307  10.421 -0.3077 -0.7668  0.3627
  272MOL0     C35781   6.286   9.319  10.495 -0.1059 -0.2701 -0.1618
  272MOL0     C35782   6.171   9.317  10.389 -0.3627 -1.0340 -0.2340
  272MOL0     C35783   6.158   9.176  10.332 -0.5065  0.5665  0.3537
  272MOL0     C35784   6.048   9.165  10.221  0.8088  0.1170  0.2209
  272MOL0     C35785   6.025   9.023  10.168 -0.7389 -1.2380  0.4320
  272MOL0     C35786   5.946   9.021  10.039 -0.4438  0.6819  0.7249
  272MOL0     C35787   5.960   8.897   9.952  0.6861  0.1232  0.5603
  272MOL0     C35788   5.874   8.904   9.819  0.5096  0.2284 -0.5757
  272MOL0     N35789   5.917   9.022   9.743  0.4325  0.8584 -0.5114
  272MOL0     C35790   5.827   9.112   9.695 -0.1814  0.4813 -0.0060
  272MOL0     C35791   5.882   9.170   9.592  0.1305 -0.1759  1.4997
  272MOL0     C35792   5.826   9.290   9.522  0.1404 -1.0455 -0.4491
  272MOL0     C35793   5.676   9.287   9.498  0.7361 -0.3708 -0.1108
  272MOL0     C35794   5.629   9.182   9.399 -0.1081 -0.4476 -1.2752
  272MOL0     C35795   5.478   9.165   9.389  1.0235  0.6168  0.5154
  272MOL0     O35796   5.398   9.132   9.515 -0.1085 -0.1899  0.0391
  272MOL0     C35797   5.299   9.224   9.555 -0.3433  1.4188  0.3156
  272MOL0     C35798   5.299   9.363   9.530  0.1717 -0.1393 -0.3430
  272MOL0     C35799   5.195   9.451   9.567 -0.2567  0.1985 -0.1844
  272MOL0     C35800   5.105   9.398   9.665  0.6369 -0.0853 -0.0211
  272MOL0     C35801   5.001   9.484   9.724 -0.0935  0.7531 -0.4495
  272MOL0     O35802   4.953   9.429   9.843  0.4063 -0.4535  0.1956
  272MOL0     C35803   4.849   9.495   9.905 -0.3290  0.7913 -0.0827
  272MOL0     C35804   4.870   9.568  10.022 -0.0879 -0.2294  0.4050
  272MOL0     C35805   4.774   9.652  10.083  0.5074  0.1291 -0.3590
  272MOL0     C35806   4.644   9.652  10.022 -0.1861  0.0108 -0.1569
  272MOL0     O35807   4.519   9.717  10.072 -0.7575  0.0982  0.4074
  272MOL0     C35808   4.531   9.828  10.160 -0.0461  0.4537 -0.3938
  272MOL0     C35809   4.417   9.928  10.157  0.1465  0.9574  0.3268
  272MOL0     C35810   4.433  10.003  10.026  1.0825 -0.5071  0.1502
  272MOL0     C35811   4.328  10.111   9.997  0.1043  0.5571  0.2747
  272MOL0     C35812   4.357  10.240  10.078  0.2225  0.4229  0.3876
  272MOL0     C35813   4.238  10.336  10.074  0.2785  0.0639  0.0566
  272MOL0     C35814   4.245  10.420   9.947 -0.0714  0.8794  0.3689
  272MOL0     C35815   4.125  10.513   9.952 -0.8041  0.1858 -0.7163
  272MOL0    Cl35816   3.982  10.423   9.944  0.5615  0.0191 -0.4536
  272MOL0     C35817   4.623   9.585   9.910 -0.5286 -0.3095  1.0928
  272MOL0     C35818   4.719   9.508   9.848 -0.1407 -1.8670 -0.4550
  272MOL0     O35819   4.959   9.589   9.677  0.0796  0.3576  0.1717
  272MOL0     C35820   5.110   9.268   9.706  0.2283 -0.1287 -0.4270
  272MOL0     C35821   5.196   9.177   9.641 -0.6065 -0.4856 -0.8513
  272MOL0     N35822   6.012   9.121   9.580  0.4004  0.6983  0.1837
  272MOL0     N35823   6.036   9.035   9.671 -1.2890  0.8200  0.3005
  272MOL0     C35824   6.542   9.387  10.613  0.2322 -0.4195  0.3616
  272MOL0     C35825   6.672   9.432  10.656 -0.5683 -1.0543 -0.3389
  272MOL0     C35826   7.122   9.417  10.690  0.5927  0.0313  0.6925
  272MOL0     C35827   7.233   9.354  10.644 -0.3218 -0.4583  0.2787
  272MOL0     C35828   7.348   9.382  10.730 -0.2837 -1.2020  0.5813
  272MOL0     C35829   7.345   9.472  10.837  0.5495  1.1454 -0.2685
  272MOL0     O35830   7.470   9.498  10.889 -0.5601  0.8191  0.6632
  272MOL0     C35831   7.529   9.386  10.960  0.5361 -0.1058 -0.3183
  272MOL0     C35832   7.649   9.438  11.041  0.9787 -0.4733 -0.0302
  272MOL0     C35833   7.599   9.493  11.183  0.6153 -0.7001 -0.1435
  272MOL0     C35834   7.483   9.593  11.197  0.1148  0.6791 -0.8050
  272MOL0     C35835   7.487   9.626  11.339 -0.4055 -0.8582 -0.4042
  272MOL0     C35836   7.471   9.657  11.458 -0.6180  0.2720 -0.5095
  272MOL0     C35837   7.228   9.540  10.876  0.1193  1.1282  0.0890
  272MOL0     C35838   7.113   9.510  10.799 -0.0833 -0.0322 -0.3046
  272MOL0     H35839   6.845   9.373  10.382 -1.1341 -1.4202 -0.4171
  272MOL0     H35840   6.603   9.322  10.294  0.0454  0.2104  0.0017
  272MOL0     H35841   6.281   9.411  10.553  1.4674  1.3041 -2.3645
  272MOL0     H35842   6.270   9.236  10.564  1.8761  1.1631  2.1953
  272MOL0     H35843   6.196   9.388  10.310 -2.7578 -2.0823 -2.0602
  272MOL0     H35844   6.073   9.350  10.426 -0.9481 -2.2239 -0.6666
  272MOL0     H35845   6.131   9.113  10.417  2.2291 -0.6455  0.4198
  272MOL0     H35846   6.249   9.146  10.279  0.1434  2.0216  0.6076
  272MOL0     H35847   5.951   9.208  10.248 -0.2617  0.3656 -3.5295
  272MOL0     H35848   6.077   9.236  10.143 -0.7383  1.0990  0.4845
  272MOL0     H35849   5.982   8.958  10.244  2.5648 -2.8174  1.1620
  272MOL0     H35850   6.122   8.973  10.153  0.0243 -0.2894  1.9428
  272MOL0     H35851   5.973   9.117   9.995  0.7306  0.2327  0.3998
  272MOL0     H35852   5.842   9.033  10.067 -0.0423  3.2586  1.3079
  272MOL0     H35853   6.063   8.873   9.922 -0.9792 -3.7654 -3.0480
  272MOL0     H35854   5.918   8.808  10.001 -2.2111  0.6676 -0.7814
  272MOL0     H35855   5.771   8.914   9.854  0.0959 -0.8486 -1.4338
  272MOL0     H35856   5.895   8.821   9.751  3.0414  2.2585 -2.4667
  272MOL0     H35857   5.725   9.128   9.728 -0.4778 -2.0113  0.5032
  272MOL0     H35858   5.867   9.300   9.421 -4.0908  2.1912 -2.1245
  272MOL0     H35859   5.859   9.379   9.576  1.6183 -2.5650  1.2726
  272MOL0     H35860   5.658   9.388   9.460 -0.0407  0.2846  1.8666
  272MOL0     H35861   5.622   9.296   9.592 -3.2449  0.3455 -2.2639
  272MOL0     H35862   5.677   9.206   9.304  0.4997  0.1252 -0.8324
  272MOL0     H35863   5.677   9.086   9.422  1.5807  0.5432 -0.5896
  272MOL0     H35864   5.443   9.080   9.330 -0.5903  1.3477  0.3680
  272MOL0     H35865   5.445   9.251   9.330  0.3659 -0.3518 -0.5536
  272MOL0     H35866   5.367   9.423   9.470 -1.3279  1.3067 -0.6925
  272MOL0     H35867   5.191   9.557   9.546 -1.0481  0.2187  0.0254
  272MOL0     H35868   4.972   9.587  10.054  0.8609  1.5946 -3.2700
  272MOL0     H35869   4.795   9.708  10.173 -1.5379 -1.1125  0.9791
  272MOL0     H35870   4.627   9.880  10.145 -0.9539  2.1007 -0.7356
  272MOL0     H35871   4.535   9.777  10.257 -1.5117 -4.4568 -2.6415
  272MOL0     H35872   4.432   9.998  10.240  3.2909 -3.1319  3.6113
  272MOL0     H35873   4.320   9.879  10.166  0.2200  1.1781  3.1792
  272MOL0     H35874   4.423   9.932   9.943  2.2809 -1.0243  0.4188
  272MOL0     H35875   4.533  10.045  10.015  0.7917  0.0977 -0.2200
  272MOL0     H35876   4.321  10.132   9.890  0.3671  4.0457  0.8273
  272MOL0     H35877   4.229  10.067  10.014  0.4459 -0.8143 -1.0131
  272MOL0     H35878   4.447  10.289  10.039  0.8828  1.8900  3.5062
  272MOL0     H35879   4.376  10.211  10.181  1.1574 -0.3139  0.0222
  272MOL0     H35880   4.238  10.393  10.167  0.0207 -0.3088  0.2874
  272MOL0     H35881   4.159  10.261  10.081  0.1838  0.1457 -0.1495
  272MOL0     H35882   4.337  10.477   9.935  0.1498  0.6073  0.7292
  272MOL0     H35883   4.232  10.344   9.870 -0.0500 -0.7103  1.8594
  272MOL0     H35884   4.136  10.593   9.879  2.5675  0.6528  0.1502
  272MOL0     H35885   4.124  10.561  10.050 -3.7790  0.7550 -0.9178
  272MOL0     H35886   4.525   9.596   9.863 -0.9179  0.7599  2.0853
  272MOL0     H35887   4.698   9.456   9.755 -1.2676 -1.3722 -0.4847
  272MOL0     H35888   5.036   9.230   9.775 -0.0678  0.1018 -0.6145
  272MOL0     H35889   5.199   9.071   9.664 -0.7256  0.0169  1.9350
  272MOL0     H35890   6.459   9.394  10.683 -1.5029 -0.1996 -1.6258
  272MOL0     H35891   6.680   9.472  10.756 -0.3107  1.1258 -1.1893
  272MOL0     H35892   7.219   9.285  10.562 -0.4866 -2.2381  1.7525
  272MOL0     H35893   7.441   9.335  10.701 -0.3457  0.6386 -3.2969
  272MOL0     H35894   7.560   9.316  10.882  0.8465 -0.8147  0.4204
  272MOL0     H35895   7.451   9.340  11.021 -0.0653  0.9923 -0.2396
  272MOL0     H35896   7.714   9.354  11.066 -0.8672 -2.4431 -1.4517
  272MOL0     H35897   7.714   9.514  10.995  1.2297 -1.1535 -0.8351
  272MOL0     H35898   7.688   9.528  11.237 -0.8690  0.9514  1.4024
  272MOL0     H35899   7.562   9.400  11.228 -3.4000 -0.1681 -1.9127
  272MOL0     H35900   7.496   9.686  11.140 -1.4967  1.6659  0.3595
  272MOL0     H35901   7.384   9.554  11.169  0.8072 -0.4200 -1.8029
  272MOL0     H35902   7.485   9.690  11.559  2.1629  0.6435 -0.9243
  272MOL0     H35903   7.228   9.594  10.970 -1.3867  1.0669  0.1512
  272MOL0     H35904   7.023   9.564  10.826  0.0830  1.1688 -2.0470
  273MOL0     O35905   2.089   7.667   8.690  0.1357  0.3377  0.1048
  273MOL0     C35906   2.136   7.560   8.645  0.4095  0.2734 -0.3263
  273MOL0     O35907   2.238   7.489   8.704 -0.4285  0.2906 -0.2993
  273MOL0     C35908   2.301   7.548   8.807  0.0689 -0.2818  0.7609
  273MOL0     C35909   2.234   7.563   8.934 -0.1311 -0.5891 -0.5569
  273MOL0     C35910   2.304   7.605   9.046 -0.2178  0.5359  0.7044
  273MOL0     C35911   2.437   7.662   9.027 -0.7469  0.5093  1.3014
  273MOL0     O35912   2.505   7.729   9.121 -0.3018 -0.2263 -0.3149
  273MOL0     C35913   2.447   7.789   9.238  0.0853 -0.0815 -0.0296
  273MOL0     C35914   2.550   7.774   9.344 -0.4287  0.0881  0.5925
  273MOL0     C35915   2.487   7.853   9.474 -0.2777 -0.2113  0.2561
  273MOL0     C35916   2.582   7.829   9.595  0.4227  0.0194  0.0521
  273MOL0     C35917   2.721   7.890   9.603  0.7185  0.8679  0.2400
  273MOL0     C35918   2.722   8.041   9.617 -0.0875  0.6436 -0.2317
  273MOL0     C35919   2.858   8.097   9.581 -0.0740 -0.5509 -0.2955
  273MOL0     C35920   2.839   8.248   9.560 -0.5414 -1.0236  0.3036
  273MOL0     N35921   2.966   8.329   9.559 -0.0468  0.1890  1.2577
  273MOL0     C35922   3.070   8.315   9.471 -0.2847 -0.3720  0.1366
  273MOL0     C35923   3.164   8.398   9.502 -0.2226 -0.1320 -0.6813
  273MOL0     C35924   3.308   8.427   9.439  0.8557 -0.6746 -0.2233
  273MOL0     C35925   3.313   8.553   9.361  1.2186 -0.1090 -0.0074
  273MOL0     C35926   3.352   8.662   9.447 -0.1033 -0.6910 -0.6348
  273MOL0     C35927   3.295   8.799   9.400 -0.0016 -1.0164  0.6733
  273MOL0     O35928   3.398   8.857   9.322 -0.0385  0.9291  0.1100
  273MOL0     C35929   3.385   8.986   9.288  0.1670 -0.6482  0.2937
  273MOL0     C35930   3.488   9.043   9.214  0.0987 -0.2846 -0.2232
  273MOL0     C35931   3.480   9.178   9.184 -0.3776  0.3677 -0.2942
  273MOL0     C35932   3.361   9.254   9.196 -1.1983  1.0452 -0.2187
  273MOL0     C35933   3.361   9.399   9.148 -0.1058  1.7701  0.5886
  273MOL0     O35934   3.492   9.464   9.132  0.7123 -0.4866 -0.1663
  273MOL0     C35935   3.493   9.596   9.123  0.3332 -0.5148  0.4950
  273MOL0     C35936   3.608   9.646   9.182  0.2658 -0.1242 -0.4774
  273MOL0     C35937   3.620   9.788   9.171 -0.1170  0.2421  0.6128
  273MOL0     C35938   3.519   9.873   9.131  0.3277 -0.0364  0.2841
  273MOL0     O35939   3.530  10.014   9.135  0.0154 -0.8556  0.1822
  273MOL0     C35940   3.596  10.069   9.244  0.1109  0.1363 -1.2297
  273MOL0     C35941   3.578  10.209   9.237  0.3096 -0.2754  0.4245
  273MOL0     C35942   3.609  10.292   9.363 -0.4318  0.4820 -0.9434
  273MOL0     C35943   3.557  10.222   9.486 -0.0531 -0.4188  0.3712
  273MOL0     C35944   3.569  10.306   9.612 -0.1321  0.5093  0.0142
  273MOL0     C35945   3.709  10.360   9.636  0.0730 -0.1483 -0.1551
  273MOL0     C35946   3.810  10.240   9.668 -0.4622 -0.3962 -0.0428
  273MOL0     C35947   3.959  10.258   9.623 -0.5979 -0.3422  0.9065
  273MOL0    Cl35948   4.068  10.135   9.704  0.1715  0.1758 -0.1663
  273MOL0     C35949   3.402   9.816   9.077  0.6207  0.0174 -0.0958
  273MOL0     C35950   3.390   9.679   9.070 -0.7927  0.5109 -0.3681
  273MOL0     O35951   3.251   9.455   9.158 -0.4108  0.6146  0.2912
  273MOL0     C35952   3.256   9.194   9.262 -0.3123  0.9353  0.6329
  273MOL0     C35953   3.274   9.066   9.322  0.3802 -0.5953  0.2426
  273MOL0     N35954   3.117   8.476   9.607  0.3961 -1.1768  0.0756
  273MOL0     N35955   2.999   8.428   9.644  0.0474  0.0135  1.3128
  273MOL0     C35956   2.506   7.655   8.899 -0.0709  0.0055 -0.2778
  273MOL0     C35957   2.437   7.583   8.792 -1.8228  0.4415  0.0202
  273MOL0     C35958   2.073   7.500   8.524 -0.4790 -0.4950  1.1779
  273MOL0     C35959   1.997   7.576   8.436  0.6007  0.0465 -0.5858
  273MOL0     C35960   1.954   7.509   8.316  0.0492 -0.6395  0.5465
  273MOL0     C35961   1.998   7.387   8.283  0.2222  1.0240  0.5893
  273MOL0     O35962   1.967   7.335   8.161  0.3650 -1.0076  0.3347
  273MOL0     C35963   1.978   7.204   8.122  0.0140 -0.7186  0.7828
  273MOL0     C35964   2.103   7.165   8.046  0.5616  0.7719  1.0109
  273MOL0     C35965   2.076   7.044   7.950  0.3758 -1.2203  0.0360
  273MOL0     C35966   1.993   7.080   7.824 -0.7392 -0.4045 -0.0977
  273MOL0     C35967   2.077   7.131   7.713 -0.1894  0.1297 -0.4322
  273MOL0     C35968   2.131   7.176   7.613 -1.0846  0.6160  0.3310
  273MOL0     C35969   2.075   7.315   8.374  0.2528  0.9288  0.2533
  273MOL0     C35970   2.105   7.366   8.495 -0.4035  0.8630  0.3567
  273MOL0     H35971   2.133   7.528   8.953 -1.0143  2.9071  2.2250
  273MOL0     H35972   2.249   7.602   9.140 -0.5597 -2.2282  0.4913
  273MOL0     H35973   2.350   7.743   9.261  0.2883 -0.8366 -0.6363
  273MOL0     H35974   2.437   7.892   9.203  0.1710  0.0805  0.4122
  273MOL0     H35975   2.650   7.807   9.314  1.3796 -5.8620 -1.3355
  273MOL0     H35976   2.570   7.671   9.376 -0.7908  0.7491  3.1968
  273MOL0     H35977   2.388   7.812   9.494 -1.8904  2.7383 -1.0406
  273MOL0     H35978   2.466   7.955   9.441  1.0800 -0.0037 -0.0406
  273MOL0     H35979   2.533   7.881   9.678 -0.2240 -0.1793 -0.2028
  273MOL0     H35980   2.600   7.724   9.619  2.8019  0.4492  0.4376
  273MOL0     H35981   2.763   7.850   9.510 -0.8544 -0.8375  0.2080
  273MOL0     H35982   2.788   7.834   9.669  4.5261  0.8836 -3.1822
  273MOL0     H35983   2.718   8.060   9.725  1.9656 -0.7890  0.1647
  273MOL0     H35984   2.649   8.095   9.556  1.6262 -0.3324 -3.3326
  273MOL0     H35985   2.928   8.070   9.661  0.3251  0.5064 -0.2741
  273MOL0     H35986   2.886   8.048   9.488 -0.7088 -0.4765 -0.5283
  273MOL0     H35987   2.782   8.290   9.643  0.4867 -0.4081  0.7194
  273MOL0     H35988   2.783   8.243   9.466  0.1161 -2.9255 -0.0418
  273MOL0     H35989   3.073   8.246   9.388  0.7617  2.6502 -2.5462
  273MOL0     H35990   3.325   8.346   9.368  0.4250 -2.6647  1.7938
  273MOL0     H35991   3.381   8.421   9.520 -1.4209 -0.3770  1.9754
  273MOL0     H35992   3.221   8.583   9.310  1.7277  3.3235  0.8093
  273MOL0     H35993   3.392   8.537   9.287 -1.8689 -0.8551 -3.4134
  273MOL0     H35994   3.338   8.643   9.553  2.3083  2.3923  0.3914
  273MOL0     H35995   3.460   8.676   9.435 -0.3007  1.2389 -0.5603
  273MOL0     H35996   3.282   8.854   9.493  1.2106 -0.8113  0.7383
  273MOL0     H35997   3.198   8.794   9.349 -0.7228 -1.4433  2.0612
  273MOL0     H35998   3.574   8.976   9.212  0.6693  0.4597 -0.6898
  273MOL0     H35999   3.563   9.238   9.148 -0.8592  1.3378  0.1604
  273MOL0     H36000   3.697   9.600   9.222  5.4609  6.5070 -2.5900
  273MOL0     H36001   3.718   9.831   9.191 -0.1116  1.5987 -1.9072
  273MOL0     H36002   3.701  10.040   9.233 -0.2595 -2.3269  0.8184
  273MOL0     H36003   3.551  10.025   9.333 -3.0445 -0.4079 -2.9479
  273MOL0     H36004   3.473  10.221   9.210 -0.2277 -4.0039  0.2430
  273MOL0     H36005   3.645  10.257   9.165  1.3463  1.8158  2.6537
  273MOL0     H36006   3.561  10.388   9.342 -3.5217 -0.8327 -0.4787
  273MOL0     H36007   3.716  10.309   9.379  0.3027 -2.2320 -2.3931
  273MOL0     H36008   3.449  10.208   9.472  0.0978 -0.2888 -1.0517
  273MOL0     H36009   3.602  10.124   9.504 -3.7469 -1.9683  2.3731
  273MOL0     H36010   3.530  10.256   9.700 -2.8494 -2.4069 -2.5819
  273MOL0     H36011   3.504  10.392   9.589 -0.4431  0.1703 -0.3955
  273MOL0     H36012   3.711  10.427   9.722 -0.4238  1.3665 -1.2796
  273MOL0     H36013   3.742  10.426   9.555  3.4974  0.0688  1.2241
  273MOL0     H36014   3.821  10.231   9.776  0.3668  1.9616  0.1161
  273MOL0     H36015   3.771  10.144   9.632 -1.2658 -0.6136  1.3488
  273MOL0     H36016   3.984  10.364   9.624  1.5524 -0.7055 -2.2043
  273MOL0     H36017   3.967  10.234   9.516 -1.6874  1.0647  0.4822
  273MOL0     H36018   3.329   9.874   9.020  0.5744 -2.1602 -2.4416
  273MOL0     H36019   3.297   9.650   9.022 -2.2401  2.2375  1.1970
  273MOL0     H36020   3.162   9.247   9.273  0.1347  1.7982  0.3728
  273MOL0     H36021   3.193   9.031   9.385 -0.8931  2.2985  0.3439
  273MOL0     H36022   2.601   7.705   8.882 -0.3311 -0.0788 -2.2437
  273MOL0     H36023   2.490   7.563   8.700  2.6020 -0.7356  2.5141
  273MOL0     H36024   1.990   7.681   8.462  1.1745 -0.8281  3.9130
  273MOL0     H36025   1.911   7.575   8.241  1.5846 -0.4574 -0.2220
  273MOL0     H36026   1.890   7.178   8.062 -0.5818  0.0879  1.2833
  273MOL0     H36027   1.968   7.132   8.205 -0.0799 -3.5448 -1.5324
  273MOL0     H36028   2.135   7.251   7.987 -0.1615  0.1027 -0.4015
  273MOL0     H36029   2.172   7.129   8.123  0.3071 -2.2746 -0.0688
  273MOL0     H36030   2.022   6.966   8.004 -4.8764  2.0320  0.1211
  273MOL0     H36031   2.176   7.005   7.925  1.8428  2.0923  0.2487
  273MOL0     H36032   1.948   6.990   7.781  2.6981 -2.5009  0.4145
  273MOL0     H36033   1.920   7.159   7.846  1.4905  2.1816 -1.3337
  273MOL0     H36034   2.181   7.217   7.527  2.6099  0.1506  2.0245
  273MOL0     H36035   2.108   7.216   8.344  1.1721  1.4296 -0.4380
  273MOL0     H36036   2.160   7.307   8.567  0.2066 -1.6270 -1.9902
  274MOL0     O36037   4.069   6.134   5.168 -0.0540 -0.0296  0.3129
  274MOL0     C36038   4.058   6.038   5.244 -0.5014  1.5358 -0.9020
  274MOL0     O36039   4.135   6.028   5.361  0.1011  0.1007  0.3197
  274MOL0     C36040   4.212   6.137   5.413  0.8452  0.9682  0.9516
  274MOL0     C36041   4.315   6.093   5.496 -0.6108 -0.3089  0.8620
  274MOL0     C36042   4.390   6.184   5.563 -0.5968  0.3932 -0.0484
  274MOL0     C36043   4.371   6.320   5.552 -0.3694  0.4379 -0.5775
  274MOL0     O36044   4.460   6.393   5.634 -0.5772  0.0219 -0.4346
  274MOL0     C36045   4.404   6.502   5.722  0.5380 -0.1753 -0.1556
  274MOL0     C36046   4.438   6.642   5.669 -0.5626 -0.0664 -0.5145
  274MOL0     C36047   4.443   6.754   5.782 -0.6488  0.1459  0.0669
  274MOL0     C36048   4.580   6.726   5.879  0.1243  1.6839  0.2254
  274MOL0     C36049   4.560   6.801   6.015  0.0200  1.2863 -0.0440
  274MOL0     C36050   4.571   6.957   6.025 -0.1493 -0.7525  0.8216
  274MOL0     C36051   4.580   7.016   6.165  0.7164 -0.6613 -0.8585
  274MOL0     C36052   4.715   7.057   6.227 -0.0874  0.6774 -0.1307
  274MOL0     N36053   4.706   7.113   6.364  0.0072 -0.3602  0.2827
  274MOL0     C36054   4.595   7.158   6.443  0.6649  0.1493 -0.5278
  274MOL0     C36055   4.651   7.228   6.551  0.3620  0.3867  1.4452
  274MOL0     C36056   4.574   7.286   6.670  0.2984  0.0346 -0.6390
  274MOL0     C36057   4.561   7.443   6.663  0.1151 -0.3695 -0.2333
  274MOL0     C36058   4.470   7.494   6.775 -0.6283  0.0225  0.8201
  274MOL0     C36059   4.467   7.651   6.780 -0.1298  0.0064 -0.2306
  274MOL0     O36060   4.606   7.681   6.797 -0.1469 -0.1498  0.5568
  274MOL0     C36061   4.653   7.807   6.838 -0.2653  0.8236  0.1324
  274MOL0     C36062   4.796   7.814   6.848 -0.2960 -0.7274  0.2460
  274MOL0     C36063   4.857   7.936   6.885 -0.6648 -0.1113  0.6215
  274MOL0     C36064   4.778   8.046   6.908 -0.3355  0.9264 -0.4904
  274MOL0     C36065   4.822   8.167   6.986 -0.4263 -1.2014  0.2316
  274MOL0     O36066   4.962   8.182   6.996  0.3886  0.9114  0.3471
  274MOL0     C36067   5.020   8.284   7.060 -0.1012 -0.3898  0.5775
  274MOL0     C36068   5.123   8.353   6.994 -0.1808 -0.1533 -1.1932
  274MOL0     C36069   5.217   8.434   7.064 -0.0406  0.8303 -0.6926
  274MOL0     C36070   5.200   8.459   7.200  0.5147 -0.7338  0.3354
  274MOL0     O36071   5.285   8.543   7.268  0.1771  0.7716 -0.4576
  274MOL0     C36072   5.427   8.501   7.287 -0.4644  0.0029 -0.3905
  274MOL0     C36073   5.490   8.549   7.429 -0.7520  0.6866  0.6530
  274MOL0     C36074   5.470   8.429   7.525  0.2220  0.2224  0.1097
  274MOL0     C36075   5.330   8.381   7.555  0.4181 -0.0756 -0.7993
  274MOL0     C36076   5.317   8.216   7.533 -0.3407  0.1021 -0.3405
  274MOL0     C36077   5.169   8.176   7.544  1.3889  0.6664 -0.0659
  274MOL0     C36078   5.160   8.026   7.504 -0.0205 -0.8439  0.8822
  274MOL0     C36079   5.023   7.952   7.502 -0.6561 -0.1651  0.0049
  274MOL0    Cl36080   4.888   8.027   7.409  0.2210 -0.0237  0.2387
  274MOL0     C36081   5.072   8.415   7.259  0.0256  0.1531 -0.4456
  274MOL0     C36082   4.992   8.320   7.186  0.3206  0.0944  0.0101
  274MOL0     O36083   4.736   8.249   7.022 -0.3965 -0.3119  0.6216
  274MOL0     C36084   4.641   8.036   6.896 -0.1460 -0.4007 -0.6906
  274MOL0     C36085   4.574   7.924   6.857  0.2722  0.2137 -0.3608
  274MOL0     N36086   4.785   7.242   6.529 -0.8169  0.1437 -0.0856
  274MOL0     N36087   4.813   7.169   6.430 -0.2593  0.4912  0.0863
  274MOL0     C36088   4.277   6.373   5.461  0.5670  0.1463 -0.9598
  274MOL0     C36089   4.195   6.279   5.393  0.0144  0.1785 -0.7153
  274MOL0     C36090   3.968   5.922   5.201 -0.6917 -0.0520  0.3185
  274MOL0     C36091   3.862   5.944   5.115 -0.5516 -0.0085 -0.3109
  274MOL0     C36092   3.785   5.842   5.075  0.8799  0.5342 -0.8274
  274MOL0     C36093   3.801   5.709   5.114  0.3376 -0.7258  0.4798
  274MOL0     O36094   3.723   5.607   5.083  0.5221  0.9398 -0.6263
  274MOL0     C36095   3.702   5.551   4.958 -0.3417  0.4236  0.0221
  274MOL0     C36096   3.565   5.570   4.903  0.7672 -0.7863  0.5303
  274MOL0     C36097   3.452   5.497   4.972 -0.6828 -0.0300  0.2612
  274MOL0     C36098   3.427   5.554   5.116 -0.1382 -0.9663  0.2120
  274MOL0     C36099   3.308   5.487   5.170 -0.7972 -0.3142 -0.6145
  274MOL0     C36100   3.236   5.406   5.227 -0.1442  0.4028  0.3282
  274MOL0     C36101   3.915   5.685   5.198 -0.3398  0.0768 -0.0156
  274MOL0     C36102   3.998   5.791   5.247  0.2599 -0.1315  0.1725
  274MOL0     H36103   4.335   5.989   5.519  0.8188 -0.4423 -0.8173
  274MOL0     H36104   4.460   6.151   5.639 -0.2458  0.1452 -0.4751
  274MOL0     H36105   4.433   6.499   5.827 -0.5882  0.9041  0.2147
  274MOL0     H36106   4.295   6.495   5.728  0.4059  2.4204  1.7904
  274MOL0     H36107   4.365   6.671   5.593 -0.5427  0.3064 -0.3959
  274MOL0     H36108   4.539   6.636   5.627  0.2879 -0.4253  1.4468
  274MOL0     H36109   4.352   6.760   5.843  0.5460  2.3415  1.7811
  274MOL0     H36110   4.474   6.852   5.745  2.4965  0.2143  2.4497
  274MOL0     H36111   4.584   6.618   5.894 -1.4518  0.7949 -4.1926
  274MOL0     H36112   4.673   6.755   5.830  0.7432 -1.1870 -0.4729
  274MOL0     H36113   4.637   6.763   6.083 -2.1166 -0.7386  1.4307
  274MOL0     H36114   4.463   6.763   6.049 -0.5940  0.3260 -2.6695
  274MOL0     H36115   4.478   6.992   5.980  0.2932 -2.0911 -1.2640
  274MOL0     H36116   4.658   6.988   5.965  2.0309 -1.6241  3.3179
  274MOL0     H36117   4.517   7.104   6.153 -0.4443 -1.0292  1.8886
  274MOL0     H36118   4.533   6.944   6.233  2.5341 -0.3018  0.8723
  274MOL0     H36119   4.777   7.114   6.157 -1.6105  0.6381 -1.5409
  274MOL0     H36120   4.765   6.960   6.224 -1.9949 -0.3109 -0.8059
  274MOL0     H36121   4.489   7.137   6.436  0.5419 -0.2003  1.8240
  274MOL0     H36122   4.631   7.252   6.757 -3.2336 -0.1161  1.8033
  274MOL0     H36123   4.473   7.246   6.679  1.3659 -2.6022  0.9631
  274MOL0     H36124   4.514   7.462   6.566  1.1973  1.5449 -0.4243
  274MOL0     H36125   4.659   7.491   6.664  0.4882 -0.9999 -2.2216
  274MOL0     H36126   4.374   7.458   6.738  0.0184  0.2595 -1.1830
  274MOL0     H36127   4.499   7.440   6.866  1.4150 -1.9290 -0.8727
  274MOL0     H36128   4.402   7.699   6.854  2.7343  2.8493  0.7170
  274MOL0     H36129   4.441   7.701   6.687  1.4559  0.3184 -0.5406
  274MOL0     H36130   4.866   7.739   6.811  0.2325 -0.4823  0.7232
  274MOL0     H36131   4.960   7.931   6.920 -0.5892 -0.2944  0.3801
  274MOL0     H36132   5.131   8.341   6.886 -0.1143  0.9507 -1.3194
  274MOL0     H36133   5.304   8.464   7.007  1.7095 -1.8758  0.3265
  274MOL0     H36134   5.474   8.541   7.197 -0.7041 -1.8449 -1.3841
  274MOL0     H36135   5.442   8.392   7.282 -1.5082 -0.3010  1.9776
  274MOL0     H36136   5.446   8.640   7.472 -0.3567  2.1131 -1.7827
  274MOL0     H36137   5.597   8.564   7.411 -0.8978 -1.6468 -3.4293
  274MOL0     H36138   5.534   8.450   7.611  2.0860  0.2887 -1.2506
  274MOL0     H36139   5.512   8.336   7.485 -0.3535 -0.7309  1.6102
  274MOL0     H36140   5.294   8.402   7.656  2.3516  1.8450 -0.4419
  274MOL0     H36141   5.262   8.438   7.489  0.1061  0.9148  0.3424
  274MOL0     H36142   5.373   8.174   7.617 -1.7127  4.3707  3.0759
  274MOL0     H36143   5.362   8.181   7.440  3.3272 -1.4922  1.8159
  274MOL0     H36144   5.097   8.229   7.480  0.2364 -2.8857 -1.9515
  274MOL0     H36145   5.131   8.177   7.647 -1.0267 -1.4975 -0.8295
  274MOL0     H36146   5.185   8.025   7.397  0.4721 -4.9375  0.8874
  274MOL0     H36147   5.244   7.972   7.550  1.0855  0.3491  0.3591
  274MOL0     H36148   4.998   7.945   7.608  1.3972  1.9018  0.7071
  274MOL0     H36149   5.037   7.852   7.460 -0.7731  0.4335 -1.5165
  274MOL0     H36150   5.057   8.459   7.357  1.1063 -0.5836  0.0741
  274MOL0     H36151   4.904   8.269   7.224 -0.5868 -1.1211 -3.3588
  274MOL0     H36152   4.574   8.122   6.899  0.5334  0.3479 -3.3923
  274MOL0     H36153   4.466   7.920   6.848  0.4451 -2.0585 -2.3389
  274MOL0     H36154   4.269   6.481   5.449 -2.9374  0.3263  1.4373
  274MOL0     H36155   4.122   6.317   5.321  1.2796  4.5555 -0.0240
  274MOL0     H36156   3.848   6.049   5.095 -0.4786 -0.5439 -3.7168
  274MOL0     H36157   3.709   5.878   5.007  2.2153  3.1782 -1.0586
  274MOL0     H36158   3.731   5.446   4.970  3.8995  1.3224 -0.5061
  274MOL0     H36159   3.771   5.585   4.880 -1.4961 -3.6657 -3.1299
  274MOL0     H36160   3.546   5.677   4.896  3.0269 -0.4387 -2.8207
  274MOL0     H36161   3.552   5.548   4.797 -1.7469  1.8878  0.1815
  274MOL0     H36162   3.478   5.392   4.986  4.4495  1.1337  1.3889
  274MOL0     H36163   3.358   5.507   4.916 -1.4705 -1.5536  1.2285
  274MOL0     H36164   3.514   5.540   5.181 -0.3357 -0.4414  0.6002
  274MOL0     H36165   3.408   5.661   5.106  1.7634 -0.6295 -0.2147
  274MOL0     H36166   3.164   5.341   5.273 -0.0572 -0.9924 -1.4202
  274MOL0     H36167   3.936   5.582   5.226  0.9313 -0.5447 -2.8343
  274MOL0     H36168   4.082   5.768   5.312 -0.0495 -1.7133  0.0505
  275MOL0     O36169   8.853   1.035   6.460 -0.4441 -0.7502 -0.4011
  275MOL0     C36170   8.894   0.918   6.430 -0.2704  1.0147 -0.2166
  275MOL0     O36171   8.877   0.856   6.307 -0.9118  0.1325  0.3333
  275MOL0     C36172   8.781   0.898   6.214  0.2395 -0.3020  0.6754
  275MOL0     C36173   8.775   0.820   6.099 -0.5607 -0.4759 -0.1199
  275MOL0     C36174   8.692   0.833   5.997  1.0161  0.5675  0.3037
  275MOL0     C36175   8.599   0.937   6.005 -0.0281  0.3567  0.6752
  275MOL0     O36176   8.513   0.957   5.890  1.1729 -0.2546  0.3341
  275MOL0     C36177   8.501   1.100   5.848  0.2482  0.0886 -0.0084
  275MOL0     C36178   8.428   1.110   5.708  0.1147 -0.1496  0.0623
  275MOL0     C36179   8.413   1.257   5.666  0.9217 -0.6018 -0.3543
  275MOL0     C36180   8.406   1.268   5.511  1.3322 -0.7440 -0.2009
  275MOL0     C36181   8.358   1.410   5.489 -0.5429  0.0450  0.4666
  275MOL0     C36182   8.303   1.451   5.345  0.3234 -0.3167  0.5014
  275MOL0     C36183   8.310   1.600   5.331 -0.7454  0.8232  0.4167
  275MOL0     C36184   8.240   1.649   5.208 -0.0989  0.6482 -0.9082
  275MOL0     N36185   8.291   1.777   5.164 -0.2266 -0.1280 -0.6389
  275MOL0     C36186   8.241   1.899   5.206  0.5316 -0.2414  0.2754
  275MOL0     C36187   8.308   1.993   5.140 -0.2164  0.4960 -0.0322
  275MOL0     C36188   8.287   2.137   5.156  1.0559 -0.1877  0.7452
  275MOL0     C36189   8.174   2.187   5.071  1.1733 -0.8685 -0.4142
  275MOL0     C36190   8.036   2.137   5.110 -0.2209 -0.2286  1.0080
  275MOL0     C36191   7.984   2.212   5.232  0.7722  0.5256 -0.6949
  275MOL0     O36192   7.871   2.152   5.292  0.4580 -0.0686 -0.8570
  275MOL0     C36193   7.828   2.207   5.409 -0.1095  0.0906  0.8177
  275MOL0     C36194   7.881   2.171   5.533 -0.1096  0.1444 -0.2495
  275MOL0     C36195   7.822   2.214   5.651 -0.9805  0.2553  0.1754
  275MOL0     C36196   7.728   2.317   5.652 -0.1526  0.3067 -0.0851
  275MOL0     C36197   7.680   2.378   5.778 -0.6934  1.0043  1.2729
  275MOL0     O36198   7.760   2.361   5.890  0.4513 -0.1756 -0.1065
  275MOL0     C36199   7.709   2.414   6.007  0.6502  0.0098 -1.0518
  275MOL0     C36200   7.668   2.550   6.032  0.5281 -0.2526  0.2930
  275MOL0     C36201   7.638   2.583   6.167  0.6601  0.9111 -0.2168
  275MOL0     C36202   7.617   2.489   6.279 -0.7091 -0.0188  0.0382
  275MOL0     O36203   7.595   2.525   6.412  0.9328  0.1202 -0.2299
  275MOL0     C36204   7.576   2.655   6.455  0.9724 -0.1541 -0.8345
  275MOL0     C36205   7.426   2.708   6.476 -0.4734  0.2767 -0.1185
  275MOL0     C36206   7.343   2.604   6.550  1.0498  0.6225  0.0485
  275MOL0     C36207   7.196   2.641   6.551 -0.8368 -0.4250  0.3840
  275MOL0     C36208   7.110   2.530   6.577 -0.6503 -0.4567 -0.1578
  275MOL0     C36209   7.130   2.446   6.712  0.2493 -0.2321  0.4799
  275MOL0     C36210   7.099   2.526   6.841 -0.2135 -0.4748  0.2316
  275MOL0     C36211   7.086   2.416   6.951 -0.1631 -0.5742 -0.6847
  275MOL0    Cl36212   7.229   2.317   6.975  0.6199 -0.3475  0.0931
  275MOL0     C36213   7.658   2.357   6.240  0.7528 -0.7983  0.3059
  275MOL0     C36214   7.713   2.326   6.113  0.9231  1.1636  0.0057
  275MOL0     O36215   7.558   2.415   5.778 -0.2992  0.5864  0.5373
  275MOL0     C36216   7.676   2.365   5.523  0.3051 -0.1770  0.3592
  275MOL0     C36217   7.722   2.303   5.403  1.0119 -0.1731  0.4924
  275MOL0     N36218   8.408   1.929   5.054 -0.7103 -0.3840 -0.4416
  275MOL0     N36219   8.385   1.804   5.067  0.3517 -0.7590  0.2831
  275MOL0     C36220   8.611   1.034   6.102  0.6702 -0.7285 -0.5647
  275MOL0     C36221   8.702   1.013   6.214 -0.5919 -0.0705 -0.1688
  275MOL0     C36222   8.978   0.857   6.537  0.6979 -0.6734  0.3141
  275MOL0     C36223   8.950   0.880   6.672 -0.7000 -0.6586 -0.5580
  275MOL0     C36224   9.022   0.821   6.775  0.4331 -0.2494  0.0068
  275MOL0     C36225   9.133   0.735   6.740 -1.5100 -0.6147 -0.1217
  275MOL0     O36226   9.223   0.674   6.829 -0.2713  0.6366 -0.6182
  275MOL0     C36227   9.218   0.722   6.966 -0.1414  0.5543  1.3025
  275MOL0     C36228   9.337   0.669   7.045  0.5133  0.3532 -1.1775
  275MOL0     C36229   9.354   0.744   7.183  0.9832 -0.0670 -0.6415
  275MOL0     C36230   9.426   0.874   7.182  0.1802 -0.0603  0.7778
  275MOL0     C36231   9.461   0.911   7.320 -0.4181 -0.0941  0.3648
  275MOL0     C36232   9.504   0.941   7.432  0.4441  0.3413 -0.0824
  275MOL0     C36233   9.149   0.706   6.603 -0.3789  0.1602 -0.6409
  275MOL0     C36234   9.073   0.766   6.505 -0.0266  0.4664  0.1648
  275MOL0     H36235   8.850   0.742   6.094  1.1412  0.8950  2.2561
  275MOL0     H36236   8.686   0.767   5.911 -2.4890 -0.2254  0.9825
  275MOL0     H36237   8.603   1.137   5.831  1.0831 -2.0975 -0.1728
  275MOL0     H36238   8.450   1.155   5.928 -1.0462 -1.2268  0.1239
  275MOL0     H36239   8.332   1.058   5.708  0.3988 -0.7773 -2.1652
  275MOL0     H36240   8.495   1.059   5.638  0.3991  1.0293 -0.5534
  275MOL0     H36241   8.491   1.323   5.704 -0.5530  2.3988 -2.2035
  275MOL0     H36242   8.324   1.288   5.721 -0.1206 -1.8852 -1.2496
  275MOL0     H36243   8.499   1.234   5.464  2.1545 -2.0944  2.1877
  275MOL0     H36244   8.333   1.197   5.471 -1.1549  0.4062  1.9780
  275MOL0     H36245   8.436   1.481   5.518 -1.1815 -0.4235  3.6791
  275MOL0     H36246   8.273   1.436   5.552 -0.5805  0.4648  0.2439
  275MOL0     H36247   8.204   1.408   5.327  0.1081  1.2425 -3.0078
  275MOL0     H36248   8.368   1.403   5.270 -1.8420  1.8106 -3.0416
  275MOL0     H36249   8.257   1.650   5.413 -2.4559  3.2365 -1.9840
  275MOL0     H36250   8.412   1.639   5.332 -0.9328  1.4434  3.5582
  275MOL0     H36251   8.134   1.655   5.236  0.4198  0.8960  1.0930
  275MOL0     H36252   8.258   1.585   5.121 -1.0219 -0.1098 -0.5690
  275MOL0     H36253   8.167   1.901   5.285  1.9904 -0.1608  1.6993
  275MOL0     H36254   8.378   2.192   5.129  0.7970  0.3997  1.0397
  275MOL0     H36255   8.262   2.159   5.260  1.5818 -2.0882  1.3125
  275MOL0     H36256   8.202   2.148   4.973  4.2425 -2.1573  0.8642
  275MOL0     H36257   8.180   2.297   5.076 -2.2522 -0.4893 -1.9011
  275MOL0     H36258   7.975   2.151   5.021 -1.4489  1.0768  2.0051
  275MOL0     H36259   8.027   2.029   5.123 -1.3666 -0.3422 -0.4781
  275MOL0     H36260   7.972   2.315   5.196 -1.2736  0.2496 -0.8664
  275MOL0     H36261   8.056   2.222   5.315 -0.7254 -0.6820  0.8163
  275MOL0     H36262   7.956   2.093   5.543  0.2407  0.4296 -0.6491
  275MOL0     H36263   7.878   2.181   5.738  1.7392 -1.1014 -1.9181
  275MOL0     H36264   7.682   2.620   5.951 -2.0898 -0.0470 -0.0746
  275MOL0     H36265   7.624   2.689   6.183  1.1373  0.7568  1.3243
  275MOL0     H36266   7.626   2.729   6.392  2.2019 -0.4085 -0.1741
  275MOL0     H36267   7.633   2.664   6.548 -0.3810 -0.5621  0.0607
  275MOL0     H36268   7.375   2.746   6.387  0.7159 -0.4372 -1.1431
  275MOL0     H36269   7.433   2.794   6.543 -1.3274  1.7652 -1.8553
  275MOL0     H36270   7.377   2.589   6.653  0.7643 -2.0706 -0.1893
  275MOL0     H36271   7.349   2.508   6.499  1.1708 -0.8380  2.6255
  275MOL0     H36272   7.172   2.722   6.621  0.5551 -1.3457  2.0067
  275MOL0     H36273   7.179   2.667   6.446 -2.4405 -3.6103 -0.2720
  275MOL0     H36274   7.126   2.458   6.496  1.2269 -3.1938  2.4489
  275MOL0     H36275   7.009   2.571   6.569 -1.8010 -3.0630  0.1017
  275MOL0     H36276   7.230   2.403   6.711 -0.1485 -1.1901  0.7075
  275MOL0     H36277   7.072   2.353   6.713  0.7400 -0.5409  0.8090
  275MOL0     H36278   7.192   2.583   6.856 -1.6697  2.3675 -0.8457
  275MOL0     H36279   7.014   2.593   6.833 -2.4257 -3.2102 -0.7157
  275MOL0     H36280   7.000   2.349   6.945  1.3864 -3.3928  3.9021
  275MOL0     H36281   7.077   2.472   7.044  0.2005  1.7725 -1.9936
  275MOL0     H36282   7.643   2.276   6.311 -0.3608  0.5358  1.6696
  275MOL0     H36283   7.742   2.227   6.081  2.6891  1.4579  0.5844
  275MOL0     H36284   7.614   2.454   5.528  0.6326  0.2822 -2.2031
  275MOL0     H36285   7.688   2.315   5.300  2.3903 -2.5722 -0.3182
  275MOL0     H36286   8.534   1.111   6.106  1.3675 -0.0105  2.7442
  275MOL0     H36287   8.711   1.088   6.292  0.8547  1.2179 -1.5039
  275MOL0     H36288   8.860   0.929   6.710 -2.3995 -2.4468 -2.0641
  275MOL0     H36289   9.001   0.845   6.879  0.6757 -0.2851  0.0665
  275MOL0     H36290   9.138   0.670   7.019  1.6006 -0.3748  3.1583
  275MOL0     H36291   9.219   0.831   6.973 -0.2018  0.8987 -2.2224
  275MOL0     H36292   9.322   0.561   7.052 -0.6202  0.6132  1.9284
  275MOL0     H36293   9.433   0.679   6.994  0.8528 -1.0045 -0.8577
  275MOL0     H36294   9.417   0.675   7.240 -0.3116 -0.1500  0.7398
  275MOL0     H36295   9.261   0.765   7.237  1.8565  0.2062  0.7970
  275MOL0     H36296   9.514   0.868   7.118 -1.4941  2.6114 -2.0277
  275MOL0     H36297   9.367   0.958   7.144  1.8848 -0.1658 -2.4502
  275MOL0     H36298   9.529   0.964   7.533 -1.0301  0.0122  0.3777
  275MOL0     H36299   9.207   0.617   6.580  3.4434  2.2553  0.0237
  275MOL0     H36300   9.093   0.741   6.401  1.8341  1.0885  0.3411
  276MOL0     O36301   5.908   1.855   5.040 -0.4958 -0.0191  0.0270
  276MOL0     C36302   5.886   1.972   5.066 -0.2574  0.3103  0.5874
  276MOL0     O36303   5.873   2.027   5.194  0.3403 -0.5493  0.1362
  276MOL0     C36304   5.895   1.958   5.311 -0.6034 -0.6020  0.4938
  276MOL0     C36305   5.996   1.865   5.327  0.5958  0.6622  0.5236
  276MOL0     C36306   6.035   1.830   5.460 -0.1847  0.0701 -0.4060
  276MOL0     C36307   5.970   1.887   5.575  0.4235 -0.1199  1.2092
  276MOL0     O36308   5.995   1.853   5.709 -0.3784 -0.5004  0.5010
  276MOL0     C36309   6.013   1.706   5.736  0.7609  0.3563 -0.6319
  276MOL0     C36310   6.160   1.694   5.767  0.2884 -0.8465  0.3110
  276MOL0     C36311   6.195   1.717   5.921 -0.0293 -0.6220  0.9223
  276MOL0     C36312   6.329   1.678   5.962 -0.3129 -1.0694  0.0179
  276MOL0     C36313   6.370   1.733   6.097 -0.0562 -0.7311  0.3625
  276MOL0     C36314   6.504   1.666   6.136  0.2700 -0.0674 -0.5232
  276MOL0     C36315   6.543   1.702   6.277 -1.0259  1.0047 -0.4867
  276MOL0     C36316   6.569   1.849   6.304 -0.0981  0.0940 -0.5909
  276MOL0     N36317   6.691   1.903   6.238 -0.7906  0.4077 -0.1801
  276MOL0     C36318   6.703   1.943   6.107  1.1972 -0.8369  0.3835
  276MOL0     C36319   6.827   1.996   6.094 -0.6436 -0.0608  0.9584
  276MOL0     C36320   6.877   2.074   5.974  0.7513 -0.8260 -0.0145
  276MOL0     C36321   7.018   2.060   5.942 -0.3212  0.5627  0.4707
  276MOL0     C36322   7.062   2.166   5.842  1.1058  0.3126 -0.2438
  276MOL0     C36323   7.004   2.141   5.703 -0.6720 -0.4828  0.0280
  276MOL0     O36324   7.095   2.205   5.609  0.7651  0.6929  1.3790
  276MOL0     C36325   7.113   2.338   5.622  1.1120 -0.5017 -0.2373
  276MOL0     C36326   7.241   2.377   5.647  0.4223 -0.1698 -0.1502
  276MOL0     C36327   7.274   2.511   5.668  0.8378 -0.6906  0.1959
  276MOL0     C36328   7.180   2.611   5.641 -0.0036  0.1357 -0.1258
  276MOL0     C36329   7.209   2.758   5.642  0.6582 -0.6451 -1.3503
  276MOL0     O36330   7.326   2.804   5.678  0.0315 -0.0170  0.0631
  276MOL0     C36331   7.357   2.939   5.669 -0.5093 -0.9471 -0.6147
  276MOL0     C36332   7.374   2.997   5.541 -0.8123 -1.3305  0.6308
  276MOL0     C36333   7.404   3.135   5.522  0.1161 -0.4159 -1.3457
  276MOL0     C36334   7.438   3.207   5.645 -0.1100 -1.2893  0.9319
  276MOL0     O36335   7.476   3.341   5.658  0.0204 -0.0857  0.1691
  276MOL0     C36336   7.491   3.405   5.537  0.1523 -0.4879  0.0799
  276MOL0     C36337   7.532   3.556   5.560  0.2665 -0.9806  0.1833
  276MOL0     C36338   7.599   3.623   5.440  0.9688  0.3128  0.0862
  276MOL0     C36339   7.626   3.773   5.471  0.3353 -0.4850  0.4487
  276MOL0     C36340   7.724   3.837   5.380  0.3317  0.0289 -0.5083
  276MOL0     C36341   7.667   3.823   5.228  0.5272 -0.2431  0.0861
  276MOL0     C36342   7.755   3.877   5.126 -0.5554  1.1403  0.0431
  276MOL0     C36343   7.675   3.914   4.996  0.6190  0.1792  0.0229
  276MOL0    Cl36344   7.599   3.789   4.908 -0.3850 -0.2987  0.0904
  276MOL0     C36345   7.447   3.138   5.766 -0.0543  0.0120  0.6700
  276MOL0     C36346   7.392   3.012   5.784  0.4728  0.0844 -0.7989
  276MOL0     O36347   7.115   2.842   5.604 -0.4628 -0.4428  0.2840
  276MOL0     C36348   7.045   2.564   5.615 -0.5143 -0.5776  0.0375
  276MOL0     C36349   7.020   2.432   5.609  0.6132  0.6767 -0.2174
  276MOL0     N36350   6.882   1.996   6.218 -0.5971 -0.0331  0.8183
  276MOL0     N36351   6.805   1.939   6.297  0.4355  0.4698 -0.1586
  276MOL0     C36352   5.860   1.985   5.548 -0.2330  0.2216 -0.2342
  276MOL0     C36353   5.835   2.018   5.419  0.7353 -0.4413  0.1492
  276MOL0     C36354   5.849   2.067   4.965 -0.7072 -0.6545 -0.2201
  276MOL0     C36355   5.786   2.189   5.001  0.1557  0.6802  0.3583
  276MOL0     C36356   5.753   2.284   4.913  0.3692 -0.2837 -0.2056
  276MOL0     C36357   5.779   2.262   4.779 -1.2024 -0.1755 -0.4594
  276MOL0     O36358   5.750   2.362   4.685  0.5971  0.8552  0.2688
  276MOL0     C36359   5.797   2.341   4.545  0.7559 -0.9359 -0.9076
  276MOL0     C36360   5.811   2.467   4.461 -0.0181  0.1702 -0.3381
  276MOL0     C36361   5.904   2.559   4.544  0.4686 -0.4060 -0.5932
  276MOL0     C36362   5.907   2.705   4.517  0.2730 -0.7748 -0.5740
  276MOL0     C36363   5.992   2.783   4.606  0.2232 -1.0879  0.5569
  276MOL0     C36364   6.079   2.823   4.684 -0.0907 -0.8150  0.0987
  276MOL0     C36365   5.837   2.138   4.736  0.2072  1.0884 -0.3470
  276MOL0     C36366   5.876   2.043   4.831  0.6113  0.6895 -0.0578
  276MOL0     H36367   6.047   1.813   5.247  3.4227  0.0632  2.5701
  276MOL0     H36368   6.110   1.754   5.483 -0.8259  0.0090  1.7829
  276MOL0     H36369   5.991   1.644   5.648  3.2972  1.1198 -1.8950
  276MOL0     H36370   5.963   1.674   5.827 -0.3806  0.4397 -1.2087
  276MOL0     H36371   6.216   1.757   5.697 -4.0220  1.4527 -1.4463
  276MOL0     H36372   6.197   1.594   5.744  0.4734 -0.6753 -0.1542
  276MOL0     H36373   6.124   1.656   5.977 -2.0629  0.1954 -0.6490
  276MOL0     H36374   6.172   1.817   5.958  0.1353 -0.7980  1.5017
  276MOL0     H36375   6.339   1.569   5.958 -0.5452 -1.1351 -4.8108
  276MOL0     H36376   6.398   1.715   5.886 -0.5788 -4.8877 -2.3083
  276MOL0     H36377   6.289   1.714   6.168  0.6119 -0.7960  1.1195
  276MOL0     H36378   6.381   1.842   6.090  0.7169 -0.9215 -2.8819
  276MOL0     H36379   6.588   1.692   6.071  2.1112 -2.0863  0.8919
  276MOL0     H36380   6.504   1.556   6.132  1.1443 -0.0567 -1.1768
  276MOL0     H36381   6.463   1.660   6.338  0.7154 -1.0427  0.5026
  276MOL0     H36382   6.629   1.643   6.311 -2.6568 -0.8259  0.6758
  276MOL0     H36383   6.578   1.866   6.412 -2.6846  1.2396 -0.4795
  276MOL0     H36384   6.486   1.908   6.264 -1.5760  0.6566  2.9305
  276MOL0     H36385   6.628   1.940   6.029 -1.8614  5.1202  2.4454
  276MOL0     H36386   6.882   2.182   5.994  2.0550 -0.7419 -0.6775
  276MOL0     H36387   6.812   2.051   5.889 -1.5882  1.8539  0.8948
  276MOL0     H36388   7.035   1.958   5.908  2.7010  1.5676 -1.4054
  276MOL0     H36389   7.078   2.078   6.031  0.9616 -0.5882 -0.1269
  276MOL0     H36390   7.036   2.268   5.872  1.1143 -0.6499  3.7126
  276MOL0     H36391   7.171   2.167   5.834  1.0210  1.8957 -1.7186
  276MOL0     H36392   6.900   2.173   5.691 -0.5761 -0.1093  0.1796
  276MOL0     H36393   7.006   2.034   5.681  0.5534 -0.5278  0.2958
  276MOL0     H36394   7.317   2.300   5.659  0.1340 -0.4515 -0.1006
  276MOL0     H36395   7.375   2.530   5.703  1.0749  0.2607 -0.9444
  276MOL0     H36396   7.344   2.926   5.464  0.5719 -1.7342  0.4215
  276MOL0     H36397   7.398   3.190   5.429 -3.0615  1.5744 -0.1323
  276MOL0     H36398   7.397   3.402   5.481 -0.3207  0.1828  0.8068
  276MOL0     H36399   7.573   3.370   5.474  0.9159  2.6279 -0.8154
  276MOL0     H36400   7.606   3.556   5.641  0.4696 -1.1337 -0.0030
  276MOL0     H36401   7.445   3.611   5.597 -1.1799 -2.0861 -1.3945
  276MOL0     H36402   7.534   3.606   5.353 -1.0039  2.0129  1.1432
  276MOL0     H36403   7.689   3.567   5.414  1.7912 -0.8012  4.4714
  276MOL0     H36404   7.530   3.826   5.467 -1.2559 -3.0920 -4.6963
  276MOL0     H36405   7.650   3.775   5.578 -1.1645 -1.3791  0.8362
  276MOL0     H36406   7.821   3.788   5.383  0.6197  0.4938  3.4663
  276MOL0     H36407   7.727   3.946   5.397 -0.5438  0.5132 -3.0234
  276MOL0     H36408   7.568   3.868   5.229  1.2401  1.4959  2.3239
  276MOL0     H36409   7.654   3.717   5.206 -2.7942 -0.0393  0.5509
  276MOL0     H36410   7.797   3.967   5.173  1.0452  0.0152  0.8754
  276MOL0     H36411   7.836   3.812   5.093 -1.0296 -0.1002  1.2565
  276MOL0     H36412   7.750   3.970   4.940  0.7068 -1.4107 -1.5230
  276MOL0     H36413   7.589   3.978   5.019 -1.4655 -1.3004 -3.0607
  276MOL0     H36414   7.486   3.201   5.844  1.9410  2.6545 -2.2313
  276MOL0     H36415   7.403   2.963   5.880 -0.7451  1.2969  0.0082
  276MOL0     H36416   6.963   2.632   5.596 -2.2094 -3.1722 -3.0353
  276MOL0     H36417   6.916   2.410   5.591  0.7945 -0.5693  0.1817
  276MOL0     H36418   5.818   2.040   5.631  0.9838 -1.0243  1.2551
  276MOL0     H36419   5.753   2.087   5.400  0.5747 -1.2695 -2.6306
  276MOL0     H36420   5.760   2.221   5.102 -1.2585  3.2895 -0.7379
  276MOL0     H36421   5.721   2.382   4.946  1.1332  0.2216 -0.9312
  276MOL0     H36422   5.726   2.272   4.500 -0.3167  0.2355 -1.0614
  276MOL0     H36423   5.893   2.290   4.555  2.1267  1.7872  1.6991
  276MOL0     H36424   5.859   2.442   4.366  0.4754 -1.7557  0.3597
  276MOL0     H36425   5.711   2.510   4.455  0.0174  1.1270  3.3856
  276MOL0     H36426   6.000   2.517   4.514  0.6155  0.7359 -1.8384
  276MOL0     H36427   5.887   2.537   4.650  1.5670 -2.9051 -0.8600
  276MOL0     H36428   5.941   2.736   4.418 -3.4673  3.0299 -0.9923
  276MOL0     H36429   5.806   2.743   4.534  1.1979  2.7725 -2.0582
  276MOL0     H36430   6.156   2.858   4.749  0.7033  0.5487 -1.5075
  276MOL0     H36431   5.843   2.103   4.633  1.5125 -2.1357  0.7181
  276MOL0     H36432   5.928   1.954   4.796  1.2502  1.7857 -2.0872
  277MOL0     O36433   8.436   1.823   6.166  0.1621 -0.2503 -1.2154
  277MOL0     C36434   8.361   1.755   6.238  0.0511  0.5834  0.2580
  277MOL0     O36435   8.373   1.712   6.367  0.3869 -0.0390  0.6513
  277MOL0     C36436   8.461   1.771   6.449  0.7801  1.2063 -0.5213
  277MOL0     C36437   8.412   1.773   6.576 -0.9341 -0.0307 -0.4150
  277MOL0     C36438   8.485   1.835   6.672 -0.0380  0.4350 -0.3797
  277MOL0     C36439   8.609   1.890   6.646 -0.8584  0.0593 -0.8276
  277MOL0     O36440   8.674   1.954   6.749 -1.0089 -0.2286  0.1119
  277MOL0     C36441   8.794   2.006   6.709  0.0276 -0.5138 -1.5011
  277MOL0     C36442   8.874   2.069   6.826 -0.3309 -0.5100 -0.6434
  277MOL0     C36443   8.911   1.945   6.915  0.7101  0.0427 -0.1596
  277MOL0     C36444   9.014   1.970   7.017 -0.3411  0.5152  0.4423
  277MOL0     C36445   9.048   1.836   7.094  0.5648 -0.7966 -0.1247
  277MOL0     C36446   9.192   1.852   7.148  0.4883 -0.9526 -0.0791
  277MOL0     C36447   9.301   1.848   7.042 -0.5709 -0.7127 -0.0415
  277MOL0     C36448   9.445   1.801   7.081  1.4438 -0.2041 -0.8789
  277MOL0     N36449   9.471   1.653   7.088  0.3590 -0.4061  0.1350
  277MOL0     C36450   9.396   1.551   7.042  0.8268  0.1253  0.3518
  277MOL0     C36451   9.461   1.435   7.075  0.5955 -0.2474 -0.3063
  277MOL0     C36452   9.421   1.295   7.044  0.0827  0.4200  0.1621
  277MOL0     C36453   9.277   1.264   7.087  0.0409  0.3313 -0.4121
  277MOL0     C36454   9.249   1.293   7.232 -0.6810 -0.1408 -0.5212
  277MOL0     C36455   9.092   1.304   7.244 -1.1917 -0.7099 -0.4819
  277MOL0     O36456   9.067   1.402   7.346 -0.3248  0.0360  0.1501
  277MOL0     C36457   8.936   1.439   7.363  0.4623 -0.5398  0.0114
  277MOL0     C36458   8.833   1.348   7.338  0.1872  0.1138  0.4691
  277MOL0     C36459   8.699   1.392   7.343  0.3963 -0.3422  0.1495
  277MOL0     C36460   8.667   1.527   7.372 -0.1556 -0.2180  0.2732
  277MOL0     C36461   8.528   1.585   7.389  0.7558  0.2589  0.6178
  277MOL0     O36462   8.506   1.715   7.430  0.9525  0.4223 -0.1919
  277MOL0     C36463   8.380   1.755   7.399  0.0276  0.4605 -0.6127
  277MOL0     C36464   8.347   1.815   7.276 -0.1287 -0.5875 -0.7748
  277MOL0     C36465   8.229   1.882   7.248  0.2196  0.0952  0.9895
  277MOL0     C36466   8.136   1.886   7.359 -0.6141 -0.5419  0.0918
  277MOL0     O36467   8.013   1.945   7.357 -0.7270  0.2772  0.4627
  277MOL0     C36468   7.985   2.036   7.238  0.9170  0.1297 -0.8413
  277MOL0     C36469   7.857   2.105   7.262  0.4723  0.7605 -0.3701
  277MOL0     C36470   7.803   2.187   7.140  0.1117 -0.2963 -0.5532
  277MOL0     C36471   7.771   2.119   7.007  0.2537  0.0295  0.0730
  277MOL0     C36472   7.702   2.229   6.918  0.0868 -0.1647 -0.0022
  277MOL0     C36473   7.621   2.166   6.801  0.5589 -0.1100 -0.0289
  277MOL0     C36474   7.566   2.279   6.708  0.3680 -0.1241  0.6404
  277MOL0     C36475   7.472   2.223   6.603  0.1181  0.7490  1.0885
  277MOL0    Cl36476   7.576   2.131   6.492  0.2091 -0.1212 -0.1200
  277MOL0     C36477   8.159   1.819   7.482 -0.7362 -0.0171  0.5588
  277MOL0     C36478   8.289   1.757   7.505  1.0316  0.3419  0.0172
  277MOL0     O36479   8.440   1.505   7.352  0.3441 -0.1553 -1.1388
  277MOL0     C36480   8.774   1.613   7.385  0.4568 -0.1616 -0.6931
  277MOL0     C36481   8.904   1.570   7.386 -1.0088  0.3991 -0.3780
  277MOL0     N36482   9.589   1.471   7.120  0.0983 -0.0001 -0.2830
  277MOL0     N36483   9.588   1.595   7.133 -0.1557 -0.8216  0.3424
  277MOL0     C36484   8.655   1.890   6.514 -0.3239 -0.1851  0.0347
  277MOL0     C36485   8.586   1.814   6.427 -0.2940  0.0581  0.7091
  277MOL0     C36486   8.230   1.744   6.179  0.6648 -1.0225  0.1920
  277MOL0     C36487   8.192   1.843   6.076 -0.4753  0.2512 -0.0190
  277MOL0     C36488   8.062   1.850   6.022 -0.9047  0.0516  0.0921
  277MOL0     C36489   7.961   1.766   6.075  0.5269 -0.7425  0.5897
  277MOL0     O36490   7.842   1.760   6.002  0.3887  0.3940 -0.4464
  277MOL0     C36491   7.723   1.777   6.085  0.0676  0.6486 -0.2618
  277MOL0     C36492   7.663   1.909   6.044 -0.6502 -0.5795 -0.8872
  277MOL0     C36493   7.606   1.906   5.904 -0.0993  0.6209 -0.3334
  277MOL0     C36494   7.572   2.038   5.858  0.6684 -0.2325  1.8498
  277MOL0     C36495   7.500   2.047   5.725 -0.2542  1.2706 -0.0092
  277MOL0     C36496   7.460   2.057   5.613  0.1457 -0.7226  0.7576
  277MOL0     C36497   7.991   1.680   6.182 -0.4487 -0.3628 -0.6435
  277MOL0     C36498   8.125   1.678   6.235  0.1693  0.3183 -0.4939
  277MOL0     H36499   8.314   1.734   6.600 -1.7510  1.5108 -1.1613
  277MOL0     H36500   8.442   1.821   6.771  2.8139 -3.1388  0.5882
  277MOL0     H36501   8.785   2.089   6.638 -0.7022  0.0241 -0.8040
  277MOL0     H36502   8.852   1.920   6.675  2.2072  0.3241 -0.1406
  277MOL0     H36503   8.805   2.130   6.885 -0.7011 -0.8644 -0.6996
  277MOL0     H36504   8.958   2.134   6.800 -0.5040  0.2109  0.5679
  277MOL0     H36505   8.954   1.870   6.848 -2.0788 -2.4949  0.6785
  277MOL0     H36506   8.819   1.901   6.956  0.1250  1.0959 -0.3109
  277MOL0     H36507   9.101   2.001   6.960 -1.4628  2.7423 -0.1770
  277MOL0     H36508   8.989   2.042   7.096 -2.0034 -0.8826  1.2868
  277MOL0     H36509   9.045   1.753   7.023  0.9812 -0.5001 -0.4892
  277MOL0     H36510   8.966   1.814   7.163 -0.2293 -0.9996 -1.1047
  277MOL0     H36511   9.211   1.768   7.216  0.7644 -0.4311  0.5022
  277MOL0     H36512   9.188   1.948   7.199  0.2455 -1.3623  0.6972
  277MOL0     H36513   9.271   1.790   6.954  1.3001 -2.3887  0.3663
  277MOL0     H36514   9.299   1.948   6.997 -0.7779 -1.0877 -0.8792
  277MOL0     H36515   9.483   1.850   7.172  1.3146 -0.4561 -0.6869
  277MOL0     H36516   9.512   1.837   7.002 -0.3631 -0.3812 -2.5480
  277MOL0     H36517   9.298   1.542   6.997  2.0545 -3.6443 -2.1243
  277MOL0     H36518   9.493   1.221   7.080 -1.2122 -2.2670 -2.2808
  277MOL0     H36519   9.421   1.278   6.936  3.2294 -1.9341  0.4199
  277MOL0     H36520   9.269   1.156   7.071 -0.7731  0.2825  0.2425
  277MOL0     H36521   9.212   1.321   7.021 -0.6076 -1.9542 -1.8417
  277MOL0     H36522   9.297   1.223   7.301  1.9035 -0.1998 -2.2291
  277MOL0     H36523   9.291   1.388   7.267 -2.0081  0.4829 -0.5806
  277MOL0     H36524   9.058   1.209   7.287 -3.2044  0.3247  0.3465
  277MOL0     H36525   9.041   1.323   7.149 -0.4040 -0.6147 -0.8897
  277MOL0     H36526   8.856   1.247   7.306 -0.1857  1.1345 -3.6271
  277MOL0     H36527   8.613   1.331   7.318  1.4737 -0.9384 -2.3765
  277MOL0     H36528   8.419   1.816   7.194 -0.6047 -0.0384 -1.1986
  277MOL0     H36529   8.208   1.931   7.153  0.8627  2.1167  1.8307
  277MOL0     H36530   7.971   1.970   7.152  2.2589 -2.7502  1.0093
  277MOL0     H36531   8.062   2.112   7.223  1.7154 -0.2014  1.2439
  277MOL0     H36532   7.868   2.182   7.338 -3.2920  0.0901  1.0893
  277MOL0     H36533   7.777   2.034   7.285  0.5893 -0.1603 -2.5150
  277MOL0     H36534   7.872   2.266   7.109  0.5747 -0.2658  0.5018
  277MOL0     H36535   7.722   2.246   7.182  0.1638 -1.1539  0.8236
  277MOL0     H36536   7.860   2.077   6.960 -0.9748 -1.1655 -1.2833
  277MOL0     H36537   7.701   2.036   7.017 -1.7525  1.6246 -0.1248
  277MOL0     H36538   7.786   2.290   6.884  0.2993  0.1362  1.0327
  277MOL0     H36539   7.631   2.293   6.970 -4.7251 -4.5891 -0.3536
  277MOL0     H36540   7.533   2.115   6.839  2.5857 -3.9863 -0.0520
  277MOL0     H36541   7.676   2.089   6.747 -1.2958 -2.7285  1.6007
  277MOL0     H36542   7.505   2.345   6.771 -0.7571  0.4377 -0.9680
  277MOL0     H36543   7.638   2.346   6.661 -0.8391 -0.3348 -1.6260
  277MOL0     H36544   7.420   2.301   6.546 -0.2567  0.9114  1.6451
  277MOL0     H36545   7.385   2.161   6.629  0.0483 -2.1634 -4.4214
  277MOL0     H36546   8.082   1.844   7.555  0.4023  0.2260  1.7097
  277MOL0     H36547   8.317   1.706   7.597 -2.8049 -3.8823 -0.8216
  277MOL0     H36548   8.765   1.719   7.404 -1.8020 -0.1375 -1.5774
  277MOL0     H36549   8.986   1.641   7.391  1.4040 -2.1376 -1.3655
  277MOL0     H36550   8.746   1.939   6.479 -1.6638  2.6354  0.2685
  277MOL0     H36551   8.630   1.792   6.331 -0.8856  1.3587  0.1139
  277MOL0     H36552   8.263   1.917   6.039  0.8406 -0.7743  0.3922
  277MOL0     H36553   8.046   1.909   5.932  3.4293 -1.0864 -1.7100
  277MOL0     H36554   7.742   1.775   6.193  0.1408  0.7573 -0.2723
  277MOL0     H36555   7.658   1.696   6.052  0.1110  0.0443  1.0651
  277MOL0     H36556   7.582   1.928   6.115  1.6548  0.4586  1.6756
  277MOL0     H36557   7.734   1.988   6.071 -2.0550  0.7057 -0.8058
  277MOL0     H36558   7.510   1.852   5.906 -0.9980  2.0652 -1.7665
  277MOL0     H36559   7.675   1.864   5.831 -1.1636 -4.0960  1.0262
  277MOL0     H36560   7.508   2.079   5.937 -1.1258 -0.6318  0.6492
  277MOL0     H36561   7.658   2.105   5.856 -1.5151  2.7740 -0.0980
  277MOL0     H36562   7.433   2.071   5.510  1.5414 -0.8811  0.3462
  277MOL0     H36563   7.919   1.622   6.239 -0.9795  2.1119  1.3667
  277MOL0     H36564   8.147   1.620   6.324  0.2869  0.2646 -0.5574
  278MOL0     O36565   1.978   2.432   1.070  0.6020 -0.3712 -0.6323
  278MOL0     C36566   1.900   2.459   1.162  0.7314  1.0799 -0.4400
  278MOL0     O36567   1.841   2.579   1.192 -0.7688 -0.5755 -0.6671
  278MOL0     C36568   1.843   2.687   1.106 -0.1644 -0.0116 -0.3855
  278MOL0     C36569   1.726   2.766   1.126  0.0306 -0.7128 -1.0272
  278MOL0     C36570   1.696   2.882   1.058 -0.0161 -0.1691 -0.3997
  278MOL0     C36571   1.787   2.916   0.954 -0.6597 -0.5587  0.1376
  278MOL0     O36572   1.756   3.026   0.881 -0.3970 -0.6000  0.1302
  278MOL0     C36573   1.797   3.024   0.743 -0.6756 -0.8780  0.2438
  278MOL0     C36574   1.904   3.132   0.746  0.4800 -0.0779  0.5655
  278MOL0     C36575   1.957   3.161   0.598 -0.0509 -0.7322 -0.3677
  278MOL0     C36576   2.061   3.278   0.601  0.6563  0.5515 -0.5812
  278MOL0     C36577   2.171   3.253   0.505 -0.0347  0.0983  0.2552
  278MOL0     C36578   2.283   3.361   0.490  0.6774 -0.7278  0.7775
  278MOL0     C36579   2.397   3.319   0.391 -0.0824  0.3158  0.1135
  278MOL0     C36580   2.528   3.393   0.417 -0.5763 -0.1673  0.2195
  278MOL0     N36581   2.635   3.380   0.315 -1.4425 -0.4313  0.1304
  278MOL0     C36582   2.745   3.298   0.328  0.1109  0.2317 -0.4759
  278MOL0     C36583   2.806   3.290   0.202  0.4068  0.4193 -0.3981
  278MOL0     C36584   2.933   3.216   0.184  0.0709 -0.5081  0.0625
  278MOL0     C36585   3.008   3.216   0.054  0.7918 -0.3416  0.0745
  278MOL0     C36586   3.123   3.123   0.032 -0.1543  0.4334  0.0449
  278MOL0     C36587   3.077   2.980   0.004  0.2147  0.4222 -0.4658
  278MOL0     O36588   3.106   2.913   0.125 -0.7641  0.2523 -0.0719
  278MOL0     C36589   3.146   2.780   0.120  1.0782  0.3371 -0.1168
  278MOL0     C36590   3.275   2.760   0.177 -0.4128  0.3979  0.1041
  278MOL0     C36591   3.330   2.634   0.188 -0.0643  0.4934  0.3345
  278MOL0     C36592   3.269   2.528   0.129  0.1450 -0.1998  0.3476
  278MOL0     C36593   3.341   2.394   0.130  0.6346  0.0273 -0.6374
  278MOL0     O36594   3.270   2.295   0.065  0.1554  0.2746  0.3780
  278MOL0     C36595   3.318   2.176   0.034 -0.2122  0.9445 -0.0695
  278MOL0     C36596   3.221   2.091  -0.025 -0.0853  0.4811 -0.2064
  278MOL0     C36597   3.245   1.963  -0.064 -0.7162 -0.5276 -1.0724
  278MOL0     C36598   3.367   1.911  -0.048 -0.5998  0.0752 -0.3386
  278MOL0     O36599   3.380   1.778  -0.082  0.0966  0.7796 -0.3226
  278MOL0     C36600   3.480   1.746  -0.190 -0.2690 -0.0748 -0.2674
  278MOL0     C36601   3.442   1.681  -0.325  0.4128  0.7230 -0.6378
  278MOL0     C36602   3.350   1.559  -0.314 -0.4589 -0.4903  0.2204
  278MOL0     C36603   3.392   1.456  -0.220  0.0990  0.3522 -0.3214
  278MOL0     C36604   3.289   1.343  -0.236 -0.0340 -0.3882 -1.0508
  278MOL0     C36605   3.315   1.213  -0.158  0.3015  0.3549  0.0398
  278MOL0     C36606   3.192   1.120  -0.172 -0.3661 -0.6548 -0.0985
  278MOL0     C36607   3.231   0.966  -0.159  0.4189 -0.9126 -0.7655
  278MOL0    Cl36608   3.104   0.872  -0.106 -0.5153  0.1417  0.1785
  278MOL0     C36609   3.471   1.993  -0.003  0.8446 -0.1973 -1.3200
  278MOL0     C36610   3.455   2.130   0.022 -0.2536 -0.9855 -0.5722
  278MOL0     O36611   3.460   2.399   0.161  0.9511  0.0801  0.6066
  278MOL0     C36612   3.138   2.547   0.068  0.1535  0.4453 -0.5367
  278MOL0     C36613   3.077   2.671   0.056 -0.9358 -0.1460 -0.0424
  278MOL0     N36614   2.728   3.370   0.118  0.0118 -0.1673  0.5251
  278MOL0     N36615   2.640   3.428   0.185  0.4484  0.1231 -0.3267
  278MOL0     C36616   1.899   2.837   0.929  0.6488  0.3833  0.5090
  278MOL0     C36617   1.933   2.728   1.004  0.1620  0.8474 -0.4733
  278MOL0     C36618   1.867   2.350   1.254 -0.6042  0.3193 -0.6445
  278MOL0     C36619   1.965   2.246   1.279 -0.6137 -0.0051  0.4446
  278MOL0     C36620   1.935   2.153   1.374  0.0520  0.3798 -0.2261
  278MOL0     C36621   1.803   2.151   1.436 -0.1163  0.4822 -0.3445
  278MOL0     O36622   1.782   2.053   1.534  0.2747 -0.2323  0.7700
  278MOL0     C36623   1.654   2.030   1.584  0.3306  0.2698 -0.1688
  278MOL0     C36624   1.639   1.904   1.670 -0.7176  0.5650  1.1058
  278MOL0     C36625   1.682   1.776   1.587  0.2842 -0.8453 -0.7599
  278MOL0     C36626   1.650   1.649   1.662 -0.2850  0.2072  0.5656
  278MOL0     C36627   1.722   1.623   1.790  0.3821  0.8119 -0.4532
  278MOL0     C36628   1.770   1.600   1.903 -0.1194  0.2644  0.6226
  278MOL0     C36629   1.718   2.244   1.406  1.0759  0.1358  0.2300
  278MOL0     C36630   1.744   2.340   1.317 -0.4183  0.6060 -0.5154
  278MOL0     H36631   1.671   2.745   1.217  0.3763 -1.8891 -1.0742
  278MOL0     H36632   1.607   2.942   1.075 -1.5666 -0.5058 -5.4999
  278MOL0     H36633   1.713   3.070   0.690 -0.5513 -1.1821 -0.2187
  278MOL0     H36634   1.815   2.932   0.687 -1.8191 -0.8538 -0.1913
  278MOL0     H36635   1.989   3.098   0.806  2.0438  2.7246  0.1049
  278MOL0     H36636   1.864   3.221   0.797 -1.1163  0.3773 -1.3591
  278MOL0     H36637   1.878   3.192   0.530 -0.1983  2.9668  1.2453
  278MOL0     H36638   2.002   3.074   0.549  2.7852  0.7036 -0.5322
  278MOL0     H36639   2.007   3.371   0.578 -3.0368 -1.8875 -3.0027
  278MOL0     H36640   2.122   3.282   0.691 -1.3638 -4.7269  1.4174
  278MOL0     H36641   2.119   3.238   0.410  1.9772  2.0590 -1.2578
  278MOL0     H36642   2.222   3.160   0.533  0.8826 -0.0716 -1.7713
  278MOL0     H36643   2.320   3.382   0.591 -2.2528  0.3716  1.7447
  278MOL0     H36644   2.236   3.455   0.460 -0.4684 -0.3503  3.4470
  278MOL0     H36645   2.418   3.212   0.403 -0.8722  0.2781  1.3728
  278MOL0     H36646   2.350   3.351   0.298 -0.0399  0.1001  0.0184
  278MOL0     H36647   2.569   3.351   0.509  2.7147 -2.2045 -1.9664
  278MOL0     H36648   2.496   3.497   0.422 -1.6633 -0.5211  0.8756
  278MOL0     H36649   2.763   3.253   0.425 -0.3169  2.0131  0.4908
  278MOL0     H36650   2.894   3.118   0.213 -1.7076 -1.2539 -4.0792
  278MOL0     H36651   3.002   3.256   0.259 -0.6667  3.5970 -1.1814
  278MOL0     H36652   3.042   3.320   0.044 -2.4044  0.6127 -2.8092
  278MOL0     H36653   2.937   3.194  -0.027 -1.0236 -0.9613  1.7660
  278MOL0     H36654   3.185   3.153  -0.053  0.1026  1.2706  0.5140
  278MOL0     H36655   3.194   3.123   0.115 -0.6409  1.1407  0.4697
  278MOL0     H36656   3.131   2.936  -0.080  0.0241  1.9627 -1.4413
  278MOL0     H36657   2.969   2.969  -0.004 -0.2670 -0.8522  4.5375
  278MOL0     H36658   3.333   2.844   0.214  3.6677 -1.0484 -2.3261
  278MOL0     H36659   3.431   2.630   0.227  0.5187 -1.3426 -1.2189
  278MOL0     H36660   3.123   2.131  -0.049  0.4299  0.4157 -2.6524
  278MOL0     H36661   3.162   1.902  -0.100 -0.3254 -1.8137  0.1191
  278MOL0     H36662   3.550   1.679  -0.139 -2.8724 -0.9543  2.3791
  278MOL0     H36663   3.537   1.835  -0.221  0.9474  0.0019  2.0026
  278MOL0     H36664   3.536   1.658  -0.377  0.8251  1.5258 -0.2624
  278MOL0     H36665   3.399   1.771  -0.370 -1.1984  1.0456  1.3666
  278MOL0     H36666   3.343   1.520  -0.416  2.2473 -2.5441  0.7085
  278MOL0     H36667   3.248   1.592  -0.295  0.0047  1.2364 -0.1084
  278MOL0     H36668   3.494   1.427  -0.249 -1.0419 -1.1707 -3.2158
  278MOL0     H36669   3.389   1.500  -0.120  1.9784  0.5231 -0.3078
  278MOL0     H36670   3.277   1.309  -0.339  0.0166 -1.4174 -0.7363
  278MOL0     H36671   3.191   1.390  -0.220 -0.7272 -1.2327 -2.5746
  278MOL0     H36672   3.332   1.236  -0.052 -4.2565  2.5750  0.5501
  278MOL0     H36673   3.410   1.168  -0.188  1.1672  2.8549 -1.2320
  278MOL0     H36674   3.124   1.141  -0.088 -0.7352  1.3371 -0.8465
  278MOL0     H36675   3.141   1.128  -0.268 -1.5892 -2.0038  0.3860
  278MOL0     H36676   3.313   0.957  -0.087 -0.8124 -3.0394  0.4625
  278MOL0     H36677   3.266   0.921  -0.252  2.1569  0.4881 -0.8565
  278MOL0     H36678   3.570   1.950   0.009 -0.3548 -2.5181  1.3586
  278MOL0     H36679   3.540   2.191   0.054 -2.0651  1.2115  0.3627
  278MOL0     H36680   3.083   2.468   0.018 -0.8699  0.1798  0.9193
  278MOL0     H36681   2.977   2.691   0.018 -0.4722  2.3801 -0.1084
  278MOL0     H36682   1.973   2.886   0.867 -0.0317  0.0604 -0.5828
  278MOL0     H36683   2.034   2.692   0.989 -0.3378 -0.9959  0.3404
  278MOL0     H36684   2.059   2.246   1.225 -0.6029  5.3020 -0.1193
  278MOL0     H36685   2.008   2.075   1.396 -0.8505 -0.4087  0.0258
  278MOL0     H36686   1.587   2.026   1.498  1.6530  0.4320 -1.2331
  278MOL0     H36687   1.624   2.119   1.641  1.7181 -0.0444  1.1126
  278MOL0     H36688   1.706   1.905   1.757 -0.3059 -1.8923  0.9116
  278MOL0     H36689   1.543   1.884   1.717  0.9930 -1.0700  4.2795
  278MOL0     H36690   1.790   1.789   1.574  0.3836 -2.1558 -1.4496
  278MOL0     H36691   1.629   1.771   1.492 -0.3634  1.8918 -0.6030
  278MOL0     H36692   1.543   1.646   1.688 -0.0454 -2.2932  1.5638
  278MOL0     H36693   1.676   1.573   1.588 -1.8118 -0.1948  0.3970
  278MOL0     H36694   1.817   1.590   1.998  2.3971 -1.6464 -0.6996
  278MOL0     H36695   1.628   2.253   1.466  0.1114 -0.7394 -1.0440
  278MOL0     H36696   1.664   2.410   1.296  0.1065  1.4286  0.1658
  279MOL0     O36697   1.824   5.662   9.058  0.3343  0.3023 -0.1533
  279MOL0     C36698   1.805   5.781   9.020  0.5007  0.3666 -0.6847
  279MOL0     O36699   1.692   5.821   8.939 -0.0984  0.2477 -0.6146
  279MOL0     C36700   1.658   5.949   8.905 -0.6326 -0.1380  1.3485
  279MOL0     C36701   1.659   6.067   8.970 -0.4714  0.8400 -0.4500
  279MOL0     C36702   1.616   6.187   8.910 -0.5734 -0.4223 -0.4503
  279MOL0     C36703   1.584   6.188   8.770 -0.4700  0.5151 -0.6995
  279MOL0     O36704   1.555   6.299   8.697 -0.2526 -0.0331 -0.9782
  279MOL0     C36705   1.625   6.418   8.728 -0.5961  0.8384 -1.3178
  279MOL0     C36706   1.600   6.518   8.620  0.4606  0.1135 -0.0145
  279MOL0     C36707   1.668   6.656   8.637  0.2387 -0.7063  0.2847
  279MOL0     C36708   1.607   6.765   8.553  0.0662  0.0120 -0.1654
  279MOL0     C36709   1.713   6.880   8.538 -1.0356  0.9667 -1.0176
  279MOL0     C36710   1.824   6.848   8.425  0.6998  0.2249 -0.0947
  279MOL0     C36711   1.794   6.940   8.300 -0.5925 -0.2205  0.0416
  279MOL0     C36712   1.686   6.874   8.203 -0.1928  0.0920 -0.0370
  279MOL0     N36713   1.653   6.954   8.078  0.4177  0.2699  0.1344
  279MOL0     C36714   1.587   7.074   8.078 -0.1599 -0.9032  0.2038
  279MOL0     C36715   1.586   7.101   7.943  0.4952 -0.7834 -0.3928
  279MOL0     C36716   1.543   7.231   7.876  0.4823 -0.2439  0.1414
  279MOL0     C36717   1.645   7.343   7.923 -0.1031  0.6944 -0.8140
  279MOL0     C36718   1.645   7.470   7.841  0.9918  0.0803 -0.3878
  279MOL0     C36719   1.716   7.583   7.919  0.5093 -0.1242  0.1106
  279MOL0     O36720   1.865   7.573   7.919 -0.7907  0.2761 -0.2667
  279MOL0     C36721   1.936   7.678   7.971 -0.1624  0.5429  0.4249
  279MOL0     C36722   2.075   7.656   7.980  0.7359  0.6585  0.0766
  279MOL0     C36723   2.161   7.761   8.012 -0.6494  0.5006  0.1221
  279MOL0     C36724   2.111   7.886   8.054 -0.6029 -0.1672  0.0718
  279MOL0     C36725   2.204   7.991   8.107 -0.8082 -0.5994  0.8414
  279MOL0     O36726   2.145   8.077   8.195 -0.2873 -0.7108  0.5630
  279MOL0     C36727   2.205   8.196   8.218 -0.0562  0.1933 -0.9851
  279MOL0     C36728   2.161   8.309   8.150 -0.1213  0.7043 -0.8452
  279MOL0     C36729   2.219   8.430   8.182 -0.0070 -0.8821 -0.2825
  279MOL0     C36730   2.317   8.451   8.281 -0.5675 -0.1981 -0.1777
  279MOL0     O36731   2.352   8.584   8.311 -1.1834  0.1120 -0.0882
  279MOL0     C36732   2.419   8.615   8.430 -0.3421  0.1038 -1.4677
  279MOL0     C36733   2.489   8.745   8.398  0.2753 -0.4119  0.1335
  279MOL0     C36734   2.521   8.834   8.529  0.1855 -0.9880  0.8976
  279MOL0     C36735   2.571   8.979   8.501 -0.0697 -0.6390 -0.7535
  279MOL0     C36736   2.626   9.030   8.633 -0.4319 -0.4296  0.1308
  279MOL0     C36737   2.676   9.169   8.620  1.1650 -0.1793  0.0924
  279MOL0     C36738   2.729   9.231   8.746 -0.4708  0.2953 -0.5514
  279MOL0     C36739   2.792   9.367   8.729  0.1574  0.1197  0.2209
  279MOL0    Cl36740   2.677   9.502   8.711  0.2466  0.1826 -0.3884
  279MOL0     C36741   2.361   8.339   8.346 -1.0978 -0.0376  0.2924
  279MOL0     C36742   2.313   8.209   8.312 -0.1131  0.5219 -0.6747
  279MOL0     O36743   2.322   7.999   8.052  1.1414  0.0889  0.0192
  279MOL0     C36744   1.972   7.903   8.068  0.4218 -0.1063 -0.8984
  279MOL0     C36745   1.887   7.798   8.024  0.3931 -0.3807 -0.3467
  279MOL0     N36746   1.662   7.001   7.873  0.3809  0.0522 -1.2065
  279MOL0     N36747   1.699   6.915   7.962 -0.1875 -0.1656  0.3908
  279MOL0     C36748   1.578   6.065   8.700  0.3482  0.4292 -0.0042
  279MOL0     C36749   1.617   5.946   8.773  0.8238  0.5599  1.1142
  279MOL0     C36750   1.899   5.884   9.054  0.1287  0.1386  0.3425
  279MOL0     C36751   1.905   5.929   9.189 -0.8626  0.8575 -0.0303
  279MOL0     C36752   1.980   6.042   9.228 -0.3954  0.7145  0.3177
  279MOL0     C36753   2.057   6.102   9.126  0.0708 -0.4148 -1.2552
  279MOL0     O36754   2.147   6.206   9.140  0.2400  0.3300 -0.9655
  279MOL0     C36755   2.190   6.233   9.276 -0.4461 -0.4563 -0.5931
  279MOL0     C36756   2.279   6.366   9.284  0.0953 -0.3781  0.0444
  279MOL0     C36757   2.423   6.354   9.237 -0.4089 -0.7038 -0.6297
  279MOL0     C36758   2.504   6.479   9.252  1.8825  0.0607  0.6036
  279MOL0     C36759   2.555   6.475   9.390 -0.8899 -0.1403  0.6846
  279MOL0     C36760   2.590   6.476   9.504 -0.3051  0.2243  0.6120
  279MOL0     C36761   2.057   6.056   8.990  0.2720  0.0182 -0.6768
  279MOL0     C36762   1.976   5.948   8.951 -0.0881  0.5951 -0.2591
  279MOL0     H36763   1.685   6.062   9.075 -0.1525 -0.1012 -0.5632
  279MOL0     H36764   1.623   6.283   8.961  1.6033 -0.4170 -0.6862
  279MOL0     H36765   1.733   6.401   8.733 -0.7318  0.1560 -0.3489
  279MOL0     H36766   1.600   6.465   8.824  2.7414  3.5572 -1.5893
  279MOL0     H36767   1.492   6.536   8.625 -0.1639 -1.7655 -3.5277
  279MOL0     H36768   1.632   6.475   8.525  2.9514  3.8180 -1.0780
  279MOL0     H36769   1.768   6.642   8.596  1.0841  0.7382  1.7442
  279MOL0     H36770   1.678   6.703   8.735 -1.2158 -0.3933  0.3001
  279MOL0     H36771   1.583   6.722   8.456 -2.9189  0.3371  0.3607
  279MOL0     H36772   1.510   6.796   8.592 -0.8107 -4.2767  1.6877
  279MOL0     H36773   1.753   6.900   8.638  1.1412 -0.9149 -1.4264
  279MOL0     H36774   1.676   6.982   8.522  2.3054  2.7745  1.4905
  279MOL0     H36775   1.798   6.746   8.395 -0.9103 -0.6807  3.6843
  279MOL0     H36776   1.924   6.841   8.469 -1.2141 -0.4662  4.7717
  279MOL0     H36777   1.769   7.041   8.336  2.6313 -0.0947  2.2714
  279MOL0     H36778   1.894   6.947   8.256 -0.8042  0.1649 -0.3920
  279MOL0     H36779   1.591   6.859   8.254 -0.0721  0.4636  0.2960
  279MOL0     H36780   1.720   6.775   8.171  3.1465  1.5181 -1.3768
  279MOL0     H36781   1.554   7.123   8.168  1.7329 -0.9547  0.9710
  279MOL0     H36782   1.438   7.261   7.886  0.8744  1.2689  0.0029
  279MOL0     H36783   1.560   7.213   7.769  1.2469 -1.1767  0.4073
  279MOL0     H36784   1.752   7.319   7.923 -0.3080 -0.3846  0.6409
  279MOL0     H36785   1.625   7.359   8.029  1.1888 -3.9517  0.4016
  279MOL0     H36786   1.705   7.456   7.751  1.5929 -3.4080  0.3922
  279MOL0     H36787   1.540   7.495   7.822  1.7155  2.1625 -2.0438
  279MOL0     H36788   1.669   7.594   8.017 -0.2280  0.3559 -0.2828
  279MOL0     H36789   1.700   7.676   7.864  1.5360  0.3443  0.5957
  279MOL0     H36790   2.102   7.555   7.950 -0.9209  0.0752  0.4408
  279MOL0     H36791   2.268   7.742   8.011 -0.7926 -0.9401  2.5361
  279MOL0     H36792   2.093   8.287   8.068 -0.3420 -0.8422 -0.2725
  279MOL0     H36793   2.185   8.517   8.127  2.1308  0.7738  0.8900
  279MOL0     H36794   2.489   8.537   8.464 -2.1873 -0.5792  1.0797
  279MOL0     H36795   2.355   8.631   8.517  0.9982  0.2873 -0.4703
  279MOL0     H36796   2.417   8.800   8.337 -0.0379 -3.1873 -2.2037
  279MOL0     H36797   2.572   8.741   8.328 -2.0780  2.3606 -3.1040
  279MOL0     H36798   2.592   8.779   8.591 -0.5162 -1.8809  0.9280
  279MOL0     H36799   2.433   8.833   8.593 -0.9074  0.1214 -0.5146
  279MOL0     H36800   2.642   8.985   8.419  1.2542 -1.7681  0.2543
  279MOL0     H36801   2.483   9.039   8.475 -2.3220 -2.8682  1.0572
  279MOL0     H36802   2.713   8.971   8.664  1.8359  3.5314  2.1053
  279MOL0     H36803   2.565   9.029   8.724  3.3552  0.3618  2.9297
  279MOL0     H36804   2.598   9.241   8.593  0.5254  0.5329  3.3888
  279MOL0     H36805   2.758   9.166   8.548  0.4840 -5.4516 -0.8395
  279MOL0     H36806   2.653   9.226   8.825  0.6157  1.1833  0.5793
  279MOL0     H36807   2.812   9.170   8.783 -0.4878  1.9505  2.4895
  279MOL0     H36808   2.864   9.376   8.647  0.2170  3.3691  0.4781
  279MOL0     H36809   2.842   9.376   8.826  3.2674 -1.6877 -1.0876
  279MOL0     H36810   2.442   8.335   8.419 -1.1227  0.3551  0.3430
  279MOL0     H36811   2.355   8.123   8.363  2.6322  1.2436 -1.5534
  279MOL0     H36812   1.925   7.988   8.115  0.3880 -0.3250 -0.5398
  279MOL0     H36813   1.780   7.811   8.030  0.5120  0.4960  0.0927
  279MOL0     H36814   1.533   6.062   8.601 -1.4723 -2.9491  0.7702
  279MOL0     H36815   1.610   5.851   8.720 -0.2762  0.1910  1.8965
  279MOL0     H36816   1.837   5.897   9.266  1.1757  0.4711  1.7042
  279MOL0     H36817   1.990   6.074   9.331 -2.2881  0.4226  0.6352
  279MOL0     H36818   2.244   6.157   9.333  0.5368  0.8635  0.3028
  279MOL0     H36819   2.103   6.256   9.338 -1.2040 -0.0513 -1.7932
  279MOL0     H36820   2.224   6.452   9.245 -1.8750 -0.0324  3.2396
  279MOL0     H36821   2.291   6.396   9.389  3.7529 -1.7373  0.1605
  279MOL0     H36822   2.433   6.310   9.137  0.3680 -1.1537 -0.3613
  279MOL0     H36823   2.484   6.283   9.295  0.5289 -0.2558 -1.0359
  279MOL0     H36824   2.573   6.465   9.168 -0.0321  0.8270 -1.1815
  279MOL0     H36825   2.434   6.561   9.231  2.2707  0.4866  0.9491
  279MOL0     H36826   2.635   6.475   9.601  1.3492 -2.3529 -0.0785
  279MOL0     H36827   2.115   6.119   8.924 -1.1863 -0.4529 -2.5165
  279MOL0     H36828   1.976   5.905   8.851  0.7645  0.0923 -0.0536
  280MOL0     O36829  10.805  11.378   5.133  0.4070 -0.0422 -1.0497
  280MOL0     C36830  10.711  11.394   5.048 -0.8285 -0.2270 -0.3798
  280MOL0     O36831  10.587  11.324   5.046 -0.7820 -0.3072  0.0895
  280MOL0     C36832  10.554  11.222   5.124  0.1881  0.9463  0.2061
  280MOL0     C36833  10.618  11.192   5.249  0.0824  0.2175 -0.5870
  280MOL0     C36834  10.591  11.075   5.308 -0.8268  0.7715 -1.1531
  280MOL0     C36835  10.495  10.986   5.258 -0.3750  0.1061  0.0414
  280MOL0     O36836  10.465  10.874   5.331 -0.9075  0.6767 -0.6181
  280MOL0     C36837  10.345  10.872   5.400  0.1338  0.3302  0.0751
  280MOL0     C36838  10.324  10.748   5.491  0.4998 -0.4862  0.0454
  280MOL0     C36839  10.360  10.620   5.407 -0.5639  0.4821 -0.9690
  280MOL0     C36840  10.337  10.479   5.472 -0.2166 -0.6673  0.4674
  280MOL0     C36841  10.370  10.368   5.382 -0.7536 -0.5841 -0.0971
  280MOL0     C36842  10.461  10.255   5.441 -0.7246 -0.4051  0.4561
  280MOL0     C36843  10.513  10.163   5.333  1.0781 -0.3447 -0.0833
  280MOL0     C36844  10.405  10.090   5.254  0.2326 -0.6014 -0.8573
  280MOL0     N36845  10.417   9.946   5.227  0.7976  0.4906  0.0164
  280MOL0     C36846  10.523   9.869   5.198  0.1858 -0.4125 -0.7796
  280MOL0     C36847  10.488   9.739   5.192 -0.1290  0.9283  0.4134
  280MOL0     C36848  10.579   9.615   5.174 -0.1115 -0.2341  1.0510
  280MOL0     C36849  10.641   9.590   5.034  0.1532 -1.3369  0.9683
  280MOL0     C36850  10.545   9.546   4.918  0.0385  0.2913 -0.6697
  280MOL0     C36851  10.591   9.561   4.778  0.2043  0.1354 -0.1873
  280MOL0     O36852  10.575   9.703   4.752  0.1002  0.1660 -0.2891
  280MOL0     C36853  10.580   9.740   4.624 -0.5167 -0.3741  0.6418
  280MOL0     C36854  10.686   9.698   4.547 -0.1465  0.4057 -0.3780
  280MOL0     C36855  10.706   9.736   4.411  0.4084 -0.4097 -0.5742
  280MOL0     C36856  10.613   9.826   4.357 -0.5783 -0.2652  0.5531
  280MOL0     C36857  10.629   9.885   4.220 -0.1791 -1.0789  0.1890
  280MOL0     O36858  10.736   9.854   4.140 -0.2198 -0.4573 -0.5197
  280MOL0     C36859  10.750   9.896   4.011 -0.2892  0.3454  0.4976
  280MOL0     C36860  10.877   9.932   3.954 -0.1731  1.3367 -0.0340
  280MOL0     C36861  10.889   9.975   3.821 -0.0504  0.5467  0.2247
  280MOL0     C36862  10.777   9.978   3.736 -0.5242  0.0251  1.1599
  280MOL0     O36863  10.805  10.032   3.612  0.4799  0.6853 -0.5168
  280MOL0     C36864  10.693  10.053   3.518 -0.4126 -0.7633  0.3812
  280MOL0     C36865  10.740  10.093   3.380 -0.1940 -0.3503 -0.4335
  280MOL0     C36866  10.787  10.244   3.389  0.0203 -0.7641  0.3474
  280MOL0     C36867  10.855  10.292   3.258  0.2616  1.1098  0.7922
  280MOL0     C36868  10.754  10.291   3.133 -0.1381  0.1234 -0.9221
  280MOL0     C36869  10.611  10.340   3.151 -0.2144  0.4554 -0.1410
  280MOL0     C36870  10.529  10.303   3.030  0.4153  0.3109  0.0345
  280MOL0     C36871  10.493  10.149   3.040 -0.1114  1.2516  0.3311
  280MOL0    Cl36872  10.382  10.104   3.179 -0.0381 -0.2586  0.4580
  280MOL0     C36873  10.651   9.932   3.788 -0.2606  0.1250  0.2142
  280MOL0     C36874  10.637   9.891   3.922 -0.9610 -1.2707  0.7823
  280MOL0     O36875  10.544   9.976   4.192 -0.8185 -0.2318  0.1126
  280MOL0     C36876  10.499   9.856   4.434 -0.4082  0.6487 -0.8277
  280MOL0     C36877  10.481   9.813   4.562  0.9539  0.6049 -0.7048
  280MOL0     N36878  10.350   9.739   5.224 -0.4721 -0.6277 -0.2017
  280MOL0     N36879  10.311   9.861   5.248 -0.5370 -0.3392 -0.0808
  280MOL0     C36880  10.431  11.015   5.142 -0.7006 -0.2559 -0.7457
  280MOL0     C36881  10.456  11.134   5.074 -0.0346  0.6031  0.1084
  280MOL0     C36882  10.736  11.519   4.960 -0.3912  0.2715 -0.9579
  280MOL0     C36883  10.624  11.587   4.902 -0.5921 -1.0309  0.1131
  280MOL0     C36884  10.651  11.688   4.810  0.0101  0.5785  0.2342
  280MOL0     C36885  10.778  11.739   4.791  0.2603 -0.0499  0.1792
  280MOL0     O36886  10.791  11.836   4.689 -0.4566 -0.0898 -0.9799
  280MOL0     C36887  10.889  11.942   4.706  1.3604  0.1969  0.7249
  280MOL0     C36888  10.916  12.010   4.571 -0.5771 -0.2689 -0.3504
  280MOL0     C36889  11.019  11.929   4.479 -0.0732 -0.7592  1.2759
  280MOL0     C36890  10.987  11.781   4.447 -0.1814 -0.2103  0.0609
  280MOL0     C36891  11.101  11.723   4.372 -0.3891 -0.4485  0.2671
  280MOL0     C36892  11.175  11.669   4.297 -0.0285  0.1018  1.1843
  280MOL0     C36893  10.885  11.680   4.850 -0.2680  0.0290  0.2513
  280MOL0     C36894  10.871  11.569   4.935 -0.1347  0.6458  0.6612
  280MOL0     H36895  10.684  11.256   5.308 -0.7956 -1.0709  1.9510
  280MOL0     H36896  10.635  11.053   5.406 -0.5293 -0.1749 -1.4811
  280MOL0     H36897  10.261  10.865   5.330 -0.4995 -0.5641  0.8990
  280MOL0     H36898  10.339  10.968   5.452  0.2248 -0.1075  0.9183
  280MOL0     H36899  10.225  10.754   5.539 -0.1418  1.0459 -1.3859
  280MOL0     H36900  10.394  10.758   5.575 -0.0726  1.4843  0.3498
  280MOL0     H36901  10.467  10.631   5.389 -0.6262  2.0974 -0.5255
  280MOL0     H36902  10.308  10.614   5.311 -1.5623 -3.0998 -0.3678
  280MOL0     H36903  10.399  10.461   5.561  0.9205 -2.3692 -0.6189
  280MOL0     H36904  10.232  10.468   5.500 -0.5891 -1.4384 -1.1451
  280MOL0     H36905  10.413  10.406   5.288  0.1837 -2.0244 -0.2848
  280MOL0     H36906  10.279  10.320   5.345 -2.1605  1.1409  0.9630
  280MOL0     H36907  10.427  10.193   5.524  0.4780  1.7880  2.7265
  280MOL0     H36908  10.552  10.304   5.477 -0.0424 -0.7661 -0.6977
  280MOL0     H36909  10.582  10.218   5.269  0.5787 -1.2156 -1.3986
  280MOL0     H36910  10.573  10.087   5.384  1.0846 -0.9685 -0.9933
  280MOL0     H36911  10.393  10.138   5.156 -0.5445 -0.3124 -0.6261
  280MOL0     H36912  10.313  10.105   5.312  1.8210 -0.4756  1.7430
  280MOL0     H36913  10.623   9.910   5.187  0.9616 -2.1210 -0.4821
  280MOL0     H36914  10.527   9.525   5.207 -0.3268 -1.5275 -2.4450
  280MOL0     H36915  10.655   9.620   5.252 -1.8690  1.7702  2.7552
  280MOL0     H36916  10.714   9.510   5.051 -0.4492 -1.7770  1.5547
  280MOL0     H36917  10.698   9.673   4.992  0.7063 -0.8880  2.5531
  280MOL0     H36918  10.514   9.441   4.921  2.2931 -0.4985 -2.2419
  280MOL0     H36919  10.456   9.608   4.934 -1.5618 -2.2547  0.9998
  280MOL0     H36920  10.530   9.502   4.709  0.3527 -0.9188  0.5668
  280MOL0     H36921  10.697   9.532   4.775  0.5293  1.1471  0.6910
  280MOL0     H36922  10.761   9.630   4.584 -3.1635 -2.3087  1.2175
  280MOL0     H36923  10.795   9.697   4.363  0.6056 -1.1159  0.3469
  280MOL0     H36924  10.964   9.936   4.019  0.3373  1.1174 -0.6878
  280MOL0     H36925  10.977  10.025   3.780 -0.6065  0.8832 -0.5884
  280MOL0     H36926  10.635  10.138   3.557  0.2982 -0.5129  0.9210
  280MOL0     H36927  10.630   9.965   3.502  0.1765 -2.1991  4.5652
  280MOL0     H36928  10.662  10.083   3.304  2.8887 -1.0959 -3.7860
  280MOL0     H36929  10.824  10.032   3.348  1.0012  1.1987 -0.3430
  280MOL0     H36930  10.859  10.261   3.470  1.5755 -0.0809 -1.1175
  280MOL0     H36931  10.703  10.310   3.411 -1.3426 -0.8077 -3.9041
  280MOL0     H36932  10.882  10.397   3.277 -0.9934  1.6649 -0.3038
  280MOL0     H36933  10.940  10.226   3.238 -1.0647  0.4588 -3.8611
  280MOL0     H36934  10.756  10.188   3.096 -0.9514 -0.6502  1.0628
  280MOL0     H36935  10.807  10.357   3.064  1.0599 -1.4774 -1.6012
  280MOL0     H36936  10.608  10.448   3.172 -1.6973  0.8257 -2.0178
  280MOL0     H36937  10.564  10.302   3.243 -1.5771 -1.6617 -1.6218
  280MOL0     H36938  10.431  10.349   3.020 -0.3790 -1.3650 -0.3464
  280MOL0     H36939  10.594  10.318   2.943 -1.2534  1.4333 -1.0510
  280MOL0     H36940  10.583  10.086   3.046  0.4043  2.0701  1.6089
  280MOL0     H36941  10.429  10.125   2.954 -1.4852  0.1663  1.6239
  280MOL0     H36942  10.565   9.926   3.722 -0.1317  3.1570 -0.3773
  280MOL0     H36943  10.539   9.865   3.959 -1.1761 -1.6334 -0.0251
  280MOL0     H36944  10.426   9.931   4.405 -1.1516  0.3464  0.1838
  280MOL0     H36945  10.392   9.837   4.620  0.2140 -3.1245 -0.0627
  280MOL0     H36946  10.357  10.951   5.093 -1.7983 -2.2669  3.1703
  280MOL0     H36947  10.407  11.149   4.979 -2.9985 -1.2094  1.2208
  280MOL0     H36948  10.520  11.564   4.924 -0.2985 -0.6998  1.9458
  280MOL0     H36949  10.568  11.731   4.754  0.7945  2.5813  0.5409
  280MOL0     H36950  10.987  11.900   4.730  1.7098 -0.7074 -1.9000
  280MOL0     H36951  10.860  12.013   4.783  1.4852 -1.0783  1.9858
  280MOL0     H36952  10.824  12.041   4.521 -0.7666 -0.6139 -0.2258
  280MOL0     H36953  10.967  12.104   4.594 -0.5620 -1.0712  3.6437
  280MOL0     H36954  11.108  11.932   4.542 -0.6477  2.7811  2.1195
  280MOL0     H36955  11.029  11.973   4.379 -0.2155 -1.7092  0.8374
  280MOL0     H36956  10.981  11.724   4.540  3.4754 -0.7260  0.1147
  280MOL0     H36957  10.890  11.756   4.403 -0.5671  0.5092  0.4875
  280MOL0     H36958  11.240  11.615   4.231  1.1576 -0.2645  2.6146
  280MOL0     H36959  10.986  11.698   4.816 -0.0849 -0.3890  0.5652
  280MOL0     H36960  10.945  11.525   5.002 -2.1004 -0.7689  2.0012
  281MOL0     O36961   9.949   9.665   6.254  0.3323  0.9894 -0.7558
  281MOL0     C36962   9.867   9.624   6.326  0.5814  0.3531 -0.2830
  281MOL0     O36963   9.812   9.499   6.327  0.0039  0.7715 -0.3421
  281MOL0     C36964   9.879   9.399   6.253  0.2697  0.0092  0.1970
  281MOL0     C36965   9.799   9.292   6.217  0.5150  0.2080 -0.3045
  281MOL0     C36966   9.841   9.166   6.168 -0.5589  0.4966  0.6044
  281MOL0     C36967   9.979   9.153   6.151 -0.2235 -0.1365  0.8711
  281MOL0     O36968  10.035   9.040   6.106 -0.5049  0.3327 -0.5563
  281MOL0     C36969   9.975   8.961   6.004 -0.6035  0.3265 -0.2020
  281MOL0     C36970  10.070   8.832   6.006  0.5771  0.8718  0.1978
  281MOL0     C36971  10.008   8.706   5.935  0.7278 -0.2884 -0.9251
  281MOL0     C36972  10.081   8.577   5.969  1.4801 -0.0975  0.2297
  281MOL0     C36973  10.002   8.453   5.910 -0.1777 -0.1681  0.1806
  281MOL0     C36974  10.069   8.318   5.937 -0.9145  0.2734  0.4828
  281MOL0     C36975  10.013   8.208   5.845 -0.4226 -1.3458 -0.8906
  281MOL0     C36976  10.028   8.079   5.923 -0.8969  0.5554  0.3166
  281MOL0     N36977  10.169   8.030   5.907  1.1978  0.3290  0.4219
  281MOL0     C36978  10.211   7.910   5.843  0.0586  1.0428 -0.4033
  281MOL0     C36979  10.343   7.909   5.854 -0.5395  0.3772  0.5821
  281MOL0     C36980  10.448   7.809   5.796 -0.9046  1.3615  0.5805
  281MOL0     C36981  10.529   7.879   5.682  0.6536  0.1254 -0.0876
  281MOL0     C36982  10.662   7.923   5.734 -1.2841  0.0141  0.6461
  281MOL0     C36983  10.746   7.980   5.623 -0.2716 -0.3265  0.5933
  281MOL0     O36984  10.880   8.007   5.691 -0.7282 -0.2981  0.6395
  281MOL0     C36985  10.970   7.908   5.676 -0.4130  0.7633 -0.8987
  281MOL0     C36986  10.938   7.777   5.616  0.5940  0.1471  1.0365
  281MOL0     C36987  11.043   7.682   5.592 -0.1822 -0.1918  0.6516
  281MOL0     C36988  11.184   7.710   5.618  0.7157 -0.1124 -0.6409
  281MOL0     C36989  11.292   7.613   5.592 -1.1307 -0.3171 -0.6847
  281MOL0     O36990  11.418   7.645   5.646  0.2486 -0.5862  0.1597
  281MOL0     C36991  11.525   7.555   5.615  0.5875 -0.6399  0.6413
  281MOL0     C36992  11.525   7.414   5.620  0.4236 -0.5116  0.0769
  281MOL0     C36993  11.630   7.339   5.565  0.0570 -0.4613  0.8440
  281MOL0     C36994  11.738   7.408   5.504  0.9260  0.6513 -0.1351
  281MOL0     O36995  11.836   7.336   5.443  0.0081 -0.2361 -0.0771
  281MOL0     C36996  11.848   7.193   5.442  0.6646  0.4880  0.6107
  281MOL0     C36997  11.982   7.160   5.389  0.3616  0.3467  1.1514
  281MOL0     C36998  12.003   7.013   5.388 -0.3186  0.2277  0.0560
  281MOL0     C36999  12.132   6.999   5.295 -0.2861 -0.8954 -0.5219
  281MOL0     C37000  12.102   6.994   5.141  0.4936  0.9179 -0.5072
  281MOL0     C37001  12.229   7.029   5.064 -0.5650  0.5927  1.1380
  281MOL0     C37002  12.206   7.002   4.909  0.0719 -0.7077 -0.5815
  281MOL0     C37003  12.326   7.054   4.835  0.1240  0.6720 -0.3849
  281MOL0    Cl37004  12.326   6.980   4.673 -0.1522  0.2758  0.1416
  281MOL0     C37005  11.746   7.546   5.507  0.7033 -0.0045 -0.4869
  281MOL0     C37006  11.637   7.615   5.563  0.4040 -0.2569  0.7354
  281MOL0     O37007  11.276   7.510   5.524  0.2172 -0.5263  0.0712
  281MOL0     C37008  11.207   7.842   5.676 -0.2379 -0.0465  0.0540
  281MOL0     C37009  11.104   7.928   5.697  0.3672  0.5389 -0.5899
  281MOL0     N37010  10.382   8.023   5.917 -0.5122  0.4368 -0.5506
  281MOL0     N37011  10.277   8.093   5.948  0.1648  0.2758  0.3617
  281MOL0     C37012  10.067   9.252   6.190  0.3935  0.3078  0.3917
  281MOL0     C37013  10.017   9.371   6.250 -0.0553  0.3552 -0.7984
  281MOL0     C37014   9.806   9.734   6.415 -0.4197 -0.0621  0.4952
  281MOL0     C37015   9.826   9.870   6.384  1.1899  0.1315 -0.0952
  281MOL0     C37016   9.772   9.972   6.465 -0.7366 -0.0278  0.2788
  281MOL0     C37017   9.709   9.939   6.587 -0.3683  0.3014 -0.2742
  281MOL0     O37018   9.657  10.034   6.666 -0.5753  0.0729 -0.5157
  281MOL0     C37019   9.526  10.075   6.621  0.5565 -0.3434 -0.1292
  281MOL0     C37020   9.510  10.234   6.621  0.5804  1.3323 -0.2809
  281MOL0     C37021   9.549  10.303   6.758 -0.9267  1.0262 -0.2448
  281MOL0     C37022   9.602  10.445   6.747 -1.0033 -0.0838  0.4217
  281MOL0     C37023   9.480  10.535   6.744  1.1041  0.3210 -0.2914
  281MOL0     C37024   9.378  10.608   6.752 -0.1226  0.1238  0.5638
  281MOL0     C37025   9.694   9.800   6.621 -0.3596  0.7080  0.3235
  281MOL0     C37026   9.741   9.700   6.533 -0.3136  0.3598 -1.3672
  281MOL0     H37027   9.691   9.297   6.222  0.5078  1.4660 -1.2582
  281MOL0     H37028   9.775   9.081   6.156  2.1620 -1.6234 -0.4812
  281MOL0     H37029   9.981   9.015   5.909  0.7124  0.5657  0.0042
  281MOL0     H37030   9.875   8.932   6.041 -0.5418 -1.3994 -1.2698
  281MOL0     H37031  10.077   8.783   6.104  0.6414 -1.8324 -1.0665
  281MOL0     H37032  10.173   8.855   5.977  1.2921  1.7584  3.1163
  281MOL0     H37033  10.013   8.731   5.829  1.3131  0.3941 -0.7416
  281MOL0     H37034   9.904   8.706   5.969  0.3095  1.3411 -2.1157
  281MOL0     H37035  10.182   8.570   5.927  0.9494 -0.5605 -1.0343
  281MOL0     H37036  10.071   8.577   6.078 -1.3392  1.9394  0.0527
  281MOL0     H37037  10.006   8.472   5.802  0.7862 -1.1772  0.0323
  281MOL0     H37038   9.898   8.459   5.944 -0.0223  3.5220  0.4854
  281MOL0     H37039  10.043   8.288   6.039 -0.3823 -4.7439 -0.6418
  281MOL0     H37040  10.177   8.324   5.920 -0.9420 -0.3717  0.0769
  281MOL0     H37041   9.903   8.214   5.846 -0.4336 -1.2151  1.2441
  281MOL0     H37042  10.059   8.215   5.746  3.6609 -1.9261  0.7978
  281MOL0     H37043   9.961   8.010   5.871  0.5712 -1.0711  0.4762
  281MOL0     H37044   9.997   8.080   6.028 -1.3702 -2.0528  0.2631
  281MOL0     H37045  10.143   7.844   5.790 -1.5648  1.5261  0.9825
  281MOL0     H37046  10.393   7.725   5.751 -1.6743  2.4390 -0.5504
  281MOL0     H37047  10.507   7.768   5.878  0.3458  0.0143 -0.9203
  281MOL0     H37048  10.484   7.967   5.635 -0.5079 -2.2881 -3.9565
  281MOL0     H37049  10.538   7.814   5.594  1.6519  0.2954 -0.1271
  281MOL0     H37050  10.653   7.994   5.817  1.1308 -0.4218  1.3377
  281MOL0     H37051  10.710   7.829   5.764 -0.5995  0.3903  0.7319
  281MOL0     H37052  10.707   8.077   5.591  1.3820 -0.5986 -2.7329
  281MOL0     H37053  10.747   7.917   5.533 -2.0165 -1.6148  1.4154
  281MOL0     H37054  10.840   7.738   5.592  1.3186 -1.4091  0.4418
  281MOL0     H37055  11.013   7.604   5.523  3.0992 -0.1021 -1.1033
  281MOL0     H37056  11.447   7.357   5.670  0.1487  0.7808  1.1499
  281MOL0     H37057  11.621   7.232   5.580  2.4377 -0.5455  2.2301
  281MOL0     H37058  11.767   7.152   5.381  0.1544  0.4029  1.3283
  281MOL0     H37059  11.831   7.150   5.542 -1.3663  0.7384  0.4096
  281MOL0     H37060  12.058   7.217   5.445  1.2533  0.6223 -0.2726
  281MOL0     H37061  11.981   7.198   5.286  0.0684  2.2767  1.8113
  281MOL0     H37062  11.921   6.965   5.333  1.0648 -0.7943 -1.2049
  281MOL0     H37063  12.014   6.975   5.490  1.3877  0.0970 -0.1488
  281MOL0     H37064  12.202   7.081   5.314 -0.9036 -0.5785  0.4112
  281MOL0     H37065  12.185   6.906   5.318  0.4739 -0.4062 -0.2670
  281MOL0     H37066  12.011   7.051   5.120 -2.3565 -2.5924  1.2172
  281MOL0     H37067  12.078   6.889   5.119  0.4964  0.6181  0.8328
  281MOL0     H37068  12.315   6.978   5.111  1.0944  3.5303  1.5378
  281MOL0     H37069  12.252   7.135   5.079  0.5141  0.8788 -1.8453
  281MOL0     H37070  12.190   6.896   4.887  0.9120 -0.2002 -4.1526
  281MOL0     H37071  12.116   7.060   4.885  0.8072  2.9402  4.0175
  281MOL0     H37072  12.421   7.040   4.888  0.2476  3.1445  0.1483
  281MOL0     H37073  12.312   7.162   4.822  2.8977  1.2780  0.9106
  281MOL0     H37074  11.838   7.597   5.479  0.7840 -1.0622 -2.2512
  281MOL0     H37075  11.642   7.723   5.554 -0.4173 -0.3704 -1.7589
  281MOL0     H37076  11.312   7.860   5.696  0.7903 -3.4099 -1.4554
  281MOL0     H37077  11.120   8.028   5.736  1.2756 -1.2738  4.4733
  281MOL0     H37078  10.174   9.238   6.194  0.0809 -2.4678  1.3577
  281MOL0     H37079  10.080   9.449   6.291  1.3582 -0.9449 -0.3967
  281MOL0     H37080   9.894   9.888   6.301  1.1223  1.2963  0.0861
  281MOL0     H37081   9.776  10.080   6.457 -0.9552 -0.1423 -1.9036
  281MOL0     H37082   9.459  10.036   6.698  1.4033  2.0129  1.9086
  281MOL0     H37083   9.489  10.027   6.529 -2.8442  0.8449  0.4493
  281MOL0     H37084   9.577  10.284   6.551 -0.3149  2.0308 -0.6604
  281MOL0     H37085   9.410  10.256   6.584  0.4295 -1.8047 -2.1033
  281MOL0     H37086   9.631  10.248   6.805 -1.7408  1.4444  1.7472
  281MOL0     H37087   9.459  10.293   6.820 -1.3368 -1.4092 -1.1043
  281MOL0     H37088   9.668  10.460   6.833  0.0946  3.3534 -0.8088
  281MOL0     H37089   9.667  10.446   6.659  1.6509 -2.3359  2.1920
  281MOL0     H37090   9.281  10.652   6.750 -1.4127 -2.5417 -0.9241
  281MOL0     H37091   9.666   9.767   6.721  0.7552 -0.4441  0.2811
  281MOL0     H37092   9.747   9.595   6.561  1.0923  1.4420  3.2980
  282MOL0     O37093  10.272   2.229   2.952 -0.3012  0.4718  0.6572
  282MOL0     C37094  10.239   2.127   3.023 -0.1811 -1.3522  0.4990
  282MOL0     O37095  10.319   2.024   3.055 -0.0438  0.0681 -0.1734
  282MOL0     C37096  10.453   2.027   3.025  0.3010  0.2104  0.0197
  282MOL0     C37097  10.513   1.927   2.941 -0.0596  0.0998 -0.7837
  282MOL0     C37098  10.643   1.927   2.911  0.8523 -0.9345  0.8935
  282MOL0     C37099  10.727   2.010   2.988 -0.8436 -0.2406 -0.2159
  282MOL0     O37100  10.863   2.016   2.962  0.0816 -0.0434  0.3169
  282MOL0     C37101  10.933   1.893   2.948 -0.8026  0.0962  1.1620
  282MOL0     C37102  11.080   1.924   2.978  0.7193  0.3062  0.0846
  282MOL0     C37103  11.157   1.785   3.001 -0.4412 -0.2685  0.6017
  282MOL0     C37104  11.316   1.799   3.017  0.3497 -1.0725 -0.3215
  282MOL0     C37105  11.356   1.834   3.159 -0.1173 -0.4814 -0.0299
  282MOL0     C37106  11.508   1.852   3.166 -1.2858  0.0083 -0.2608
  282MOL0     C37107  11.551   1.907   3.297 -1.3163 -0.1891  0.3277
  282MOL0     C37108  11.701   1.877   3.293  0.9323 -0.3498 -0.4918
  282MOL0     N37109  11.787   1.898   3.413  0.0277  0.1411  0.5767
  282MOL0     C37110  11.750   1.921   3.538  1.6190  0.3383 -0.7382
  282MOL0     C37111  11.855   1.966   3.609  0.2634  0.7218 -0.5237
  282MOL0     C37112  11.846   1.995   3.755  0.0085  1.0370 -0.3229
  282MOL0     C37113  11.983   2.033   3.815  0.3229  0.5829  0.4876
  282MOL0     C37114  11.985   2.061   3.971  0.5913 -0.1146  0.5982
  282MOL0     C37115  11.939   1.943   4.066  0.3822 -0.3525 -0.0767
  282MOL0     O37116  11.981   1.812   4.019 -0.5695  0.7203 -0.2026
  282MOL0     C37117  12.004   1.716   4.115 -0.0484 -0.2837 -0.0133
  282MOL0     C37118  12.076   1.608   4.073 -0.0238  0.4216 -0.7226
  282MOL0     C37119  12.105   1.506   4.169  0.3813 -0.5959  0.5115
  282MOL0     C37120  12.058   1.511   4.301 -0.4822  1.0513  0.1339
  282MOL0     C37121  12.094   1.397   4.396 -0.7304  0.5692 -0.2258
  282MOL0     O37122  12.074   1.435   4.529  0.0738  0.1836  0.3173
  282MOL0     C37123  12.099   1.341   4.631 -0.4691  0.3723 -0.5118
  282MOL0     C37124  11.997   1.324   4.723 -0.6788  0.0117  0.2909
  282MOL0     C37125  12.025   1.248   4.840 -0.3811  0.5494  0.0104
  282MOL0     C37126  12.146   1.172   4.852  0.0083  0.8438 -0.3206
  282MOL0     O37127  12.170   1.093   4.961  0.4230 -0.6976  0.1533
  282MOL0     C37128  12.058   1.057   5.051  0.9408 -0.2529 -0.2260
  282MOL0     C37129  12.094   0.940   5.152 -0.7744 -0.3569  0.2768
  282MOL0     C37130  12.242   0.914   5.174  0.3424  0.5378 -0.0961
  282MOL0     C37131  12.311   1.047   5.238 -0.5551  0.1195 -0.3580
  282MOL0     C37132  12.467   1.028   5.252 -0.5351  0.7511 -0.1164
  282MOL0     C37133  12.548   1.056   5.126 -0.5798 -0.1631  0.9640
  282MOL0     C37134  12.549   1.209   5.077 -0.4417 -0.0266  0.2314
  282MOL0     C37135  12.617   1.241   4.942 -0.0239 -0.0626 -0.1989
  282MOL0    Cl37136  12.573   1.400   4.892  0.3089  0.0403 -0.4547
  282MOL0     C37137  12.237   1.180   4.751 -0.2612 -0.4731  0.4059
  282MOL0     C37138  12.214   1.266   4.644  0.3468  0.7147 -0.2229
  282MOL0     O37139  12.139   1.289   4.359  0.8841  0.3295 -0.3369
  282MOL0     C37140  11.972   1.618   4.345  0.1308  0.2814  1.0866
  282MOL0     C37141  11.947   1.721   4.249  0.9220 -0.4838 -0.4121
  282MOL0     N37142  11.970   1.949   3.530  0.7999 -0.1328  0.5644
  282MOL0     N37143  11.921   1.923   3.410  0.3358 -0.5301 -0.7215
  282MOL0     C37144  10.672   2.118   3.062  0.5516  0.1377  0.7830
  282MOL0     C37145  10.536   2.120   3.089  0.8828  0.0111 -0.3018
  282MOL0     C37146  10.095   2.114   3.047 -0.6283 -0.0123  0.1823
  282MOL0     C37147  10.003   2.175   2.963 -1.2297  0.0010 -0.5326
  282MOL0     C37148   9.865   2.175   2.998 -0.2901 -0.3924 -0.3640
  282MOL0     C37149   9.814   2.116   3.113  0.1170 -0.5272  0.3944
  282MOL0     O37150   9.681   2.151   3.132  0.1856  0.1598 -0.0723
  282MOL0     C37151   9.621   2.079   3.244 -0.4444  0.4249 -0.1000
  282MOL0     C37152   9.595   1.928   3.209  0.1907 -0.2870  0.5794
  282MOL0     C37153   9.512   1.914   3.075 -0.5514  0.2113  0.1738
  282MOL0     C37154   9.370   1.976   3.080  0.2561 -0.0765  0.6054
  282MOL0     C37155   9.297   1.935   2.965  0.6095 -0.2320  0.8452
  282MOL0     C37156   9.225   1.917   2.864  0.3326 -0.4929 -0.5938
  282MOL0     C37157   9.911   2.064   3.196  1.0899 -0.5029  0.5319
  282MOL0     C37158  10.051   2.065   3.160 -0.1061 -1.0343 -0.5980
  282MOL0     H37159  10.455   1.840   2.914  0.6518 -0.2691 -1.1324
  282MOL0     H37160  10.666   1.847   2.842  2.5457  1.1164 -1.0926
  282MOL0     H37161  10.928   1.850   2.848  2.9305 -1.2468  1.3966
  282MOL0     H37162  10.898   1.818   3.020  0.1637 -2.9317 -1.3276
  282MOL0     H37163  11.085   1.971   3.077  2.2441  0.1829  0.0815
  282MOL0     H37164  11.117   1.979   2.892 -0.4336  1.6674  0.4256
  282MOL0     H37165  11.144   1.735   2.904 -0.6002  3.0778 -1.2460
  282MOL0     H37166  11.123   1.731   3.090 -1.1282  1.0312  1.1541
  282MOL0     H37167  11.372   1.712   2.981 -1.7837 -2.2453 -0.9906
  282MOL0     H37168  11.343   1.883   2.953 -0.6878 -0.5735 -0.1186
  282MOL0     H37169  11.313   1.764   3.231 -0.8096  2.4699  2.6463
  282MOL0     H37170  11.309   1.929   3.185 -0.5558 -0.0825 -2.0640
  282MOL0     H37171  11.530   1.917   3.080  0.0029  1.1401  0.8812
  282MOL0     H37172  11.541   1.749   3.148  0.3272  0.2974  0.8573
  282MOL0     H37173  11.533   2.013   3.316 -2.2209 -0.6654  2.4891
  282MOL0     H37174  11.496   1.860   3.379 -0.5511  2.9628  2.8538
  282MOL0     H37175  11.744   1.918   3.201 -1.9653  1.3376 -1.2363
  282MOL0     H37176  11.704   1.768   3.283 -2.8217 -0.5518 -0.5956
  282MOL0     H37177  11.648   1.908   3.572  0.9861  2.1047 -1.8201
  282MOL0     H37178  11.801   1.906   3.801 -4.6251  1.1890 -3.8146
  282MOL0     H37179  11.771   2.074   3.765 -1.0119  0.5686 -3.2760
  282MOL0     H37180  12.011   2.126   3.764  3.0208 -0.2331  0.3388
  282MOL0     H37181  12.054   1.954   3.792  0.0823  1.5874 -4.7939
  282MOL0     H37182  12.087   2.076   4.007  0.8085 -0.7630  0.2660
  282MOL0     H37183  11.917   2.143   3.995 -1.9407 -1.6736 -0.8605
  282MOL0     H37184  11.830   1.943   4.062  0.3989  0.3857 -0.6649
  282MOL0     H37185  11.987   1.968   4.162 -2.0405  1.6801  0.7111
  282MOL0     H37186  12.112   1.576   3.975 -1.9958 -0.1225 -1.3139
  282MOL0     H37187  12.140   1.408   4.138 -2.8473 -2.0874  1.1221
  282MOL0     H37188  11.914   1.394   4.716 -0.1066  1.2516  3.6308
  282MOL0     H37189  11.952   1.250   4.920  0.5089  3.7282  0.9147
  282MOL0     H37190  11.968   1.016   5.002  1.9029 -1.0978 -1.3590
  282MOL0     H37191  12.034   1.147   5.108  1.1661  2.0273 -3.4596
  282MOL0     H37192  12.051   0.843   5.126  0.2409 -0.0416 -2.9810
  282MOL0     H37193  12.040   0.972   5.242  1.9576  0.0475  1.8679
  282MOL0     H37194  12.282   0.880   5.078 -1.9240  0.2344 -0.9760
  282MOL0     H37195  12.253   0.826   5.239  0.7181  0.1866 -0.6230
  282MOL0     H37196  12.302   1.142   5.185 -1.0021  0.2152 -0.1158
  282MOL0     H37197  12.281   1.055   5.343 -2.2609  3.3015 -0.9617
  282MOL0     H37198  12.484   0.922   5.277 -1.2738  0.8252  0.7309
  282MOL0     H37199  12.520   1.092   5.323  1.6018  0.2840 -1.1977
  282MOL0     H37200  12.510   0.994   5.044 -1.9434 -0.3639  1.7289
  282MOL0     H37201  12.654   1.044   5.152 -0.0530  0.6578 -0.6261
  282MOL0     H37202  12.450   1.254   5.061  0.2565  0.5151 -3.2526
  282MOL0     H37203  12.594   1.273   5.153  0.1888  0.4384 -0.5154
  282MOL0     H37204  12.594   1.168   4.864 -1.7847  1.9054 -1.6500
  282MOL0     H37205  12.726   1.243   4.953  0.0260  0.1613 -0.7438
  282MOL0     H37206  12.328   1.123   4.760  0.0016  0.0933  1.4674
  282MOL0     H37207  12.306   1.265   4.585  1.8065 -0.2726  1.9492
  282MOL0     H37208  11.941   1.628   4.449 -1.8672  1.0342  0.4597
  282MOL0     H37209  11.879   1.799   4.281  1.0416 -0.6748  0.3252
  282MOL0     H37210  10.736   2.196   3.102  2.2538 -1.0659  0.5298
  282MOL0     H37211  10.487   2.188   3.158 -1.7747  0.5888 -2.6126
  282MOL0     H37212  10.049   2.225   2.878 -0.1510 -1.2789 -0.7358
  282MOL0     H37213   9.798   2.227   2.930 -1.1263 -1.5086 -0.4221
  282MOL0     H37214   9.523   2.122   3.268 -1.5468 -1.5454 -0.7612
  282MOL0     H37215   9.684   2.078   3.334 -0.5003  0.0688 -0.0625
  282MOL0     H37216   9.684   1.866   3.195 -1.2949 -2.1412 -1.3823
  282MOL0     H37217   9.540   1.881   3.292 -0.9780  2.1485  1.2657
  282MOL0     H37218   9.508   1.808   3.045 -0.0972  0.2858 -0.1662
  282MOL0     H37219   9.569   1.962   2.995 -2.2935  0.4736 -0.9847
  282MOL0     H37220   9.318   1.934   3.167  1.1271 -1.2457  0.5835
  282MOL0     H37221   9.374   2.085   3.078 -0.1829 -0.0645  0.2314
  282MOL0     H37222   9.192   1.889   2.766 -0.7456 -0.2191 -0.3178
  282MOL0     H37223   9.889   2.024   3.294  1.7827 -0.8547  0.5515
  282MOL0     H37224  10.122   2.029   3.233  1.2047 -1.4687 -2.0237
  283MOL0     O37225  11.427   9.113   8.831 -0.7655 -1.0258 -1.0055
  283MOL0     C37226  11.335   9.089   8.755 -0.6798  0.1363  0.0722
  283MOL0     O37227  11.234   8.997   8.780  0.1548 -0.8232 -0.3818
  283MOL0     C37228  11.238   8.908   8.887  0.2453 -0.4741  0.4927
  283MOL0     C37229  11.277   8.943   9.017  1.0022  0.6555  0.0865
  283MOL0     C37230  11.267   8.860   9.118 -0.5493  0.3798 -0.3434
  283MOL0     C37231  11.228   8.729   9.107  0.4256  0.0359  0.7051
  283MOL0     O37232  11.225   8.641   9.211 -0.6573 -0.7235  0.4430
  283MOL0     C37233  11.102   8.585   9.235 -0.1707 -0.2145 -0.0033
  283MOL0     C37234  11.124   8.464   9.336 -0.2068  0.5243  0.1511
  283MOL0     C37235  11.010   8.445   9.433 -0.2998  0.6545 -0.8759
  283MOL0     C37236  11.014   8.304   9.497  0.3627 -1.2990  0.9245
  283MOL0     C37237  11.107   8.305   9.617  0.4802 -0.1481  0.3826
  283MOL0     C37238  11.258   8.270   9.594 -0.8672 -0.2819  0.5214
  283MOL0     C37239  11.334   8.246   9.726  0.2502  0.0299  0.0905
  283MOL0     C37240  11.444   8.344   9.740 -0.2494 -0.1719  0.3582
  283MOL0     N37241  11.396   8.476   9.741  0.3460  0.4039 -0.4469
  283MOL0     C37242  11.411   8.575   9.643  0.0743 -0.2646 -0.9118
  283MOL0     C37243  11.350   8.684   9.695 -0.1433 -0.0527 -0.2538
  283MOL0     C37244  11.342   8.822   9.631  0.1596 -0.3779  0.6573
  283MOL0     C37245  11.206   8.889   9.644  0.4748 -0.8874 -0.0126
  283MOL0     C37246  11.223   9.046   9.622  0.8694 -0.6256  0.1283
  283MOL0     C37247  11.103   9.126   9.671  0.6711  0.0925 -0.0663
  283MOL0     O37248  11.102   9.248   9.595  0.5087 -0.2659  0.2805
  283MOL0     C37249  10.991   9.276   9.523  0.6151 -0.0074 -0.2007
  283MOL0     C37250  10.853   9.236   9.547 -0.3034  1.3504  0.7018
  283MOL0     C37251  10.744   9.262   9.454 -1.3937 -0.1460 -0.4682
  283MOL0     C37252  10.772   9.353   9.345  0.0692  0.8088 -0.0441
  283MOL0     C37253  10.655   9.394   9.258  0.2857 -0.5517 -0.1631
  283MOL0     O37254  10.533   9.370   9.323 -0.2693  0.8382 -0.4776
  283MOL0     C37255  10.413   9.375   9.259 -1.2112  0.2802  0.2901
  283MOL0     C37256  10.348   9.496   9.254  0.9939 -0.0238 -0.4621
  283MOL0     C37257  10.221   9.512   9.215 -0.3596  1.2652 -0.2322
  283MOL0     C37258  10.147   9.402   9.184 -0.0656  0.3438  0.2640
  283MOL0     O37259  10.017   9.415   9.124 -0.0517  0.8548  0.1981
  283MOL0     C37260   9.949   9.538   9.098 -0.8211 -0.0753 -0.1390
  283MOL0     C37261  10.013   9.572   8.966 -0.1700 -0.4457 -0.1986
  283MOL0     C37262   9.987   9.720   8.923  0.4831  1.3313  0.1391
  283MOL0     C37263  10.044   9.748   8.792  0.5395 -0.1067 -0.4105
  283MOL0     C37264   9.969   9.873   8.726 -0.2638  0.2941 -1.2769
  283MOL0     C37265   9.823   9.847   8.679  0.2601  1.0267 -0.8182
  283MOL0     C37266   9.787   9.962   8.582 -0.4023  0.2815 -0.5860
  283MOL0     C37267   9.640   9.944   8.560 -0.3517  0.0465  0.2977
  283MOL0    Cl37268   9.554  10.001   8.704  0.2041  0.4757  0.4709
  283MOL0     C37269  10.213   9.282   9.174  0.9051  0.7117 -0.3887
  283MOL0     C37270  10.345   9.264   9.213  0.6708  0.4252 -0.8568
  283MOL0     O37271  10.659   9.450   9.150 -0.1580  0.2296 -0.4857
  283MOL0     C37272  10.899   9.396   9.323  0.2381  0.0364 -0.8748
  283MOL0     C37273  11.006   9.358   9.413 -0.0857  0.3133  0.3702
  283MOL0     N37274  11.306   8.654   9.822  0.0552 -0.5743  0.3753
  283MOL0     N37275  11.337   8.526   9.854 -0.1120 -1.2708  0.3070
  283MOL0     C37276  11.196   8.687   8.976  0.3592 -0.2206 -0.4680
  283MOL0     C37277  11.207   8.773   8.865  0.5752  0.6000 -0.4707
  283MOL0     C37278  11.328   9.160   8.630  0.1868  0.7465 -0.1619
  283MOL0     C37279  11.268   9.103   8.520  0.4975 -0.1795  1.2573
  283MOL0     C37280  11.232   9.192   8.416  0.3031 -0.6472  0.4075
  283MOL0     C37281  11.274   9.327   8.405  0.6635 -0.9095  0.3863
  283MOL0     O37282  11.254   9.417   8.302  0.3002 -0.0211 -0.8411
  283MOL0     C37283  11.154   9.389   8.209  0.4204  0.8562 -0.8563
  283MOL0     C37284  11.225   9.330   8.083 -0.0873  0.6359 -0.2167
  283MOL0     C37285  11.124   9.278   7.973  0.5117  0.3186  0.6107
  283MOL0     C37286  11.045   9.372   7.885 -0.4296 -0.4667  0.1166
  283MOL0     C37287  10.956   9.464   7.958  0.4954  0.2247  0.0601
  283MOL0     C37288  10.880   9.540   8.018  0.3923  0.2371  0.0721
  283MOL0     C37289  11.343   9.378   8.514 -0.1073 -0.1145  0.3455
  283MOL0     C37290  11.365   9.298   8.620 -0.6954  0.5562 -0.0482
  283MOL0     H37291  11.321   9.042   9.020  4.1951 -0.5216 -2.1304
  283MOL0     H37292  11.316   8.884   9.211 -0.2551  1.7859 -0.8345
  283MOL0     H37293  11.051   8.549   9.146 -0.9204  2.1205 -0.5855
  283MOL0     H37294  11.030   8.655   9.277 -0.1734 -0.9000  1.2016
  283MOL0     H37295  11.217   8.490   9.387 -0.4515  3.5215 -0.7126
  283MOL0     H37296  11.148   8.373   9.282  0.8900  0.4806  0.6766
  283MOL0     H37297  10.910   8.467   9.392 -1.8810  2.6775  3.4519
  283MOL0     H37298  11.019   8.521   9.510 -0.2555 -0.9934  0.8133
  283MOL0     H37299  10.909   8.297   9.530 -0.2220  1.7816  0.0534
  283MOL0     H37300  11.032   8.235   9.414  3.0635  3.2238 -2.6973
  283MOL0     H37301  11.061   8.229   9.681 -0.3501  1.2389  1.4718
  283MOL0     H37302  11.083   8.393   9.676 -3.7639 -1.5412  1.0898
  283MOL0     H37303  11.296   8.346   9.526 -1.9886 -0.7338 -0.6672
  283MOL0     H37304  11.259   8.180   9.532  0.5663  2.3052 -3.6517
  283MOL0     H37305  11.277   8.261   9.818  0.5078 -0.0366  0.2614
  283MOL0     H37306  11.373   8.144   9.730  2.1752  0.4908 -3.0612
  283MOL0     H37307  11.516   8.323   9.660 -0.6440 -4.3112  0.8637
  283MOL0     H37308  11.495   8.328   9.836  2.4538 -3.8315 -1.4236
  283MOL0     H37309  11.474   8.579   9.555 -1.4122 -0.3404 -1.9989
  283MOL0     H37310  11.385   8.827   9.530  0.9660  1.4762  1.0398
  283MOL0     H37311  11.425   8.867   9.686  2.6964 -2.4665 -1.2357
  283MOL0     H37312  11.162   8.863   9.741  0.1725 -0.6197 -0.0758
  283MOL0     H37313  11.133   8.852   9.572 -1.1468  0.7379  0.7071
  283MOL0     H37314  11.302   9.082   9.689  0.3714  3.1515 -1.0396
  283MOL0     H37315  11.249   9.072   9.518  0.6576 -1.5241 -0.1595
  283MOL0     H37316  11.103   9.151   9.778 -3.2805  0.4046  0.0067
  283MOL0     H37317  11.015   9.063   9.652  2.9287 -3.7059  0.8499
  283MOL0     H37318  10.832   9.168   9.629 -3.1407  0.1106 -0.9278
  283MOL0     H37319  10.651   9.206   9.454 -1.9296  0.7144 -1.9507
  283MOL0     H37320  10.386   9.587   9.297  1.8498  0.0102 -1.2642
  283MOL0     H37321  10.167   9.606   9.221 -0.6203  1.2563 -1.8683
  283MOL0     H37322   9.965   9.621   9.167 -0.6201  1.2834 -1.7326
  283MOL0     H37323   9.842   9.519   9.085 -0.5102 -1.7254 -0.5536
  283MOL0     H37324   9.986   9.506   8.883  1.1710  1.1535 -2.0026
  283MOL0     H37325  10.121   9.565   8.976  0.2509  2.5612 -1.5198
  283MOL0     H37326  10.038   9.787   8.993 -0.8383  3.7964 -1.1490
  283MOL0     H37327   9.879   9.735   8.927 -0.4051 -3.3273 -0.3424
  283MOL0     H37328  10.150   9.772   8.800  0.9191 -0.5414 -3.2258
  283MOL0     H37329  10.020   9.663   8.728 -4.3310  1.3012 -0.8506
  283MOL0     H37330  10.035   9.906   8.645  0.5262  0.8306 -0.4324
  283MOL0     H37331   9.978   9.952   8.802 -5.2946 -1.2460  1.4215
  283MOL0     H37332   9.763   9.854   8.770 -0.0853  1.4585 -1.0747
  283MOL0     H37333   9.805   9.754   8.624 -0.1296  0.7337 -0.2062
  283MOL0     H37334   9.805  10.062   8.623 -1.1994  1.2336 -2.4334
  283MOL0     H37335   9.840   9.960   8.486  0.1459 -1.4924 -0.2731
  283MOL0     H37336   9.611   9.841   8.540 -3.5384  1.1346 -1.5942
  283MOL0     H37337   9.610   9.999   8.469  1.4842  2.0451  0.7961
  283MOL0     H37338  10.150   9.201   9.137  0.0791  1.2234 -0.1445
  283MOL0     H37339  10.377   9.162   9.231 -0.0830 -0.0282 -1.9853
  283MOL0     H37340  10.925   9.464   9.242 -2.3243  0.8890 -1.0821
  283MOL0     H37341  11.109   9.380   9.388  0.5636 -0.0953  2.4889
  283MOL0     H37342  11.184   8.580   8.964  1.6405 -0.6426  1.5674
  283MOL0     H37343  11.180   8.729   8.770  0.2366  0.1910 -0.1901
  283MOL0     H37344  11.245   8.998   8.531 -0.9336  0.1791  2.0557
  283MOL0     H37345  11.187   9.154   8.325 -0.2815  0.2998  0.2946
  283MOL0     H37346  11.101   9.485   8.203 -1.9240 -0.0975  1.9676
  283MOL0     H37347  11.078   9.313   8.229  2.8552 -1.8091 -1.1461
  283MOL0     H37348  11.295   9.401   8.039  1.2537 -1.7335 -2.2148
  283MOL0     H37349  11.285   9.248   8.125  0.1395  1.6936  1.6659
  283MOL0     H37350  11.057   9.208   8.023 -0.4387  1.3065  0.7377
  283MOL0     H37351  11.187   9.219   7.905 -2.6877 -2.9967  0.2252
  283MOL0     H37352  11.102   9.435   7.816 -2.3209  0.9591 -0.2334
  283MOL0     H37353  10.985   9.307   7.820  0.3554 -0.4306 -0.6621
  283MOL0     H37354  10.823   9.620   8.060 -0.3405  0.6394 -1.5867
  283MOL0     H37355  11.378   9.481   8.511 -2.8698  0.8703 -1.4028
  283MOL0     H37356  11.405   9.351   8.706  1.3775 -0.0956 -0.5485
  284MOL0     O37357   0.497   0.553   0.055 -0.2925 -0.0818  0.6575
  284MOL0     C37358   0.467   0.459   0.129 -0.1123  0.1592 -1.0521
  284MOL0     O37359   0.374   0.358   0.107  0.4038  0.2763 -0.0942
  284MOL0     C37360   0.307   0.343  -0.017  0.8941  0.0905 -0.7653
  284MOL0     C37361   0.313   0.425  -0.124  0.0295  0.6303 -0.4083
  284MOL0     C37362   0.256   0.376  -0.246  0.3075  0.0139  0.0702
  284MOL0     C37363   0.183   0.252  -0.261  0.3005  0.1888 -1.0726
  284MOL0     O37364   0.119   0.220  -0.383 -0.3011  0.5743 -0.0524
  284MOL0     C37365  -0.014   0.172  -0.379 -0.0347  0.5578 -0.6096
  284MOL0     C37366  -0.040   0.059  -0.479 -0.8804  0.0064 -1.0872
  284MOL0     C37367   0.046   0.074  -0.595 -0.6755 -0.4461 -0.0362
  284MOL0     C37368   0.008  -0.028  -0.706  0.2904 -0.2212 -0.7065
  284MOL0     C37369  -0.102   0.035  -0.793 -0.0481 -0.2619  0.1140
  284MOL0     C37370  -0.135  -0.059  -0.906  0.4531  0.6576  0.0038
  284MOL0     C37371  -0.244  -0.008  -0.999  0.1216  0.3093 -0.8601
  284MOL0     C37372  -0.255  -0.101  -1.124 -0.8655  1.1023  0.9756
  284MOL0     N37373  -0.371  -0.059  -1.202 -0.4220 -1.1324 -0.4187
  284MOL0     C37374  -0.505  -0.041  -1.161 -0.0390 -0.0305 -0.1834
  284MOL0     C37375  -0.566   0.043  -1.256 -0.0787  0.9110  0.0463
  284MOL0     C37376  -0.701   0.111  -1.246  0.1862  0.0061  0.5178
  284MOL0     C37377  -0.793   0.027  -1.151 -0.7582 -0.8938  0.0405
  284MOL0     C37378  -0.928   0.087  -1.132  0.7532 -0.2339  0.7714
  284MOL0     C37379  -1.005   0.117  -1.251  0.9193 -0.5792  0.2972
  284MOL0     O37380  -0.981   0.254  -1.286 -0.5517  0.7027 -0.0575
  284MOL0     C37381  -1.089   0.328  -1.335  0.3356 -0.5833  0.4136
  284MOL0     C37382  -1.074   0.463  -1.353 -0.4997 -0.0094 -0.3214
  284MOL0     C37383  -1.174   0.549  -1.401  0.1470 -0.1953 -0.0999
  284MOL0     C37384  -1.306   0.500  -1.426  0.2110 -0.5674  0.1125
  284MOL0     C37385  -1.416   0.588  -1.474 -0.4747 -0.6830 -0.6586
  284MOL0     O37386  -1.386   0.719  -1.497  0.3817 -0.6203  0.3356
  284MOL0     C37387  -1.481   0.810  -1.542  0.4317 -0.2687  0.6805
  284MOL0     C37388  -1.444   0.950  -1.515  0.2411  0.3788  0.1200
  284MOL0     C37389  -1.531   1.053  -1.554  0.0496  0.0505  0.1840
  284MOL0     C37390  -1.659   1.030  -1.609 -0.1942  0.3502 -0.0109
  284MOL0     O37391  -1.750   1.126  -1.629  0.1378  0.2804 -0.3485
  284MOL0     C37392  -1.747   1.169  -1.762  0.4928  0.0653  0.2835
  284MOL0     C37393  -1.805   1.307  -1.764  0.4496 -0.3434  0.7705
  284MOL0     C37394  -1.838   1.357  -1.910  0.3863  0.4560 -0.1742
  284MOL0     C37395  -1.859   1.513  -1.911 -0.6149  0.3855 -0.4917
  284MOL0     C37396  -1.928   1.546  -2.038 -0.3969  0.5711 -0.3173
  284MOL0     C37397  -1.923   1.686  -2.071 -0.2946 -0.1769  0.4185
  284MOL0     C37398  -2.009   1.732  -2.187  0.1456  0.1842 -0.4095
  284MOL0     C37399  -2.022   1.880  -2.211 -0.4796  0.2068 -0.3431
  284MOL0    Cl37400  -1.889   1.957  -2.286 -0.2280 -0.2591 -0.4363
  284MOL0     C37401  -1.693   0.896  -1.630  0.0336  0.5120 -0.4030
  284MOL0     C37402  -1.607   0.793  -1.601  0.1971  0.5958 -0.5798
  284MOL0     O37403  -1.525   0.536  -1.476  0.5279 -0.0969  0.1428
  284MOL0     C37404  -1.322   0.360  -1.409  0.1123 -0.0503 -0.1213
  284MOL0     C37405  -1.215   0.277  -1.382 -0.4523  0.5598  0.5008
  284MOL0     N37406  -0.488   0.051  -1.359  0.4687 -0.2519  0.1239
  284MOL0     N37407  -0.368   0.010  -1.325 -0.6251  0.3583  0.5391
  284MOL0     C37408   0.178   0.173  -0.152  0.5308 -0.4038 -0.5188
  284MOL0     C37409   0.238   0.221  -0.031  0.8573 -0.3934 -0.2430
  284MOL0     C37410   0.527   0.438   0.267  0.0380  1.0277  1.0938
  284MOL0     C37411   0.595   0.544   0.328  0.2758  0.8911  0.1100
  284MOL0     C37412   0.673   0.523   0.450  0.0693  0.5284 -0.1700
  284MOL0     C37413   0.667   0.393   0.515 -0.0052  0.3910 -0.1685
  284MOL0     O37414   0.724   0.355   0.636 -0.0333 -0.4637 -0.7008
  284MOL0     C37415   0.837   0.423   0.685 -0.0770 -0.0325 -0.0710
  284MOL0     C37416   0.913   0.307   0.741  0.5560  0.7765 -0.6728
  284MOL0     C37417   0.844   0.233   0.854 -1.0708  1.3395  0.0896
  284MOL0     C37418   0.954   0.131   0.892  0.3959 -0.1471  0.0501
  284MOL0     C37419   1.015   0.166   1.021  0.3259 -1.1612  0.1860
  284MOL0     C37420   1.063   0.209   1.130  0.6312 -0.1148  0.0131
  284MOL0     C37421   0.568   0.301   0.466  0.2609  0.4045 -0.0946
  284MOL0     C37422   0.510   0.316   0.336  0.3549  0.3096 -0.6009
  284MOL0     H37423   0.361   0.522  -0.122  1.1277  0.1051  2.0702
  284MOL0     H37424   0.270   0.439  -0.333 -1.6897  2.0870  1.1592
  284MOL0     H37425  -0.089   0.245  -0.408  0.1313  1.5706  1.3198
  284MOL0     H37426  -0.030   0.141  -0.275  1.4032  0.5231 -0.3771
  284MOL0     H37427  -0.144   0.045  -0.510 -2.0133  3.0206  0.8487
  284MOL0     H37428  -0.035  -0.037  -0.428 -3.2608 -0.7543 -2.1491
  284MOL0     H37429   0.145   0.035  -0.569  0.0709  1.1113 -0.4268
  284MOL0     H37430   0.054   0.180  -0.622 -1.4305 -0.6699 -1.1775
  284MOL0     H37431   0.097  -0.047  -0.767  2.8013  3.7699  1.2947
  284MOL0     H37432  -0.018  -0.123  -0.659  0.2582 -0.3629 -1.0043
  284MOL0     H37433  -0.076   0.137  -0.824 -0.1666  0.0427  1.0035
  284MOL0     H37434  -0.186   0.066  -0.730  1.5976  5.1099  0.1898
  284MOL0     H37435  -0.164  -0.156  -0.865  1.0039 -0.6981 -2.5632
  284MOL0     H37436  -0.049  -0.083  -0.970  0.6929  0.3716  0.4306
  284MOL0     H37437  -0.334  -0.002  -0.937  0.6800  3.2256 -0.2016
  284MOL0     H37438  -0.210   0.088  -1.038  2.1836 -0.8512 -2.1031
  284MOL0     H37439  -0.280  -0.201  -1.087  0.3374  0.5222  0.2914
  284MOL0     H37440  -0.166  -0.091  -1.187 -2.4807  0.0555 -1.6475
  284MOL0     H37441  -0.536  -0.077  -1.063  1.3358 -1.6296 -0.2941
  284MOL0     H37442  -0.748   0.127  -1.343  2.6191  0.6584 -0.6288
  284MOL0     H37443  -0.688   0.211  -1.203  1.2837 -0.7352  1.9873
  284MOL0     H37444  -0.740   0.038  -1.057  1.6640  0.4630 -1.3885
  284MOL0     H37445  -0.794  -0.078  -1.181  3.5384 -1.7073  2.0786
  284MOL0     H37446  -0.988   0.011  -1.081  1.2175 -1.4506 -0.4100
  284MOL0     H37447  -0.929   0.176  -1.068 -4.2975 -0.7582  1.7818
  284MOL0     H37448  -1.107   0.095  -1.221 -0.0776 -0.0973 -2.4224
  284MOL0     H37449  -0.982   0.041  -1.326  1.2590  0.3720 -0.5841
  284MOL0     H37450  -0.977   0.509  -1.336 -0.1466 -1.0771  0.6379
  284MOL0     H37451  -1.155   0.656  -1.408 -0.3978 -0.0877  0.0062
  284MOL0     H37452  -1.357   0.984  -1.461 -0.2480  2.8617 -0.4963
  284MOL0     H37453  -1.504   1.158  -1.551  0.0557  0.1335 -1.5684
  284MOL0     H37454  -1.793   1.093  -1.826 -0.4672  1.8056 -1.1860
  284MOL0     H37455  -1.643   1.179  -1.794  0.5941 -2.1023 -0.1774
  284MOL0     H37456  -1.737   1.380  -1.718  1.3699  0.9100 -2.3026
  284MOL0     H37457  -1.898   1.315  -1.708  1.4045 -1.5767  2.6694
  284MOL0     H37458  -1.926   1.309  -1.954 -0.1919  0.2757  1.1347
  284MOL0     H37459  -1.760   1.331  -1.983  0.7377 -1.3057  0.7917
  284MOL0     H37460  -1.918   1.545  -1.825  1.7412 -0.0877  1.4078
  284MOL0     H37461  -1.763   1.563  -1.900 -0.6611  0.6189 -1.0633
  284MOL0     H37462  -2.031   1.513  -2.024 -0.4011  0.7802  0.1455
  284MOL0     H37463  -1.878   1.492  -2.119 -1.3478  0.0468 -0.5733
  284MOL0     H37464  -1.816   1.703  -2.086  0.0150  1.1641  3.5068
  284MOL0     H37465  -1.963   1.742  -1.986 -1.0799 -0.6831  0.3853
  284MOL0     H37466  -1.955   1.689  -2.272  1.3951 -1.3184  1.0584
  284MOL0     H37467  -2.107   1.685  -2.178  1.1037 -1.9757 -0.5514
  284MOL0     H37468  -2.043   1.936  -2.120  0.4978 -0.7738  0.5101
  284MOL0     H37469  -2.113   1.895  -2.270 -0.8674  2.7831  0.7726
  284MOL0     H37470  -1.786   0.873  -1.681 -0.2487 -2.8729  1.4055
  284MOL0     H37471  -1.638   0.693  -1.632 -2.1386  0.4863  1.7777
  284MOL0     H37472  -1.421   0.317  -1.416 -0.4855  1.5075 -2.7651
  284MOL0     H37473  -1.234   0.170  -1.376 -0.6344  0.5092 -0.7599
  284MOL0     H37474   0.123   0.084  -0.127  1.2428 -0.3254  1.5049
  284MOL0     H37475   0.227   0.144   0.044 -3.9907  0.7513  0.5487
  284MOL0     H37476   0.596   0.644   0.284 -0.9509  1.6887  1.8096
  284MOL0     H37477   0.741   0.597   0.490  0.4793  0.4215 -0.6573
  284MOL0     H37478   0.818   0.495   0.765  1.9103 -2.2772  2.6238
  284MOL0     H37479   0.879   0.463   0.592  0.4880 -0.6409 -0.0866
  284MOL0     H37480   0.931   0.227   0.668 -0.2607 -3.6336  3.4664
  284MOL0     H37481   1.009   0.334   0.786  1.4422 -2.2831 -0.5203
  284MOL0     H37482   0.750   0.181   0.837 -1.0279  0.2327  2.6587
  284MOL0     H37483   0.832   0.301   0.939 -0.7313 -1.4541  2.5359
  284MOL0     H37484   0.906   0.035   0.912  0.8515  0.1578  3.1694
  284MOL0     H37485   1.026   0.119   0.811 -2.0721  1.9061 -2.6606
  284MOL0     H37486   1.102   0.237   1.226  2.2118  0.3627 -0.7476
  284MOL0     H37487   0.554   0.219   0.537 -1.2108  2.1094  1.7037
  284MOL0     H37488   0.452   0.236   0.292 -2.7045  2.5477 -0.9073
  285MOL0     O37489   1.091   8.831   3.504 -1.0958  0.3313 -0.0620
  285MOL0     C37490   1.106   8.809   3.387  0.3084 -0.2173 -0.2170
  285MOL0     O37491   1.200   8.729   3.339 -0.1053  0.9526 -0.2720
  285MOL0     C37492   1.289   8.661   3.407  0.6279  0.4852 -0.0232
  285MOL0     C37493   1.336   8.697   3.533 -0.7230  0.7628  0.6681
  285MOL0     C37494   1.424   8.615   3.606 -0.1120  0.1657  1.1612
  285MOL0     C37495   1.453   8.487   3.559  0.5945 -0.0316  0.0026
  285MOL0     O37496   1.531   8.396   3.625 -0.1854 -0.0396 -0.5501
  285MOL0     C37497   1.653   8.351   3.564  0.7673  0.6265  0.4937
  285MOL0     C37498   1.707   8.265   3.673  0.0328  0.0178  0.5545
  285MOL0     C37499   1.622   8.143   3.722 -0.1799 -1.1814  0.2399
  285MOL0     C37500   1.702   8.035   3.812  0.3347 -0.3823  0.1536
  285MOL0     C37501   1.758   7.921   3.718  0.4196 -0.1622 -0.3279
  285MOL0     C37502   1.910   7.927   3.712 -0.0571  0.1624 -0.2760
  285MOL0     C37503   1.960   7.805   3.638 -0.6952 -0.6095  0.7448
  285MOL0     C37504   2.113   7.830   3.615 -0.4286 -0.1990  0.2277
  285MOL0     N37505   2.177   7.710   3.553  0.9578  0.6050 -0.3095
  285MOL0     C37506   2.156   7.580   3.590 -0.8595  0.3548 -0.1114
  285MOL0     C37507   2.234   7.515   3.500  0.5439  0.6374  0.5687
  285MOL0     C37508   2.214   7.372   3.489  0.5947  0.0200 -0.4163
  285MOL0     C37509   2.294   7.309   3.379  0.0477  0.0950  0.0489
  285MOL0     C37510   2.448   7.319   3.412  0.2669  0.5535  1.0245
  285MOL0     C37511   2.528   7.285   3.281  1.2669  0.1328 -0.6486
  285MOL0     O37512   2.541   7.142   3.271  0.4286  0.0297 -0.4982
  285MOL0     C37513   2.561   7.102   3.145  0.7560  0.2335 -0.1488
  285MOL0     C37514   2.483   6.994   3.110  0.3189 -0.3097 -0.5811
  285MOL0     C37515   2.492   6.933   2.986 -0.7364  1.0497 -0.2197
  285MOL0     C37516   2.563   6.998   2.880  0.4930  0.4036 -1.0219
  285MOL0     C37517   2.561   6.942   2.736  0.7031 -0.3783  0.1453
  285MOL0     O37518   2.509   6.824   2.718 -0.3657  0.5367 -0.1242
  285MOL0     C37519   2.487   6.781   2.590 -0.2072  0.0763 -0.4821
  285MOL0     C37520   2.373   6.800   2.521  0.9885 -0.8429 -0.1593
  285MOL0     C37521   2.358   6.760   2.390  0.7109  0.6840 -0.0986
  285MOL0     C37522   2.452   6.687   2.321  0.1105  0.5158  0.6071
  285MOL0     O37523   2.433   6.649   2.192 -0.3880  0.0463  0.0764
  285MOL0     C37524   2.551   6.677   2.105 -0.1272  0.1668 -0.8670
  285MOL0     C37525   2.515   6.616   1.974 -1.0304  0.2627  0.0090
  285MOL0     C37526   2.625   6.646   1.867  0.4763  0.2814  0.6257
  285MOL0     C37527   2.549   6.648   1.728  0.5128  0.5504  0.2402
  285MOL0     C37528   2.646   6.691   1.617 -0.4918  0.3608 -0.5104
  285MOL0     C37529   2.763   6.597   1.571  0.0215  0.0869 -0.8743
  285MOL0     C37530   2.704   6.467   1.513  0.2218  0.1604  0.0191
  285MOL0     C37531   2.623   6.476   1.381 -1.1639 -0.4629  0.6495
  285MOL0    Cl37532   2.563   6.314   1.331 -0.0593 -0.3951  0.1333
  285MOL0     C37533   2.569   6.658   2.393 -0.5054  1.0944  0.8047
  285MOL0     C37534   2.591   6.709   2.529  1.1330  0.2309  0.7490
  285MOL0     O37535   2.615   7.015   2.649  0.0975  0.5333 -0.7649
  285MOL0     C37536   2.635   7.116   2.917  1.1131 -0.3635 -0.5412
  285MOL0     C37537   2.629   7.168   3.045  1.0918 -0.6056  1.2386
  285MOL0     N37538   2.281   7.599   3.402  0.2234  0.0722  0.0346
  285MOL0     N37539   2.250   7.724   3.440  0.4939  0.7652  1.3895
  285MOL0     C37540   1.408   8.457   3.430 -0.5142  0.0398  0.7921
  285MOL0     C37541   1.324   8.543   3.347 -0.2184  0.0596  0.6749
  285MOL0     C37542   1.004   8.863   3.294 -1.2324  0.1409 -0.7814
  285MOL0     C37543   0.996   8.824   3.162  0.8380  0.1058  0.3465
  285MOL0     C37544   0.895   8.857   3.073  0.4601  0.2550  0.1226
  285MOL0     C37545   0.796   8.946   3.114 -0.0081  0.0303 -0.4144
  285MOL0     O37546   0.683   8.969   3.036  0.1596  0.6251 -0.1101
  285MOL0     C37547   0.554   8.943   3.094  0.8742 -1.1529  0.2216
  285MOL0     C37548   0.515   8.795   3.088 -0.5684  0.4937  0.0426
  285MOL0     C37549   0.406   8.775   3.195  0.0030  0.0160  0.3374
  285MOL0     C37550   0.270   8.825   3.169  0.0818  0.8599 -0.2088
  285MOL0     C37551   0.200   8.763   3.053  0.6524  0.0219 -0.7695
  285MOL0     C37552   0.155   8.699   2.963  1.0250 -0.3445 -1.2029
  285MOL0     C37553   0.808   8.991   3.243  0.8002  0.6055  0.8387
  285MOL0     C37554   0.913   8.957   3.324 -0.3482 -0.2376  0.3013
  285MOL0     H37555   1.300   8.791   3.573 -1.7618  1.9662 -2.7816
  285MOL0     H37556   1.459   8.641   3.705  3.4286  1.3753 -0.2454
  285MOL0     H37557   1.725   8.431   3.547  1.9255  0.4581  3.9102
  285MOL0     H37558   1.619   8.302   3.472  1.5094 -1.4020  1.2330
  285MOL0     H37559   1.719   8.329   3.761  0.0703  0.3792  0.2877
  285MOL0     H37560   1.807   8.232   3.642  0.0784 -1.5604  2.2248
  285MOL0     H37561   1.585   8.095   3.631  0.4229 -0.7514 -0.2430
  285MOL0     H37562   1.540   8.185   3.782  2.1791  0.8574  2.2754
  285MOL0     H37563   1.791   8.074   3.862 -1.1212 -0.5285  3.0725
  285MOL0     H37564   1.630   7.990   3.881 -1.9513 -0.9074 -2.4214
  285MOL0     H37565   1.715   7.937   3.618 -2.8960  1.4741  1.1951
  285MOL0     H37566   1.737   7.818   3.748  0.9823 -0.7754 -1.9327
  285MOL0     H37567   1.960   7.928   3.809 -1.6677  0.8000  0.5668
  285MOL0     H37568   1.935   8.008   3.643 -1.5220 -0.2641 -1.3597
  285MOL0     H37569   1.941   7.713   3.694 -1.8781 -1.3143 -0.7259
  285MOL0     H37570   1.914   7.807   3.539 -0.3101 -0.1184  0.5708
  285MOL0     H37571   2.160   7.839   3.713 -0.4843  1.1640  0.1473
  285MOL0     H37572   2.146   7.914   3.554  1.2703  0.3382  1.7984
  285MOL0     H37573   2.096   7.528   3.665 -0.6823 -0.1353 -0.3019
  285MOL0     H37574   2.111   7.346   3.462  2.2357 -4.9003 -3.2041
  285MOL0     H37575   2.229   7.329   3.589  2.4715 -0.0720 -0.7161
  285MOL0     H37576   2.276   7.366   3.288 -2.0077 -0.1162  0.2691
  285MOL0     H37577   2.276   7.201   3.370 -1.8698  0.3601  0.4277
  285MOL0     H37578   2.478   7.419   3.442  2.2385 -0.4318  2.5034
  285MOL0     H37579   2.476   7.244   3.486 -0.1886 -1.1167 -0.4243
  285MOL0     H37580   2.631   7.320   3.295  0.5203  3.0011 -1.7665
  285MOL0     H37581   2.481   7.340   3.199 -0.6618 -1.6172 -0.8053
  285MOL0     H37582   2.425   6.951   3.191  0.9012  2.3094  1.3545
  285MOL0     H37583   2.443   6.836   2.985  2.0337 -0.4368 -1.4126
  285MOL0     H37584   2.296   6.857   2.571  0.2219 -1.3359 -0.7645
  285MOL0     H37585   2.266   6.785   2.337  0.1334  2.4831  1.6358
  285MOL0     H37586   2.636   6.623   2.148 -2.7107 -1.1007  3.2828
  285MOL0     H37587   2.572   6.784   2.098  1.0220 -0.1230 -2.7721
  285MOL0     H37588   2.426   6.666   1.932 -1.0071  0.5033  0.2466
  285MOL0     H37589   2.493   6.509   1.982  2.8533 -0.6573  0.1037
  285MOL0     H37590   2.708   6.575   1.859 -0.3049 -0.5267 -0.7662
  285MOL0     H37591   2.674   6.741   1.888  2.1124 -0.8009  1.8726
  285MOL0     H37592   2.506   6.548   1.713 -0.8257  1.1985 -0.4706
  285MOL0     H37593   2.462   6.714   1.731 -0.0049 -0.1427  1.5078
  285MOL0     H37594   2.687   6.788   1.649 -0.7373  0.9221 -1.8146
  285MOL0     H37595   2.602   6.725   1.522 -0.8782 -2.5339 -1.4441
  285MOL0     H37596   2.827   6.580   1.658 -1.4155  1.1790  0.4498
  285MOL0     H37597   2.828   6.653   1.503  0.5487  2.6778  1.5716
  285MOL0     H37598   2.786   6.397   1.492  0.3263  0.3600 -0.2382
  285MOL0     H37599   2.638   6.425   1.589  0.0314 -1.7475 -1.1174
  285MOL0     H37600   2.691   6.514   1.304  2.1746 -5.1881  0.8270
  285MOL0     H37601   2.543   6.543   1.413 -1.0346 -1.1049  2.4804
  285MOL0     H37602   2.654   6.602   2.355 -2.1578 -0.6935 -0.4549
  285MOL0     H37603   2.675   6.684   2.594 -0.0755 -3.3358  1.1002
  285MOL0     H37604   2.696   7.166   2.843  1.6201  0.3923  0.3712
  285MOL0     H37605   2.663   7.267   3.073 -1.0229  0.2214  1.0892
  285MOL0     H37606   1.425   8.356   3.394  3.6550  0.3131  1.5126
  285MOL0     H37607   1.290   8.511   3.249  0.1788 -3.3049  1.5085
  285MOL0     H37608   1.072   8.763   3.114  0.0234  1.4170 -2.8885
  285MOL0     H37609   0.885   8.819   2.972  1.3668 -2.9415  1.1262
  285MOL0     H37610   0.484   8.999   3.032  2.7111  0.6775 -0.2862
  285MOL0     H37611   0.540   8.985   3.194  0.4555 -1.4281  0.2810
  285MOL0     H37612   0.485   8.750   2.993  0.6356 -1.2287  0.4115
  285MOL0     H37613   0.612   8.752   3.117 -0.6869  0.6436  0.6746
  285MOL0     H37614   0.437   8.820   3.290 -2.6368 -0.2658  1.4379
  285MOL0     H37615   0.392   8.667   3.206 -0.8302 -0.2518 -2.5583
  285MOL0     H37616   0.195   8.809   3.247 -1.1303 -0.2827 -1.5602
  285MOL0     H37617   0.275   8.934   3.154  0.4628  0.8330 -0.2883
  285MOL0     H37618   0.126   8.639   2.880 -1.2789 -0.1926 -0.5868
  285MOL0     H37619   0.745   9.066   3.290 -0.9691 -0.3969  0.1856
  285MOL0     H37620   0.926   9.006   3.420  3.1256 -1.3271  0.5197
  286MOL0     O37621   5.000   0.794   0.612  0.5443  0.1228 -0.5607
  286MOL0     C37622   4.961   0.802   0.727 -0.3015  0.1409 -0.6754
  286MOL0     O37623   4.978   0.909   0.805 -0.2018 -0.6962  0.3679
  286MOL0     C37624   5.035   1.018   0.757  0.2394 -0.1126 -0.7013
  286MOL0     C37625   4.959   1.121   0.705 -0.0962  0.4326 -0.8168
  286MOL0     C37626   5.021   1.238   0.684 -0.4061 -0.3212 -0.9984
  286MOL0     C37627   5.153   1.259   0.695  0.1026  0.2925  1.0986
  286MOL0     O37628   5.204   1.379   0.660  0.5561  0.1152 -0.7601
  286MOL0     C37629   5.183   1.473   0.767  0.1596  0.2585  0.1840
  286MOL0     C37630   5.288   1.452   0.872 -0.8723 -0.5106 -0.3631
  286MOL0     C37631   5.428   1.516   0.844  0.0431  0.0263  0.6974
  286MOL0     C37632   5.547   1.437   0.904  0.3808 -0.4765 -0.1114
  286MOL0     C37633   5.684   1.478   0.838  0.3331  0.3812 -0.0754
  286MOL0     C37634   5.692   1.415   0.699  0.0314 -0.0628  0.6970
  286MOL0     C37635   5.830   1.412   0.637 -0.5094 -0.2370  0.3283
  286MOL0     C37636   5.833   1.357   0.496  0.1433  0.2553  0.1908
  286MOL0     N37637   5.963   1.375   0.434  0.6707  0.2636 -0.1841
  286MOL0     C37638   6.017   1.488   0.369 -0.4916 -0.6977  0.3278
  286MOL0     C37639   6.137   1.449   0.329  0.7993 -0.7924 -0.5611
  286MOL0     C37640   6.230   1.526   0.244 -0.2008  0.9670  0.3907
  286MOL0     C37641   6.298   1.637   0.317 -0.2838  0.4949 -0.5877
  286MOL0     C37642   6.421   1.596   0.403  0.2197  0.3175 -1.0850
  286MOL0     C37643   6.494   1.472   0.345  0.7574  1.2911  0.7952
  286MOL0     O37644   6.555   1.524   0.231  0.3489 -0.2917  0.2238
  286MOL0     C37645   6.593   1.438   0.134 -0.7086  0.6663 -0.7762
  286MOL0     C37646   6.621   1.304   0.152 -0.3080  1.1337 -0.2603
  286MOL0     C37647   6.656   1.212   0.052 -0.4974 -0.2344 -0.0021
  286MOL0     C37648   6.690   1.263  -0.077 -0.9732 -0.3992 -0.2316
  286MOL0     C37649   6.739   1.179  -0.182  0.4364 -0.1574 -0.4150
  286MOL0     O37650   6.781   1.244  -0.297 -0.0160  0.2676  0.5424
  286MOL0     C37651   6.777   1.186  -0.423 -0.0484  0.1115  0.4188
  286MOL0     C37652   6.694   1.083  -0.469 -0.8613  0.4530  0.3157
  286MOL0     C37653   6.692   1.034  -0.597 -0.0994 -0.1884 -0.2093
  286MOL0     C37654   6.778   1.097  -0.699 -0.3801 -0.2723 -0.2350
  286MOL0     O37655   6.781   1.058  -0.832 -0.1667 -1.0468 -0.2287
  286MOL0     C37656   6.662   1.002  -0.876  0.5231 -0.3360  0.5044
  286MOL0     C37657   6.655   0.975  -1.031 -0.8407  0.7804 -0.5831
  286MOL0     C37658   6.786   0.960  -1.112  0.7855  0.3887  0.4364
  286MOL0     C37659   6.743   0.929  -1.253  0.5236 -0.2353 -0.0629
  286MOL0     C37660   6.859   0.902  -1.343 -1.0118 -1.0172  1.1321
  286MOL0     C37661   6.810   0.844  -1.480  0.0302  0.9056 -0.2520
  286MOL0     C37662   6.924   0.837  -1.588  0.1616 -0.2878 -0.0872
  286MOL0     C37663   6.877   0.824  -1.735  1.1354  0.7421 -0.2462
  286MOL0    Cl37664   7.000   0.795  -1.857 -0.4721  0.0402 -0.3622
  286MOL0     C37665   6.868   1.200  -0.649 -0.7438  0.3737  0.1381
  286MOL0     C37666   6.858   1.248  -0.519 -0.0606 -0.3249 -0.2456
  286MOL0     O37667   6.746   1.059  -0.159 -0.2860  0.5805  0.7616
  286MOL0     C37668   6.664   1.409  -0.102 -0.0543  0.6409  0.1984
  286MOL0     C37669   6.617   1.489   0.011 -0.9206 -0.0425  0.6009
  286MOL0     N37670   6.161   1.320   0.363 -1.4442  0.2001 -0.5455
  286MOL0     N37671   6.054   1.277   0.422 -0.1165 -0.5003  0.3688
  286MOL0     C37672   5.231   1.143   0.730 -1.0745 -0.1073 -0.6664
  286MOL0     C37673   5.170   1.030   0.762  0.3048 -0.1685  0.5950
  286MOL0     C37674   4.894   0.687   0.796 -0.4102  0.5199 -0.1589
  286MOL0     C37675   4.869   0.561   0.729 -0.4961 -0.8909 -0.5486
  286MOL0     C37676   4.834   0.445   0.793 -0.2445  0.0505  0.2656
  286MOL0     C37677   4.824   0.441   0.935  0.3559  0.0959  0.0800
  286MOL0     O37678   4.820   0.321   0.997  0.9168 -0.5684 -0.4376
  286MOL0     C37679   4.892   0.215   0.935  0.9417 -0.8350 -0.9011
  286MOL0     C37680   4.913   0.107   1.034  0.4349  0.3029  0.4586
  286MOL0     C37681   4.953  -0.037   0.976 -0.0919 -0.1653 -0.2358
  286MOL0     C37682   4.824  -0.097   0.922  0.1814  0.6436  0.0295
  286MOL0     C37683   4.745  -0.151   1.038  0.3533  0.1372 -0.5104
  286MOL0     C37684   4.688  -0.197   1.132 -0.0775  0.1403 -0.1271
  286MOL0     C37685   4.838   0.561   1.003  0.5393 -0.5308 -0.5856
  286MOL0     C37686   4.874   0.686   0.934  0.0108  1.0828 -0.3090
  286MOL0     H37687   4.853   1.105   0.690 -0.0225 -0.3498 -0.5332
  286MOL0     H37688   4.954   1.322   0.665 -0.8806 -0.3571  0.3980
  286MOL0     H37689   5.080   1.468   0.804  0.1965 -0.1546  0.2317
  286MOL0     H37690   5.189   1.569   0.715  1.9516 -0.9140 -1.9395
  286MOL0     H37691   5.304   1.345   0.885  1.1190 -0.4114 -1.6355
  286MOL0     H37692   5.240   1.497   0.959 -1.6238 -0.3669 -0.8393
  286MOL0     H37693   5.430   1.618   0.883 -0.4502  0.1234  0.4855
  286MOL0     H37694   5.444   1.535   0.738  1.7146  0.3599  0.9785
  286MOL0     H37695   5.549   1.456   1.012 -0.0355  0.9898 -0.3404
  286MOL0     H37696   5.529   1.331   0.887 -1.5609 -0.1238 -0.5695
  286MOL0     H37697   5.768   1.445   0.899 -0.0304 -1.6356 -0.5613
  286MOL0     H37698   5.689   1.587   0.828 -1.1823  0.3282 -2.0683
  286MOL0     H37699   5.621   1.461   0.629  2.1690 -0.5974 -1.9808
  286MOL0     H37700   5.664   1.310   0.713 -2.7592  0.7762  2.0096
  286MOL0     H37701   5.864   1.515   0.619 -3.2996  0.9079  1.1341
  286MOL0     H37702   5.910   1.364   0.694  0.0581  3.1323  2.7040
  286MOL0     H37703   5.747   1.397   0.439  1.0270  2.5479  0.3450
  286MOL0     H37704   5.820   1.249   0.501  2.8622 -0.0783  1.4529
  286MOL0     H37705   5.969   1.584   0.352 -2.9529 -1.9362 -0.2117
  286MOL0     H37706   6.162   1.575   0.173 -0.1572  0.7869  0.2252
  286MOL0     H37707   6.294   1.464   0.181 -2.9600  0.1047 -1.7731
  286MOL0     H37708   6.230   1.683   0.388  1.4545  0.0112  1.5219
  286MOL0     H37709   6.336   1.706   0.240  1.3680 -1.4163 -1.5989
  286MOL0     H37710   6.480   1.687   0.420 -0.1435 -0.0529  3.5382
  286MOL0     H37711   6.385   1.568   0.503 -2.6421  2.9889 -1.2004
  286MOL0     H37712   6.435   1.388   0.305  1.8425  1.2385 -0.7989
  286MOL0     H37713   6.569   1.432   0.414  2.6471 -0.6526 -2.1398
  286MOL0     H37714   6.609   1.254   0.247 -0.4312  1.6126 -0.0211
  286MOL0     H37715   6.685   1.113   0.085 -0.9388  0.3514  2.3434
  286MOL0     H37716   6.630   1.032  -0.398 -2.0514  1.2014 -0.1979
  286MOL0     H37717   6.629   0.949  -0.622  1.1917 -0.3544 -3.5160
  286MOL0     H37718   6.580   1.072  -0.859  0.2377 -0.0628 -1.7156
  286MOL0     H37719   6.638   0.907  -0.828  0.8882 -0.4969  0.3710
  286MOL0     H37720   6.601   1.060  -1.074 -2.6078 -0.5618 -1.1617
  286MOL0     H37721   6.596   0.883  -1.043 -0.1393  0.5340 -2.5671
  286MOL0     H37722   6.841   0.876  -1.069 -1.1405 -2.1527 -1.7547
  286MOL0     H37723   6.839   1.056  -1.119 -1.1725  1.4330 -1.3599
  286MOL0     H37724   6.671   0.847  -1.248  0.4080 -0.0628  1.7646
  286MOL0     H37725   6.681   1.013  -1.286  0.7397  0.4507  1.1834
  286MOL0     H37726   6.926   0.835  -1.288 -0.6405 -0.7829  0.9706
  286MOL0     H37727   6.904   0.994  -1.382  0.6294 -2.1804  0.1840
  286MOL0     H37728   6.731   0.900  -1.530  2.1888  2.4763 -2.1228
  286MOL0     H37729   6.765   0.747  -1.456  1.6918  1.2311  5.7654
  286MOL0     H37730   6.994   0.920  -1.575 -0.2570 -0.2038  2.0224
  286MOL0     H37731   6.974   0.745  -1.557 -1.2690 -0.2967  2.4139
  286MOL0     H37732   6.827   0.915  -1.768  0.5665  0.7089  0.4814
  286MOL0     H37733   6.799   0.747  -1.740  2.0672 -0.1398 -2.4371
  286MOL0     H37734   6.944   1.222  -0.722  1.7880 -1.5409  2.0119
  286MOL0     H37735   6.921   1.324  -0.476  1.4315 -2.1660  0.9843
  286MOL0     H37736   6.692   1.450  -0.199  2.7605 -1.2343  0.1020
  286MOL0     H37737   6.589   1.591  -0.013 -2.8446  0.1788  3.3336
  286MOL0     H37738   5.339   1.143   0.740 -0.9588 -2.7958 -1.1774
  286MOL0     H37739   5.228   0.943   0.790 -1.2601 -1.4463  0.0441
  286MOL0     H37740   4.903   0.565   0.626  1.3135 -0.6487  0.0296
  286MOL0     H37741   4.811   0.361   0.727 -0.0320 -0.8215  1.2751
  286MOL0     H37742   4.994   0.250   0.914  0.7471  0.6874  0.4133
  286MOL0     H37743   4.842   0.178   0.845 -1.0515 -0.0104 -0.1932
  286MOL0     H37744   4.999   0.146   1.090  0.5404  0.9175 -0.1149
  286MOL0     H37745   4.832   0.103   1.107  0.6693  0.8233  0.7553
  286MOL0     H37746   5.010  -0.095   1.049  3.6348  1.9440 -1.1799
  286MOL0     H37747   5.018  -0.032   0.889 -1.6751  2.6795 -1.3833
  286MOL0     H37748   4.774  -0.029   0.852 -1.6865 -1.0352 -0.3575
  286MOL0     H37749   4.859  -0.179   0.859  0.4327  1.5856 -1.0938
  286MOL0     H37750   4.649  -0.236   1.224  3.1146 -1.4554  0.7048
  286MOL0     H37751   4.837   0.577   1.110  1.2711  2.0875 -0.8740
  286MOL0     H37752   4.885   0.779   0.989  0.9752  0.7527  0.0744
  287MOL0     O37753   3.016   7.913   8.632  0.8024 -0.3677  0.0766
  287MOL0     C37754   2.904   7.956   8.606 -0.2516 -1.0697  0.7211
  287MOL0     O37755   2.869   8.090   8.620 -0.7053  0.2443  0.3282
  287MOL0     C37756   2.957   8.183   8.632 -0.0278  0.0093  0.1940
  287MOL0     C37757   2.912   8.281   8.714 -0.1079  0.4920 -0.3811
  287MOL0     C37758   2.989   8.393   8.735  0.1660  0.3550 -0.0694
  287MOL0     C37759   3.114   8.401   8.674  0.6989 -0.3478  0.0250
  287MOL0     O37760   3.183   8.517   8.691 -0.6430  0.5418 -0.0295
  287MOL0     C37761   3.320   8.536   8.648  0.3651  0.1027  0.4368
  287MOL0     C37762   3.384   8.682   8.654  0.6471  0.2454 -0.1385
  287MOL0     C37763   3.270   8.782   8.650  0.3896 -0.9074  0.3789
  287MOL0     C37764   3.327   8.924   8.656  0.4180  0.5408  0.4206
  287MOL0     C37765   3.210   9.020   8.660  0.1885  0.7470 -0.8231
  287MOL0     C37766   3.272   9.159   8.640  0.7472  0.0567  0.0522
  287MOL0     C37767   3.173   9.271   8.633 -0.0981  0.5909 -0.0822
  287MOL0     C37768   3.225   9.415   8.649 -1.1829  1.2916  0.6106
  287MOL0     N37769   3.117   9.519   8.678 -0.0803  0.4822  0.5626
  287MOL0     C37770   3.072   9.547   8.811 -0.9625  0.0987 -0.1766
  287MOL0     C37771   2.995   9.647   8.785  0.6786  0.2601  1.1611
  287MOL0     C37772   2.902   9.707   8.886  0.4781  0.1657  0.3354
  287MOL0     C37773   2.977   9.792   8.980 -0.6448  0.2850 -0.0770
  287MOL0     C37774   2.880   9.841   9.091 -0.6212 -0.3112 -0.0714
  287MOL0     C37775   2.945   9.956   9.171  0.1356 -0.2914 -0.0376
  287MOL0     O37776   2.918  10.086   9.126  0.1551  0.1887 -0.1443
  287MOL0     C37777   2.793  10.134   9.123  0.0851 -0.6656  0.5271
  287MOL0     C37778   2.680  10.100   9.200  0.3653  0.4757  0.2886
  287MOL0     C37779   2.563  10.164   9.182  0.2588 -0.6406  0.2012
  287MOL0     C37780   2.547  10.280   9.103  0.3464 -0.0457 -0.5239
  287MOL0     C37781   2.413  10.341   9.085 -1.0215  0.1788 -0.7566
  287MOL0     O37782   2.340  10.340   9.199 -0.1368 -0.7193  0.3144
  287MOL0     C37783   2.216  10.395   9.186  0.0562  0.3315 -0.1776
  287MOL0     C37784   2.176  10.469   9.292  0.8020 -0.0123  0.1233
  287MOL0     C37785   2.050  10.525   9.293  0.2803 -0.0641  0.2402
  287MOL0     C37786   1.957  10.520   9.184 -0.5251  0.7305 -0.0090
  287MOL0     O37787   1.845  10.588   9.194  0.6509  0.1385 -0.3327
  287MOL0     C37788   1.756  10.594   9.078  0.3684 -0.0828 -0.2130
  287MOL0     C37789   1.626  10.686   9.099  1.4462  0.6859 -0.4991
  287MOL0     C37790   1.670  10.840   9.098 -0.7310  0.3694  0.3209
  287MOL0     C37791   1.729  10.880   9.240  0.1165 -0.4756  0.3573
  287MOL0     C37792   1.718  11.027   9.273 -0.2811 -0.7634 -0.7576
  287MOL0     C37793   1.798  11.046   9.408 -1.0788 -0.3976 -0.2935
  287MOL0     C37794   1.838  11.188   9.437 -0.2989 -0.3718 -0.2055
  287MOL0     C37795   1.714  11.263   9.492  1.0403 -0.2369  0.8455
  287MOL0    Cl37796   1.772  11.402   9.589  0.0631  0.0518  0.1183
  287MOL0     C37797   2.002  10.441   9.078 -0.6002  1.4705 -0.5523
  287MOL0     C37798   2.126  10.373   9.083  0.1242 -0.2432 -1.2016
  287MOL0     O37799   2.384  10.387   8.981 -0.0559  0.2803  1.5541
  287MOL0     C37800   2.655  10.318   9.035 -0.9216 -0.1573 -0.2728
  287MOL0     C37801   2.778  10.261   9.053  0.2109  0.6735 -0.1445
  287MOL0     N37802   3.000   9.681   8.652  0.2543 -0.4651 -0.0573
  287MOL0     N37803   3.072   9.598   8.589  0.6864 -0.6228 -0.2137
  287MOL0     C37804   3.154   8.304   8.577  0.8660  0.2884  0.3501
  287MOL0     C37805   3.080   8.190   8.564  0.5902  0.0852  0.4679
  287MOL0     C37806   2.789   7.864   8.563 -0.3772 -0.0121  1.2134
  287MOL0     C37807   2.793   7.719   8.586 -0.6117  0.7185 -0.0863
  287MOL0     C37808   2.688   7.637   8.537 -0.4369 -0.6355 -0.2073
  287MOL0     C37809   2.595   7.687   8.454  0.1026  0.0323  0.1745
  287MOL0     O37810   2.506   7.590   8.407  0.3132  0.4426 -0.1307
  287MOL0     C37811   2.396   7.641   8.312 -0.2666 -1.1232  0.7980
  287MOL0     C37812   2.316   7.520   8.247 -1.0130  0.3163  0.8708
  287MOL0     C37813   2.404   7.421   8.169  0.0696  0.2994  0.0772
  287MOL0     C37814   2.476   7.491   8.052  0.1566  0.6268  0.6940
  287MOL0     C37815   2.409   7.435   7.927 -0.4752  0.5953 -0.1517
  287MOL0     C37816   2.362   7.386   7.825  0.2179 -0.1892  0.3746
  287MOL0     C37817   2.583   7.829   8.430  0.4244  0.3482 -1.0904
  287MOL0     C37818   2.685   7.914   8.477  0.2371 -0.0314 -0.1389
  287MOL0     H37819   2.823   8.262   8.773  1.0682 -2.7434  0.5301
  287MOL0     H37820   2.960   8.466   8.811  1.2866  0.7057  0.0440
  287MOL0     H37821   3.326   8.502   8.545 -0.7668 -1.6400  0.8949
  287MOL0     H37822   3.388   8.473   8.707  3.8016  1.3338 -1.8815
  287MOL0     H37823   3.442   8.702   8.563 -0.1052  0.3832 -0.6010
  287MOL0     H37824   3.446   8.700   8.741  2.4830  7.1859 -2.2711
  287MOL0     H37825   3.200   8.771   8.734  0.2769  0.5366  0.4928
  287MOL0     H37826   3.213   8.782   8.556  1.7350  2.4534 -0.5530
  287MOL0     H37827   3.393   8.927   8.743  1.4984 -1.1647 -0.2807
  287MOL0     H37828   3.386   8.937   8.564 -0.0572  1.3274  0.2211
  287MOL0     H37829   3.161   9.001   8.757 -1.8139  0.8452 -1.7613
  287MOL0     H37830   3.132   9.001   8.586 -1.7021 -0.6442  1.3733
  287MOL0     H37831   3.321   9.167   8.543 -0.3694  0.3255 -0.5093
  287MOL0     H37832   3.339   9.181   8.723 -1.4897 -0.4086  2.1002
  287MOL0     H37833   3.112   9.264   8.542  2.5480 -0.5928 -1.8850
  287MOL0     H37834   3.096   9.265   8.710 -0.3802 -0.9226 -0.4468
  287MOL0     H37835   3.279   9.439   8.557 -0.3255 -2.1091  0.0905
  287MOL0     H37836   3.306   9.429   8.722 -0.6071 -1.4441  0.6084
  287MOL0     H37837   3.094   9.500   8.907  0.8159  0.2483 -0.4624
  287MOL0     H37838   2.868   9.622   8.947  2.1373 -0.2339  0.7451
  287MOL0     H37839   2.832   9.779   8.843  3.3105  3.1896  0.4833
  287MOL0     H37840   3.024   9.865   8.914 -0.3482 -0.6137 -0.9014
  287MOL0     H37841   3.056   9.729   9.022 -1.2526 -0.9009 -0.6356
  287MOL0     H37842   2.783   9.874   9.052 -1.5965 -1.4995  1.2523
  287MOL0     H37843   2.860   9.760   9.161  3.6513 -0.4173  1.2788
  287MOL0     H37844   3.053   9.936   9.172 -0.2798 -2.9143 -1.2035
  287MOL0     H37845   2.921   9.945   9.277  2.2880  0.3251  0.5694
  287MOL0     H37846   2.688  10.029   9.281  1.4941  1.0697  0.7167
  287MOL0     H37847   2.484  10.124   9.246  0.8034 -2.6820 -0.3080
  287MOL0     H37848   2.232  10.485   9.383  3.0641  2.5075 -1.5318
  287MOL0     H37849   2.012  10.571   9.383 -3.9803 -2.5515 -0.0299
  287MOL0     H37850   1.714  10.498   9.044  0.9810  0.2303 -1.9582
  287MOL0     H37851   1.808  10.638   8.993 -2.0133 -0.5466 -2.0040
  287MOL0     H37852   1.561  10.665   9.184  4.1054 -0.6148  1.3445
  287MOL0     H37853   1.558  10.689   9.013 -1.8187  3.9085  1.9166
  287MOL0     H37854   1.579  10.896   9.071 -0.7038 -0.3971 -1.5213
  287MOL0     H37855   1.745  10.875   9.027 -1.0110  3.7464  1.4999
  287MOL0     H37856   1.681  10.820   9.318 -0.9349  1.0622  0.9248
  287MOL0     H37857   1.836  10.858   9.244  0.6515  2.0128  2.0954
  287MOL0     H37858   1.618  11.071   9.268  0.9455  2.1288 -1.5119
  287MOL0     H37859   1.771  11.079   9.193 -2.1915 -0.7692 -2.1019
  287MOL0     H37860   1.897  11.002   9.391  0.2252  1.8549  0.9136
  287MOL0     H37861   1.743  11.006   9.494 -1.4973  0.5335 -0.1130
  287MOL0     H37862   1.909  11.191   9.520 -0.6273  0.7933  0.0522
  287MOL0     H37863   1.880  11.237   9.349  0.5809 -2.9311 -1.2979
  287MOL0     H37864   1.658  11.203   9.564 -1.2078  1.7984  0.9641
  287MOL0     H37865   1.636  11.295   9.421  0.8935 -0.2848  0.9851
  287MOL0     H37866   1.956  10.426   8.981  0.6316  1.7439 -1.1924
  287MOL0     H37867   2.151  10.297   9.010  2.4924 -0.0837 -0.6521
  287MOL0     H37868   2.655  10.400   8.964 -0.7479 -0.9625 -1.2460
  287MOL0     H37869   2.874  10.290   9.012  1.6532 -0.1844  2.3925
  287MOL0     H37870   3.244   8.310   8.517  0.0337  0.6245 -0.8884
  287MOL0     H37871   3.112   8.115   8.492 -0.0279 -0.3095  0.5940
  287MOL0     H37872   2.875   7.669   8.638 -0.3578 -2.1076 -2.8673
  287MOL0     H37873   2.686   7.533   8.568  0.8840 -1.0722 -1.4584
  287MOL0     H37874   2.416   7.716   8.235 -3.4189  3.4170  3.8984
  287MOL0     H37875   2.326   7.704   8.368  0.0818  2.2407 -2.1813
  287MOL0     H37876   2.271   7.463   8.329 -1.0578  0.6126  1.0569
  287MOL0     H37877   2.230   7.550   8.186  0.3156  0.1514 -1.1701
  287MOL0     H37878   2.344   7.333   8.144  0.9002 -0.6525  1.2845
  287MOL0     H37879   2.479   7.382   8.239  2.6130  1.6556 -1.7489
  287MOL0     H37880   2.482   7.600   8.046 -1.7810  0.6770 -1.9694
  287MOL0     H37881   2.583   7.470   8.048  0.1048  0.1816  1.3699
  287MOL0     H37882   2.305   7.331   7.753  0.1474  0.1136  0.1969
  287MOL0     H37883   2.502   7.877   8.375  0.2719  0.0464 -1.1300
  287MOL0     H37884   2.673   8.019   8.449  2.0366  0.8454  2.0614
  288MOL0     O37885  11.102   0.480   9.340  0.5503  0.2622  0.3757
  288MOL0     C37886  11.058   0.586   9.287  0.7890 -0.6996  0.0476
  288MOL0     O37887  11.083   0.714   9.334  0.2670  1.0101 -0.2132
  288MOL0     C37888  11.166   0.730   9.439 -0.5066  0.1651 -0.7926
  288MOL0     C37889  11.116   0.713   9.570 -0.0052  0.4196  0.5097
  288MOL0     C37890  11.205   0.716   9.680 -0.2168  0.9009 -0.2743
  288MOL0     C37891  11.342   0.751   9.662  0.5190 -0.0562 -0.5131
  288MOL0     O37892  11.421   0.734   9.776  0.2860 -0.2448 -0.2060
  288MOL0     C37893  11.525   0.639   9.761  0.0515 -0.0731 -0.4899
  288MOL0     C37894  11.550   0.562   9.892 -0.4957 -0.2140 -0.0419
  288MOL0     C37895  11.421   0.511   9.951 -0.6827  0.5526  0.6867
  288MOL0     C37896  11.447   0.398  10.054 -0.0366 -0.3047 -0.4200
  288MOL0     C37897  11.492   0.432  10.201  0.1454  0.3757 -0.0391
  288MOL0     C37898  11.543   0.306  10.279  0.0118 -0.7637 -0.8821
  288MOL0     C37899  11.592   0.357  10.410 -0.1899  0.1304  0.3918
  288MOL0     C37900  11.675   0.260  10.494 -1.0244 -0.6540  0.1167
  288MOL0     N37901  11.818   0.247  10.447 -0.4989 -0.0429  0.2151
  288MOL0     C37902  11.861   0.155  10.354  0.4448  0.3247 -0.8557
  288MOL0     C37903  11.996   0.154  10.367 -0.5091 -0.2644  0.2142
  288MOL0     C37904  12.080   0.053  10.289 -0.1472 -0.1053  0.2631
  288MOL0     C37905  12.187  -0.015  10.377  0.3414  0.3229  0.2379
  288MOL0     C37906  12.293  -0.110  10.325 -0.1392  0.6545 -0.1173
  288MOL0     C37907  12.366  -0.066  10.210 -0.3084  0.5183  0.0420
  288MOL0     O37908  12.455  -0.178  10.175  0.0644 -0.4474 -0.9933
  288MOL0     C37909  12.483  -0.181  10.043 -0.4979  0.4091 -0.8606
  288MOL0     C37910  12.418  -0.273   9.962  0.2913 -0.2225  0.3157
  288MOL0     C37911  12.447  -0.280   9.829 -0.2964  0.5594  0.1499
  288MOL0     C37912  12.552  -0.201   9.779 -0.3994 -0.4845  0.3239
  288MOL0     C37913  12.576  -0.189   9.630  0.3969 -0.4445  0.9566
  288MOL0     O37914  12.696  -0.135   9.598  0.7115  0.4533 -0.0150
  288MOL0     C37915  12.753  -0.151   9.481 -0.4759 -0.3586 -0.4074
  288MOL0     C37916  12.751  -0.266   9.406 -0.0299  1.7702 -0.5336
  288MOL0     C37917  12.824  -0.257   9.286 -0.0768 -0.2428 -0.5634
  288MOL0     C37918  12.915  -0.153   9.245  0.1260 -0.6941 -0.0907
  288MOL0     O37919  12.987  -0.159   9.131  0.6398  0.3201  0.1960
  288MOL0     C37920  12.961  -0.258   9.031  0.0371  0.6137  0.6410
  288MOL0     C37921  13.040  -0.233   8.903  0.8585  0.2345  0.4573
  288MOL0     C37922  13.190  -0.213   8.929 -0.5733 -0.3124 -0.4923
  288MOL0     C37923  13.262  -0.177   8.793 -0.0889  0.2725 -0.2388
  288MOL0     C37924  13.283  -0.296   8.705 -0.7305 -0.5620  1.4166
  288MOL0     C37925  13.369  -0.263   8.577 -0.3646 -0.0453 -0.8313
  288MOL0     C37926  13.511  -0.209   8.592  0.5463  0.1236  0.0736
  288MOL0     C37927  13.590  -0.291   8.692 -0.4166  0.5156 -0.7489
  288MOL0    Cl37928  13.603  -0.458   8.632 -0.0882  0.3575 -0.5807
  288MOL0     C37929  12.917  -0.045   9.338  1.2542  0.0660 -0.0737
  288MOL0     C37930  12.836  -0.042   9.446  0.1183 -0.2421  0.5152
  288MOL0     O37931  12.489  -0.222   9.549 -0.2197 -0.4326  0.4778
  288MOL0     C37932  12.614  -0.105   9.861 -0.1032  0.3008 -0.4477
  288MOL0     C37933  12.577  -0.094   9.998 -0.4660 -0.7353  1.0017
  288MOL0     N37934  12.040   0.251  10.451  0.2101 -0.1797  0.3055
  288MOL0     N37935  11.928   0.298  10.509 -0.6944  0.1689 -0.1159
  288MOL0     C37936  11.385   0.786   9.535 -0.7524  0.7530 -0.6734
  288MOL0     C37937  11.303   0.770   9.420 -0.1855 -0.0851  0.4498
  288MOL0     C37938  10.949   0.577   9.186  0.3096 -0.4632  0.5067
  288MOL0     C37939  10.928   0.683   9.097  1.4689 -0.3529  0.8799
  288MOL0     C37940  10.828   0.677   8.998  0.0567  0.1905 -0.1591
  288MOL0     C37941  10.751   0.559   8.993  0.3024 -0.4764 -0.7873
  288MOL0     O37942  10.660   0.559   8.892 -0.1079 -0.2350 -0.9337
  288MOL0     C37943  10.602   0.435   8.855  0.0005  1.0099 -0.4590
  288MOL0     C37944  10.502   0.462   8.748  0.1556 -0.9423  0.0133
  288MOL0     C37945  10.376   0.521   8.814 -0.7707 -0.4993 -0.4932
  288MOL0     C37946  10.286   0.589   8.715 -0.1267  0.7065  0.0393
  288MOL0     C37947  10.340   0.708   8.655 -0.2065 -0.3153  0.2416
  288MOL0     C37948  10.411   0.794   8.604  0.7433  0.0610 -0.8615
  288MOL0     C37949  10.769   0.443   9.070 -0.2959 -0.2024  0.0346
  288MOL0     C37950  10.871   0.463   9.167  0.4133 -0.6063 -0.0628
  288MOL0     H37951  11.011   0.690   9.585 -0.2780  0.2100 -1.5525
  288MOL0     H37952  11.183   0.684   9.781  0.1041 -0.3995 -0.6071
  288MOL0     H37953  11.620   0.686   9.731 -0.6311  0.6205 -1.6601
  288MOL0     H37954  11.495   0.569   9.683  0.5410 -0.2432 -0.5296
  288MOL0     H37955  11.602   0.631   9.958  0.8288  0.9427 -2.1531
  288MOL0     H37956  11.628   0.486   9.878  1.1832  1.0234  1.9953
  288MOL0     H37957  11.358   0.466   9.874 -0.8542 -2.9298  2.6163
  288MOL0     H37958  11.359   0.586  10.000 -1.9977 -1.0091  1.4935
  288MOL0     H37959  11.352   0.347  10.069  0.8423 -1.1916  2.9139
  288MOL0     H37960  11.506   0.316  10.011  2.0589 -0.8815  3.1378
  288MOL0     H37961  11.408   0.473  10.257 -1.8082  1.2971 -3.3180
  288MOL0     H37962  11.582   0.492  10.192  1.1120 -1.1555 -1.0197
  288MOL0     H37963  11.626   0.271  10.218 -0.2751 -0.8676 -1.2139
  288MOL0     H37964  11.467   0.229  10.296 -2.0894  1.8083  3.3498
  288MOL0     H37965  11.643   0.454  10.403  0.6889 -0.3251  0.3023
  288MOL0     H37966  11.511   0.377  10.481 -1.1039  0.6688 -0.7622
  288MOL0     H37967  11.629   0.161  10.481  1.4875 -1.8307 -0.4529
  288MOL0     H37968  11.677   0.285  10.600  2.7890 -2.3274  0.6141
  288MOL0     H37969  11.802   0.077  10.307 -0.0690 -2.5154  3.8527
  288MOL0     H37970  12.144   0.101  10.214 -0.9130 -1.6650 -1.4929
  288MOL0     H37971  12.029  -0.026  10.233  0.8963 -0.5847 -0.0237
  288MOL0     H37972  12.125  -0.056  10.457 -2.3300  5.2377  1.0947
  288MOL0     H37973  12.245   0.067  10.420 -0.9593  1.6568 -0.4598
  288MOL0     H37974  12.353  -0.153  10.405 -2.0819 -0.8595  0.5975
  288MOL0     H37975  12.233  -0.195  10.290  0.9257 -0.3582  0.4983
  288MOL0     H37976  12.426   0.023  10.229 -1.6970  1.9103 -1.7333
  288MOL0     H37977  12.302  -0.039  10.125 -2.2366 -0.8793  0.9972
  288MOL0     H37978  12.336  -0.330  10.005 -0.7370 -1.3162 -2.8458
  288MOL0     H37979  12.396  -0.339   9.755 -0.6823  0.9052  0.1376
  288MOL0     H37980  12.693  -0.350   9.442  3.7573 -1.4628 -1.2481
  288MOL0     H37981  12.818  -0.342   9.219  2.7241 -0.9460 -0.0598
  288MOL0     H37982  12.853  -0.256   9.013  0.4227  0.3732 -2.1273
  288MOL0     H37983  12.982  -0.358   9.070  2.4358  0.9046  0.2585
  288MOL0     H37984  12.993  -0.143   8.865 -0.6567 -1.0386 -0.8213
  288MOL0     H37985  13.019  -0.310   8.828 -3.2516  1.0696  0.5026
  288MOL0     H37986  13.227  -0.309   8.964  1.1801  0.9237  1.2528
  288MOL0     H37987  13.197  -0.136   9.006 -3.5644 -0.5957  0.1974
  288MOL0     H37988  13.203  -0.108   8.732 -0.4377 -0.7665 -1.0913
  288MOL0     H37989  13.359  -0.133   8.819  0.8184 -2.2245  0.8813
  288MOL0     H37990  13.191  -0.345   8.670 -0.1432 -0.2206 -0.7926
  288MOL0     H37991  13.343  -0.369   8.760 -1.6825 -0.3443  2.8043
  288MOL0     H37992  13.303  -0.196   8.522 -2.1703 -0.6622  0.5191
  288MOL0     H37993  13.374  -0.358   8.524  0.1145  0.6659 -2.1196
  288MOL0     H37994  13.567  -0.215   8.498 -1.9014 -0.2568 -1.4534
  288MOL0     H37995  13.509  -0.105   8.627 -1.5720  0.1019  0.1430
  288MOL0     H37996  13.545  -0.310   8.790 -1.7365 -1.5399 -1.6915
  288MOL0     H37997  13.688  -0.249   8.720 -2.7965  3.3744  4.9280
  288MOL0     H37998  12.969   0.042   9.299 -0.3540  0.5738 -1.1981
  288MOL0     H37999  12.845   0.045   9.510  2.4076 -1.0963  1.4363
  288MOL0     H38000  12.693  -0.036   9.833  0.1756  0.9511  1.7754
  288MOL0     H38001  12.623  -0.031  10.074  3.0599 -1.2945 -0.4639
  288MOL0     H38002  11.491   0.809   9.539 -0.6177  0.1731  3.1829
  288MOL0     H38003  11.351   0.801   9.328  2.5125  2.7438  2.5929
  288MOL0     H38004  10.978   0.779   9.111 -0.3347  0.6197  0.9927
  288MOL0     H38005  10.817   0.758   8.926 -2.5861 -0.9875 -1.2348
  288MOL0     H38006  10.564   0.371   8.936 -0.3324  0.3006 -1.1643
  288MOL0     H38007  10.677   0.368   8.814 -1.5535 -2.7730  2.2336
  288MOL0     H38008  10.549   0.534   8.680  0.7608 -1.6225 -0.3098
  288MOL0     H38009  10.476   0.364   8.707  2.2016 -1.4961 -0.0707
  288MOL0     H38010  10.396   0.600   8.887  1.8026  0.6318 -2.2848
  288MOL0     H38011  10.314   0.444   8.861 -2.8540  1.1986 -0.3211
  288MOL0     H38012  10.265   0.519   8.634  0.7593 -1.1595  1.3561
  288MOL0     H38013  10.187   0.613   8.756 -0.9351 -1.6852 -0.3752
  288MOL0     H38014  10.491   0.860   8.577  1.8166 -1.6605 -2.0495
  288MOL0     H38015  10.713   0.349   9.072 -1.5485  0.4441 -1.6615
  288MOL0     H38016  10.890   0.385   9.241  2.1242  0.6388  0.8744
  289MOL0     O38017  11.435   7.716   1.710 -0.9061  0.1740  0.4306
  289MOL0     C38018  11.467   7.652   1.813  0.1172  0.2336  0.2850
  289MOL0     O38019  11.589   7.608   1.849 -0.9527  0.1272 -0.2726
  289MOL0     C38020  11.705   7.654   1.785 -0.3429 -0.4054 -0.1467
  289MOL0     C38021  11.819   7.669   1.871  0.4481 -0.0985  0.6332
  289MOL0     C38022  11.946   7.720   1.825 -0.0315  1.2557  0.0058
  289MOL0     C38023  11.968   7.730   1.684 -0.2684 -0.4591 -0.6993
  289MOL0     O38024  12.097   7.764   1.633  0.4220 -0.1876  0.6530
  289MOL0     C38025  12.162   7.886   1.683  0.0882 -0.3412  0.2609
  289MOL0     C38026  12.294   7.929   1.602 -0.5507  0.6864  0.1357
  289MOL0     C38027  12.286   7.940   1.451  0.6964  0.2551  0.7802
  289MOL0     C38028  12.412   8.012   1.404  0.6430 -0.4660  0.2586
  289MOL0     C38029  12.400   8.047   1.257 -0.0999 -0.6003  0.1217
  289MOL0     C38030  12.534   8.062   1.178  0.1141 -0.3346  0.7710
  289MOL0     C38031  12.623   8.170   1.238  0.4193  0.5817 -0.4464
  289MOL0     C38032  12.774   8.171   1.190  0.0136 -0.2416  0.1454
  289MOL0     N38033  12.799   8.196   1.047 -0.1505  0.6306 -0.7650
  289MOL0     C38034  12.845   8.099   0.965 -0.0002 -0.6060  0.4692
  289MOL0     C38035  12.830   8.153   0.838 -1.2743  0.8285  0.1231
  289MOL0     C38036  12.868   8.079   0.708 -0.0565 -0.9014 -0.1575
  289MOL0     C38037  12.804   8.128   0.582  0.1232 -0.4891 -0.9916
  289MOL0     C38038  12.654   8.139   0.593 -0.8274 -1.0519 -1.0076
  289MOL0     C38039  12.608   8.188   0.463 -0.7042 -0.5095 -0.4484
  289MOL0     O38040  12.484   8.248   0.478  0.7667  0.1077  0.7294
  289MOL0     C38041  12.468   8.370   0.529 -0.5219  0.4917  0.2068
  289MOL0     C38042  12.573   8.462   0.556  0.0452  0.3104  0.2935
  289MOL0     C38043  12.545   8.588   0.592 -0.7928  0.3720  0.1875
  289MOL0     C38044  12.410   8.626   0.596 -0.8165  0.3521  1.3922
  289MOL0     C38045  12.378   8.761   0.627  0.9615 -1.1540 -0.0949
  289MOL0     O38046  12.307   8.777   0.745 -0.4318  0.4117 -0.2252
  289MOL0     C38047  12.268   8.898   0.782  0.4025 -0.3796 -0.0154
  289MOL0     C38048  12.142   8.937   0.763 -0.3436 -0.3434 -0.8310
  289MOL0     C38049  12.102   9.055   0.818 -0.4724 -1.6846  0.0606
  289MOL0     C38050  12.179   9.142   0.898  0.2650 -0.8157 -0.5210
  289MOL0     O38051  12.146   9.269   0.933 -0.4114  0.2168 -0.1575
  289MOL0     C38052  12.018   9.316   0.902 -0.2049 -0.3918  1.1258
  289MOL0     C38053  11.986   9.459   0.956 -0.1651  0.8469  0.1863
  289MOL0     C38054  11.838   9.499   0.907  0.5619  0.1642 -0.2409
  289MOL0     C38055  11.765   9.600   1.002 -0.2169  0.3402  0.0753
  289MOL0     C38056  11.614   9.619   0.949  0.1943 -0.8080 -0.5455
  289MOL0     C38057  11.526   9.504   1.011  0.1280  0.5170  0.1971
  289MOL0     C38058  11.374   9.516   0.978  0.2383  0.1654  0.4714
  289MOL0     C38059  11.314   9.372   0.981  0.0713 -0.3260 -0.1806
  289MOL0    Cl38060  11.391   9.263   0.867 -0.7423 -0.2444  0.0358
  289MOL0     C38061  12.310   9.096   0.917 -0.0922 -0.6093 -0.2535
  289MOL0     C38062  12.354   8.981   0.858 -0.0710  0.1772 -0.3244
  289MOL0     O38063  12.413   8.854   0.553 -0.0325  0.3423 -0.0481
  289MOL0     C38064  12.298   8.539   0.575  0.1147 -0.3154 -0.2307
  289MOL0     C38065  12.334   8.413   0.542  0.1947 -0.7818  0.1271
  289MOL0     N38066  12.785   8.285   0.855  0.3294 -0.9808 -0.5089
  289MOL0     N38067  12.764   8.308   0.987  0.3656  0.3554 -0.2269
  289MOL0     C38068  11.858   7.723   1.597  0.5233 -0.8289 -0.0910
  289MOL0     C38069  11.731   7.688   1.651 -0.3083 -0.3480  0.1011
  289MOL0     C38070  11.343   7.620   1.891 -0.2554 -1.0479 -0.0390
  289MOL0     C38071  11.354   7.563   2.009  0.2486 -0.2575 -0.4634
  289MOL0     C38072  11.238   7.557   2.091  0.0016  0.3020 -0.3040
  289MOL0     C38073  11.104   7.583   2.046 -0.3611  0.1904  0.1307
  289MOL0     O38074  10.989   7.574   2.121 -0.8510  0.0146  0.4837
  289MOL0     C38075  10.994   7.494   2.245  0.1563  1.0111 -0.6257
  289MOL0     C38076  10.862   7.425   2.276  0.4535  0.1459  0.4994
  289MOL0     C38077  10.843   7.296   2.217 -0.3629  0.7124  0.7616
  289MOL0     C38078  10.716   7.227   2.282  0.0631 -0.2656  0.5254
  289MOL0     C38079  10.716   7.077   2.267  0.5124  0.2600 -0.1813
  289MOL0     C38080  10.709   6.955   2.263  0.8013  0.4808  0.2360
  289MOL0     C38081  11.100   7.627   1.914 -0.3415 -0.7342  0.3191
  289MOL0     C38082  11.212   7.659   1.842 -0.4503 -0.4086 -0.0970
  289MOL0     H38083  11.805   7.650   1.977  0.5916  2.9623  1.3059
  289MOL0     H38084  12.028   7.750   1.890 -1.3357  1.0262  1.8534
  289MOL0     H38085  12.186   7.892   1.790 -0.8879  1.4692  0.4165
  289MOL0     H38086  12.107   7.979   1.667  0.7957  0.2071  0.9236
  289MOL0     H38087  12.373   7.857   1.625 -1.9531 -1.1353 -0.5519
  289MOL0     H38088  12.317   8.028   1.643  0.7782 -0.1505  1.5234
  289MOL0     H38089  12.207   8.004   1.409  2.5594  2.0081 -0.2864
  289MOL0     H38090  12.272   7.845   1.399  3.3957  0.6871 -0.9503
  289MOL0     H38091  12.428   8.107   1.456  0.9556  0.1880 -0.9906
  289MOL0     H38092  12.504   7.955   1.422  1.8012  1.1094 -0.4095
  289MOL0     H38093  12.343   8.140   1.254 -0.1126 -0.6215 -1.8590
  289MOL0     H38094  12.333   7.974   1.210 -2.3781  0.4267  1.5686
  289MOL0     H38095  12.514   8.075   1.071  1.0181 -0.1132  0.6236
  289MOL0     H38096  12.579   7.965   1.201 -1.0444 -0.9525  0.5247
  289MOL0     H38097  12.571   8.263   1.212  0.0650  0.3154 -0.6890
  289MOL0     H38098  12.624   8.144   1.344 -3.2406 -2.7678 -0.9816
  289MOL0     H38099  12.815   8.072   1.215  1.1262  0.1175 -0.1848
  289MOL0     H38100  12.833   8.250   1.238  0.9576 -1.7149  1.5206
  289MOL0     H38101  12.845   7.995   0.996 -1.2913 -0.5501  0.6966
  289MOL0     H38102  12.854   7.972   0.724  2.5772 -1.1860  0.7715
  289MOL0     H38103  12.973   8.095   0.680 -0.1957  2.8032  0.9029
  289MOL0     H38104  12.834   8.061   0.501  2.2977 -0.7888 -0.0244
  289MOL0     H38105  12.847   8.228   0.568 -3.0070  1.2085  0.5135
  289MOL0     H38106  12.612   8.040   0.609  2.0275 -2.3144 -0.7713
  289MOL0     H38107  12.622   8.215   0.664 -0.1485  0.0517 -1.8426
  289MOL0     H38108  12.603   8.106   0.390  3.4186 -1.9575  0.5637
  289MOL0     H38109  12.678   8.265   0.429 -0.2643  0.0243  1.5759
  289MOL0     H38110  12.677   8.433   0.545 -0.2963 -0.3568 -1.5286
  289MOL0     H38111  12.630   8.647   0.625 -0.1267 -1.2981  1.6527
  289MOL0     H38112  12.065   8.872   0.723  0.6220 -2.7825  1.0037
  289MOL0     H38113  12.000   9.090   0.810 -0.3162 -0.4790  2.3452
  289MOL0     H38114  11.950   9.241   0.943  1.4095 -3.6955 -1.7050
  289MOL0     H38115  12.005   9.303   0.794  2.0318 -2.8684  1.0407
  289MOL0     H38116  12.063   9.526   0.916  0.5702 -0.8496 -1.4059
  289MOL0     H38117  11.975   9.461   1.065 -0.3192 -0.4531  0.2099
  289MOL0     H38118  11.777   9.409   0.914  2.0777 -1.0229 -1.5531
  289MOL0     H38119  11.839   9.531   0.802 -2.9892  0.6457 -0.2466
  289MOL0     H38120  11.780   9.585   1.109 -2.6748  2.8426  0.8890
  289MOL0     H38121  11.810   9.700   1.003 -0.0886  0.2961  1.5067
  289MOL0     H38122  11.621   9.611   0.840  1.4319  2.7282 -0.8363
  289MOL0     H38123  11.560   9.710   0.976  3.0153  1.6574 -2.6532
  289MOL0     H38124  11.537   9.483   1.117 -3.7004  1.6480  0.9853
  289MOL0     H38125  11.571   9.417   0.964  0.0905  0.4725  0.2433
  289MOL0     H38126  11.322   9.586   1.044 -0.6125 -2.0896  2.3385
  289MOL0     H38127  11.371   9.563   0.879 -0.4098 -1.3891 -0.2906
  289MOL0     H38128  11.214   9.375   0.937 -0.5577  1.6091  1.2645
  289MOL0     H38129  11.311   9.353   1.088 -1.1329 -0.6833 -0.2643
  289MOL0     H38130  12.383   9.143   0.981 -1.2422  0.2829  0.4219
  289MOL0     H38131  12.452   8.940   0.881 -1.1282 -2.7406 -0.6585
  289MOL0     H38132  12.190   8.550   0.581  0.0312 -0.6157 -1.0635
  289MOL0     H38133  12.261   8.337   0.517  0.2266 -0.1484 -2.0383
  289MOL0     H38134  11.883   7.748   1.494  0.2668  1.4204  0.3487
  289MOL0     H38135  11.652   7.672   1.579  2.2722  0.2097 -3.0980
  289MOL0     H38136  11.449   7.526   2.047 -0.2772  0.1241  1.2813
  289MOL0     H38137  11.246   7.526   2.195 -2.8275 -2.4135 -0.7583
  289MOL0     H38138  11.029   7.562   2.324  1.5899 -1.5450  1.1066
  289MOL0     H38139  11.063   7.410   2.236 -0.8753  0.3550 -3.1941
  289MOL0     H38140  10.867   7.407   2.384  2.3876 -2.7994  0.0223
  289MOL0     H38141  10.782   7.495   2.252 -0.1885 -1.2147 -1.6350
  289MOL0     H38142  10.935   7.241   2.238  1.2162  2.0236 -2.0983
  289MOL0     H38143  10.838   7.301   2.108 -0.0361  1.8549  0.7778
  289MOL0     H38144  10.713   7.251   2.389  1.3614  2.9794 -0.0712
  289MOL0     H38145  10.619   7.260   2.243  0.2525  0.4608  0.6614
  289MOL0     H38146  10.716   6.848   2.270  1.4610  0.0705 -3.8201
  289MOL0     H38147  11.006   7.650   1.865 -0.4179 -0.9259  0.3760
  289MOL0     H38148  11.204   7.715   1.750  2.4628 -1.3227 -1.0310
  290MOL0     O38149   9.461   7.932   4.582  0.3898 -1.0535  0.3723
  290MOL0     C38150   9.391   8.027   4.583 -0.1994 -0.4991  0.0850
  290MOL0     O38151   9.255   8.027   4.604 -0.1374 -0.9939 -1.1474
  290MOL0     C38152   9.181   7.912   4.633 -0.3875 -0.5055 -0.3549
  290MOL0     C38153   9.222   7.777   4.626  0.3730 -0.8777  0.3251
  290MOL0     C38154   9.140   7.670   4.656 -0.7203 -0.0948  0.1073
  290MOL0     C38155   9.016   7.695   4.708  0.4564 -0.4936  0.9512
  290MOL0     O38156   8.947   7.586   4.744 -0.1024 -0.9083  0.1411
  290MOL0     C38157   8.990   7.512   4.861  0.1224  0.5829  0.3461
  290MOL0     C38158   8.878   7.435   4.937  0.2952  0.1160 -0.0606
  290MOL0     C38159   8.933   7.343   5.050 -0.4820 -0.2813 -0.0939
  290MOL0     C38160   8.991   7.211   4.983  0.5979 -0.0948 -0.2104
  290MOL0     C38161   9.026   7.100   5.085  0.0890 -0.4283 -0.1107
  290MOL0     C38162   9.163   7.121   5.163 -0.8529  1.6936 -0.5109
  290MOL0     C38163   9.177   7.007   5.278  0.9168 -1.1463  0.3217
  290MOL0     C38164   9.295   7.005   5.367  0.7679 -1.0257  0.3520
  290MOL0     N38165   9.301   7.124   5.452 -0.1390 -0.3487 -0.3383
  290MOL0     C38166   9.330   7.251   5.410 -1.1211  0.5663  0.4766
  290MOL0     C38167   9.299   7.325   5.522 -0.4576  0.0300  0.1244
  290MOL0     C38168   9.335   7.467   5.546  0.5661 -0.7924 -0.0876
  290MOL0     C38169   9.460   7.463   5.633  0.0417  0.0969  0.1966
  290MOL0     C38170   9.512   7.601   5.670 -0.3387  0.2721  0.1494
  290MOL0     C38171   9.632   7.566   5.761 -0.5854 -0.5363 -0.8130
  290MOL0     O38172   9.711   7.673   5.817 -0.5730 -0.1706  0.4192
  290MOL0     C38173   9.815   7.629   5.894 -0.7404  0.1179 -1.0944
  290MOL0     C38174   9.862   7.505   5.932  0.8320  0.8527  0.6582
  290MOL0     C38175   9.953   7.483   6.039  0.4892  0.0336  0.2576
  290MOL0     C38176  10.011   7.599   6.098  0.2336 -0.4008 -0.1616
  290MOL0     C38177  10.095   7.573   6.216  0.0164 -0.0084  0.8137
  290MOL0     O38178  10.107   7.446   6.258 -0.9919 -0.0838  0.5885
  290MOL0     C38179  10.191   7.413   6.352 -0.0853  0.3303 -0.7499
  290MOL0     C38180  10.134   7.360   6.479  0.1450  0.2143 -0.1067
  290MOL0     C38181  10.230   7.319   6.578  0.6029  0.3841  0.4166
  290MOL0     C38182  10.365   7.314   6.547  0.6403  0.2440 -0.2514
  290MOL0     O38183  10.456   7.276   6.646  0.5142 -0.0361  0.0864
  290MOL0     C38184  10.416   7.230   6.780  0.0483  0.4541 -0.3425
  290MOL0     C38185  10.528   7.146   6.830 -0.1205 -0.0367  0.1909
  290MOL0     C38186  10.505   7.081   6.967 -0.2206  0.1966  0.3185
  290MOL0     C38187  10.433   7.169   7.069 -0.7959 -0.0586  0.2829
  290MOL0     C38188  10.411   7.104   7.212  0.3197  0.1500  1.0686
  290MOL0     C38189  10.326   6.960   7.214  0.3657 -0.5219  0.2309
  290MOL0     C38190  10.283   6.932   7.358  0.0239  0.0543 -0.3464
  290MOL0     C38191  10.192   6.807   7.375  1.2127 -0.2530  0.2186
  290MOL0    Cl38192  10.022   6.852   7.331 -0.1322 -0.0566 -0.4227
  290MOL0     C38193  10.410   7.356   6.422 -0.5622  0.6250 -0.4721
  290MOL0     C38194  10.326   7.401   6.322  0.0736  0.9006  0.2948
  290MOL0     O38195  10.147   7.663   6.266 -0.2937  0.5154  0.2669
  290MOL0     C38196   9.976   7.725   6.043  0.8301  0.2051 -0.7214
  290MOL0     C38197   9.886   7.732   5.944  0.3981  0.9315 -0.7609
  290MOL0     N38198   9.244   7.257   5.617  1.4734 -0.4413 -0.4038
  290MOL0     N38199   9.254   7.132   5.579  0.3436 -0.3168 -0.5745
  290MOL0     C38200   8.973   7.829   4.729 -0.5904  0.0914 -0.4437
  290MOL0     C38201   9.055   7.933   4.686  0.2385  0.4238 -1.0516
  290MOL0     C38202   9.445   8.154   4.543 -0.4351  1.0434 -0.3899
  290MOL0     C38203   9.572   8.153   4.480  0.1053  0.1762  0.7328
  290MOL0     C38204   9.614   8.275   4.426 -0.1280  0.1010  0.0604
  290MOL0     C38205   9.542   8.389   4.428  0.9395  0.1381 -1.2290
  290MOL0     O38206   9.597   8.494   4.377 -0.7824 -0.5866  0.1279
  290MOL0     C38207   9.530   8.545   4.263 -0.0989 -0.4961  0.1560
  290MOL0     C38208   9.633   8.605   4.169  0.9538 -0.7860  0.3344
  290MOL0     C38209   9.583   8.631   4.026 -0.0266 -0.5348  0.7394
  290MOL0     C38210   9.631   8.760   3.949 -0.3861  0.5522  0.1319
  290MOL0     C38211   9.774   8.753   3.901  0.3023  0.5575  0.8374
  290MOL0     C38212   9.893   8.769   3.885  0.5881  1.0767  0.7923
  290MOL0     C38213   9.421   8.395   4.492  0.5092  0.2343  0.5869
  290MOL0     C38214   9.371   8.279   4.551 -0.2608 -0.2972 -0.0584
  290MOL0     H38215   9.313   7.741   4.580 -0.6648 -1.0443 -1.7007
  290MOL0     H38216   9.172   7.567   4.642  0.2839  0.3446 -0.9003
  290MOL0     H38217   9.049   7.575   4.928  1.1775  2.8038 -2.4758
  290MOL0     H38218   9.062   7.438   4.823 -1.5308  0.4264 -2.8475
  290MOL0     H38219   8.809   7.387   4.867 -0.1785  1.8233 -0.8316
  290MOL0     H38220   8.818   7.508   4.992  1.0392 -1.3804  2.9326
  290MOL0     H38221   8.841   7.314   5.102 -2.2204  1.1528 -2.2215
  290MOL0     H38222   9.000   7.393   5.121 -1.4418  1.0013 -0.0569
  290MOL0     H38223   8.910   7.171   4.922 -0.6278  0.3854  1.0646
  290MOL0     H38224   9.072   7.230   4.912 -0.7056 -0.2722 -1.8151
  290MOL0     H38225   9.027   7.003   5.035 -3.4644 -1.7493  1.9667
  290MOL0     H38226   8.941   7.099   5.154 -0.1044 -1.3922 -0.3473
  290MOL0     H38227   9.159   7.213   5.222 -5.3475  2.2893 -1.3727
  290MOL0     H38228   9.237   7.114   5.083 -1.0614  3.7768 -0.9574
  290MOL0     H38229   9.087   7.025   5.338 -2.3430  1.7382 -4.7629
  290MOL0     H38230   9.169   6.917   5.217  2.8038 -0.2196 -1.4263
  290MOL0     H38231   9.387   7.002   5.307  0.5124  0.3091 -0.1532
  290MOL0     H38232   9.296   6.912   5.424  0.6246  0.2595  2.5868
  290MOL0     H38233   9.392   7.274   5.324 -0.7844  2.5058  1.1904
  290MOL0     H38234   9.246   7.517   5.586 -0.0273 -1.3956 -0.6217
  290MOL0     H38235   9.357   7.520   5.453 -0.4180  1.3620  0.8353
  290MOL0     H38236   9.537   7.416   5.571 -0.4390 -0.5407  0.0715
  290MOL0     H38237   9.441   7.412   5.727  0.6723 -0.6110 -0.0540
  290MOL0     H38238   9.531   7.665   5.583  0.3680 -0.0577  0.0567
  290MOL0     H38239   9.431   7.650   5.725 -0.3844  0.0323  0.2960
  290MOL0     H38240   9.705   7.499   5.715  0.5416  0.5045 -0.5976
  290MOL0     H38241   9.599   7.517   5.854  3.4748  0.1697  1.2268
  290MOL0     H38242   9.806   7.419   5.895 -1.0586  1.8228  1.1398
  290MOL0     H38243   9.973   7.377   6.052  1.1195 -0.0989 -1.5274
  290MOL0     H38244  10.027   7.348   6.493  0.3011 -3.7518 -1.2045
  290MOL0     H38245  10.191   7.296   6.677  2.9361 -1.9368  0.9040
  290MOL0     H38246  10.332   7.160   6.776  0.9466 -0.5965 -1.5976
  290MOL0     H38247  10.386   7.317   6.840 -1.2646  1.2282 -2.0050
  290MOL0     H38248  10.611   7.213   6.854  0.1222  0.0828 -0.9319
  290MOL0     H38249  10.564   7.068   6.763  1.9285 -2.0805  3.4085
  290MOL0     H38250  10.586   7.032   7.022 -3.1513 -3.8067  1.4633
  290MOL0     H38251  10.438   6.998   6.944  1.6621 -1.0101 -1.1025
  290MOL0     H38252  10.490   7.262   7.080  0.9756 -1.1716  0.8683
  290MOL0     H38253  10.331   7.185   7.033 -1.1886 -0.2523  1.2716
  290MOL0     H38254  10.373   7.178   7.283  1.8884  1.1131  0.9574
  290MOL0     H38255  10.508   7.077   7.256  1.0738  1.1059  0.0503
  290MOL0     H38256  10.381   6.874   7.175  0.7939 -0.1371 -0.0252
  290MOL0     H38257  10.235   6.980   7.157  0.6918  1.0192  0.1989
  290MOL0     H38258  10.377   6.900   7.403  0.4688  0.3168 -1.0698
  290MOL0     H38259  10.241   7.021   7.405 -3.3475 -1.8903  0.6586
  290MOL0     H38260  10.188   6.773   7.479 -1.9045 -0.6355  0.0782
  290MOL0     H38261  10.227   6.728   7.307 -0.4755  0.1150 -1.1602
  290MOL0     H38262  10.518   7.352   6.422 -0.5539  0.3985  0.5101
  290MOL0     H38263  10.359   7.438   6.226  1.0480  0.1705  0.3343
  290MOL0     H38264   9.997   7.812   6.105 -1.6451 -0.1687  0.8070
  290MOL0     H38265   9.839   7.824   5.913 -1.2814 -0.2487 -1.9041
  290MOL0     H38266   8.883   7.858   4.782 -0.2430  4.4160 -1.8558
  290MOL0     H38267   9.019   8.034   4.701  0.6480  0.3883  0.3290
  290MOL0     H38268   9.637   8.066   4.482 -3.9787 -3.2364  2.7591
  290MOL0     H38269   9.719   8.281   4.398  0.8520  0.6451  3.3710
  290MOL0     H38270   9.459   8.624   4.289  0.9540  1.8291 -3.2107
  290MOL0     H38271   9.482   8.463   4.209  0.0436  1.0899 -2.5807
  290MOL0     H38272   9.681   8.689   4.220 -0.7799 -0.7521  2.0282
  290MOL0     H38273   9.714   8.533   4.157  0.8197 -0.7924 -0.5854
  290MOL0     H38274   9.474   8.638   4.036  0.1881  4.9211  2.4571
  290MOL0     H38275   9.618   8.547   3.964  1.2234 -0.9556  1.9474
  290MOL0     H38276   9.561   8.762   3.864  2.2887  0.8099 -2.2045
  290MOL0     H38277   9.617   8.851   4.009 -1.0421  0.3361  0.3224
  290MOL0     H38278   9.998   8.764   3.865  0.3772 -2.0793 -0.0356
  290MOL0     H38279   9.383   8.497   4.496  0.1888  0.1282  0.2693
  290MOL0     H38280   9.271   8.285   4.592 -0.2524 -1.1104  0.1036
  291MOL0     O38281   0.577   1.516   7.210 -1.1403 -0.2238 -0.3298
  291MOL0     C38282   0.681   1.584   7.205 -0.2733  0.5759 -0.9104
  291MOL0     O38283   0.787   1.572   7.125 -0.7047 -0.1841  0.1244
  291MOL0     C38284   0.793   1.452   7.053  0.1988  0.1209  0.6720
  291MOL0     C38285   0.767   1.445   6.909 -0.8752 -0.3243 -0.2551
  291MOL0     C38286   0.782   1.339   6.832  0.1496  0.2005  0.1413
  291MOL0     C38287   0.836   1.222   6.889 -0.1767  0.2375  0.5720
  291MOL0     O38288   0.855   1.110   6.803  0.0323 -0.1235 -0.0161
  291MOL0     C38289   0.777   0.995   6.819 -0.7730  0.1521 -0.7488
  291MOL0     C38290   0.801   0.900   6.699  0.2964  0.2409 -0.3696
  291MOL0     C38291   0.920   0.811   6.700 -0.1693  0.3648 -0.3581
  291MOL0     C38292   1.044   0.896   6.726 -0.8001 -0.1169 -0.3845
  291MOL0     C38293   1.177   0.814   6.755  0.0247  0.4798  0.6535
  291MOL0     C38294   1.208   0.747   6.607  0.0314 -0.0541 -0.1142
  291MOL0     C38295   1.352   0.695   6.588 -0.4051  0.7269  0.1521
  291MOL0     C38296   1.445   0.810   6.531  0.3403 -0.3266 -1.1505
  291MOL0     N38297   1.580   0.752   6.495  0.2689  0.5612 -0.5755
  291MOL0     C38298   1.608   0.684   6.382 -0.5146  0.1011  1.0645
  291MOL0     C38299   1.718   0.602   6.396 -0.0364 -0.8134 -1.1522
  291MOL0     C38300   1.778   0.522   6.284 -1.1978  0.3621  0.9695
  291MOL0     C38301   1.917   0.576   6.244 -0.8779  0.6257  0.7040
  291MOL0     C38302   1.927   0.728   6.218 -0.3585 -0.8887 -0.1397
  291MOL0     C38303   2.070   0.784   6.193  0.2526  0.5597  0.0983
  291MOL0     O38304   2.115   0.752   6.061 -0.0893  0.3688 -0.2084
  291MOL0     C38305   2.142   0.857   5.974 -0.9937 -0.0663 -0.0409
  291MOL0     C38306   2.109   0.987   5.979  0.1551 -0.2767  0.1880
  291MOL0     C38307   2.115   1.079   5.877 -0.0735 -0.4395 -0.1854
  291MOL0     C38308   2.177   1.038   5.760 -0.1500 -1.0555  1.0478
  291MOL0     C38309   2.170   1.127   5.636  0.4860 -0.0291  0.2574
  291MOL0     O38310   2.062   1.216   5.630  0.4332  1.0564  0.5851
  291MOL0     C38311   2.023   1.274   5.507 -0.1417 -0.7466 -0.7661
  291MOL0     C38312   2.072   1.264   5.376 -0.7601  0.9128 -0.3785
  291MOL0     C38313   2.027   1.346   5.277 -0.3290  1.1029 -1.3534
  291MOL0     C38314   1.920   1.437   5.291 -0.1391  1.3309  0.3781
  291MOL0     O38315   1.860   1.501   5.181  1.4274  0.2189 -0.5976
  291MOL0     C38316   1.925   1.504   5.055  0.7192  0.6915  1.0284
  291MOL0     C38317   1.871   1.609   4.952 -0.9597 -0.3031 -0.1883
  291MOL0     C38318   1.927   1.751   4.977  0.3894  0.5772 -0.3298
  291MOL0     C38319   1.868   1.862   4.888  0.7461  0.5462  0.0379
  291MOL0     C38320   1.926   2.001   4.931  0.2138  0.2631 -0.2049
  291MOL0     C38321   1.877   2.119   4.856  0.3168 -0.0072  0.1622
  291MOL0     C38322   1.722   2.160   4.880  1.0902 -0.2574 -0.9644
  291MOL0     C38323   1.667   2.265   4.786 -0.0447 -0.0272 -0.0468
  291MOL0    Cl38324   1.776   2.403   4.757 -0.1110 -0.3397  0.4282
  291MOL0     C38325   1.869   1.444   5.422  0.0635  0.2406  0.6484
  291MOL0     C38326   1.922   1.368   5.532 -0.0759 -0.5671  0.7922
  291MOL0     O38327   2.263   1.128   5.557 -0.2517 -0.3556 -0.6273
  291MOL0     C38328   2.229   0.913   5.757 -0.8070 -0.1086  1.3263
  291MOL0     C38329   2.214   0.824   5.855  0.5441 -0.5718 -1.2695
  291MOL0     N38330   1.770   0.650   6.518  0.1258 -0.4280 -0.1195
  291MOL0     N38331   1.689   0.731   6.576  0.5592 -0.2079  0.3246
  291MOL0     C38332   0.839   1.215   7.034  0.1409 -0.3982 -0.2510
  291MOL0     C38333   0.827   1.329   7.115 -0.4384 -0.3138 -0.9602
  291MOL0     C38334   0.689   1.708   7.292  0.1416 -0.9598 -0.7951
  291MOL0     C38335   0.772   1.817   7.247  0.2516 -0.1342 -0.7226
  291MOL0     C38336   0.773   1.938   7.319  0.6554  0.0809 -0.2551
  291MOL0     C38337   0.677   1.958   7.422 -0.3293  0.2784 -0.7791
  291MOL0     O38338   0.694   2.076   7.484 -0.5592  0.6162 -0.0763
  291MOL0     C38339   0.643   2.110   7.616 -0.4341  0.4921  0.2220
  291MOL0     C38340   0.726   2.038   7.728 -0.2517  0.3915  1.0797
  291MOL0     C38341   0.856   2.105   7.771 -0.0619  0.5972 -0.2534
  291MOL0     C38342   0.973   2.090   7.663  1.0433 -0.0967  0.0258
  291MOL0     C38343   1.109   2.105   7.723  0.2781 -0.2319  0.4638
  291MOL0     C38344   1.215   2.115   7.763 -0.2770 -0.3070 -0.9245
  291MOL0     C38345   0.588   1.850   7.461 -0.1866  0.7606  0.1907
  291MOL0     C38346   0.598   1.723   7.392  0.6117 -0.4981  0.1866
  291MOL0     H38347   0.730   1.531   6.854  1.2825  1.9519  1.6299
  291MOL0     H38348   0.744   1.337   6.731  2.9052 -2.4434 -1.0132
  291MOL0     H38349   0.671   1.017   6.834 -0.3783  1.2795  0.5973
  291MOL0     H38350   0.810   0.939   6.907  0.1450 -1.5227 -2.0907
  291MOL0     H38351   0.790   0.967   6.613 -1.2022  3.5389  2.1549
  291MOL0     H38352   0.717   0.830   6.705  1.1497 -0.7088  1.0925
  291MOL0     H38353   0.931   0.763   6.603 -0.4369  0.4646 -0.4384
  291MOL0     H38354   0.897   0.740   6.780 -4.1852  2.5319  0.7551
  291MOL0     H38355   1.065   0.956   6.637  1.3583 -0.7657 -0.3821
  291MOL0     H38356   1.027   0.958   6.814 -3.4749 -1.4479  0.1163
  291MOL0     H38357   1.169   0.742   6.837 -1.2675 -2.3829 -1.8222
  291MOL0     H38358   1.240   0.900   6.778  0.3421  0.5623 -0.4730
  291MOL0     H38359   1.189   0.811   6.520 -2.0334 -2.8931 -1.9111
  291MOL0     H38360   1.147   0.657   6.601 -0.4918  0.3751 -2.4632
  291MOL0     H38361   1.383   0.661   6.688  1.3888 -1.3420 -1.0385
  291MOL0     H38362   1.358   0.613   6.516 -0.6092 -0.4993  1.4759
  291MOL0     H38363   1.440   0.900   6.592 -0.0021 -0.3655 -1.1223
  291MOL0     H38364   1.399   0.840   6.436 -1.4384  2.5041  0.4818
  291MOL0     H38365   1.545   0.682   6.294 -2.0795  3.5250  1.9133
  291MOL0     H38366   1.727   0.528   6.188 -2.6729 -2.6592  1.4649
  291MOL0     H38367   1.785   0.420   6.322 -3.1496  1.2825  4.2919
  291MOL0     H38368   1.943   0.524   6.151 -0.2906 -0.3270  1.3832
  291MOL0     H38369   1.983   0.552   6.327  0.8373  3.2973  0.2106
  291MOL0     H38370   1.856   0.732   6.135 -3.5075 -1.9666  2.2940
  291MOL0     H38371   1.880   0.786   6.299 -2.5960 -3.0795  0.2497
  291MOL0     H38372   2.139   0.737   6.264  1.6179  1.3348 -0.6636
  291MOL0     H38373   2.070   0.891   6.214 -0.6127  0.1819  2.3007
  291MOL0     H38374   2.073   1.037   6.068 -3.6829  3.1353 -2.8918
  291MOL0     H38375   2.070   1.172   5.910  1.6823  0.5998 -0.5593
  291MOL0     H38376   2.146   1.189   5.349 -1.7958 -0.3946  0.2899
  291MOL0     H38377   2.067   1.344   5.177 -0.1604 -0.0952 -1.2872
  291MOL0     H38378   1.914   1.411   4.999 -0.4698  1.2233  0.3698
  291MOL0     H38379   2.033   1.521   5.060  0.8680  1.1102 -2.1048
  291MOL0     H38380   1.762   1.615   4.967 -1.3312 -0.7561 -2.4478
  291MOL0     H38381   1.890   1.583   4.848  1.0188  0.7836 -0.1397
  291MOL0     H38382   2.033   1.741   4.951  0.2450 -1.5773 -0.2009
  291MOL0     H38383   1.915   1.769   5.084 -0.2139 -3.4053  0.3916
  291MOL0     H38384   1.900   1.847   4.784  0.5451 -1.2367  0.2126
  291MOL0     H38385   1.758   1.858   4.887  0.5649  3.3296  0.8289
  291MOL0     H38386   2.034   2.002   4.947  0.0922  3.7830  1.1168
  291MOL0     H38387   1.891   2.009   5.034  2.8498  1.8631  0.6687
  291MOL0     H38388   1.900   2.107   4.750 -1.0210 -0.5979 -0.0788
  291MOL0     H38389   1.937   2.207   4.882 -0.1587  1.4184 -3.0046
  291MOL0     H38390   1.656   2.072   4.885  0.7939 -0.0492 -1.1546
  291MOL0     H38391   1.706   2.199   4.981 -2.9297 -2.6435 -0.4312
  291MOL0     H38392   1.577   2.302   4.836  0.8248 -0.6185  2.0689
  291MOL0     H38393   1.640   2.222   4.689 -1.3224 -2.0452  1.1463
  291MOL0     H38394   1.789   1.513   5.446 -0.5716  0.1152 -0.9674
  291MOL0     H38395   1.878   1.390   5.628 -0.2750  2.0678  0.1728
  291MOL0     H38396   2.289   0.883   5.671 -2.4859 -1.0537  0.4351
  291MOL0     H38397   2.249   0.721   5.848 -1.5607 -1.2335 -3.2928
  291MOL0     H38398   0.855   1.121   7.086 -1.3048 -1.1930 -1.1631
  291MOL0     H38399   0.838   1.321   7.223  0.0958  3.8140 -0.5521
  291MOL0     H38400   0.831   1.807   7.157 -1.7417  2.8839 -2.5321
  291MOL0     H38401   0.841   2.021   7.301 -1.6672  1.4830 -3.6323
  291MOL0     H38402   0.535   2.099   7.629 -0.3422  2.3774  4.0197
  291MOL0     H38403   0.654   2.218   7.627 -0.3899  0.6220 -0.9077
  291MOL0     H38404   0.658   2.034   7.814  1.3044  2.6820  2.5174
  291MOL0     H38405   0.753   1.939   7.689 -1.9400  0.5514 -0.6062
  291MOL0     H38406   0.889   2.061   7.865  0.4671 -0.8339 -1.0838
  291MOL0     H38407   0.841   2.210   7.800 -1.7463  0.6855 -1.2853
  291MOL0     H38408   0.980   1.993   7.613  1.8584 -0.5121  0.9045
  291MOL0     H38409   0.953   2.164   7.585 -4.5623 -0.2053  0.8860
  291MOL0     H38410   1.317   2.136   7.788 -0.5003  0.0501 -0.2911
  291MOL0     H38411   0.507   1.860   7.533  0.1071  2.4866  0.3421
  291MOL0     H38412   0.535   1.640   7.424 -3.1912  1.9047 -0.4563
  292MOL0     O38413   7.541   2.649  11.145 -0.1777  0.1769  0.1875
  292MOL0     C38414   7.440   2.603  11.100 -0.4514  0.7485 -0.6271
  292MOL0     O38415   7.374   2.635  10.985  0.2335  0.0732 -0.1050
  292MOL0     C38416   7.385   2.755  10.921  0.9373 -0.2285 -0.4749
  292MOL0     C38417   7.315   2.753  10.799  0.6817 -0.3733  0.2369
  292MOL0     C38418   7.299   2.869  10.728  0.6604 -0.7131 -0.4610
  292MOL0     C38419   7.360   2.994  10.764 -0.4439  1.7483  0.3028
  292MOL0     O38420   7.366   3.110  10.684 -1.3519  0.3427 -0.1297
  292MOL0     C38421   7.250   3.145  10.601 -0.3676 -0.0541  1.0548
  292MOL0     C38422   7.264   3.294  10.547 -0.7996 -0.3141  0.1825
  292MOL0     C38423   7.257   3.410  10.640 -0.1158 -0.3873 -0.2977
  292MOL0     C38424   7.379   3.423  10.734  0.6767 -0.0985  0.2314
  292MOL0     C38425   7.383   3.550  10.812  0.2179  0.7236  0.0368
  292MOL0     C38426   7.287   3.559  10.930 -0.5048 -0.4983 -0.3300
  292MOL0     C38427   7.303   3.694  11.000  0.4837 -0.0418 -0.3123
  292MOL0     C38428   7.197   3.709  11.111  0.3489 -0.0573  0.1042
  292MOL0     N38429   7.201   3.848  11.161 -0.1605  0.2383  0.0369
  292MOL0     C38430   7.218   3.884  11.294  0.2169  1.1207  0.1331
  292MOL0     C38431   7.215   4.024  11.296  0.0059  0.2604 -0.3079
  292MOL0     C38432   7.248   4.110  11.413 -0.0193 -0.0146  0.6974
  292MOL0     C38433   7.147   4.214  11.435  0.3750  0.8395  0.7692
  292MOL0     C38434   7.192   4.349  11.502 -1.4611 -0.4933  0.6051
  292MOL0     C38435   7.092   4.464  11.508 -0.7976  0.4227  0.7889
  292MOL0     O38436   7.170   4.573  11.571 -0.8156 -0.0838  0.0745
  292MOL0     C38437   7.115   4.692  11.602 -0.5662  0.8773 -0.1033
  292MOL0     C38438   7.199   4.803  11.649  0.8777 -0.1801 -0.1680
  292MOL0     C38439   7.142   4.926  11.668 -0.9438  0.6798  0.7088
  292MOL0     C38440   7.009   4.950  11.643 -0.2164 -0.5388  0.0612
  292MOL0     C38441   6.954   5.089  11.657  0.4244  0.4140  0.7333
  292MOL0     O38442   7.032   5.203  11.664  0.6367 -0.4625 -0.6681
  292MOL0     C38443   6.978   5.331  11.668 -0.0541 -0.2459  0.0235
  292MOL0     C38444   6.857   5.367  11.720  0.5028  0.7442 -0.6653
  292MOL0     C38445   6.803   5.492  11.693  0.3435  0.1900 -0.2999
  292MOL0     C38446   6.890   5.591  11.630  0.4648  0.3728  0.1743
  292MOL0     O38447   6.836   5.713  11.618  0.0071  0.1072  0.0288
  292MOL0     C38448   6.899   5.792  11.507 -1.1255 -0.7930  0.0052
  292MOL0     C38449   6.838   5.938  11.520  1.4145 -0.2958  0.3777
  292MOL0     C38450   6.845   6.018  11.390 -0.0801 -0.8428 -0.4129
  292MOL0     C38451   6.990   6.031  11.335  0.6651  0.8471 -0.4243
  292MOL0     C38452   7.018   6.127  11.220  0.5491  0.0451 -0.3519
  292MOL0     C38453   7.163   6.144  11.174  0.4937  0.4989 -0.7393
  292MOL0     C38454   7.242   6.218  11.281 -1.5999 -1.1152 -0.4358
  292MOL0     C38455   7.388   6.267  11.243 -0.3026  0.3704  0.0544
  292MOL0    Cl38456   7.461   6.364  11.373 -0.5107  0.2144 -0.0817
  292MOL0     C38457   7.018   5.559  11.599  0.2868  0.0891  0.5501
  292MOL0     C38458   7.068   5.430  11.623  0.3552  0.6088  1.1105
  292MOL0     O38459   6.830   5.094  11.656  0.1194  0.8238 -0.4661
  292MOL0     C38460   6.914   4.844  11.602 -0.7899 -1.2975 -0.5146
  292MOL0     C38461   6.976   4.720  11.589 -0.1295  0.1543  0.5876
  292MOL0     N38462   7.197   4.069  11.165 -0.1934  0.1017  0.6252
  292MOL0     N38463   7.191   3.960  11.089 -0.5832 -0.1909 -0.5294
  292MOL0     C38464   7.436   2.986  10.884 -0.3224 -0.6961  0.0226
  292MOL0     C38465   7.444   2.873  10.959  0.0538  0.4775 -0.6320
  292MOL0     C38466   7.368   2.495  11.172  0.5720  0.2981  0.4115
  292MOL0     C38467   7.415   2.441  11.298 -0.4137 -0.0945 -0.0743
  292MOL0     C38468   7.362   2.316  11.338  0.7741 -1.2401 -0.2633
  292MOL0     C38469   7.260   2.247  11.271  0.8388  0.8683  0.1803
  292MOL0     O38470   7.217   2.120  11.321 -0.8292 -0.4069 -0.8061
  292MOL0     C38471   7.104   2.052  11.272 -0.2355 -0.7188  0.6730
  292MOL0     C38472   7.055   1.936  11.367  0.0398 -0.2715 -0.9575
  292MOL0     C38473   6.927   1.877  11.298  0.5563  0.2924 -0.3554
  292MOL0     C38474   6.879   1.732  11.342  0.2340 -0.2908 -0.3264
  292MOL0     C38475   6.978   1.629  11.322 -0.3494  0.8458  1.0994
  292MOL0     C38476   7.055   1.537  11.297  0.4352 -0.6859  0.7114
  292MOL0     C38477   7.204   2.305  11.158  1.5546  0.0289 -0.5498
  292MOL0     C38478   7.260   2.421  11.106  0.0781  0.3938 -0.3759
  292MOL0     H38479   7.271   2.661  10.764  1.5171 -0.8918  0.5185
  292MOL0     H38480   7.266   2.872  10.624 -1.0910 -2.0242  0.0148
  292MOL0     H38481   7.172   3.143  10.678  2.9879  1.4346  4.8643
  292MOL0     H38482   7.237   3.064  10.529 -1.6273  1.3505 -0.3891
  292MOL0     H38483   7.195   3.316  10.465 -1.0482  1.4026  0.8001
  292MOL0     H38484   7.358   3.298  10.492 -2.0391 -0.4950 -2.1015
  292MOL0     H38485   7.173   3.394  10.707  1.0580 -1.3985  1.0025
  292MOL0     H38486   7.250   3.502  10.582  0.3366 -1.4386 -2.1116
  292MOL0     H38487   7.384   3.334  10.797  2.7516  0.9574  1.6718
  292MOL0     H38488   7.463   3.414  10.666  2.3072  2.3991  1.7178
  292MOL0     H38489   7.361   3.625  10.735 -0.8315 -2.3988 -2.9961
  292MOL0     H38490   7.483   3.563  10.855 -0.2322  2.2350  0.6930
  292MOL0     H38491   7.289   3.485  11.010 -1.6472 -0.9171 -0.6557
  292MOL0     H38492   7.186   3.552  10.889 -1.5452 -0.7687  2.1446
  292MOL0     H38493   7.398   3.693  11.055 -0.3849 -1.3477  1.2353
  292MOL0     H38494   7.298   3.776  10.928 -3.9316 -1.4721 -1.9359
  292MOL0     H38495   7.229   3.634  11.185 -0.1864 -0.4062 -0.0111
  292MOL0     H38496   7.094   3.678  11.091  0.6628 -1.9530  1.1409
  292MOL0     H38497   7.229   3.824  11.383 -0.8791 -0.8563 -0.9942
  292MOL0     H38498   7.343   4.163  11.404  1.2915 -2.4403 -6.3737
  292MOL0     H38499   7.251   4.042  11.498 -4.3471  2.3809  3.1518
  292MOL0     H38500   7.063   4.176  11.494  0.1363  0.5212  0.2370
  292MOL0     H38501   7.117   4.241  11.333  2.9339 -2.1492 -0.9620
  292MOL0     H38502   7.238   4.318  11.597 -1.3547 -2.4554 -0.0376
  292MOL0     H38503   7.277   4.386  11.444 -3.6713  2.1412 -1.1868
  292MOL0     H38504   7.013   4.439  11.579 -2.0409  3.3144  0.5532
  292MOL0     H38505   7.046   4.484  11.410  2.0036  1.4580 -0.4292
  292MOL0     H38506   7.304   4.795  11.678  0.8824  1.1451  0.2311
  292MOL0     H38507   7.223   4.997  11.675  0.7828 -1.2097  0.7569
  292MOL0     H38508   6.786   5.294  11.757  2.4901 -0.9643 -0.0411
  292MOL0     H38509   6.700   5.521  11.712 -0.2557  0.2678 -3.1449
  292MOL0     H38510   6.876   5.747  11.410  0.6742  0.3078 -0.9954
  292MOL0     H38511   7.007   5.805  11.520 -0.9070 -3.2010  1.3153
  292MOL0     H38512   6.879   5.984  11.610  4.2348 -0.1862 -0.8661
  292MOL0     H38513   6.732   5.912  11.535  1.1325  0.2283 -0.6361
  292MOL0     H38514   6.814   6.121  11.411 -0.2683 -0.6808 -1.3991
  292MOL0     H38515   6.774   5.992  11.310 -0.4187  3.7713 -1.9260
  292MOL0     H38516   7.055   6.047  11.422  0.8177 -0.0380 -0.3680
  292MOL0     H38517   7.009   5.928  11.303  1.3988  0.0195  2.3858
  292MOL0     H38518   6.989   6.229  11.246 -0.1129 -0.5548  1.4494
  292MOL0     H38519   6.969   6.086  11.131 -0.3961 -1.6411  0.8661
  292MOL0     H38520   7.150   6.191  11.076 -2.5864 -4.5074 -3.1919
  292MOL0     H38521   7.203   6.050  11.134  0.5134 -0.3173  1.1123
  292MOL0     H38522   7.198   6.316  11.301  2.1809  0.9456 -1.2444
  292MOL0     H38523   7.266   6.166  11.374 -0.1159 -1.7688 -1.1547
  292MOL0     H38524   7.394   6.311  11.143  0.4225 -1.5413 -0.7845
  292MOL0     H38525   7.441   6.174  11.221 -2.6997 -0.8145 -1.0299
  292MOL0     H38526   7.082   5.637  11.559 -3.8727  3.3269 -0.3493
  292MOL0     H38527   7.167   5.394  11.599 -0.2071 -0.4406  0.2807
  292MOL0     H38528   6.811   4.868  11.579 -1.3062 -1.2780  1.6434
  292MOL0     H38529   6.909   4.639  11.562  0.3652  0.1953 -0.8743
  292MOL0     H38530   7.501   3.065  10.921  0.4015 -1.3234  0.1193
  292MOL0     H38531   7.497   2.874  11.054 -3.1600  2.5994  1.3506
  292MOL0     H38532   7.499   2.482  11.354 -0.1884 -2.0252  1.0725
  292MOL0     H38533   7.401   2.274  11.430 -0.0566 -1.3462  0.0520
  292MOL0     H38534   7.126   2.020  11.170  0.0883  2.0205 -0.2040
  292MOL0     H38535   7.019   2.118  11.254 -2.0403 -2.9980  0.3561
  292MOL0     H38536   7.122   1.849  11.371 -1.7341 -1.6918  2.0511
  292MOL0     H38537   7.034   1.965  11.471 -1.7481 -1.7473 -0.8368
  292MOL0     H38538   6.922   1.892  11.190  1.5869  1.5490 -0.2580
  292MOL0     H38539   6.841   1.934  11.335 -1.0965 -0.7564 -2.3914
  292MOL0     H38540   6.860   1.726  11.449  0.7605 -1.8953 -0.2951
  292MOL0     H38541   6.784   1.710  11.292  0.4006 -0.6088 -0.5071
  292MOL0     H38542   7.128   1.461  11.280  2.5085  1.3911 -0.2145
  292MOL0     H38543   7.116   2.276  11.101  0.4518  1.3246  0.4261
  292MOL0     H38544   7.229   2.439  11.003 -0.6386  0.4414 -0.1539
  293MOL0     O38545   0.038   9.332  10.295 -0.1099  0.1711 -1.0072
  293MOL0     C38546   0.046   9.271  10.402  0.4522  0.8537  0.5925
  293MOL0     O38547   0.170   9.241  10.470  0.2905 -0.3699 -0.4617
  293MOL0     C38548   0.296   9.255  10.414  0.4460  0.8345  0.6322
  293MOL0     C38549   0.397   9.337  10.480  0.5089  0.9831  0.1123
  293MOL0     C38550   0.526   9.353  10.435  0.9738  0.4237  0.1505
  293MOL0     C38551   0.562   9.279  10.314 -0.0310 -0.0627  0.8278
  293MOL0     O38552   0.694   9.303  10.267 -0.2675 -0.8789 -0.3987
  293MOL0     C38553   0.777   9.187  10.227  0.3665  0.4927 -0.3086
  293MOL0     C38554   0.789   9.102  10.363 -0.2122 -0.3127  0.5546
  293MOL0     C38555   0.879   9.181  10.464  0.3749  1.0651  0.3524
  293MOL0     C38556   0.951   9.065  10.545  0.4870 -0.3305  0.7703
  293MOL0     C38557   1.038   9.138  10.646 -0.3262  0.7188 -0.5868
  293MOL0     C38558   1.055   9.046  10.770  0.2401 -0.6293 -0.5776
  293MOL0     C38559   1.153   9.099  10.869  0.3659  0.5508 -0.3869
  293MOL0     C38560   1.294   9.111  10.824  0.1488 -0.2842 -0.0408
  293MOL0     N38561   1.359   9.219  10.910  0.7672  0.6559 -1.1093
  293MOL0     C38562   1.396   9.347  10.877 -0.1131 -0.0255  0.9794
  293MOL0     C38563   1.466   9.399  10.982  0.3944  0.9527 -0.6403
  293MOL0     C38564   1.525   9.540  10.972  0.0578  0.2660  0.2457
  293MOL0     C38565   1.529   9.612  11.115  0.1858 -0.1986 -1.0835
  293MOL0     C38566   1.634   9.560  11.215 -0.2863 -1.0310  0.0002
  293MOL0     C38567   1.592   9.560  11.367 -0.0847  0.3337 -0.4442
  293MOL0     O38568   1.585   9.693  11.426 -0.5111 -0.3062 -0.2653
  293MOL0     C38569   1.503   9.722  11.532 -0.0324 -0.0060 -1.1508
  293MOL0     C38570   1.413   9.626  11.593  0.6818  0.4147  0.0014
  293MOL0     C38571   1.327   9.669  11.697 -0.1379 -1.2531  0.0606
  293MOL0     C38572   1.324   9.800  11.740  0.0848 -0.1188  0.4575
  293MOL0     C38573   1.230   9.842  11.845 -0.5004  0.0034 -0.6778
  293MOL0     O38574   1.237   9.969  11.887  0.5241  0.3166  0.3333
  293MOL0     C38575   1.179   9.989  12.011 -0.3845  0.4455 -0.1622
  293MOL0     C38576   1.040  10.014  12.027 -0.2716 -0.1461  0.6268
  293MOL0     C38577   0.997  10.034  12.165 -0.0118  0.0415  0.2670
  293MOL0     C38578   1.071  10.018  12.278  0.1277 -0.2462  0.4600
  293MOL0     O38579   1.010  10.015  12.400 -0.3023 -0.8658  0.1380
  293MOL0     C38580   1.088   9.998  12.516 -0.3826  0.1805  0.0794
  293MOL0     C38581   0.987   9.983  12.634 -0.7627  0.3157  0.5808
  293MOL0     C38582   1.034   9.911  12.756 -0.7241 -0.6086  0.4100
  293MOL0     C38583   1.173   9.980  12.797 -0.0261 -0.2197  0.8532
  293MOL0     C38584   1.225   9.906  12.908 -0.2573  0.5056  0.4206
  293MOL0     C38585   1.136   9.919  13.031 -0.0475 -0.8882  0.5847
  293MOL0     C38586   1.053   9.797  13.070  0.5149 -0.4108 -0.0266
  293MOL0     C38587   0.927   9.826  13.158 -0.2672  0.4981 -0.1745
  293MOL0    Cl38588   0.987   9.870  13.330  0.0071 -0.2260 -0.6137
  293MOL0     C38589   1.203   9.990  12.259  0.2978  0.3510 -0.7442
  293MOL0     C38590   1.257   9.972  12.132 -0.2579  1.4078  0.3526
  293MOL0     O38591   1.194   9.752  11.916 -0.7583  0.1278  0.2576
  293MOL0     C38592   1.399   9.894  11.680  0.0562  0.3538  0.0439
  293MOL0     C38593   1.481   9.858  11.567  0.6434  0.8502  0.2173
  293MOL0     N38594   1.477   9.302  11.081  0.4131  0.4717  0.3922
  293MOL0     N38595   1.396   9.214  11.043  0.8992  0.0148  0.5180
  293MOL0     C38596   0.465   9.193  10.255  0.8441 -0.9431 -0.2866
  293MOL0     C38597   0.340   9.180  10.304  0.7033 -0.5933 -0.0045
  293MOL0     C38598  -0.088   9.223  10.442  0.3018 -0.3520 -0.2355
  293MOL0     C38599  -0.212   9.292  10.407 -0.6598  0.0626 -0.1859
  293MOL0     C38600  -0.323   9.249  10.473 -0.3278  0.1788  0.0068
  293MOL0     C38601  -0.333   9.149  10.574 -0.2441 -0.3387  0.7157
  293MOL0     O38602  -0.447   9.122  10.652 -0.0504 -0.4587 -0.1116
  293MOL0     C38603  -0.567   9.149  10.593  0.0375 -0.4532  0.7590
  293MOL0     C38604  -0.683   9.078  10.652  0.4971 -0.3453 -0.7647
  293MOL0     C38605  -0.748   9.124  10.783  0.8102  0.6756 -1.2138
  293MOL0     C38606  -0.871   9.048  10.814 -0.3398  0.1276 -0.4379
  293MOL0     C38607  -0.836   8.910  10.850 -0.2638  0.0736 -0.1788
  293MOL0     C38608  -0.787   8.803  10.865  0.6906 -0.2858  0.8549
  293MOL0     C38609  -0.209   9.087  10.605  0.2008 -0.2144 -0.1049
  293MOL0     C38610  -0.088   9.130  10.550  0.3545 -0.7931 -0.5076
  293MOL0     H38611   0.357   9.392  10.565 -2.0514 -1.6838  0.7819
  293MOL0     H38612   0.600   9.426  10.467 -0.3070  0.8570  2.3134
  293MOL0     H38613   0.874   9.220  10.188  0.4107  2.8447  1.5456
  293MOL0     H38614   0.718   9.123  10.160  0.2242  0.5267 -0.2155
  293MOL0     H38615   0.827   9.003  10.338  4.1034  1.0589  0.8850
  293MOL0     H38616   0.694   9.085  10.414 -1.9744 -0.0064 -2.4059
  293MOL0     H38617   0.817   9.233  10.538 -2.2671 -1.2599 -0.0775
  293MOL0     H38618   0.961   9.224  10.405 -2.7439 -0.3944 -5.9270
  293MOL0     H38619   0.876   9.010  10.602 -1.8161  3.3072  1.5876
  293MOL0     H38620   1.009   9.006  10.473 -1.3786  1.8303 -2.8430
  293MOL0     H38621   0.996   9.232  10.683 -0.9315 -0.8548  3.2635
  293MOL0     H38622   1.133   9.153  10.594 -0.4127  1.2493 -0.5984
  293MOL0     H38623   1.100   8.954  10.733  0.8377 -0.5220 -0.1389
  293MOL0     H38624   0.958   9.022  10.815  1.0940 -1.4768  0.8740
  293MOL0     H38625   1.121   9.198  10.902 -0.9889 -0.1308  0.4241
  293MOL0     H38626   1.151   9.024  10.949 -0.4500 -0.9903 -1.7886
  293MOL0     H38627   1.315   9.128  10.718  0.8510  2.2433  0.4346
  293MOL0     H38628   1.331   9.008  10.832 -3.4006 -1.7550 -0.7468
  293MOL0     H38629   1.379   9.397  10.781  1.4163 -1.7353 -0.2433
  293MOL0     H38630   1.478   9.604  10.896 -2.3311 -1.3319  0.2793
  293MOL0     H38631   1.627   9.540  10.931  0.3631 -0.9619  0.9489
  293MOL0     H38632   1.429   9.618  11.159  0.2936  1.6466 -0.9784
  293MOL0     H38633   1.549   9.718  11.097 -1.4012  0.1104 -1.1796
  293MOL0     H38634   1.658   9.454  11.201 -2.1593 -1.7023  1.5545
  293MOL0     H38635   1.726   9.620  11.216 -2.3890  2.5220  2.8572
  293MOL0     H38636   1.655   9.491  11.423 -0.8089 -1.3919 -1.6405
  293MOL0     H38637   1.493   9.513  11.368  0.3878 -0.6905  1.1812
  293MOL0     H38638   1.409   9.521  11.566  0.2102  0.6504 -0.8781
  293MOL0     H38639   1.274   9.593  11.754  0.8244 -0.2136  2.4616
  293MOL0     H38640   0.978  10.043  11.943  1.3449  0.9009 -0.2560
  293MOL0     H38641   0.898  10.074  12.180  1.1777  4.1364 -1.2065
  293MOL0     H38642   1.152  10.083  12.545 -0.1591 -0.2558  0.9003
  293MOL0     H38643   1.139   9.902  12.513  0.5930  0.7102 -1.5321
  293MOL0     H38644   0.898   9.929  12.601 -1.6608  1.2929  1.3613
  293MOL0     H38645   0.958  10.087  12.650 -5.5562  0.0451 -3.6974
  293MOL0     H38646   1.040   9.805  12.731 -2.4527 -0.0586 -3.0256
  293MOL0     H38647   0.959   9.923  12.835  1.9688 -0.4122  3.0972
  293MOL0     H38648   1.243   9.987  12.714 -3.4625  2.5741 -2.1729
  293MOL0     H38649   1.145  10.083  12.818 -0.7837 -0.0354 -0.8762
  293MOL0     H38650   1.321   9.954  12.928 -0.5364  2.8464 -3.0358
  293MOL0     H38651   1.242   9.801  12.885  1.6360 -0.5641  5.3828
  293MOL0     H38652   1.079  10.000  12.984  0.7912 -0.1307  0.8390
  293MOL0     H38653   1.188   9.963  13.117 -2.5258  3.0366  0.3361
  293MOL0     H38654   1.011   9.762  12.975  1.1811 -2.3454  0.3460
  293MOL0     H38655   1.103   9.711  13.116 -1.5286 -1.2631  0.7442
  293MOL0     H38656   0.859   9.741  13.165 -0.7808  0.7500 -1.6865
  293MOL0     H38657   0.866   9.911  13.126 -3.2780 -1.0159  1.2439
  293MOL0     H38658   1.280   9.969  12.333 -0.8614 -3.1686 -0.3342
  293MOL0     H38659   1.356   9.928  12.134 -1.0282 -0.3994  2.4351
  293MOL0     H38660   1.393   9.995  11.719  0.4487 -0.1198  1.3816
  293MOL0     H38661   1.529   9.940  11.514  0.2807  0.5719 -0.5578
  293MOL0     H38662   0.472   9.144  10.159  1.8268 -1.4244  0.0158
  293MOL0     H38663   0.255   9.134  10.254 -0.3246  0.9844  0.1953
  293MOL0     H38664  -0.219   9.372  10.334  0.2829 -0.1973 -0.5760
  293MOL0     H38665  -0.419   9.295  10.451 -0.0681  0.2779 -0.9945
  293MOL0     H38666  -0.579   9.117  10.489  1.3875 -1.0792  0.7760
  293MOL0     H38667  -0.584   9.257  10.598 -1.4274 -0.6260 -0.0040
  293MOL0     H38668  -0.760   9.081  10.574  0.1841  1.9951 -0.4463
  293MOL0     H38669  -0.652   8.974  10.669 -3.7457 -1.5516  1.0185
  293MOL0     H38670  -0.780   9.228  10.775 -1.9542 -0.0883 -1.0953
  293MOL0     H38671  -0.674   9.120  10.864  1.2507 -1.3116 -1.6600
  293MOL0     H38672  -0.932   9.088  10.896  0.5352 -1.9743  1.3593
  293MOL0     H38673  -0.930   9.045  10.722  1.0535 -0.2951 -1.3451
  293MOL0     H38674  -0.726   8.715  10.871  1.5110  0.0293 -1.8143
  293MOL0     H38675  -0.206   9.011  10.682  1.7560 -0.1112 -0.0451
  293MOL0     H38676   0.004   9.076  10.573 -0.0893 -0.6521  1.9272
  294MOL0     O38677   2.152   0.115   7.580 -0.5232 -0.1980  0.0116
  294MOL0     C38678   2.252   0.101   7.659  0.3428  0.2635 -0.1891
  294MOL0     O38679   2.256   0.014   7.771 -0.0272 -0.4208 -0.3231
  294MOL0     C38680   2.180  -0.096   7.760  0.5033  0.4548  0.0035
  294MOL0     C38681   2.187  -0.169   7.640 -0.0725  1.3955 -0.0030
  294MOL0     C38682   2.117  -0.290   7.635 -0.1402  0.2904 -0.0783
  294MOL0     C38683   2.029  -0.331   7.736 -0.9146 -0.4658 -0.8875
  294MOL0     O38684   1.971  -0.457   7.732 -0.1123  0.1606 -0.4983
  294MOL0     C38685   1.885  -0.477   7.619 -0.6144 -0.2524 -0.1768
  294MOL0     C38686   1.868  -0.622   7.591  0.1661 -0.1301 -0.1641
  294MOL0     C38687   1.776  -0.660   7.472  0.4039  0.0639  0.2020
  294MOL0     C38688   1.772  -0.815   7.446  0.1680  0.0112  0.3638
  294MOL0     C38689   1.900  -0.860   7.376  0.1173 -0.2695  0.0376
  294MOL0     C38690   1.902  -0.814   7.225 -0.0869  0.5664 -0.1251
  294MOL0     C38691   1.809  -0.901   7.133  0.2985 -0.3528 -0.3486
  294MOL0     C38692   1.849  -0.874   6.984 -0.2728 -0.0114 -0.5762
  294MOL0     N38693   1.841  -0.734   6.930 -0.7661  0.6499  0.1598
  294MOL0     C38694   1.725  -0.674   6.901  1.0515 -0.1551 -0.6517
  294MOL0     C38695   1.775  -0.547   6.881  1.7873 -0.0333 -0.1751
  294MOL0     C38696   1.687  -0.418   6.864 -1.0756  0.1356  0.2310
  294MOL0     C38697   1.625  -0.421   6.728 -0.4165  1.1201  1.0579
  294MOL0     C38698   1.728  -0.394   6.616  0.2442  0.1667  0.3613
  294MOL0     C38699   1.657  -0.400   6.476  0.0875  0.0359  0.2090
  294MOL0     O38700   1.526  -0.345   6.476  0.6689  0.4900  0.0662
  294MOL0     C38701   1.517  -0.218   6.421  0.5168  0.3854  0.2833
  294MOL0     C38702   1.395  -0.181   6.360 -0.3903 -0.8380 -0.7312
  294MOL0     C38703   1.369  -0.048   6.319  0.7824 -0.3014 -1.3647
  294MOL0     C38704   1.467   0.050   6.337 -1.2812 -0.5408  0.1537
  294MOL0     C38705   1.444   0.195   6.293 -1.1114  0.0824  0.1528
  294MOL0     O38706   1.327   0.228   6.243  0.4431 -0.3691  0.3379
  294MOL0     C38707   1.310   0.363   6.212 -0.0063  0.1254 -0.5019
  294MOL0     C38708   1.230   0.437   6.297  0.8394  0.0668 -0.0012
  294MOL0     C38709   1.227   0.574   6.275  0.6177  0.0348  0.3729
  294MOL0     C38710   1.280   0.641   6.161  0.5500  0.2564 -0.6518
  294MOL0     O38711   1.295   0.778   6.176  0.3529 -0.2745  0.3967
  294MOL0     C38712   1.295   0.858   6.057  0.6329 -0.9766 -0.6428
  294MOL0     C38713   1.327   0.991   6.110  0.1071 -0.2840  1.2513
  294MOL0     C38714   1.293   1.108   6.010 -0.2788 -0.1786  0.1457
  294MOL0     C38715   1.289   1.243   6.059 -0.2746  1.1730  0.0670
  294MOL0     C38716   1.391   1.281   6.161 -0.4402  1.1497  0.5477
  294MOL0     C38717   1.382   1.432   6.175  0.3440 -0.2361  0.2476
  294MOL0     C38718   1.488   1.475   6.280 -0.5063  0.7912 -0.5200
  294MOL0     C38719   1.502   1.616   6.301  1.0195 -0.0186 -0.5913
  294MOL0    Cl38720   1.617   1.634   6.436  0.6553 -0.5230  0.1014
  294MOL0     C38721   1.365   0.568   6.083  0.0312 -0.0460  0.2815
  294MOL0     C38722   1.385   0.427   6.108 -1.0162 -0.6067 -0.7796
  294MOL0     O38723   1.531   0.274   6.332  0.6162 -0.0827 -0.2594
  294MOL0     C38724   1.598   0.014   6.379  0.6050  0.2772 -0.3569
  294MOL0     C38725   1.619  -0.117   6.426  0.3783 -0.1388  0.4469
  294MOL0     N38726   1.907  -0.537   6.879  0.5337 -0.0878 -0.2036
  294MOL0     N38727   1.944  -0.645   6.919 -0.4019  0.5629  0.0693
  294MOL0     C38728   2.025  -0.262   7.851 -1.5516  0.0904 -0.3247
  294MOL0     C38729   2.103  -0.143   7.863 -0.2325  0.4010  0.2231
  294MOL0     C38730   2.362   0.201   7.645  0.2616 -0.5838 -0.1176
  294MOL0     C38731   2.389   0.273   7.527 -0.6084  0.2584  0.1929
  294MOL0     C38732   2.489   0.360   7.513 -0.5307  0.0243 -0.5524
  294MOL0     C38733   2.565   0.406   7.623  0.6143  0.5500 -0.5233
  294MOL0     O38734   2.652   0.508   7.605 -0.4282  0.2659 -1.0278
  294MOL0     C38735   2.617   0.646   7.608  0.6620 -0.1313  0.5287
  294MOL0     C38736   2.605   0.700   7.751  0.6986 -0.8933 -0.0314
  294MOL0     C38737   2.743   0.680   7.824  0.7041  0.1911 -0.9535
  294MOL0     C38738   2.740   0.704   7.972 -0.7027 -0.2146 -0.7187
  294MOL0     C38739   2.878   0.678   8.040  0.3334 -0.1945 -0.2092
  294MOL0     C38740   2.996   0.655   8.057  0.1519 -0.5638  1.7312
  294MOL0     C38741   2.544   0.342   7.751 -0.1763 -0.4585  1.7557
  294MOL0     C38742   2.434   0.234   7.754  0.5058 -0.4235 -0.6740
  294MOL0     H38743   2.241  -0.127   7.557  1.7089 -1.3194 -0.3383
  294MOL0     H38744   2.123  -0.360   7.553  1.3945 -1.4652  1.4241
  294MOL0     H38745   1.919  -0.428   7.528  2.2395  1.3077  1.5762
  294MOL0     H38746   1.787  -0.440   7.652  0.0550  2.4442 -1.0089
  294MOL0     H38747   1.827  -0.667   7.682 -0.1173  1.0955  0.3259
  294MOL0     H38748   1.965  -0.671   7.577 -1.3406 -2.7030 -2.6701
  294MOL0     H38749   1.818  -0.613   7.383  1.9544 -1.3276  0.1681
  294MOL0     H38750   1.674  -0.625   7.493  0.2485 -0.4005  0.2345
  294MOL0     H38751   1.769  -0.853   7.549 -0.6211 -0.1863  0.2696
  294MOL0     H38752   1.684  -0.846   7.390  1.2769 -0.4378 -1.2151
  294MOL0     H38753   1.903  -0.969   7.382 -1.0764 -0.3515 -0.5892
  294MOL0     H38754   1.990  -0.818   7.422 -0.1587  0.0709  0.2788
  294MOL0     H38755   2.007  -0.820   7.195 -0.7644  0.8303 -2.7866
  294MOL0     H38756   1.885  -0.708   7.204  0.2749  0.3192 -1.7853
  294MOL0     H38757   1.823  -1.008   7.151  0.0818 -0.5763 -1.3827
  294MOL0     H38758   1.703  -0.876   7.149  0.8423  2.2205 -0.4262
  294MOL0     H38759   1.795  -0.947   6.922  0.3777 -1.9064  0.9707
  294MOL0     H38760   1.956  -0.894   6.968 -0.1124  0.1382  0.2400
  294MOL0     H38761   1.629  -0.723   6.886  0.2638  1.2525 -0.4264
  294MOL0     H38762   1.759  -0.337   6.865  0.0523 -0.5876 -3.6009
  294MOL0     H38763   1.617  -0.390   6.943  0.5228  0.1639  1.6961
  294MOL0     H38764   1.562  -0.332   6.721 -0.1681  1.2919 -5.6262
  294MOL0     H38765   1.555  -0.503   6.708 -0.3488  0.3657  3.5846
  294MOL0     H38766   1.765  -0.293   6.629  0.5343  0.4448 -2.1088
  294MOL0     H38767   1.811  -0.466   6.620  0.4949  0.5135  2.4425
  294MOL0     H38768   1.642  -0.503   6.442  1.3965 -0.2655  0.4897
  294MOL0     H38769   1.721  -0.359   6.398 -0.0783  2.4706  1.2629
  294MOL0     H38770   1.322  -0.261   6.362 -0.0371 -1.1546 -0.4730
  294MOL0     H38771   1.277  -0.013   6.274  0.3889  0.0597 -0.2987
  294MOL0     H38772   1.180   0.388   6.380 -0.0244 -0.4723 -0.8300
  294MOL0     H38773   1.166   0.629   6.346 -2.5818 -1.4100 -1.0524
  294MOL0     H38774   1.193   0.856   6.019  1.2890  0.0529 -2.5741
  294MOL0     H38775   1.356   0.835   5.969 -0.5653  0.3281 -1.8767
  294MOL0     H38776   1.434   1.000   6.132  0.3146 -0.2987  0.2898
  294MOL0     H38777   1.257   1.006   6.193 -3.1841  2.2260 -1.6742
  294MOL0     H38778   1.198   1.074   5.968 -1.2625  1.2198  1.1486
  294MOL0     H38779   1.375   1.090   5.940 -0.7805 -0.6595 -0.3299
  294MOL0     H38780   1.284   1.315   5.977 -4.0850 -0.2752 -1.2062
  294MOL0     H38781   1.190   1.250   6.105 -0.8086  0.4095 -0.9289
  294MOL0     H38782   1.488   1.239   6.134 -2.5816 -2.7705 -1.9402
  294MOL0     H38783   1.384   1.245   6.264  2.2637  1.6011  0.9526
  294MOL0     H38784   1.280   1.451   6.209 -1.2835 -4.4141 -1.6060
  294MOL0     H38785   1.398   1.491   6.084  2.4856  1.9789  1.9376
  294MOL0     H38786   1.458   1.427   6.373 -0.2917 -0.8997 -1.2957
  294MOL0     H38787   1.590   1.441   6.263 -0.6046  0.7768 -1.1339
  294MOL0     H38788   1.410   1.658   6.343  0.0622  1.8931 -4.1940
  294MOL0     H38789   1.531   1.684   6.220  0.6638  2.0203  0.9181
  294MOL0     H38790   1.429   0.618   6.011 -0.6849  0.4057 -0.0535
  294MOL0     H38791   1.460   0.364   6.061 -1.2716 -0.3709 -1.5236
  294MOL0     H38792   1.678   0.084   6.399 -0.3932  0.5716  3.4753
  294MOL0     H38793   1.707  -0.144   6.483  1.9539 -1.1995 -2.2708
  294MOL0     H38794   1.969  -0.295   7.938  2.1638  0.2552  2.3275
  294MOL0     H38795   2.095  -0.074   7.946  2.1551 -0.3582  1.1845
  294MOL0     H38796   2.319   0.264   7.445 -1.7134  2.7110  0.7792
  294MOL0     H38797   2.516   0.399   7.416  3.2837 -1.1564 -0.1452
  294MOL0     H38798   2.516   0.657   7.567  0.6616  2.3807  1.0305
  294MOL0     H38799   2.693   0.701   7.552  2.7571 -0.9336  2.4396
  294MOL0     H38800   2.568   0.803   7.756  1.7267 -0.3077 -2.6622
  294MOL0     H38801   2.533   0.637   7.803 -2.2023  1.8811 -0.3716
  294MOL0     H38802   2.814   0.748   7.775 -0.5742  2.1019 -0.2992
  294MOL0     H38803   2.779   0.578   7.810  0.4423 -0.1782  0.7856
  294MOL0     H38804   2.726   0.810   7.992  0.8987 -0.4261  2.1090
  294MOL0     H38805   2.669   0.645   8.030  1.6280 -0.4899  2.0730
  294MOL0     H38806   3.100   0.638   8.078  0.5077 -2.5123 -1.0750
  294MOL0     H38807   2.610   0.358   7.836  0.7102 -3.6473  1.8151
  294MOL0     H38808   2.415   0.203   7.856  2.9057 -1.7168 -0.5382
  295MOL0     O38809  10.503   9.359   1.293 -0.2789 -0.2603  0.2985
  295MOL0     C38810  10.454   9.378   1.177 -0.6592  1.1848 -0.4824
  295MOL0     O38811  10.448   9.279   1.074 -0.7721 -0.0326  0.2809
  295MOL0     C38812  10.513   9.160   1.099  0.3827  0.1687  0.5828
  295MOL0     C38813  10.439   9.044   1.105  0.2409 -0.5025  0.5189
  295MOL0     C38814  10.491   8.924   1.140  0.5915 -0.8071 -0.8136
  295MOL0     C38815  10.628   8.913   1.148  1.3980 -0.5140 -0.0555
  295MOL0     O38816  10.676   8.791   1.180 -0.0901 -0.0571  0.2097
  295MOL0     C38817  10.657   8.683   1.089 -0.6076 -0.2990  1.1436
  295MOL0     C38818  10.738   8.682   0.964 -0.2521 -0.3808 -0.2365
  295MOL0     C38819  10.700   8.793   0.858  0.5967  0.8618  0.3242
  295MOL0     C38820  10.798   8.771   0.744  0.7149 -0.1433  1.0130
  295MOL0     C38821  10.722   8.810   0.612  0.4004  0.0020 -0.2153
  295MOL0     C38822  10.679   8.960   0.571  0.6849  0.4779 -0.4761
  295MOL0     C38823  10.779   9.060   0.619  0.5194 -1.5183 -0.4483
  295MOL0     C38824  10.757   9.111   0.766 -0.4625 -0.6998 -1.1567
  295MOL0     N38825  10.808   9.248   0.803 -0.4090 -0.3700 -0.0973
  295MOL0     C38826  10.933   9.305   0.774  0.6580  1.1358 -0.8250
  295MOL0     C38827  10.909   9.436   0.770  0.1591 -0.6015 -0.8122
  295MOL0     C38828  11.013   9.545   0.728 -0.3482  0.0808 -0.0119
  295MOL0     C38829  11.092   9.520   0.606  0.4691 -0.2972  0.8951
  295MOL0     C38830  11.213   9.422   0.611  0.4028  0.1392  0.1838
  295MOL0     C38831  11.319   9.473   0.511  0.1934  0.9644 -0.2998
  295MOL0     O38832  11.354   9.607   0.545  0.9739 -1.1633 -0.3038
  295MOL0     C38833  11.399   9.692   0.441 -0.3853 -0.1439  0.6913
  295MOL0     C38834  11.462   9.810   0.476  0.5682 -0.2854  0.0913
  295MOL0     C38835  11.517   9.894   0.389  0.1985 -0.8391 -0.1309
  295MOL0     C38836  11.522   9.864   0.253  0.4660 -0.5148  0.3566
  295MOL0     C38837  11.589   9.952   0.153 -1.0796 -0.9440  1.2574
  295MOL0     O38838  11.642   9.904   0.037 -0.2289  0.7404 -0.2578
  295MOL0     C38839  11.767   9.936  -0.015 -0.0212  0.2961 -0.3789
  295MOL0     C38840  11.785   9.946  -0.157  1.3233 -0.4032  0.9849
  295MOL0     C38841  11.909   9.964  -0.214 -0.4132 -0.0660  0.9684
  295MOL0     C38842  12.022   9.969  -0.128 -1.4823 -0.2467 -0.2523
  295MOL0     O38843  12.150  10.009  -0.174  0.6225  0.4578 -0.5269
  295MOL0     C38844  12.158  10.095  -0.290 -0.7846  0.3917  0.6445
  295MOL0     C38845  12.292  10.179  -0.283 -0.2310 -0.5788 -0.0813
  295MOL0     C38846  12.290  10.251  -0.417 -1.0702 -0.1764  0.1537
  295MOL0     C38847  12.402  10.350  -0.451 -0.6089  0.2510  0.2842
  295MOL0     C38848  12.535  10.302  -0.400 -0.1951 -1.0975 -0.0968
  295MOL0     C38849  12.651  10.387  -0.467  0.5843  0.0995  1.0492
  295MOL0     C38850  12.792  10.326  -0.440  0.9944  0.1829  0.2318
  295MOL0     C38851  12.888  10.453  -0.433  0.3855  0.4174  0.4991
  295MOL0    Cl38852  12.844  10.561  -0.299  0.1577 -0.0501  0.1910
  295MOL0     C38853  12.001   9.951   0.009 -0.2031  0.3697  0.6639
  295MOL0     C38854  11.881   9.932   0.066 -0.2479  0.6428  1.8613
  295MOL0     O38855  11.619  10.065   0.185  0.2460  0.2701 -0.0963
  295MOL0     C38856  11.467   9.738   0.215 -0.0624  0.1212  0.7881
  295MOL0     C38857  11.408   9.651   0.307 -0.3647 -0.8953  0.1417
  295MOL0     N38858  10.783   9.465   0.828  0.4613 -0.6968  1.0011
  295MOL0     N38859  10.727   9.349   0.853 -0.8471  0.8443 -0.0294
  295MOL0     C38860  10.712   9.028   1.141 -0.5081  0.9387  0.9232
  295MOL0     C38861  10.654   9.154   1.119 -0.4652 -0.4110  0.0554
  295MOL0     C38862  10.398   9.503   1.151 -0.2763  0.4302  0.5921
  295MOL0     C38863  10.336   9.531   1.033 -0.6336  0.3570  1.0220
  295MOL0     C38864  10.246   9.633   1.026 -0.0964  0.4492 -0.1495
  295MOL0     C38865  10.222   9.714   1.141 -0.3190  0.5765  0.3766
  295MOL0     O38866  10.146   9.821   1.160  0.4688  0.5877  0.4565
  295MOL0     C38867  10.014   9.780   1.181  0.2976  0.3390 -0.7718
  295MOL0     C38868   9.934   9.894   1.249  0.4517  0.0505  0.1796
  295MOL0     C38869   9.810   9.833   1.317 -0.6564  0.1153 -0.0236
  295MOL0     C38870   9.817   9.824   1.473 -0.2224  0.6010 -0.1635
  295MOL0     C38871   9.924   9.743   1.525 -0.3961 -0.2896 -0.4689
  295MOL0     C38872  10.022   9.689   1.558 -0.0977  0.0525  0.4414
  295MOL0     C38873  10.294   9.694   1.251  0.7236  0.5747  0.0889
  295MOL0     C38874  10.389   9.596   1.261 -0.5410  0.8569 -0.5253
  295MOL0     H38875  10.333   9.040   1.085 -0.5376 -1.2261  4.1133
  295MOL0     H38876  10.418   8.847   1.161 -3.6451  3.0054 -0.0624
  295MOL0     H38877  10.553   8.662   1.063 -0.7399 -0.1086  1.5172
  295MOL0     H38878  10.697   8.599   1.147  1.9515 -0.4249 -0.6039
  295MOL0     H38879  10.718   8.584   0.920  0.6594 -1.1600  1.0182
  295MOL0     H38880  10.841   8.688   0.999 -1.0080  1.5019  1.9238
  295MOL0     H38881  10.687   8.892   0.902 -2.0950  0.7885 -0.1257
  295MOL0     H38882  10.601   8.761   0.823 -0.4058  1.2860  2.5630
  295MOL0     H38883  10.887   8.834   0.755 -0.1077  0.8785  1.9920
  295MOL0     H38884  10.826   8.666   0.730 -0.9029 -0.2106 -3.1191
  295MOL0     H38885  10.630   8.751   0.607 -2.0685  3.5459 -0.3627
  295MOL0     H38886  10.794   8.793   0.531  0.0717 -0.2922 -0.4496
  295MOL0     H38887  10.582   8.975   0.619 -0.0631 -2.3305 -0.9483
  295MOL0     H38888  10.669   8.969   0.463 -1.3922 -1.5782 -0.5315
  295MOL0     H38889  10.880   9.022   0.601  0.8000  0.1503 -3.0867
  295MOL0     H38890  10.763   9.146   0.553  0.8087 -1.3544 -0.3071
  295MOL0     H38891  10.810   9.046   0.836  3.3523  2.9520 -0.2652
  295MOL0     H38892  10.648   9.114   0.781 -0.0402 -0.3019  3.1321
  295MOL0     H38893  11.019   9.240   0.758  1.5156  1.9425  0.3094
  295MOL0     H38894  11.095   9.562   0.798 -1.5583 -0.6707  1.6506
  295MOL0     H38895  10.966   9.643   0.716  4.3228  2.3352 -3.1353
  295MOL0     H38896  11.123   9.621   0.577 -2.2991  0.4562  0.2447
  295MOL0     H38897  11.035   9.486   0.519  2.3512 -1.0488 -0.1007
  295MOL0     H38898  11.271   9.433   0.703  3.5131  0.6296 -1.6801
  295MOL0     H38899  11.185   9.317   0.615  1.7045 -0.1983  2.9479
  295MOL0     H38900  11.270   9.463   0.414  1.8792 -0.5056 -1.0644
  295MOL0     H38901  11.408   9.409   0.520  0.9609  2.2849  2.7545
  295MOL0     H38902  11.450   9.841   0.579  0.8509  4.1688 -1.0253
  295MOL0     H38903  11.562   9.988   0.419 -0.2301 -1.0134  1.0826
  295MOL0     H38904  11.702   9.940  -0.226  2.0516 -0.4062  0.0952
  295MOL0     H38905  11.924   9.985  -0.319 -4.0322  0.6541  0.4615
  295MOL0     H38906  12.075  10.166  -0.298 -0.8635  0.0702 -3.4321
  295MOL0     H38907  12.159  10.025  -0.374 -2.5415  0.5435  0.4614
  295MOL0     H38908  12.381  10.116  -0.275  0.9281  0.9274 -0.6779
  295MOL0     H38909  12.285  10.248  -0.199 -3.0789  0.6692 -1.2029
  295MOL0     H38910  12.197  10.307  -0.432 -3.0417 -2.5164  2.5999
  295MOL0     H38911  12.292  10.175  -0.495 -0.0460  0.6606 -0.6753
  295MOL0     H38912  12.397  10.356  -0.560  1.1275  1.5605  0.2351
  295MOL0     H38913  12.378  10.452  -0.417 -1.6418  0.3046 -0.5660
  295MOL0     H38914  12.555  10.202  -0.439  0.8306 -1.3877  1.1239
  295MOL0     H38915  12.549  10.309  -0.292  2.7305  1.8027 -0.5095
  295MOL0     H38916  12.651  10.493  -0.441 -1.2252  0.8742 -1.6800
  295MOL0     H38917  12.632  10.381  -0.575 -0.3814  2.4972  1.0289
  295MOL0     H38918  12.790  10.261  -0.352  2.3986  0.8957  0.8268
  295MOL0     H38919  12.806  10.265  -0.530  0.7331  1.4498 -0.6965
  295MOL0     H38920  12.881  10.505  -0.529  0.6008 -1.3108 -0.4974
  295MOL0     H38921  12.993  10.432  -0.410  0.5842  2.0517  1.2590
  295MOL0     H38922  12.095   9.969   0.062  1.0769  2.1147 -1.9923
  295MOL0     H38923  11.866   9.891   0.166  2.5859 -1.3580  1.5751
  295MOL0     H38924  11.481   9.713   0.110 -0.3370  0.5502  0.6425
  295MOL0     H38925  11.395   9.548   0.275 -0.4673 -0.3609 -1.6105
  295MOL0     H38926  10.816   9.017   1.167 -0.3142  3.1438  1.2233
  295MOL0     H38927  10.723   9.238   1.115  1.6063 -1.9914  0.9476
  295MOL0     H38928  10.320   9.473   0.943 -1.8921  1.3072  0.6016
  295MOL0     H38929  10.187   9.642   0.935 -0.5265 -0.2674  0.0469
  295MOL0     H38930  10.008   9.688   1.241 -1.0669 -0.3152 -1.8490
  295MOL0     H38931   9.961   9.769   1.086 -0.1662  2.2328 -0.7671
  295MOL0     H38932   9.996   9.961   1.309 -0.6816  0.0416  1.4204
  295MOL0     H38933   9.902   9.968   1.175  3.1856  1.7465  0.5536
  295MOL0     H38934   9.775   9.736   1.281 -0.8630  0.1790  0.0078
  295MOL0     H38935   9.730   9.906   1.303  1.1090  1.8416 -1.9191
  295MOL0     H38936   9.817   9.927   1.510  0.1692  0.7832 -0.6520
  295MOL0     H38937   9.717   9.786   1.497  0.9934 -2.2951  0.8700
  295MOL0     H38938  10.111   9.651   1.604 -0.6138  0.6289  1.9595
  295MOL0     H38939  10.281   9.761   1.336 -1.2098 -0.1554  0.4163
  295MOL0     H38940  10.441   9.574   1.354  0.2150  2.5916 -0.4998
  296MOL0     O38941   4.526   2.520   0.445  0.2535  0.3505  1.2747
  296MOL0     C38942   4.480   2.441   0.358  0.2489  0.6596  0.2531
  296MOL0     O38943   4.343   2.413   0.349 -0.7779  0.0035  0.1498
  296MOL0     C38944   4.267   2.431   0.466 -0.0767  0.0093  0.3555
  296MOL0     C38945   4.295   2.399   0.600  0.1666  1.3598  0.0649
  296MOL0     C38946   4.212   2.433   0.712  0.0515  0.4851  0.9525
  296MOL0     C38947   4.083   2.479   0.683 -0.1822 -0.8958 -0.8384
  296MOL0     O38948   3.985   2.518   0.776 -0.2805  0.8581 -0.3829
  296MOL0     C38949   3.993   2.460   0.909  0.5065 -0.2018  0.1818
  296MOL0     C38950   3.855   2.498   0.984 -0.3062  1.0717 -0.6224
  296MOL0     C38951   3.857   2.633   1.047 -0.3045 -0.2849 -0.2718
  296MOL0     C38952   3.887   2.757   0.959  0.5024 -0.0820  0.4874
  296MOL0     C38953   3.880   2.887   1.030 -1.2251  0.0412  0.5538
  296MOL0     C38954   3.928   2.887   1.184 -0.0920 -0.2607 -0.6709
  296MOL0     C38955   3.950   3.026   1.243 -1.1528 -1.0553 -0.5424
  296MOL0     C38956   3.817   3.103   1.276  1.6313  0.5997  0.8035
  296MOL0     N38957   3.839   3.236   1.341  0.1166  0.3329 -0.1408
  296MOL0     C38958   3.783   3.352   1.297  0.6235  0.7070 -0.2558
  296MOL0     C38959   3.819   3.443   1.386 -0.0579  0.6920  0.3556
  296MOL0     C38960   3.764   3.586   1.379 -1.9561  0.5798  0.5339
  296MOL0     C38961   3.874   3.693   1.362  0.7603 -0.5274 -0.1887
  296MOL0     C38962   3.800   3.824   1.311  0.1266 -0.9292  0.3043
  296MOL0     C38963   3.890   3.944   1.289  0.1999 -0.9317 -0.1615
  296MOL0     O38964   3.969   3.972   1.405 -0.0738 -0.0621  0.4822
  296MOL0     C38965   4.041   4.083   1.423 -0.1324 -1.4056  0.0332
  296MOL0     C38966   4.106   4.101   1.541  0.2577  1.3040 -0.6280
  296MOL0     C38967   4.175   4.215   1.581 -0.6446 -0.9555 -0.5825
  296MOL0     C38968   4.180   4.319   1.490 -0.0689  0.3229 -0.6376
  296MOL0     C38969   4.249   4.446   1.523  0.4855 -0.0818 -0.6058
  296MOL0     O38970   4.273   4.537   1.416  0.2784  0.2339  0.4230
  296MOL0     C38971   4.352   4.641   1.422  0.1506  0.5821  0.1857
  296MOL0     C38972   4.464   4.655   1.501  0.0364 -0.1158  0.3308
  296MOL0     C38973   4.545   4.768   1.486 -0.7780  0.2657 -0.1884
  296MOL0     C38974   4.519   4.861   1.384  0.5469  0.0434  0.2185
  296MOL0     O38975   4.598   4.969   1.351 -0.3927  0.2519 -0.2172
  296MOL0     C38976   4.725   4.979   1.411 -0.9259 -0.8167 -0.1285
  296MOL0     C38977   4.791   5.129   1.380 -0.5445  0.6396  1.2968
  296MOL0     C38978   4.934   5.128   1.432 -0.3590  1.1597 -0.3593
  296MOL0     C38979   5.000   5.252   1.396  0.2855 -1.0125 -1.2614
  296MOL0     C38980   5.111   5.306   1.496 -0.5004  0.4945 -0.6313
  296MOL0     C38981   5.239   5.224   1.493 -0.2094  0.0276 -0.6834
  296MOL0     C38982   5.330   5.267   1.603 -0.9211 -0.3391 -0.0737
  296MOL0     C38983   5.469   5.204   1.577  0.0317  0.5302 -0.8323
  296MOL0    Cl38984   5.483   5.036   1.548 -0.2436 -0.1633  0.2272
  296MOL0     C38985   4.408   4.836   1.296 -0.4171  1.1401 -0.1746
  296MOL0     C38986   4.334   4.723   1.317  0.4534  0.8957 -0.0512
  296MOL0     O38987   4.270   4.472   1.643  0.6415  0.1500 -0.0698
  296MOL0     C38988   4.125   4.304   1.360  0.0301  0.3233 -0.4165
  296MOL0     C38989   4.055   4.187   1.328  0.8989  0.7203 -0.9577
  296MOL0     N38990   3.901   3.395   1.482 -0.6023 -0.6980  0.0693
  296MOL0     N38991   3.906   3.263   1.458  0.7129 -0.6921 -0.8931
  296MOL0     C38992   4.057   2.522   0.553 -0.5116 -0.0101 -0.0992
  296MOL0     C38993   4.148   2.502   0.444  0.2138 -0.3514  0.4311
  296MOL0     C38994   4.560   2.363   0.254  0.4989 -1.2005  0.7048
  296MOL0     C38995   4.498   2.269   0.168  0.0704  0.7357  0.6763
  296MOL0     C38996   4.559   2.197   0.068 -0.2883 -0.6836 -0.3167
  296MOL0     C38997   4.695   2.212   0.046 -0.7196  0.8734 -0.4073
  296MOL0     O38998   4.755   2.140  -0.043 -0.2672 -0.8351  0.3561
  296MOL0     C38999   4.715   2.000  -0.052  0.0701  0.0582 -0.5156
  296MOL0     C39000   4.825   1.922  -0.133  0.0014  0.8008  0.4843
  296MOL0     C39001   4.871   1.994  -0.272 -0.1918 -0.3081  0.5356
  296MOL0     C39002   4.955   1.891  -0.339 -0.4026  0.0195  1.0959
  296MOL0     C39003   5.016   1.958  -0.450 -0.0734 -0.3481  0.0930
  296MOL0     C39004   5.061   2.031  -0.538 -0.5491 -0.3740 -0.5316
  296MOL0     C39005   4.767   2.301   0.125  0.2620  0.2932 -1.0243
  296MOL0     C39006   4.700   2.381   0.222 -0.2502 -0.1780 -0.3506
  296MOL0     H39007   4.386   2.341   0.608 -0.9424 -0.4728 -0.2116
  296MOL0     H39008   4.234   2.412   0.816 -2.6025 -0.6834  1.3446
  296MOL0     H39009   4.081   2.494   0.966  0.3667 -0.1920  0.3950
  296MOL0     H39010   3.999   2.351   0.907 -0.4828 -0.3154  1.8680
  296MOL0     H39011   3.846   2.423   1.063  4.7381  1.8174  1.0640
  296MOL0     H39012   3.774   2.483   0.912  2.3612 -1.7972 -3.3667
  296MOL0     H39013   3.928   2.628   1.130 -0.8175 -0.6269  0.1545
  296MOL0     H39014   3.764   2.632   1.104  0.5163 -4.6854  1.4180
  296MOL0     H39015   3.982   2.740   0.907 -1.0513 -4.2328 -1.4365
  296MOL0     H39016   3.814   2.750   0.878  0.4644 -0.4562  0.5515
  296MOL0     H39017   3.778   2.923   1.036 -0.9088  1.1035 -0.3002
  296MOL0     H39018   3.954   2.956   0.989 -2.0281  0.5056 -0.1389
  296MOL0     H39019   4.023   2.835   1.199 -1.4656 -2.3260  1.7890
  296MOL0     H39020   3.846   2.839   1.239  0.8520 -1.4851 -0.2909
  296MOL0     H39021   4.012   3.026   1.333 -0.6918  3.2258 -0.6569
  296MOL0     H39022   3.996   3.088   1.165 -0.1122  0.2476  1.0380
  296MOL0     H39023   3.754   3.032   1.331  0.1789  1.4633  0.3123
  296MOL0     H39024   3.766   3.122   1.182  0.6865 -1.1532  0.9191
  296MOL0     H39025   3.726   3.371   1.206  4.1749 -0.3989 -2.9498
  296MOL0     H39026   3.719   3.592   1.478  0.5490 -1.3519  1.9114
  296MOL0     H39027   3.682   3.609   1.309 -2.8135  0.1822  1.3927
  296MOL0     H39028   3.948   3.668   1.285 -0.4233  2.8896 -2.6853
  296MOL0     H39029   3.921   3.706   1.460 -2.8854 -1.8489  1.9231
  296MOL0     H39030   3.749   3.810   1.215 -1.1542  0.6837  0.7046
  296MOL0     H39031   3.715   3.848   1.375 -0.6741 -0.3343 -0.9295
  296MOL0     H39032   3.833   4.035   1.268  0.9800  0.3562  2.7487
  296MOL0     H39033   3.959   3.926   1.206  0.3575  0.2889 -0.3185
  296MOL0     H39034   4.081   4.022   1.611  2.2969 -1.4320 -2.7747
  296MOL0     H39035   4.219   4.227   1.679 -3.2213  1.5003  0.3999
  296MOL0     H39036   4.497   4.570   1.558 -3.7950 -2.2275 -0.2590
  296MOL0     H39037   4.639   4.757   1.539 -1.1344 -0.9281  0.2379
  296MOL0     H39038   4.792   4.907   1.364  0.0500  1.0864 -1.8302
  296MOL0     H39039   4.708   4.973   1.519 -0.3866  0.6230  0.0611
  296MOL0     H39040   4.732   5.213   1.418  2.0058  3.0198  0.3215
  296MOL0     H39041   4.787   5.140   1.271 -1.4713  0.0456  1.2633
  296MOL0     H39042   5.004   5.052   1.397  1.3043  2.2840  0.3723
  296MOL0     H39043   4.936   5.124   1.541  3.7511  2.0494 -0.2258
  296MOL0     H39044   5.043   5.243   1.295  1.5658  2.3064 -1.1466
  296MOL0     H39045   4.921   5.327   1.387 -0.2396 -1.3356  0.3792
  296MOL0     H39046   5.078   5.314   1.600  1.3951 -0.1298  0.0756
  296MOL0     H39047   5.133   5.403   1.451  1.2219  0.3270 -0.2229
  296MOL0     H39048   5.282   5.236   1.393  3.1468 -1.2009  0.4768
  296MOL0     H39049   5.214   5.117   1.498 -1.3871  0.1107 -3.1190
  296MOL0     H39050   5.346   5.375   1.592 -2.3056 -0.2108 -0.9782
  296MOL0     H39051   5.276   5.248   1.696 -2.8830 -0.9403 -1.2761
  296MOL0     H39052   5.516   5.234   1.671 -2.2301  2.0928 -0.1119
  296MOL0     H39053   5.523   5.251   1.495  0.2517 -1.0445 -1.6213
  296MOL0     H39054   4.376   4.901   1.214 -0.7399 -1.2213 -2.0417
  296MOL0     H39055   4.249   4.707   1.252 -0.3800 -0.7460  1.3804
  296MOL0     H39056   4.126   4.375   1.278  1.0209  2.4538  1.3340
  296MOL0     H39057   4.006   4.189   1.231  0.1089  0.4429 -0.5719
  296MOL0     H39058   3.963   2.570   0.530 -0.5412  0.3975  0.8222
  296MOL0     H39059   4.133   2.535   0.342  2.4434 -2.8076 -0.8167
  296MOL0     H39060   4.395   2.239   0.180  0.0390  0.9598  0.9928
  296MOL0     H39061   4.508   2.123   0.007 -0.0864 -0.5254 -0.6805
  296MOL0     H39062   4.621   1.978  -0.104  0.0957 -0.3700 -0.3890
  296MOL0     H39063   4.695   1.972   0.051 -2.2592  1.0723 -0.6325
  296MOL0     H39064   4.918   1.903  -0.078 -0.1160 -2.2098 -0.2267
  296MOL0     H39065   4.777   1.826  -0.151  0.1476  0.8056  0.0638
  296MOL0     H39066   4.929   2.085  -0.254  0.9308 -0.8157 -0.3106
  296MOL0     H39067   4.794   2.009  -0.348  2.9463 -3.9847 -4.0145
  296MOL0     H39068   5.031   1.862  -0.265  1.1540  4.2987  1.4533
  296MOL0     H39069   4.895   1.803  -0.364  2.8730 -2.2438  0.5765
  296MOL0     H39070   5.101   2.099  -0.609  2.1670 -1.5157 -0.2322
  296MOL0     H39071   4.873   2.323   0.117  0.3858  0.4453  0.6328
  296MOL0     H39072   4.752   2.454   0.282 -0.0468 -1.5426  1.2114
  297MOL0     O39073   2.429   7.374   9.768 -0.2733 -0.1337 -0.1381
  297MOL0     C39074   2.504   7.412   9.682 -0.6849  1.1683  0.1527
  297MOL0     O39075   2.633   7.460   9.708 -0.3004  0.5746  0.0133
  297MOL0     C39076   2.691   7.445   9.841  0.3153  0.7086 -0.2420
  297MOL0     C39077   2.682   7.333   9.923  0.6933 -0.6496  0.1289
  297MOL0     C39078   2.729   7.344  10.047  0.7692 -0.3401 -0.6611
  297MOL0     C39079   2.786   7.466  10.096  0.3164  0.2325 -0.2581
  297MOL0     O39080   2.818   7.483  10.228  0.1305 -0.5018 -0.1236
  297MOL0     C39081   2.700   7.497  10.298 -0.1703 -0.3656  0.0905
  297MOL0     C39082   2.700   7.613  10.396 -0.3638  0.6096 -0.6561
  297MOL0     C39083   2.786   7.587  10.514  0.4976  0.0037  0.5043
  297MOL0     C39084   2.788   7.688  10.628 -0.2104 -0.6525 -0.2922
  297MOL0     C39085   2.911   7.794  10.631 -0.1855  0.4515  0.1042
  297MOL0     C39086   2.922   7.863  10.767 -0.4339  0.4568 -0.6736
  297MOL0     C39087   3.044   7.955  10.768 -0.5359 -0.1254 -0.6381
  297MOL0     C39088   3.168   7.869  10.814  0.1785  0.6541  1.0923
  297MOL0     N39089   3.284   7.930  10.740  0.1479 -0.1186 -0.4642
  297MOL0     C39090   3.334   8.059  10.753  0.1922  0.3906 -0.5620
  297MOL0     C39091   3.455   8.052  10.696 -0.3659  0.1599  0.1011
  297MOL0     C39092   3.558   8.170  10.700 -0.2803  0.0579 -0.2471
  297MOL0     C39093   3.658   8.181  10.582  0.4486  0.6115 -0.5605
  297MOL0     C39094   3.616   8.286  10.469  0.0257 -0.4057 -0.3629
  297MOL0     C39095   3.527   8.223  10.362  0.3991  0.1295  0.3486
  297MOL0     O39096   3.603   8.200  10.232 -0.4666 -0.5654  1.5114
  297MOL0     C39097   3.691   8.097  10.221 -0.8531 -0.7648  0.3605
  297MOL0     C39098   3.656   7.971  10.244  0.1760 -1.4520  0.1455
  297MOL0     C39099   3.765   7.867  10.250 -0.2674  0.3625  1.0291
  297MOL0     C39100   3.904   7.895  10.227 -0.5986 -0.4569  0.3091
  297MOL0     C39101   4.012   7.795  10.222  0.3802  0.5973 -0.0607
  297MOL0     O39102   3.973   7.668  10.267  0.3379 -0.3660 -0.2960
  297MOL0     C39103   4.049   7.558  10.289 -0.4658  0.5190 -0.2035
  297MOL0     C39104   4.186   7.571  10.318  0.1137 -0.4508  0.9105
  297MOL0     C39105   4.254   7.450  10.345 -0.0163 -0.6535  0.6051
  297MOL0     C39106   4.199   7.324  10.337  0.4461  0.2279 -0.3373
  297MOL0     O39107   4.265   7.205  10.364 -0.4140  0.2794 -0.2023
  297MOL0     C39108   4.404   7.210  10.395  0.2451 -0.9272 -0.0591
  297MOL0     C39109   4.420   7.242  10.552 -0.1618 -0.1633 -0.0382
  297MOL0     C39110   4.563   7.292  10.577 -0.3667 -0.1699  0.0073
  297MOL0     C39111   4.607   7.425  10.514 -0.4861 -0.1951 -0.2458
  297MOL0     C39112   4.729   7.482  10.580  0.3789  1.2271 -0.1968
  297MOL0     C39113   4.782   7.608  10.510  0.0603 -0.2811  0.1285
  297MOL0     C39114   4.886   7.672  10.608 -0.5784  0.5108 -1.9734
  297MOL0     C39115   4.999   7.743  10.533  0.8061 -0.5961  0.9157
  297MOL0    Cl39116   4.953   7.875  10.429 -0.6159  0.0655  0.4343
  297MOL0     C39117   4.060   7.318  10.314  1.1997  0.0854 -0.1648
  297MOL0     C39118   3.979   7.435  10.280  0.2845  0.2459 -0.0157
  297MOL0     O39119   4.126   7.832  10.179  0.1164  0.7150  0.0681
  297MOL0     C39120   3.932   8.032  10.207 -0.0038  0.0032  0.9400
  297MOL0     C39121   3.831   8.124  10.205 -0.0122 -0.1951  0.4018
  297MOL0     N39122   3.473   7.922  10.659 -0.0808  0.2338  0.6479
  297MOL0     N39123   3.375   7.845  10.690  0.0409 -0.2126 -0.0374
  297MOL0     C39124   2.797   7.572  10.013 -0.4689 -1.2176 -0.0019
  297MOL0     C39125   2.767   7.557   9.879  1.5124  0.8393  0.1684
  297MOL0     C39126   2.453   7.403   9.545  0.2492  0.1562  0.8424
  297MOL0     C39127   2.317   7.408   9.509 -0.5716  0.6514  2.0983
  297MOL0     C39128   2.280   7.374   9.373  0.2771 -0.3113  0.0979
  297MOL0     C39129   2.372   7.347   9.273  0.2995 -0.8659  0.0525
  297MOL0     O39130   2.334   7.326   9.136  0.5058 -1.2075 -0.3821
  297MOL0     C39131   2.240   7.218   9.099 -0.0259  0.1860  0.1375
  297MOL0     C39132   2.240   7.198   8.951  0.0980  0.3333  0.5186
  297MOL0     C39133   2.379   7.186   8.887  0.4685 -1.2830 -0.8891
  297MOL0     C39134   2.477   7.099   8.960  0.1674  1.0303 -0.8217
  297MOL0     C39135   2.437   6.964   9.001 -0.5846  0.2557 -0.8338
  297MOL0     C39136   2.411   6.864   9.065 -0.4900  0.4196  0.2803
  297MOL0     C39137   2.501   7.365   9.303  0.4745 -0.1460 -1.0758
  297MOL0     C39138   2.549   7.385   9.440 -0.2097  0.5760  0.4858
  297MOL0     H39139   2.632   7.242   9.892  0.9835 -0.8616  0.2709
  297MOL0     H39140   2.721   7.256  10.110 -2.1688 -1.2400 -2.0850
  297MOL0     H39141   2.701   7.410  10.365 -3.8701  0.0931  0.9902
  297MOL0     H39142   2.604   7.512  10.248 -1.3079 -2.1654  1.5638
  297MOL0     H39143   2.599   7.640  10.428  0.1850  0.7151  1.0685
  297MOL0     H39144   2.731   7.702  10.341 -0.4239  2.9462  2.7916
  297MOL0     H39145   2.890   7.567  10.486 -0.3184 -2.1755 -1.2140
  297MOL0     H39146   2.752   7.493  10.559 -1.6979  1.0159  1.1190
  297MOL0     H39147   2.692   7.740  10.628 -0.3120 -0.7126  2.4542
  297MOL0     H39148   2.782   7.649  10.730 -1.7957 -0.1827 -0.1718
  297MOL0     H39149   2.893   7.861  10.546  1.2452 -0.9774 -1.4059
  297MOL0     H39150   2.999   7.736  10.601  0.4556  0.7984  1.2770
  297MOL0     H39151   2.922   7.801  10.857 -1.2431  0.9884 -0.2928
  297MOL0     H39152   2.831   7.919  10.788 -0.0021  0.3388  1.7917
  297MOL0     H39153   3.060   7.981  10.663 -0.0386 -2.4495 -1.1842
  297MOL0     H39154   3.029   8.039  10.836  3.0338 -0.9820  1.5227
  297MOL0     H39155   3.163   7.766  10.780  1.3209  1.2728 -1.1639
  297MOL0     H39156   3.184   7.869  10.922 -0.7120 -2.1252  1.2874
  297MOL0     H39157   3.293   8.147  10.801 -0.4212 -0.7252  1.0249
  297MOL0     H39158   3.604   8.150  10.797 -1.7176 -2.3621  0.0173
  297MOL0     H39159   3.497   8.260  10.713 -0.5977 -0.3547  1.3058
  297MOL0     H39160   3.676   8.082  10.540 -1.4862 -0.5496  1.1398
  297MOL0     H39161   3.744   8.226  10.631 -0.1013  1.9768 -0.8040
  297MOL0     H39162   3.552   8.363  10.514 -1.4853  0.1341 -3.2044
  297MOL0     H39163   3.689   8.352  10.421 -1.0492  1.0180 -0.1075
  297MOL0     H39164   3.441   8.290  10.353 -1.4001 -1.7606  2.3972
  297MOL0     H39165   3.485   8.129  10.398 -0.2709  0.0617 -0.5685
  297MOL0     H39166   3.556   7.933  10.261  0.7012 -1.7211  3.2270
  297MOL0     H39167   3.739   7.765  10.275  2.1339  0.4199  4.5268
  297MOL0     H39168   4.241   7.665  10.315 -0.3045 -0.2238 -1.7397
  297MOL0     H39169   4.359   7.473  10.364  0.2516  1.9853 -2.9571
  297MOL0     H39170   4.460   7.286  10.339  5.3596 -2.2833  2.5713
  297MOL0     H39171   4.448   7.110  10.386 -0.6696 -1.4940  1.4293
  297MOL0     H39172   4.399   7.156  10.615  1.3257  1.2240  2.5376
  297MOL0     H39173   4.346   7.317  10.581 -0.6437 -0.6014 -0.1383
  297MOL0     H39174   4.626   7.205  10.556 -4.1762 -3.3148  0.4923
  297MOL0     H39175   4.563   7.299  10.686  0.9256 -0.8057  0.0689
  297MOL0     H39176   4.615   7.413  10.406  1.8519  3.4726 -0.6513
  297MOL0     H39177   4.533   7.505  10.524 -0.6891  0.1067 -3.3269
  297MOL0     H39178   4.799   7.398  10.587 -1.2366 -0.2150 -0.6543
  297MOL0     H39179   4.696   7.516  10.679 -1.5203 -0.7660 -0.0646
  297MOL0     H39180   4.696   7.672  10.494  0.8275  0.5351 -0.9218
  297MOL0     H39181   4.817   7.591  10.407 -1.3661 -1.0664 -0.2539
  297MOL0     H39182   4.844   7.739  10.684  1.7285 -2.1918  2.0535
  297MOL0     H39183   4.922   7.590  10.670  0.9208  1.4915 -1.5046
  297MOL0     H39184   5.034   7.665  10.465  0.2908 -1.3281  1.4667
  297MOL0     H39185   5.085   7.778  10.592  1.0612  1.1712 -0.4303
  297MOL0     H39186   4.003   7.226  10.322 -1.6309  1.6106 -1.2340
  297MOL0     H39187   3.872   7.434  10.262  0.0289 -2.1079  1.1598
  297MOL0     H39188   4.035   8.062  10.189 -0.7703  0.8624 -2.8493
  297MOL0     H39189   3.863   8.225  10.180 -1.5816  0.1600 -0.3217
  297MOL0     H39190   2.851   7.661  10.044  0.1713 -1.0435 -1.5299
  297MOL0     H39191   2.790   7.640   9.814  1.8602 -0.0919 -0.9356
  297MOL0     H39192   2.233   7.410   9.577 -2.2325 -1.8386  0.3202
  297MOL0     H39193   2.174   7.370   9.353 -0.0906  0.6720  1.6785
  297MOL0     H39194   2.137   7.249   9.118  0.0919  1.1170 -0.6623
  297MOL0     H39195   2.265   7.124   9.148 -0.4041 -0.9645 -1.7716
  297MOL0     H39196   2.187   7.103   8.938 -0.9718  1.0228 -0.4094
  297MOL0     H39197   2.170   7.268   8.904 -2.8734 -1.5729  1.8091
  297MOL0     H39198   2.421   7.286   8.891 -1.7058 -0.3416  0.8979
  297MOL0     H39199   2.375   7.158   8.781  2.5431  1.0953 -1.6783
  297MOL0     H39200   2.564   7.097   8.893  0.1908 -0.6611 -0.7853
  297MOL0     H39201   2.510   7.141   9.055 -2.1194 -0.0843  0.5409
  297MOL0     H39202   2.377   6.778   9.119 -2.2837  0.1960 -1.0696
  297MOL0     H39203   2.569   7.349   9.219 -0.0426  1.3171 -1.8141
  297MOL0     H39204   2.657   7.390   9.450  0.2139 -1.0887 -2.0917
  298MOL0     O39205   6.622   0.934   7.544 -0.1891  0.1844  0.0501
  298MOL0     C39206   6.666   1.036   7.486  0.9955  0.8862  0.3295
  298MOL0     O39207   6.764   1.124   7.534 -0.0073  0.7025 -0.4010
  298MOL0     C39208   6.897   1.098   7.524  0.1125  0.6079  0.7667
  298MOL0     C39209   6.954   0.997   7.442  0.0058 -0.5295  0.7447
  298MOL0     C39210   7.092   0.977   7.439  0.6745  0.3826  0.1307
  298MOL0     C39211   7.180   1.060   7.507  0.7155  1.2480 -0.4724
  298MOL0     O39212   7.319   1.034   7.514  0.1767  0.0342 -0.0742
  298MOL0     C39213   7.380   0.953   7.409 -0.4945 -0.4681 -1.4554
  298MOL0     C39214   7.536   0.960   7.407 -0.0512 -0.1237 -0.8668
  298MOL0     C39215   7.590   0.862   7.515  1.0726  0.7863  0.9949
  298MOL0     C39216   7.736   0.868   7.506  0.4304  0.1928  0.4380
  298MOL0     C39217   7.804   0.809   7.638 -0.3262 -0.1191 -0.0218
  298MOL0     C39218   7.757   0.666   7.678 -0.0015 -0.2406  0.6054
  298MOL0     C39219   7.846   0.597   7.783 -0.1112  0.2505 -0.5217
  298MOL0     C39220   7.867   0.688   7.909 -0.5445  0.3649  0.1927
  298MOL0     N39221   7.755   0.715   7.987  0.5307 -0.4663 -0.5666
  298MOL0     C39222   7.694   0.631   8.083 -0.5691  0.3115  0.8864
  298MOL0     C39223   7.581   0.691   8.127 -0.5953 -0.8214 -0.2643
  298MOL0     C39224   7.483   0.648   8.225 -1.1225  0.1878 -0.2865
  298MOL0     C39225   7.347   0.736   8.228  0.2016  0.3474  0.9519
  298MOL0     C39226   7.264   0.680   8.342  0.1446  0.0769  0.2616
  298MOL0     C39227   7.139   0.767   8.366 -0.6724  0.4562 -0.6711
  298MOL0     O39228   7.168   0.904   8.396  0.3737 -0.1460  0.5615
  298MOL0     C39229   7.210   0.958   8.512 -0.1265 -0.1883 -0.2224
  298MOL0     C39230   7.315   1.039   8.506  0.1864 -0.4081  0.7659
  298MOL0     C39231   7.359   1.107   8.624 -0.2551  0.6833 -1.0926
  298MOL0     C39232   7.301   1.074   8.748  0.0623 -0.0365 -0.6720
  298MOL0     C39233   7.370   1.131   8.871 -0.1378  0.7872  1.3464
  298MOL0     O39234   7.303   1.097   8.989 -0.0177 -0.3024  0.8655
  298MOL0     C39235   7.350   1.097   9.116 -0.2223 -0.2377  0.3112
  298MOL0     C39236   7.269   1.073   9.227 -0.1570  0.3846 -0.1310
  298MOL0     C39237   7.322   1.069   9.352  0.1273 -0.4651 -0.6222
  298MOL0     C39238   7.456   1.071   9.384  0.3269  0.0999  0.3866
  298MOL0     O39239   7.516   1.070   9.514  0.0963 -0.1440  0.4327
  298MOL0     C39240   7.442   1.019   9.622  0.6516 -0.3283 -1.1145
  298MOL0     C39241   7.523   0.941   9.729 -0.3312 -0.7982 -0.3085
  298MOL0     C39242   7.416   0.912   9.840 -0.7138 -0.7267 -0.0107
  298MOL0     C39243   7.496   0.844   9.957  0.3719 -0.0512  0.8108
  298MOL0     C39244   7.409   0.781  10.061  0.8505  0.2557  0.0477
  298MOL0     C39245   7.313   0.670  10.010  1.1929 -0.1670 -0.4917
  298MOL0     C39246   7.282   0.567  10.126  0.6751  0.3382 -0.3308
  298MOL0     C39247   7.176   0.481  10.081 -0.9413  0.0407 -0.5989
  298MOL0    Cl39248   7.169   0.368  10.223 -0.5190 -0.1056  0.6331
  298MOL0     C39249   7.534   1.071   9.265 -0.5576 -0.6427  0.1495
  298MOL0     C39250   7.487   1.087   9.135 -0.0355  0.1873  0.8340
  298MOL0     O39251   7.483   1.186   8.859  0.5236 -0.1938 -0.0466
  298MOL0     C39252   7.187   0.985   8.748  0.3576  1.2762  0.5694
  298MOL0     C39253   7.148   0.930   8.636 -0.1172 -0.7627  0.2530
  298MOL0     N39254   7.576   0.813   8.067 -0.0578 -1.0514  0.1071
  298MOL0     N39255   7.679   0.822   7.993 -0.1209  0.2490  0.1671
  298MOL0     C39256   7.120   1.160   7.583 -0.7928 -0.3658  0.4425
  298MOL0     C39257   6.985   1.172   7.598  0.3894  0.2687  0.6949
  298MOL0     C39258   6.630   1.043   7.340 -0.6007 -0.0868 -0.3237
  298MOL0     C39259   6.624   1.172   7.278 -0.0887  0.7950  0.1837
  298MOL0     C39260   6.589   1.178   7.145  0.7776  0.0515  0.1154
  298MOL0     C39261   6.550   1.058   7.074  0.3176  0.4152  0.5909
  298MOL0     O39262   6.512   1.055   6.939  0.1485 -0.4966  0.3803
  298MOL0     C39263   6.502   1.186   6.872  0.3568  0.8507  0.1602
  298MOL0     C39264   6.443   1.168   6.729  0.1358 -0.1779 -0.2585
  298MOL0     C39265   6.455   1.304   6.658 -0.7923  0.3895 -0.4531
  298MOL0     C39266   6.381   1.312   6.517 -0.6460  0.6100 -0.6434
  298MOL0     C39267   6.461   1.240   6.416  1.0110  0.8337  0.4437
  298MOL0     C39268   6.515   1.184   6.326 -0.8502 -0.3008 -0.0953
  298MOL0     C39269   6.549   0.936   7.138  0.4256 -0.1419 -1.2681
  298MOL0     C39270   6.580   0.928   7.276  0.3935  0.1593  0.7845
  298MOL0     H39271   6.896   0.941   7.369  5.2421 -5.3600 -0.3967
  298MOL0     H39272   7.120   0.903   7.365 -0.2666  1.0525 -0.9322
  298MOL0     H39273   7.355   1.003   7.315  1.4499 -0.5068 -2.0358
  298MOL0     H39274   7.354   0.847   7.411  1.7631 -1.0987  1.6143
  298MOL0     H39275   7.576   1.057   7.438 -0.6814  0.7012 -2.4985
  298MOL0     H39276   7.569   0.932   7.306 -1.4771 -1.0331 -1.1153
  298MOL0     H39277   7.549   0.762   7.497 -0.6346  1.7837 -1.1867
  298MOL0     H39278   7.546   0.888   7.611 -0.8797 -1.5793  0.8185
  298MOL0     H39279   7.768   0.792   7.435  1.8961 -0.9280  2.1907
  298MOL0     H39280   7.774   0.966   7.474  2.0454 -1.8275 -4.8089
  298MOL0     H39281   7.790   0.873   7.726 -1.3785 -1.1110  0.5486
  298MOL0     H39282   7.912   0.799   7.622 -0.4875 -0.5440 -0.9173
  298MOL0     H39283   7.752   0.593   7.596  1.0311 -1.5049  1.6231
  298MOL0     H39284   7.654   0.674   7.712  0.0079  1.3084  0.3157
  298MOL0     H39285   7.790   0.509   7.817  0.0876  1.3237  2.9486
  298MOL0     H39286   7.941   0.560   7.745 -0.4345 -2.4565  1.0292
  298MOL0     H39287   7.920   0.782   7.889  1.2921 -0.7638 -0.4364
  298MOL0     H39288   7.935   0.642   7.980  1.5780 -0.4167 -2.2031
  298MOL0     H39289   7.730   0.533   8.113  0.7568  0.9776  1.5536
  298MOL0     H39290   7.529   0.648   8.325 -1.1026 -2.8719 -0.1974
  298MOL0     H39291   7.479   0.539   8.212  3.2330 -0.2319  0.2144
  298MOL0     H39292   7.304   0.723   8.128  4.2740  1.0633 -1.0852
  298MOL0     H39293   7.371   0.841   8.248 -3.1784  1.0942  1.6901
  298MOL0     H39294   7.234   0.576   8.326  0.2740  0.1609 -0.5483
  298MOL0     H39295   7.320   0.688   8.436  2.9784  1.1655 -1.4094
  298MOL0     H39296   7.080   0.735   8.453  2.2763  0.9850  1.7217
  298MOL0     H39297   7.074   0.753   8.279 -1.2015  1.3085 -0.4279
  298MOL0     H39298   7.368   1.055   8.413  0.1908  0.6604  0.9360
  298MOL0     H39299   7.448   1.169   8.630 -1.2336  1.9955  0.7517
  298MOL0     H39300   7.161   1.076   9.232 -0.1792  1.7492 -0.7604
  298MOL0     H39301   7.257   1.064   9.439 -0.2866  1.8198 -0.7441
  298MOL0     H39302   7.363   0.949   9.591 -1.3903  1.0088  0.7674
  298MOL0     H39303   7.397   1.105   9.672 -1.2023 -0.9590 -1.6087
  298MOL0     H39304   7.609   1.001   9.761 -1.7419  1.5430 -0.6971
  298MOL0     H39305   7.540   0.843   9.684 -5.0128 -1.5013 -1.1184
  298MOL0     H39306   7.334   0.850   9.802 -2.2594  1.9595 -1.3100
  298MOL0     H39307   7.369   0.999   9.886  1.0025 -0.2208  0.8943
  298MOL0     H39308   7.557   0.761   9.920 -1.5129  0.0998 -3.1691
  298MOL0     H39309   7.558   0.923   9.999 -2.3561  0.6035  4.0329
  298MOL0     H39310   7.348   0.862  10.102 -1.1425 -0.0065 -2.1657
  298MOL0     H39311   7.481   0.741  10.133 -1.6299 -3.0749  0.9363
  298MOL0     H39312   7.351   0.609   9.927 -1.4521 -2.8795  0.1129
  298MOL0     H39313   7.222   0.711   9.965 -1.4781 -3.2562  1.5648
  298MOL0     H39314   7.368   0.507  10.157 -1.2312 -1.0959  2.5992
  298MOL0     H39315   7.250   0.622  10.215  0.2393  0.5808 -0.6343
  298MOL0     H39316   7.193   0.428   9.987 -2.0634  1.0603 -1.4121
  298MOL0     H39317   7.084   0.541  10.078 -0.7218  0.9662  4.0371
  298MOL0     H39318   7.641   1.058   9.275  0.0489  3.3511  0.4393
  298MOL0     H39319   7.568   1.085   9.063 -1.2149  0.6276 -0.5573
  298MOL0     H39320   7.133   0.948   8.835 -0.6270 -3.1100 -1.6151
  298MOL0     H39321   7.073   0.852   8.646  0.4168 -1.0555  2.7546
  298MOL0     H39322   7.180   1.229   7.640  2.1646 -0.0267 -2.7207
  298MOL0     H39323   6.941   1.244   7.666 -2.1534 -0.4601 -0.0801
  298MOL0     H39324   6.662   1.260   7.329  2.5131 -1.4797  2.5368
  298MOL0     H39325   6.587   1.278   7.102 -0.3069  0.5455  1.2434
  298MOL0     H39326   6.604   1.226   6.873  1.3785 -0.7845 -5.3848
  298MOL0     H39327   6.431   1.249   6.926  0.7105  0.7182  0.7937
  298MOL0     H39328   6.509   1.095   6.683  0.9927  0.4644 -0.0868
  298MOL0     H39329   6.341   1.129   6.738  1.5251 -3.9664  1.3198
  298MOL0     H39330   6.561   1.332   6.652 -0.6738 -0.1991 -1.4767
  298MOL0     H39331   6.404   1.380   6.717  0.5830  0.1966  1.0554
  298MOL0     H39332   6.284   1.263   6.523 -1.8975  2.7671 -2.0264
  298MOL0     H39333   6.360   1.416   6.492 -0.7666  0.9763  0.8950
  298MOL0     H39334   6.576   1.130   6.256  1.7049  0.7802  1.1558
  298MOL0     H39335   6.522   0.840   7.094 -0.8668 -0.1134 -0.5758
  298MOL0     H39336   6.576   0.838   7.335 -2.4433  0.7362  1.6014
  299MOL0     O39337  10.538   1.960   5.340 -0.0126 -0.3805 -0.1141
  299MOL0     C39338  10.570   1.898   5.446  0.1913  0.1456  0.2639
  299MOL0     O39339  10.534   1.764   5.481  0.3317  0.1554 -0.6163
  299MOL0     C39340  10.432   1.709   5.403 -0.3192 -0.2494  0.0516
  299MOL0     C39341  10.320   1.788   5.367 -0.1437  0.0718 -0.5408
  299MOL0     C39342  10.218   1.735   5.288 -0.2196  0.0098 -0.4951
  299MOL0     C39343  10.234   1.605   5.243 -0.0642 -0.5303  0.7179
  299MOL0     O39344  10.146   1.562   5.150 -0.5821  0.7286 -1.5824
  299MOL0     C39345  10.073   1.444   5.179 -0.2140 -0.7663 -0.6127
  299MOL0     C39346   9.953   1.430   5.075 -0.1050 -0.6690  0.2166
  299MOL0     C39347   9.846   1.538   5.101  0.1660 -1.0373  0.8442
  299MOL0     C39348   9.764   1.527   5.223 -0.0960 -0.1959  0.2999
  299MOL0     C39349   9.654   1.633   5.235  0.2982 -0.3267 -0.2916
  299MOL0     C39350   9.609   1.641   5.382 -0.6711  0.5373  0.3734
  299MOL0     C39351   9.536   1.507   5.432 -0.3149  0.1695  0.5237
  299MOL0     C39352   9.448   1.522   5.551  0.3322  0.0157  0.2285
  299MOL0     N39353   9.473   1.412   5.642 -0.2549  0.6715  0.0108
  299MOL0     C39354   9.586   1.398   5.724 -0.5078  0.1061  0.9271
  299MOL0     C39355   9.577   1.273   5.787  0.3953 -1.4611  0.5854
  299MOL0     C39356   9.693   1.219   5.867  0.0838 -0.1755 -0.7060
  299MOL0     C39357   9.668   1.058   5.868  0.7448 -0.6740  0.8244
  299MOL0     C39358   9.765   0.987   5.959  0.3980 -0.2413 -0.3118
  299MOL0     C39359   9.697   0.878   6.043 -0.0120  0.6935  0.5300
  299MOL0     O39360   9.782   0.821   6.141 -0.1577 -0.7413 -1.3535
  299MOL0     C39361   9.824   0.695   6.118 -1.4151  1.2174 -0.4045
  299MOL0     C39362   9.965   0.663   6.120  0.5970  0.2685  0.6080
  299MOL0     C39363  10.014   0.537   6.091  0.0932 -0.2940  0.2134
  299MOL0     C39364   9.919   0.431   6.077  0.8020  0.1213 -0.6287
  299MOL0     C39365   9.953   0.286   6.058  0.0139  1.6660  0.2762
  299MOL0     O39366   9.857   0.192   6.087  0.3579  0.7369  0.2048
  299MOL0     C39367   9.887   0.059   6.079 -0.6577 -0.4392 -0.3349
  299MOL0     C39368   9.989   0.016   6.158  0.4456 -0.3161 -0.7921
  299MOL0     C39369  10.028  -0.121   6.155  0.0132 -0.3736  0.5936
  299MOL0     C39370   9.959  -0.208   6.071  0.6326 -0.1237  0.1895
  299MOL0     O39371   9.978  -0.343   6.049 -0.9440 -1.1064  0.4558
  299MOL0     C39372  10.108  -0.401   6.091 -0.6963  0.3379 -0.4424
  299MOL0     C39373  10.096  -0.443   6.235 -0.7251  0.0540  0.0363
  299MOL0     C39374  10.223  -0.517   6.293 -0.3023 -0.6011  1.1218
  299MOL0     C39375  10.255  -0.650   6.230 -0.3186  0.6208 -0.2995
  299MOL0     C39376  10.149  -0.759   6.185  0.2838  0.4585 -0.5464
  299MOL0     C39377  10.230  -0.881   6.125 -0.5282  0.0478  0.1163
  299MOL0     C39378  10.127  -0.986   6.066 -0.2239  0.5763  0.8871
  299MOL0     C39379  10.203  -1.099   5.984  0.0295  0.5106  0.7173
  299MOL0    Cl39380  10.238  -1.053   5.822 -0.3133 -0.0587  0.7337
  299MOL0     C39381   9.844  -0.161   6.005  0.3889 -0.1147 -0.6310
  299MOL0     C39382   9.808  -0.022   6.012  0.5382 -0.7361 -0.3058
  299MOL0     O39383  10.071   0.262   6.023 -0.2472  0.6378  0.4005
  299MOL0     C39384   9.773   0.463   6.083 -0.2206  0.6804  0.0192
  299MOL0     C39385   9.730   0.593   6.103 -0.5360 -0.3189 -0.1017
  299MOL0     N39386   9.453   1.222   5.752  0.4125 -0.7283  0.0501
  299MOL0     N39387   9.390   1.308   5.674 -0.5704 -0.6526 -0.4697
  299MOL0     C39388  10.341   1.524   5.283 -0.5090  0.3246  0.1899
  299MOL0     C39389  10.442   1.581   5.352  0.1148  0.4230 -0.3923
  299MOL0     C39390  10.630   1.975   5.562 -0.0763 -0.1735  1.4738
  299MOL0     C39391  10.653   1.913   5.687 -0.3212 -0.9416  0.6673
  299MOL0     C39392  10.710   1.979   5.797  0.4665 -0.7794 -0.3016
  299MOL0     C39393  10.754   2.112   5.772 -0.5223 -0.5856 -0.0218
  299MOL0     O39394  10.799   2.187   5.876 -0.2591  0.6043  0.4577
  299MOL0     C39395  10.743   2.183   6.008 -0.4386 -0.1966  0.0959
  299MOL0     C39396  10.847   2.198   6.118 -0.0091  0.1466 -0.0313
  299MOL0     C39397  10.908   2.340   6.095  0.8683  0.1670  0.9080
  299MOL0     C39398  11.048   2.354   6.166 -0.1827  0.2494  0.8966
  299MOL0     C39399  11.092   2.497   6.181  1.1115  1.4682 -0.7878
  299MOL0     C39400  11.129   2.615   6.185  0.6770 -0.1117  0.0370
  299MOL0     C39401  10.739   2.175   5.647  1.0379  0.8004  0.5160
  299MOL0     C39402  10.673   2.110   5.548 -0.4749  1.0249  0.2733
  299MOL0     H39403  10.307   1.880   5.423  1.1151  0.1061 -0.2617
  299MOL0     H39404  10.133   1.799   5.267 -1.1537 -1.3803 -1.0679
  299MOL0     H39405  10.026   1.450   5.277  0.6154  0.6219 -0.2643
  299MOL0     H39406  10.133   1.355   5.159 -0.6906 -0.7741 -2.0938
  299MOL0     H39407   9.910   1.330   5.084 -1.0888 -0.2121  0.8083
  299MOL0     H39408   9.987   1.452   4.973 -0.6694  1.7603  0.4912
  299MOL0     H39409   9.787   1.554   5.010 -0.0424 -0.0993  1.1402
  299MOL0     H39410   9.889   1.638   5.112  0.2077 -1.0293  0.6207
  299MOL0     H39411   9.716   1.429   5.212 -0.1933 -0.0598 -0.5788
  299MOL0     H39412   9.824   1.511   5.313  0.0358  0.4176  0.3251
  299MOL0     H39413   9.580   1.601   5.160 -1.5037  0.1827  1.2061
  299MOL0     H39414   9.683   1.732   5.198  3.5356 -1.4375 -1.1177
  299MOL0     H39415   9.533   1.718   5.388 -1.5557 -0.3935  1.4905
  299MOL0     H39416   9.692   1.678   5.443  0.0126  4.3827 -2.5045
  299MOL0     H39417   9.473   1.476   5.349 -1.0404 -2.2227  1.8906
  299MOL0     H39418   9.615   1.432   5.443  1.2687  2.0000  2.7891
  299MOL0     H39419   9.346   1.520   5.513 -0.4273 -0.8569  2.1554
  299MOL0     H39420   9.448   1.613   5.611  1.0561 -1.4806  2.6515
  299MOL0     H39421   9.673   1.463   5.719 -1.5077  1.4633  0.2566
  299MOL0     H39422   9.692   1.273   5.962 -0.4751 -0.1067 -0.7452
  299MOL0     H39423   9.796   1.240   5.835  2.1904 -1.2269  4.4749
  299MOL0     H39424   9.687   1.013   5.770  0.3399  2.0782 -0.6167
  299MOL0     H39425   9.569   1.037   5.909  0.8158  0.1883  1.4498
  299MOL0     H39426   9.848   0.938   5.908 -0.0602 -2.3352  0.8268
  299MOL0     H39427   9.801   1.065   6.026 -1.3601 -0.8095  1.3873
  299MOL0     H39428   9.651   0.805   5.976 -1.6940  1.2635  1.0183
  299MOL0     H39429   9.608   0.921   6.091 -0.3639  0.6646 -0.0792
  299MOL0     H39430  10.040   0.733   6.154  1.1315 -0.7005  1.4650
  299MOL0     H39431  10.122   0.521   6.085  0.5555  0.3831  3.9820
  299MOL0     H39432  10.050   0.083   6.218  1.5740 -3.0250  1.2746
  299MOL0     H39433  10.122  -0.142   6.204  0.8280  2.7095  0.5690
  299MOL0     H39434  10.195  -0.338   6.068 -0.9985  1.5618  1.5372
  299MOL0     H39435  10.114  -0.475   6.011 -1.2903  4.0245 -4.2773
  299MOL0     H39436  10.008  -0.506   6.253  0.1113 -1.1233  0.1514
  299MOL0     H39437  10.076  -0.362   6.305 -1.2865 -2.5430  3.1077
  299MOL0     H39438  10.209  -0.532   6.400  1.5260  0.4500  1.5467
  299MOL0     H39439  10.302  -0.443   6.275 -1.9126  0.6829 -1.0705
  299MOL0     H39440  10.309  -0.630   6.137  1.5685  0.1596  0.6370
  299MOL0     H39441  10.340  -0.694   6.284  1.2083  1.4975 -1.8806
  299MOL0     H39442  10.090  -0.715   6.104  1.8422  0.2625 -1.8353
  299MOL0     H39443  10.089  -0.785   6.272  1.1886 -0.2598 -0.1202
  299MOL0     H39444  10.291  -0.946   6.188 -1.9245 -0.5470  0.8811
  299MOL0     H39445  10.287  -0.838   6.042 -0.8909  3.5916  1.5446
  299MOL0     H39446  10.062  -1.032   6.141 -0.2293  0.9619  1.1201
  299MOL0     H39447  10.062  -0.934   5.995  0.4045 -0.3640 -0.4272
  299MOL0     H39448  10.138  -1.186   5.985 -0.8758  1.1466 -0.4568
  299MOL0     H39449  10.296  -1.121   6.037  0.1619  1.8825  1.1119
  299MOL0     H39450   9.780  -0.224   5.945  1.2701 -1.3271 -0.3425
  299MOL0     H39451   9.716   0.015   5.968  0.7293 -1.9476 -1.8166
  299MOL0     H39452   9.701   0.382   6.078  1.3617 -0.6954 -2.1479
  299MOL0     H39453   9.624   0.616   6.114 -0.1062  1.0001  2.0849
  299MOL0     H39454  10.333   1.418   5.263 -2.1247 -0.0947  2.6132
  299MOL0     H39455  10.517   1.506   5.371 -0.0851  0.4515  0.6035
  299MOL0     H39456  10.617   1.812   5.704 -0.1620 -1.1814 -0.3432
  299MOL0     H39457  10.702   1.921   5.889  2.3568 -3.3711 -1.6584
  299MOL0     H39458  10.687   2.091   6.026  0.7725 -0.6401  1.9846
  299MOL0     H39459  10.670   2.264   6.018  1.8271  1.9377  0.3082
  299MOL0     H39460  10.792   2.193   6.212 -0.9354 -1.2853 -0.6068
  299MOL0     H39461  10.919   2.116   6.107 -1.6556 -1.1602 -1.9609
  299MOL0     H39462  10.839   2.418   6.128 -3.0178 -2.6481  0.0765
  299MOL0     H39463  10.922   2.353   5.988 -1.6072  1.5780  0.6768
  299MOL0     H39464  11.041   2.310   6.266 -1.1097  1.0821  1.2180
  299MOL0     H39465  11.118   2.295   6.106 -1.1052  1.1395 -1.1582
  299MOL0     H39466  11.146   2.721   6.191  0.4238  0.0894 -2.1324
  299MOL0     H39467  10.764   2.280   5.641  0.0896  0.9764 -0.4271
  299MOL0     H39468  10.652   2.163   5.455  1.7182 -2.9766 -2.8665
  300MOL0     O39469   4.974   5.755   1.408 -0.3582  0.8131  0.3035
  300MOL0     C39470   4.995   5.694   1.516  0.0185  0.7515  0.4854
  300MOL0     O39471   4.888   5.635   1.592 -0.3579  0.4460  0.1399
  300MOL0     C39472   4.763   5.658   1.540  0.0211  0.1093 -0.8108
  300MOL0     C39473   4.689   5.598   1.439 -0.5244  0.4480  0.1735
  300MOL0     C39474   4.568   5.639   1.403  0.3392  0.1850  0.3950
  300MOL0     C39475   4.505   5.750   1.463  0.0926 -0.8645 -0.6988
  300MOL0     O39476   4.377   5.776   1.421 -0.5569  0.4474 -0.2571
  300MOL0     C39477   4.299   5.884   1.479  0.5523  0.2235  0.2809
  300MOL0     C39478   4.160   5.880   1.418 -0.0635  0.8346  0.8259
  300MOL0     C39479   4.107   5.733   1.444 -0.4983 -1.2779 -0.0102
  300MOL0     C39480   3.960   5.735   1.378 -0.1410  0.3449  0.8499
  300MOL0     C39481   3.882   5.610   1.399  1.1380  0.3139  0.5844
  300MOL0     C39482   3.739   5.640   1.374  0.9284  0.3798  0.0123
  300MOL0     C39483   3.655   5.514   1.370  0.0820  0.6905  0.4546
  300MOL0     C39484   3.644   5.480   1.221 -0.1782 -0.1954  0.6676
  300MOL0     N39485   3.552   5.368   1.191 -0.2932 -0.5735  0.3478
  300MOL0     C39486   3.441   5.334   1.249  0.0735  0.9999 -0.0059
  300MOL0     C39487   3.414   5.208   1.192  0.1816  0.7787 -0.0401
  300MOL0     C39488   3.319   5.096   1.242  0.0770 -0.2832 -0.0115
  300MOL0     C39489   3.180   5.094   1.182 -1.6216  0.3005  0.1359
  300MOL0     C39490   3.090   4.990   1.248  0.2466 -0.3728 -0.4678
  300MOL0     C39491   3.103   4.848   1.190  0.0068 -0.1913  0.8587
  300MOL0     O39492   3.086   4.848   1.042  0.6542 -0.1761 -0.5529
  300MOL0     C39493   3.103   4.746   0.951 -0.1349 -0.4656  0.4450
  300MOL0     C39494   3.150   4.619   0.996 -1.2695 -1.1760 -0.4608
  300MOL0     C39495   3.177   4.518   0.913 -0.4440 -0.0245 -0.5773
  300MOL0     C39496   3.152   4.537   0.772  0.8038  0.8799  0.2242
  300MOL0     C39497   3.156   4.422   0.681  0.2095  1.5464  0.2137
  300MOL0     O39498   3.220   4.313   0.724  0.7330 -0.5878  0.2314
  300MOL0     C39499   3.236   4.214   0.629  0.6763  0.3262  0.3880
  300MOL0     C39500   3.195   4.082   0.648  0.5604  0.9837  0.9518
  300MOL0     C39501   3.255   3.979   0.571 -0.5354  0.1305  0.4252
  300MOL0     C39502   3.346   4.011   0.463  0.7045  0.4288 -0.4618
  300MOL0     O39503   3.391   3.913   0.378  0.2004 -0.3359  1.1404
  300MOL0     C39504   3.514   3.854   0.416  0.2943  0.8400 -0.0080
  300MOL0     C39505   3.549   3.737   0.327  0.8811 -0.2315 -0.4117
  300MOL0     C39506   3.643   3.645   0.389 -0.3440  0.3516 -0.4412
  300MOL0     C39507   3.792   3.687   0.396  0.9430 -0.6700  0.5406
  300MOL0     C39508   3.882   3.648   0.285  0.1123  0.0702  0.8719
  300MOL0     C39509   3.833   3.695   0.143  0.1197 -0.1288  0.8610
  300MOL0     C39510   3.926   3.672   0.023 -0.2957 -0.8275 -0.4135
  300MOL0     C39511   3.962   3.521   0.012  0.2316 -0.4054  0.0778
  300MOL0    Cl39512   4.077   3.500  -0.119 -0.1942 -0.1814 -0.0006
  300MOL0     C39513   3.389   4.141   0.447 -0.4478 -1.0370  0.1274
  300MOL0     C39514   3.330   4.241   0.524  0.0775  0.5304  0.1060
  300MOL0     O39515   3.098   4.435   0.569 -0.0684 -0.1842  0.1854
  300MOL0     C39516   3.077   4.655   0.730  0.8254  0.6567 -0.6964
  300MOL0     C39517   3.068   4.761   0.824 -0.7666 -0.0629  0.3138
  300MOL0     N39518   3.492   5.185   1.087  0.0322 -0.4224  0.4838
  300MOL0     N39519   3.583   5.281   1.094 -0.9798 -0.3783  0.3618
  300MOL0     C39520   4.574   5.815   1.578  1.3255  0.4193  0.4340
  300MOL0     C39521   4.701   5.766   1.611  0.5121 -0.7828 -0.2186
  300MOL0     C39522   5.140   5.686   1.566 -0.1568  0.0687  0.5068
  300MOL0     C39523   5.237   5.773   1.515 -0.4593  0.6254 -0.2783
  300MOL0     C39524   5.359   5.782   1.575 -0.0385 -0.2246 -0.6302
  300MOL0     C39525   5.391   5.704   1.683 -0.6359 -0.3501 -0.7542
  300MOL0     O39526   5.507   5.702   1.747 -0.2568 -0.4469 -0.4001
  300MOL0     C39527   5.612   5.797   1.704  1.3367  0.5336 -0.3282
  300MOL0     C39528   5.723   5.826   1.807 -0.1971 -0.0833 -0.0660
  300MOL0     C39529   5.798   5.697   1.858  0.1152  0.0101  0.7277
  300MOL0     C39530   5.875   5.623   1.748 -0.0842 -0.6768 -1.0173
  300MOL0     C39531   5.989   5.545   1.802  0.2183  1.0304 -0.3607
  300MOL0     C39532   6.084   5.481   1.832 -0.1965  0.0023  1.0498
  300MOL0     C39533   5.301   5.616   1.730  0.2023 -0.6786  0.2795
  300MOL0     C39534   5.179   5.604   1.672 -0.3856  0.6252 -0.6496
  300MOL0     H39535   4.738   5.520   1.382  1.5678  1.0020  1.1179
  300MOL0     H39536   4.508   5.587   1.328  2.3429  0.0554 -1.1960
  300MOL0     H39537   4.353   5.977   1.456  4.7465 -2.1659 -0.6145
  300MOL0     H39538   4.290   5.874   1.588  2.3684  2.4669  0.7215
  300MOL0     H39539   4.179   5.893   1.311 -1.8535  0.6897  0.4632
  300MOL0     H39540   4.091   5.957   1.455 -2.4743  1.0704 -3.5362
  300MOL0     H39541   4.104   5.715   1.552  0.6211  0.5353  0.3585
  300MOL0     H39542   4.178   5.667   1.391  0.9939 -0.1198  0.4758
  300MOL0     H39543   3.903   5.820   1.416 -2.0679 -1.6249  2.6484
  300MOL0     H39544   3.964   5.763   1.273 -0.6024 -0.1442  0.6946
  300MOL0     H39545   3.902   5.565   1.496 -0.1318  3.2530  2.3420
  300MOL0     H39546   3.915   5.536   1.325  0.5031  1.1254 -0.5328
  300MOL0     H39547   3.718   5.704   1.288 -2.5661  2.5098  2.1714
  300MOL0     H39548   3.722   5.707   1.459 -0.6829  0.1141 -0.0754
  300MOL0     H39549   3.707   5.434   1.424  1.9871  1.8917  0.4981
  300MOL0     H39550   3.560   5.533   1.422 -0.4803 -2.5908  0.8416
  300MOL0     H39551   3.736   5.451   1.170 -1.7425 -2.2960 -1.2284
  300MOL0     H39552   3.596   5.572   1.184  1.1552  1.7695  3.5109
  300MOL0     H39553   3.393   5.356   1.344 -0.6062 -2.0360  0.4383
  300MOL0     H39554   3.314   5.110   1.350 -1.4704  1.7680 -0.2920
  300MOL0     H39555   3.366   4.999   1.223 -2.0805 -1.3974 -0.0895
  300MOL0     H39556   3.182   5.071   1.075  0.1324 -1.1555  0.4434
  300MOL0     H39557   3.133   5.193   1.186 -4.7218 -1.1022  1.8687
  300MOL0     H39558   3.113   4.976   1.354  1.7940 -0.9017 -0.8455
  300MOL0     H39559   2.984   5.015   1.252  0.1148 -0.9769  3.2256
  300MOL0     H39560   3.021   4.789   1.234 -0.1393  0.4707  1.4946
  300MOL0     H39561   3.196   4.797   1.215 -0.8854 -2.9593 -0.9850
  300MOL0     H39562   3.199   4.616   1.092  0.7311  4.3877 -0.9398
  300MOL0     H39563   3.214   4.426   0.956 -1.2472 -0.0781  0.0285
  300MOL0     H39564   3.138   4.053   0.735  0.6811  0.1420  0.7530
  300MOL0     H39565   3.229   3.881   0.611  0.7025 -0.9603 -1.3222
  300MOL0     H39566   3.491   3.820   0.517 -1.4593  3.0719  0.4374
  300MOL0     H39567   3.593   3.928   0.431 -0.6164  1.5707  1.4115
  300MOL0     H39568   3.587   3.771   0.230  3.4003 -0.3664  0.4467
  300MOL0     H39569   3.461   3.676   0.308  0.1364  0.4191  0.8060
  300MOL0     H39570   3.637   3.550   0.336  2.9038 -1.2229  1.6999
  300MOL0     H39571   3.615   3.614   0.490  0.7996 -2.5189 -0.9078
  300MOL0     H39572   3.795   3.796   0.399  0.0555 -0.6492  0.8699
  300MOL0     H39573   3.831   3.653   0.492  0.9288  2.0485  1.5719
  300MOL0     H39574   3.874   3.539   0.283  1.5243 -0.0537  0.1370
  300MOL0     H39575   3.983   3.680   0.312 -0.6949  2.9387  0.8154
  300MOL0     H39576   3.813   3.803   0.148  1.3589  0.1979 -0.5491
  300MOL0     H39577   3.739   3.646   0.118 -0.4997  0.9045  1.0696
  300MOL0     H39578   3.871   3.696  -0.068  1.6028 -2.0885 -1.9948
  300MOL0     H39579   4.011   3.741   0.029 -1.1673  0.1818  1.3269
  300MOL0     H39580   3.871   3.460   0.000 -1.6860  2.0289  1.4334
  300MOL0     H39581   4.008   3.492   0.107  0.4941 -0.4090 -0.0503
  300MOL0     H39582   3.427   4.175   0.352 -1.0386  0.8436  0.5304
  300MOL0     H39583   3.356   4.347   0.519 -0.3996  0.7859  2.0577
  300MOL0     H39584   3.036   4.669   0.631 -2.4775 -4.0754 -0.3334
  300MOL0     H39585   3.018   4.849   0.787 -3.4360 -1.4339  0.4116
  300MOL0     H39586   4.538   5.905   1.626 -3.7044 -0.7361 -0.5431
  300MOL0     H39587   4.756   5.813   1.693  0.0511  0.7500 -0.7490
  300MOL0     H39588   5.214   5.833   1.427 -1.1928 -0.6324 -0.9832
  300MOL0     H39589   5.433   5.847   1.529 -0.2504 -2.0359 -3.8352
  300MOL0     H39590   5.561   5.893   1.692 -0.9757 -0.6456 -0.4804
  300MOL0     H39591   5.646   5.763   1.605 -1.5620  0.6003 -1.4431
  300MOL0     H39592   5.802   5.880   1.755 -1.1320  1.5782  0.1448
  300MOL0     H39593   5.688   5.888   1.890 -0.3513  1.4761 -1.2566
  300MOL0     H39594   5.723   5.625   1.890 -1.8140  0.5886 -2.1138
  300MOL0     H39595   5.858   5.731   1.943 -0.8809  2.0960  0.6613
  300MOL0     H39596   5.812   5.545   1.705 -1.4777 -0.6400  0.8418
  300MOL0     H39597   5.919   5.693   1.677 -0.0467 -1.8662 -2.2177
  300MOL0     H39598   6.181   5.436   1.845  1.4315  2.1102 -2.3179
  300MOL0     H39599   5.326   5.568   1.824 -1.1106 -1.0018  0.4870
  300MOL0     H39600   5.111   5.531   1.716  0.7773 -1.6049 -2.2984
  301MOL0     O39601   7.291  11.378   3.503 -0.0785 -0.7348  0.3288
  301MOL0     C39602   7.275  11.474   3.579  0.4187 -0.2115 -0.0681
  301MOL0     O39603   7.367  11.583   3.596 -0.5123  0.8883  1.1191
  301MOL0     C39604   7.498  11.576   3.553  0.2256 -0.6065  0.3954
  301MOL0     C39605   7.579  11.461   3.543 -1.0419  0.1797 -0.3916
  301MOL0     C39606   7.714  11.481   3.514 -0.3266 -0.3508 -0.6943
  301MOL0     C39607   7.767  11.611   3.485 -0.3633 -0.7943  0.4288
  301MOL0     O39608   7.895  11.612   3.448  0.0614 -0.5993  0.1064
  301MOL0     C39609   7.988  11.627   3.559 -0.5793  0.5910  0.2058
  301MOL0     C39610   8.025  11.480   3.610  0.4421 -0.2954 -0.8872
  301MOL0     C39611   8.129  11.484   3.712  0.7084 -0.4816 -0.0102
  301MOL0     C39612   8.120  11.360   3.806 -0.2481  0.4065 -0.5300
  301MOL0     C39613   8.257  11.322   3.880 -0.1819  1.0172  0.0364
  301MOL0     C39614   8.296  11.421   3.987 -0.1978 -0.5252  0.4563
  301MOL0     C39615   8.422  11.389   4.068 -1.0103  0.0686  0.1136
  301MOL0     C39616   8.405  11.257   4.145  1.0572  0.5398 -0.6253
  301MOL0     N39617   8.281  11.251   4.225 -0.1031  0.3989  0.2473
  301MOL0     C39618   8.255  11.331   4.330  0.1123  1.8446  0.4470
  301MOL0     C39619   8.132  11.286   4.373  0.6850 -0.3851 -0.3280
  301MOL0     C39620   8.045  11.340   4.480 -0.7330  0.5498 -0.3384
  301MOL0     C39621   8.032  11.238   4.601  0.7782 -0.9551 -0.1014
  301MOL0     C39622   7.918  11.145   4.609 -0.0801 -0.1498  0.0733
  301MOL0     C39623   7.916  11.074   4.740  0.0116 -0.2771 -0.0902
  301MOL0     O39624   7.897  11.166   4.849  0.1509 -0.4502  0.1773
  301MOL0     C39625   7.889  11.125   4.980 -0.1275 -0.2753 -0.8519
  301MOL0     C39626   7.903  10.991   5.021  1.0601  0.4938 -0.1216
  301MOL0     C39627   7.884  10.949   5.149 -0.6181  1.3236 -1.0386
  301MOL0     C39628   7.865  11.042   5.253  0.1365 -0.4490  0.1044
  301MOL0     C39629   7.865  10.994   5.390 -1.0624  0.2446 -0.7331
  301MOL0     O39630   7.846  10.858   5.407 -0.3544 -0.1148 -0.8349
  301MOL0     C39631   7.862  10.789   5.521  0.0233  0.4543 -0.4016
  301MOL0     C39632   7.988  10.752   5.575 -0.0667 -0.0733  0.7919
  301MOL0     C39633   7.991  10.668   5.687  0.7829 -0.2432 -0.8637
  301MOL0     C39634   7.876  10.630   5.758  0.3844 -1.0836 -0.1791
  301MOL0     O39635   7.867  10.556   5.874  1.2418 -0.1117 -0.7786
  301MOL0     C39636   7.969  10.464   5.908 -0.5783  0.0597 -0.0654
  301MOL0     C39637   7.965  10.339   5.814  0.2270 -1.4450 -0.4322
  301MOL0     C39638   7.851  10.247   5.838  0.5865 -0.5981  0.6971
  301MOL0     C39639   7.819  10.169   5.713 -1.3023 -1.2935 -0.0332
  301MOL0     C39640   7.680  10.118   5.724  0.6310  0.4149 -0.2699
  301MOL0     C39641   7.661  10.028   5.596  0.8313 -0.2947 -0.8489
  301MOL0     C39642   7.535   9.937   5.605 -1.0815  1.4939  0.4468
  301MOL0     C39643   7.402  10.012   5.610 -0.1233 -0.1076 -0.8165
  301MOL0    Cl39644   7.265   9.916   5.554 -0.1223 -0.0783  0.4551
  301MOL0     C39645   7.753  10.666   5.702 -0.6221 -0.3401 -0.2438
  301MOL0     C39646   7.736  10.741   5.584 -1.1915 -0.5591  0.9094
  301MOL0     O39647   7.898  11.075   5.484  0.8883 -0.2905  0.1982
  301MOL0     C39648   7.843  11.178   5.208 -1.2578  0.1185 -0.5253
  301MOL0     C39649   7.868  11.217   5.079  0.1148 -0.0423  0.0589
  301MOL0     N39650   8.077  11.199   4.278  0.8470 -0.4334  0.4184
  301MOL0     N39651   8.165  11.183   4.193 -0.4521 -0.2739 -0.1477
  301MOL0     C39652   7.685  11.720   3.480  0.4329 -0.3942  0.4444
  301MOL0     C39653   7.551  11.697   3.515  0.5327 -0.1912 -0.1151
  301MOL0     C39654   7.140  11.491   3.632  0.1046 -0.2996 -0.1165
  301MOL0     C39655   7.031  11.496   3.536 -1.3226 -0.1584  0.1148
  301MOL0     C39656   6.894  11.510   3.578 -0.7585  0.4556  0.4531
  301MOL0     C39657   6.872  11.529   3.713  0.7521 -1.3975  0.1103
  301MOL0     O39658   6.744  11.548   3.760 -0.3755  0.5006 -0.1709
  301MOL0     C39659   6.678  11.672   3.730 -0.4017  0.2969  1.0037
  301MOL0     C39660   6.702  11.768   3.851 -0.6034  0.6211 -0.5029
  301MOL0     C39661   6.620  11.741   3.980 -0.9259 -0.0188 -0.2401
  301MOL0     C39662   6.465  11.726   3.963 -0.3507 -1.1377  0.6257
  301MOL0     C39663   6.414  11.834   3.883  1.5596  0.3186  1.2418
  301MOL0     C39664   6.359  11.924   3.817  0.3219 -0.3235  0.5186
  301MOL0     C39665   6.976  11.539   3.811  0.2384  0.2030 -0.5211
  301MOL0     C39666   7.112  11.526   3.771 -0.0238 -0.4166  0.7083
  301MOL0     H39667   7.540  11.362   3.562 -0.2697  0.6033  4.8571
  301MOL0     H39668   7.787  11.402   3.502 -1.1570 -1.1555 -0.6195
  301MOL0     H39669   7.946  11.689   3.639  3.3205  1.6041  1.7303
  301MOL0     H39670   8.081  11.672   3.524  0.0431 -1.0962 -0.3961
  301MOL0     H39671   8.048  11.420   3.521 -0.6754  1.7745 -2.6612
  301MOL0     H39672   7.937  11.438   3.659 -0.5127  1.0104 -1.4323
  301MOL0     H39673   8.131  11.583   3.758  0.9443 -1.7272  2.9185
  301MOL0     H39674   8.224  11.484   3.657  0.6301 -0.2722 -0.1450
  301MOL0     H39675   8.039  11.372   3.878 -0.5293 -0.2746 -0.7295
  301MOL0     H39676   8.080  11.274   3.752 -0.6237 -1.1785  2.0908
  301MOL0     H39677   8.339  11.315   3.808  0.4886 -0.9766  0.9536
  301MOL0     H39678   8.235  11.222   3.916 -4.5686  1.7636  0.0273
  301MOL0     H39679   8.214  11.451   4.053 -1.4831  4.6437 -2.9015
  301MOL0     H39680   8.312  11.516   3.934 -1.4201  0.7595  2.2739
  301MOL0     H39681   8.512  11.382   4.006  0.1014  3.1824  1.1977
  301MOL0     H39682   8.437  11.471   4.138 -1.9111  0.1293  0.2453
  301MOL0     H39683   8.480  11.246   4.224  0.2412 -0.5904  0.0216
  301MOL0     H39684   8.419  11.168   4.082 -0.1227  1.1661 -1.8043
  301MOL0     H39685   8.322  11.391   4.390  0.2776 -1.3431  3.7798
  301MOL0     H39686   7.947  11.350   4.433 -2.3903  2.9298  3.1782
  301MOL0     H39687   8.072  11.441   4.513 -1.5087  1.8094 -3.2751
  301MOL0     H39688   8.030  11.301   4.691  1.1112  1.2409 -1.5360
  301MOL0     H39689   8.126  11.181   4.601  0.4643 -1.5329  1.5383
  301MOL0     H39690   7.827  11.205   4.599  1.9526  2.8599 -2.0655
  301MOL0     H39691   7.922  11.073   4.527  1.1311 -0.2448  0.1901
  301MOL0     H39692   8.011  11.023   4.756  0.4396  0.9140  1.4090
  301MOL0     H39693   7.833  11.004   4.758 -1.1629  1.6808  2.9339
  301MOL0     H39694   7.911  10.906   4.954  0.4446  0.5732 -0.3000
  301MOL0     H39695   7.895  10.841   5.158 -0.5663  1.2748 -1.6237
  301MOL0     H39696   8.080  10.788   5.529  0.9959 -2.3880  0.9355
  301MOL0     H39697   8.092  10.656   5.727  1.1158 -0.2601 -1.6972
  301MOL0     H39698   7.945  10.417   6.003 -0.8425  0.7519  0.2147
  301MOL0     H39699   8.061  10.523   5.908 -1.8798  2.2015  0.7391
  301MOL0     H39700   8.064  10.293   5.814  0.4538 -0.9795 -0.9575
  301MOL0     H39701   7.953  10.378   5.712 -0.1612  0.3169  0.2558
  301MOL0     H39702   7.760  10.305   5.854  0.6569  0.4138 -1.9019
  301MOL0     H39703   7.882  10.188   5.924 -0.3093 -0.4529  1.1279
  301MOL0     H39704   7.838  10.232   5.625 -1.9049 -1.2452 -0.1332
  301MOL0     H39705   7.891  10.087   5.714  1.5755  1.0332 -1.8203
  301MOL0     H39706   7.606  10.197   5.733  1.9090  1.7143 -0.8839
  301MOL0     H39707   7.674  10.040   5.801  0.5845  1.1012  0.4290
  301MOL0     H39708   7.748   9.962   5.593  1.6569  0.3659  3.1116
  301MOL0     H39709   7.653  10.099   5.513 -0.7730  2.2560  1.3116
  301MOL0     H39710   7.541   9.869   5.519 -0.6763  0.2186  1.4585
  301MOL0     H39711   7.556   9.879   5.695 -2.0971  0.4948  0.0560
  301MOL0     H39712   7.403  10.105   5.553 -4.0839  0.5941 -0.0247
  301MOL0     H39713   7.392  10.032   5.717  1.5083 -3.6659  0.1537
  301MOL0     H39714   7.656  10.631   5.735 -0.8814 -2.6760 -3.0794
  301MOL0     H39715   7.642  10.766   5.534 -0.2055 -1.4329 -1.5327
  301MOL0     H39716   7.825  11.255   5.283 -2.9298 -0.9803  0.2603
  301MOL0     H39717   7.863  11.323   5.057  0.7114  0.5362  2.4403
  301MOL0     H39718   7.712  11.820   3.447 -0.5672 -0.3781 -0.3891
  301MOL0     H39719   7.488  11.784   3.523  0.6288 -0.1365  0.0501
  301MOL0     H39720   7.055  11.469   3.434  1.5566 -0.2916  0.7528
  301MOL0     H39721   6.807  11.508   3.513 -1.8008 -0.7875  1.8112
  301MOL0     H39722   6.575  11.640   3.714  0.5967 -3.1236  0.5815
  301MOL0     H39723   6.708  11.729   3.642 -1.0885 -0.2744  0.3936
  301MOL0     H39724   6.806  11.765   3.884 -1.2811 -4.6326  2.1692
  301MOL0     H39725   6.688  11.873   3.821 -0.6910  0.8072  0.1846
  301MOL0     H39726   6.646  11.817   4.055 -0.4704 -2.3784  2.1745
  301MOL0     H39727   6.654  11.642   4.013 -1.9477 -0.0012  0.9483
  301MOL0     H39728   6.448  11.636   3.903 -1.6025  0.5066 -1.6508
  301MOL0     H39729   6.402  11.712   4.051 -3.2618  0.3781 -1.0523
  301MOL0     H39730   6.304  12.008   3.779 -2.5389 -1.3717  2.0950
  301MOL0     H39731   6.948  11.544   3.916 -0.6343 -0.0157 -0.7394
  301MOL0     H39732   7.188  11.524   3.849  1.6108  2.7261 -0.6496
  302MOL0     O39733  10.118   7.095  11.216 -0.6679  0.1942  0.4726
  302MOL0     C39734  10.121   6.985  11.161 -0.3899  0.1128 -0.8999
  302MOL0     O39735  10.207   6.955  11.055  0.9754 -0.4932 -0.3766
  302MOL0     C39736  10.312   7.038  11.040  0.8491  0.1623 -0.6673
  302MOL0     C39737  10.435   7.017  11.112  0.0562  0.0385  0.2402
  302MOL0     C39738  10.550   7.101  11.084 -0.5591  0.1587 -0.3794
  302MOL0     C39739  10.541   7.207  10.992  0.0197  0.1580 -0.2879
  302MOL0     O39740  10.640   7.305  10.969  0.8933 -0.6012  0.5383
  302MOL0     C39741  10.777   7.271  10.986  0.1686 -0.6557 -0.8136
  302MOL0     C39742  10.839   7.286  10.850 -0.1396 -0.4802  0.1108
  302MOL0     C39743  10.779   7.201  10.735  1.2109  0.0454  0.2632
  302MOL0     C39744  10.800   7.269  10.600  0.4928 -1.9558  0.4610
  302MOL0     C39745  10.715   7.203  10.494  0.4433 -0.1797  0.1864
  302MOL0     C39746  10.746   7.273  10.364 -0.9786 -0.2221  0.6974
  302MOL0     C39747  10.693   7.195  10.241 -0.0668 -0.4674 -0.8612
  302MOL0     C39748  10.787   7.076  10.210  0.7588  0.3616  0.6686
  302MOL0     N39749  10.761   7.022  10.075 -0.2312  0.3866 -0.0019
  302MOL0     C39750  10.683   6.918  10.047 -0.3620 -0.4854  0.3180
  302MOL0     C39751  10.688   6.908   9.905  0.2861 -0.4502 -0.6376
  302MOL0     C39752  10.603   6.821   9.819 -0.0466 -0.9838 -0.4197
  302MOL0     C39753  10.484   6.905   9.775  0.2834  0.0743 -0.6337
  302MOL0     C39754  10.382   6.818   9.691  0.4974 -0.2467  0.0253
  302MOL0     C39755  10.261   6.914   9.663 -0.7947 -0.4894  0.6697
  302MOL0     O39756  10.147   6.827   9.619 -0.0893 -0.5614 -0.2182
  302MOL0     C39757  10.063   6.890   9.532  0.0962 -0.2305  0.2695
  302MOL0     C39758   9.932   6.872   9.563  0.9059 -0.6152  0.1267
  302MOL0     C39759   9.835   6.902   9.472  1.0100  0.0658  0.0656
  302MOL0     C39760   9.866   6.956   9.351  0.1231  0.1508  0.2904
  302MOL0     C39761   9.770   6.980   9.239 -0.3199 -0.9304  0.0707
  302MOL0     O39762   9.645   7.011   9.294  0.0954  0.5505  0.0352
  302MOL0     C39763   9.544   7.053   9.220  0.8230 -0.2378 -0.1986
  302MOL0     C39764   9.541   7.185   9.157 -0.2828  0.1581  0.6971
  302MOL0     C39765   9.442   7.220   9.065  0.7193 -0.1687 -0.0079
  302MOL0     C39766   9.333   7.137   9.046 -0.4351 -0.7182 -0.5555
  302MOL0     O39767   9.222   7.174   8.975  0.9024  0.1409 -0.4649
  302MOL0     C39768   9.169   7.306   8.994  0.2971  0.4357  0.1275
  302MOL0     C39769   9.059   7.321   8.888 -0.4718  0.6415 -0.5177
  302MOL0     C39770   9.105   7.298   8.746 -0.3495  0.1834 -0.1975
  302MOL0     C39771   8.974   7.324   8.665  0.0330  0.0425  0.2100
  302MOL0     C39772   8.995   7.307   8.512 -0.2372  0.0859  0.0792
  302MOL0     C39773   9.049   7.179   8.459 -0.5193  0.6369  0.0713
  302MOL0     C39774   9.048   7.168   8.306  0.1708  0.6584 -0.2695
  302MOL0     C39775   9.105   7.042   8.246  0.7551  0.4125 -0.1751
  302MOL0    Cl39776   9.041   6.890   8.343  0.9218  0.1128 -0.0466
  302MOL0     C39777   9.340   7.013   9.117 -1.6993  0.4560 -0.7552
  302MOL0     C39778   9.452   6.963   9.194  0.1915  0.1898  0.2153
  302MOL0     O39779   9.794   6.984   9.121  0.3449  0.2519 -0.1697
  302MOL0     C39780   9.999   6.982   9.322  0.2028 -0.3673  0.8546
  302MOL0     C39781  10.101   6.948   9.409 -0.1199  0.0424  0.0209
  302MOL0     N39782  10.770   7.006   9.870  0.1773 -0.7328  0.7146
  302MOL0     N39783  10.816   7.081   9.964 -0.0145 -0.2830  0.0726
  302MOL0     C39784  10.420   7.219  10.915  0.6363  0.1303  0.1329
  302MOL0     C39785  10.304   7.141  10.941  0.2678  0.2411 -0.3234
  302MOL0     C39786  10.033   6.876  11.211 -0.2599 -0.1919 -0.1682
  302MOL0     C39787  10.050   6.753  11.155 -0.3130 -0.1522  0.2649
  302MOL0     C39788   9.962   6.652  11.184 -0.4091  0.6673  0.9432
  302MOL0     C39789   9.856   6.671  11.271  0.1236 -0.4898  0.7359
  302MOL0     O39790   9.760   6.581  11.306 -0.6040  0.4433 -0.2917
  302MOL0     C39791   9.717   6.489  11.204 -0.4031  0.9264 -0.5647
  302MOL0     C39792   9.596   6.422  11.254 -0.6763  1.1660  0.4565
  302MOL0     C39793   9.555   6.322  11.145  0.2969  0.6966 -0.5206
  302MOL0     C39794   9.439   6.233  11.182  1.1031 -0.4901 -0.7612
  302MOL0     C39795   9.427   6.101  11.123 -0.3675 -0.1928  0.1149
  302MOL0     C39796   9.424   5.988  11.083  0.5593  0.3981  1.0665
  302MOL0     C39797   9.845   6.798  11.331  0.1934 -0.3357 -0.1597
  302MOL0     C39798   9.933   6.897  11.306  0.7023 -0.7570 -1.3851
  302MOL0     H39799  10.448   6.956  11.201  0.4209  2.8699  2.2729
  302MOL0     H39800  10.642   7.078  11.138 -0.4527 -1.3710 -1.1544
  302MOL0     H39801  10.795   7.168  11.015  1.9953  0.5575  2.8960
  302MOL0     H39802  10.827   7.333  11.061  0.5087 -2.0975  0.1856
  302MOL0     H39803  10.945   7.263  10.847 -0.0290  0.1251 -1.4441
  302MOL0     H39804  10.833   7.392  10.825  2.9484 -1.1773 -5.0212
  302MOL0     H39805  10.671   7.192  10.746  0.6615  2.6249 -1.9809
  302MOL0     H39806  10.828   7.104  10.727  1.6190  0.2985 -0.3626
  302MOL0     H39807  10.759   7.369  10.618 -3.0511 -2.9985 -0.8794
  302MOL0     H39808  10.907   7.281  10.582  0.1583  0.6974 -0.3140
  302MOL0     H39809  10.609   7.224  10.515  0.8542  1.9237  0.3779
  302MOL0     H39810  10.725   7.094  10.493 -1.9414 -0.5262  2.5917
  302MOL0     H39811  10.855   7.286  10.355 -0.9650  1.0283  2.2677
  302MOL0     H39812  10.708   7.375  10.356  0.8802  0.4213 -0.5859
  302MOL0     H39813  10.593   7.152  10.249 -0.4232  0.6422  1.6913
  302MOL0     H39814  10.679   7.270  10.163  4.1308  0.6388 -0.7554
  302MOL0     H39815  10.769   6.995  10.281 -0.4664  0.0311  0.0003
  302MOL0     H39816  10.889   7.114  10.223  0.9764 -0.3268  1.0021
  302MOL0     H39817  10.620   6.867  10.120  0.2207 -1.9261 -0.1712
  302MOL0     H39818  10.557   6.742   9.879 -0.9667 -0.2526 -0.1344
  302MOL0     H39819  10.655   6.777   9.733 -1.6121 -1.8944 -0.9446
  302MOL0     H39820  10.526   6.989   9.718  0.7811 -0.8343 -1.6522
  302MOL0     H39821  10.431   6.946   9.861  2.1437 -0.7216  0.9629
  302MOL0     H39822  10.427   6.779   9.599  3.0045  2.8040 -0.2065
  302MOL0     H39823  10.348   6.727   9.740 -0.9781 -0.6736 -1.6986
  302MOL0     H39824  10.280   7.003   9.602  0.2367 -1.9007 -1.1799
  302MOL0     H39825  10.225   6.954   9.758 -4.6517 -0.7365 -0.5266
  302MOL0     H39826   9.911   6.825   9.659  2.1894 -0.9757  0.2431
  302MOL0     H39827   9.731   6.889   9.498  0.3903  0.7242 -1.8776
  302MOL0     H39828   9.623   7.255   9.167 -0.3137  0.2283  0.4541
  302MOL0     H39829   9.432   7.318   9.020  1.0074 -0.1070  0.0585
  302MOL0     H39830   9.227   7.398   8.978 -0.3269  0.4272 -2.6916
  302MOL0     H39831   9.126   7.310   9.095  2.5650 -3.4925  1.4725
  302MOL0     H39832   9.021   7.423   8.872 -1.1038 -0.0537 -4.2231
  302MOL0     H39833   8.971   7.257   8.900 -0.9826  0.9898 -2.1078
  302MOL0     H39834   9.148   7.200   8.726 -0.1853  0.8441 -3.7228
  302MOL0     H39835   9.184   7.365   8.711  0.8782 -0.1078  1.8166
  302MOL0     H39836   8.905   7.245   8.695  1.8223 -1.1418  1.3620
  302MOL0     H39837   8.941   7.426   8.688  6.1439  1.6492  4.6870
  302MOL0     H39838   9.067   7.385   8.484  2.0178 -0.8123  2.8782
  302MOL0     H39839   8.895   7.322   8.472 -1.1681 -0.9590  1.9027
  302MOL0     H39840   8.995   7.101   8.515  2.7496 -0.1440  2.4548
  302MOL0     H39841   9.151   7.158   8.494 -0.1688 -0.7096 -1.6230
  302MOL0     H39842   8.940   7.166   8.287  0.4240  2.5007 -2.3774
  302MOL0     H39843   9.098   7.254   8.260 -0.7277  0.8164 -0.9908
  302MOL0     H39844   9.213   7.041   8.258  0.7772  1.6776 -0.1240
  302MOL0     H39845   9.073   7.041   8.142 -1.8776  1.1602  0.5452
  302MOL0     H39846   9.256   6.946   9.098  0.0835 -1.7668 -1.3446
  302MOL0     H39847   9.460   6.865   9.241  0.8585 -0.5621 -1.3866
  302MOL0     H39848  10.016   7.026   9.224 -1.9327  3.4027  1.9507
  302MOL0     H39849  10.200   6.940   9.367 -0.2283 -0.1024 -0.2092
  302MOL0     H39850  10.412   7.300  10.844 -0.8759 -2.2075 -2.6031
  302MOL0     H39851  10.206   7.157  10.899  1.0252  1.2617 -1.7856
  302MOL0     H39852  10.133   6.730  11.089 -0.5688  0.1002 -0.1481
  302MOL0     H39853   9.984   6.553  11.145 -2.0220  0.6690 -0.0321
  302MOL0     H39854   9.792   6.410  11.193 -0.2075  0.4944  2.8394
  302MOL0     H39855   9.680   6.541  11.115  0.1489  1.1218 -0.6819
  302MOL0     H39856   9.629   6.368  11.343  1.0790  2.0381  0.3923
  302MOL0     H39857   9.518   6.495  11.275  0.2636  2.2999  0.1449
  302MOL0     H39858   9.642   6.256  11.139  0.1090  0.5220 -1.5900
  302MOL0     H39859   9.549   6.372  11.048  2.7888  2.2222  0.0361
  302MOL0     H39860   9.430   6.209  11.289  0.0234 -2.2531 -1.2118
  302MOL0     H39861   9.344   6.282  11.158  0.2843 -1.9103 -0.5054
  302MOL0     H39862   9.428   5.894  11.033  4.0475  0.3551  1.2181
  302MOL0     H39863   9.767   6.833  11.397 -0.4234  1.6359 -1.8320
  302MOL0     H39864   9.941   6.990  11.360  1.5683 -2.2741  1.3067
  303MOL0     O39865  10.932   6.326   0.561 -0.1793 -0.8659 -0.2617
  303MOL0     C39866  10.908   6.437   0.513  0.0084 -0.7740  0.2210
  303MOL0     O39867  11.000   6.533   0.492  1.0315  0.1202  0.4615
  303MOL0     C39868  11.134   6.516   0.525 -1.2390  0.2179  0.3702
  303MOL0     C39869  11.223   6.548   0.421 -0.1561 -1.8755 -0.5138
  303MOL0     C39870  11.355   6.564   0.453  0.0086  1.1863 -0.8638
  303MOL0     C39871  11.411   6.557   0.588 -0.6855  0.5439  0.4164
  303MOL0     O39872  11.544   6.569   0.616  0.5606 -0.3032 -0.7719
  303MOL0     C39873  11.589   6.513   0.742  0.6894 -0.0639  0.0295
  303MOL0     C39874  11.743   6.515   0.750  0.2606  0.0663  0.0380
  303MOL0     C39875  11.806   6.524   0.893 -0.0873  1.2958 -0.2005
  303MOL0     C39876  11.956   6.474   0.888 -0.1008 -0.3799 -0.1903
  303MOL0     C39877  12.025   6.453   1.029 -0.0607 -0.3786  0.5318
  303MOL0     C39878  12.157   6.387   1.016  0.1178 -0.2854  0.3215
  303MOL0     C39879  12.266   6.469   0.938 -0.8576  0.3033  0.3749
  303MOL0     C39880  12.401   6.382   0.938  0.4548 -0.2364  0.8472
  303MOL0     N39881  12.446   6.351   1.071 -0.4608  0.8208  0.5680
  303MOL0     C39882  12.432   6.231   1.145  0.6782  0.1169  0.0471
  303MOL0     C39883  12.508   6.240   1.252 -0.2419  0.4362  0.1550
  303MOL0     C39884  12.539   6.125   1.337 -1.1706  0.1696  0.7833
  303MOL0     C39885  12.408   6.047   1.382 -0.0323  0.6134  0.1988
  303MOL0     C39886  12.410   5.945   1.494  0.1417  0.1653  0.9688
  303MOL0     C39887  12.520   5.831   1.465  1.6265  0.3256 -0.6620
  303MOL0     O39888  12.659   5.848   1.498 -0.1402  0.1112 -0.5197
  303MOL0     C39889  12.694   5.816   1.628 -0.0072  0.7747  0.4957
  303MOL0     C39890  12.674   5.905   1.739  0.0207  0.5113  0.0920
  303MOL0     C39891  12.742   5.896   1.866  0.7574  0.1303 -0.0955
  303MOL0     C39892  12.825   5.783   1.884 -0.5401 -0.3727 -0.2816
  303MOL0     C39893  12.902   5.771   2.020  0.1329  0.2735 -0.6491
  303MOL0     O39894  12.977   5.661   2.039 -0.6506 -0.7436  0.5626
  303MOL0     C39895  13.047   5.630   2.154  0.4254 -0.0172 -0.3448
  303MOL0     C39896  13.035   5.678   2.290  1.3228 -0.2237  0.0872
  303MOL0     C39897  13.118   5.628   2.388 -1.1064 -0.6929 -0.4268
  303MOL0     C39898  13.226   5.548   2.363  0.0531  1.1499 -0.0595
  303MOL0     O39899  13.324   5.497   2.454  0.0796 -0.0983 -0.1936
  303MOL0     C39900  13.347   5.553   2.585 -0.2322 -0.3109  0.8730
  303MOL0     C39901  13.235   5.503   2.686  0.3034 -0.2750 -0.5455
  303MOL0     C39902  13.270   5.560   2.832 -0.6743  0.8688 -0.5285
  303MOL0     C39903  13.167   5.519   2.943  0.3467  0.7023 -0.8204
  303MOL0     C39904  13.198   5.595   3.079  0.2732 -0.3732  0.1468
  303MOL0     C39905  13.345   5.563   3.127 -0.0075 -0.2286 -0.2453
  303MOL0     C39906  13.373   5.653   3.249 -0.7369  0.0377  0.3817
  303MOL0     C39907  13.525   5.638   3.289 -0.3281 -0.9536  0.2982
  303MOL0    Cl39908  13.572   5.803   3.326  0.2110 -0.0953 -0.1622
  303MOL0     C39909  13.242   5.502   2.237  0.7792  0.5946 -0.6711
  303MOL0     C39910  13.150   5.535   2.136  0.3799 -0.7816  0.3714
  303MOL0     O39911  12.905   5.867   2.099  0.2093 -0.2992 -0.1869
  303MOL0     C39912  12.841   5.698   1.779  0.2829 -0.1884 -0.3560
  303MOL0     C39913  12.792   5.715   1.651  0.3148  0.0360 -0.7174
  303MOL0     N39914  12.575   6.356   1.241 -1.3947 -1.1530 -0.4738
  303MOL0     N39915  12.546   6.418   1.140 -0.1523  0.4502  0.5859
  303MOL0     C39916  11.307   6.531   0.687  0.1872 -0.2605  1.0481
  303MOL0     C39917  11.171   6.512   0.654 -0.4774  0.9362 -0.2604
  303MOL0     C39918  10.763   6.462   0.484  0.6609  0.0958  0.5152
  303MOL0     C39919  10.688   6.352   0.435  0.0800 -0.7508 -0.0784
  303MOL0     C39920  10.549   6.365   0.427 -0.6633 -0.3125  0.4196
  303MOL0     C39921  10.480   6.494   0.450  0.6353 -0.6112 -0.2217
  303MOL0     O39922  10.343   6.490   0.428 -0.3228 -0.6777  0.8511
  303MOL0     C39923  10.268   6.602   0.466  0.1370  0.0078 -0.8779
  303MOL0     C39924  10.259   6.624   0.625 -0.0193 -0.0937 -0.6005
  303MOL0     C39925  10.164   6.519   0.685 -0.4306 -0.0881  0.2931
  303MOL0     C39926  10.229   6.390   0.748  0.7350 -0.7158  0.2217
  303MOL0     C39927  10.127   6.298   0.793 -1.7583  0.0428 -0.5434
  303MOL0     C39928  10.054   6.225   0.849  0.4692 -0.2312 -0.1595
  303MOL0     C39929  10.563   6.605   0.478 -0.3593  1.1987 -1.4421
  303MOL0     C39930  10.696   6.586   0.501  0.1380  0.3041 -0.0096
  303MOL0     H39931  11.179   6.569   0.325 -1.7444  0.5138  0.6282
  303MOL0     H39932  11.427   6.588   0.376  2.2936  0.3454  0.8858
  303MOL0     H39933  11.553   6.411   0.757  1.6178 -1.0681 -3.5095
  303MOL0     H39934  11.561   6.588   0.817  2.3341  2.4510 -1.6970
  303MOL0     H39935  11.766   6.610   0.699 -1.7426 -0.1329 -1.3882
  303MOL0     H39936  11.779   6.437   0.683  2.4015  0.4454  0.6613
  303MOL0     H39937  11.749   6.462   0.961  1.5087 -0.7319 -0.6148
  303MOL0     H39938  11.792   6.624   0.936 -2.6186  0.8742  0.0572
  303MOL0     H39939  11.961   6.376   0.840 -2.2419 -1.6219  1.9256
  303MOL0     H39940  12.009   6.553   0.834 -2.7063  2.4320  1.0710
  303MOL0     H39941  11.962   6.380   1.081 -1.1590  1.2811  1.6374
  303MOL0     H39942  12.024   6.546   1.086  0.4005 -1.1483  1.8542
  303MOL0     H39943  12.148   6.291   0.964 -1.0430 -0.1708  0.2797
  303MOL0     H39944  12.190   6.370   1.119  0.3975 -0.8230  0.1493
  303MOL0     H39945  12.233   6.488   0.836 -0.0319  3.2725  0.5556
  303MOL0     H39946  12.282   6.563   0.993 -0.6939 -1.1585  3.0060
  303MOL0     H39947  12.486   6.423   0.883  1.8925 -0.0175  3.1112
  303MOL0     H39948  12.384   6.280   0.904 -2.0912  0.4135 -0.0491
  303MOL0     H39949  12.365   6.151   1.115 -0.9622  0.9616  1.2501
  303MOL0     H39950  12.602   6.164   1.418  3.9790 -0.2726 -2.5385
  303MOL0     H39951  12.602   6.053   1.283  1.0817  3.9121 -2.0325
  303MOL0     H39952  12.359   6.008   1.293 -1.1631  3.7227 -0.6399
  303MOL0     H39953  12.367   6.135   1.432 -0.1240  0.2661  0.7448
  303MOL0     H39954  12.432   6.003   1.585 -0.3790  0.6155  0.8129
  303MOL0     H39955  12.311   5.901   1.502  0.9545 -3.0128 -3.2525
  303MOL0     H39956  12.516   5.813   1.357  1.6742  2.3144 -1.0395
  303MOL0     H39957  12.487   5.740   1.515  2.3446  0.2076 -0.3931
  303MOL0     H39958  12.617   5.995   1.714 -2.1209 -0.2789  1.7500
  303MOL0     H39959  12.740   5.962   1.952  3.4300 -1.4779  1.3215
  303MOL0     H39960  12.968   5.761   2.309 -0.0885 -0.2981 -3.6200
  303MOL0     H39961  13.126   5.667   2.489  1.2433  0.1902 -0.8850
  303MOL0     H39962  13.343   5.662   2.571 -1.1429 -0.3112  1.1030
  303MOL0     H39963  13.449   5.525   2.612  1.1952  2.1505 -1.3607
  303MOL0     H39964  13.239   5.394   2.691 -3.6343 -0.5281 -0.1652
  303MOL0     H39965  13.132   5.533   2.668  0.1829 -0.4814 -0.2144
  303MOL0     H39966  13.272   5.669   2.826  0.9341  1.0377  1.8599
  303MOL0     H39967  13.370   5.520   2.852 -1.9063 -1.4647  1.4882
  303MOL0     H39968  13.065   5.548   2.916  0.5328 -0.5502 -3.1075
  303MOL0     H39969  13.172   5.411   2.959  2.3547  1.0697  1.5407
  303MOL0     H39970  13.126   5.573   3.158  0.0233  1.4194  0.4494
  303MOL0     H39971  13.196   5.704   3.067  2.7398 -0.2391  0.4851
  303MOL0     H39972  13.422   5.584   3.052 -0.4194 -0.7876 -0.8358
  303MOL0     H39973  13.358   5.456   3.146  1.1465  0.0792  0.8899
  303MOL0     H39974  13.360   5.759   3.223 -0.1229  0.0730  0.1874
  303MOL0     H39975  13.308   5.623   3.332 -1.0971  0.2311  0.1696
  303MOL0     H39976  13.590   5.601   3.209  0.0365  2.2876 -1.0568
  303MOL0     H39977  13.531   5.580   3.381  1.1319 -0.5557  0.4855
  303MOL0     H39978  13.326   5.435   2.215  1.1564 -0.2454  2.7856
  303MOL0     H39979  13.151   5.484   2.040 -0.2805  0.2429 -0.2017
  303MOL0     H39980  12.899   5.607   1.785 -0.9436 -0.9250  0.7725
  303MOL0     H39981  12.808   5.639   1.575  2.4207 -2.0224  1.5955
  303MOL0     H39982  11.331   6.541   0.793  1.0801  0.5209  0.7894
  303MOL0     H39983  11.093   6.489   0.727 -1.2391  3.3035 -0.2359
  303MOL0     H39984  10.732   6.254   0.426  1.5550 -0.2042  0.7069
  303MOL0     H39985  10.485   6.280   0.403 -0.0989 -1.4417  2.6306
  303MOL0     H39986  10.172   6.593   0.414 -0.5490  1.6184  0.0105
  303MOL0     H39987  10.318   6.692   0.429  1.1348  0.1022  0.5984
  303MOL0     H39988  10.359   6.618   0.667  0.1763  0.6545 -0.9532
  303MOL0     H39989  10.216   6.724   0.638 -1.7870 -0.9528  0.7695
  303MOL0     H39990  10.083   6.508   0.612 -1.2152  3.0627  0.5514
  303MOL0     H39991  10.117   6.572   0.769 -2.2003 -1.3122  0.1410
  303MOL0     H39992  10.307   6.341   0.689  2.0604  0.4440  0.9562
  303MOL0     H39993  10.273   6.434   0.838  1.4962  1.8374 -1.3016
  303MOL0     H39994   9.970   6.181   0.898  1.0208  1.1342  2.1555
  303MOL0     H39995  10.516   6.702   0.487 -1.3860  0.6098 -0.0518
  303MOL0     H39996  10.757   6.670   0.531  0.0280  0.0991  0.8211
  304MOL0     O39997  10.328   4.696   0.498 -0.1289  0.1243 -0.2961
  304MOL0     C39998  10.389   4.722   0.394  0.1516 -0.6637 -0.1525
  304MOL0     O39999  10.346   4.717   0.263 -0.5693 -0.2838  0.1667
  304MOL0     C40000  10.203   4.719   0.240  0.3577  0.6494 -0.3387
  304MOL0     C40001  10.137   4.808   0.158  0.4286  0.7067 -0.0447
  304MOL0     C40002  10.001   4.806   0.138  0.8172 -0.5230  0.1219
  304MOL0     C40003   9.913   4.723   0.214  0.3765 -0.3665  0.8797
  304MOL0     O40004   9.770   4.710   0.212 -0.1639 -0.2840  0.3847
  304MOL0     C40005   9.693   4.821   0.150 -0.9631 -1.1737 -0.1315
  304MOL0     C40006   9.547   4.818   0.203  0.5684 -0.9669  0.0675
  304MOL0     C40007   9.452   4.905   0.113  0.3477 -0.0184 -0.0828
  304MOL0     C40008   9.303   4.905   0.169 -0.1983  1.4658  0.2544
  304MOL0     C40009   9.189   4.945   0.060 -0.5108  0.5919  0.0071
  304MOL0     C40010   9.216   5.080  -0.010 -0.9404  0.4720  0.0634
  304MOL0     C40011   9.098   5.104  -0.105  0.2001  0.4675 -0.1826
  304MOL0     C40012   9.110   5.226  -0.189  0.4486 -0.2710 -0.0689
  304MOL0     N40013   9.099   5.353  -0.112 -0.4118 -0.3637  0.5235
  304MOL0     C40014   9.213   5.410  -0.052 -0.4327  0.4897 -0.4773
  304MOL0     C40015   9.163   5.537  -0.035  0.4521 -0.8471  0.6783
  304MOL0     C40016   9.238   5.643   0.030  0.3968  0.9843 -0.6730
  304MOL0     C40017   9.383   5.667  -0.022 -0.1752  0.3309 -0.7649
  304MOL0     C40018   9.396   5.692  -0.176  1.0864  0.2016 -0.3994
  304MOL0     C40019   9.544   5.694  -0.220  0.2145 -0.0881  0.3728
  304MOL0     O40020   9.559   5.708  -0.364  0.1135 -0.6400  0.3520
  304MOL0     C40021   9.683   5.745  -0.411  0.4024  0.2525  0.1596
  304MOL0     C40022   9.694   5.812  -0.533  0.4296  0.3465  0.0338
  304MOL0     C40023   9.819   5.827  -0.584 -0.4486 -0.3183 -0.2289
  304MOL0     C40024   9.943   5.807  -0.511 -1.3137 -0.5503  1.4102
  304MOL0     C40025  10.068   5.826  -0.582 -0.8936 -0.7419 -0.0483
  304MOL0     O40026  10.060   5.856  -0.716  0.4314  0.0687  0.4070
  304MOL0     C40027  10.175   5.888  -0.797  1.7365 -1.4241  0.1049
  304MOL0     C40028  10.160   5.900  -0.941  0.2471 -0.2321 -1.0164
  304MOL0     C40029  10.265   5.916  -1.026  0.4597  0.7809 -0.4370
  304MOL0     C40030  10.392   5.932  -0.974  0.0285 -0.6958 -0.5536
  304MOL0     O40031  10.495   5.958  -1.057 -0.3355 -0.9980 -0.4414
  304MOL0     C40032  10.473   6.062  -1.152 -0.1338 -1.5122 -0.0565
  304MOL0     C40033  10.602   6.083  -1.239  0.2669  0.1613 -0.2297
  304MOL0     C40034  10.605   6.215  -1.313 -0.4335 -0.0262  0.4252
  304MOL0     C40035  10.492   6.219  -1.413 -1.1495 -0.1347 -0.4688
  304MOL0     C40036  10.504   6.353  -1.492  0.4626 -0.6097  0.0672
  304MOL0     C40037  10.619   6.377  -1.590  0.0665 -0.5361  1.0258
  304MOL0     C40038  10.639   6.253  -1.684 -0.6260 -0.5316 -0.4701
  304MOL0     C40039  10.760   6.272  -1.780 -0.0123 -0.0230 -1.3181
  304MOL0    Cl40040  10.897   6.183  -1.708 -0.2318  0.2858 -0.0647
  304MOL0     C40041  10.413   5.936  -0.835  0.8581 -0.4833  1.0211
  304MOL0     C40042  10.300   5.925  -0.755 -1.0057  1.3549  0.3946
  304MOL0     O40043  10.162   5.835  -0.507 -0.4113  0.9107 -0.1988
  304MOL0     C40044   9.930   5.748  -0.381  0.5639 -0.1639 -0.4001
  304MOL0     C40045   9.800   5.715  -0.334 -0.1187 -0.2755  0.0850
  304MOL0     N40046   9.023   5.537  -0.073 -0.8097 -0.5198 -0.3028
  304MOL0     N40047   8.992   5.432  -0.118 -0.0531 -0.9026 -0.2640
  304MOL0     C40048   9.979   4.624   0.290  1.7522  0.3256  0.1998
  304MOL0     C40049  10.117   4.622   0.300  0.4221  0.9411 -0.6126
  304MOL0     C40050  10.519   4.784   0.409 -0.0993 -1.1407  0.9078
  304MOL0     C40051  10.577   4.793   0.540 -0.5534  0.6254 -0.5622
  304MOL0     C40052  10.700   4.852   0.560 -0.8668  0.0886 -0.3127
  304MOL0     C40053  10.785   4.876   0.447  0.9942 -0.1712  0.6229
  304MOL0     O40054  10.915   4.932   0.440 -0.3298 -0.2533 -0.5661
  304MOL0     C40055  10.937   5.041   0.533 -0.4934 -0.4071 -0.0872
  304MOL0     C40056  11.057   5.115   0.479 -0.6059 -0.7972 -1.6277
  304MOL0     C40057  11.055   5.137   0.326  0.1754  0.3654  0.4868
  304MOL0     C40058  11.114   5.029   0.247 -0.7447 -0.3708 -0.2007
  304MOL0     C40059  11.259   5.035   0.254  0.1616  0.4437  0.4367
  304MOL0     C40060  11.381   5.042   0.251 -0.0472 -1.4146 -0.3512
  304MOL0     C40061  10.724   4.867   0.318  0.0115 -0.2501 -0.5042
  304MOL0     C40062  10.594   4.836   0.300 -0.8388  0.6971 -0.6635
  304MOL0     H40063  10.202   4.864   0.092  0.1221 -2.5450 -3.5027
  304MOL0     H40064   9.965   4.864   0.053 -0.0254 -0.4462  0.5204
  304MOL0     H40065   9.695   4.815   0.041 -0.9154  1.0707 -0.2939
  304MOL0     H40066   9.739   4.916   0.179 -0.7528 -0.6879 -1.9784
  304MOL0     H40067   9.536   4.850   0.307 -2.3993 -1.6611  0.0538
  304MOL0     H40068   9.502   4.719   0.197  1.5472 -1.4041 -0.3038
  304MOL0     H40069   9.456   4.876   0.008  0.6314 -0.3417  0.0146
  304MOL0     H40070   9.480   5.010   0.100  3.1895 -0.6159  0.4942
  304MOL0     H40071   9.282   4.805   0.209 -0.7875 -0.4236 -4.2100
  304MOL0     H40072   9.294   4.974   0.253  0.1002 -0.6382  2.1323
  304MOL0     H40073   9.091   4.930   0.107 -0.8747 -1.2616 -1.2073
  304MOL0     H40074   9.204   4.864  -0.013  4.8185  3.5581 -2.7819
  304MOL0     H40075   9.308   5.086  -0.069  0.0646  4.4290  1.7172
  304MOL0     H40076   9.216   5.163   0.062  0.8301  2.4436 -2.0437
  304MOL0     H40077   9.095   5.016  -0.170  0.2550 -0.1094  0.5766
  304MOL0     H40078   9.005   5.119  -0.049  0.3220  2.1797 -0.3828
  304MOL0     H40079   9.033   5.229  -0.267 -0.9075 -1.5438  1.1667
  304MOL0     H40080   9.202   5.228  -0.248  1.6288 -0.8424  1.6719
  304MOL0     H40081   9.310   5.373  -0.020 -0.4623  3.0629  3.1944
  304MOL0     H40082   9.235   5.612   0.135  1.2477  0.7974 -0.6982
  304MOL0     H40083   9.177   5.732   0.009 -0.3859  0.4009 -0.8960
  304MOL0     H40084   9.437   5.576   0.003 -2.7001 -1.2685 -0.7750
  304MOL0     H40085   9.417   5.755   0.034 -0.0571 -0.0051 -0.3129
  304MOL0     H40086   9.329   5.633  -0.239  2.2970 -0.5800 -0.9813
  304MOL0     H40087   9.364   5.795  -0.196 -0.2875 -0.2603 -0.7203
  304MOL0     H40088   9.581   5.597  -0.184  1.8059  0.3697  0.0597
  304MOL0     H40089   9.599   5.779  -0.178 -0.4197  0.8755 -0.6808
  304MOL0     H40090   9.602   5.820  -0.590  0.3746 -1.6115 -0.2419
  304MOL0     H40091   9.806   5.863  -0.685 -3.7170  1.3305  0.6284
  304MOL0     H40092  10.064   5.872  -0.983  0.9888 -2.0710 -1.5999
  304MOL0     H40093  10.257   5.922  -1.134  1.3697  2.1623 -0.4545
  304MOL0     H40094  10.450   6.158  -1.104  0.6388 -1.5816  0.4706
  304MOL0     H40095  10.398   6.048  -1.230  0.9015  2.3334 -2.0324
  304MOL0     H40096  10.604   5.998  -1.308 -1.1403 -1.2562  1.3931
  304MOL0     H40097  10.696   6.072  -1.185  1.2972 -0.1042 -1.9797
  304MOL0     H40098  10.699   6.222  -1.368 -1.6263  1.1045 -1.5377
  304MOL0     H40099  10.603   6.299  -1.243  1.5490  1.8095 -1.5774
  304MOL0     H40100  10.498   6.141  -1.489 -0.7894 -0.4034 -0.1666
  304MOL0     H40101  10.395   6.211  -1.363  0.3331 -2.4695  2.3097
  304MOL0     H40102  10.503   6.432  -1.416 -1.9965 -1.5482  1.1043
  304MOL0     H40103  10.422   6.367  -1.562  2.4058  0.0067 -2.2461
  304MOL0     H40104  10.713   6.386  -1.534 -0.7208  2.0132  2.1250
  304MOL0     H40105  10.602   6.471  -1.644 -0.1645 -0.6366  0.9256
  304MOL0     H40106  10.647   6.164  -1.621 -0.8113  0.4656  1.0325
  304MOL0     H40107  10.553   6.237  -1.749 -0.1269  0.6841 -1.4679
  304MOL0     H40108  10.780   6.379  -1.779  1.8350 -0.0583  4.5349
  304MOL0     H40109  10.748   6.221  -1.876  3.0912  2.4005 -3.1912
  304MOL0     H40110  10.512   5.961  -0.801  2.0942 -1.3660 -1.6629
  304MOL0     H40111  10.313   5.956  -0.652 -0.2152 -0.4992  0.8836
  304MOL0     H40112  10.018   5.715  -0.327  0.8470  1.6702  0.3459
  304MOL0     H40113   9.797   5.658  -0.241  1.8732  0.6512  0.7699
  304MOL0     H40114   9.917   4.555   0.345 -0.9969  1.9731 -0.5879
  304MOL0     H40115  10.151   4.532   0.350  0.4197 -0.5672 -3.1443
  304MOL0     H40116  10.526   4.749   0.625 -0.1580  2.8083  0.8653
  304MOL0     H40117  10.742   4.880   0.656  2.0016 -1.5096 -0.9905
  304MOL0     H40118  10.952   5.012   0.637 -3.4590  2.5740  1.3788
  304MOL0     H40119  10.845   5.100   0.525 -1.2620 -1.6519 -0.7444
  304MOL0     H40120  11.052   5.215   0.522 -0.4068 -0.9959 -1.1333
  304MOL0     H40121  11.154   5.079   0.514  0.3135  3.2617  0.6354
  304MOL0     H40122  11.109   5.230   0.305 -0.8323  0.8164 -0.1967
  304MOL0     H40123  10.951   5.141   0.293  0.3010 -0.7816 -0.0762
  304MOL0     H40124  11.073   4.929   0.265 -1.3681  0.0186  0.5618
  304MOL0     H40125  11.091   5.052   0.143  0.0294  0.5434 -0.1806
  304MOL0     H40126  11.488   5.047   0.257 -0.0980  2.2910 -0.4897
  304MOL0     H40127  10.776   4.875   0.223 -0.7660 -2.2131 -1.1460
  304MOL0     H40128  10.562   4.830   0.196 -1.8756  1.1333 -0.3807
  305MOL0     O40129   4.323   8.184   9.751 -1.2066  0.4063  0.9102
  305MOL0     C40130   4.246   8.172   9.659 -1.6387  0.2413 -0.0514
  305MOL0     O40131   4.259   8.231   9.541  0.0101  0.0865  0.5114
  305MOL0     C40132   4.325   8.351   9.508  0.3933  0.7216  0.5250
  305MOL0     C40133   4.320   8.376   9.370 -0.2083  0.4838 -0.6030
  305MOL0     C40134   4.380   8.488   9.317  0.5016 -0.0242 -0.3316
  305MOL0     C40135   4.423   8.594   9.399 -0.0188  0.1770  0.5013
  305MOL0     O40136   4.474   8.717   9.357 -0.0229 -0.0543 -0.5753
  305MOL0     C40137   4.487   8.727   9.221 -1.0292  0.4429 -0.0976
  305MOL0     C40138   4.510   8.872   9.197 -0.5856 -0.0290 -0.7472
  305MOL0     C40139   4.374   8.936   9.151  0.3699  0.0063  0.2415
  305MOL0     C40140   4.372   9.081   9.115  0.6221 -0.1247  0.2091
  305MOL0     C40141   4.447   9.192   9.189  0.1724  0.0081 -0.4109
  305MOL0     C40142   4.459   9.319   9.106  0.4621 -0.3093  0.3162
  305MOL0     C40143   4.484   9.438   9.187 -0.4152 -0.1886 -0.7350
  305MOL0     C40144   4.359   9.470   9.278  0.8657  0.0526 -0.3462
  305MOL0     N40145   4.330   9.609   9.326 -0.1002 -0.5231 -0.5161
  305MOL0     C40146   4.237   9.639   9.433 -0.5954  0.0387  1.0954
  305MOL0     C40147   4.233   9.771   9.437  0.5415 -0.6675 -0.7059
  305MOL0     C40148   4.165   9.863   9.523 -0.2288 -0.5717 -0.1443
  305MOL0     C40149   4.009   9.870   9.496 -0.4195 -0.7851  1.9402
  305MOL0     C40150   3.965   9.887   9.341 -1.5139  0.2491 -0.2278
  305MOL0     C40151   4.046  10.000   9.270 -0.5186 -0.3269 -0.7590
  305MOL0     O40152   3.993  10.130   9.300 -0.1791 -0.1902 -0.3059
  305MOL0     C40153   4.037  10.222   9.214  0.3395 -0.3107  0.6171
  305MOL0     C40154   4.183  10.235   9.188  0.6461  0.5191  0.1053
  305MOL0     C40155   4.233  10.326   9.095 -0.7154  0.1317  1.1861
  305MOL0     C40156   4.151  10.425   9.038 -0.6806 -0.7146  1.0099
  305MOL0     C40157   4.209  10.527   8.940 -0.5976  0.0804 -0.3214
  305MOL0     O40158   4.348  10.535   8.934 -0.0521 -0.7439  0.1251
  305MOL0     C40159   4.415  10.621   8.856  0.3462  0.0134  0.5345
  305MOL0     C40160   4.502  10.711   8.912 -0.6748  0.7203 -0.4072
  305MOL0     C40161   4.568  10.813   8.856  0.5087 -0.3649 -0.5662
  305MOL0     C40162   4.552  10.828   8.719 -0.5242 -0.8173  1.2898
  305MOL0     O40163   4.602  10.941   8.654 -0.1107 -0.0486 -0.1056
  305MOL0     C40164   4.546  10.970   8.519  0.4742 -0.3566 -0.2315
  305MOL0     C40165   4.625  10.896   8.415 -0.0506 -0.1586 -0.0459
  305MOL0     C40166   4.774  10.911   8.410 -0.3947 -0.6285  0.9074
  305MOL0     C40167   4.806  11.029   8.326  0.0463 -0.3018  0.5247
  305MOL0     C40168   4.950  11.047   8.306  0.0559  0.1304  0.0012
  305MOL0     C40169   4.984  11.160   8.200 -0.0320 -0.7865  0.0795
  305MOL0     C40170   5.129  11.178   8.166  0.1667  1.5297 -0.6452
  305MOL0     C40171   5.199  11.226   8.296 -0.0965 -0.0296  0.6310
  305MOL0    Cl40172   5.362  11.277   8.238 -0.1213  0.6542 -0.2964
  305MOL0     C40173   4.467  10.741   8.654  0.5303  0.9347 -0.2556
  305MOL0     C40174   4.391  10.641   8.719  0.1795  0.6037 -0.0366
  305MOL0     O40175   4.133  10.610   8.885 -0.8659  0.1792 -0.4304
  305MOL0     C40176   4.021  10.430   9.070  1.2833  0.1874  0.0054
  305MOL0     C40177   3.963  10.329   9.161  0.8088  0.4805 -1.1224
  305MOL0     N40178   4.321   9.818   9.334 -0.3115 -0.3570 -0.7775
  305MOL0     N40179   4.366   9.722   9.266  0.0313  0.3057 -0.2272
  305MOL0     C40180   4.424   8.573   9.542  0.4560  0.0657  0.3772
  305MOL0     C40181   4.380   8.450   9.595  0.3281  0.9882 -0.5984
  305MOL0     C40182   4.153   8.052   9.672 -0.2122 -0.3697 -0.4874
  305MOL0     C40183   4.112   7.977   9.563  0.2088  0.7393  0.7704
  305MOL0     C40184   4.049   7.853   9.577  0.4184 -1.2463  0.0959
  305MOL0     C40185   4.020   7.812   9.698  0.3771  0.0910 -0.8703
  305MOL0     O40186   3.967   7.689   9.688  0.0588 -0.2266  0.4717
  305MOL0     C40187   3.935   7.621   9.804 -0.5330 -0.0971  1.0154
  305MOL0     C40188   3.825   7.682   9.886  0.6142  0.1651 -0.4603
  305MOL0     C40189   3.694   7.703   9.804  0.0872  0.7116  0.0083
  305MOL0     C40190   3.577   7.763   9.873 -0.5178 -0.6124 -0.3359
  305MOL0     C40191   3.525   7.701   9.991  0.0241  0.5938 -0.4958
  305MOL0     C40192   3.471   7.654  10.091  0.4534 -0.5409 -0.4193
  305MOL0     C40193   4.072   7.875   9.814 -0.0500 -0.5488 -0.0697
  305MOL0     C40194   4.130   7.997   9.808  0.1397  0.6406 -0.6672
  305MOL0     H40195   4.289   8.298   9.301  0.6638 -0.5720  0.1796
  305MOL0     H40196   4.379   8.493   9.209  0.9070 -3.6335 -0.6094
  305MOL0     H40197   4.395   8.694   9.172 -2.5901  1.4679  1.9729
  305MOL0     H40198   4.583   8.689   9.186 -0.1438  2.1948  0.3027
  305MOL0     H40199   4.581   8.886   9.115  2.6577  0.9310  1.9828
  305MOL0     H40200   4.561   8.919   9.282 -1.2164  0.8545 -0.8345
  305MOL0     H40201   4.305   8.922   9.235  0.9547  0.6886  0.8602
  305MOL0     H40202   4.334   8.877   9.069 -0.4003 -1.9544  1.9313
  305MOL0     H40203   4.425   9.075   9.019  0.2530 -3.7313  0.1068
  305MOL0     H40204   4.267   9.111   9.107  0.6207  0.2906  1.5161
  305MOL0     H40205   4.548   9.157   9.212 -0.2206 -0.5878  0.4609
  305MOL0     H40206   4.385   9.199   9.279  0.6586 -1.7085  0.0814
  305MOL0     H40207   4.367   9.328   9.048  0.3117 -3.5276 -0.1416
  305MOL0     H40208   4.535   9.306   9.029 -1.6548  0.9945 -2.1438
  305MOL0     H40209   4.573   9.424   9.249 -2.8152  1.4644  3.5126
  305MOL0     H40210   4.487   9.518   9.112 -1.9224  0.2597 -0.3547
  305MOL0     H40211   4.357   9.414   9.373 -2.8202  0.8912  0.2413
  305MOL0     H40212   4.274   9.438   9.217  0.7878 -1.1019  0.3328
  305MOL0     H40213   4.179   9.573   9.498 -0.9007 -0.7385  0.0705
  305MOL0     H40214   4.213   9.956   9.490  0.4973 -0.9542 -0.1770
  305MOL0     H40215   4.191   9.844   9.628  2.0654  0.6999 -0.4163
  305MOL0     H40216   3.957   9.950   9.551 -1.3554 -0.0516  0.0761
  305MOL0     H40217   3.966   9.778   9.536 -2.6790 -0.6871 -0.0424
  305MOL0     H40218   3.986   9.795   9.284 -1.8349  1.6114 -2.6575
  305MOL0     H40219   3.859   9.903   9.321 -1.9533 -1.8997  0.0509
  305MOL0     H40220   4.041   9.988   9.162 -0.8534 -2.6855 -0.5309
  305MOL0     H40221   4.151   9.989   9.297  0.1442 -2.6784 -3.7492
  305MOL0     H40222   4.251  10.169   9.241  0.4446  2.1779  2.5735
  305MOL0     H40223   4.339  10.340   9.079 -0.9760  0.6163 -0.2967
  305MOL0     H40224   4.535  10.696   9.014  3.1006 -0.1383 -1.5902
  305MOL0     H40225   4.634  10.882   8.908 -0.2370  0.0183 -0.1151
  305MOL0     H40226   4.546  11.076   8.493  4.6171  0.0686  0.8603
  305MOL0     H40227   4.445  10.931   8.506  1.0419 -1.1713 -2.9762
  305MOL0     H40228   4.578  10.911   8.317  0.7816 -0.9425 -0.5892
  305MOL0     H40229   4.605  10.789   8.429  1.8728 -0.6014 -0.3965
  305MOL0     H40230   4.806  10.833   8.340  1.9433 -0.4790  1.7352
  305MOL0     H40231   4.811  10.900   8.512 -2.3637 -0.9790  1.6395
  305MOL0     H40232   4.763  11.032   8.225  1.1592 -0.1495  0.0413
  305MOL0     H40233   4.776  11.120   8.379 -0.0758  0.7975 -1.3410
  305MOL0     H40234   4.994  10.950   8.283 -2.9886 -2.0990  2.5794
  305MOL0     H40235   4.983  11.078   8.406  0.0665 -2.2134  0.7862
  305MOL0     H40236   4.950  11.250   8.251  1.2274 -0.9259  1.2171
  305MOL0     H40237   4.925  11.139   8.110  1.3393 -2.1537 -0.5533
  305MOL0     H40238   5.171  11.082   8.136 -2.4371  0.8991 -2.5634
  305MOL0     H40239   5.154  11.241   8.080 -0.0754 -1.2436 -2.9005
  305MOL0     H40240   5.194  11.147   8.372  0.0823  0.9758  1.7131
  305MOL0     H40241   5.142  11.309   8.337  1.4460  2.4302 -1.8848
  305MOL0     H40242   4.436  10.742   8.550 -3.0691  2.5073  0.6701
  305MOL0     H40243   4.312  10.585   8.670  0.6124  0.3030 -0.3900
  305MOL0     H40244   3.954  10.510   9.040 -2.8465 -2.8548  0.1386
  305MOL0     H40245   3.858  10.322   9.190  1.9337  0.4578  3.7558
  305MOL0     H40246   4.470   8.654   9.597  2.8748 -0.2368 -1.0456
  305MOL0     H40247   4.370   8.441   9.703 -1.6164 -2.2662 -0.9206
  305MOL0     H40248   4.126   8.025   9.466  0.3755  1.1284  0.9824
  305MOL0     H40249   4.027   7.803   9.483 -1.9042 -2.2734  1.1211
  305MOL0     H40250   4.027   7.604   9.861  0.7651 -1.5917 -1.3547
  305MOL0     H40251   3.896   7.525   9.769 -0.1492  0.1062 -0.0010
  305MOL0     H40252   3.809   7.615   9.971  0.7146 -1.8106 -1.9317
  305MOL0     H40253   3.854   7.781   9.924 -0.1976  0.3143 -0.2022
  305MOL0     H40254   3.663   7.612   9.753  1.1849  0.5667 -0.4390
  305MOL0     H40255   3.718   7.783   9.732  0.0076  3.8959  3.2195
  305MOL0     H40256   3.615   7.859   9.909 -2.4086 -1.4859  4.7771
  305MOL0     H40257   3.490   7.768   9.806 -1.8306 -3.0604  1.0519
  305MOL0     H40258   3.424   7.621  10.181 -1.9336 -1.3339 -1.8323
  305MOL0     H40259   4.067   7.835   9.915 -0.1466 -2.6035 -0.8431
  305MOL0     H40260   4.168   8.042   9.899  0.7494 -2.9051  0.9945
  306MOL0     O40261   8.736   8.127   9.623 -0.0310  0.6310  0.4913
  306MOL0     C40262   8.722   8.029   9.545 -0.0842 -0.0282 -0.5548
  306MOL0     O40263   8.686   7.901   9.583  0.0916 -0.9410  0.2126
  306MOL0     C40264   8.619   7.903   9.711  0.4234  0.8572  0.9504
  306MOL0     C40265   8.684   7.836   9.818 -0.3055  0.4246 -1.0782
  306MOL0     C40266   8.637   7.842   9.949 -0.0404 -0.0263 -0.7282
  306MOL0     C40267   8.524   7.917   9.979  0.3148  0.7613  0.5394
  306MOL0     O40268   8.477   7.924  10.113  0.0577 -0.0145  0.7943
  306MOL0     C40269   8.560   8.014  10.188  0.4234  1.5434 -0.3110
  306MOL0     C40270   8.486   8.141  10.219  0.4608  0.1953  0.2225
  306MOL0     C40271   8.377   8.132  10.330 -0.3230 -0.1971 -0.0113
  306MOL0     C40272   8.431   8.157  10.467  0.2200 -0.3507 -0.2448
  306MOL0     C40273   8.314   8.143  10.572 -0.7160 -0.0152 -0.2063
  306MOL0     C40274   8.355   8.139  10.711 -0.3889  0.6092  0.3282
  306MOL0     C40275   8.237   8.099  10.801 -0.1512 -0.0094 -0.0803
  306MOL0     C40276   8.147   8.215  10.828 -0.2808  0.5364 -0.2710
  306MOL0     N40277   8.071   8.218  10.948 -0.1316  0.5082  0.1118
  306MOL0     C40278   8.112   8.201  11.080 -0.3348 -0.1040  0.3685
  306MOL0     C40279   8.001   8.222  11.165 -0.3053  1.0300 -1.0821
  306MOL0     C40280   7.991   8.192  11.320  1.0034 -0.6081  0.6237
  306MOL0     C40281   8.073   8.270  11.410  0.0738 -0.0334  0.6928
  306MOL0     C40282   8.043   8.427  11.409 -0.4492  0.0460 -0.7328
  306MOL0     C40283   8.166   8.524  11.430  0.7454 -0.1806  0.5607
  306MOL0     O40284   8.264   8.490  11.339 -0.1568 -0.2490 -0.2276
  306MOL0     C40285   8.303   8.567  11.236 -0.1813  0.2975 -0.2254
  306MOL0     C40286   8.352   8.502  11.118  0.0891 -0.2169 -0.7218
  306MOL0     C40287   8.424   8.571  11.022  0.0994  0.2195  0.4208
  306MOL0     C40288   8.443   8.709  11.023 -0.2347 -0.6176  0.5405
  306MOL0     C40289   8.509   8.795  10.920 -0.0742  0.8467  0.6004
  306MOL0     O40290   8.522   8.928  10.945 -0.4460  0.9249  0.3939
  306MOL0     C40291   8.570   9.021  10.858  1.0740  0.7188  0.1104
  306MOL0     C40292   8.614   9.142  10.913 -0.1648  0.0089  0.1157
  306MOL0     C40293   8.669   9.245  10.832  1.3608  0.2560  0.1248
  306MOL0     C40294   8.676   9.232  10.693  0.2216  0.0349  0.2807
  306MOL0     O40295   8.729   9.325  10.603 -0.8254  0.2128  0.4211
  306MOL0     C40296   8.816   9.420  10.654 -0.8684 -0.4946 -0.3707
  306MOL0     C40297   8.876   9.504  10.534 -0.4163  0.0155 -0.2137
  306MOL0     C40298   8.979   9.611  10.563  0.1300  0.2434 -0.1384
  306MOL0     C40299   9.111   9.550  10.615 -0.2560 -0.0586  0.1226
  306MOL0     C40300   9.207   9.660  10.656  0.5449  0.0655 -0.5068
  306MOL0     C40301   9.350   9.613  10.686 -0.3526  0.4690  0.3194
  306MOL0     C40302   9.455   9.689  10.599  1.0430  0.2989  0.7618
  306MOL0     C40303   9.563   9.612  10.530 -0.3380  0.9719 -0.5272
  306MOL0    Cl40304   9.698   9.575  10.629 -0.9010  0.2205  0.5163
  306MOL0     C40305   8.633   9.113  10.646  0.3396  0.3007  0.4456
  306MOL0     C40306   8.584   9.009  10.713  0.9335  0.6334 -0.3424
  306MOL0     O40307   8.558   8.731  10.826 -0.5471  0.0041 -0.0203
  306MOL0     C40308   8.387   8.774  11.137  0.5114  0.1919  0.4621
  306MOL0     C40309   8.327   8.706  11.246  0.8943  0.2353 -0.5275
  306MOL0     N40310   7.898   8.254  11.081  0.1906  0.0077 -0.5362
  306MOL0     N40311   7.933   8.250  10.954 -0.9857 -0.3095  0.9202
  306MOL0     C40312   8.453   7.982   9.874  0.0979 -0.1552  0.3197
  306MOL0     C40313   8.504   7.975   9.738  0.3561  0.3913 -0.6660
  306MOL0     C40314   8.740   8.045   9.403  0.4991  0.7112  0.4234
  306MOL0     C40315   8.677   7.960   9.310  1.3589 -0.3883 -0.7018
  306MOL0     C40316   8.684   7.988   9.174  0.6358  1.2516 -0.6863
  306MOL0     C40317   8.768   8.088   9.124  0.3800  0.5734  0.4967
  306MOL0     O40318   8.775   8.102   8.987  0.7159  0.1126  0.8754
  306MOL0     C40319   8.880   8.169   8.923  0.7147 -0.5085  0.7635
  306MOL0     C40320   8.871   8.131   8.772  0.4613  0.6235 -0.5269
  306MOL0     C40321   8.914   8.238   8.676  0.1609  0.9139 -0.2210
  306MOL0     C40322   8.936   8.187   8.528 -1.3645  0.0074  1.0422
  306MOL0     C40323   8.975   8.303   8.441 -0.6220  0.6566  0.6166
  306MOL0     C40324   9.012   8.382   8.356  0.6474 -0.5157 -0.3228
  306MOL0     C40325   8.822   8.168   9.214  0.2863 -0.1760 -0.1792
  306MOL0     C40326   8.816   8.149   9.353  0.2064  0.0973  0.0036
  306MOL0     H40327   8.779   7.786   9.800  1.0832  2.1846  0.9461
  306MOL0     H40328   8.697   7.791  10.024 -0.0519 -0.1445 -0.7991
  306MOL0     H40329   8.656   8.034  10.138  0.7756 -1.5744 -1.0852
  306MOL0     H40330   8.577   7.955  10.278 -1.9721 -2.6818 -2.3372
  306MOL0     H40331   8.450   8.167  10.119  0.6505  2.1632  0.6313
  306MOL0     H40332   8.556   8.221  10.245 -0.6579  1.1978  0.2060
  306MOL0     H40333   8.333   8.033  10.320  2.5121 -1.6279  0.5933
  306MOL0     H40334   8.292   8.198  10.311  0.8928  1.5488  0.3210
  306MOL0     H40335   8.519   8.105  10.506  0.0255 -2.1413 -2.0118
  306MOL0     H40336   8.458   8.263  10.472  2.1003 -0.7771  5.1219
  306MOL0     H40337   8.250   8.058  10.547 -1.0053  0.9334 -3.0070
  306MOL0     H40338   8.241   8.225  10.565 -0.0928  0.5483 -0.2224
  306MOL0     H40339   8.386   8.242  10.729  0.1166  0.5372 -0.1203
  306MOL0     H40340   8.440   8.073  10.731  0.6941  0.9381 -2.7229
  306MOL0     H40341   8.175   8.020  10.758  0.1026 -0.2276 -0.0420
  306MOL0     H40342   8.288   8.061  10.890  1.5087 -0.0314 -1.0199
  306MOL0     H40343   8.073   8.210  10.747  2.1345  0.5296 -2.6262
  306MOL0     H40344   8.199   8.310  10.826 -1.4081  1.2109  0.7668
  306MOL0     H40345   8.212   8.174  11.113 -0.4929  1.2990  2.1760
  306MOL0     H40346   8.017   8.086  11.330  1.0647 -0.5653  0.9216
  306MOL0     H40347   7.887   8.215  11.346  1.4260  3.6441 -0.6460
  306MOL0     H40348   8.173   8.262  11.367  0.0390  1.4687  0.2636
  306MOL0     H40349   8.064   8.238  11.514  2.5077  1.4953  1.4713
  306MOL0     H40350   7.990   8.460  11.319  0.4902  1.5628 -0.7640
  306MOL0     H40351   7.962   8.438  11.481 -1.9531 -1.7480 -2.0462
  306MOL0     H40352   8.214   8.507  11.527  2.0329 -3.0448 -0.4536
  306MOL0     H40353   8.140   8.630  11.423 -0.2171 -0.3234  1.6136
  306MOL0     H40354   8.332   8.399  11.092  1.2882 -1.4537  2.6932
  306MOL0     H40355   8.462   8.522  10.933  0.6877 -1.3912  1.5205
  306MOL0     H40356   8.620   9.148  11.021  4.2838 -0.9653  0.0943
  306MOL0     H40357   8.701   9.334  10.886 -0.1442  0.0574  1.4077
  306MOL0     H40358   8.893   9.374  10.718  3.0436  3.6114 -1.6040
  306MOL0     H40359   8.760   9.488  10.719 -4.5350 -1.6986 -2.0175
  306MOL0     H40360   8.786   9.548  10.490  0.5969 -0.6041 -3.1454
  306MOL0     H40361   8.917   9.432  10.461  2.4563 -0.3726  1.6214
  306MOL0     H40362   8.936   9.685  10.632 -2.9927  1.6470 -3.2579
  306MOL0     H40363   9.009   9.667  10.474  1.5933  0.0429  0.2082
  306MOL0     H40364   9.084   9.489  10.701 -0.2869 -2.5866 -1.5730
  306MOL0     H40365   9.161   9.492  10.537  1.9211  2.2299 -0.3071
  306MOL0     H40366   9.171   9.721  10.739  2.1674 -2.4456  2.2356
  306MOL0     H40367   9.206   9.731  10.572 -0.7816  0.4402 -0.1907
  306MOL0     H40368   9.367   9.507  10.668 -3.7163 -0.4104  1.7363
  306MOL0     H40369   9.372   9.623  10.793 -1.3943  0.3109  0.5537
  306MOL0     H40370   9.392   9.732  10.521  0.7809  0.2144  0.9236
  306MOL0     H40371   9.497   9.781  10.640  0.5839 -0.2979  2.6973
  306MOL0     H40372   9.584   9.681  10.447 -0.4927  0.9035 -0.6242
  306MOL0     H40373   9.529   9.513  10.499  1.9530 -0.3792  1.0016
  306MOL0     H40374   8.635   9.105  10.537  0.2639 -0.5918  0.5095
  306MOL0     H40375   8.544   8.919  10.667  4.3653 -1.1985 -0.0314
  306MOL0     H40376   8.380   8.879  11.163 -3.9857 -0.1997  1.5215
  306MOL0     H40377   8.308   8.764  11.335 -0.2389 -2.8858  1.4087
  306MOL0     H40378   8.365   8.039   9.905  0.3808  0.2789  0.3360
  306MOL0     H40379   8.454   8.041   9.668 -0.2447 -0.6503 -1.2349
  306MOL0     H40380   8.600   7.892   9.342 -0.4989  1.0238 -1.9504
  306MOL0     H40381   8.623   7.933   9.103  0.2576  0.9006 -0.1007
  306MOL0     H40382   8.974   8.126   8.957  0.7093 -0.9971  0.1745
  306MOL0     H40383   8.852   8.272   8.948 -3.8188 -1.3490  0.0247
  306MOL0     H40384   8.932   8.041   8.757 -1.9381 -0.8072 -2.5827
  306MOL0     H40385   8.771   8.101   8.742  0.9190  0.1160 -1.6288
  306MOL0     H40386   9.013   8.272   8.709 -0.1875  2.8600 -1.0581
  306MOL0     H40387   8.840   8.317   8.688  0.0341  0.4675  2.9862
  306MOL0     H40388   9.012   8.108   8.523 -1.9972 -0.5463 -1.2680
  306MOL0     H40389   8.843   8.145   8.489 -2.1616  2.5481  0.0042
  306MOL0     H40390   9.043   8.449   8.279 -1.8326  0.2522 -0.7524
  306MOL0     H40391   8.891   8.249   9.194  1.2447  0.2846  3.9859
  306MOL0     H40392   8.867   8.216   9.422  0.1988  3.4309 -2.9403
  307MOL0     O40393   7.021   4.177   5.643 -0.2383  0.1761  0.5676
  307MOL0     C40394   6.916   4.135   5.692 -0.4955  0.8020  0.2829
  307MOL0     O40395   6.870   4.006   5.699 -0.7059  0.1095 -0.0979
  307MOL0     C40396   6.962   3.923   5.636  0.2248 -0.3207 -0.1155
  307MOL0     C40397   7.058   3.858   5.714 -0.3627 -0.8362 -0.8701
  307MOL0     C40398   7.149   3.775   5.642 -0.1368  0.0711  0.0168
  307MOL0     C40399   7.137   3.751   5.505 -0.0323 -0.2679 -0.6898
  307MOL0     O40400   7.222   3.645   5.468 -0.5439 -0.7189 -0.5374
  307MOL0     C40401   7.210   3.579   5.343 -0.3767 -0.0815  0.8905
  307MOL0     C40402   7.139   3.447   5.352  0.1999  0.9726  1.1440
  307MOL0     C40403   7.172   3.362   5.220  0.4506 -0.7094  0.2686
  307MOL0     C40404   7.115   3.216   5.227 -0.0129  0.1332  0.1868
  307MOL0     C40405   7.162   3.118   5.119 -0.0703 -0.8722 -0.1259
  307MOL0     C40406   7.126   3.166   4.972  1.0714  0.0154 -0.4322
  307MOL0     C40407   7.241   3.193   4.865  0.2456 -0.0906 -0.4913
  307MOL0     C40408   7.194   3.287   4.750  0.6536 -0.1384  0.2929
  307MOL0     N40409   7.083   3.229   4.671 -1.1509 -0.4184  0.3353
  307MOL0     C40410   7.065   3.098   4.637 -0.3407  0.8348 -0.3950
  307MOL0     C40411   6.939   3.087   4.591 -0.9259  0.3973  0.0996
  307MOL0     C40412   6.877   2.952   4.564  0.3681 -0.1782 -0.3728
  307MOL0     C40413   6.915   2.873   4.439 -0.4661 -0.1449 -0.6396
  307MOL0     C40414   6.915   2.951   4.313 -0.2886 -0.7756 -0.7332
  307MOL0     C40415   6.777   3.021   4.282 -0.2378 -0.7931  0.1264
  307MOL0     O40416   6.779   3.062   4.143  0.2727 -0.3991  0.1368
  307MOL0     C40417   6.697   3.162   4.092  0.5153  0.3046  0.6618
  307MOL0     C40418   6.615   3.250   4.170 -0.2708  0.4701  0.5978
  307MOL0     C40419   6.541   3.358   4.112 -0.4398  1.1283 -0.7029
  307MOL0     C40420   6.533   3.364   3.976  0.1567 -0.8255 -0.0024
  307MOL0     C40421   6.463   3.479   3.905  0.3899 -0.2683  0.1227
  307MOL0     O40422   6.394   3.569   3.981  0.8190 -0.0137 -0.2660
  307MOL0     C40423   6.337   3.665   3.904  1.1229 -0.1886  0.2304
  307MOL0     C40424   6.226   3.647   3.830 -0.7818  0.5488 -0.5384
  307MOL0     C40425   6.176   3.738   3.739  0.1123  0.0035  0.0272
  307MOL0     C40426   6.244   3.867   3.725 -0.7568  0.5642 -0.5920
  307MOL0     O40427   6.192   3.956   3.649 -0.8111  0.1288  0.2736
  307MOL0     C40428   6.274   4.047   3.570 -0.1661 -0.1721  0.0176
  307MOL0     C40429   6.263   4.188   3.629 -0.1128  0.5175  0.3462
  307MOL0     C40430   6.399   4.250   3.575 -0.1779 -0.1706 -0.4703
  307MOL0     C40431   6.396   4.393   3.625 -0.7619  0.3957 -0.9724
  307MOL0     C40432   6.533   4.456   3.604 -0.7035  0.9794  0.0295
  307MOL0     C40433   6.535   4.601   3.656 -0.0664  0.2824 -0.0731
  307MOL0     C40434   6.570   4.604   3.807 -0.1906  0.9970  0.4495
  307MOL0     C40435   6.508   4.719   3.879 -0.0739  1.3042 -0.5757
  307MOL0    Cl40436   6.332   4.715   3.871 -0.1741 -0.2703  0.4152
  307MOL0     C40437   6.358   3.885   3.805  0.6575 -0.0419  0.5049
  307MOL0     C40438   6.402   3.780   3.886 -0.5260 -0.0608  0.7935
  307MOL0     O40439   6.464   3.478   3.777 -0.6446 -0.1859 -0.5438
  307MOL0     C40440   6.604   3.272   3.894 -0.1411 -0.3758  0.4845
  307MOL0     C40441   6.686   3.171   3.950 -0.6237  0.4238  0.2585
  307MOL0     N40442   6.894   3.215   4.584 -1.1160 -0.3389  0.0779
  307MOL0     N40443   6.972   3.298   4.632  1.0203 -0.4105 -0.2364
  307MOL0     C40444   7.042   3.813   5.433 -0.2459 -1.0064 -0.4345
  307MOL0     C40445   6.951   3.905   5.492  0.1567 -0.6353 -0.2506
  307MOL0     C40446   6.835   4.241   5.762  0.8436 -0.0189  0.1709
  307MOL0     C40447   6.692   4.230   5.770 -1.2205  0.0472  1.3110
  307MOL0     C40448   6.622   4.311   5.854  0.4716  0.1384  1.3729
  307MOL0     C40449   6.685   4.413   5.924  0.4530 -0.4764  0.0856
  307MOL0     O40450   6.618   4.508   5.991  0.2070 -0.8578  0.0816
  307MOL0     C40451   6.471   4.532   5.983 -0.2666  0.6557 -0.4544
  307MOL0     C40452   6.425   4.621   6.093  0.1198 -0.1491  1.1453
  307MOL0     C40453   6.446   4.592   6.248  0.5332 -0.0677 -0.1264
  307MOL0     C40454   6.388   4.701   6.336 -0.1394 -0.7903 -0.4410
  307MOL0     C40455   6.245   4.679   6.339  0.3382  0.1219 -1.3613
  307MOL0     C40456   6.125   4.658   6.335 -0.0310 -0.6285 -0.2073
  307MOL0     C40457   6.826   4.425   5.919 -0.8203 -0.1205  0.2201
  307MOL0     C40458   6.898   4.333   5.840  0.9956  0.0896 -0.1823
  307MOL0     H40459   7.051   3.881   5.820 -0.8034 -1.1202 -0.8356
  307MOL0     H40460   7.224   3.722   5.700 -0.4338  0.1538  0.4831
  307MOL0     H40461   7.308   3.550   5.306 -1.1383 -1.0510 -0.4534
  307MOL0     H40462   7.174   3.642   5.261  2.7022  0.3359 -0.2668
  307MOL0     H40463   7.030   3.461   5.356  0.1569  2.6863 -2.5147
  307MOL0     H40464   7.171   3.390   5.440  1.1267 -1.4255 -0.6371
  307MOL0     H40465   7.278   3.363   5.195  0.7129 -1.4218  1.2603
  307MOL0     H40466   7.138   3.415   5.131 -0.2204 -1.2890  0.1637
  307MOL0     H40467   7.147   3.162   5.317 -2.6005 -1.7997  0.0584
  307MOL0     H40468   7.007   3.205   5.233  0.1268 -1.9512 -0.2403
  307MOL0     H40469   7.113   3.022   5.142 -1.1020  0.5797  4.9606
  307MOL0     H40470   7.270   3.109   5.133  0.0216 -1.1034 -0.9398
  307MOL0     H40471   7.057   3.251   4.985 -0.7538 -1.1984 -1.5970
  307MOL0     H40472   7.061   3.088   4.931  0.1329  0.7296 -0.3572
  307MOL0     H40473   7.325   3.248   4.909 -0.3609  1.0407 -0.6953
  307MOL0     H40474   7.274   3.095   4.830  0.2319  0.1616 -1.2121
  307MOL0     H40475   7.269   3.325   4.680 -0.4711  0.3038 -0.6930
  307MOL0     H40476   7.164   3.380   4.798  0.1699  0.8749 -1.8536
  307MOL0     H40477   7.125   3.010   4.650  0.7362  1.6200  0.0793
  307MOL0     H40478   6.770   2.974   4.561  0.2009 -0.4848  1.5949
  307MOL0     H40479   6.888   2.883   4.649 -2.9545 -2.8020 -1.8374
  307MOL0     H40480   6.853   2.785   4.423  0.4845 -0.9465 -0.0728
  307MOL0     H40481   7.014   2.834   4.468  0.1971  0.7034 -1.6971
  307MOL0     H40482   6.985   3.035   4.317  2.9645 -3.3197 -0.3953
  307MOL0     H40483   6.940   2.872   4.242 -2.5045 -2.3796  0.1675
  307MOL0     H40484   6.778   3.111   4.344  3.7089 -0.6158  0.0542
  307MOL0     H40485   6.686   2.966   4.310 -0.7291  0.7591  1.7732
  307MOL0     H40486   6.612   3.249   4.279 -0.6659  2.7128  0.6428
  307MOL0     H40487   6.496   3.429   4.180  3.9472  0.8187  3.0013
  307MOL0     H40488   6.171   3.554   3.837 -0.4492  0.4409  1.7329
  307MOL0     H40489   6.091   3.714   3.676  0.9147 -0.5796 -0.8633
  307MOL0     H40490   6.235   4.048   3.468 -0.6348 -1.1293  0.1690
  307MOL0     H40491   6.376   4.009   3.565  1.0206  2.3488  2.5822
  307MOL0     H40492   6.248   4.188   3.737 -1.4643 -0.7408  0.1830
  307MOL0     H40493   6.178   4.244   3.588 -0.3064 -1.1816 -1.7959
  307MOL0     H40494   6.396   4.268   3.468  1.9459  2.7256 -0.1434
  307MOL0     H40495   6.490   4.206   3.616  2.4919  3.4817 -1.9297
  307MOL0     H40496   6.316   4.446   3.573 -2.4984  0.4394  1.5593
  307MOL0     H40497   6.378   4.395   3.733 -3.7326  0.1112 -1.3708
  307MOL0     H40498   6.553   4.446   3.497 -0.2006  1.6396  0.0583
  307MOL0     H40499   6.613   4.401   3.653 -1.0251  0.3811 -0.1061
  307MOL0     H40500   6.457   4.671   3.625  0.1520  0.7121  0.3276
  307MOL0     H40501   6.626   4.644   3.613  1.1046 -1.6764  0.3431
  307MOL0     H40502   6.538   4.507   3.847 -1.9674 -0.0221 -3.0126
  307MOL0     H40503   6.679   4.615   3.810  0.1911 -1.2973 -1.5012
  307MOL0     H40504   6.546   4.810   3.832  2.1612  1.4546  1.3238
  307MOL0     H40505   6.537   4.720   3.985 -3.0147 -1.6773  0.4398
  307MOL0     H40506   6.395   3.986   3.809 -3.5801  1.7000  1.1943
  307MOL0     H40507   6.501   3.791   3.930  0.9096  2.5540 -2.5594
  307MOL0     H40508   6.599   3.291   3.787 -0.4774  1.6055  0.8175
  307MOL0     H40509   6.771   3.127   3.899 -0.5680  0.5199  0.2686
  307MOL0     H40510   7.034   3.785   5.329  1.0462 -0.2905 -0.7492
  307MOL0     H40511   6.877   3.964   5.440 -1.5364 -0.2476  2.4198
  307MOL0     H40512   6.640   4.149   5.720 -0.6815 -0.1719  1.1059
  307MOL0     H40513   6.517   4.295   5.876  1.0480 -1.8748  3.0473
  307MOL0     H40514   6.410   4.441   5.979 -0.3505  0.7402 -2.0518
  307MOL0     H40515   6.450   4.581   5.887  2.2486  1.9506 -0.4129
  307MOL0     H40516   6.471   4.720   6.083 -2.5203  0.9382 -1.2800
  307MOL0     H40517   6.322   4.632   6.059  0.1314  0.3795  1.2721
  307MOL0     H40518   6.551   4.589   6.280  1.0879  0.8954 -1.7063
  307MOL0     H40519   6.406   4.492   6.266 -4.3034  1.4165 -1.1525
  307MOL0     H40520   6.434   4.695   6.435  0.6309  0.5986 -0.6900
  307MOL0     H40521   6.410   4.801   6.299 -1.5545 -0.5367 -0.6340
  307MOL0     H40522   6.019   4.645   6.335 -0.2346  0.8161 -0.9529
  307MOL0     H40523   6.865   4.505   5.981 -1.3084 -1.0739  1.8009
  307MOL0     H40524   7.006   4.340   5.845  1.2053 -1.6729 -1.2703
  308MOL0     O40525   2.405   2.371   1.444  0.4610  0.1269  0.3269
  308MOL0     C40526   2.294   2.345   1.494  1.1126  1.4714 -1.2980
  308MOL0     O40527   2.262   2.237   1.574 -1.3166  1.3384  0.3141
  308MOL0     C40528   2.372   2.159   1.605 -0.2870  0.8942 -0.6794
  308MOL0     C40529   2.461   2.182   1.714 -0.5023  0.2809  0.3683
  308MOL0     C40530   2.553   2.089   1.766 -0.2469 -0.2393 -0.2848
  308MOL0     C40531   2.546   1.953   1.722  0.4412 -0.6914 -0.4417
  308MOL0     O40532   2.603   1.847   1.795  0.1660  0.0948  0.1181
  308MOL0     C40533   2.533   1.829   1.917  0.7794  0.1144 -0.4473
  308MOL0     C40534   2.609   1.741   2.011 -0.8246  0.5990 -0.7701
  308MOL0     C40535   2.603   1.595   1.991  0.4847 -0.5746  0.0888
  308MOL0     C40536   2.698   1.546   1.878  0.7207 -1.3749  0.0309
  308MOL0     C40537   2.719   1.393   1.862 -1.3317  0.6621  0.8659
  308MOL0     C40538   2.771   1.372   1.717 -0.2036 -0.5276 -0.3708
  308MOL0     C40539   2.774   1.223   1.678  0.0614  0.4360  1.2013
  308MOL0     C40540   2.806   1.209   1.525  0.4145  0.5111 -0.0157
  308MOL0     N40541   2.695   1.268   1.452  0.0512 -0.2115  0.0846
  308MOL0     C40542   2.705   1.387   1.381  0.9106  1.1786 -0.0257
  308MOL0     C40543   2.582   1.399   1.321  0.0657  0.1807  0.3079
  308MOL0     C40544   2.538   1.511   1.225 -0.3565  0.1252  0.8573
  308MOL0     C40545   2.393   1.496   1.172 -0.6823 -0.7666 -0.1522
  308MOL0     C40546   2.340   1.601   1.071  0.4337 -0.5475 -0.3954
  308MOL0     C40547   2.366   1.743   1.127 -0.5315  1.3738  1.0061
  308MOL0     O40548   2.272   1.778   1.233 -0.6750  0.2278 -0.6896
  308MOL0     C40549   2.137   1.804   1.203 -0.7162 -0.3828 -0.2790
  308MOL0     C40550   2.109   1.906   1.110 -0.7375  0.0413 -0.0210
  308MOL0     C40551   1.979   1.948   1.093 -0.6540  0.0985  0.4147
  308MOL0     C40552   1.873   1.902   1.174 -0.3798  0.2028 -0.2374
  308MOL0     C40553   1.733   1.956   1.168  0.5512  0.8223  0.0454
  308MOL0     O40554   1.709   2.059   1.083 -0.3292 -0.2745  0.0454
  308MOL0     C40555   1.588   2.129   1.075  0.1508  0.8666 -0.1088
  308MOL0     C40556   1.586   2.256   1.023  0.3683 -0.8593  0.4734
  308MOL0     C40557   1.462   2.333   1.021 -0.3577  0.1685  0.1389
  308MOL0     C40558   1.335   2.275   1.031 -0.1904  0.7105  0.2526
  308MOL0     O40559   1.222   2.336   0.997 -0.6578  0.2476  0.2423
  308MOL0     C40560   1.122   2.250   0.939 -0.6429 -0.0646  0.0219
  308MOL0     C40561   1.009   2.340   0.876 -0.6066 -0.4303 -1.0472
  308MOL0     C40562   1.057   2.423   0.758 -0.5316  0.9354 -0.2961
  308MOL0     C40563   0.946   2.524   0.730  0.5876  0.7513 -0.2286
  308MOL0     C40564   0.967   2.596   0.594 -0.2658 -0.2974  0.3187
  308MOL0     C40565   0.824   2.656   0.546 -0.2240  0.0160 -0.4342
  308MOL0     C40566   0.832   2.746   0.421  0.4828  1.0610 -0.4517
  308MOL0     C40567   0.853   2.646   0.309 -0.3150 -0.5181  0.1308
  308MOL0    Cl40568   0.853   2.740   0.165 -0.2226  0.0012  0.3822
  308MOL0     C40569   1.338   2.132   1.070  0.0818  0.5156 -0.3412
  308MOL0     C40570   1.466   2.060   1.095  0.0972 -0.6248  0.3239
  308MOL0     O40571   1.646   1.903   1.240  0.3464  0.8747 -0.5172
  308MOL0     C40572   1.902   1.805   1.269  0.2054 -0.3178  0.0340
  308MOL0     C40573   2.026   1.754   1.281 -0.9456  0.5128 -0.0569
  308MOL0     N40574   2.499   1.299   1.362  0.6801  0.1644  0.2195
  308MOL0     N40575   2.570   1.218   1.437  0.3370 -0.5666 -0.1617
  308MOL0     C40576   2.460   1.925   1.612 -0.3496 -0.5895  0.4780
  308MOL0     C40577   2.378   2.025   1.552 -0.3399  1.6137 -1.6003
  308MOL0     C40578   2.169   2.436   1.474  0.3513 -0.3143  0.1851
  308MOL0     C40579   2.179   2.532   1.373  0.8273 -0.9432 -0.0043
  308MOL0     C40580   2.083   2.635   1.375  1.1905 -0.5914  0.1969
  308MOL0     C40581   1.976   2.638   1.463 -0.2472 -0.3515  0.6817
  308MOL0     O40582   1.889   2.736   1.451 -0.0985  0.1267 -0.2546
  308MOL0     C40583   1.786   2.759   1.553  0.0753 -0.1014  0.6706
  308MOL0     C40584   1.726   2.894   1.525  0.3602 -0.4605  0.9436
  308MOL0     C40585   1.602   2.902   1.613  0.3345 -0.1020 -0.3042
  308MOL0     C40586   1.503   3.013   1.579  0.5105  0.5813 -0.7366
  308MOL0     C40587   1.459   3.002   1.438 -0.4567  0.7186 -0.6137
  308MOL0     C40588   1.426   2.994   1.327  1.2111 -0.7550  1.0572
  308MOL0     C40589   1.958   2.526   1.547  0.8872  0.1386  0.4282
  308MOL0     C40590   2.056   2.433   1.556  0.0274 -0.2678 -0.2295
  308MOL0     H40591   2.478   2.281   1.755  1.5366  0.5710 -0.9844
  308MOL0     H40592   2.612   2.129   1.847 -0.0261  3.1878 -1.9467
  308MOL0     H40593   2.437   1.787   1.884  2.9414 -2.2145 -4.5202
  308MOL0     H40594   2.503   1.919   1.972  1.3953 -0.8659  1.5744
  308MOL0     H40595   2.570   1.756   2.112 -0.3355 -1.0922 -0.2977
  308MOL0     H40596   2.709   1.785   2.009  0.1002 -1.3797 -3.6021
  308MOL0     H40597   2.501   1.575   1.960  0.3930 -0.7293  0.4799
  308MOL0     H40598   2.615   1.536   2.082 -5.5361 -1.3712  0.7743
  308MOL0     H40599   2.661   1.596   1.787  2.2658 -1.2218 -0.5435
  308MOL0     H40600   2.795   1.595   1.890 -0.4963  0.8590  1.3852
  308MOL0     H40601   2.618   1.351   1.865 -0.9099 -0.3647  0.8777
  308MOL0     H40602   2.774   1.342   1.941  1.0297  1.0130 -0.4382
  308MOL0     H40603   2.872   1.409   1.703  0.0637 -0.4115  1.5655
  308MOL0     H40604   2.707   1.429   1.649  0.6430  0.5787 -0.2489
  308MOL0     H40605   2.850   1.155   1.719  0.9793 -1.1581 -2.7264
  308MOL0     H40606   2.674   1.180   1.690  0.8287 -1.6694  0.5270
  308MOL0     H40607   2.818   1.109   1.482  4.5558  0.6484  0.3393
  308MOL0     H40608   2.897   1.269   1.515  1.0448 -0.5856 -1.2066
  308MOL0     H40609   2.794   1.443   1.355  0.0717  2.2314 -0.7490
  308MOL0     H40610   2.618   1.518   1.151  2.0626 -1.4999  3.1723
  308MOL0     H40611   2.545   1.598   1.290 -1.7653  0.4580  0.6109
  308MOL0     H40612   2.337   1.502   1.266  0.3248  2.7403  0.3943
  308MOL0     H40613   2.385   1.392   1.140  1.3999 -2.0259  2.9914
  308MOL0     H40614   2.396   1.588   0.979 -0.9033  1.5170 -1.5770
  308MOL0     H40615   2.233   1.581   1.057 -0.3013 -1.0887  4.2340
  308MOL0     H40616   2.371   1.811   1.042 -0.2787 -2.0618 -2.0053
  308MOL0     H40617   2.470   1.742   1.159 -0.9143  0.5681  2.3104
  308MOL0     H40618   2.196   1.951   1.063  0.1831 -3.4388 -2.0087
  308MOL0     H40619   1.956   2.025   1.019 -0.9506 -1.1964 -0.9012
  308MOL0     H40620   1.678   2.309   0.999  1.3777 -1.0349  3.5055
  308MOL0     H40621   1.454   2.439   0.998 -0.7035 -0.4513 -3.0110
  308MOL0     H40622   1.073   2.181   1.008  0.7222 -0.8024  0.2872
  308MOL0     H40623   1.160   2.193   0.853 -3.7804  1.8027 -2.8779
  308MOL0     H40624   0.973   2.398   0.961 -2.4661 -0.8675 -1.4971
  308MOL0     H40625   0.920   2.286   0.842 -2.6768  0.4738  2.4781
  308MOL0     H40626   1.065   2.362   0.667  0.9770  0.1489  0.3360
  308MOL0     H40627   1.151   2.469   0.790  0.1590 -0.8551  0.3915
  308MOL0     H40628   0.850   2.472   0.734  1.4297 -0.8248  0.0814
  308MOL0     H40629   0.945   2.594   0.814 -1.5980 -0.3269  0.7223
  308MOL0     H40630   1.013   2.524   0.525  3.7674  0.6093  1.7911
  308MOL0     H40631   1.039   2.672   0.622 -0.6487 -0.9597  3.4378
  308MOL0     H40632   0.806   2.724   0.631  0.7099 -0.3970  0.1060
  308MOL0     H40633   0.749   2.577   0.542 -0.1066 -0.0430 -2.0816
  308MOL0     H40634   0.734   2.794   0.419  0.3252  0.7713  0.1576
  308MOL0     H40635   0.910   2.822   0.417 -0.0128  1.5451 -1.2999
  308MOL0     H40636   0.774   2.570   0.302 -2.6968  1.9474 -2.5051
  308MOL0     H40637   0.949   2.595   0.324 -0.6139 -0.4464  2.8532
  308MOL0     H40638   1.241   2.085   1.073 -0.0494  0.7937 -0.1091
  308MOL0     H40639   1.449   1.955   1.117 -0.1764 -1.0629 -1.7475
  308MOL0     H40640   1.823   1.768   1.333 -1.0328 -2.4153 -2.5028
  308MOL0     H40641   2.039   1.677   1.356  0.0040  1.6918  1.0372
  308MOL0     H40642   2.459   1.819   1.589  0.9217 -0.3187 -0.9743
  308MOL0     H40643   2.302   1.995   1.480 -0.0407 -4.7341  0.1139
  308MOL0     H40644   2.263   2.530   1.303  2.1829  1.2172  1.4233
  308MOL0     H40645   2.090   2.725   1.316  1.0878 -1.6654 -1.5158
  308MOL0     H40646   1.812   2.762   1.660  0.5282  1.6027  0.5369
  308MOL0     H40647   1.713   2.679   1.535 -0.6432  0.3002  1.7329
  308MOL0     H40648   1.790   2.980   1.543 -0.9908  1.0360 -0.9242
  308MOL0     H40649   1.707   2.903   1.418  2.0760 -0.7576  0.5932
  308MOL0     H40650   1.621   2.918   1.720 -1.2942 -0.8606  0.1389
  308MOL0     H40651   1.543   2.809   1.608 -1.8546  0.3567  6.5796
  308MOL0     H40652   1.410   3.006   1.636  0.9090 -0.1400 -0.1471
  308MOL0     H40653   1.540   3.111   1.609 -2.5196  2.3498 -2.2829
  308MOL0     H40654   1.400   2.980   1.224  2.2676 -0.2048  0.7007
  308MOL0     H40655   1.885   2.538   1.626 -1.0688  0.1338 -1.2802
  308MOL0     H40656   2.047   2.359   1.635 -0.9233 -2.1464 -2.0141
  309MOL0     O40657   9.235   2.763   0.538  0.3025  0.0162  0.2285
  309MOL0     C40658   9.195   2.869   0.492 -0.9184 -0.2028  0.6301
  309MOL0     O40659   9.102   2.947   0.549 -0.5985 -0.0751  0.5156
  309MOL0     C40660   9.059   2.958   0.680  0.2414  0.4212 -0.0496
  309MOL0     C40661   9.029   3.091   0.727  0.4476  0.3946  0.6369
  309MOL0     C40662   8.979   3.114   0.859 -0.1597  0.4655  0.3886
  309MOL0     C40663   8.957   3.006   0.939 -0.1846 -0.7653  0.5067
  309MOL0     O40664   8.931   3.044   1.067  0.2251  1.0835  0.4666
  309MOL0     C40665   8.808   2.999   1.120 -0.4914  0.7646  1.0929
  309MOL0     C40666   8.784   3.001   1.266 -0.6791 -0.1813 -0.0207
  309MOL0     C40667   8.761   3.147   1.317 -1.2077 -0.9287 -0.0193
  309MOL0     C40668   8.632   3.227   1.301  0.0597 -0.4837 -0.2995
  309MOL0     C40669   8.636   3.382   1.319 -0.3207  0.7488  0.2680
  309MOL0     C40670   8.513   3.476   1.342 -0.5730 -0.8778  0.5055
  309MOL0     C40671   8.444   3.457   1.475  0.0825  0.2424  0.2666
  309MOL0     C40672   8.524   3.500   1.600  0.9686  0.0800 -0.0396
  309MOL0     N40673   8.569   3.644   1.604  0.2489  0.5372 -0.1470
  309MOL0     C40674   8.653   3.683   1.700 -0.0389 -0.1310 -0.3667
  309MOL0     C40675   8.699   3.796   1.659 -1.2310 -0.5342  0.7588
  309MOL0     C40676   8.793   3.883   1.736 -0.5363 -0.8295 -0.2488
  309MOL0     C40677   8.944   3.848   1.701  0.4127 -1.0728  0.1499
  309MOL0     C40678   9.050   3.927   1.780  0.3251 -0.6960 -0.1450
  309MOL0     C40679   9.192   3.881   1.759 -0.3219  0.1906 -0.9082
  309MOL0     O40680   9.293   3.977   1.798  0.6822  0.3919 -1.1293
  309MOL0     C40681   9.417   3.959   1.758 -0.2391  0.6056 -0.9614
  309MOL0     C40682   9.433   3.951   1.615 -0.0992  0.0954  0.0945
  309MOL0     C40683   9.540   3.885   1.562 -0.4882  0.1084 -0.3886
  309MOL0     C40684   9.647   3.846   1.635  0.2659 -0.8140 -1.1405
  309MOL0     C40685   9.758   3.764   1.572  0.5018 -0.0391 -0.0580
  309MOL0     O40686   9.849   3.707   1.666  0.1681  0.4349 -0.2314
  309MOL0     C40687   9.941   3.631   1.605  1.1290  0.9053  0.1734
  309MOL0     C40688  10.063   3.674   1.556  0.1334 -0.9723  0.5921
  309MOL0     C40689  10.152   3.589   1.487 -0.3281 -0.1756  0.1405
  309MOL0     C40690  10.128   3.451   1.478  0.1981  0.1756 -0.2301
  309MOL0     O40691  10.213   3.373   1.399 -0.4542  0.0503 -0.5039
  309MOL0     C40692  10.203   3.220   1.407 -0.2740  0.4945  0.5330
  309MOL0     C40693  10.345   3.149   1.396 -0.1529  0.3664 -0.4580
  309MOL0     C40694  10.429   3.164   1.527  0.0437  0.1328  0.5744
  309MOL0     C40695  10.532   3.046   1.530  0.2438  0.0361 -0.0272
  309MOL0     C40696  10.623   3.041   1.653  1.1125  0.9490  1.3539
  309MOL0     C40697  10.741   3.130   1.634 -0.1464 -0.1712 -0.2597
  309MOL0     C40698  10.825   3.133   1.762  0.4743  1.2843 -0.0972
  309MOL0     C40699  10.921   3.249   1.759  0.5026 -0.2806 -0.6504
  309MOL0    Cl40700  11.022   3.249   1.618  0.0115  0.2747  0.6080
  309MOL0     C40701  10.003   3.407   1.532  0.1681  0.2451 -0.1297
  309MOL0     C40702   9.910   3.495   1.594  0.0594 -0.3071  0.1104
  309MOL0     O40703   9.754   3.737   1.448 -0.1144  1.1014 -0.1010
  309MOL0     C40704   9.642   3.873   1.774  0.6885  0.3677 -0.0709
  309MOL0     C40705   9.525   3.920   1.834 -0.7103 -0.1477 -0.2391
  309MOL0     N40706   8.631   3.832   1.538  0.0228  0.1207 -1.4394
  309MOL0     N40707   8.546   3.738   1.510 -1.0215  0.2205 -0.2435
  309MOL0     C40708   8.990   2.880   0.885 -0.6044  0.3407  0.7941
  309MOL0     C40709   9.041   2.850   0.762  0.1142 -0.7087 -0.3630
  309MOL0     C40710   9.271   2.928   0.377 -0.5347  0.6452 -0.0593
  309MOL0     C40711   9.374   2.853   0.323  0.4471 -1.1436  0.5556
  309MOL0     C40712   9.443   2.912   0.209  0.9320  0.0429  0.3426
  309MOL0     C40713   9.402   3.035   0.146  0.8847  0.3021 -0.3837
  309MOL0     O40714   9.463   3.083   0.037 -0.3956 -0.3407  0.3740
  309MOL0     C40715   9.435   3.205  -0.019 -0.2513 -0.1291  0.7670
  309MOL0     C40716   9.317   3.167  -0.115  0.0872  0.1383 -0.6563
  309MOL0     C40717   9.331   3.045  -0.207  0.5098  0.2551  0.2115
  309MOL0     C40718   9.272   3.076  -0.346  1.1569 -1.3662 -0.0743
  309MOL0     C40719   9.137   3.141  -0.332  0.4686  0.2633  0.4619
  309MOL0     C40720   9.023   3.185  -0.331  0.3424 -0.3836  0.2120
  309MOL0     C40721   9.301   3.109   0.212  0.0372  0.8835 -0.4891
  309MOL0     C40722   9.230   3.046   0.315 -0.2394  0.0242 -0.7439
  309MOL0     H40723   9.032   3.178   0.663 -0.7160 -0.3920 -0.5603
  309MOL0     H40724   8.986   3.215   0.899 -1.2812  0.4791  0.5789
  309MOL0     H40725   8.798   2.893   1.095  0.4546  0.4049  2.1334
  309MOL0     H40726   8.729   3.056   1.071 -0.8321 -0.4222  0.2422
  309MOL0     H40727   8.880   2.972   1.309  0.3660  1.6002 -1.0003
  309MOL0     H40728   8.713   2.925   1.301  3.3830 -3.9333  0.9961
  309MOL0     H40729   8.839   3.211   1.276  0.1774 -1.5666  1.4790
  309MOL0     H40730   8.793   3.146   1.422 -1.7582 -0.6582  0.1532
  309MOL0     H40731   8.594   3.204   1.201 -2.2339  1.5670 -0.0246
  309MOL0     H40732   8.546   3.193   1.360  1.1953  1.2459  2.6139
  309MOL0     H40733   8.684   3.432   1.235  1.8795 -0.5026  0.7264
  309MOL0     H40734   8.708   3.397   1.400  0.9345 -0.0356 -0.6741
  309MOL0     H40735   8.437   3.473   1.264  0.8390  2.4918 -1.2337
  309MOL0     H40736   8.539   3.582   1.339 -0.6055 -0.8818 -0.2029
  309MOL0     H40737   8.355   3.521   1.467 -1.3023 -1.7582 -1.4036
  309MOL0     H40738   8.414   3.353   1.484  0.0770  0.4202  2.9815
  309MOL0     H40739   8.609   3.432   1.612  1.3155  0.3882 -0.6787
  309MOL0     H40740   8.464   3.493   1.691 -0.1217 -1.4960 -0.8540
  309MOL0     H40741   8.671   3.625   1.790  1.3953 -2.5834 -2.1157
  309MOL0     H40742   8.769   3.862   1.841 -0.3863 -2.4284 -0.5032
  309MOL0     H40743   8.768   3.987   1.713  0.0692 -0.4117  0.8598
  309MOL0     H40744   8.967   3.866   1.595  0.0669  1.1396  0.4028
  309MOL0     H40745   8.958   3.743   1.727 -0.6526 -0.8502  1.7614
  309MOL0     H40746   9.040   4.030   1.746 -0.2485 -0.5021  0.5849
  309MOL0     H40747   9.030   3.920   1.888  4.3514  2.2521  1.0488
  309MOL0     H40748   9.201   3.853   1.654  0.8038 -1.3738 -0.4189
  309MOL0     H40749   9.209   3.788   1.814  1.6629  0.5917 -0.7612
  309MOL0     H40750   9.343   3.980   1.563  0.7679  0.4305 -1.2661
  309MOL0     H40751   9.556   3.857   1.458 -0.0039 -0.1355 -0.2551
  309MOL0     H40752  10.096   3.778   1.553 -1.9041 -0.2213 -3.5220
  309MOL0     H40753  10.248   3.625   1.450 -0.4285  0.6064  0.6076
  309MOL0     H40754  10.132   3.184   1.332  0.4531  1.7993 -0.8523
  309MOL0     H40755  10.160   3.207   1.507 -1.2917  1.1319  0.1945
  309MOL0     H40756  10.402   3.202   1.318 -0.3671  2.9540  1.0236
  309MOL0     H40757  10.323   3.043   1.379 -0.4053  0.0471  1.5787
  309MOL0     H40758  10.375   3.137   1.618  1.8573  1.7550  2.2513
  309MOL0     H40759  10.462   3.267   1.545  5.4579 -1.0665 -0.6185
  309MOL0     H40760  10.466   2.958   1.533 -0.8708  0.8766  1.2609
  309MOL0     H40761  10.585   3.055   1.435 -1.0892  2.4095 -0.6338
  309MOL0     H40762  10.663   2.940   1.667 -1.2070  0.1032  2.3060
  309MOL0     H40763  10.565   3.074   1.739 -0.5119  2.5093 -0.2460
  309MOL0     H40764  10.715   3.229   1.596  2.2646  0.0369 -1.5869
  309MOL0     H40765  10.798   3.081   1.554 -1.2945 -0.0721 -1.1626
  309MOL0     H40766  10.761   3.172   1.842 -2.1243 -0.0986 -1.3765
  309MOL0     H40767  10.872   3.034   1.773  1.1027  1.4335 -1.2625
  309MOL0     H40768  10.980   3.245   1.851 -0.9243 -3.2059  0.2649
  309MOL0     H40769  10.862   3.341   1.765  0.4269 -0.0687 -3.2713
  309MOL0     H40770   9.979   3.302   1.536  0.4621  0.0956 -1.7276
  309MOL0     H40771   9.819   3.446   1.627  2.4801 -4.0697  2.0343
  309MOL0     H40772   9.731   3.842   1.829 -0.6771  0.0784  2.1090
  309MOL0     H40773   9.516   3.911   1.942 -0.5708  0.9631 -0.1245
  309MOL0     H40774   8.960   2.797   0.948  0.8652 -1.3395 -0.6113
  309MOL0     H40775   9.074   2.751   0.732  0.0847 -1.0022  0.5569
  309MOL0     H40776   9.399   2.751   0.352  0.1191 -1.7037 -1.0238
  309MOL0     H40777   9.528   2.862   0.165  2.7901  4.4140 -1.6520
  309MOL0     H40778   9.522   3.235  -0.078 -0.2778 -1.0993  0.2129
  309MOL0     H40779   9.419   3.283   0.056 -3.0582 -0.3230  0.4771
  309MOL0     H40780   9.225   3.166  -0.056  0.5529  0.5113  0.1068
  309MOL0     H40781   9.311   3.260  -0.171  2.1807  0.0433 -1.1317
  309MOL0     H40782   9.264   2.967  -0.168 -0.0291 -0.2906 -1.7008
  309MOL0     H40783   9.432   3.002  -0.202  0.0937 -1.6321 -3.5719
  309MOL0     H40784   9.350   3.142  -0.385  3.7540 -2.4355  2.8966
  309MOL0     H40785   9.251   2.991  -0.412  2.6666 -1.8803  0.0554
  309MOL0     H40786   8.922   3.219  -0.345 -0.5622 -3.6242 -2.4204
  309MOL0     H40787   9.264   3.203   0.174  1.6389  2.2482  1.1598
  309MOL0     H40788   9.152   3.107   0.359 -0.5275 -0.8866  0.0469
  310MOL0     O40789   4.403  10.313   3.105 -0.7612 -0.0731  0.2327
  310MOL0     C40790   4.509  10.339   3.043  0.4863 -0.3938 -0.9132
  310MOL0     O40791   4.613  10.406   3.094 -0.4470 -0.6276  0.3460
  310MOL0     C40792   4.581  10.526   3.160 -0.1417 -0.0235 -0.1041
  310MOL0     C40793   4.669  10.563   3.265 -0.3213  0.3457  0.6684
  310MOL0     C40794   4.652  10.674   3.349 -0.4542 -0.2991  0.3283
  310MOL0     C40795   4.545  10.762   3.316 -0.1699 -0.0420 -1.1209
  310MOL0     O40796   4.537  10.888   3.376 -0.3122 -0.5284 -0.2274
  310MOL0     C40797   4.408  10.944   3.390  0.5473 -0.2862  0.4516
  310MOL0     C40798   4.422  11.047   3.506  0.7460 -0.5011  0.2474
  310MOL0     C40799   4.562  11.118   3.507  0.2905 -0.4879 -0.3054
  310MOL0     C40800   4.560  11.236   3.604  0.3576  0.1310  0.3562
  310MOL0     C40801   4.697  11.295   3.636 -0.0607 -0.3005  0.7470
  310MOL0     C40802   4.769  11.231   3.750  0.1427  0.9228  0.2552
  310MOL0     C40803   4.887  11.327   3.799  0.2492  0.5581 -1.1016
  310MOL0     C40804   4.986  11.270   3.893 -1.0235  0.6685  0.1068
  310MOL0     N40805   4.923  11.216   4.015  0.1513 -0.0010  0.1131
  310MOL0     C40806   4.927  11.081   4.046  0.9699  1.0328 -1.1670
  310MOL0     C40807   4.885  11.075   4.174  0.9904 -0.0675 -0.1115
  310MOL0     C40808   4.877  10.968   4.279 -0.0872  0.2163  0.6635
  310MOL0     C40809   5.012  10.909   4.305  1.1810 -0.0018 -0.1321
  310MOL0     C40810   5.095  11.010   4.381 -0.2370 -0.3088  0.5313
  310MOL0     C40811   5.214  10.958   4.449 -0.0065  1.3705  0.1600
  310MOL0     O40812   5.289  11.067   4.504  0.0249  0.0425  0.0159
  310MOL0     C40813   5.411  11.035   4.559  0.2904  1.2677 -0.0517
  310MOL0     C40814   5.442  11.030   4.695  0.7369 -0.3633  0.0728
  310MOL0     C40815   5.557  10.993   4.757  0.3853  0.5834 -0.5418
  310MOL0     C40816   5.661  10.967   4.673 -0.6699 -0.5000 -0.3929
  310MOL0     C40817   5.802  10.956   4.724 -0.1740 -0.2603 -0.0824
  310MOL0     O40818   5.821  11.002   4.856 -0.4387  0.2876  0.3683
  310MOL0     C40819   5.946  11.047   4.887  1.4994 -0.7940 -0.8790
  310MOL0     C40820   5.985  11.012   5.017 -0.1571  0.4074 -0.2478
  310MOL0     C40821   6.107  11.068   5.063 -0.7123  0.4492 -0.4183
  310MOL0     C40822   6.190  11.144   4.971 -0.6353 -0.6727 -1.6609
  310MOL0     O40823   6.303  11.191   5.023 -0.6675 -0.5345 -0.6359
  310MOL0     C40824   6.402  11.082   5.030  0.1673 -0.5127 -0.3795
  310MOL0     C40825   6.458  11.061   5.174  0.1714 -0.3917 -0.7402
  310MOL0     C40826   6.499  11.192   5.249 -0.8738  0.2738  0.4944
  310MOL0     C40827   6.570  11.292   5.153  0.1868 -0.3984  0.3714
  310MOL0     C40828   6.594  11.420   5.224  0.2840  0.1048 -0.7526
  310MOL0     C40829   6.667  11.513   5.114 -0.3556  0.8158  0.1350
  310MOL0     C40830   6.672  11.667   5.149 -0.1671  0.0887 -0.3117
  310MOL0     C40831   6.555  11.752   5.131  0.2110 -0.8389  0.8413
  310MOL0    Cl40832   6.569  11.909   5.233  0.1624 -0.4963  0.3392
  310MOL0     C40833   6.144  11.193   4.853 -0.0720 -0.3937  0.3316
  310MOL0     C40834   6.028  11.138   4.806  0.7090  0.4614  0.5319
  310MOL0     O40835   5.885  10.921   4.643 -0.4295  0.1511  0.2322
  310MOL0     C40836   5.636  10.962   4.536 -0.2886  1.7213  1.1313
  310MOL0     C40837   5.515  10.994   4.476 -0.4217  0.5263  0.5464
  310MOL0     N40838   4.848  11.196   4.209  0.2037 -0.7336 -0.1840
  310MOL0     N40839   4.882  11.277   4.119 -0.3812  0.2495  0.4103
  310MOL0     C40840   4.446  10.726   3.222 -0.3834 -0.1085 -0.5069
  310MOL0     C40841   4.470  10.609   3.143 -0.3687 -0.6731  0.3384
  310MOL0     C40842   4.537  10.268   2.914  0.2465  0.3459 -0.4758
  310MOL0     C40843   4.443  10.187   2.847 -0.9620  0.2796 -0.6707
  310MOL0     C40844   4.492  10.115   2.728 -0.6295 -1.4432 -0.3228
  310MOL0     C40845   4.606  10.147   2.667 -1.1504 -0.1917  0.3432
  310MOL0     O40846   4.631  10.112   2.535  0.0454 -0.2981  0.2685
  310MOL0     C40847   4.658  10.215   2.437 -0.0085  0.0795 -0.3837
  310MOL0     C40848   4.538  10.266   2.354 -0.3288  1.1185  0.8108
  310MOL0     C40849   4.445  10.340   2.446 -0.1921  0.2388  0.0736
  310MOL0     C40850   4.337  10.406   2.357 -1.0258  0.9247  0.2657
  310MOL0     C40851   4.292  10.532   2.417 -0.0610 -0.5092 -0.3643
  310MOL0     C40852   4.241  10.635   2.460 -0.1550 -1.4875  0.5759
  310MOL0     C40853   4.699  10.232   2.739  1.0069  0.4041  0.0592
  310MOL0     C40854   4.658  10.302   2.854 -0.7320  0.7296  0.7754
  310MOL0     H40855   4.753  10.503   3.297 -0.4879  0.4013  1.2165
  310MOL0     H40856   4.714  10.693   3.436  1.4183 -0.1802 -0.9591
  310MOL0     H40857   4.332  10.867   3.403  2.4404 -2.5190 -0.8673
  310MOL0     H40858   4.373  11.000   3.303  0.6592  0.9311  1.1687
  310MOL0     H40859   4.413  10.997   3.603  2.6594 -0.2148  0.6051
  310MOL0     H40860   4.340  11.120   3.498  0.3636 -0.9414  0.0960
  310MOL0     H40861   4.593  11.154   3.409  1.5830 -1.3334 -0.2395
  310MOL0     H40862   4.629  11.033   3.523 -0.0927 -1.1199 -1.8447
  310MOL0     H40863   4.499  11.313   3.556 -0.5990 -0.8944 -0.1007
  310MOL0     H40864   4.512  11.207   3.699 -2.0861  0.7322 -0.6247
  310MOL0     H40865   4.672  11.397   3.665 -1.9857 -0.5835  0.1819
  310MOL0     H40866   4.745  11.295   3.538 -2.4916 -1.7630 -0.5234
  310MOL0     H40867   4.788  11.129   3.716 -1.0582  1.4526 -2.3035
  310MOL0     H40868   4.700  11.219   3.833  1.2305 -0.0251  1.0539
  310MOL0     H40869   4.955  11.351   3.717  0.3253  0.8296 -0.9606
  310MOL0     H40870   4.841  11.411   3.851 -0.7467 -0.9001  0.4883
  310MOL0     H40871   5.070  11.335   3.918 -0.5447  0.5939 -1.2315
  310MOL0     H40872   5.027  11.184   3.839 -4.4039 -0.4696 -0.9621
  310MOL0     H40873   4.955  10.996   3.985  2.2272 -0.8306  1.7951
  310MOL0     H40874   4.817  10.884   4.243 -0.7297  0.1650  1.8073
  310MOL0     H40875   4.828  10.992   4.374 -2.7339 -1.7406 -0.0701
  310MOL0     H40876   5.054  10.869   4.213 -3.2679 -4.2084 -0.7663
  310MOL0     H40877   5.014  10.815   4.362  2.1679  1.2480  2.0189
  310MOL0     H40878   5.127  11.088   4.311 -0.9962 -1.3135 -0.9805
  310MOL0     H40879   5.036  11.077   4.445 -1.0077 -1.2145  0.7942
  310MOL0     H40880   5.272  10.896   4.381 -0.2098  0.5112  0.7534
  310MOL0     H40881   5.167  10.907   4.534 -1.0429  5.8515  2.6090
  310MOL0     H40882   5.354  11.063   4.749 -0.0961 -1.1853 -0.7468
  310MOL0     H40883   5.569  10.999   4.864 -5.7780  0.3051  0.5596
  310MOL0     H40884   5.921  10.953   5.081 -0.9667  2.9911  1.4711
  310MOL0     H40885   6.157  11.040   5.155  0.2764 -2.8881 -1.8291
  310MOL0     H40886   6.486  11.114   4.966  1.9634  0.5396  2.3006
  310MOL0     H40887   6.377  10.987   4.983 -1.6000  0.0327 -0.5957
  310MOL0     H40888   6.540  10.988   5.177 -0.0029 -0.6598  3.2036
  310MOL0     H40889   6.378  11.021   5.237 -1.5751  1.5829 -1.5746
  310MOL0     H40890   6.561  11.189   5.339  0.1066  2.2335 -0.0582
  310MOL0     H40891   6.408  11.246   5.274 -0.6225  0.5532  0.7985
  310MOL0     H40892   6.669  11.252   5.131  1.6477  1.9433  2.2470
  310MOL0     H40893   6.516  11.309   5.059  2.5499 -1.0343 -1.1893
  310MOL0     H40894   6.643  11.408   5.321 -1.6884  2.8027  0.7075
  310MOL0     H40895   6.491  11.453   5.240  1.1645  1.2365  4.0429
  310MOL0     H40896   6.605  11.509   5.023 -2.7918 -2.0269  1.7149
  310MOL0     H40897   6.761  11.461   5.091 -0.6046  0.0263  0.8303
  310MOL0     H40898   6.697  11.681   5.254  0.5513  3.0279 -0.7955
  310MOL0     H40899   6.753  11.711   5.089 -0.7193  2.1579  0.3834
  310MOL0     H40900   6.481  11.678   5.165  0.9284 -1.4996  0.9845
  310MOL0     H40901   6.537  11.778   5.027  2.9934 -0.4493  0.3858
  310MOL0     H40902   6.196  11.262   4.788 -1.5850 -0.0308 -0.5525
  310MOL0     H40903   6.000  11.166   4.705  0.5861  0.6675  0.6226
  310MOL0     H40904   5.723  10.953   4.472 -0.3216  2.5837  0.9543
  310MOL0     H40905   5.520  11.005   4.369  2.8975  1.9570  0.7168
  310MOL0     H40906   4.355  10.781   3.202 -0.9013 -0.6803  0.2154
  310MOL0     H40907   4.399  10.584   3.065  1.3541  0.3673 -1.6469
  310MOL0     H40908   4.344  10.156   2.879 -0.5455 -2.1849 -1.5203
  310MOL0     H40909   4.437  10.050   2.660 -2.6388 -0.7691  0.5888
  310MOL0     H40910   4.727  10.162   2.372 -2.0937 -4.9474  0.9783
  310MOL0     H40911   4.721  10.301   2.463  1.4017 -0.1729 -2.6768
  310MOL0     H40912   4.558  10.324   2.264 -1.6955 -0.6321 -0.7223
  310MOL0     H40913   4.503  10.172   2.308 -0.5651  1.2667  0.6859
  310MOL0     H40914   4.489  10.407   2.521 -0.7731  0.0548  0.5873
  310MOL0     H40915   4.392  10.261   2.501  0.2589  0.0170  0.1995
  310MOL0     H40916   4.373  10.427   2.256 -0.7065  2.2492  0.6347
  310MOL0     H40917   4.249  10.342   2.349  1.5308 -2.8695 -0.1033
  310MOL0     H40918   4.185  10.715   2.503  1.3142  1.1082 -2.0352
  310MOL0     H40919   4.794  10.271   2.703  0.1542  0.5011 -2.2685
  310MOL0     H40920   4.726  10.380   2.887  2.9341 -2.1553  0.7618
  311MOL0     O40921   9.412   9.115   1.825 -0.8148  0.4619  0.2013
  311MOL0     C40922   9.383   9.072   1.931  0.2220 -0.4433 -0.8611
  311MOL0     O40923   9.407   9.144   2.044  0.3041  0.5897 -0.8568
  311MOL0     C40924   9.453   9.274   2.023 -0.2011  0.3419 -0.4460
  311MOL0     C40925   9.573   9.301   2.090  0.1660  0.9300 -0.0052
  311MOL0     C40926   9.641   9.417   2.065 -0.6067  0.1514  0.5172
  311MOL0     C40927   9.589   9.516   1.973  0.5555 -0.7758  0.1582
  311MOL0     O40928   9.659   9.626   1.931  0.5211  0.2834 -0.4189
  311MOL0     C40929   9.803   9.619   1.917 -0.5183 -0.3825 -0.4183
  311MOL0     C40930   9.862   9.754   1.949 -0.9765  0.8511  0.0779
  311MOL0     C40931  10.014   9.766   1.917  0.1817 -0.1905  0.0119
  311MOL0     C40932  10.088   9.839   2.018  0.8414  0.2247  0.2202
  311MOL0     C40933  10.242   9.867   1.984  1.1352  0.4349 -0.2959
  311MOL0     C40934  10.326   9.875   2.114 -0.5903 -0.6383 -0.1790
  311MOL0     C40935  10.490   9.889   2.094  0.1038 -0.9686  0.9021
  311MOL0     C40936  10.517  10.031   2.053  0.4007  0.1355 -1.0515
  311MOL0     N40937  10.658  10.060   2.048 -0.0350  0.3690 -0.2061
  311MOL0     C40938  10.768   9.996   1.991  0.5046 -0.8570  0.2638
  311MOL0     C40939  10.875  10.081   1.991  0.3750  0.3126  0.5518
  311MOL0     C40940  11.015  10.059   1.937 -0.2740 -0.0140  0.0443
  311MOL0     C40941  11.026  10.119   1.794  0.3792  0.4406  0.2547
  311MOL0     C40942  11.135  10.069   1.698 -0.5774 -0.2804 -0.3289
  311MOL0     C40943  11.269  10.068   1.770  1.0690  0.1051 -0.4879
  311MOL0     O40944  11.383  10.071   1.685 -1.1669 -0.4064 -1.4658
  311MOL0     C40945  11.487  10.004   1.737  0.2370  0.4545 -0.1824
  311MOL0     C40946  11.595  10.061   1.815  0.6753 -0.8919 -0.0589
  311MOL0     C40947  11.689   9.986   1.889 -0.0330  0.1277 -1.2945
  311MOL0     C40948  11.703   9.855   1.864  0.0780  0.8172  0.6949
  311MOL0     C40949  11.818   9.764   1.918  0.1496  0.3860 -0.2651
  311MOL0     O40950  11.915   9.826   1.981 -1.3890  1.1541 -0.1336
  311MOL0     C40951  12.028   9.765   2.037  1.3244  0.4909  0.5602
  311MOL0     C40952  12.057   9.627   2.038 -0.3221  0.3773 -0.1360
  311MOL0     C40953  12.182   9.590   2.085 -0.2137 -0.0172 -0.2684
  311MOL0     C40954  12.261   9.674   2.165  0.5476 -1.0300  0.5740
  311MOL0     O40955  12.378   9.625   2.226  0.0007  0.1165  0.2417
  311MOL0     C40956  12.428   9.493   2.188 -0.3719  0.4507  0.7638
  311MOL0     C40957  12.560   9.447   2.269  0.3523 -0.6232 -1.0827
  311MOL0     C40958  12.672   9.550   2.247 -0.9509 -0.3664  0.7780
  311MOL0     C40959  12.821   9.499   2.275  0.2271 -0.7581 -0.9120
  311MOL0     C40960  12.910   9.620   2.304  0.2215 -0.2646  0.4077
  311MOL0     C40961  12.906   9.696   2.427  0.1371 -0.3177 -0.5617
  311MOL0     C40962  12.841   9.838   2.401 -0.0531 -0.3175 -1.2487
  311MOL0     C40963  12.951   9.930   2.346 -0.3882  0.2964 -0.2376
  311MOL0    Cl40964  13.098   9.971   2.444  0.2266  0.2156 -0.0402
  311MOL0     C40965  12.225   9.809   2.170  1.2368  0.9381 -0.6949
  311MOL0     C40966  12.111   9.861   2.107 -0.8232  0.5064  0.7704
  311MOL0     O40967  11.820   9.644   1.886  0.5485  0.0998 -0.6258
  311MOL0     C40968  11.598   9.794   1.796  0.1412 -0.0749  0.4154
  311MOL0     C40969  11.495   9.862   1.729 -0.3877  0.6500  0.3556
  311MOL0     N40970  10.824  10.203   2.042 -0.3132  0.9022  0.1075
  311MOL0     N40971  10.707  10.181   2.087  0.7778 -0.2773 -0.1059
  311MOL0     C40972   9.466   9.491   1.911 -0.0521  0.3737  0.4973
  311MOL0     C40973   9.402   9.366   1.937  0.5417  0.5075 -0.5994
  311MOL0     C40974   9.306   8.957   1.937 -0.6355  1.0782  0.8990
  311MOL0     C40975   9.288   8.892   2.058 -0.0826 -0.1950  0.4646
  311MOL0     C40976   9.224   8.772   2.065  0.5023  0.0241 -0.7374
  311MOL0     C40977   9.144   8.738   1.966 -0.5181 -0.7403  0.0541
  311MOL0     O40978   9.048   8.645   1.975 -0.0397  0.3740  0.0283
  311MOL0     C40979   8.923   8.699   2.025 -0.1543  0.3002  0.5506
  311MOL0     C40980   8.815   8.710   1.919 -0.1550  0.0329  0.6591
  311MOL0     C40981   8.724   8.828   1.940  1.7999  0.5565  0.4517
  311MOL0     C40982   8.771   8.954   1.863 -0.6555  0.0384 -0.6105
  311MOL0     C40983   8.883   9.027   1.928  0.5499  0.1722 -0.0012
  311MOL0     C40984   8.964   9.094   1.986 -0.8135 -0.2670  0.3474
  311MOL0     C40985   9.160   8.797   1.850 -0.1603  0.8515 -0.2146
  311MOL0     C40986   9.246   8.904   1.822  0.5376  0.2924 -0.3215
  311MOL0     H40987   9.604   9.218   2.153  1.1362 -0.6115 -2.3839
  311MOL0     H40988   9.740   9.429   2.107  0.6158 -1.6880 -1.6006
  311MOL0     H40989   9.837   9.580   1.821  0.5549  0.6808 -0.5019
  311MOL0     H40990   9.838   9.551   1.996 -2.5722 -3.6357 -2.0842
  311MOL0     H40991   9.854   9.783   2.054  1.5958  1.7756  0.1020
  311MOL0     H40992   9.815   9.836   1.893  1.1242  1.2279 -1.2841
  311MOL0     H40993  10.025   9.817   1.820 -3.2440  2.0851  0.6603
  311MOL0     H40994  10.065   9.669   1.906 -2.7661 -2.5378  4.0734
  311MOL0     H40995  10.045   9.939   2.034  6.5876  2.8778  1.9379
  311MOL0     H40996  10.074   9.781   2.110  1.1146 -0.3620 -0.1061
  311MOL0     H40997  10.255   9.963   1.935  0.2603  1.5817  1.5799
  311MOL0     H40998  10.275   9.783   1.922  2.4478  1.4608 -1.0281
  311MOL0     H40999  10.321   9.778   2.165  1.6558 -0.7073 -0.0004
  311MOL0     H41000  10.280   9.950   2.179 -1.2498 -0.4242 -0.8736
  311MOL0     H41001  10.540   9.866   2.188  3.1293 -1.2540 -0.6634
  311MOL0     H41002  10.530   9.824   2.016  2.0036  1.8603 -0.6468
  311MOL0     H41003  10.463  10.096   2.123 -3.6316 -1.4911 -2.3758
  311MOL0     H41004  10.492  10.061   1.950 -1.1246 -2.2982 -1.4688
  311MOL0     H41005  10.762   9.892   1.960 -0.8630 -0.5117 -0.7080
  311MOL0     H41006  11.031   9.951   1.926 -1.0853 -0.0196 -1.1981
  311MOL0     H41007  11.088  10.107   2.003  0.4272 -0.5090 -0.3559
  311MOL0     H41008  11.045  10.226   1.801  2.1330  0.1195  0.7426
  311MOL0     H41009  10.929  10.121   1.744  0.0859  2.8332  0.8037
  311MOL0     H41010  11.120   9.968   1.659 -1.5762 -0.2227 -0.1129
  311MOL0     H41011  11.133  10.135   1.612  1.1610 -0.8085 -0.8266
  311MOL0     H41012  11.272   9.991   1.847 -1.5023 -1.3476 -1.7100
  311MOL0     H41013  11.261  10.161   1.826 -1.2428 -1.0294  1.2446
  311MOL0     H41014  11.597  10.166   1.841  2.1624 -0.5045 -1.5382
  311MOL0     H41015  11.749  10.051   1.952 -0.6799  2.9257 -3.3856
  311MOL0     H41016  12.002   9.552   1.982 -1.8305  2.2424 -1.3081
  311MOL0     H41017  12.204   9.484   2.081 -1.7772 -0.4432  1.2490
  311MOL0     H41018  12.453   9.503   2.082 -1.0708 -0.5792  0.4850
  311MOL0     H41019  12.351   9.416   2.201  0.0147  0.4198  3.6981
  311MOL0     H41020  12.594   9.356   2.219  2.5808 -0.6392  0.2960
  311MOL0     H41021  12.543   9.433   2.376 -1.0233 -2.8581 -1.5260
  311MOL0     H41022  12.641   9.637   2.307  0.0802  0.3084  0.3637
  311MOL0     H41023  12.661   9.573   2.141  0.5619 -4.4599 -0.4357
  311MOL0     H41024  12.826   9.422   2.353  2.5148  1.9379  1.8557
  311MOL0     H41025  12.870   9.448   2.191  3.5002 -0.2274  0.5031
  311MOL0     H41026  12.926   9.682   2.215  3.2556 -1.3205  0.0944
  311MOL0     H41027  13.001   9.562   2.318  1.1000  0.4671 -1.7810
  311MOL0     H41028  13.006   9.715   2.466  0.1668 -0.7146 -0.4383
  311MOL0     H41029  12.847   9.632   2.493 -0.3968  0.3934 -0.3397
  311MOL0     H41030  12.754   9.840   2.334 -1.1759  3.9506 -0.0064
  311MOL0     H41031  12.807   9.886   2.494  2.6433 -1.3783  0.4081
  311MOL0     H41032  12.899  10.025   2.337 -1.4216  0.6515  5.8073
  311MOL0     H41033  12.977   9.887   2.248  1.2581 -1.0193  0.7212
  311MOL0     H41034  12.270   9.875   2.244 -1.0825  1.8422 -0.0057
  311MOL0     H41035  12.075   9.961   2.129 -2.6831 -0.3751  1.9711
  311MOL0     H41036  11.605   9.685   1.797  0.3667 -0.0732  2.3758
  311MOL0     H41037  11.423   9.794   1.684  1.6620 -1.6708  0.3862
  311MOL0     H41038   9.438   9.572   1.844 -0.2102  0.7401  0.9993
  311MOL0     H41039   9.308   9.335   1.892 -0.4378 -1.2811  2.3562
  311MOL0     H41040   9.332   8.928   2.150 -0.4383  3.5589 -0.6658
  311MOL0     H41041   9.216   8.731   2.166 -0.1213  0.3557 -0.6452
  311MOL0     H41042   8.947   8.801   2.058  1.4904  0.4699 -0.9994
  311MOL0     H41043   8.878   8.639   2.105  0.8443 -1.5863 -0.2461
  311MOL0     H41044   8.866   8.732   1.825  0.6592  0.8738  1.2811
  311MOL0     H41045   8.766   8.612   1.922 -2.9670  1.2993 -0.2608
  311MOL0     H41046   8.733   8.859   2.045 -3.9066  4.1353  0.3071
  311MOL0     H41047   8.621   8.799   1.917  1.7325  1.0720  0.0879
  311MOL0     H41048   8.797   8.920   1.762  1.2904 -2.0528  0.5174
  311MOL0     H41049   8.685   9.021   1.859 -1.3456  0.1652  6.1325
  311MOL0     H41050   9.045   9.148   2.030  0.7321 -2.8665  0.8773
  311MOL0     H41051   9.090   8.770   1.772  0.4531  0.7342 -0.7244
  311MOL0     H41052   9.259   8.940   1.720  0.5546  2.3421  0.3473
  312MOL0     O41053   1.209   2.625   1.683  0.2310 -0.1996  0.1163
  312MOL0     C41054   1.275   2.525   1.660  0.2141  0.3121 -1.0436
  312MOL0     O41055   1.237   2.402   1.599 -0.0744 -0.3011  0.2733
  312MOL0     C41056   1.111   2.378   1.554 -0.7461  0.4723  0.5454
  312MOL0     C41057   1.000   2.407   1.618  1.1123  0.7152 -0.1161
  312MOL0     C41058   0.881   2.376   1.558 -0.3538  1.4192 -0.4722
  312MOL0     C41059   0.870   2.295   1.442  0.4354 -0.8555  0.1535
  312MOL0     O41060   0.760   2.234   1.400 -0.3193 -0.6309 -0.4717
  312MOL0     C41061   0.628   2.268   1.451 -0.9679  0.3095  0.8734
  312MOL0     C41062   0.579   2.177   1.565  0.3012  0.5516 -1.1377
  312MOL0     C41063   0.422   2.182   1.603  0.5210  0.8533  0.0090
  312MOL0     C41064   0.382   2.312   1.684  1.0734 -0.8556  0.7366
  312MOL0     C41065   0.226   2.330   1.704  0.2046  0.7542  0.7687
  312MOL0     C41066   0.196   2.450   1.789  0.6777  0.0822 -0.6897
  312MOL0     C41067   0.050   2.495   1.793  0.2255  0.4250 -0.1020
  312MOL0     C41068  -0.033   2.387   1.865 -0.5809 -1.1074  0.7115
  312MOL0     N41069  -0.068   2.262   1.794 -0.7891 -0.3454  0.0757
  312MOL0     C41070  -0.133   2.243   1.672  1.0198 -0.2090  0.2131
  312MOL0     C41071  -0.162   2.113   1.664 -0.0599 -0.0295 -0.0809
  312MOL0     C41072  -0.230   2.031   1.565  0.3032  0.1868 -0.0160
  312MOL0     C41073  -0.143   1.917   1.510  0.3288 -0.2694  0.9861
  312MOL0     C41074  -0.227   1.821   1.423 -0.1495  0.0115 -0.0533
  312MOL0     C41075  -0.214   1.671   1.461  0.8784  0.4437 -0.6080
  312MOL0     O41076  -0.249   1.655   1.599 -0.7437  0.2869  0.0100
  312MOL0     C41077  -0.223   1.531   1.656 -0.8966 -0.4044  0.8543
  312MOL0     C41078  -0.151   1.426   1.601  1.7374  0.6017  0.2843
  312MOL0     C41079  -0.129   1.309   1.673 -1.3628  0.3065  0.1953
  312MOL0     C41080  -0.174   1.290   1.808  0.5360 -0.2099  0.3162
  312MOL0     C41081  -0.164   1.170   1.881  0.3526  0.4090 -0.3669
  312MOL0     O41082  -0.062   1.085   1.866 -0.8376  0.5722  0.2419
  312MOL0     C41083  -0.065   0.968   1.940 -0.5051 -0.7905 -0.2186
  312MOL0     C41084  -0.101   0.844   1.884  0.2491  0.2647  1.1935
  312MOL0     C41085  -0.120   0.730   1.962 -0.1655  0.0459  0.7672
  312MOL0     C41086  -0.081   0.736   2.097 -0.1005  0.4304  0.3899
  312MOL0     O41087  -0.061   0.625   2.174 -0.5663 -0.3903  0.1690
  312MOL0     C41088  -0.141   0.510   2.169  0.4354 -0.7999  1.1442
  312MOL0     C41089  -0.251   0.532   2.278 -0.1017 -0.5589  0.1744
  312MOL0     C41090  -0.315   0.390   2.300  0.7959  0.2860 -0.0923
  312MOL0     C41091  -0.235   0.324   2.418  0.5996  0.0319  1.0198
  312MOL0     C41092  -0.283   0.353   2.575  0.6712 -0.1127  0.4215
  312MOL0     C41093  -0.419   0.297   2.621  0.3899 -0.0317  1.1255
  312MOL0     C41094  -0.420   0.141   2.622  0.3974 -0.7368 -0.3305
  312MOL0     C41095  -0.561   0.096   2.677 -0.5760 -0.5703 -0.4129
  312MOL0    Cl41096  -0.691   0.070   2.562 -0.1689 -0.0776  0.4453
  312MOL0     C41097  -0.039   0.857   2.155 -0.4213 -0.4593 -0.3215
  312MOL0     C41098  -0.041   0.979   2.084 -0.9495 -0.0531  0.3113
  312MOL0     O41099  -0.266   1.142   1.946 -0.2360 -0.1508 -0.8701
  312MOL0     C41100  -0.245   1.404   1.862  0.0429  0.5139  0.8651
  312MOL0     C41101  -0.266   1.511   1.776  0.6598 -0.6247 -1.1371
  312MOL0     N41102  -0.119   2.055   1.784 -0.4878 -0.1242  1.0903
  312MOL0     N41103  -0.067   2.147   1.859 -0.9380  0.0883  0.5030
  312MOL0     C41104   0.989   2.269   1.377 -0.3055  1.2444  1.6083
  312MOL0     C41105   1.113   2.319   1.423 -0.1291  0.2598  1.1662
  312MOL0     C41106   1.415   2.540   1.702  0.9921  1.4777 -0.0279
  312MOL0     C41107   1.448   2.623   1.808 -1.2448 -0.8179  0.3426
  312MOL0     C41108   1.576   2.638   1.859 -0.3932  0.7648 -0.2425
  312MOL0     C41109   1.679   2.552   1.817  0.3635 -0.1384  0.5037
  312MOL0     O41110   1.810   2.573   1.845  0.4439 -0.2895 -0.1205
  312MOL0     C41111   1.871   2.496   1.948 -0.1221  0.1344 -0.2625
  312MOL0     C41112   2.024   2.518   1.965  0.4479  0.6232  0.5405
  312MOL0     C41113   2.114   2.431   2.046  0.7384  0.3159  0.0540
  312MOL0     C41114   2.082   2.400   2.193 -0.2538 -0.0978 -0.8196
  312MOL0     C41115   2.114   2.520   2.277  0.5032  0.8604 -1.1163
  312MOL0     C41116   2.124   2.635   2.329 -0.3821 -0.9632  0.4721
  312MOL0     C41117   1.647   2.456   1.713 -0.0012 -0.4723 -1.1207
  312MOL0     C41118   1.515   2.453   1.656 -0.8876 -0.7439  0.6231
  312MOL0     H41119   0.994   2.446   1.719 -2.9902  2.2584 -0.7535
  312MOL0     H41120   0.801   2.399   1.628 -0.7723 -0.8696 -0.0969
  312MOL0     H41121   0.558   2.245   1.370 -1.2246  0.8280  0.9453
  312MOL0     H41122   0.619   2.377   1.450 -4.4816  0.1322  0.2277
  312MOL0     H41123   0.644   2.200   1.651  1.9931  1.3583 -2.5564
  312MOL0     H41124   0.599   2.080   1.520  1.5120 -1.2925  2.8520
  312MOL0     H41125   0.411   2.089   1.659  2.5246  0.6553  0.1428
  312MOL0     H41126   0.368   2.164   1.510  0.2585 -0.1770  0.3481
  312MOL0     H41127   0.449   2.330   1.769  1.4537  3.4838 -0.2055
  312MOL0     H41128   0.417   2.402   1.632 -0.5659 -0.6576 -0.0890
  312MOL0     H41129   0.186   2.237   1.747  0.3924 -1.4389 -3.2425
  312MOL0     H41130   0.186   2.326   1.602  1.3574 -1.0193  0.3258
  312MOL0     H41131   0.257   2.537   1.763 -0.3213  1.3486  0.9924
  312MOL0     H41132   0.234   2.425   1.889  2.2549 -1.4569 -1.6155
  312MOL0     H41133   0.044   2.585   1.855  1.8861 -0.0032  0.7503
  312MOL0     H41134   0.014   2.529   1.696  3.3976  2.0244 -0.8776
  312MOL0     H41135  -0.128   2.428   1.900 -2.4451 -4.1964 -0.2601
  312MOL0     H41136   0.024   2.355   1.952  1.6811  3.2051  1.0597
  312MOL0     H41137  -0.156   2.306   1.586  1.3557 -2.7427 -1.8472
  312MOL0     H41138  -0.268   2.092   1.482 -1.5739 -1.3094 -0.3183
  312MOL0     H41139  -0.311   1.979   1.616 -0.2973 -1.9877 -2.8956
  312MOL0     H41140  -0.091   1.865   1.591 -1.1968 -1.8189  1.0406
  312MOL0     H41141  -0.068   1.966   1.447 -2.5566  1.3001 -1.4682
  312MOL0     H41142  -0.335   1.838   1.435 -1.0090 -1.5098 -4.0742
  312MOL0     H41143  -0.208   1.837   1.317  0.4854 -0.4609 -0.0155
  312MOL0     H41144  -0.108   1.647   1.451  0.1377 -3.5677 -0.3037
  312MOL0     H41145  -0.257   1.602   1.388  2.0945 -1.6720  0.5886
  312MOL0     H41146  -0.109   1.430   1.501  3.2603  0.0592  0.8749
  312MOL0     H41147  -0.062   1.236   1.628  0.0097  2.9924 -2.4462
  312MOL0     H41148  -0.108   0.842   1.776 -0.3680  1.6112  1.1895
  312MOL0     H41149  -0.139   0.635   1.914  0.6636  0.7658 -1.0808
  312MOL0     H41150  -0.080   0.420   2.181 -1.4584 -2.3764 -0.3428
  312MOL0     H41151  -0.188   0.490   2.073  0.5902  0.3065  0.8234
  312MOL0     H41152  -0.333   0.591   2.237  0.4713  0.3221  0.2800
  312MOL0     H41153  -0.220   0.580   2.371  1.2335  0.0046 -0.5278
  312MOL0     H41154  -0.301   0.327   2.212  0.0024  2.6241 -2.0196
  312MOL0     H41155  -0.421   0.400   2.322 -0.0539 -1.0844 -3.0597
  312MOL0     H41156  -0.246   0.216   2.401 -3.0497  0.6076 -1.3766
  312MOL0     H41157  -0.130   0.337   2.389  1.1896  2.8964  3.8762
  312MOL0     H41158  -0.284   0.462   2.589  0.7908  0.0842 -0.9557
  312MOL0     H41159  -0.203   0.309   2.635 -0.0198 -1.5123  0.3368
  312MOL0     H41160  -0.498   0.332   2.554  2.6443  1.9641 -0.7152
  312MOL0     H41161  -0.433   0.340   2.720  0.3625  6.5606 -1.2709
  312MOL0     H41162  -0.407   0.104   2.520  3.3273 -1.7078  0.2926
  312MOL0     H41163  -0.339   0.098   2.682 -0.3836 -3.7090 -1.2406
  312MOL0     H41164  -0.582   0.174   2.750  1.8106 -1.3457  1.2053
  312MOL0     H41165  -0.540   0.007   2.736  4.0944  0.0299 -0.8499
  312MOL0     H41166  -0.004   0.865   2.258  2.2185  2.5385 -1.3091
  312MOL0     H41167  -0.032   1.076   2.133 -1.4291 -0.9959  2.3920
  312MOL0     H41168  -0.295   1.402   1.959 -1.5407  0.3600  0.0862
  312MOL0     H41169  -0.304   1.609   1.804  2.1497  0.4312 -2.5705
  312MOL0     H41170   0.995   2.220   1.280 -1.4069  0.9474  1.6690
  312MOL0     H41171   1.208   2.303   1.373 -0.0375 -1.8392  1.9305
  312MOL0     H41172   1.383   2.700   1.845  0.0831  2.2471 -3.0641
  312MOL0     H41173   1.607   2.724   1.918 -0.9896  2.1431 -1.8670
  312MOL0     H41174   1.842   2.392   1.930 -0.4010 -0.1095  1.3996
  312MOL0     H41175   1.824   2.526   2.042  3.1061 -2.2391  2.3252
  312MOL0     H41176   2.065   2.501   1.865 -0.0413 -0.2697  0.4807
  312MOL0     H41177   2.036   2.621   1.997 -1.1744  1.7514 -2.1296
  312MOL0     H41178   2.214   2.475   2.043 -0.1772  2.4992 -0.2658
  312MOL0     H41179   2.122   2.331   2.002  0.1227  1.2155 -2.2440
  312MOL0     H41180   1.979   2.377   2.222  0.4103 -0.8657  1.1320
  312MOL0     H41181   2.146   2.319   2.229 -2.8393 -1.0615  2.1118
  312MOL0     H41182   2.137   2.733   2.370 -1.6519  0.3291 -2.0089
  312MOL0     H41183   1.731   2.395   1.682  1.4362  0.7511  0.2102
  312MOL0     H41184   1.505   2.396   1.565  1.7907 -0.9345  0.3713
  313MOL0     O41185   5.023   4.167   5.142 -0.0264 -1.0461 -0.3235
  313MOL0     C41186   5.119   4.212   5.086  0.1945 -0.8947  0.7354
  313MOL0     O41187   5.134   4.343   5.036  1.1388  0.2789 -0.2223
  313MOL0     C41188   5.024   4.429   5.068  0.1539  0.0127 -0.1768
  313MOL0     C41189   4.888   4.411   5.020 -0.3115  0.3291 -0.2588
  313MOL0     C41190   4.789   4.514   5.039  0.0806 -0.3908 -0.6284
  313MOL0     C41191   4.834   4.636   5.102 -0.5401 -0.1920 -0.1212
  313MOL0     O41192   4.734   4.725   5.112  0.3214 -0.0690  0.3928
  313MOL0     C41193   4.759   4.863   5.053 -0.9992  0.4883  0.7557
  313MOL0     C41194   4.793   4.885   4.913  0.0593 -0.6135 -0.6032
  313MOL0     C41195   4.709   4.798   4.813 -0.5132 -0.8499  0.0968
  313MOL0     C41196   4.559   4.792   4.838  0.7238 -0.3687 -0.0694
  313MOL0     C41197   4.488   4.754   4.715  0.2440  0.7798  0.0869
  313MOL0     C41198   4.340   4.732   4.746  0.5630  0.0513 -0.0254
  313MOL0     C41199   4.256   4.668   4.639 -0.1644  0.3178 -0.1031
  313MOL0     C41200   4.300   4.519   4.623 -0.1159  0.4632  0.2640
  313MOL0     N41201   4.200   4.411   4.579 -0.2009 -0.2082 -0.8995
  313MOL0     C41202   4.182   4.281   4.627 -0.0658  0.5234  0.5404
  313MOL0     C41203   4.092   4.215   4.555 -0.4843  0.4349  0.3624
  313MOL0     C41204   4.061   4.064   4.559  0.9089 -0.2682 -0.2481
  313MOL0     C41205   3.916   4.034   4.613  0.0724  0.1613  0.8181
  313MOL0     C41206   3.894   4.096   4.757 -0.8301  0.7899 -0.0143
  313MOL0     C41207   3.977   4.021   4.866  0.5340 -0.5816 -0.4179
  313MOL0     O41208   4.113   4.063   4.866 -0.7599  0.0435 -1.0874
  313MOL0     C41209   4.202   3.998   4.949  0.3907  0.0719  0.0371
  313MOL0     C41210   4.340   4.039   4.939 -0.3534 -0.1141 -0.3723
  313MOL0     C41211   4.442   3.981   5.017 -0.5714  0.5814  0.4846
  313MOL0     C41212   4.402   3.882   5.116 -0.1820 -0.2844 -0.6901
  313MOL0     C41213   4.508   3.830   5.204  0.0345 -0.7131 -0.1007
  313MOL0     O41214   4.642   3.856   5.169  0.6058  0.3567 -0.4074
  313MOL0     C41215   4.725   3.840   5.273  0.0441 -0.2303 -0.1422
  313MOL0     C41216   4.766   3.944   5.360 -0.1896 -0.2043  0.0795
  313MOL0     C41217   4.853   3.926   5.468  0.3881  0.5647  0.8414
  313MOL0     C41218   4.903   3.800   5.504 -0.2664 -0.1154 -0.1989
  313MOL0     O41219   4.999   3.789   5.606 -0.1661  0.0640 -0.1296
  313MOL0     C41220   5.022   3.655   5.667 -1.0214  0.0889 -0.1600
  313MOL0     C41221   5.137   3.670   5.774  0.1316 -0.1358  0.6412
  313MOL0     C41222   5.141   3.541   5.852  0.5773  0.5234  0.4620
  313MOL0     C41223   5.240   3.561   5.961  0.5283  0.3988 -1.5425
  313MOL0     C41224   5.267   3.427   6.036 -0.1852 -0.0084 -0.4702
  313MOL0     C41225   5.405   3.381   5.983  0.6419 -0.7656  0.2568
  313MOL0     C41226   5.444   3.249   6.028  1.1716  0.6960 -0.4442
  313MOL0     C41227   5.474   3.241   6.176 -0.4503 -0.1403 -0.0565
  313MOL0    Cl41228   5.464   3.078   6.231 -0.2417 -0.3421 -0.0060
  313MOL0     C41229   4.857   3.694   5.418 -0.0774  0.3278  0.2465
  313MOL0     C41230   4.774   3.708   5.302  0.6307  0.2304  0.6954
  313MOL0     O41231   4.471   3.761   5.296  1.3089  0.9966  0.5336
  313MOL0     C41232   4.270   3.834   5.112 -0.0010 -0.8097 -0.3166
  313MOL0     C41233   4.165   3.893   5.035  1.5024 -1.4709  1.3575
  313MOL0     N41234   4.049   4.310   4.457 -0.6235 -0.2118 -0.4447
  313MOL0     N41235   4.118   4.420   4.473  0.0702 -0.2668 -0.7267
  313MOL0     C41236   4.968   4.650   5.144  0.4985  0.8280 -0.1007
  313MOL0     C41237   5.058   4.551   5.126  0.5123 -0.5747  0.7547
  313MOL0     C41238   5.221   4.111   5.050 -0.6242  0.5319 -0.8960
  313MOL0     C41239   5.343   4.164   5.005 -0.4037  0.2958  0.3943
  313MOL0     C41240   5.446   4.085   4.965 -0.4247 -0.2405  0.1037
  313MOL0     C41241   5.436   3.944   4.974  1.0973 -0.0797 -0.9195
  313MOL0     O41242   5.543   3.866   4.961 -0.9887 -0.4403 -0.1734
  313MOL0     C41243   5.553   3.787   5.083 -0.8152  1.0741 -0.2813
  313MOL0     C41244   5.683   3.701   5.072 -0.6163  0.4975 -0.2170
  313MOL0     C41245   5.688   3.607   4.949  0.6862  0.2473 -0.3055
  313MOL0     C41246   5.830   3.574   4.896  0.2418  0.3480 -0.1322
  313MOL0     C41247   5.879   3.692   4.823  0.6534  0.7495  1.3623
  313MOL0     C41248   5.911   3.785   4.756 -0.6852 -0.7818 -0.5759
  313MOL0     C41249   5.303   3.889   4.999  0.2262  0.6818  0.5329
  313MOL0     C41250   5.208   3.972   5.044  0.1089  1.1111  0.1050
  313MOL0     H41251   4.856   4.325   4.964 -0.7406  1.0846 -1.1981
  313MOL0     H41252   4.684   4.504   5.010  0.5529  0.5689 -2.8877
  313MOL0     H41253   4.827   4.917   5.120 -0.6624  1.5165 -0.3851
  313MOL0     H41254   4.675   4.931   5.065 -1.4101  0.1035  0.1129
  313MOL0     H41255   4.897   4.864   4.886 -0.6219 -4.7480 -0.6510
  313MOL0     H41256   4.768   4.989   4.892  1.8544 -0.0148  0.0969
  313MOL0     H41257   4.737   4.693   4.797 -1.7865 -0.9762 -1.6839
  313MOL0     H41258   4.717   4.844   4.714 -1.7044  2.1938  1.3014
  313MOL0     H41259   4.546   4.708   4.907  1.5864 -0.3480  0.1372
  313MOL0     H41260   4.517   4.885   4.876 -2.0183  0.0778 -3.6568
  313MOL0     H41261   4.528   4.661   4.672  0.4881 -0.2479  2.4189
  313MOL0     H41262   4.506   4.819   4.629  1.4159 -1.5944 -1.5872
  313MOL0     H41263   4.305   4.836   4.756  0.0576  0.1751 -2.4722
  313MOL0     H41264   4.318   4.686   4.842 -2.3321  0.0189 -0.6050
  313MOL0     H41265   4.153   4.673   4.676  0.5711 -1.8166  2.5923
  313MOL0     H41266   4.262   4.726   4.547  1.7998 -0.2435 -0.3682
  313MOL0     H41267   4.339   4.487   4.720 -3.2030  2.1210  2.2161
  313MOL0     H41268   4.384   4.533   4.554 -0.3285  1.2816  0.1665
  313MOL0     H41269   4.234   4.247   4.716  1.5656  1.3582 -0.0554
  313MOL0     H41270   4.131   4.011   4.624 -0.4664 -1.8929 -0.0232
  313MOL0     H41271   4.069   4.017   4.461 -1.8026 -0.3263 -0.5021
  313MOL0     H41272   3.900   3.926   4.612  0.7396  0.0506  1.3012
  313MOL0     H41273   3.850   4.085   4.543 -0.0609  2.2007  2.3349
  313MOL0     H41274   3.909   4.204   4.761  0.1832  0.7391 -1.5743
  313MOL0     H41275   3.791   4.064   4.777 -0.6721 -0.2223 -0.7585
  313MOL0     H41276   3.973   3.914   4.843 -3.9999 -1.1008  1.6726
  313MOL0     H41277   3.924   4.040   4.960  0.2881  1.5011 -0.9416
  313MOL0     H41278   4.371   4.126   4.882  1.7522 -1.8505 -2.0605
  313MOL0     H41279   4.545   4.004   4.990 -0.5467 -1.9701 -2.0634
  313MOL0     H41280   4.724   4.042   5.339  1.3996  1.2113  2.9998
  313MOL0     H41281   4.881   4.014   5.525 -2.5880  2.7629 -0.7911
  313MOL0     H41282   5.055   3.578   5.597 -0.6458  1.3253 -1.4052
  313MOL0     H41283   4.934   3.614   5.716 -1.1763 -0.9931 -1.3042
  313MOL0     H41284   5.116   3.750   5.845 -2.3296  1.3822 -1.6036
  313MOL0     H41285   5.220   3.703   5.711 -0.6125  0.3574 -0.1037
  313MOL0     H41286   5.170   3.467   5.777 -2.7504 -0.0415 -0.4188
  313MOL0     H41287   5.041   3.532   5.895  0.0139  0.3730 -0.8538
  313MOL0     H41288   5.329   3.610   5.921 -0.0547  3.1708  0.3106
  313MOL0     H41289   5.208   3.630   6.040  0.0234  0.3089 -1.6624
  313MOL0     H41290   5.189   3.352   6.023 -0.4545 -0.3415  2.4346
  313MOL0     H41291   5.270   3.464   6.139 -0.1447  2.1473 -1.2025
  313MOL0     H41292   5.487   3.453   5.980  0.8114 -0.9912 -0.8105
  313MOL0     H41293   5.378   3.366   5.878  2.2306  0.0510 -0.3061
  313MOL0     H41294   5.365   3.180   5.996  0.4548  2.6273 -3.1964
  313MOL0     H41295   5.537   3.238   5.971  0.4061  2.9645 -2.2865
  313MOL0     H41296   5.406   3.294   6.243 -0.6439  0.5004 -0.7462
  313MOL0     H41297   5.573   3.279   6.205 -0.8474  1.9450 -1.2902
  313MOL0     H41298   4.906   3.598   5.428  1.7015  1.2258  0.3773
  313MOL0     H41299   4.755   3.629   5.230 -0.1608  1.1241 -0.1028
  313MOL0     H41300   4.241   3.752   5.177 -1.2955 -1.2366 -1.3844
  313MOL0     H41301   4.067   3.846   5.027  1.5918 -1.4124 -0.5648
  313MOL0     H41302   5.010   4.737   5.193  4.1046 -0.6147 -0.2990
  313MOL0     H41303   5.159   4.575   5.157  0.3148 -0.0890  1.0374
  313MOL0     H41304   5.358   4.271   4.996  0.0802  0.0919 -1.7516
  313MOL0     H41305   5.537   4.139   4.942 -1.4218  0.5909 -2.1361
  313MOL0     H41306   5.482   3.704   5.080  1.9991 -1.6913  2.4098
  313MOL0     H41307   5.550   3.845   5.176  1.0735  4.2293 -2.0162
  313MOL0     H41308   5.771   3.767   5.071 -0.3759  0.1760 -0.5157
  313MOL0     H41309   5.702   3.635   5.157  0.9606 -0.5583 -1.3275
  313MOL0     H41310   5.636   3.655   4.866 -0.1640  1.3171  0.8062
  313MOL0     H41311   5.635   3.515   4.972  1.7101 -0.3034 -0.1109
  313MOL0     H41312   5.896   3.550   4.979  1.6391 -2.8785 -2.0146
  313MOL0     H41313   5.814   3.494   4.823  2.5880  0.9233 -1.3789
  313MOL0     H41314   5.945   3.871   4.701  0.5585 -0.3510  0.7942
  313MOL0     H41315   5.281   3.783   5.005  2.4241  0.1974  0.7557
  313MOL0     H41316   5.110   3.933   5.071  1.1345 -2.5737 -0.9233
  314MOL0     O41317   5.597   3.817   7.440 -0.0415  0.9210  0.1628
  314MOL0     C41318   5.531   3.747   7.509  0.6454  0.4026  0.7062
  314MOL0     O41319   5.563   3.709   7.631 -0.6106 -0.0130  0.1097
  314MOL0     C41320   5.635   3.805   7.700  0.0051 -0.1540 -0.3236
  314MOL0     C41321   5.571   3.896   7.786  0.0061 -0.1946  0.5617
  314MOL0     C41322   5.639   3.989   7.861 -0.1137 -0.7143  0.0709
  314MOL0     C41323   5.776   4.003   7.850 -0.3762 -0.1406  0.7928
  314MOL0     O41324   5.856   4.080   7.926 -0.5922  0.4836 -0.0198
  314MOL0     C41325   5.798   4.210   7.965 -0.1725 -0.9343 -0.2956
  314MOL0     C41326   5.880   4.257   8.085  0.0092 -1.1365 -0.0491
  314MOL0     C41327   5.867   4.399   8.112  1.2720 -0.3694 -0.2495
  314MOL0     C41328   5.928   4.494   7.995  0.3292 -0.3431 -0.5399
  314MOL0     C41329   6.081   4.508   8.004  0.6478 -0.4760 -0.0332
  314MOL0     C41330   6.131   4.608   7.909 -0.6386 -0.6273  0.5498
  314MOL0     C41331   6.290   4.587   7.894 -0.1828 -0.9561  0.0544
  314MOL0     C41332   6.353   4.695   7.801 -0.3077  0.8733 -0.5913
  314MOL0     N41333   6.510   4.685   7.797  0.0708 -0.5959 -0.3290
  314MOL0     C41334   6.594   4.777   7.855 -0.1976 -0.1660  0.9162
  314MOL0     C41335   6.706   4.773   7.785 -0.3964 -0.6489 -0.5876
  314MOL0     C41336   6.835   4.850   7.818 -0.0143  0.0599  0.2470
  314MOL0     C41337   6.909   4.798   7.935 -0.4906  0.2668  0.0947
  314MOL0     C41338   7.058   4.767   7.902 -0.9657 -0.3568 -0.0974
  314MOL0     C41339   7.146   4.888   7.883  0.1079 -0.4428 -0.4074
  314MOL0     O41340   7.281   4.881   7.941 -0.1714 -0.2041  0.2469
  314MOL0     C41341   7.365   4.985   7.917 -0.1492 -0.2776  0.1217
  314MOL0     C41342   7.359   5.082   7.818 -1.0585 -0.8621  0.1489
  314MOL0     C41343   7.466   5.163   7.800 -0.6735  0.8280  1.2561
  314MOL0     C41344   7.582   5.171   7.876 -0.5397  0.0004 -1.0480
  314MOL0     C41345   7.694   5.260   7.848 -0.3161  0.0691 -0.0823
  314MOL0     O41346   7.687   5.322   7.728 -0.6530 -0.4839  0.2107
  314MOL0     C41347   7.802   5.378   7.671 -1.1651 -0.0357 -0.6335
  314MOL0     C41348   7.860   5.492   7.721  0.1348 -1.5650 -0.3651
  314MOL0     C41349   7.966   5.540   7.660 -0.1497  0.0604 -0.5519
  314MOL0     C41350   8.038   5.478   7.554  0.1374  0.8897  0.2308
  314MOL0     O41351   8.136   5.523   7.468 -0.4123  0.4059  0.2222
  314MOL0     C41352   8.196   5.646   7.503  0.1786 -0.2480 -0.8699
  314MOL0     C41353   8.265   5.699   7.382  0.2318 -0.1879 -0.0824
  314MOL0     C41354   8.386   5.614   7.331 -0.4210 -0.0643 -1.7317
  314MOL0     C41355   8.460   5.670   7.206  0.8058 -0.6503  0.0118
  314MOL0     C41356   8.547   5.563   7.161  0.4450  0.2221 -0.0704
  314MOL0     C41357   8.678   5.604   7.097  0.3284  0.4510 -0.3087
  314MOL0     C41358   8.776   5.489   7.110 -0.1205  0.1421 -0.4451
  314MOL0     C41359   8.911   5.541   7.057 -0.0694 -0.6932  0.5273
  314MOL0    Cl41360   9.031   5.406   7.051  0.1692 -0.6981  0.1160
  314MOL0     C41361   7.988   5.349   7.525 -0.3750 -0.8998  0.1085
  314MOL0     C41362   7.874   5.298   7.573  0.1464 -0.2865 -0.0098
  314MOL0     O41363   7.784   5.270   7.927 -0.2237 -0.5984 -0.0930
  314MOL0     C41364   7.587   5.080   7.981  0.5600  0.1790  0.1629
  314MOL0     C41365   7.480   4.989   7.999  0.2770  0.0787 -0.4256
  314MOL0     N41366   6.700   4.664   7.699  0.2469 -0.5617  0.1045
  314MOL0     N41367   6.583   4.607   7.712 -0.9588 -0.7886 -0.5494
  314MOL0     C41368   5.845   3.927   7.750  0.3093  0.1137  0.1229
  314MOL0     C41369   5.772   3.821   7.692  0.6520  0.1368 -0.2779
  314MOL0     C41370   5.419   3.667   7.444 -0.4153  0.6542  0.1381
  314MOL0     C41371   5.319   3.626   7.528  0.4632  0.3794 -0.3068
  314MOL0     C41372   5.204   3.572   7.478 -0.0090 -0.3480  0.4776
  314MOL0     C41373   5.192   3.567   7.337  0.7818  0.4344  0.2338
  314MOL0     O41374   5.079   3.521   7.265  0.2935  0.8604  0.6697
  314MOL0     C41375   4.965   3.475   7.331  0.2477  0.5473  0.0129
  314MOL0     C41376   4.973   3.325   7.362  0.1381 -0.2936 -0.3472
  314MOL0     C41377   4.835   3.278   7.413  0.7570  0.5459 -0.0386
  314MOL0     C41378   4.845   3.133   7.457  0.1088  0.2742  0.2787
  314MOL0     C41379   4.885   3.133   7.599  0.0535 -0.1746  0.3480
  314MOL0     C41380   4.904   3.137   7.721 -0.6879  0.0197 -0.2210
  314MOL0     C41381   5.294   3.598   7.256  0.0005  0.0941  0.4617
  314MOL0     C41382   5.410   3.653   7.303  0.1840 -0.6975  0.7590
  314MOL0     H41383   5.466   3.923   7.788  0.1852  0.6636 -0.6550
  314MOL0     H41384   5.581   4.054   7.925 -2.2918  0.9891 -3.3185
  314MOL0     H41385   5.690   4.206   7.981 -0.4331  0.8692 -1.3547
  314MOL0     H41386   5.809   4.280   7.882  0.2463 -0.5110  0.1094
  314MOL0     H41387   5.986   4.230   8.073 -0.4048 -2.7381 -0.3689
  314MOL0     H41388   5.843   4.198   8.169  1.4771 -2.0319  0.0109
  314MOL0     H41389   5.923   4.409   8.205  2.0699  0.8187 -0.8312
  314MOL0     H41390   5.763   4.420   8.140  0.7766 -3.7163  0.8575
  314MOL0     H41391   5.922   4.448   7.896  2.4733  0.3553 -1.0480
  314MOL0     H41392   5.875   4.589   8.001 -1.4111 -1.2648 -0.5242
  314MOL0     H41393   6.134   4.412   7.998  0.9309 -0.3363  0.2294
  314MOL0     H41394   6.109   4.551   8.101 -0.5505  0.2959 -0.0236
  314MOL0     H41395   6.121   4.712   7.940  3.4342  0.3385 -0.7126
  314MOL0     H41396   6.084   4.608   7.811  0.7763  4.8748 -0.4434
  314MOL0     H41397   6.341   4.606   7.989  0.7918 -2.3558 -0.1485
  314MOL0     H41398   6.312   4.486   7.856 -2.7427 -1.1908 -1.0191
  314MOL0     H41399   6.314   4.787   7.847 -1.1189 -0.5515  1.7335
  314MOL0     H41400   6.312   4.690   7.699 -2.6669 -0.2292  0.3300
  314MOL0     H41401   6.571   4.825   7.950 -0.3104 -3.7042  2.8083
  314MOL0     H41402   6.810   4.952   7.848 -0.9632  0.1519 -0.7877
  314MOL0     H41403   6.899   4.851   7.729 -0.8334  3.9270 -0.4861
  314MOL0     H41404   6.870   4.701   7.969  4.6305 -3.0731 -2.2434
  314MOL0     H41405   6.898   4.866   8.020 -2.9579  1.8856 -1.4055
  314MOL0     H41406   7.085   4.729   8.001 -3.0389  1.7038  1.3801
  314MOL0     H41407   7.079   4.699   7.819  0.8042 -1.1609  0.9425
  314MOL0     H41408   7.092   4.972   7.930 -1.6432 -0.4338 -2.2756
  314MOL0     H41409   7.157   4.911   7.777 -1.5694  0.4720 -0.4256
  314MOL0     H41410   7.272   5.095   7.754 -1.8770  5.7327  1.9166
  314MOL0     H41411   7.473   5.222   7.709  2.0883  0.0509  0.8749
  314MOL0     H41412   7.809   5.547   7.800  3.2585 -2.7008  2.6867
  314MOL0     H41413   7.990   5.641   7.690 -0.0555  0.5594 -2.1795
  314MOL0     H41414   8.259   5.625   7.590 -0.5331  2.1363  0.3073
  314MOL0     H41415   8.109   5.709   7.524  0.3598 -0.6799  1.3677
  314MOL0     H41416   8.298   5.801   7.404 -3.5661  1.5662 -1.6977
  314MOL0     H41417   8.184   5.698   7.308  0.2024 -4.1307 -0.2020
  314MOL0     H41418   8.361   5.509   7.313  0.4523  0.0280 -3.8077
  314MOL0     H41419   8.454   5.618   7.416 -1.9062  2.6680 -0.5257
  314MOL0     H41420   8.372   5.705   7.150 -0.2982  0.0361  2.0953
  314MOL0     H41421   8.517   5.761   7.222  0.2908  0.4994 -3.7078
  314MOL0     H41422   8.492   5.500   7.090  1.5903 -0.0531 -0.7282
  314MOL0     H41423   8.578   5.500   7.245  3.3090  1.2327 -0.2831
  314MOL0     H41424   8.722   5.692   7.145 -0.1951 -0.6415  2.3856
  314MOL0     H41425   8.663   5.636   6.994  2.3646  1.0569 -0.4680
  314MOL0     H41426   8.782   5.452   7.212 -0.1548 -1.8309 -1.1158
  314MOL0     H41427   8.745   5.407   7.045  0.4653  1.8525 -3.0471
  314MOL0     H41428   8.935   5.612   7.137 -1.5862 -1.4072  1.6764
  314MOL0     H41429   8.893   5.582   6.957 -1.0118 -2.1784  0.0567
  314MOL0     H41430   8.045   5.295   7.450 -1.7500 -0.2033 -1.5026
  314MOL0     H41431   7.834   5.202   7.544  2.9648 -0.8277 -2.6079
  314MOL0     H41432   7.664   5.089   8.057 -0.8267  0.7203  1.5439
  314MOL0     H41433   7.484   4.926   8.087 -0.4836 -3.7991 -2.8856
  314MOL0     H41434   5.951   3.941   7.729  0.7623 -2.1131  0.6094
  314MOL0     H41435   5.838   3.751   7.641  2.0370  1.4151 -0.3003
  314MOL0     H41436   5.315   3.649   7.634  0.5785 -1.4124  0.1155
  314MOL0     H41437   5.124   3.546   7.546 -0.7363  0.6401  0.0335
  314MOL0     H41438   4.881   3.496   7.264  0.6527  2.4428  0.0545
  314MOL0     H41439   4.949   3.528   7.426  2.6179  1.4787 -0.0621
  314MOL0     H41440   5.016   3.264   7.282  2.3460  0.5860  0.0892
  314MOL0     H41441   5.041   3.302   7.444  1.3541  0.1996 -1.1788
  314MOL0     H41442   4.756   3.302   7.341  0.9511  1.1583 -0.0557
  314MOL0     H41443   4.807   3.340   7.499 -0.5089  1.6560 -1.2110
  314MOL0     H41444   4.749   3.083   7.449  0.8510 -1.4877  1.5463
  314MOL0     H41445   4.920   3.082   7.396  0.6332  0.7349  0.5200
  314MOL0     H41446   4.911   3.137   7.828 -1.6995 -0.6706 -0.1400
  314MOL0     H41447   5.279   3.591   7.149 -3.3716  0.4084  0.8321
  314MOL0     H41448   5.492   3.684   7.240 -1.2608 -0.6138 -1.1696
  315MOL0     O41449   0.852   0.935   4.183  1.0388 -0.0595  0.0364
  315MOL0     C41450   0.920   0.885   4.273  0.8304 -0.6254 -0.2159
  315MOL0     O41451   0.938   0.753   4.293  0.3881  0.6124 -0.2109
  315MOL0     C41452   0.878   0.663   4.211  0.3909  0.4892  0.1837
  315MOL0     C41453   0.741   0.645   4.209 -0.6653 -0.3279 -0.7935
  315MOL0     C41454   0.679   0.545   4.138  0.4324 -0.1556 -0.4297
  315MOL0     C41455   0.758   0.457   4.066 -0.0514  0.0016 -0.9615
  315MOL0     O41456   0.714   0.342   4.010 -0.0509 -0.1819 -0.9965
  315MOL0     C41457   0.613   0.350   3.909 -0.1247  0.0584 -0.1728
  315MOL0     C41458   0.591   0.210   3.872  0.2428 -0.5898 -0.6688
  315MOL0     C41459   0.497   0.198   3.750 -0.3744 -0.7325 -0.6634
  315MOL0     C41460   0.463   0.059   3.730  0.0449  0.1000 -0.3689
  315MOL0     C41461   0.347   0.048   3.634 -0.3976  0.6681 -0.1617
  315MOL0     C41462   0.323  -0.108   3.614  0.2626  0.4650  0.3959
  315MOL0     C41463   0.180  -0.139   3.570  0.6771 -0.1237  0.0731
  315MOL0     C41464   0.141  -0.289   3.547  1.1781  0.1120  0.1372
  315MOL0     N41465   0.006  -0.288   3.495  0.4640  0.3042 -0.1681
  315MOL0     C41466  -0.103  -0.233   3.558 -0.8657 -0.7958  0.0833
  315MOL0     C41467  -0.208  -0.277   3.487 -0.1121  0.6725  0.7384
  315MOL0     C41468  -0.352  -0.254   3.520 -0.3141 -0.9727 -0.1743
  315MOL0     C41469  -0.426  -0.384   3.561  0.5408 -0.0306 -1.0031
  315MOL0     C41470  -0.405  -0.425   3.701 -0.1146  0.1978  1.5374
  315MOL0     C41471  -0.531  -0.499   3.742  0.4912  0.7313 -1.3362
  315MOL0     O41472  -0.533  -0.631   3.672  0.0207 -0.2861 -0.2469
  315MOL0     C41473  -0.656  -0.694   3.684 -1.0359  0.1688 -0.1829
  315MOL0     C41474  -0.678  -0.786   3.586  0.1223  0.2965  0.0535
  315MOL0     C41475  -0.800  -0.867   3.597  0.4397 -0.5110  0.8562
  315MOL0     C41476  -0.869  -0.865   3.715 -0.5060  0.3824  0.2942
  315MOL0     C41477  -0.970  -0.962   3.740  0.2221  0.5666  0.8655
  315MOL0     O41478  -0.971  -1.069   3.645 -0.1205  0.1899  0.4594
  315MOL0     C41479  -1.059  -1.173   3.657  0.2441 -0.2939 -0.3529
  315MOL0     C41480  -1.074  -1.233   3.790  0.4059  0.0268 -0.5904
  315MOL0     C41481  -1.143  -1.352   3.803 -0.1414 -0.6755  0.3836
  315MOL0     C41482  -1.193  -1.412   3.693  0.2822  0.6386 -0.8256
  315MOL0     O41483  -1.258  -1.530   3.687  0.5218  0.0412  0.7147
  315MOL0     C41484  -1.242  -1.628   3.789  0.4326  1.0635  0.3562
  315MOL0     C41485  -1.301  -1.762   3.746  0.0447 -0.2894 -0.7291
  315MOL0     C41486  -1.319  -1.868   3.851 -0.4154 -0.4329  0.7078
  315MOL0     C41487  -1.376  -1.985   3.772  0.8368 -0.4191  1.2780
  315MOL0     C41488  -1.439  -2.096   3.862 -0.3169 -0.4636  0.9796
  315MOL0     C41489  -1.413  -2.238   3.809  0.1532 -0.9916 -0.3506
  315MOL0     C41490  -1.478  -2.248   3.677  0.1593 -0.0171  0.6756
  315MOL0     C41491  -1.487  -2.397   3.636 -0.3214 -0.5353  0.8143
  315MOL0    Cl41492  -1.647  -2.464   3.677  0.0769  0.1227 -0.4468
  315MOL0     C41493  -1.177  -1.348   3.567  0.1715 -0.2175 -0.3629
  315MOL0     C41494  -1.116  -1.233   3.540  0.0393  0.6582  0.4815
  315MOL0     O41495  -1.046  -0.952   3.832 -0.2199  0.3035 -0.3099
  315MOL0     C41496  -0.837  -0.785   3.813 -0.5805 -0.3373  0.6953
  315MOL0     C41497  -0.733  -0.695   3.802  0.0709 -0.4605 -0.0826
  315MOL0     N41498  -0.172  -0.348   3.376 -0.3439 -0.2751  0.1389
  315MOL0     N41499  -0.049  -0.348   3.385 -0.0661 -0.0681  0.6908
  315MOL0     C41500   0.897   0.464   4.067  0.0734  0.9267  0.7443
  315MOL0     C41501   0.955   0.570   4.134 -0.6520  0.2005  0.4467
  315MOL0     C41502   0.993   0.972   4.366  0.8462 -0.5022 -0.3102
  315MOL0     C41503   1.036   0.929   4.488 -0.1348  0.6805 -0.9244
  315MOL0     C41504   1.129   0.997   4.572  0.9590  0.2112 -0.3205
  315MOL0     C41505   1.181   1.118   4.534 -1.4174 -0.5363 -0.2590
  315MOL0     O41506   1.264   1.185   4.628 -0.4714 -0.4745  0.0417
  315MOL0     C41507   1.353   1.289   4.573  0.0630  0.4850  0.1512
  315MOL0     C41508   1.497   1.285   4.645  0.8185  0.0599  1.1205
  315MOL0     C41509   1.524   1.398   4.741  0.7192 -0.6245 -0.2552
  315MOL0     C41510   1.601   1.517   4.680  0.6402  0.4548  0.1092
  315MOL0     C41511   1.506   1.612   4.636  0.3506  0.5170 -0.0594
  315MOL0     C41512   1.440   1.704   4.595 -0.6261  0.4367  0.4844
  315MOL0     C41513   1.132   1.170   4.407 -0.2621 -0.3924  0.8692
  315MOL0     C41514   1.040   1.102   4.330 -0.4351  0.1451  1.4085
  315MOL0     H41515   0.686   0.712   4.274 -0.4775 -0.8686 -0.0726
  315MOL0     H41516   0.572   0.530   4.128  0.7241 -2.4131 -0.6564
  315MOL0     H41517   0.652   0.401   3.820 -4.9302  0.2179 -2.4729
  315MOL0     H41518   0.514   0.385   3.941  0.3386  0.8625  0.4414
  315MOL0     H41519   0.544   0.164   3.959  0.6977 -1.6963 -0.9905
  315MOL0     H41520   0.682   0.158   3.841  1.4026 -0.5449  2.2920
  315MOL0     H41521   0.554   0.226   3.661  2.5861 -3.1611  0.2843
  315MOL0     H41522   0.400   0.244   3.769 -0.0860 -0.1787 -0.5275
  315MOL0     H41523   0.553   0.003   3.705 -0.6606 -2.6674  2.5746
  315MOL0     H41524   0.430   0.014   3.825  0.2704  1.4405  0.3772
  315MOL0     H41525   0.363   0.092   3.535  3.2201 -2.0440 -1.0323
  315MOL0     H41526   0.255   0.084   3.679 -2.4602 -2.9759 -1.0511
  315MOL0     H41527   0.340  -0.178   3.696 -3.2728 -3.7348 -2.0159
  315MOL0     H41528   0.383  -0.129   3.525 -1.4144 -0.4424 -0.5845
  315MOL0     H41529   0.113  -0.088   3.639  0.8194  1.9729 -1.2299
  315MOL0     H41530   0.160  -0.073   3.484  1.2120  3.0112  2.1679
  315MOL0     H41531   0.156  -0.351   3.635  0.2544 -0.7862 -0.3186
  315MOL0     H41532   0.204  -0.324   3.464  0.7819 -1.7292  0.5839
  315MOL0     H41533  -0.099  -0.176   3.650 -1.8355  1.5461 -1.2363
  315MOL0     H41534  -0.401  -0.222   3.427  0.3524 -1.6592 -0.7728
  315MOL0     H41535  -0.370  -0.172   3.591 -0.0609  1.0271 -2.2938
  315MOL0     H41536  -0.388  -0.468   3.503  2.0556 -1.3668  1.7502
  315MOL0     H41537  -0.533  -0.367   3.541  0.7230  1.4106 -0.8653
  315MOL0     H41538  -0.322  -0.495   3.699  0.8075  1.2782  0.6865
  315MOL0     H41539  -0.388  -0.344   3.772 -0.9300 -1.0695  3.2450
  315MOL0     H41540  -0.624  -0.443   3.733  0.9590  1.7671  0.0246
  315MOL0     H41541  -0.519  -0.523   3.848 -0.2499  0.6823 -1.2622
  315MOL0     H41542  -0.605  -0.804   3.508 -1.4207  1.5627 -1.8000
  315MOL0     H41543  -0.814  -0.932   3.511 -0.1016  1.7537 -0.8692
  315MOL0     H41544  -1.037  -1.190   3.883 -0.5072 -1.2929  0.4115
  315MOL0     H41545  -1.174  -1.388   3.901 -2.4904  0.2584  0.0552
  315MOL0     H41546  -1.279  -1.596   3.887  6.4564  0.5459  3.2079
  315MOL0     H41547  -1.136  -1.641   3.813  0.1035 -2.3311  0.5415
  315MOL0     H41548  -1.241  -1.808   3.666 -0.7960 -0.2983 -1.3681
  315MOL0     H41549  -1.398  -1.741   3.701 -2.1615 -0.0832  3.6404
  315MOL0     H41550  -1.394  -1.838   3.925 -1.1813 -0.0351 -0.2152
  315MOL0     H41551  -1.221  -1.879   3.898  1.3356  2.1981 -1.9354
  315MOL0     H41552  -1.459  -1.962   3.705  2.5499 -4.3734 -2.7926
  315MOL0     H41553  -1.300  -2.031   3.708 -0.1929 -2.2559  1.2955
  315MOL0     H41554  -1.547  -2.077   3.868 -0.4376  0.0716 -1.7319
  315MOL0     H41555  -1.393  -2.096   3.961  2.0241 -1.9650 -0.0166
  315MOL0     H41556  -1.459  -2.302   3.885 -0.3292 -1.8698 -1.3570
  315MOL0     H41557  -1.305  -2.257   3.803 -0.2383 -3.3653 -0.5401
  315MOL0     H41558  -1.578  -2.204   3.686 -0.2358 -0.9171  0.7521
  315MOL0     H41559  -1.421  -2.189   3.604  0.1655 -0.4791  0.3025
  315MOL0     H41560  -1.401  -2.450   3.678  0.4851  1.4845  1.8595
  315MOL0     H41561  -1.467  -2.409   3.529  0.9680  0.8308  0.8729
  315MOL0     H41562  -1.197  -1.400   3.473  0.2843  0.2318 -0.6381
  315MOL0     H41563  -1.084  -1.200   3.442  2.2849 -2.5004 -0.0208
  315MOL0     H41564  -0.882  -0.784   3.912  2.3433  2.3413  2.1880
  315MOL0     H41565  -0.714  -0.642   3.894  3.1817  3.0189 -2.4105
  315MOL0     H41566   0.945   0.381   4.016 -2.9517 -2.0529  2.3115
  315MOL0     H41567   1.063   0.583   4.131 -0.7282  0.9177  0.6992
  315MOL0     H41568   1.007   0.834   4.532 -0.0004  0.7824 -0.6135
  315MOL0     H41569   1.158   0.950   4.665  0.7351 -2.7441 -1.6266
  315MOL0     H41570   1.303   1.386   4.578 -1.8355 -0.3205 -1.5587
  315MOL0     H41571   1.361   1.275   4.465 -1.7521 -1.5799  0.2104
  315MOL0     H41572   1.509   1.188   4.695  3.0399 -0.5561 -0.4285
  315MOL0     H41573   1.575   1.285   4.568  1.0480  1.2460  1.3388
  315MOL0     H41574   1.597   1.364   4.815  2.9463  1.9463 -1.0988
  315MOL0     H41575   1.433   1.431   4.792  0.8950 -0.7875  0.1638
  315MOL0     H41576   1.675   1.557   4.750 -0.1177  0.1429  1.1225
  315MOL0     H41577   1.645   1.485   4.586 -0.6117 -1.0282 -0.0193
  315MOL0     H41578   1.387   1.780   4.541 -1.1325  1.3412  2.1728
  315MOL0     H41579   1.170   1.267   4.378  0.5379 -0.8230  0.4486
  315MOL0     H41580   1.022   1.138   4.229  2.7022 -0.3643  0.5893
  316MOL0     O41581  10.765   5.255   0.887 -0.3877  0.4609 -0.0693
  316MOL0     C41582  10.763   5.269   1.010  0.6257  0.2308  0.5506
  316MOL0     O41583  10.866   5.241   1.099  0.2552  0.4272 -0.4588
  316MOL0     C41584  10.984   5.183   1.055 -0.4655  0.2776  0.6051
  316MOL0     C41585  11.103   5.235   1.108 -0.4394  0.1452 -0.8443
  316MOL0     C41586  11.223   5.182   1.058 -0.6333 -0.0890 -0.7889
  316MOL0     C41587  11.229   5.068   0.975  0.3064 -0.5240 -0.2963
  316MOL0     O41588  11.336   4.986   0.953 -0.7415  0.1854 -0.0538
  316MOL0     C41589  11.430   4.975   1.057  0.1435  0.4789 -0.3778
  316MOL0     C41590  11.534   4.862   1.044 -0.1932  0.2453  0.4271
  316MOL0     C41591  11.622   4.842   1.172  0.4815 -0.3901  0.1455
  316MOL0     C41592  11.698   4.715   1.156 -0.7522  0.5675 -0.0034
  316MOL0     C41593  11.787   4.653   1.262 -0.6319  0.4895 -0.6452
  316MOL0     C41594  11.916   4.731   1.285  0.1600 -0.1942  0.8332
  316MOL0     C41595  12.014   4.631   1.351  0.1577 -0.5305 -0.2328
  316MOL0     C41596  12.142   4.701   1.364 -0.1694 -0.0511  0.0461
  316MOL0     N41597  12.243   4.610   1.413  0.2136 -1.0358 -0.8165
  316MOL0     C41598  12.272   4.481   1.365  0.6070  0.0291 -0.3637
  316MOL0     C41599  12.363   4.433   1.441  0.8612  0.2866 -0.9056
  316MOL0     C41600  12.414   4.296   1.422  0.0934 -0.9109 -1.1470
  316MOL0     C41601  12.538   4.284   1.331 -0.0912  0.2315 -0.5640
  316MOL0     C41602  12.582   4.140   1.301 -0.5821 -0.0261 -0.3171
  316MOL0     C41603  12.573   4.035   1.419 -0.7186  0.3026  0.7661
  316MOL0     O41604  12.670   3.928   1.402  0.2035 -0.1872  0.3645
  316MOL0     C41605  12.665   3.843   1.295 -0.1568  0.8973  0.7246
  316MOL0     C41606  12.568   3.826   1.202  0.1800  0.2908 -0.0395
  316MOL0     C41607  12.567   3.736   1.099 -0.6352  0.4796 -0.4735
  316MOL0     C41608  12.679   3.649   1.078 -0.6541  0.0555 -0.9900
  316MOL0     C41609  12.705   3.540   0.976  0.4392 -0.7724  0.5460
  316MOL0     O41610  12.628   3.550   0.864  0.6944 -0.1570 -0.6004
  316MOL0     C41611  12.641   3.457   0.764  0.8222 -0.9401 -0.3273
  316MOL0     C41612  12.572   3.498   0.643  0.0153  0.8853  0.0490
  316MOL0     C41613  12.563   3.416   0.532 -0.2151  0.4377  0.0118
  316MOL0     C41614  12.605   3.277   0.548 -0.5244 -0.5351 -0.1232
  316MOL0     O41615  12.577   3.201   0.433  0.1981 -0.2457 -0.6397
  316MOL0     C41616  12.655   3.083   0.414  0.0265  0.3557 -0.5103
  316MOL0     C41617  12.633   3.032   0.281 -0.1622 -0.8822  0.5543
  316MOL0     C41618  12.736   2.931   0.228  0.3282 -0.0050  0.0849
  316MOL0     C41619  12.766   2.804   0.328  0.5533 -0.9734 -0.2927
  316MOL0     C41620  12.826   2.698   0.240  0.3862 -0.8708  0.0803
  316MOL0     C41621  12.872   2.574   0.312  0.2468 -0.2974  0.5761
  316MOL0     C41622  12.756   2.496   0.364 -0.1998  0.2682  0.3660
  316MOL0     C41623  12.777   2.361   0.423  0.0925 -0.6688  0.6566
  316MOL0    Cl41624  12.892   2.375   0.568 -0.1578  0.5432 -0.0383
  316MOL0     C41625  12.675   3.243   0.665 -0.3562  0.7256  0.4303
  316MOL0     C41626  12.692   3.327   0.770  0.9624 -0.3952  0.4278
  316MOL0     O41627  12.792   3.456   0.995  0.4196 -0.4745  0.3851
  316MOL0     C41628  12.787   3.665   1.178 -1.1530  0.1812  0.7999
  316MOL0     C41629  12.784   3.765   1.280 -0.5366 -0.6749 -0.6487
  316MOL0     N41630  12.400   4.523   1.535 -0.6108  0.6530  0.2463
  316MOL0     N41631  12.331   4.640   1.520 -0.0509  0.0780  0.3480
  316MOL0     C41632  11.105   5.018   0.922 -0.4112 -0.5620 -0.0332
  316MOL0     C41633  10.984   5.069   0.971  0.8609  0.6067  0.7967
  316MOL0     C41634  10.644   5.328   1.079  0.4312  0.0479 -0.1610
  316MOL0     C41635  10.612   5.282   1.208  1.7986 -0.6143  0.2408
  316MOL0     C41636  10.490   5.320   1.259 -0.4629  0.9224 -0.6621
  316MOL0     C41637  10.392   5.397   1.180 -0.1193 -0.1636  1.1824
  316MOL0     O41638  10.280   5.453   1.243  0.2158 -0.5806 -0.4930
  316MOL0     C41639  10.195   5.559   1.187 -0.2821 -0.1236  0.6731
  316MOL0     C41640  10.080   5.495   1.101 -0.4351 -0.1661  0.4309
  316MOL0     C41641  10.003   5.384   1.177 -0.0388 -0.7381 -0.3350
  316MOL0     C41642   9.905   5.311   1.085  0.4486 -0.5613  0.7046
  316MOL0     C41643   9.782   5.393   1.073  0.2555  0.5525  0.4383
  316MOL0     C41644   9.682   5.463   1.058 -0.1944 -0.3786 -0.1008
  316MOL0     C41645  10.429   5.431   1.046  0.8928  0.7149 -0.1252
  316MOL0     C41646  10.558   5.405   0.999 -0.6299  0.1150  0.4472
  316MOL0     H41647  11.108   5.311   1.185 -1.6945 -0.9399  0.3730
  316MOL0     H41648  11.313   5.229   1.095 -0.4927 -0.1588 -1.0441
  316MOL0     H41649  11.374   4.945   1.146  0.4131 -0.2016 -0.4329
  316MOL0     H41650  11.470   5.077   1.062 -1.1101  1.0730 -1.7553
  316MOL0     H41651  11.599   4.891   0.961 -0.4504  2.8377  1.0424
  316MOL0     H41652  11.489   4.769   1.008  1.9838 -0.4918 -0.5162
  316MOL0     H41653  11.553   4.815   1.253  1.7582 -2.6869  0.5498
  316MOL0     H41654  11.675   4.935   1.193 -0.9441  0.1628  1.4699
  316MOL0     H41655  11.621   4.643   1.125  3.1127 -3.0270 -2.3768
  316MOL0     H41656  11.779   4.729   1.083  0.6882 -3.8781  0.4680
  316MOL0     H41657  11.806   4.551   1.228 -1.3945 -1.0251  3.0019
  316MOL0     H41658  11.736   4.630   1.355 -2.5021 -0.1760 -1.7932
  316MOL0     H41659  11.897   4.816   1.351  1.7832  0.9054 -0.0469
  316MOL0     H41660  11.952   4.756   1.185  1.3839  1.1039  1.5692
  316MOL0     H41661  11.979   4.615   1.454  0.5451  2.3587  0.4283
  316MOL0     H41662  12.018   4.539   1.291 -1.1536 -0.1662 -0.9292
  316MOL0     H41663  12.127   4.787   1.429 -0.8898  0.1915 -0.4271
  316MOL0     H41664  12.186   4.725   1.266 -1.6651 -3.3424 -1.5970
  316MOL0     H41665  12.214   4.429   1.289 -0.6666  0.3973  0.3384
  316MOL0     H41666  12.341   4.228   1.378  1.0770 -1.7789 -1.4902
  316MOL0     H41667  12.440   4.247   1.516  1.2662 -1.5210 -1.7686
  316MOL0     H41668  12.620   4.316   1.397  0.0267 -1.2500  0.0507
  316MOL0     H41669  12.535   4.338   1.236 -1.3117 -2.1264 -1.9695
  316MOL0     H41670  12.527   4.097   1.216 -1.7376 -0.4565  0.6217
  316MOL0     H41671  12.689   4.150   1.282  0.0066 -0.3183  2.4149
  316MOL0     H41672  12.467   4.007   1.417 -0.9178  1.0597 -1.0478
  316MOL0     H41673  12.593   4.079   1.518 -2.3678 -1.7491  2.0836
  316MOL0     H41674  12.477   3.884   1.206  1.3202  2.7089 -4.1606
  316MOL0     H41675  12.479   3.717   1.039 -0.2233  0.3268 -1.0343
  316MOL0     H41676  12.548   3.603   0.632 -2.5997  0.3841  0.3673
  316MOL0     H41677  12.516   3.457   0.443 -0.2206  1.7392  0.5757
  316MOL0     H41678  12.624   3.007   0.486  4.6871 -0.8995  0.4880
  316MOL0     H41679  12.761   3.095   0.435  0.2202 -1.3650 -0.3932
  316MOL0     H41680  12.633   3.106   0.200  2.4052  0.5526  1.7171
  316MOL0     H41681  12.531   2.994   0.280  0.6612 -3.4252  1.9824
  316MOL0     H41682  12.829   2.984   0.207 -1.3339  2.7555 -0.9267
  316MOL0     H41683  12.699   2.895   0.132 -1.3157  1.2318  0.2061
  316MOL0     H41684  12.842   2.833   0.401 -0.5805 -0.0897  0.5856
  316MOL0     H41685  12.680   2.772   0.387  0.2038 -3.7914 -2.1149
  316MOL0     H41686  12.919   2.735   0.195  0.6186 -1.0136  0.4400
  316MOL0     H41687  12.756   2.661   0.163 -1.2705 -0.2886  1.2550
  316MOL0     H41688  12.927   2.620   0.394 -0.9527  1.0920  0.6359
  316MOL0     H41689  12.921   2.506   0.241 -0.7189 -0.2325 -0.1753
  316MOL0     H41690  12.704   2.566   0.431 -2.1636 -0.1155 -0.6909
  316MOL0     H41691  12.676   2.489   0.290 -1.5004  2.9070  1.3787
  316MOL0     H41692  12.811   2.298   0.340 -1.3218 -0.4631 -0.1014
  316MOL0     H41693  12.688   2.307   0.457 -2.8360  4.0114  1.2767
  316MOL0     H41694  12.703   3.144   0.698 -1.5208 -0.0592 -0.7985
  316MOL0     H41695  12.724   3.281   0.863 -0.8286 -0.1009  1.2519
  316MOL0     H41696  12.879   3.612   1.157 -0.8950  0.5713  0.9437
  316MOL0     H41697  12.870   3.795   1.340 -1.4433 -2.1328  1.5122
  316MOL0     H41698  11.116   4.934   0.854  3.7159  0.0525 -0.3496
  316MOL0     H41699  10.891   5.021   0.943  2.2300 -1.6946 -0.1299
  316MOL0     H41700  10.668   5.205   1.259  1.0066 -0.1382  1.8773
  316MOL0     H41701  10.477   5.302   1.365  2.8891  0.2468 -0.2471
  316MOL0     H41702  10.254   5.629   1.127 -1.9065  1.2146  0.5380
  316MOL0     H41703  10.152   5.616   1.270  0.6268  2.0647 -0.2931
  316MOL0     H41704  10.005   5.570   1.076 -2.1838 -1.3411  1.9219
  316MOL0     H41705  10.132   5.457   1.012 -1.4822  1.3883 -0.9035
  316MOL0     H41706   9.958   5.437   1.261  2.0934 -0.7894  0.9190
  316MOL0     H41707  10.072   5.313   1.225  0.3684  1.1838  2.1547
  316MOL0     H41708   9.951   5.293   0.987  1.3274 -3.4448  1.5356
  316MOL0     H41709   9.894   5.213   1.132  1.7459  0.5106  3.5112
  316MOL0     H41710   9.583   5.496   1.032 -1.2176 -2.6369  0.7608
  316MOL0     H41711  10.366   5.483   0.974  2.4642  1.0938 -1.2878
  316MOL0     H41712  10.583   5.444   0.901  3.0053 -0.1767  1.1176
  317MOL0     O41713   1.815  11.097   0.470  0.4569  0.1523  0.5628
  317MOL0     C41714   1.828  11.076   0.587 -0.7771  0.4955  1.1286
  317MOL0     O41715   1.732  11.066   0.677  0.7128 -0.9815 -0.6111
  317MOL0     C41716   1.611  11.118   0.639  0.7586  0.6234 -0.2903
  317MOL0     C41717   1.494  11.042   0.643  1.1334 -0.0795  0.5690
  317MOL0     C41718   1.373  11.111   0.619  0.7159  0.1073  0.6071
  317MOL0     C41719   1.353  11.251   0.602 -1.1796 -0.8421  0.1526
  317MOL0     O41720   1.217  11.290   0.617 -0.8616  0.5652 -0.4617
  317MOL0     C41721   1.184  11.406   0.545  0.1588  0.1964  0.3120
  317MOL0     C41722   1.033  11.416   0.533  0.2595  0.0276  0.0563
  317MOL0     C41723   0.993  11.502   0.419  0.2218  0.9458  0.2837
  317MOL0     C41724   0.854  11.445   0.379  1.0504  0.2559 -0.0629
  317MOL0     C41725   0.783  11.538   0.274  0.0249  0.3084  0.2600
  317MOL0     C41726   0.830  11.492   0.136 -0.4719 -0.4560 -0.6494
  317MOL0     C41727   0.798  11.600   0.026  0.8007  0.3639  0.1887
  317MOL0     C41728   0.881  11.723   0.020 -0.4001  0.1507 -0.7156
  317MOL0     N41729   0.997  11.719  -0.069  0.7885  0.6074 -0.3665
  317MOL0     C41730   1.111  11.638  -0.055  0.5872 -0.2516 -0.8267
  317MOL0     C41731   1.190  11.680  -0.152  0.0763 -0.4459  0.6439
  317MOL0     C41732   1.334  11.643  -0.177  0.4887 -0.0642  0.1487
  317MOL0     C41733   1.397  11.517  -0.126  0.3367 -0.1360  0.9792
  317MOL0     C41734   1.440  11.515   0.021  0.9393  0.7217  0.3106
  317MOL0     C41735   1.538  11.630   0.057 -0.0385  0.1744 -1.0801
  317MOL0     O41736   1.575  11.615   0.200  0.8261  0.5719  0.6229
  317MOL0     C41737   1.679  11.534   0.228 -0.1742  0.7721  0.0711
  317MOL0     C41738   1.746  11.438   0.146 -0.9734  0.0546  0.8918
  317MOL0     C41739   1.856  11.374   0.190 -0.3059 -0.0322 -0.3531
  317MOL0     C41740   1.901  11.384   0.321  0.5682 -0.0513  0.4940
  317MOL0     C41741   2.030  11.321   0.353 -0.1750  0.1369 -0.1954
  317MOL0     O41742   2.073  11.331   0.487 -0.8110  0.5630  0.9537
  317MOL0     C41743   2.207  11.321   0.526  0.2931 -0.0992 -0.3634
  317MOL0     C41744   2.309  11.370   0.445  0.6431 -0.4017  1.4479
  317MOL0     C41745   2.441  11.368   0.488  0.0089  1.1451  0.3758
  317MOL0     C41746   2.472  11.316   0.615  0.0533 -0.6493 -0.7208
  317MOL0     O41747   2.604  11.300   0.650 -0.4612 -0.6875  0.2147
  317MOL0     C41748   2.654  11.267   0.777 -1.2456 -1.3577  0.8847
  317MOL0     C41749   2.791  11.227   0.768 -0.5955  0.0800  0.5965
  317MOL0     C41750   2.814  11.089   0.694  0.2640  0.0093  0.4032
  317MOL0     C41751   2.951  11.062   0.738 -0.3516  0.2306 -0.3170
  317MOL0     C41752   3.018  10.961   0.633 -0.9199  0.6190 -0.0392
  317MOL0     C41753   3.090  10.844   0.700 -0.4758  0.4627 -0.2130
  317MOL0     C41754   3.147  10.736   0.609 -1.5427  0.7810  0.2525
  317MOL0     C41755   3.213  10.769   0.477  0.1806 -0.0410 -0.8417
  317MOL0    Cl41756   3.093  10.780   0.350  0.4646 -0.6561  0.4939
  317MOL0     C41757   2.370  11.281   0.707  0.2401 -0.4397 -0.4061
  317MOL0     C41758   2.237  11.290   0.663  0.8151  0.3895  0.0790
  317MOL0     O41759   2.087  11.251   0.268  1.0089 -0.3428 -0.2626
  317MOL0     C41760   1.837  11.477   0.409  0.0621 -0.4608 -0.1534
  317MOL0     C41761   1.731  11.555   0.360  0.5098 -0.1009  1.2651
  317MOL0     N41762   1.121  11.769  -0.234  0.0329 -0.0910  0.2095
  317MOL0     N41763   1.008  11.801  -0.176 -0.0638  0.1626  0.3050
  317MOL0     C41764   1.471  11.322   0.586 -0.7450 -0.5739 -1.4667
  317MOL0     C41765   1.597  11.257   0.590 -0.9175 -0.1505  0.4987
  317MOL0     C41766   1.961  11.026   0.614  0.2709  0.0451  0.3563
  317MOL0     C41767   2.063  11.012   0.513  0.0959  0.3868  0.9766
  317MOL0     C41768   2.190  10.979   0.542  0.0665  1.4868 -0.9230
  317MOL0     C41769   2.220  10.928   0.670 -0.0775  0.2432 -0.0164
  317MOL0     O41770   2.344  10.891   0.704  0.3260 -0.2204  0.6336
  317MOL0     C41771   2.453  10.877   0.608 -0.1054 -0.3166 -0.7482
  317MOL0     C41772   2.433  10.756   0.522 -0.6136  0.6954 -0.5104
  317MOL0     C41773   2.532  10.718   0.403  0.6132  0.2246 -0.8282
  317MOL0     C41774   2.515  10.788   0.260  0.0835 -0.6632 -0.2634
  317MOL0     C41775   2.488  10.936   0.260 -0.3918 -1.0135  0.2156
  317MOL0     C41776   2.478  11.056   0.252 -0.2298 -0.5611 -0.1411
  317MOL0     C41777   2.125  10.940   0.768  0.7630  0.4437 -0.6032
  317MOL0     C41778   1.998  10.987   0.740  0.0712  0.5313 -0.2827
  317MOL0     H41779   1.495  10.935   0.654  0.4419  0.1113  2.8522
  317MOL0     H41780   1.291  11.040   0.627  2.1856 -1.5029  2.6087
  317MOL0     H41781   1.238  11.395   0.451 -1.7532 -3.7970 -0.5548
  317MOL0     H41782   1.237  11.480   0.605  0.3639  0.6891 -0.4679
  317MOL0     H41783   1.005  11.461   0.628  0.1322  2.1515 -0.9298
  317MOL0     H41784   1.011  11.309   0.525  1.7863 -0.1807 -2.8639
  317MOL0     H41785   1.060  11.508   0.333 -0.0096 -1.6054 -0.1623
  317MOL0     H41786   0.970  11.602   0.456 -3.4393  0.1749  0.5251
  317MOL0     H41787   0.869  11.355   0.319 -0.7612  1.4453 -2.4589
  317MOL0     H41788   0.790  11.432   0.467  2.5570  2.9452  1.5816
  317MOL0     H41789   0.800  11.644   0.296 -2.2632  0.4245  1.7875
  317MOL0     H41790   0.676  11.520   0.261  0.4489 -1.4983 -1.0597
  317MOL0     H41791   0.776  11.399   0.114 -4.6977  2.0859 -2.1901
  317MOL0     H41792   0.937  11.473   0.146 -0.8095 -3.5501 -1.7522
  317MOL0     H41793   0.798  11.543  -0.067 -1.6676 -2.3210  1.6745
  317MOL0     H41794   0.692  11.616   0.049  0.6322 -2.0716  1.4385
  317MOL0     H41795   0.920  11.752   0.118  0.7748 -2.9377 -0.1348
  317MOL0     H41796   0.821  11.808  -0.012  0.3233  1.3868  1.0363
  317MOL0     H41797   1.135  11.567   0.023 -2.9006  0.7847  1.4489
  317MOL0     H41798   1.403  11.720  -0.142  0.0280  1.5075 -2.1302
  317MOL0     H41799   1.341  11.655  -0.286 -2.3800  0.8139 -0.0325
  317MOL0     H41800   1.484  11.493  -0.187 -0.1094 -0.2932  0.3932
  317MOL0     H41801   1.326  11.435  -0.138 -2.3935  1.8727  2.3096
  317MOL0     H41802   1.351  11.510   0.085  1.1993 -1.4779  0.5486
  317MOL0     H41803   1.486  11.418   0.037 -0.5575  0.1846  1.5693
  317MOL0     H41804   1.496  11.730   0.058  1.1003  0.7342 -3.2322
  317MOL0     H41805   1.627  11.634  -0.007  0.3839  1.1504 -0.4583
  317MOL0     H41806   1.722  11.443   0.040 -2.6965  2.8503  1.3227
  317MOL0     H41807   1.907  11.302   0.126 -0.1144 -0.9890  0.8518
  317MOL0     H41808   2.295  11.397   0.341  2.9503 -1.3863  0.8433
  317MOL0     H41809   2.525  11.394   0.424 -0.4538  2.6335  0.3456
  317MOL0     H41810   2.600  11.180   0.814 -0.2024 -1.3739  2.4451
  317MOL0     H41811   2.643  11.341   0.857  0.0129 -1.6284  1.3217
  317MOL0     H41812   2.829  11.227   0.870 -0.7760 -3.1907  0.7721
  317MOL0     H41813   2.851  11.290   0.702 -0.4390 -1.5744 -0.9354
  317MOL0     H41814   2.781  11.089   0.589 -0.2320  1.2514  0.5384
  317MOL0     H41815   2.755  11.004   0.729 -0.4355  0.7850  1.1617
  317MOL0     H41816   3.011  11.152   0.755  0.7580 -1.0323  3.4309
  317MOL0     H41817   2.929  11.012   0.832 -0.0783 -1.2744 -1.0295
  317MOL0     H41818   3.088  11.015   0.569 -0.4434 -1.5990 -1.4792
  317MOL0     H41819   2.937  10.904   0.586 -2.9157  3.1444  0.1332
  317MOL0     H41820   3.021  10.790   0.766  0.6968 -3.5246 -2.0107
  317MOL0     H41821   3.180  10.881   0.751  0.6852 -1.0222 -1.0923
  317MOL0     H41822   3.218  10.672   0.663 -1.2372  1.4992  0.7128
  317MOL0     H41823   3.063  10.668   0.596  0.7364 -2.3159  0.4201
  317MOL0     H41824   3.291  10.696   0.451  2.4249  0.5355  3.3878
  317MOL0     H41825   3.250  10.871   0.490  0.7159 -0.3962  0.5619
  317MOL0     H41826   2.395  11.249   0.807 -0.7377 -2.7412 -0.8143
  317MOL0     H41827   2.157  11.266   0.732  1.1771 -2.9516 -0.5357
  317MOL0     H41828   1.890  11.491   0.503 -1.8747  2.5157  0.6242
  317MOL0     H41829   1.674  11.631   0.412 -1.1044 -0.8896  0.7529
  317MOL0     H41830   1.459  11.430   0.585 -0.3631 -0.3457  2.4166
  317MOL0     H41831   1.690  11.305   0.559  1.5352 -4.0028  1.3149
  317MOL0     H41832   2.035  11.037   0.411  0.9627  0.1137  0.6663
  317MOL0     H41833   2.266  10.992   0.466  0.0498  0.8170 -1.0592
  317MOL0     H41834   2.551  10.874   0.657  0.3682  0.8113 -1.5983
  317MOL0     H41835   2.463  10.968   0.549 -1.5841  0.6818  0.4622
  317MOL0     H41836   2.435  10.671   0.591 -0.5796  3.1064  2.6462
  317MOL0     H41837   2.331  10.749   0.484 -0.5459  0.0349 -0.5936
  317MOL0     H41838   2.510  10.613   0.381 -0.1995 -0.2706  1.9392
  317MOL0     H41839   2.628  10.732   0.453 -0.5462  1.1782  1.2976
  317MOL0     H41840   2.608  10.766   0.207  1.1152  0.3505  1.0524
  317MOL0     H41841   2.425  10.751   0.210 -0.4692  1.4659 -0.9462
  317MOL0     H41842   2.455  11.161   0.260  0.0003 -0.3492 -1.8446
  317MOL0     H41843   2.152  10.899   0.865 -1.2965  0.1473 -0.0939
  317MOL0     H41844   1.927  10.984   0.822  1.4042 -0.2604  0.8988
  318MOL0     O41845   0.490   3.855   0.129 -0.4358  0.3912 -0.2827
  318MOL0     C41846   0.583   3.903   0.198 -0.5294  1.0120 -0.6069
  318MOL0     O41847   0.671   3.998   0.155 -0.2403 -0.4532  0.5589
  318MOL0     C41848   0.640   4.059   0.039 -0.2186  0.1439  1.1946
  318MOL0     C41849   0.577   4.185   0.037  0.3744 -0.4564 -0.2411
  318MOL0     C41850   0.546   4.251  -0.087  0.0645 -0.0816 -0.7771
  318MOL0     C41851   0.578   4.191  -0.205  0.4702  0.4960  0.2223
  318MOL0     O41852   0.569   4.237  -0.329 -0.7931 -0.6431  0.5942
  318MOL0     C41853   0.627   4.371  -0.357 -1.0111  0.0420  0.8030
  318MOL0     C41854   0.707   4.372  -0.491  0.6653 -0.3841 -1.0652
  318MOL0     C41855   0.815   4.255  -0.504 -0.4447 -0.4264 -0.4052
  318MOL0     C41856   0.898   4.259  -0.637  0.1483  0.0638 -0.1152
  318MOL0     C41857   1.028   4.176  -0.615 -0.2749  0.2440 -0.1181
  318MOL0     C41858   0.987   4.025  -0.642 -0.5882 -0.1257  0.8467
  318MOL0     C41859   1.117   3.943  -0.667 -0.1080  0.0107  0.6588
  318MOL0     C41860   1.204   3.903  -0.546 -0.2906  0.3464 -0.4697
  318MOL0     N41861   1.304   3.809  -0.587  0.2925 -0.3877 -0.1842
  318MOL0     C41862   1.305   3.674  -0.561  0.3400 -0.4024  1.1841
  318MOL0     C41863   1.426   3.629  -0.592  0.8958 -0.4836 -0.3570
  318MOL0     C41864   1.457   3.486  -0.573 -1.6401  0.0375 -0.4105
  318MOL0     C41865   1.581   3.441  -0.645 -0.4184 -0.4704 -0.0213
  318MOL0     C41866   1.570   3.466  -0.804  0.0922  0.0679 -0.5824
  318MOL0     C41867   1.705   3.438  -0.882  0.5767 -0.2846  0.2927
  318MOL0     O41868   1.753   3.312  -0.834 -0.2037 -0.0150 -0.0612
  318MOL0     C41869   1.823   3.228  -0.917 -0.3729  0.0418 -0.0715
  318MOL0     C41870   1.897   3.263  -1.031 -0.2402 -0.3170 -0.0610
  318MOL0     C41871   1.961   3.165  -1.100 -0.8052 -0.8884  0.4380
  318MOL0     C41872   1.971   3.034  -1.054  1.4493 -0.0980 -0.9262
  318MOL0     C41873   2.053   2.932  -1.121  0.4700 -0.4380  0.5672
  318MOL0     O41874   2.151   2.990  -1.200  0.2495 -0.5971 -0.4745
  318MOL0     C41875   2.220   2.928  -1.298 -0.5001  0.1634 -0.1864
  318MOL0     C41876   2.177   2.804  -1.360 -0.5465 -0.7162 -0.2102
  318MOL0     C41877   2.264   2.738  -1.449 -0.2545 -1.1464 -0.3005
  318MOL0     C41878   2.396   2.791  -1.485  0.5998 -0.2751 -0.1495
  318MOL0     O41879   2.492   2.718  -1.547  0.2616  0.3743  0.4420
  318MOL0     C41880   2.476   2.734  -1.691  0.2220 -0.0540 -0.3868
  318MOL0     C41881   2.611   2.716  -1.768  0.3170 -0.5238  0.0680
  318MOL0     C41882   2.720   2.809  -1.715  0.5173 -0.8399 -0.0578
  318MOL0     C41883   2.852   2.792  -1.798 -0.2277 -0.4225 -0.3474
  318MOL0     C41884   2.854   2.828  -1.951  0.4443  0.4376 -1.1411
  318MOL0     C41885   2.761   2.945  -1.979 -0.7904 -0.2650 -0.8180
  318MOL0     C41886   2.759   2.995  -2.120  0.0101 -0.0632 -0.4682
  318MOL0     C41887   2.651   3.099  -2.141  0.6455  1.2067  0.6190
  318MOL0    Cl41888   2.660   3.249  -2.041 -0.1898  0.1242 -0.5916
  318MOL0     C41889   2.433   2.906  -1.417 -0.5457  0.6036  0.2000
  318MOL0     C41890   2.351   2.977  -1.322 -0.1859 -0.0004 -0.0598
  318MOL0     O41891   2.033   2.813  -1.110 -0.1724 -0.0238  0.8001
  318MOL0     C41892   1.894   2.997  -0.942 -0.6212  0.0436 -0.3913
  318MOL0     C41893   1.827   3.098  -0.874 -0.3412 -0.5766 -0.7947
  318MOL0     N41894   1.495   3.736  -0.647 -0.3468 -0.2060 -0.2161
  318MOL0     N41895   1.426   3.839  -0.640  0.4320 -0.6222 -0.0486
  318MOL0     C41896   0.633   4.057  -0.199  0.5359 -0.6236  0.0182
  318MOL0     C41897   0.672   4.000  -0.082  0.7918  0.5685 -0.0860
  318MOL0     C41898   0.616   3.827   0.319 -0.4380  0.0213 -0.0456
  318MOL0     C41899   0.537   3.711   0.360 -0.0483  0.3668 -0.1280
  318MOL0     C41900   0.573   3.636   0.463  0.4867 -0.4105 -0.0491
  318MOL0     C41901   0.688   3.659   0.538 -0.0250 -0.0107  0.0500
  318MOL0     O41902   0.740   3.570   0.629 -0.3807 -0.1269  0.4342
  318MOL0     C41903   0.681   3.447   0.662 -0.7958  0.8687  0.1466
  318MOL0     C41904   0.726   3.330   0.575  0.0122  0.4703 -0.2012
  318MOL0     C41905   0.660   3.208   0.643  0.2352 -0.0113 -0.0240
  318MOL0     C41906   0.692   3.059   0.582  0.1886  1.6746 -1.1842
  318MOL0     C41907   0.714   3.067   0.433  1.4104 -0.2221  0.1689
  318MOL0     C41908   0.715   3.079   0.316  0.8266 -0.6900  0.7711
  318MOL0     C41909   0.755   3.778   0.515 -0.0842 -0.7570  0.4473
  318MOL0     C41910   0.713   3.866   0.415 -0.4220 -0.4072  0.8315
  318MOL0     H41911   0.557   4.233   0.132 -1.1021  0.0400 -0.7760
  318MOL0     H41912   0.513   4.354  -0.089 -0.2334 -0.0362  2.1319
  318MOL0     H41913   0.692   4.402  -0.275 -2.1993  1.2105  1.3414
  318MOL0     H41914   0.552   4.451  -0.360 -1.1219 -0.0468 -2.0213
  318MOL0     H41915   0.760   4.465  -0.514 -0.4189  1.1475  2.0208
  318MOL0     H41916   0.636   4.366  -0.574 -1.7033 -0.5785  0.8442
  318MOL0     H41917   0.759   4.162  -0.488 -0.1568 -0.6206 -0.5158
  318MOL0     H41918   0.885   4.257  -0.420  1.7165  0.5178 -2.1043
  318MOL0     H41919   0.846   4.212  -0.721  0.9966 -3.8733  1.3383
  318MOL0     H41920   0.912   4.361  -0.674 -2.6066  0.0425 -1.4868
  318MOL0     H41921   1.076   4.196  -0.519  1.7563  0.7967 -1.2099
  318MOL0     H41922   1.102   4.214  -0.686 -0.1303  0.4665  0.1517
  318MOL0     H41923   0.932   4.026  -0.736  0.6494  0.1953  0.0971
  318MOL0     H41924   0.930   3.978  -0.561 -1.1170  0.3823  0.7734
  318MOL0     H41925   1.103   3.847  -0.719  5.1400 -2.2397  2.6780
  318MOL0     H41926   1.189   4.000  -0.727  0.2664  1.4008  2.3602
  318MOL0     H41927   1.131   3.860  -0.477  0.3660 -2.5968 -1.4580
  318MOL0     H41928   1.244   3.995  -0.504 -0.5450 -0.2460  1.1346
  318MOL0     H41929   1.225   3.609  -0.527  0.1643  0.3315  2.1949
  318MOL0     H41930   1.371   3.425  -0.603  1.6931 -4.7457 -1.5116
  318MOL0     H41931   1.475   3.469  -0.466  2.2278  1.0269 -0.7530
  318MOL0     H41932   1.606   3.336  -0.627 -0.7212 -1.0810 -2.7275
  318MOL0     H41933   1.665   3.504  -0.615  0.0120 -1.3436  0.6472
  318MOL0     H41934   1.487   3.410  -0.848 -2.3896  2.3678  0.7973
  318MOL0     H41935   1.551   3.571  -0.830 -1.0047 -0.8226 -3.7743
  318MOL0     H41936   1.773   3.523  -0.864  0.6180 -0.5877  1.7213
  318MOL0     H41937   1.679   3.442  -0.988 -3.0907  0.8837  1.1049
  318MOL0     H41938   1.895   3.365  -1.070 -1.1759 -0.6715 -0.9921
  318MOL0     H41939   2.004   3.201  -1.193 -2.4675  0.6404  0.2068
  318MOL0     H41940   2.079   2.756  -1.365 -1.2838  0.4160  1.8625
  318MOL0     H41941   2.231   2.648  -1.501 -3.1323  0.5309 -1.6239
  318MOL0     H41942   2.442   2.836  -1.705  0.1851 -0.2360 -1.7388
  318MOL0     H41943   2.397   2.681  -1.745  1.2613 -2.7291  0.5191
  318MOL0     H41944   2.596   2.724  -1.876  4.2367 -1.6253 -0.7496
  318MOL0     H41945   2.639   2.613  -1.744 -1.6625 -0.9240  0.7864
  318MOL0     H41946   2.735   2.797  -1.607 -0.4452  0.6068  0.2698
  318MOL0     H41947   2.686   2.912  -1.731  1.3599 -0.3613  1.1128
  318MOL0     H41948   2.921   2.865  -1.754 -0.8121 -0.0368 -0.0601
  318MOL0     H41949   2.899   2.695  -1.780 -0.5828 -0.0020  3.6961
  318MOL0     H41950   2.807   2.743  -2.002 -3.7509  0.6383  1.9307
  318MOL0     H41951   2.956   2.836  -1.992  0.9022 -0.9300 -0.3378
  318MOL0     H41952   2.803   3.028  -1.920  0.6266  0.7254 -3.0988
  318MOL0     H41953   2.661   2.926  -1.940  0.1206 -0.4200  1.6710
  318MOL0     H41954   2.853   3.044  -2.148 -1.2932  3.4444  0.7392
  318MOL0     H41955   2.732   2.914  -2.189 -1.4594  1.4001 -1.6942
  318MOL0     H41956   2.552   3.054  -2.136  1.6463 -1.4478 -1.3010
  318MOL0     H41957   2.673   3.112  -2.247 -1.6894 -3.4669 -0.6943
  318MOL0     H41958   2.535   2.943  -1.418 -1.1492  2.3699 -1.1619
  318MOL0     H41959   2.392   3.065  -1.273 -4.6619  0.3921  3.7214
  318MOL0     H41960   1.896   2.895  -0.904 -0.3446  0.3414  0.4217
  318MOL0     H41961   1.764   3.076  -0.788  0.5992  0.8576  0.3026
  318MOL0     H41962   0.671   4.012  -0.291 -0.5183 -0.5273 -0.4805
  318MOL0     H41963   0.725   3.905  -0.085  1.9606  1.2293 -0.9985
  318MOL0     H41964   0.449   3.667   0.314  0.0062 -2.1410  1.9303
  318MOL0     H41965   0.523   3.540   0.468 -3.4459  1.4484 -0.1865
  318MOL0     H41966   0.572   3.454   0.666 -0.8396  2.3257 -1.6919
  318MOL0     H41967   0.721   3.431   0.762  0.3377  3.1201  0.1341
  318MOL0     H41968   0.671   3.341   0.481 -2.0600  1.4914  1.0635
  318MOL0     H41969   0.833   3.318   0.553  0.2668 -3.5558  2.1518
  318MOL0     H41970   0.552   3.222   0.646 -0.1913 -2.5437 -1.0484
  318MOL0     H41971   0.683   3.211   0.750  1.0037 -1.0863 -0.1386
  318MOL0     H41972   0.768   3.008   0.641 -1.5531 -0.1359 -0.3806
  318MOL0     H41973   0.604   2.994   0.591  2.2007 -1.4564 -2.4898
  318MOL0     H41974   0.714   3.079   0.209 -2.7626 -1.8113  0.6632
  318MOL0     H41975   0.845   3.792   0.574 -0.3257 -2.8022  1.3464
  318MOL0     H41976   0.761   3.962   0.403  2.4179 -1.4973  2.3541
  319MOL0     O41977   1.936   9.435   5.661 -0.0976  0.1454 -0.3812
  319MOL0     C41978   1.964   9.401   5.779 -0.5649 -0.8905 -0.2592
  319MOL0     O41979   2.080   9.418   5.837 -0.7966  0.3721  0.0801
  319MOL0     C41980   2.185   9.458   5.760  0.1400 -0.0467  1.1196
  319MOL0     C41981   2.251   9.578   5.803 -0.0672  1.9569 -0.0857
  319MOL0     C41982   2.348   9.644   5.733 -0.0580 -0.1003  0.4557
  319MOL0     C41983   2.391   9.578   5.614  0.2326  0.3399  0.6327
  319MOL0     O41984   2.494   9.633   5.546  0.2387 -0.1226 -0.0477
  319MOL0     C41985   2.476   9.745   5.461 -0.2192 -0.6196  0.1810
  319MOL0     C41986   2.561   9.724   5.327  0.4747  0.2451  0.1984
  319MOL0     C41987   2.540   9.835   5.231 -0.3893  0.8369 -0.0101
  319MOL0     C41988   2.648   9.835   5.126  0.0390  0.3680  0.6086
  319MOL0     C41989   2.613   9.892   4.987  0.7713 -0.7266 -0.4034
  319MOL0     C41990   2.668   9.820   4.866  0.8988 -0.2073 -1.1989
  319MOL0     C41991   2.681   9.904   4.733 -0.0188  0.4127 -0.9484
  319MOL0     C41992   2.556   9.989   4.708  0.9738 -0.5900 -0.5078
  319MOL0     N41993   2.451   9.921   4.642  0.8813 -0.5825 -0.5377
  319MOL0     C41994   2.403   9.955   4.519 -0.2635 -0.5554 -0.2598
  319MOL0     C41995   2.285   9.883   4.507  0.3183 -1.0036  0.2717
  319MOL0     C41996   2.179   9.879   4.385 -0.3126  0.3980 -0.3932
  319MOL0     C41997   2.045   9.799   4.398 -0.3882 -0.8741  0.2851
  319MOL0     C41998   1.944   9.872   4.496 -0.5401 -0.2295 -0.1023
  319MOL0     C41999   1.829   9.774   4.506  0.7921  0.4243 -0.2762
  319MOL0     O42000   1.719   9.824   4.580  0.6622 -0.1058  0.2292
  319MOL0     C42001   1.614   9.744   4.623 -0.1130 -0.0224 -0.0105
  319MOL0     C42002   1.601   9.613   4.579  0.0881  0.0990  0.1694
  319MOL0     C42003   1.501   9.531   4.625  0.4301  0.0701  0.0115
  319MOL0     C42004   1.408   9.575   4.723 -0.1053  0.4154 -0.1549
  319MOL0     C42005   1.281   9.498   4.760  0.2104 -0.4836 -0.3708
  319MOL0     O42006   1.196   9.551   4.855  0.1565 -0.8868 -0.2293
  319MOL0     C42007   1.069   9.502   4.881 -0.7778  0.5140  1.0596
  319MOL0     C42008   1.047   9.380   4.957 -0.2418  0.0734 -0.2093
  319MOL0     C42009   0.920   9.315   4.955  0.1599 -0.0067  0.1434
  319MOL0     C42010   0.807   9.377   4.894  0.3757  0.4158  0.9332
  319MOL0     O42011   0.679   9.316   4.885  0.2824 -0.0146  0.3274
  319MOL0     C42012   0.664   9.200   4.967  1.2769  0.6133 -1.2047
  319MOL0     C42013   0.542   9.117   4.914 -0.0061  0.1785 -0.3561
  319MOL0     C42014   0.528   9.004   5.004 -0.3118 -1.1244  0.1986
  319MOL0     C42015   0.388   8.941   4.972  0.4380 -0.6759 -0.1006
  319MOL0     C42016   0.385   8.797   5.035  0.5573  0.2728 -0.3659
  319MOL0     C42017   0.249   8.754   5.087 -0.5937 -0.9661 -0.6832
  319MOL0     C42018   0.194   8.830   5.213  0.0625 -1.1532 -0.3737
  319MOL0     C42019   0.046   8.830   5.226 -0.3914  0.7661 -0.4350
  319MOL0    Cl42020  -0.006   8.895   5.377  0.4640 -0.0145  0.5232
  319MOL0     C42021   0.832   9.510   4.840 -0.0208  0.2817  0.9608
  319MOL0     C42022   0.954   9.572   4.836 -0.4830  0.2618 -0.9967
  319MOL0     O42023   1.269   9.390   4.709 -0.5377 -0.2030  0.2937
  319MOL0     C42024   1.417   9.710   4.771  0.7702  0.1048 -0.0753
  319MOL0     C42025   1.522   9.788   4.726 -1.0588  0.2230 -1.2876
  319MOL0     N42026   2.258   9.813   4.625 -0.4148 -0.1967  0.5346
  319MOL0     N42027   2.355   9.844   4.702 -0.0463  0.5113  0.8612
  319MOL0     C42028   2.330   9.462   5.561  0.1287 -0.5253 -0.6508
  319MOL0     C42029   2.226   9.410   5.640 -0.5480 -0.5313  1.7083
  319MOL0     C42030   1.845   9.356   5.856 -0.0267 -0.5027  0.2178
  319MOL0     C42031   1.853   9.286   5.972 -0.5340  0.2151 -0.4407
  319MOL0     C42032   1.745   9.250   6.048  0.2329 -0.9693 -0.0946
  319MOL0     C42033   1.621   9.263   5.992  0.4662  0.1227  0.9129
  319MOL0     O42034   1.522   9.206   6.077 -0.1213 -0.6245 -0.7329
  319MOL0     C42035   1.388   9.193   6.020 -0.8874  0.5068  0.1506
  319MOL0     C42036   1.268   9.129   6.097 -0.9028  0.5410 -0.4707
  319MOL0     C42037   1.240   9.209   6.222 -0.7038 -0.5589  0.0616
  319MOL0     C42038   1.143   9.328   6.193 -0.3294  0.4061 -0.2520
  319MOL0     C42039   1.137   9.420   6.309 -0.5393 -0.4660 -0.3428
  319MOL0     C42040   1.121   9.492   6.400 -0.5950 -0.2690 -1.7456
  319MOL0     C42041   1.609   9.305   5.856 -0.9441  1.8709 -0.2039
  319MOL0     C42042   1.717   9.337   5.790 -0.3564 -0.0292  0.4700
  319MOL0     H42043   2.213   9.628   5.891  4.2338  0.0266  3.1938
  319MOL0     H42044   2.375   9.743   5.766  0.0680  0.3499 -0.9197
  319MOL0     H42045   2.515   9.832   5.514  1.1337 -1.7740  1.1517
  319MOL0     H42046   2.371   9.759   5.431 -0.7252  0.6389  2.3405
  319MOL0     H42047   2.548   9.623   5.285  2.3211  0.8098 -1.8818
  319MOL0     H42048   2.667   9.732   5.349  0.3521 -2.2051  2.0919
  319MOL0     H42049   2.554   9.934   5.276  1.3268  0.5748  0.0821
  319MOL0     H42050   2.442   9.811   5.190 -1.9614  2.0325  2.7430
  319MOL0     H42051   2.741   9.878   5.165  0.8169  1.0003 -1.7624
  319MOL0     H42052   2.662   9.727   5.112 -0.7169  0.0947  1.8102
  319MOL0     H42053   2.655   9.992   4.974  0.0115 -0.5500 -1.7392
  319MOL0     H42054   2.505   9.900   4.975  0.3132 -3.0260  1.4261
  319MOL0     H42055   2.606   9.731   4.857 -0.2401  0.6643 -2.3712
  319MOL0     H42056   2.765   9.784   4.903  0.2856  1.3337  2.3567
  319MOL0     H42057   2.765   9.973   4.720  0.4609 -0.0615 -0.4216
  319MOL0     H42058   2.688   9.825   4.658 -1.0933 -1.4002  0.7760
  319MOL0     H42059   2.592  10.071   4.646 -0.0359 -0.6575 -1.1953
  319MOL0     H42060   2.504  10.024   4.798 -1.6205  3.5520 -3.3142
  319MOL0     H42061   2.443  10.025   4.447  1.6079 -0.6501  0.6443
  319MOL0     H42062   2.240   9.848   4.300  0.7441 -1.0002  0.8411
  319MOL0     H42063   2.150   9.982   4.361  0.9108  1.5861  2.6889
  319MOL0     H42064   2.059   9.693   4.422  0.3678 -0.1144  3.7823
  319MOL0     H42065   2.000   9.806   4.298  0.6571  6.1673 -0.2075
  319MOL0     H42066   1.982   9.897   4.595 -2.6529  4.8464 -0.2614
  319MOL0     H42067   1.917   9.970   4.457 -1.0648 -1.0414 -1.8999
  319MOL0     H42068   1.875   9.680   4.539  0.0268  0.7264  1.8294
  319MOL0     H42069   1.798   9.750   4.404 -1.0887 -4.7560  1.1754
  319MOL0     H42070   1.672   9.556   4.521 -0.3429  0.6869 -0.9624
  319MOL0     H42071   1.490   9.433   4.580  1.2582  1.0714 -2.5561
  319MOL0     H42072   1.130   9.345   5.018  0.2483 -0.7667 -1.3266
  319MOL0     H42073   0.917   9.224   5.015 -3.4894  0.2643  0.5895
  319MOL0     H42074   0.639   9.234   5.068  0.0721 -3.1169 -0.0804
  319MOL0     H42075   0.747   9.129   4.972  3.0165  2.6184  0.6720
  319MOL0     H42076   0.557   9.076   4.814  0.5272  4.6639 -2.3987
  319MOL0     H42077   0.452   9.180   4.914  1.4295  2.4087 -2.0757
  319MOL0     H42078   0.527   9.043   5.106 -2.5177  0.1600 -0.2397
  319MOL0     H42079   0.611   8.935   4.989  0.5291  0.1860 -1.5990
  319MOL0     H42080   0.317   9.012   5.014 -2.9174 -2.4746 -2.3140
  319MOL0     H42081   0.363   8.940   4.865  1.2443  2.1654 -0.4047
  319MOL0     H42082   0.451   8.797   5.123 -0.8075  0.7481  0.6954
  319MOL0     H42083   0.405   8.716   4.964  0.4567  0.1921 -0.3019
  319MOL0     H42084   0.253   8.647   5.114 -2.4489 -0.8488  0.2795
  319MOL0     H42085   0.185   8.772   5.000  1.5861  3.4230 -1.6462
  319MOL0     H42086   0.236   8.778   5.300  0.4853 -2.6390 -1.4225
  319MOL0     H42087   0.240   8.928   5.223 -0.2607 -0.9325 -1.0072
  319MOL0     H42088   0.014   8.725   5.216  2.1387 -0.1892  0.6765
  319MOL0     H42089   0.013   8.889   5.140  0.0929 -2.9170 -3.4211
  319MOL0     H42090   0.741   9.552   4.799  0.3879 -0.4872 -0.7976
  319MOL0     H42091   0.964   9.670   4.789  2.7472  0.8951  0.7315
  319MOL0     H42092   1.355   9.746   4.853 -0.8390 -1.8853 -0.3254
  319MOL0     H42093   1.554   9.876   4.780  3.0163 -0.8838 -1.6147
  319MOL0     H42094   2.370   9.423   5.467 -0.2601 -2.6541  0.0118
  319MOL0     H42095   2.168   9.323   5.609 -0.3332 -0.0191 -0.2569
  319MOL0     H42096   1.948   9.278   6.024 -0.7435  1.6093  0.2302
  319MOL0     H42097   1.752   9.196   6.141 -0.6189  0.9515  1.1636
  319MOL0     H42098   1.393   9.136   5.926  2.4370  0.1747  0.4177
  319MOL0     H42099   1.365   9.295   5.988  0.3907  0.4434 -1.0927
  319MOL0     H42100   1.181   9.107   6.035  0.2497 -0.6281 -1.7735
  319MOL0     H42101   1.311   9.030   6.116  2.7205  2.6031  4.2965
  319MOL0     H42102   1.333   9.247   6.266 -1.4877  1.5204  0.0358
  319MOL0     H42103   1.199   9.155   6.308  0.0146 -1.4321 -0.1324
  319MOL0     H42104   1.173   9.372   6.097  1.3817 -3.0845 -1.5035
  319MOL0     H42105   1.047   9.275   6.184  0.2151 -1.6851  4.0771
  319MOL0     H42106   1.098   9.552   6.485  0.7210 -0.8471 -0.9494
  319MOL0     H42107   1.513   9.293   5.805  0.3269 -2.5109 -2.0352
  319MOL0     H42108   1.698   9.358   5.685  0.8099 -4.0580 -0.7021
  320MOL0     O42109   5.948   4.078   2.045 -0.0021  0.4712  0.2218
  320MOL0     C42110   5.952   4.177   2.121 -1.2656  0.3832 -0.6135
  320MOL0     O42111   5.891   4.195   2.243  0.2402  0.8236  0.1526
  320MOL0     C42112   5.814   4.080   2.288 -0.2479 -0.2543 -0.6970
  320MOL0     C42113   5.876   3.969   2.353  0.0532  0.3708 -0.0652
  320MOL0     C42114   5.793   3.861   2.407  1.3892  0.4974  0.2265
  320MOL0     C42115   5.656   3.881   2.414 -0.1958  0.2682 -0.2984
  320MOL0     O42116   5.567   3.808   2.491 -0.5010  0.4215  0.3553
  320MOL0     C42117   5.595   3.666   2.517 -0.1997  0.0939  0.1136
  320MOL0     C42118   5.463   3.591   2.497  0.4162 -0.7243  0.3794
  320MOL0     C42119   5.346   3.653   2.592  0.5042 -0.4766  0.2998
  320MOL0     C42120   5.200   3.639   2.541  0.4748 -0.9745  0.4336
  320MOL0     C42121   5.165   3.490   2.554 -0.2784 -0.2080 -0.3174
  320MOL0     C42122   5.021   3.476   2.500 -0.2567 -1.1534  0.0286
  320MOL0     C42123   4.974   3.335   2.553 -0.3549 -0.0558  0.3045
  320MOL0     C42124   4.826   3.329   2.562 -0.5412  0.4418 -0.0745
  320MOL0     N42125   4.787   3.197   2.631 -0.6095 -0.0563  0.3615
  320MOL0     C42126   4.776   3.078   2.567  0.8942  0.6468 -0.1361
  320MOL0     C42127   4.712   2.999   2.664 -0.7770 -0.2255  0.2323
  320MOL0     C42128   4.638   2.873   2.643  0.9466  0.6453 -0.1121
  320MOL0     C42129   4.498   2.887   2.582  0.0498  1.0233 -0.6064
  320MOL0     C42130   4.446   2.751   2.544  0.8157  0.1007  0.9255
  320MOL0     C42131   4.347   2.771   2.423 -0.5847 -0.0081  1.4340
  320MOL0     O42132   4.318   2.642   2.362 -0.1102  0.1828  0.1388
  320MOL0     C42133   4.285   2.532   2.448 -1.0701 -1.7906  0.4940
  320MOL0     C42134   4.366   2.423   2.445 -1.1240  0.4573  0.6529
  320MOL0     C42135   4.333   2.315   2.518 -0.0544 -0.0578  0.4350
  320MOL0     C42136   4.213   2.308   2.590 -1.1955 -0.1178  0.5876
  320MOL0     C42137   4.182   2.179   2.658 -0.5278 -0.4678  0.7844
  320MOL0     O42138   4.264   2.073   2.630  0.4397  0.4015 -0.7094
  320MOL0     C42139   4.237   1.948   2.689  0.8410  0.6653  0.6908
  320MOL0     C42140   4.188   1.939   2.820  0.1412  0.2968 -0.2424
  320MOL0     C42141   4.187   1.812   2.891  1.0669 -0.1589  0.2039
  320MOL0     C42142   4.210   1.692   2.814 -0.4694 -0.3773  0.8866
  320MOL0     O42143   4.231   1.568   2.874  0.0157 -0.2140 -0.6971
  320MOL0     C42144   4.189   1.536   3.008  0.1293  0.0918 -0.3478
  320MOL0     C42145   4.172   1.388   3.023  0.8924  0.0740  0.1928
  320MOL0     C42146   4.288   1.310   2.954  0.3251 -0.0606  0.3107
  320MOL0     C42147   4.416   1.360   3.018  0.6007  0.2244 -0.3330
  320MOL0     C42148   4.541   1.266   2.998 -0.0104 -0.0753  0.0797
  320MOL0     C42149   4.577   1.255   2.852  0.0428  0.8936  0.0705
  320MOL0     C42150   4.711   1.175   2.852 -0.0753 -0.7202  0.9213
  320MOL0     C42151   4.688   1.024   2.840  0.3081  0.9063  0.2223
  320MOL0    Cl42152   4.835   0.936   2.906 -0.4477  0.1585  0.0452
  320MOL0     C42153   4.263   1.709   2.683 -0.4696  0.8339  0.3914
  320MOL0     C42154   4.283   1.832   2.621  0.1063 -0.2400 -1.5461
  320MOL0     O42155   4.075   2.180   2.720 -0.9840 -0.1624 -0.1294
  320MOL0     C42156   4.127   2.429   2.604  0.1060 -0.3914  0.4311
  320MOL0     C42157   4.167   2.537   2.522  0.3355  0.6840  0.0666
  320MOL0     N42158   4.701   3.072   2.783  0.5932 -0.3678 -0.6321
  320MOL0     N42159   4.744   3.188   2.757  0.3293 -0.3720  0.0472
  320MOL0     C42160   5.603   4.005   2.363  0.8825  0.3300  0.0672
  320MOL0     C42161   5.675   4.101   2.296 -0.0634  0.1355  0.1887
  320MOL0     C42162   6.031   4.295   2.080  0.0801 -0.8837 -0.3432
  320MOL0     C42163   6.065   4.404   2.166  0.0698 -0.2330 -0.3251
  320MOL0     C42164   6.124   4.515   2.116  0.0896  0.0410  0.6259
  320MOL0     C42165   6.152   4.527   1.979  0.4400  0.1906  0.3942
  320MOL0     O42166   6.193   4.647   1.918  0.4416 -0.3975 -0.6620
  320MOL0     C42167   6.170   4.768   2.004 -0.2236  0.6952  0.1338
  320MOL0     C42168   6.168   4.894   1.924  0.0772 -0.7293  0.2271
  320MOL0     C42169   6.306   4.940   1.886 -0.2740 -0.5840  0.3330
  320MOL0     C42170   6.318   5.086   1.835  0.0673 -0.1839  0.1361
  320MOL0     C42171   6.279   5.111   1.694  0.4143 -0.6130  1.3734
  320MOL0     C42172   6.220   5.120   1.585  0.3859 -0.7142  0.6003
  320MOL0     C42173   6.123   4.416   1.895 -0.9333 -1.1462  0.0231
  320MOL0     C42174   6.057   4.310   1.944 -0.2009 -0.7267  0.3202
  320MOL0     H42175   5.983   3.971   2.374 -0.3881  0.7761  2.5127
  320MOL0     H42176   5.848   3.783   2.457  1.5398  0.7311  0.4280
  320MOL0     H42177   5.628   3.652   2.620 -0.7437  0.5598  0.3590
  320MOL0     H42178   5.676   3.631   2.453 -1.2099 -1.8727 -0.1591
  320MOL0     H42179   5.469   3.488   2.531 -2.1049 -0.1006  3.0707
  320MOL0     H42180   5.429   3.587   2.393 -2.2074 -1.4988  1.1970
  320MOL0     H42181   5.364   3.760   2.608 -1.3653 -0.2124  0.8541
  320MOL0     H42182   5.349   3.612   2.693 -0.0710  2.9250  1.8517
  320MOL0     H42183   5.143   3.711   2.601 -0.6449 -0.0892 -1.5936
  320MOL0     H42184   5.184   3.679   2.441  0.5836  2.1280  1.5259
  320MOL0     H42185   5.168   3.456   2.658 -1.7513  1.2868  0.2501
  320MOL0     H42186   5.232   3.432   2.490 -1.8624  0.7588 -2.9935
  320MOL0     H42187   5.020   3.489   2.391 -1.9771 -0.3871  0.1014
  320MOL0     H42188   4.954   3.549   2.546 -0.3703 -1.3632  0.2005
  320MOL0     H42189   5.009   3.267   2.476  1.6849 -1.1423  2.0736
  320MOL0     H42190   5.022   3.310   2.648  0.1569 -1.4841 -0.3029
  320MOL0     H42191   4.778   3.329   2.463 -0.8902 -2.4517 -0.0156
  320MOL0     H42192   4.786   3.412   2.620 -0.0975  1.1519 -0.7778
  320MOL0     H42193   4.801   3.054   2.464  3.0151  0.7740  0.3092
  320MOL0     H42194   4.634   2.835   2.745  1.3165  0.2973 -0.2230
  320MOL0     H42195   4.698   2.804   2.583  0.6718  1.4137 -1.3007
  320MOL0     H42196   4.530   2.939   2.491  2.5321 -1.6806 -1.4011
  320MOL0     H42197   4.433   2.934   2.656 -0.8890  0.6158 -1.1617
  320MOL0     H42198   4.522   2.691   2.494 -2.1902 -1.6371 -1.9251
  320MOL0     H42199   4.405   2.699   2.630 -2.1324 -3.5733 -2.3643
  320MOL0     H42200   4.396   2.839   2.353  0.8348 -0.6079  1.7919
  320MOL0     H42201   4.254   2.823   2.447  1.1573  3.8989  0.4825
  320MOL0     H42202   4.455   2.420   2.383 -1.5815  2.1655 -0.1350
  320MOL0     H42203   4.406   2.235   2.516  3.1500  2.6248 -1.3545
  320MOL0     H42204   4.187   2.029   2.881  0.6125 -1.6233  2.7846
  320MOL0     H42205   4.153   1.812   2.994 -0.3759 -0.6770 -0.2460
  320MOL0     H42206   4.091   1.583   3.020  2.0441  4.0171  1.6141
  320MOL0     H42207   4.261   1.578   3.079  0.9036 -1.0169 -0.4500
  320MOL0     H42208   4.081   1.356   2.972  2.8992  0.6388 -4.2014
  320MOL0     H42209   4.161   1.367   3.129  3.0097  2.2739  0.9357
  320MOL0     H42210   4.285   1.323   2.846 -0.5972 -0.2204  0.3144
  320MOL0     H42211   4.279   1.202   2.964 -0.2875 -0.2300 -1.6453
  320MOL0     H42212   4.443   1.457   2.976  1.7213  0.3875  0.6756
  320MOL0     H42213   4.415   1.384   3.125 -0.6933  1.9007 -0.6859
  320MOL0     H42214   4.512   1.169   3.039  1.8636 -0.9135 -0.4532
  320MOL0     H42215   4.621   1.298   3.066 -0.8180 -0.4773  1.2601
  320MOL0     H42216   4.599   1.356   2.815  3.7776 -0.1218 -0.8788
  320MOL0     H42217   4.497   1.197   2.805 -0.9139 -0.5489  3.2089
  320MOL0     H42218   4.782   1.214   2.779 -1.0885  0.1388  0.3622
  320MOL0     H42219   4.761   1.186   2.948  1.1142  0.3473  0.2066
  320MOL0     H42220   4.679   0.992   2.735  0.6961  0.4747  0.3157
  320MOL0     H42221   4.604   0.994   2.904 -0.4256  2.2380 -0.0803
  320MOL0     H42222   4.283   1.620   2.624 -0.0105 -0.6144  2.5815
  320MOL0     H42223   4.334   1.834   2.526  0.7286 -0.0786 -1.2167
  320MOL0     H42224   4.027   2.425   2.646  0.3627  1.0540  1.2222
  320MOL0     H42225   4.125   2.636   2.529  0.1089  0.5406  0.9357
  320MOL0     H42226   5.502   4.035   2.388  0.1563 -2.4892  0.9145
  320MOL0     H42227   5.640   4.196   2.257  0.5911  0.3341  0.0687
  320MOL0     H42228   6.051   4.395   2.273  1.8403  2.2364  0.2110
  320MOL0     H42229   6.147   4.587   2.194  1.2987 -3.7694  4.1453
  320MOL0     H42230   6.255   4.787   2.070 -1.0695  1.5346  1.0152
  320MOL0     H42231   6.077   4.752   2.060 -0.3125 -1.9945 -0.6508
  320MOL0     H42232   6.098   4.883   1.840 -1.3753  2.3178  0.8947
  320MOL0     H42233   6.116   4.970   1.984 -1.2772 -1.1542 -0.3603
  320MOL0     H42234   6.352   4.871   1.814  0.3764  0.7020 -0.5222
  320MOL0     H42235   6.372   4.944   1.973 -1.7682  1.8102  1.4479
  320MOL0     H42236   6.263   5.150   1.905  1.2155 -0.9176  1.7631
  320MOL0     H42237   6.423   5.115   1.847  0.2030 -1.1414  1.3815
  320MOL0     H42238   6.173   5.114   1.489  1.0985 -0.5583  0.2300
  320MOL0     H42239   6.141   4.428   1.788  2.7635  1.7872  0.7874
  320MOL0     H42240   6.020   4.232   1.878 -3.4883  0.0981  0.9943
  321MOL0     O42241   3.820   7.637   8.023  0.1015  0.9016 -0.0385
  321MOL0     C42242   3.912   7.670   7.945 -0.4688  0.2842 -0.8327
  321MOL0     O42243   3.900   7.703   7.816 -0.7268 -0.4430  0.6424
  321MOL0     C42244   3.789   7.642   7.764  0.0946  0.2839 -0.4268
  321MOL0     C42245   3.803   7.501   7.733  0.6254  0.9795  0.7955
  321MOL0     C42246   3.710   7.452   7.640  0.3585  0.4532 -1.7143
  321MOL0     C42247   3.589   7.513   7.609  0.6169 -0.0651 -0.5035
  321MOL0     O42248   3.503   7.444   7.525 -0.0484 -0.2066  0.4325
  321MOL0     C42249   3.359   7.469   7.512  0.5469 -0.1544  0.7146
  321MOL0     C42250   3.295   7.335   7.527 -0.3782  0.9143  0.3784
  321MOL0     C42251   3.311   7.278   7.675  0.5361 -0.1321  0.5601
  321MOL0     C42252   3.251   7.359   7.787  0.3088 -1.1127 -0.5855
  321MOL0     C42253   3.284   7.298   7.925 -0.8692 -1.2258  0.6483
  321MOL0     C42254   3.330   7.412   8.017  0.8132 -0.0904 -0.1456
  321MOL0     C42255   3.411   7.374   8.142  0.4241 -0.7194 -0.2376
  321MOL0     C42256   3.341   7.278   8.240 -0.0909 -1.1923  0.3117
  321MOL0     N42257   3.373   7.139   8.192  0.1195 -1.0030  0.2804
  321MOL0     C42258   3.491   7.080   8.222  0.4048  0.1495  0.1778
  321MOL0     C42259   3.469   6.958   8.158 -1.3559  1.2628  0.7539
  321MOL0     C42260   3.578   6.859   8.157 -0.5764  1.2879 -0.2510
  321MOL0     C42261   3.607   6.777   8.286 -0.2845 -0.9362 -0.9055
  321MOL0     C42262   3.495   6.683   8.309 -0.2328 -0.2910 -0.1074
  321MOL0     C42263   3.525   6.579   8.418 -0.3612 -0.8668  0.1654
  321MOL0     O42264   3.431   6.568   8.516 -0.2215  0.0428 -0.1653
  321MOL0     C42265   3.448   6.496   8.626 -0.2972  0.0710  0.0041
  321MOL0     C42266   3.570   6.436   8.663  0.0011 -0.2985  0.0853
  321MOL0     C42267   3.580   6.356   8.775  0.8304 -0.2796  0.6680
  321MOL0     C42268   3.479   6.332   8.866 -1.2610  0.1169 -0.6369
  321MOL0     C42269   3.509   6.271   9.005  0.9074 -0.2299  0.8262
  321MOL0     O42270   3.643   6.271   9.031  0.6439 -0.0750  0.2767
  321MOL0     C42271   3.687   6.222   9.151 -0.1141  1.1323  0.4423
  321MOL0     C42272   3.678   6.262   9.280 -0.4353 -0.2958 -0.5470
  321MOL0     C42273   3.713   6.192   9.396 -0.5001  0.3836  0.1014
  321MOL0     C42274   3.781   6.072   9.385 -0.2600 -0.1780  0.9513
  321MOL0     O42275   3.847   6.021   9.495 -0.2002  0.7279  0.0940
  321MOL0     C42276   3.936   5.915   9.475 -0.8216 -0.4903 -0.6380
  321MOL0     C42277   4.020   5.893   9.606  0.6604 -0.6650  0.9641
  321MOL0     C42278   4.098   5.760   9.633  0.5304  1.1757  0.3175
  321MOL0     C42279   4.013   5.668   9.728  0.3623 -0.8920 -0.4902
  321MOL0     C42280   4.036   5.688   9.871  0.0671 -0.2345 -0.2391
  321MOL0     C42281   3.991   5.574   9.946  0.5191  1.0267 -0.6315
  321MOL0     C42282   4.020   5.574  10.098  0.4369 -0.9336 -0.4487
  321MOL0     C42283   4.061   5.434  10.160  0.2567  0.7138 -0.4157
  321MOL0    Cl42284   3.903   5.348  10.174 -0.3300  0.0942 -0.1175
  321MOL0     C42285   3.786   6.013   9.256  0.9057  0.3240  0.0466
  321MOL0     C42286   3.734   6.086   9.132 -0.3307 -1.5243 -1.3105
  321MOL0     O42287   3.411   6.230   9.078  0.4328  0.5549 -0.7931
  321MOL0     C42288   3.353   6.374   8.822  0.1866 -0.9033  0.5887
  321MOL0     C42289   3.333   6.454   8.698  0.0691 -0.7868 -1.3120
  321MOL0     N42290   3.351   6.953   8.100  0.2614 -0.5698  0.2232
  321MOL0     N42291   3.295   7.070   8.111  0.3483  0.4299  0.2424
  321MOL0     C42292   3.573   7.645   7.662 -0.1721  0.4202  0.6004
  321MOL0     C42293   3.665   7.706   7.745 -1.1168 -0.5031  0.4878
  321MOL0     C42294   4.046   7.697   8.013 -0.1278 -0.8417 -0.6801
  321MOL0     C42295   4.151   7.751   7.926 -0.5343 -0.6617  0.2669
  321MOL0     C42296   4.267   7.810   7.988  0.3517  0.2223  0.8256
  321MOL0     C42297   4.289   7.792   8.119 -1.0334  0.1443  0.8971
  321MOL0     O42298   4.413   7.829   8.172 -0.2191  0.0567 -0.6457
  321MOL0     C42299   4.417   7.901   8.293  1.1411  0.7351 -0.6009
  321MOL0     C42300   4.539   7.986   8.323  0.5146  0.6820  0.1859
  321MOL0     C42301   4.560   8.110   8.230 -0.1398  0.2606  0.0324
  321MOL0     C42302   4.644   8.199   8.318  0.0915  0.6516 -0.1551
  321MOL0     C42303   4.572   8.276   8.420 -0.5067  0.0440  0.0760
  321MOL0     C42304   4.538   8.362   8.505  0.1154 -0.2367 -0.5634
  321MOL0     C42305   4.195   7.727   8.198  0.3373  0.2747 -0.3263
  321MOL0     C42306   4.066   7.700   8.154 -1.1127 -1.5139  0.6033
  321MOL0     H42307   3.891   7.444   7.762  0.5726  0.1121 -0.6489
  321MOL0     H42308   3.716   7.351   7.599 -1.5934  0.2214 -1.5244
  321MOL0     H42309   3.345   7.507   7.410  1.5679 -1.9767 -0.1434
  321MOL0     H42310   3.309   7.538   7.580  1.4746  0.5905  0.6755
  321MOL0     H42311   3.336   7.272   7.448  0.7055 -0.0881  1.6861
  321MOL0     H42312   3.193   7.347   7.490 -0.2592 -1.0595 -0.7030
  321MOL0     H42313   3.417   7.252   7.681  0.4091 -0.8499 -0.0770
  321MOL0     H42314   3.253   7.185   7.680 -1.3173  0.7768 -2.0876
  321MOL0     H42315   3.286   7.463   7.786 -2.1648 -0.1784  1.1216
  321MOL0     H42316   3.143   7.357   7.769 -0.0816 -2.5652  1.6388
  321MOL0     H42317   3.365   7.225   7.928 -0.1551 -0.4158  3.1772
  321MOL0     H42318   3.191   7.262   7.969 -1.0778 -0.3849  0.9114
  321MOL0     H42319   3.248   7.472   8.055  0.8766  0.0578 -0.2422
  321MOL0     H42320   3.395   7.479   7.960  1.9817 -1.2837 -0.2827
  321MOL0     H42321   3.503   7.319   8.116  0.5505 -1.4409  1.5948
  321MOL0     H42322   3.440   7.467   8.192  0.9955 -1.5785  1.0815
  321MOL0     H42323   3.234   7.292   8.223  0.0664  0.7456  0.7061
  321MOL0     H42324   3.362   7.310   8.343  1.1228 -0.6005 -0.0923
  321MOL0     H42325   3.581   7.108   8.275  0.5390  1.8643 -0.9005
  321MOL0     H42326   3.673   6.912   8.145  1.1916 -1.9585 -1.9722
  321MOL0     H42327   3.568   6.790   8.073  1.5575  3.2660 -2.2888
  321MOL0     H42328   3.624   6.840   8.373 -0.0354 -0.7911 -1.0580
  321MOL0     H42329   3.698   6.717   8.276  2.6223  2.6818  1.1887
  321MOL0     H42330   3.403   6.742   8.312  0.5857  1.0353  2.8489
  321MOL0     H42331   3.494   6.637   8.210  0.6246 -2.0424  0.6457
  321MOL0     H42332   3.614   6.623   8.463 -0.2658 -1.9506  1.0798
  321MOL0     H42333   3.544   6.487   8.363  0.3541 -0.7759  0.2581
  321MOL0     H42334   3.657   6.443   8.598 -1.5216 -2.0275 -2.2763
  321MOL0     H42335   3.680   6.314   8.789  1.6760  1.5056  0.3347
  321MOL0     H42336   3.635   6.362   9.290  0.4875 -0.0156  0.8839
  321MOL0     H42337   3.702   6.233   9.496 -0.3229  2.0627 -0.5248
  321MOL0     H42338   4.012   5.924   9.397  0.9772 -1.2539  0.9644
  321MOL0     H42339   3.882   5.821   9.453 -2.1714  0.3846 -1.2184
  321MOL0     H42340   3.964   5.917   9.697 -2.7115  0.0200 -1.0794
  321MOL0     H42341   4.096   5.971   9.603 -1.0834  1.2296  2.3886
  321MOL0     H42342   4.197   5.789   9.668  1.2288 -0.3354 -0.3088
  321MOL0     H42343   4.116   5.706   9.539 -1.1756  1.9876 -0.5088
  321MOL0     H42344   3.906   5.673   9.708 -0.1302 -3.6590  0.9605
  321MOL0     H42345   4.042   5.567   9.698  2.4507 -0.7178  0.7391
  321MOL0     H42346   3.983   5.772   9.917  1.8464  0.8213 -0.0439
  321MOL0     H42347   4.143   5.708   9.883  0.5359 -1.2729 -2.3421
  321MOL0     H42348   4.033   5.481   9.907 -0.0173 -0.6663  2.5351
  321MOL0     H42349   3.884   5.550   9.943  0.5927  0.2795  1.1408
  321MOL0     H42350   4.101   5.647  10.106  2.2696 -2.7861 -1.1278
  321MOL0     H42351   3.925   5.603  10.143  0.9022 -1.4843  0.9406
  321MOL0     H42352   4.120   5.447  10.252  1.3292 -0.8005 -0.8652
  321MOL0     H42353   4.125   5.377  10.093 -1.3535  0.4135 -1.7480
  321MOL0     H42354   3.822   5.911   9.250 -1.6386 -0.6105 -0.7669
  321MOL0     H42355   3.746   6.056   9.029  0.4617 -2.0515 -1.0752
  321MOL0     H42356   3.261   6.343   8.870 -0.9572  0.8036 -0.4045
  321MOL0     H42357   3.239   6.487   8.654  0.8898  0.3167 -2.2937
  321MOL0     H42358   3.486   7.705   7.641 -2.4760 -1.9859  2.5741
  321MOL0     H42359   3.650   7.804   7.789 -3.0698 -0.3713 -0.4017
  321MOL0     H42360   4.163   7.748   7.818  2.9042 -1.3378  0.5399
  321MOL0     H42361   4.328   7.861   7.913 -0.1362  3.9377  2.7319
  321MOL0     H42362   4.398   7.820   8.363 -2.6221  2.7086  0.9584
  321MOL0     H42363   4.339   7.978   8.292 -0.8638 -1.1496  0.4432
  321MOL0     H42364   4.503   8.011   8.423  0.9943 -2.0775  1.1278
  321MOL0     H42365   4.629   7.929   8.346 -1.4130 -2.0761  1.4705
  321MOL0     H42366   4.469   8.164   8.203 -0.0491  0.0649 -0.7156
  321MOL0     H42367   4.620   8.076   8.144 -0.9252  1.0948 -0.8721
  321MOL0     H42368   4.719   8.134   8.365 -0.2740  0.0462 -0.3877
  321MOL0     H42369   4.709   8.257   8.252  3.3462 -0.7391  1.5872
  321MOL0     H42370   4.499   8.424   8.584  1.4737 -0.0943  0.0338
  321MOL0     H42371   4.211   7.722   8.306 -0.2723  1.7288 -0.1553
  321MOL0     H42372   3.987   7.684   8.227 -2.0889  1.5179  0.3285
  322MOL0     O42373   8.024   2.296   2.322 -0.0958  0.1456 -0.5251
  322MOL0     C42374   8.120   2.361   2.276 -0.3354  0.1450 -0.4625
  322MOL0     O42375   8.198   2.331   2.166 -1.1443 -0.7919  0.3604
  322MOL0     C42376   8.180   2.206   2.102  0.2938  0.1713  1.1573
  322MOL0     C42377   8.295   2.132   2.085 -0.4641  0.6822 -0.7761
  322MOL0     C42378   8.288   2.007   2.023  0.6587  0.0545  0.2850
  322MOL0     C42379   8.172   1.952   1.973 -1.2471 -0.5693  0.0240
  322MOL0     O42380   8.191   1.826   1.923 -0.4504 -0.2183 -0.7903
  322MOL0     C42381   8.080   1.763   1.861 -0.2638  0.2371 -0.0328
  322MOL0     C42382   7.978   1.720   1.966  0.5598  0.4660  0.7405
  322MOL0     C42383   8.030   1.614   2.051 -0.4880  0.5784  0.7220
  322MOL0     C42384   7.983   1.627   2.199 -0.4411  0.0070 -0.3222
  322MOL0     C42385   8.072   1.731   2.269  0.6863 -0.1815  0.2641
  322MOL0     C42386   8.048   1.731   2.419  1.5691 -0.7361  0.8309
  322MOL0     C42387   8.144   1.838   2.476  0.3858  0.0258 -0.1433
  322MOL0     C42388   8.092   1.982   2.482  0.6328  0.8896  0.4480
  322MOL0     N42389   8.172   2.079   2.561  0.0074  0.1080 -0.3995
  322MOL0     C42390   8.290   2.133   2.519  0.6897  0.3910  0.8316
  322MOL0     C42391   8.325   2.210   2.629 -0.5955 -0.2804 -0.6832
  322MOL0     C42392   8.454   2.293   2.609 -0.1066 -0.0257 -0.0563
  322MOL0     C42393   8.440   2.391   2.497  0.1884 -0.6744  0.5366
  322MOL0     C42394   8.544   2.502   2.495 -0.7867  1.0763 -0.8558
  322MOL0     C42395   8.683   2.455   2.453 -0.7222 -0.4863  0.1528
  322MOL0     O42396   8.683   2.421   2.313 -0.2188 -0.3261  0.4753
  322MOL0     C42397   8.810   2.407   2.274 -0.0081  0.6443  0.1311
  322MOL0     C42398   8.870   2.282   2.252  0.0330  0.3696  0.4655
  322MOL0     C42399   9.004   2.276   2.212 -0.4561  0.2951 -0.1234
  322MOL0     C42400   9.078   2.392   2.190 -0.4118  1.0723  0.3066
  322MOL0     C42401   9.217   2.381   2.145 -0.3361  0.9991 -0.5015
  322MOL0     O42402   9.245   2.284   2.059 -0.4990 -0.5631 -0.1224
  322MOL0     C42403   9.332   2.291   1.951  0.0206  0.3416  0.3902
  322MOL0     C42404   9.379   2.415   1.884  0.6447 -0.3814 -0.2383
  322MOL0     C42405   9.458   2.407   1.768  0.7228  0.1311  0.1231
  322MOL0     C42406   9.480   2.282   1.709  0.3599 -0.3099  0.7559
  322MOL0     O42407   9.548   2.281   1.586  0.8018 -0.3778 -1.4099
  322MOL0     C42408   9.625   2.167   1.547  0.8408  0.5038  0.3208
  322MOL0     C42409   9.776   2.189   1.516  0.0619  1.4339  0.2083
  322MOL0     C42410   9.858   2.261   1.633 -0.5887  0.0438  0.4051
  322MOL0     C42411  10.011   2.252   1.602  0.6873 -0.6397 -0.1385
  322MOL0     C42412  10.095   2.308   1.715  0.5226  0.0780  0.6671
  322MOL0     C42413  10.094   2.226   1.840  0.7030 -1.0806  0.7778
  322MOL0     C42414  10.216   2.278   1.923 -0.4316  0.3873  0.5953
  322MOL0     C42415  10.232   2.194   2.050  0.4116  1.0804 -0.0295
  322MOL0    Cl42416  10.328   2.276   2.171 -0.3961 -0.1629 -0.4703
  322MOL0     C42417   9.442   2.167   1.773  1.0372  0.2320 -0.0349
  322MOL0     C42418   9.361   2.164   1.887 -0.7718 -0.0908  0.5049
  322MOL0     O42419   9.291   2.470   2.174  0.1161 -0.8029  0.1761
  322MOL0     C42420   9.023   2.513   2.220  0.5422  0.0020  0.9609
  322MOL0     C42421   8.888   2.527   2.260 -0.4091 -0.5185  0.3823
  322MOL0     N42422   8.244   2.193   2.743  0.5697  0.5034  0.2922
  322MOL0     N42423   8.155   2.109   2.695  0.4829 -0.1176 -0.2204
  322MOL0     C42424   8.057   2.026   1.993 -0.0595  0.0712 -0.8204
  322MOL0     C42425   8.065   2.157   2.044 -0.0437 -0.5991  0.8391
  322MOL0     C42426   8.146   2.491   2.340 -1.2240  0.4248 -0.7317
  322MOL0     C42427   8.221   2.588   2.278  0.1035 -0.3533  0.2511
  322MOL0     C42428   8.239   2.711   2.351 -0.5130  0.6308 -0.4480
  322MOL0     C42429   8.185   2.733   2.475  0.4656  1.4503  0.8403
  322MOL0     O42430   8.212   2.839   2.538  0.4472 -0.4906  0.1647
  322MOL0     C42431   8.149   2.881   2.672  0.4518  0.3787 -0.4240
  322MOL0     C42432   8.226   2.824   2.789  0.7216  0.4142 -0.6015
  322MOL0     C42433   8.361   2.909   2.811 -0.1467 -0.4002 -0.6559
  322MOL0     C42434   8.418   2.852   2.945 -0.5766  0.1639  0.4209
  322MOL0     C42435   8.548   2.906   2.952 -0.1970  0.4111 -0.2869
  322MOL0     C42436   8.660   2.939   2.974 -0.2123 -0.8189  1.0598
  322MOL0     C42437   8.103   2.631   2.533 -1.5524 -0.0184 -0.4878
  322MOL0     C42438   8.095   2.505   2.479 -0.2097 -1.3928  0.0657
  322MOL0     H42439   8.392   2.155   2.126 -0.8965  1.2556 -0.0416
  322MOL0     H42440   8.376   1.944   2.012 -1.6170 -2.9440 -3.4771
  322MOL0     H42441   8.131   1.682   1.806 -0.4124  1.3245 -1.8673
  322MOL0     H42442   8.035   1.829   1.786  0.3632 -1.1493 -1.7173
  322MOL0     H42443   7.898   1.675   1.906  1.1741 -2.1185  1.7191
  322MOL0     H42444   7.925   1.798   2.021  1.2934 -0.0194  2.1656
  322MOL0     H42445   8.138   1.629   2.051 -0.7203  2.7963 -1.1559
  322MOL0     H42446   8.010   1.513   2.016 -2.0244  1.6655 -1.8023
  322MOL0     H42447   7.878   1.648   2.222 -0.8223 -0.7798 -1.3041
  322MOL0     H42448   8.009   1.529   2.238 -1.1674 -0.6956 -1.5586
  322MOL0     H42449   8.048   1.831   2.230 -2.2453 -1.4879 -1.6072
  322MOL0     H42450   8.178   1.711   2.252  0.8349  1.6977 -1.5232
  322MOL0     H42451   8.059   1.628   2.455 -0.8331 -2.1326 -1.9734
  322MOL0     H42452   7.944   1.761   2.434  2.4095  1.7401  2.1939
  322MOL0     H42453   8.145   1.809   2.582  2.5279 -0.4186 -0.2466
  322MOL0     H42454   8.250   1.833   2.447  0.3493 -0.3239 -0.2159
  322MOL0     H42455   7.994   1.969   2.529 -0.5193  1.6465 -1.6188
  322MOL0     H42456   8.074   2.018   2.380 -1.5833 -2.3468 -0.4508
  322MOL0     H42457   8.334   2.130   2.420 -0.2740 -1.0333  0.4157
  322MOL0     H42458   8.529   2.218   2.580 -2.1081 -3.1803  2.1915
  322MOL0     H42459   8.477   2.350   2.700  3.0743  1.4817 -1.6462
  322MOL0     H42460   8.349   2.452   2.497  0.6441  0.0373 -0.4802
  322MOL0     H42461   8.436   2.343   2.399 -3.8275  3.3156 -1.6329
  322MOL0     H42462   8.507   2.579   2.427  0.6832  1.6963 -0.9805
  322MOL0     H42463   8.552   2.557   2.589  0.3526  1.5096 -1.1853
  322MOL0     H42464   8.712   2.371   2.516 -0.8499  1.0422  2.3594
  322MOL0     H42465   8.760   2.530   2.475  0.5245 -0.9052 -2.4074
  322MOL0     H42466   8.805   2.198   2.274 -0.6113  0.3465 -1.3495
  322MOL0     H42467   9.052   2.182   2.186  0.2137  1.0432 -1.7861
  322MOL0     H42468   9.359   2.517   1.915  1.8156 -0.2106  0.0292
  322MOL0     H42469   9.481   2.502   1.721 -2.0108  0.9097  0.2281
  322MOL0     H42470   9.586   2.120   1.457 -2.4993  4.3125 -0.5312
  322MOL0     H42471   9.635   2.086   1.620  0.3113  1.2649  1.2729
  322MOL0     H42472   9.791   2.249   1.426  4.8488  0.6590  0.2278
  322MOL0     H42473   9.828   2.095   1.494  1.6491  2.0934  0.9499
  322MOL0     H42474   9.834   2.196   1.718  0.2276 -6.1955 -3.5263
  322MOL0     H42475   9.826   2.364   1.652 -2.4103 -0.3676 -0.1804
  322MOL0     H42476  10.046   2.151   1.577  1.5337 -1.0239  2.3924
  322MOL0     H42477  10.015   2.315   1.512 -1.8164 -0.4931 -0.2295
  322MOL0     H42478  10.077   2.414   1.738 -2.7637 -0.4420  1.0269
  322MOL0     H42479  10.189   2.308   1.660 -0.5432  2.6160 -1.4040
  322MOL0     H42480  10.121   2.122   1.821  1.2350 -1.0532  1.3625
  322MOL0     H42481  10.007   2.235   1.906  0.9040 -1.2113  1.0642
  322MOL0     H42482  10.314   2.264   1.877 -0.9605  1.3755 -0.9146
  322MOL0     H42483  10.194   2.383   1.947 -0.5209  0.4598  0.2000
  322MOL0     H42484  10.287   2.101   2.040  0.0089  0.9113 -0.7516
  322MOL0     H42485  10.132   2.175   2.092 -1.2223  2.2425 -3.0711
  322MOL0     H42486   9.451   2.072   1.721 -1.0768  0.3792 -0.7617
  322MOL0     H42487   9.339   2.069   1.936 -0.1988 -0.3224  0.3242
  322MOL0     H42488   9.094   2.594   2.209  0.1069  0.4888  1.5855
  322MOL0     H42489   8.860   2.630   2.283  1.9014  0.7594 -1.9942
  322MOL0     H42490   7.965   1.981   1.956 -1.4351  1.8894  0.2369
  322MOL0     H42491   7.980   2.224   2.043  0.7508  0.4194 -0.2073
  322MOL0     H42492   8.265   2.579   2.179  0.1908 -0.1958  0.2764
  322MOL0     H42493   8.287   2.798   2.306  0.9573 -0.2221 -0.5822
  322MOL0     H42494   8.045   2.849   2.683  1.6292 -2.9358  3.3240
  322MOL0     H42495   8.147   2.991   2.671 -0.8694  0.3812 -0.1651
  322MOL0     H42496   8.162   2.819   2.878 -0.7453  0.3306 -1.6264
  322MOL0     H42497   8.253   2.720   2.771  1.7721  0.2984  1.3863
  322MOL0     H42498   8.328   3.013   2.823  1.0230 -0.1709  0.9951
  322MOL0     H42499   8.437   2.897   2.734  0.8844 -1.7218  0.5137
  322MOL0     H42500   8.348   2.877   3.026 -3.3286  0.1980 -1.8199
  322MOL0     H42501   8.431   2.743   2.942 -2.7473 -0.2747 -5.2985
  322MOL0     H42502   8.763   2.963   2.994 -0.4658  0.7880  0.5797
  322MOL0     H42503   8.075   2.641   2.637 -5.6918  2.2894 -1.6184
  322MOL0     H42504   8.040   2.427   2.531 -0.4718 -0.0126  1.9422
  323MOL0     O42505   4.770   9.875   0.568  0.2879 -0.0283 -0.0858
  323MOL0     C42506   4.725   9.767   0.592  0.2090  0.5099 -0.3630
  323MOL0     O42507   4.748   9.647   0.523 -0.7268  0.3924 -0.1319
  323MOL0     C42508   4.836   9.650   0.421 -0.4351  0.9311 -0.3241
  323MOL0     C42509   4.971   9.632   0.459 -0.2453  0.9546  0.5295
  323MOL0     C42510   5.070   9.632   0.358 -0.0931  0.8002  0.0556
  323MOL0     C42511   5.042   9.663   0.227 -0.3145 -0.3879  0.7501
  323MOL0     O42512   5.143   9.680   0.136  0.7937  0.0750  0.3730
  323MOL0     C42513   5.138   9.804   0.074 -0.2406  0.3803  0.9681
  323MOL0     C42514   5.276   9.845   0.023  0.8232 -0.1382 -0.5403
  323MOL0     C42515   5.266   9.940  -0.100  0.3151  0.9753  0.0362
  323MOL0     C42516   5.407   9.954  -0.169 -0.4406 -0.3853 -0.3521
  323MOL0     C42517   5.391  10.019  -0.309 -1.0199  0.0364  0.0043
  323MOL0     C42518   5.353  10.163  -0.301  0.2567 -0.1432  0.1319
  323MOL0     C42519   5.285  10.224  -0.424 -0.8162 -0.0138  0.7508
  323MOL0     C42520   5.381  10.201  -0.543 -0.0332 -0.5630  0.2018
  323MOL0     N42521   5.512  10.257  -0.518  0.0291  0.6064 -0.1116
  323MOL0     C42522   5.555  10.377  -0.539  0.6856  1.1409  0.0516
  323MOL0     C42523   5.688  10.375  -0.531  0.1133 -0.3182 -0.8071
  323MOL0     C42524   5.777  10.479  -0.566 -0.1361 -0.3407  0.0458
  323MOL0     C42525   5.851  10.547  -0.446  0.5744 -0.8986  0.0230
  323MOL0     C42526   5.955  10.665  -0.504 -0.4289  0.7522  1.1321
  323MOL0     C42527   6.050  10.731  -0.406 -1.5056 -0.7036 -0.3984
  323MOL0     O42528   5.993  10.855  -0.353 -0.7495  0.1970 -0.3653
  323MOL0     C42529   5.985  10.967  -0.429  0.0256 -0.7736 -0.0105
  323MOL0     C42530   5.937  11.088  -0.362 -0.3010  0.0949 -0.3454
  323MOL0     C42531   5.909  11.212  -0.430 -0.3559 -1.1334 -0.4707
  323MOL0     C42532   5.947  11.227  -0.561 -0.2459  0.0619  0.6313
  323MOL0     C42533   5.925  11.352  -0.641 -0.2085  0.4698  0.3182
  323MOL0     O42534   5.829  11.441  -0.601 -0.1238  0.2925  0.0496
  323MOL0     C42535   5.809  11.556  -0.668  0.3634  0.1673  1.1545
  323MOL0     C42536   5.917  11.642  -0.699  0.3624  0.1112 -0.6522
  323MOL0     C42537   5.892  11.750  -0.781  1.7077 -0.8472  0.8864
  323MOL0     C42538   5.763  11.793  -0.820 -0.7348  0.2196  0.3779
  323MOL0     O42539   5.739  11.902  -0.910 -0.8365 -1.3084 -0.6054
  323MOL0     C42540   5.856  11.986  -0.954  0.3203  0.4305  0.0071
  323MOL0     C42541   5.788  12.107  -1.021  0.2969 -0.2002 -0.5639
  323MOL0     C42542   5.727  12.203  -0.915 -0.6794 -0.4275 -0.4851
  323MOL0     C42543   5.578  12.171  -0.879 -0.7205 -1.4059  0.4245
  323MOL0     C42544   5.514  12.282  -0.780  0.4206 -0.7421  0.4228
  323MOL0     C42545   5.573  12.312  -0.639  0.2566 -1.4723  0.1941
  323MOL0     C42546   5.553  12.196  -0.543  0.6434  0.2680  0.4067
  323MOL0     C42547   5.682  12.161  -0.487  1.0378 -0.1569 -1.6420
  323MOL0    Cl42548   5.640  12.007  -0.393 -0.0640 -0.7180 -0.1806
  323MOL0     C42549   5.655  11.713  -0.776 -0.4790  0.0266 -0.5621
  323MOL0     C42550   5.677  11.605  -0.692 -0.0756  1.4291  0.6338
  323MOL0     O42551   5.999  11.362  -0.739 -0.1101 -0.5482 -0.0499
  323MOL0     C42552   5.988  11.108  -0.629 -1.1959 -0.3232 -0.6325
  323MOL0     C42553   6.009  10.981  -0.562 -0.9204  0.1718  0.2051
  323MOL0     N42554   5.727  10.244  -0.501 -0.0437 -0.7177  0.2781
  323MOL0     N42555   5.621  10.177  -0.493  0.1029 -0.6434 -0.5687
  323MOL0     C42556   4.910   9.673   0.191  1.1504  0.5427 -0.1047
  323MOL0     C42557   4.807   9.673   0.286 -0.2284 -1.9333 -1.4079
  323MOL0     C42558   4.617   9.759   0.705  0.1762 -0.4355  0.0642
  323MOL0     C42559   4.562   9.867   0.780  0.3147 -0.4581 -0.4643
  323MOL0     C42560   4.464   9.848   0.883 -0.5303 -0.3295 -1.1239
  323MOL0     C42561   4.422   9.722   0.921  0.6524 -0.3313  0.4649
  323MOL0     O42562   4.325   9.718   1.018 -0.4043 -0.2025 -0.1746
  323MOL0     C42563   4.242   9.599   1.017  0.4835  0.8770 -0.0859
  323MOL0     C42564   4.149   9.592   0.892  0.5307  1.2973 -0.2848
  323MOL0     C42565   4.093   9.723   0.841  1.1347 -0.9751  0.4916
  323MOL0     C42566   3.984   9.710   0.741 -0.0015 -0.3705 -0.0191
  323MOL0     C42567   3.917   9.829   0.713 -0.4751  0.7455 -0.2345
  323MOL0     C42568   3.861   9.935   0.683 -0.0116  0.0029  0.5564
  323MOL0     C42569   4.470   9.619   0.834 -0.0964  0.4480  0.0317
  323MOL0     C42570   4.562   9.638   0.732 -0.1837  0.8205 -1.0560
  323MOL0     H42571   4.992   9.625   0.565  1.0512  0.4469  0.2563
  323MOL0     H42572   5.168   9.623   0.403 -0.0974 -1.6987 -0.3158
  323MOL0     H42573   5.094   9.880   0.139 -0.1000  2.2834 -1.0629
  323MOL0     H42574   5.068   9.796  -0.009 -0.9487  0.0508  1.5835
  323MOL0     H42575   5.335   9.755   0.004 -0.3261 -1.0241 -0.0298
  323MOL0     H42576   5.337   9.895   0.097 -0.7931 -2.3871  2.5463
  323MOL0     H42577   5.213  10.030  -0.068 -3.1830 -0.9960  0.3394
  323MOL0     H42578   5.198   9.888  -0.167  2.6691 -0.0219 -1.7247
  323MOL0     H42579   5.475  10.015  -0.109 -0.2231  1.4574 -2.3414
  323MOL0     H42580   5.461   9.860  -0.185  1.2755  0.4783  0.1262
  323MOL0     H42581   5.320   9.955  -0.362  0.4663 -4.3324  2.8071
  323MOL0     H42582   5.482  10.007  -0.369 -1.2880  2.8499 -1.1377
  323MOL0     H42583   5.424  10.229  -0.251 -2.1233  0.0173  3.6884
  323MOL0     H42584   5.272  10.169  -0.228  2.2080  0.0444  2.4258
  323MOL0     H42585   5.184  10.184  -0.440 -1.0417  1.0922 -0.7534
  323MOL0     H42586   5.276  10.331  -0.406 -2.0526 -0.2114  1.4511
  323MOL0     H42587   5.343  10.256  -0.629  1.6335 -0.6844 -0.6630
  323MOL0     H42588   5.387  10.094  -0.565  0.3599 -0.2485 -1.3317
  323MOL0     H42589   5.498  10.467  -0.559 -0.3878  0.3235 -0.6322
  323MOL0     H42590   5.711  10.553  -0.612 -1.3988 -1.1986  0.4291
  323MOL0     H42591   5.847  10.434  -0.637 -0.3211  0.8689 -0.9465
  323MOL0     H42592   5.909  10.476  -0.387  2.5898 -0.5904 -1.4564
  323MOL0     H42593   5.786  10.590  -0.370  1.2166  0.1976 -0.0285
  323MOL0     H42594   6.011  10.617  -0.584 -2.5304 -0.0271  0.0558
  323MOL0     H42595   5.879  10.727  -0.553 -3.7435 -2.0806  2.2357
  323MOL0     H42596   6.155  10.746  -0.434 -0.8817 -1.9401  1.1224
  323MOL0     H42597   6.052  10.662  -0.321  1.3742 -1.2543 -0.8258
  323MOL0     H42598   5.910  11.076  -0.258 -0.2370 -1.5320 -0.4933
  323MOL0     H42599   5.852  11.285  -0.375  0.3896  0.6083 -1.9165
  323MOL0     H42600   6.009  11.619  -0.645 -0.0731  2.5109  1.3156
  323MOL0     H42601   5.967  11.815  -0.826  0.2954  0.7098  0.6637
  323MOL0     H42602   5.911  11.941  -1.037  0.1030 -0.5214  0.3687
  323MOL0     H42603   5.915  12.025  -0.870 -1.3778  1.6170  0.7065
  323MOL0     H42604   5.706  12.082  -1.088 -2.0292  0.2033  1.9216
  323MOL0     H42605   5.865  12.171  -1.065 -1.3212  4.4983  2.6196
  323MOL0     H42606   5.734  12.302  -0.962  0.8178 -0.6643 -0.7973
  323MOL0     H42607   5.791  12.204  -0.826 -0.2452  1.6872 -0.7547
  323MOL0     H42608   5.531  12.158  -0.977  2.4833 -1.6594 -1.2141
  323MOL0     H42609   5.556  12.079  -0.824  1.3031 -2.0160  0.2858
  323MOL0     H42610   5.408  12.258  -0.782 -0.3115  2.0074 -2.8132
  323MOL0     H42611   5.516  12.381  -0.826  0.9609 -1.2399 -0.6904
  323MOL0     H42612   5.516  12.394  -0.595 -1.1564 -2.1000 -0.4099
  323MOL0     H42613   5.679  12.332  -0.651 -0.0131  0.0305  0.2037
  323MOL0     H42614   5.491  12.229  -0.459  1.2986 -1.0637  1.4485
  323MOL0     H42615   5.507  12.111  -0.596  5.4651 -1.2866 -1.9043
  323MOL0     H42616   5.724  12.236  -0.418 -1.9734 -1.4034  1.8800
  323MOL0     H42617   5.746  12.137  -0.572 -0.6521 -0.6732 -2.8024
  323MOL0     H42618   5.555  11.726  -0.814  0.5683 -1.3915 -4.1629
  323MOL0     H42619   5.597  11.543  -0.655 -0.0557  0.7055 -0.4766
  323MOL0     H42620   5.999  11.120  -0.736 -0.4264  0.7597 -0.4442
  323MOL0     H42621   6.037  10.902  -0.632 -1.8922  0.8407 -0.9782
  323MOL0     H42622   4.880   9.703   0.091  1.5414  1.7463  0.1279
  323MOL0     H42623   4.702   9.688   0.262 -0.9963 -3.4431  0.6223
  323MOL0     H42624   4.603   9.968   0.781  1.7481 -0.9943 -1.4355
  323MOL0     H42625   4.427   9.936   0.935  1.1495  0.5753 -1.3721
  323MOL0     H42626   4.194   9.592   1.115  1.6591 -1.7055  0.3916
  323MOL0     H42627   4.298   9.505   1.008 -1.3906 -0.6027  2.5177
  323MOL0     H42628   4.191   9.522   0.820  0.3165 -1.9772  2.4680
  323MOL0     H42629   4.063   9.532   0.925  0.8559 -0.7685 -2.8755
  323MOL0     H42630   4.176   9.772   0.789 -1.9225  0.5984 -3.3572
  323MOL0     H42631   4.048   9.788   0.917 -0.3080 -1.9044  0.4697
  323MOL0     H42632   4.031   9.679   0.647  2.2776  1.3292  0.4430
  323MOL0     H42633   3.903   9.644   0.772 -1.5694  0.1663 -2.6878
  323MOL0     H42634   3.834  10.025   0.633  3.6302  1.4577  0.9137
  323MOL0     H42635   4.437   9.517   0.847 -0.7819  0.6268 -0.2875
  323MOL0     H42636   4.591   9.556   0.668  0.3093 -1.6166  2.0406
  324MOL0     O42637   1.018  10.691   6.867 -0.3832 -0.3470 -0.5579
  324MOL0     C42638   1.108  10.660   6.786  0.7327 -0.0138  0.5041
  324MOL0     O42639   1.166  10.745   6.705 -0.4474 -0.4263 -0.0190
  324MOL0     C42640   1.184  10.879   6.733 -0.7326  0.0424 -0.4836
  324MOL0     C42641   1.232  10.962   6.628  0.7434 -0.6855  0.1762
  324MOL0     C42642   1.261  11.091   6.640 -1.3869  0.4415 -0.2070
  324MOL0     C42643   1.267  11.150   6.765 -0.1472 -0.3467  0.0821
  324MOL0     O42644   1.323  11.278   6.758 -0.4538  0.2064 -0.4063
  324MOL0     C42645   1.320  11.361   6.868  0.6385 -0.4683 -0.5538
  324MOL0     C42646   1.364  11.505   6.841 -0.4745 -0.2317 -0.4981
  324MOL0     C42647   1.312  11.561   6.709  0.1655 -0.2973 -0.8489
  324MOL0     C42648   1.312  11.710   6.712  0.5627 -0.5524  0.2859
  324MOL0     C42649   1.159  11.744   6.725  0.9357  0.0848 -0.3305
  324MOL0     C42650   1.164  11.883   6.786  1.5948  1.5773  0.0959
  324MOL0     C42651   1.019  11.952   6.779  0.1820 -0.1135  0.6545
  324MOL0     C42652   0.906  11.871   6.841 -0.7708  0.2408 -0.6794
  324MOL0     N42653   0.776  11.923   6.839  0.2200 -1.2315 -0.2594
  324MOL0     C42654   0.665  11.849   6.800  0.7864  0.2139  0.5283
  324MOL0     C42655   0.558  11.929   6.835  0.2463  0.3828  0.1693
  324MOL0     C42656   0.419  11.888   6.841  0.2831 -0.5345  0.3752
  324MOL0     C42657   0.336  11.965   6.739  0.6919 -0.0106  0.0394
  324MOL0     C42658   0.191  11.900   6.738 -0.2774 -0.0717 -0.2277
  324MOL0     C42659   0.086  11.991   6.689  0.3150  1.2432 -0.2630
  324MOL0     O42660   0.108  12.037   6.557  0.8133  0.8095  0.3670
  324MOL0     C42661   0.018  12.009   6.457  0.1565 -0.6646 -0.9281
  324MOL0     C42662  -0.119  12.000   6.472 -0.3679  0.4970  0.1188
  324MOL0     C42663  -0.197  11.972   6.359  0.4878  0.5632  0.4785
  324MOL0     C42664  -0.149  11.965   6.225  0.7271 -0.0297 -0.7537
  324MOL0     C42665  -0.237  11.917   6.122  0.1154  0.8827  0.1894
  324MOL0     O42666  -0.370  11.931   6.135  0.4665  0.4302 -0.5877
  324MOL0     C42667  -0.440  11.887   6.031  0.3803 -0.3167 -0.9322
  324MOL0     C42668  -0.434  11.932   5.900 -0.7946 -0.1769 -0.7711
  324MOL0     C42669  -0.513  11.897   5.788 -0.1200 -0.7504  0.1951
  324MOL0     C42670  -0.610  11.800   5.809 -0.6965  0.2590  0.3539
  324MOL0     O42671  -0.709  11.773   5.712 -0.0320 -0.5658 -0.0001
  324MOL0     C42672  -0.706  11.643   5.665  0.3404 -0.0497 -0.3752
  324MOL0     C42673  -0.840  11.574   5.679  0.3714 -0.4890 -0.0564
  324MOL0     C42674  -0.950  11.596   5.573  0.0390  0.6695  0.1658
  324MOL0     C42675  -0.909  11.509   5.450 -0.2399 -0.1357 -0.1657
  324MOL0     C42676  -0.980  11.546   5.318 -0.3493 -0.0730  0.2957
  324MOL0     C42677  -1.114  11.480   5.283  0.2422 -0.0264 -0.1356
  324MOL0     C42678  -1.205  11.580   5.199 -0.5434  0.6277 -0.6172
  324MOL0     C42679  -1.331  11.505   5.166  0.1719  0.4121 -1.0255
  324MOL0    Cl42680  -1.315  11.449   4.997 -0.4475  0.1059  0.3067
  324MOL0     C42681  -0.624  11.744   5.938  0.5203 -0.7696  0.1559
  324MOL0     C42682  -0.536  11.786   6.041  0.0613  0.4730 -0.3549
  324MOL0     O42683  -0.182  11.874   6.016  0.1127  0.1765  0.4713
  324MOL0     C42684  -0.010  11.982   6.204 -0.7918 -1.2302  0.3313
  324MOL0     C42685   0.072  12.004   6.324  1.1323  0.1462  0.2843
  324MOL0     N42686   0.611  12.044   6.891  0.1394  0.4306 -0.5000
  324MOL0     N42687   0.741  12.040   6.894  0.5999  0.5044 -0.3196
  324MOL0     C42688   1.222  11.075   6.876 -0.2565 -0.6686 -0.5346
  324MOL0     C42689   1.185  10.936   6.862  0.3048 -0.6974 -1.1065
  324MOL0     C42690   1.172  10.524   6.787  0.2821  0.2244  0.5111
  324MOL0     C42691   1.296  10.512   6.725 -0.2114  0.9892 -0.3033
  324MOL0     C42692   1.351  10.379   6.709 -0.1449 -0.3830 -0.5475
  324MOL0     C42693   1.289  10.264   6.764  0.8496 -0.0775  0.5742
  324MOL0     O42694   1.322  10.136   6.758 -0.1557 -0.7352  0.7508
  324MOL0     C42695   1.332  10.086   6.619 -0.6335 -0.1201 -0.0520
  324MOL0     C42696   1.332   9.933   6.642 -0.7987  0.4085 -0.9303
  324MOL0     C42697   1.457   9.863   6.705  0.5049  0.0732  0.0633
  324MOL0     C42698   1.542   9.789   6.600  0.6051  0.6543 -0.4160
  324MOL0     C42699   1.462   9.681   6.533 -1.5162  0.6236  0.2076
  324MOL0     C42700   1.432   9.592   6.456 -0.6787 -0.1683  0.0661
  324MOL0     C42701   1.178  10.293   6.850  0.1518  0.8187 -0.5018
  324MOL0     C42702   1.113  10.418   6.852  0.8053 -0.5596 -0.5640
  324MOL0     H42703   1.232  10.903   6.537 -0.2537  1.1853 -1.0733
  324MOL0     H42704   1.293  11.139   6.548 -0.0782  1.2464  0.6360
  324MOL0     H42705   1.371  11.327   6.958 -2.6272 -3.2331  0.4776
  324MOL0     H42706   1.214  11.367   6.896  0.9400 -0.3503  0.6159
  324MOL0     H42707   1.473  11.507   6.843 -0.4593  0.7768 -1.3969
  324MOL0     H42708   1.320  11.568   6.919 -0.7920 -0.1519 -0.7391
  324MOL0     H42709   1.214  11.516   6.686  0.2465 -1.9450  1.6450
  324MOL0     H42710   1.383  11.524   6.635  0.1127 -2.5902  0.1434
  324MOL0     H42711   1.376  11.751   6.791  0.8932  0.8447 -0.6658
  324MOL0     H42712   1.355  11.748   6.619  1.1588 -0.0090  0.7756
  324MOL0     H42713   1.111  11.678   6.798  1.4161  2.0570  1.9127
  324MOL0     H42714   1.114  11.741   6.626  2.5477  1.7520 -1.1608
  324MOL0     H42715   1.234  11.944   6.730  2.2410  1.7552  1.0666
  324MOL0     H42716   1.191  11.863   6.890  0.1171  4.4556  1.1585
  324MOL0     H42717   1.018  12.041   6.843 -0.2045  0.7436 -0.4930
  324MOL0     H42718   1.002  11.982   6.675 -0.7703  2.0919  1.3822
  324MOL0     H42719   0.934  11.842   6.943  1.4977 -0.8654 -1.5519
  324MOL0     H42720   0.893  11.771   6.799 -1.9074  0.0233  0.1320
  324MOL0     H42721   0.662  11.742   6.778  0.7308  0.4825 -0.8859
  324MOL0     H42722   0.372  11.914   6.936  1.0264  1.0124  0.3496
  324MOL0     H42723   0.401  11.783   6.815 -0.6189 -0.8156  1.9721
  324MOL0     H42724   0.371  11.959   6.636 -0.8323  2.4089 -0.7340
  324MOL0     H42725   0.337  12.070   6.772  1.3641 -0.5404  1.7786
  324MOL0     H42726   0.189  11.798   6.699  1.6390  0.8047 -2.9417
  324MOL0     H42727   0.161  11.886   6.843 -0.6275  2.2358  0.0260
  324MOL0     H42728   0.083  12.078   6.756  0.3393  1.3963 -0.4579
  324MOL0     H42729  -0.010  11.941   6.703  0.2980  1.9254  2.7768
  324MOL0     H42730  -0.166  11.991   6.570 -2.3009 -0.7193 -0.8608
  324MOL0     H42731  -0.302  11.960   6.384  0.7875 -0.1222  1.4727
  324MOL0     H42732  -0.370  12.016   5.873 -1.6927  0.0148 -2.4741
  324MOL0     H42733  -0.508  11.947   5.692  0.0864 -0.0831  0.5505
  324MOL0     H42734  -0.629  11.589   5.721  0.7559  0.2241 -0.6747
  324MOL0     H42735  -0.672  11.638   5.562  0.5724  0.2028 -0.3131
  324MOL0     H42736  -0.888  11.603   5.773  2.9002 -2.1138  1.8638
  324MOL0     H42737  -0.824  11.467   5.691  2.5983 -0.2328 -0.3409
  324MOL0     H42738  -0.932  11.700   5.542 -0.7520  0.0854 -2.5312
  324MOL0     H42739  -1.047  11.562   5.609 -0.1056  0.2118 -0.6258
  324MOL0     H42740  -0.806  11.531   5.418 -0.6348 -2.8620 -4.1743
  324MOL0     H42741  -0.926  11.401   5.460 -2.6632 -0.1501 -3.0031
  324MOL0     H42742  -0.918  11.518   5.232 -0.2557  0.2703  0.2539
  324MOL0     H42743  -0.999  11.653   5.316  2.1513  0.4521 -2.4655
  324MOL0     H42744  -1.162  11.463   5.380  0.5008  1.1567  0.2076
  324MOL0     H42745  -1.108  11.380   5.239  0.4143 -0.9333  1.8389
  324MOL0     H42746  -1.220  11.676   5.250 -0.3191  0.5226 -0.3483
  324MOL0     H42747  -1.147  11.606   5.110  0.8024 -0.0794  0.0286
  324MOL0     H42748  -1.418  11.571   5.172 -1.1143 -1.2269 -1.2429
  324MOL0     H42749  -1.354  11.428   5.240  1.2979  1.0132  0.0090
  324MOL0     H42750  -0.704  11.677   5.966 -0.0545  0.0967  0.6512
  324MOL0     H42751  -0.542  11.731   6.135  0.0881  0.0880 -0.5786
  324MOL0     H42752   0.027  11.976   6.102 -3.3518 -1.5808 -0.6369
  324MOL0     H42753   0.179  11.994   6.312  0.9339 -0.4944 -1.1303
  324MOL0     H42754   1.211  11.119   6.974  1.3021 -1.9711  0.2643
  324MOL0     H42755   1.166  10.870   6.946 -0.6348  0.7648 -0.1122
  324MOL0     H42756   1.351  10.596   6.683  2.4096  0.0496  1.0426
  324MOL0     H42757   1.441  10.363   6.651 -0.9545  0.4802 -2.0862
  324MOL0     H42758   1.429  10.119   6.582  0.9795 -4.6505 -0.4678
  324MOL0     H42759   1.252  10.120   6.552 -2.4207  1.1081  2.5166
  324MOL0     H42760   1.261   9.915   6.723  3.0067  1.3328  2.9134
  324MOL0     H42761   1.307   9.872   6.554  3.1976 -0.2138 -1.8172
  324MOL0     H42762   1.420   9.790   6.778 -2.3090  2.3070  1.0222
  324MOL0     H42763   1.524   9.931   6.758  4.5759 -2.6779 -1.0684
  324MOL0     H42764   1.577   9.863   6.528  1.9584  1.2619  0.8186
  324MOL0     H42765   1.630   9.758   6.656 -1.0056  0.5912  2.2432
  324MOL0     H42766   1.406   9.502   6.405  2.6069 -2.0907  1.4385
  324MOL0     H42767   1.135  10.208   6.901 -0.4037  0.1890 -1.9443
  324MOL0     H42768   1.018  10.435   6.903  0.8791 -0.2185 -0.5365
  325MOL0     O42769  10.053   4.451   5.789  0.5763  0.0045 -0.2381
  325MOL0     C42770  10.146   4.414   5.861  1.8616 -0.3712  0.2232
  325MOL0     O42771  10.131   4.351   5.974  0.2723 -0.0072  0.3942
  325MOL0     C42772  10.014   4.343   6.047  0.2168  0.2606 -0.4794
  325MOL0     C42773   9.913   4.443   6.056  0.2174 -0.2384  0.3440
  325MOL0     C42774   9.800   4.415   6.140  0.3633 -0.5955  0.1663
  325MOL0     C42775   9.800   4.310   6.227  0.3971 -0.0495 -0.4657
  325MOL0     O42776   9.701   4.268   6.312  0.5843 -1.0341 -0.6569
  325MOL0     C42777   9.568   4.318   6.277  0.9178  0.4853  0.4135
  325MOL0     C42778   9.505   4.261   6.149 -0.3407 -0.0445  0.2318
  325MOL0     C42779   9.524   4.109   6.126  0.7343 -0.3989  0.2114
  325MOL0     C42780   9.557   4.072   5.982  0.5710  1.0610  0.4247
  325MOL0     C42781   9.566   3.920   5.952 -0.0302 -0.5539  0.2073
  325MOL0     C42782   9.689   3.860   6.002 -0.5503 -0.0356 -0.3021
  325MOL0     C42783   9.681   3.705   5.954 -0.2049 -0.1385  0.5378
  325MOL0     C42784   9.796   3.626   6.025  0.0385  0.5138 -0.1417
  325MOL0     N42785   9.769   3.541   6.141  0.6280  0.4604 -0.1062
  325MOL0     C42786   9.745   3.589   6.270 -0.2341  0.0819  1.4083
  325MOL0     C42787   9.671   3.495   6.345 -0.0530  0.5483  0.0171
  325MOL0     C42788   9.605   3.490   6.478 -0.4212 -0.5826  0.3442
  325MOL0     C42789   9.479   3.409   6.494  0.6751  0.3153  0.1364
  325MOL0     C42790   9.499   3.256   6.509  1.0191  0.0164 -0.5198
  325MOL0     C42791   9.363   3.174   6.532  0.1914 -0.8578  0.9043
  325MOL0     O42792   9.281   3.198   6.419 -0.3606 -0.6855  0.0339
  325MOL0     C42793   9.185   3.103   6.387  0.3590 -0.4519  0.3970
  325MOL0     C42794   9.124   3.111   6.262  0.7291 -1.3708  0.6101
  325MOL0     C42795   9.018   3.020   6.226  0.0973  1.0861 -0.3676
  325MOL0     C42796   8.969   2.924   6.322 -0.8485 -0.3816  0.3592
  325MOL0     C42797   8.857   2.832   6.287 -0.0020 -0.0139 -0.7707
  325MOL0     O42798   8.742   2.888   6.224 -0.6361 -0.6482  0.7352
  325MOL0     C42799   8.621   2.833   6.218  0.6428 -0.7253  0.6824
  325MOL0     C42800   8.521   2.865   6.305 -0.3050 -0.1724  1.3867
  325MOL0     C42801   8.389   2.810   6.294 -0.2955 -0.6337  1.2762
  325MOL0     C42802   8.357   2.730   6.185 -0.3582 -1.1032 -0.4258
  325MOL0     O42803   8.229   2.696   6.196  0.6880  0.1611  1.0202
  325MOL0     C42804   8.220   2.580   6.277  0.2592  0.8561 -0.7464
  325MOL0     C42805   8.069   2.569   6.323  0.5054  0.3751  0.0987
  325MOL0     C42806   8.009   2.682   6.411  0.4606  0.2891 -0.3077
  325MOL0     C42807   8.089   2.708   6.542  0.6287  0.3542 -0.0240
  325MOL0     C42808   8.008   2.798   6.648 -0.4905  0.8123 -0.1520
  325MOL0     C42809   7.942   2.695   6.745  0.2810  0.4404  1.1040
  325MOL0     C42810   7.875   2.774   6.859  0.2391 -0.4437  0.2236
  325MOL0     C42811   7.776   2.692   6.938  0.6335 -0.6319  0.1701
  325MOL0    Cl42812   7.608   2.704   6.859  0.1879 -0.2185 -0.1518
  325MOL0     C42813   8.456   2.708   6.084  0.0173 -0.1519  0.1720
  325MOL0     C42814   8.587   2.757   6.102  0.5240 -0.3980 -0.3721
  325MOL0     O42815   8.860   2.727   6.352 -0.3357 -0.3178  0.6813
  325MOL0     C42816   9.038   2.920   6.445  1.4908 -0.8077 -0.2942
  325MOL0     C42817   9.127   3.013   6.486  0.7871 -0.5639  0.9814
  325MOL0     N42818   9.651   3.389   6.257 -0.1711 -0.3273 -0.7831
  325MOL0     N42819   9.703   3.416   6.137  0.0830  0.4640  0.6612
  325MOL0     C42820   9.909   4.224   6.226  0.4237  1.1865  0.3253
  325MOL0     C42821  10.007   4.235   6.126 -0.6430  0.3571 -0.3723
  325MOL0     C42822  10.282   4.455   5.828 -0.1379 -0.3626 -0.1110
  325MOL0     C42823  10.388   4.463   5.923  0.9009 -0.0035  0.3476
  325MOL0     C42824  10.516   4.508   5.888 -0.3863 -0.1405 -0.6214
  325MOL0     C42825  10.545   4.554   5.765 -0.4913  0.3444 -0.3928
  325MOL0     O42826  10.668   4.605   5.747 -0.4210  0.2975  0.5999
  325MOL0     C42827  10.691   4.693   5.633  1.0443  0.2237 -0.3658
  325MOL0     C42828  10.835   4.742   5.626  0.7503 -0.4329  0.8570
  325MOL0     C42829  10.946   4.650   5.589  0.5435 -0.4158  0.0414
  325MOL0     C42830  10.970   4.545   5.691  0.4152 -0.2490 -0.0529
  325MOL0     C42831  11.108   4.478   5.687 -0.0285 -0.4986  0.4166
  325MOL0     C42832  11.218   4.432   5.720  0.7449  0.1985  0.6888
  325MOL0     C42833  10.437   4.556   5.673 -0.2825  0.7611  0.1579
  325MOL0     C42834  10.314   4.500   5.705 -0.5838  0.0773 -0.8962
  325MOL0     H42835   9.907   4.526   5.986 -3.3889  2.2642  3.2532
  325MOL0     H42836   9.715   4.481   6.130 -1.3038 -2.9036 -2.5421
  325MOL0     H42837   9.569   4.427   6.276  1.7917  0.5579  2.5755
  325MOL0     H42838   9.506   4.284   6.361  3.2690 -2.1616  1.2460
  325MOL0     H42839   9.554   4.305   6.062  0.2650 -3.1515 -1.0938
  325MOL0     H42840   9.400   4.290   6.158 -0.2216  0.1671  1.0744
  325MOL0     H42841   9.430   4.058   6.151 -1.5717  3.5219  0.4393
  325MOL0     H42842   9.606   4.072   6.188  1.1986 -0.4008 -0.4049
  325MOL0     H42843   9.485   4.115   5.912  0.6717 -0.6822 -0.8062
  325MOL0     H42844   9.647   4.132   5.965  0.6483  0.5475 -1.1661
  325MOL0     H42845   9.555   3.907   5.844 -2.6540  2.0199  0.0252
  325MOL0     H42846   9.478   3.875   5.999  0.1313  0.6490  1.7869
  325MOL0     H42847   9.671   3.858   6.110  1.9577  1.7377  0.2464
  325MOL0     H42848   9.781   3.914   5.975 -1.5314  1.3273 -1.0531
  325MOL0     H42849   9.584   3.660   5.975 -0.7065  1.8775  3.0162
  325MOL0     H42850   9.691   3.698   5.845  0.6696 -0.6151  0.6380
  325MOL0     H42851   9.884   3.690   6.039 -0.4591  1.4310 -1.1143
  325MOL0     H42852   9.841   3.556   5.954 -1.0450 -2.3830  1.8330
  325MOL0     H42853   9.784   3.683   6.307 -0.9600 -0.3891  3.5021
  325MOL0     H42854   9.582   3.597   6.483  0.0262 -0.1919 -3.2702
  325MOL0     H42855   9.676   3.459   6.555  2.7086  2.5881 -0.9870
  325MOL0     H42856   9.406   3.447   6.421 -0.4578  1.3603  1.7586
  325MOL0     H42857   9.443   3.442   6.592  0.9693 -1.5722  0.9117
  325MOL0     H42858   9.537   3.230   6.410  3.1063  0.9497 -0.0177
  325MOL0     H42859   9.577   3.245   6.585  0.2130  3.7603  1.1192
  325MOL0     H42860   9.308   3.198   6.624 -1.7449 -3.2189  0.4747
  325MOL0     H42861   9.382   3.066   6.533 -0.4982 -0.9872  0.3380
  325MOL0     H42862   9.164   3.193   6.203  1.6070 -0.8130  1.9540
  325MOL0     H42863   8.976   3.029   6.126 -0.4862  2.8232  0.0100
  325MOL0     H42864   8.549   2.934   6.384  2.0758  0.7992 -0.2035
  325MOL0     H42865   8.308   2.832   6.363 -0.8312 -1.7438  1.0171
  325MOL0     H42866   8.278   2.586   6.369 -3.3875  2.8794  1.6858
  325MOL0     H42867   8.262   2.504   6.210  2.8897  0.4672  1.1853
  325MOL0     H42868   8.056   2.478   6.382  0.0266 -1.4369 -2.5891
  325MOL0     H42869   8.011   2.539   6.235  2.2180 -2.1418 -0.3024
  325MOL0     H42870   7.907   2.651   6.436  0.8292  0.4292  1.5031
  325MOL0     H42871   8.011   2.782   6.367  3.0880 -0.2869 -1.7102
  325MOL0     H42872   8.122   2.614   6.587  1.2645  2.3332  4.1295
  325MOL0     H42873   8.183   2.759   6.518 -0.8727  4.4890  1.9835
  325MOL0     H42874   7.927   2.860   6.606 -1.2405  0.9444  1.4043
  325MOL0     H42875   8.079   2.858   6.706  1.3171 -1.1631 -0.2203
  325MOL0     H42876   8.019   2.630   6.788 -1.1199 -1.6319  0.6177
  325MOL0     H42877   7.867   2.634   6.693 -0.0786  0.8480  1.1372
  325MOL0     H42878   7.946   2.823   6.926 -0.9853  1.9389 -0.1283
  325MOL0     H42879   7.810   2.856   6.829  0.3688  0.7096  2.8633
  325MOL0     H42880   7.772   2.716   7.045  1.6134 -1.5857  0.4414
  325MOL0     H42881   7.822   2.593   6.946  1.8843  0.0533  2.6853
  325MOL0     H42882   8.420   2.646   6.002 -0.5972 -0.8267  0.9365
  325MOL0     H42883   8.662   2.717   6.035 -1.1510 -3.2368 -0.7536
  325MOL0     H42884   9.020   2.845   6.521 -2.5961  1.4158  1.1979
  325MOL0     H42885   9.159   3.004   6.589 -2.5455 -0.3913  2.1624
  325MOL0     H42886   9.903   4.135   6.288  3.1229 -0.0977 -1.0890
  325MOL0     H42887  10.087   4.163   6.136  0.8892  1.9596 -0.5845
  325MOL0     H42888  10.367   4.433   6.025 -1.7218  1.6450  0.3786
  325MOL0     H42889  10.588   4.500   5.968  1.0541  3.2334 -1.4342
  325MOL0     H42890  10.631   4.785   5.640  3.4300  2.3437 -3.9880
  325MOL0     H42891  10.674   4.629   5.546  1.8258 -1.9857  1.0250
  325MOL0     H42892  10.830   4.828   5.558  1.1113 -1.0269  0.0691
  325MOL0     H42893  10.864   4.787   5.722  2.6433  2.4197 -0.9030
  325MOL0     H42894  11.036   4.711   5.580  0.5370 -0.2558  1.0133
  325MOL0     H42895  10.944   4.591   5.496 -0.6654  0.7546 -0.7097
  325MOL0     H42896  10.968   4.596   5.788 -1.1814 -1.2318  0.4707
  325MOL0     H42897  10.890   4.470   5.699  1.7798 -1.9868 -1.7741
  325MOL0     H42898  11.319   4.401   5.736  1.1163 -1.1098 -3.2159
  325MOL0     H42899  10.449   4.595   5.573  0.9143 -0.8456 -0.3798
  325MOL0     H42900  10.232   4.497   5.634 -2.3295  2.6392  0.8188
  326MOL0     O42901   8.651   7.936   7.414 -0.0602 -1.0652  0.2078
  326MOL0     C42902   8.747   7.885   7.358 -0.0937  0.2517 -0.1967
  326MOL0     O42903   8.732   7.787   7.260 -0.1843 -0.1191 -0.8301
  326MOL0     C42904   8.812   7.679   7.264 -0.2992 -0.5773  0.3242
  326MOL0     C42905   8.872   7.636   7.388  0.2192  0.6059 -0.8495
  326MOL0     C42906   8.922   7.504   7.387 -0.0009 -0.4939 -0.0861
  326MOL0     C42907   8.911   7.416   7.281  0.7772  1.0169 -0.3607
  326MOL0     O42908   8.947   7.285   7.298  0.5170  0.3841 -0.8258
  326MOL0     C42909   8.850   7.182   7.275 -0.2818  0.4912  0.7673
  326MOL0     C42910   8.916   7.041   7.285 -0.4957 -0.5735  0.7565
  326MOL0     C42911   8.974   6.989   7.157 -0.3539  1.3677  0.1561
  326MOL0     C42912   8.871   6.984   7.044 -1.1610  0.7401  1.2677
  326MOL0     C42913   8.936   6.900   6.920  0.5109 -0.5703 -1.1854
  326MOL0     C42914   8.851   6.890   6.798 -0.1139 -0.6473  0.8221
  326MOL0     C42915   8.891   6.786   6.700 -0.9762  0.4714 -0.2058
  326MOL0     C42916   9.011   6.825   6.615 -0.4182 -0.4817  0.2827
  326MOL0     N42917   8.967   6.919   6.511  0.3993  0.0470 -0.0777
  326MOL0     C42918   8.993   7.056   6.511 -0.1825  0.2687  0.9137
  326MOL0     C42919   8.914   7.104   6.405  0.5002  1.0569  0.3307
  326MOL0     C42920   8.885   7.247   6.375  0.4828 -0.4263  0.8281
  326MOL0     C42921   9.009   7.329   6.373  0.0104  0.1995 -0.2708
  326MOL0     C42922   8.982   7.474   6.340  0.3873 -0.4150 -0.2158
  326MOL0     C42923   9.105   7.557   6.344 -0.8845 -0.7061 -1.0483
  326MOL0     O42924   9.137   7.615   6.469  0.3758  0.5341  0.1759
  326MOL0     C42925   9.138   7.756   6.458 -0.3751  0.0230 -0.1851
  326MOL0     C42926   9.238   7.814   6.526  0.1455 -0.3921 -0.5182
  326MOL0     C42927   9.260   7.956   6.520  0.0741 -0.0583 -0.3251
  326MOL0     C42928   9.179   8.039   6.452 -0.8743 -0.1507  0.3903
  326MOL0     C42929   9.205   8.196   6.448 -0.6710  2.0372  0.5540
  326MOL0     O42930   9.121   8.272   6.379 -0.0035  1.3010  0.2288
  326MOL0     C42931   9.104   8.406   6.405  0.9060  0.0731 -0.5689
  326MOL0     C42932   9.121   8.460   6.534 -0.3161 -0.5961 -0.1779
  326MOL0     C42933   9.105   8.603   6.545 -0.8156  0.1406  0.4012
  326MOL0     C42934   9.071   8.688   6.436  0.2510  0.1563  0.7963
  326MOL0     O42935   9.072   8.821   6.448 -0.1166 -0.0388  1.2515
  326MOL0     C42936   8.970   8.884   6.362 -0.1104 -1.0035 -0.8277
  326MOL0     C42937   9.018   8.976   6.249 -0.4551  0.6280 -0.2825
  326MOL0     C42938   8.895   9.003   6.158  0.0641 -0.8810 -0.5761
  326MOL0     C42939   8.929   9.088   6.032  0.3086  0.0860 -0.5352
  326MOL0     C42940   8.805   9.093   5.939  0.7071 -0.1693  0.2692
  326MOL0     C42941   8.819   9.192   5.816 -0.5880 -0.8586  0.2915
  326MOL0     C42942   8.822   9.337   5.870 -0.0992 -0.3020  0.9625
  326MOL0     C42943   8.949   9.404   5.832 -0.9460 -0.2294 -0.4336
  326MOL0    Cl42944   8.912   9.574   5.875  0.4907  0.2004 -0.0801
  326MOL0     C42945   9.061   8.621   6.315  0.6350 -1.1053  0.7275
  326MOL0     C42946   9.060   8.486   6.302 -0.9883  0.6339  0.2004
  326MOL0     O42947   9.302   8.239   6.508  0.6159  0.3281  0.0597
  326MOL0     C42948   9.068   7.981   6.386  0.3659  0.2571  0.0503
  326MOL0     C42949   9.045   7.839   6.391 -0.5786  0.1407 -0.1883
  326MOL0     N42950   8.862   6.992   6.350 -0.4125 -0.7090 -0.7094
  326MOL0     N42951   8.881   6.882   6.414  0.0460  0.8439  0.1916
  326MOL0     C42952   8.851   7.453   7.165  0.3206  1.1638  0.7285
  326MOL0     C42953   8.804   7.583   7.152  0.2359  0.1037 -0.6380
  326MOL0     C42954   8.878   7.942   7.401  0.6517  0.4039 -0.1252
  326MOL0     C42955   8.905   7.997   7.539  0.5380  0.5419 -0.2079
  326MOL0     C42956   9.029   8.031   7.583 -0.0800 -0.2981  0.0478
  326MOL0     C42957   9.141   8.001   7.515 -0.4583 -0.3403 -0.3107
  326MOL0     O42958   9.256   8.023   7.585 -0.1763  0.8866  0.4823
  326MOL0     C42959   9.382   8.001   7.513  0.4430 -0.6555 -0.0083
  326MOL0     C42960   9.501   8.043   7.615  0.2764  0.0759  0.7605
  326MOL0     C42961   9.551   8.198   7.627  0.0338 -0.3066  0.1931
  326MOL0     C42962   9.437   8.276   7.699  0.1091 -0.8863 -0.4164
  326MOL0     C42963   9.336   8.331   7.607  0.0173 -0.5745  1.1769
  326MOL0     C42964   9.266   8.348   7.508 -0.7226 -0.0901  0.3332
  326MOL0     C42965   9.122   7.964   7.377  0.3303  1.1096  0.5249
  326MOL0     C42966   8.992   7.936   7.323 -1.0894 -1.0670  0.4824
  326MOL0     H42967   8.889   7.691   7.480  1.8739  0.6208 -1.1263
  326MOL0     H42968   8.965   7.453   7.472 -1.0076 -1.8865 -0.3804
  326MOL0     H42969   8.792   7.195   7.183  1.7724  2.8126 -0.3139
  326MOL0     H42970   8.780   7.191   7.359  0.6359  0.5480  1.5464
  326MOL0     H42971   8.845   6.966   7.320 -1.1304  0.3209  1.4110
  326MOL0     H42972   8.995   7.052   7.361  0.0339  3.1851 -0.1422
  326MOL0     H42973   9.010   6.888   7.174  1.5317  0.8064 -5.2066
  326MOL0     H42974   9.052   7.063   7.135  1.1590 -0.4345 -0.8014
  326MOL0     H42975   8.777   6.946   7.083 -0.8551 -0.1400  1.1814
  326MOL0     H42976   8.842   7.084   7.010  3.0905  1.2904 -1.4908
  326MOL0     H42977   8.966   6.798   6.947 -2.9315 -1.3156  0.3198
  326MOL0     H42978   9.022   6.958   6.885  0.1149  1.8979  1.4910
  326MOL0     H42979   8.828   6.985   6.749  0.8010 -1.9991 -2.4297
  326MOL0     H42980   8.747   6.870   6.828 -0.0174 -0.5543  1.2318
  326MOL0     H42981   8.921   6.695   6.753 -0.5919 -0.1001 -1.3507
  326MOL0     H42982   8.808   6.766   6.631  0.2567 -2.3224 -1.0269
  326MOL0     H42983   9.041   6.732   6.565 -1.5492  1.3767 -4.3373
  326MOL0     H42984   9.092   6.868   6.674 -1.9069  1.4023  1.0598
  326MOL0     H42985   9.044   7.120   6.582  0.9511  0.5371 -0.1033
  326MOL0     H42986   8.825   7.290   6.456 -1.7529  3.5142 -2.5011
  326MOL0     H42987   8.824   7.264   6.286  1.8871  3.8967  0.4183
  326MOL0     H42988   9.085   7.278   6.313  1.8967  0.4120  1.7995
  326MOL0     H42989   9.050   7.332   6.474  1.8329 -3.0590 -0.7558
  326MOL0     H42990   8.928   7.491   6.247  0.2300  0.0458 -0.0472
  326MOL0     H42991   8.917   7.508   6.422 -0.4166  2.3951 -1.8770
  326MOL0     H42992   9.095   7.629   6.262 -0.0233  0.0590 -0.4890
  326MOL0     H42993   9.193   7.495   6.321  2.8074  2.5459  2.6829
  326MOL0     H42994   9.317   7.756   6.574  3.2064  3.3233 -0.5191
  326MOL0     H42995   9.339   8.003   6.577 -1.1680  0.2437  1.2201
  326MOL0     H42996   9.164   8.395   6.610 -2.6808  0.5072  2.2368
  326MOL0     H42997   9.134   8.650   6.638 -2.2258 -0.7704  1.3198
  326MOL0     H42998   8.903   8.940   6.429  0.3732 -3.1831  1.6395
  326MOL0     H42999   8.904   8.804   6.327 -1.5863 -1.1731  2.0125
  326MOL0     H43000   9.099   8.930   6.192  0.2533  1.8792 -0.3317
  326MOL0     H43001   9.048   9.073   6.289  2.4681 -0.9341  1.6107
  326MOL0     H43002   8.817   9.053   6.215 -0.6904 -0.8052 -1.6584
  326MOL0     H43003   8.844   8.911   6.127 -0.0174 -1.2268  0.5349
  326MOL0     H43004   8.963   9.186   6.065 -2.8346  1.2811 -0.4427
  326MOL0     H43005   9.011   9.048   5.971  2.1809  1.0972  1.2302
  326MOL0     H43006   8.709   9.116   5.985  1.3863  1.3255  0.9741
  326MOL0     H43007   8.789   8.994   5.894 -0.2647  0.6025 -1.1697
  326MOL0     H43008   8.737   9.186   5.743 -1.0120 -0.0320  0.6997
  326MOL0     H43009   8.910   9.159   5.764  0.0071 -1.7342  1.8197
  326MOL0     H43010   8.739   9.386   5.817  1.1736  0.5942 -0.2698
  326MOL0     H43011   8.799   9.336   5.977 -2.2056 -3.4862  0.6158
  326MOL0     H43012   8.990   9.386   5.733  0.1243 -1.4870  0.1976
  326MOL0     H43013   9.015   9.362   5.909  0.5050  1.5665 -0.6242
  326MOL0     H43014   9.048   8.679   6.225 -5.1593  1.2777  2.6240
  326MOL0     H43015   9.037   8.433   6.210  0.7056 -1.0502  0.6788
  326MOL0     H43016   8.989   8.043   6.343 -0.3840 -0.7280 -0.0204
  326MOL0     H43017   8.960   7.801   6.335  0.0272  0.2680 -1.2203
  326MOL0     H43018   8.850   7.385   7.079 -1.6685  2.9517 -0.7601
  326MOL0     H43019   8.759   7.618   7.060  0.8475  0.0542 -0.9645
  326MOL0     H43020   8.823   7.998   7.611  0.8676  0.2407  0.1746
  326MOL0     H43021   9.030   8.081   7.679  0.6853 -0.9522  0.3942
  326MOL0     H43022   9.366   8.047   7.415 -2.8087  0.7185  1.0149
  326MOL0     H43023   9.403   7.895   7.497  1.5145 -0.5311  0.4801
  326MOL0     H43024   9.478   8.022   7.719  1.0101 -1.5523  0.6129
  326MOL0     H43025   9.588   7.979   7.600 -2.2045 -3.1326 -1.0668
  326MOL0     H43026   9.573   8.245   7.530 -1.6240 -2.3012 -1.2558
  326MOL0     H43027   9.641   8.198   7.689  0.9190  0.8130 -1.0306
  326MOL0     H43028   9.388   8.203   7.764  0.2641 -1.6293 -1.1242
  326MOL0     H43029   9.466   8.368   7.751 -2.4019  0.7566 -1.7165
  326MOL0     H43030   9.204   8.359   7.421  0.4508  4.6336 -0.1726
  326MOL0     H43031   9.211   7.948   7.317  1.3314 -0.5390  2.3501
  326MOL0     H43032   8.999   7.899   7.221  0.0276  2.5736 -0.9536
  327MOL0     O43033   2.732   4.792   7.189  0.4750  0.1759 -0.0397
  327MOL0     C43034   2.800   4.868   7.264  0.7264 -0.1066 -0.1366
  327MOL0     O43035   2.762   4.914   7.388 -0.1444 -1.3667 -0.8702
  327MOL0     C43036   2.633   4.913   7.428 -0.3563  0.1684 -0.7103
  327MOL0     C43037   2.604   4.992   7.547 -0.2886 -0.3751  0.3410
  327MOL0     C43038   2.486   4.987   7.613  0.4837  0.0693 -0.4806
  327MOL0     C43039   2.386   4.903   7.569 -0.4582  0.5759 -0.7808
  327MOL0     O43040   2.264   4.914   7.623  0.3717 -0.6676 -0.6397
  327MOL0     C43041   2.147   4.876   7.552  0.6037  0.9014 -0.1990
  327MOL0     C43042   2.024   4.906   7.633  0.0574 -0.9897 -0.2338
  327MOL0     C43043   1.894   4.876   7.557 -0.9691 -0.5699  0.0357
  327MOL0     C43044   1.770   4.891   7.649  0.0118 -0.9348  0.2029
  327MOL0     C43045   1.639   4.891   7.572 -0.1803  0.5077  0.9393
  327MOL0     C43046   1.647   4.797   7.450 -0.1513  0.4855  0.4892
  327MOL0     C43047   1.517   4.795   7.374 -0.2827  0.5477 -1.0730
  327MOL0     C43048   1.393   4.772   7.465 -0.3376 -0.2901 -0.6546
  327MOL0     N43049   1.261   4.739   7.399 -0.6251 -0.4906 -0.6567
  327MOL0     C43050   1.167   4.823   7.370  0.3738 -0.3811 -0.2717
  327MOL0     C43051   1.058   4.751   7.356 -0.3425  1.1843  0.1450
  327MOL0     C43052   0.923   4.815   7.337  0.3761 -0.0090  0.4306
  327MOL0     C43053   0.879   4.807   7.189  0.5397 -0.2531  0.5916
  327MOL0     C43054   0.731   4.841   7.174 -0.1775 -0.9177  0.1510
  327MOL0     C43055   0.692   4.847   7.026  0.2020 -0.0847 -0.1541
  327MOL0     O43056   0.562   4.899   7.023  0.0352  0.0633 -0.5390
  327MOL0     C43057   0.546   5.012   6.954  0.1506 -0.3079  0.0893
  327MOL0     C43058   0.555   5.134   7.019 -0.3405  0.8967 -0.8489
  327MOL0     C43059   0.540   5.256   6.956 -1.0375  0.6870  0.1499
  327MOL0     C43060   0.537   5.255   6.815  0.3682 -0.7776 -0.7229
  327MOL0     C43061   0.522   5.387   6.747 -0.5198 -0.5489  0.4806
  327MOL0     O43062   0.514   5.503   6.819 -0.4148  1.1119 -0.1289
  327MOL0     C43063   0.517   5.621   6.755  0.0911 -0.0909  0.3096
  327MOL0     C43064   0.401   5.685   6.738  0.4939 -0.4641 -0.2924
  327MOL0     C43065   0.400   5.806   6.670 -0.2535  0.4592 -0.5660
  327MOL0     C43066   0.527   5.869   6.635  0.5574  0.1460  0.0608
  327MOL0     O43067   0.518   5.997   6.575 -0.1146  0.5058  0.4528
  327MOL0     C43068   0.628   6.033   6.482  0.2044 -0.3628 -0.7215
  327MOL0     C43069   0.601   6.177   6.431  0.6632  0.0149 -0.9313
  327MOL0     C43070   0.702   6.222   6.326 -0.2767 -0.6144  0.4364
  327MOL0     C43071   0.762   6.353   6.375  0.5866 -0.0923  0.1807
  327MOL0     C43072   0.870   6.427   6.287  0.3412  0.0070 -1.0564
  327MOL0     C43073   0.990   6.341   6.260  1.6730  0.7234  0.3433
  327MOL0     C43074   1.093   6.409   6.168  0.0412  0.1386 -0.1665
  327MOL0     C43075   1.229   6.337   6.172  0.7842 -0.9416  0.4173
  327MOL0    Cl43076   1.369   6.445   6.137  0.1836  0.0433  0.0150
  327MOL0     C43077   0.643   5.803   6.655  0.2642  0.9409 -0.0601
  327MOL0     C43078   0.641   5.677   6.715  0.3709 -0.1833 -0.4748
  327MOL0     O43079   0.522   5.387   6.621  0.0024  0.2354  0.3529
  327MOL0     C43080   0.536   5.131   6.750  0.0045 -0.1846 -0.0572
  327MOL0     C43081   0.541   5.010   6.815 -0.2409 -0.5261  0.8374
  327MOL0     N43082   1.077   4.617   7.383 -0.5622 -1.1354  0.2036
  327MOL0     N43083   1.204   4.617   7.426  0.6332 -0.0546 -0.6115
  327MOL0     C43084   2.414   4.816   7.465  1.1319 -0.3234 -0.9332
  327MOL0     C43085   2.531   4.815   7.401  0.2675  0.8846 -0.3998
  327MOL0     C43086   2.931   4.909   7.216 -0.5872  0.3328 -0.0855
  327MOL0     C43087   2.952   5.045   7.218  0.3269 -0.0751  0.0569
  327MOL0     C43088   3.078   5.100   7.187 -0.1195 -0.0929 -0.0249
  327MOL0     C43089   3.191   5.022   7.146  0.3931  0.1745 -0.5376
  327MOL0     O43090   3.314   5.069   7.121 -0.8583  0.7993  0.6102
  327MOL0     C43091   3.354   5.197   7.163 -0.6165  0.2872 -0.3726
  327MOL0     C43092   3.511   5.205   7.139  0.1092 -1.1454  0.8777
  327MOL0     C43093   3.548   5.338   7.073  0.3847 -0.2464 -0.4359
  327MOL0     C43094   3.497   5.460   7.146 -0.2469  0.3350  0.4964
  327MOL0     C43095   3.544   5.475   7.279  0.4383  1.2811  0.3484
  327MOL0     C43096   3.600   5.489   7.386  0.1943 -0.1669 -0.1568
  327MOL0     C43097   3.169   4.878   7.152  0.0045  0.4005 -0.4049
  327MOL0     C43098   3.041   4.823   7.187  0.2617 -0.6488 -0.0010
  327MOL0     H43099   2.685   5.057   7.579  0.0105 -0.6792  0.2107
  327MOL0     H43100   2.490   5.050   7.701  0.5049  1.0762 -1.1971
  327MOL0     H43101   2.146   4.767   7.544 -4.8228  0.7518 -0.8184
  327MOL0     H43102   2.156   4.930   7.458  0.7379 -0.1055 -0.7721
  327MOL0     H43103   2.023   5.013   7.652  4.1395 -0.4902 -1.9221
  327MOL0     H43104   2.028   4.853   7.729  0.4409 -0.3172  0.1231
  327MOL0     H43105   1.899   4.779   7.506  1.8570 -2.2393  3.0441
  327MOL0     H43106   1.886   4.950   7.478  4.3595 -0.1516 -0.4919
  327MOL0     H43107   1.768   4.829   7.739  2.9693 -0.3965  0.7257
  327MOL0     H43108   1.787   4.992   7.688 -4.2046  0.6364 -1.3977
  327MOL0     H43109   1.619   4.991   7.533  3.5981  1.3067  0.6984
  327MOL0     H43110   1.554   4.873   7.639 -0.8219  0.0013  0.0243
  327MOL0     H43111   1.684   4.697   7.475 -0.7553  0.4396  1.2408
  327MOL0     H43112   1.707   4.837   7.368 -1.2817  4.4977  1.3873
  327MOL0     H43113   1.509   4.877   7.302  1.9637 -0.5152 -2.6326
  327MOL0     H43114   1.528   4.707   7.311  1.4144  1.8384 -2.6970
  327MOL0     H43115   1.367   4.857   7.528 -0.7034 -2.6749  2.6593
  327MOL0     H43116   1.439   4.696   7.529  3.8387  0.1249 -2.8352
  327MOL0     H43117   1.169   4.931   7.370 -1.3159 -0.2810 -2.1827
  327MOL0     H43118   0.923   4.915   7.382 -1.0735  1.0093 -1.6749
  327MOL0     H43119   0.859   4.753   7.399  0.0039  0.7884  0.8508
  327MOL0     H43120   0.887   4.705   7.148 -1.5399  1.2739 -4.4518
  327MOL0     H43121   0.944   4.881   7.142 -1.1956  0.5046 -0.7244
  327MOL0     H43122   0.659   4.772   7.219  1.4728 -3.6632 -1.1048
  327MOL0     H43123   0.704   4.942   7.204 -0.6867 -0.8730 -0.4197
  327MOL0     H43124   0.689   4.751   6.974  0.2415  1.2411 -2.7462
  327MOL0     H43125   0.771   4.898   6.972  1.4317 -2.6796 -0.9819
  327MOL0     H43126   0.593   5.135   7.120  1.9440  0.5670 -1.6409
  327MOL0     H43127   0.544   5.342   7.022  0.7034  0.1992  0.7360
  327MOL0     H43128   0.313   5.630   6.768 -3.0729  3.2954 -2.7060
  327MOL0     H43129   0.303   5.853   6.650 -0.1463  1.8229  1.8045
  327MOL0     H43130   0.631   5.956   6.404 -1.8297 -0.0735 -1.1437
  327MOL0     H43131   0.723   6.027   6.536  0.4811 -2.3979 -1.3372
  327MOL0     H43132   0.605   6.242   6.519 -1.6305  1.6268 -1.9239
  327MOL0     H43133   0.504   6.163   6.384  0.0573 -1.1431  0.5788
  327MOL0     H43134   0.644   6.244   6.236 -3.7378 -1.3284  2.3243
  327MOL0     H43135   0.787   6.156   6.307  1.8066  2.6984 -3.0658
  327MOL0     H43136   0.681   6.422   6.399  0.7461 -0.3377  1.4944
  327MOL0     H43137   0.808   6.331   6.471 -1.5948 -1.9834  0.8808
  327MOL0     H43138   0.901   6.516   6.342 -2.0914 -0.8680  2.0309
  327MOL0     H43139   0.831   6.448   6.187 -1.0948 -2.8861 -1.2095
  327MOL0     H43140   0.963   6.256   6.196  2.4385  0.1137  0.8171
  327MOL0     H43141   1.032   6.314   6.357 -1.5972  1.6768  2.1763
  327MOL0     H43142   1.056   6.407   6.065 -2.1809 -0.3083  0.5982
  327MOL0     H43143   1.100   6.513   6.201  1.3178  0.0768 -0.1926
  327MOL0     H43144   1.243   6.247   6.111 -1.4751 -1.9781  1.2867
  327MOL0     H43145   1.239   6.311   6.277  0.4802  2.2504  1.3447
  327MOL0     H43146   0.742   5.847   6.658  0.6544  0.0224  0.7198
  327MOL0     H43147   0.729   5.624   6.748  0.7227 -0.8893 -2.4160
  327MOL0     H43148   0.527   5.115   6.643 -0.6340 -0.1656 -0.0097
  327MOL0     H43149   0.556   4.924   6.750 -3.3240 -0.6673  0.1519
  327MOL0     H43150   2.338   4.751   7.422  1.1000  0.7521 -2.6060
  327MOL0     H43151   2.545   4.732   7.331 -1.3644 -0.4733  0.8022
  327MOL0     H43152   2.880   5.114   7.262  2.1332  0.5916  2.0933
  327MOL0     H43153   3.106   5.201   7.213  3.3419 -1.0944  0.5504
  327MOL0     H43154   3.324   5.199   7.268 -0.0081 -0.3027 -0.1829
  327MOL0     H43155   3.297   5.275   7.112  0.4503 -0.8173 -3.5242
  327MOL0     H43156   3.558   5.191   7.237 -1.7112 -0.6898  1.8526
  327MOL0     H43157   3.556   5.129   7.075  3.1760  0.7645  0.5255
  327MOL0     H43158   3.514   5.346   6.969 -0.0513  2.2637 -0.1576
  327MOL0     H43159   3.656   5.329   7.059  0.8033  0.3762  1.9193
  327MOL0     H43160   3.540   5.549   7.099  1.4489 -0.0369  1.2882
  327MOL0     H43161   3.389   5.474   7.134 -0.2315 -0.5532 -0.9394
  327MOL0     H43162   3.636   5.518   7.483 -0.4370 -2.2753  0.7849
  327MOL0     H43163   3.263   4.833   7.120 -0.2567  1.0236 -2.1578
  327MOL0     H43164   3.055   4.716   7.184  2.1295 -0.5143  1.9039
  328MOL0     O43165  10.923   2.789   7.189 -0.0932 -0.8820  0.4227
  328MOL0     C43166  10.840   2.770   7.097  0.4002  0.2170 -0.2639
  328MOL0     O43167  10.860   2.782   6.962 -0.6798 -0.0814  0.6552
  328MOL0     C43168  10.990   2.817   6.926 -1.0070  0.7144  0.7454
  328MOL0     C43169  11.027   2.949   6.895  0.5384 -0.7244 -1.4290
  328MOL0     C43170  11.154   2.981   6.853  0.4535 -0.6414  0.1328
  328MOL0     C43171  11.251   2.877   6.838  0.5689 -0.6789 -0.4656
  328MOL0     O43172  11.381   2.909   6.802 -0.4174 -0.7570 -0.4166
  328MOL0     C43173  11.419   2.845   6.676  0.7498  0.4461  0.1043
  328MOL0     C43174  11.570   2.843   6.674 -0.7550  0.4268 -0.2196
  328MOL0     C43175  11.634   2.780   6.799  0.1800 -0.7677 -0.9919
  328MOL0     C43176  11.779   2.783   6.798  0.1434 -0.1420  0.4140
  328MOL0     C43177  11.857   2.731   6.921 -0.1744 -0.7478  0.1612
  328MOL0     C43178  12.005   2.695   6.887  0.2018  0.0376  0.9637
  328MOL0     C43179  12.076   2.640   7.013 -0.1625  0.3304 -0.2302
  328MOL0     C43180  12.107   2.761   7.110  0.0744 -0.1520  1.3597
  328MOL0     N43181  12.184   2.719   7.223  0.3005  1.1122 -1.0004
  328MOL0     C43182  12.149   2.625   7.314 -0.3285  0.6963 -0.0548
  328MOL0     C43183  12.252   2.630   7.411 -0.7912  0.5690 -0.5460
  328MOL0     C43184  12.256   2.542   7.532  0.0637 -0.2205  0.8165
  328MOL0     C43185  12.219   2.638   7.645 -0.0596  0.0973 -0.9924
  328MOL0     C43186  12.188   2.562   7.778 -0.1904 -0.2282  0.0425
  328MOL0     C43187  12.100   2.629   7.881 -0.5326  0.8233 -0.4958
  328MOL0     O43188  11.972   2.644   7.828  0.1386 -0.2411 -0.4668
  328MOL0     C43189  11.880   2.688   7.917 -0.2037 -0.4993  0.1786
  328MOL0     C43190  11.748   2.703   7.869 -0.1249  0.8024  1.3460
  328MOL0     C43191  11.644   2.712   7.959 -0.4272 -0.0689  0.3120
  328MOL0     C43192  11.676   2.731   8.096 -0.5536  0.2830 -0.1749
  328MOL0     C43193  11.582   2.762   8.204 -0.0044 -0.0042 -0.5914
  328MOL0     O43194  11.624   2.808   8.325  0.3132 -0.7561 -0.2794
  328MOL0     C43195  11.545   2.890   8.411 -0.7881  0.6507 -0.4743
  328MOL0     C43196  11.435   2.849   8.481  1.0179 -1.4224 -1.0443
  328MOL0     C43197  11.361   2.941   8.567  0.0472  0.3427  0.2399
  328MOL0     C43198  11.404   3.067   8.576  1.0515 -0.7051 -0.0296
  328MOL0     O43199  11.330   3.151   8.659  1.1702  0.7326  0.0014
  328MOL0     C43200  11.274   3.273   8.605  0.7046  1.3864  1.2903
  328MOL0     C43201  11.285   3.362   8.722 -0.4141  0.0556 -0.0280
  328MOL0     C43202  11.220   3.494   8.681 -0.5379 -0.6670 -1.0892
  328MOL0     C43203  11.243   3.600   8.797 -0.3077  0.4940  0.7787
  328MOL0     C43204  11.197   3.732   8.749 -0.7588 -0.1700 -0.1648
  328MOL0     C43205  11.301   3.827   8.698 -0.6054 -0.7735 -0.1334
  328MOL0     C43206  11.236   3.959   8.659 -0.0881 -0.0049  0.0176
  328MOL0     C43207  11.328   4.028   8.572  0.0066 -0.1956  0.7318
  328MOL0    Cl43208  11.332   3.959   8.402  0.0162 -0.3004  0.1093
  328MOL0     C43209  11.509   3.110   8.504  0.5021 -0.5040 -0.9386
  328MOL0     C43210  11.584   3.021   8.421  0.2693  0.0181 -0.2556
  328MOL0     O43211  11.467   2.770   8.160 -0.5806 -0.6460 -0.8575
  328MOL0     C43212  11.811   2.743   8.142 -0.0595  0.1423  0.0345
  328MOL0     C43213  11.912   2.704   8.055  1.1984 -0.1046  0.9531
  328MOL0     N43214  12.354   2.723   7.362 -0.0967  0.0108  0.5122
  328MOL0     N43215  12.312   2.762   7.249  0.0371 -0.2778  0.4205
  328MOL0     C43216  11.212   2.747   6.876 -0.2122 -0.0465 -0.5945
  328MOL0     C43217  11.086   2.715   6.918  0.6831  1.0333 -0.0560
  328MOL0     C43218  10.717   2.710   7.140 -0.8919  0.4456 -1.1298
  328MOL0     C43219  10.677   2.711   7.273  0.6586 -0.1531 -0.6099
  328MOL0     C43220  10.561   2.639   7.322 -0.5574  0.0133  0.4897
  328MOL0     C43221  10.468   2.588   7.233 -0.3255  0.7309  0.9202
  328MOL0     O43222  10.354   2.534   7.262 -0.1171  0.9718 -0.0321
  328MOL0     C43223  10.344   2.455   7.385  0.4924 -0.4142 -0.4037
  328MOL0     C43224  10.226   2.496   7.469  0.3131 -0.4661 -0.3783
  328MOL0     C43225  10.227   2.625   7.546  0.1016  0.7968 -0.4856
  328MOL0     C43226  10.132   2.747   7.492  0.0966 -1.6868 -0.7504
  328MOL0     C43227  10.188   2.856   7.579  0.7232 -0.8459 -0.2877
  328MOL0     C43228  10.236   2.923   7.672  0.2747  0.0160  0.0818
  328MOL0     C43229  10.500   2.607   7.094  0.2150  0.1068  0.5030
  328MOL0     C43230  10.622   2.659   7.046  0.9371  0.9175  0.0968
  328MOL0     H43231  10.948   3.022   6.906 -0.4054 -1.8956 -0.0556
  328MOL0     H43232  11.187   3.081   6.827 -2.6160  0.7613  1.2584
  328MOL0     H43233  11.391   2.910   6.593 -0.5149  0.9053  0.8553
  328MOL0     H43234  11.376   2.746   6.658  0.2557  0.5119  0.8729
  328MOL0     H43235  11.611   2.944   6.668 -0.1344  0.1265 -1.4988
  328MOL0     H43236  11.607   2.796   6.582 -0.0480  2.0010 -0.7812
  328MOL0     H43237  11.588   2.681   6.793  0.0493 -0.8989  1.4289
  328MOL0     H43238  11.614   2.840   6.888 -2.8520  0.4963 -2.3667
  328MOL0     H43239  11.806   2.718   6.714  0.7773  0.6902 -0.0392
  328MOL0     H43240  11.807   2.886   6.776 -3.8498  0.8615 -0.7530
  328MOL0     H43241  11.798   2.648   6.962 -2.4605  1.5395  1.7459
  328MOL0     H43242  11.848   2.810   6.995  1.0146 -1.7125  1.3797
  328MOL0     H43243  12.043   2.786   6.842  2.5940  0.4592  3.5430
  328MOL0     H43244  12.008   2.618   6.809 -0.4634 -1.6571  2.5070
  328MOL0     H43245  12.007   2.571   7.063  1.8921  0.5746  3.2658
  328MOL0     H43246  12.167   2.585   6.987  0.4184  1.6555 -1.1207
  328MOL0     H43247  12.014   2.811   7.137  0.8874  1.9148  0.5096
  328MOL0     H43248  12.169   2.827   7.049 -0.5586 -0.6205  0.1796
  328MOL0     H43249  12.064   2.557   7.308  2.0370 -2.5720  0.7923
  328MOL0     H43250  12.358   2.503   7.542 -1.0941 -3.3594  1.6625
  328MOL0     H43251  12.188   2.457   7.521  1.6728 -1.2133 -2.6576
  328MOL0     H43252  12.144   2.715   7.626  0.5577  0.4591 -2.1108
  328MOL0     H43253  12.305   2.701   7.671 -0.0212 -0.3443 -0.0272
  328MOL0     H43254  12.124   2.477   7.753 -1.4026  1.0166 -1.2961
  328MOL0     H43255  12.282   2.525   7.819 -0.5955 -0.2311  0.9768
  328MOL0     H43256  12.130   2.734   7.884  2.6705  0.2586 -4.2072
  328MOL0     H43257  12.119   2.577   7.975  1.1180  0.9011 -0.7556
  328MOL0     H43258  11.721   2.675   7.768 -2.7112  0.4444  2.0574
  328MOL0     H43259  11.538   2.699   7.941 -0.4821 -0.5359  0.9344
  328MOL0     H43260  11.408   2.744   8.478 -1.1996 -0.8831 -1.9375
  328MOL0     H43261  11.271   2.907   8.617  0.0017 -1.2155 -0.8350
  328MOL0     H43262  11.171   3.260   8.570  1.7774 -1.0294 -1.3876
  328MOL0     H43263  11.328   3.307   8.516 -0.0451 -2.9746 -1.1610
  328MOL0     H43264  11.390   3.385   8.744  0.2085 -0.8065 -1.8389
  328MOL0     H43265  11.234   3.321   8.809 -2.3605  3.1002  0.4080
  328MOL0     H43266  11.112   3.486   8.670 -0.9154  3.6795 -2.0138
  328MOL0     H43267  11.262   3.543   8.593 -0.7359 -0.6885 -1.1962
  328MOL0     H43268  11.189   3.572   8.888  1.7898 -1.5292  1.4990
  328MOL0     H43269  11.348   3.610   8.825  0.1288  4.1591 -1.4740
  328MOL0     H43270  11.156   3.784   8.836  3.0662  2.3990  0.3771
  328MOL0     H43271  11.126   3.717   8.667  1.4143  1.9123 -2.6099
  328MOL0     H43272  11.339   3.783   8.605  1.2529  1.6155 -0.6125
  328MOL0     H43273  11.380   3.851   8.769 -0.9571  1.7497 -0.4948
  328MOL0     H43274  11.133   3.946   8.624 -0.5397  0.2401  1.2004
  328MOL0     H43275  11.227   4.019   8.750  3.6589  0.4580  0.2236
  328MOL0     H43276  11.427   4.044   8.616  0.4286  0.3173 -0.3702
  328MOL0     H43277  11.286   4.128   8.559 -2.2371 -1.2929 -1.3879
  328MOL0     H43278  11.528   3.216   8.508  0.1102 -0.3488 -2.5049
  328MOL0     H43279  11.665   3.047   8.353  0.0301 -2.5706 -1.6631
  328MOL0     H43280  11.838   2.774   8.242 -0.8056 -1.3414  0.7170
  328MOL0     H43281  12.006   2.692   8.107  1.8280  1.6802  0.3042
  328MOL0     H43282  11.300   2.684   6.874 -1.6384 -2.1295 -2.3095
  328MOL0     H43283  11.043   2.619   6.943 -1.4165  1.7136 -0.8490
  328MOL0     H43284  10.740   2.761   7.345  0.0896  1.4597 -1.1937
  328MOL0     H43285  10.546   2.631   7.430 -0.8233  3.1401  0.7673
  328MOL0     H43286  10.438   2.449   7.440  0.8669  0.6542 -0.9216
  328MOL0     H43287  10.337   2.348   7.363 -1.0944 -0.9924  2.4445
  328MOL0     H43288  10.145   2.486   7.396 -0.4725 -2.6765  0.7082
  328MOL0     H43289  10.192   2.426   7.547 -5.6963 -0.9539 -2.9173
  328MOL0     H43290  10.330   2.661   7.532 -0.2386  0.9949 -3.0673
  328MOL0     H43291  10.199   2.613   7.650 -0.3458 -1.2389 -0.8100
  328MOL0     H43292  10.146   2.768   7.385  0.5117  1.1047 -0.2300
  328MOL0     H43293  10.026   2.727   7.512 -0.2083  1.8430  2.1814
  328MOL0     H43294  10.258   2.984   7.757 -0.8870  2.3910 -1.2291
  328MOL0     H43295  10.422   2.572   7.027 -3.5780 -2.4460  5.5234
  328MOL0     H43296  10.639   2.679   6.940 -0.1842 -1.2456 -0.5492
  329MOL0     O43297   3.355   8.028   9.460  0.0580 -0.7695  0.0902
  329MOL0     C43298   3.446   7.949   9.448 -0.2153  0.2695  0.3557
  329MOL0     O43299   3.581   7.967   9.477 -0.7685 -0.4527 -0.7034
  329MOL0     C43300   3.617   8.078   9.539 -0.7622 -0.0153 -0.5627
  329MOL0     C43301   3.683   8.062   9.664  0.4683  0.6942  0.8452
  329MOL0     C43302   3.711   8.179   9.744 -0.3401 -0.5428  0.5552
  329MOL0     C43303   3.692   8.310   9.697 -0.9558 -0.4971  0.1909
  329MOL0     O43304   3.709   8.403   9.799 -0.0055 -0.2292  0.5908
  329MOL0     C43305   3.669   8.537   9.761  0.2605  0.1163 -0.1870
  329MOL0     C43306   3.775   8.608   9.669  0.0748 -0.0517 -0.4695
  329MOL0     C43307   3.905   8.646   9.743  0.2670 -0.3108  0.1232
  329MOL0     C43308   4.022   8.687   9.653  0.0673  0.2718 -0.9333
  329MOL0     C43309   4.110   8.796   9.726 -0.7102 -0.1371 -0.4519
  329MOL0     C43310   4.166   8.888   9.616  0.1688  0.4495 -0.1493
  329MOL0     C43311   4.289   8.964   9.659 -0.0327  0.8997  0.2937
  329MOL0     C43312   4.336   9.073   9.573 -0.0729 -0.2424 -0.4919
  329MOL0     N43313   4.279   9.198   9.608  0.1981 -0.0651 -0.5929
  329MOL0     C43314   4.324   9.292   9.693  0.2910 -0.6965  1.0554
  329MOL0     C43315   4.215   9.381   9.699  0.6860  0.5429  0.1671
  329MOL0     C43316   4.205   9.502   9.787 -0.2008 -0.0739 -0.6088
  329MOL0     C43317   4.057   9.552   9.820 -0.2494 -0.8429 -0.6485
  329MOL0     C43318   4.074   9.689   9.898 -0.3536 -0.6020  0.2378
  329MOL0     C43319   3.939   9.746   9.934 -0.2646 -0.3963  0.7129
  329MOL0     O43320   3.943   9.884   9.957 -0.2953 -0.3978 -0.6188
  329MOL0     C43321   3.965   9.943  10.086  0.3230  0.9644  0.2559
  329MOL0     C43322   4.028   9.883  10.188 -0.1910  0.6674  0.4693
  329MOL0     C43323   4.054   9.946  10.310 -0.0840 -0.0560  0.0281
  329MOL0     C43324   4.017  10.076  10.325 -1.0794  0.0929  1.2120
  329MOL0     C43325   4.038  10.149  10.454 -0.4700  0.4477 -0.0918
  329MOL0     O43326   4.116  10.095  10.549 -0.1486 -0.2692  0.3255
  329MOL0     C43327   4.150  10.169  10.659 -1.1626 -0.6271  0.4773
  329MOL0     C43328   4.269  10.243  10.648  0.6822  0.8698 -0.0681
  329MOL0     C43329   4.305  10.328  10.749  0.0770  0.8744 -0.8632
  329MOL0     C43330   4.222  10.345  10.864 -0.3640  0.2492  0.8427
  329MOL0     O43331   4.253  10.413  10.974 -0.6687  0.1386  0.1164
  329MOL0     C43332   4.392  10.427  11.014 -0.1980 -0.6767 -0.3326
  329MOL0     C43333   4.396  10.443  11.158 -0.1162 -0.3111 -0.0006
  329MOL0     C43334   4.401  10.320  11.234  0.0531  0.4741 -0.4680
  329MOL0     C43335   4.359  10.341  11.376  1.9520 -0.2895  0.3070
  329MOL0     C43336   4.340  10.207  11.452  0.6461 -0.3603 -0.4854
  329MOL0     C43337   4.433  10.092  11.419 -0.0384 -0.0464 -0.5132
  329MOL0     C43338   4.374   9.960  11.479  0.2652  0.5775  0.3461
  329MOL0     C43339   4.449   9.846  11.421  0.2702  0.1937 -0.2665
  329MOL0    Cl43340   4.359   9.692  11.460 -0.1175 -0.2663  0.0982
  329MOL0     C43341   4.093  10.283  10.862 -0.2218 -0.4319 -0.0785
  329MOL0     C43342   4.072  10.181  10.769  0.1828 -0.1281 -0.1337
  329MOL0     O43343   4.004  10.264  10.461 -0.1307 -0.0973 -0.0769
  329MOL0     C43344   3.962  10.140  10.215 -0.0799  0.3753 -0.6128
  329MOL0     C43345   3.933  10.080  10.099  0.4669 -1.4796 -0.0996
  329MOL0     N43346   4.111   9.337   9.614 -0.3037 -0.0066 -0.5404
  329MOL0     N43347   4.162   9.238   9.561 -0.8426 -0.0308  1.0578
  329MOL0     C43348   3.652   8.320   9.561  0.4160 -0.9164 -0.3733
  329MOL0     C43349   3.605   8.211   9.485 -0.0599 -0.3230 -0.6098
  329MOL0     C43350   3.407   7.814   9.410 -0.0346 -0.4861  0.6905
  329MOL0     C43351   3.497   7.704   9.425  0.4795  0.2638  0.0844
  329MOL0     C43352   3.459   7.582   9.369  0.5344  0.5289 -0.5124
  329MOL0     C43353   3.334   7.566   9.308  0.2979 -0.8588 -0.2488
  329MOL0     O43354   3.285   7.459   9.250  0.2745 -0.6149  0.1462
  329MOL0     C43355   3.317   7.322   9.285 -0.1950  0.7686 -0.3048
  329MOL0     C43356   3.444   7.260   9.243 -0.2351  0.1956 -0.2322
  329MOL0     C43357   3.480   7.282   9.093  0.3493 -0.4835  0.4341
  329MOL0     C43358   3.568   7.176   9.041 -0.7976  1.1696  0.2476
  329MOL0     C43359   3.706   7.198   9.098 -0.2334 -0.9923 -0.4456
  329MOL0     C43360   3.804   7.238   9.155  0.1107  0.3339 -0.5077
  329MOL0     C43361   3.237   7.669   9.310 -0.5696  0.3941 -0.3683
  329MOL0     C43362   3.274   7.797   9.352 -0.9170  0.8184  0.0858
  329MOL0     H43363   3.699   7.965   9.709  1.4606 -0.0993 -1.0928
  329MOL0     H43364   3.734   8.180   9.850  1.5935 -1.1223  0.1918
  329MOL0     H43365   3.649   8.599   9.849  1.2756 -0.6942  0.6280
  329MOL0     H43366   3.573   8.523   9.709  0.9454 -1.3419 -1.1225
  329MOL0     H43367   3.721   8.700   9.644  0.8416  0.2596 -0.9891
  329MOL0     H43368   3.803   8.556   9.577 -0.2027  0.9014 -1.1046
  329MOL0     H43369   3.927   8.554   9.797 -0.4707 -1.0778 -0.8419
  329MOL0     H43370   3.884   8.720   9.821 -2.2399 -0.7137 -0.0941
  329MOL0     H43371   4.077   8.594   9.638  2.5290  0.9646  2.5639
  329MOL0     H43372   3.985   8.719   9.555 -2.1409  0.7071 -0.0029
  329MOL0     H43373   4.188   8.757   9.791  0.9753 -0.3144 -2.4661
  329MOL0     H43374   4.038   8.849   9.790  0.9073 -1.0115  2.2341
  329MOL0     H43375   4.090   8.961   9.588  0.0907  0.3664 -0.1546
  329MOL0     H43376   4.196   8.837   9.524  2.1066 -0.0042  0.6924
  329MOL0     H43377   4.273   9.002   9.760  1.8394 -0.3229  1.0960
  329MOL0     H43378   4.368   8.890   9.669  1.6761  2.9283  3.3547
  329MOL0     H43379   4.320   9.051   9.467  0.5091 -0.4717 -0.5367
  329MOL0     H43380   4.442   9.082   9.600 -0.8890 -1.2381  3.7055
  329MOL0     H43381   4.407   9.286   9.761  0.4204 -0.8004  0.8872
  329MOL0     H43382   4.248   9.592   9.741 -0.8190  0.2771 -0.5050
  329MOL0     H43383   4.270   9.478   9.872  0.7061 -0.7788 -1.4782
  329MOL0     H43384   4.015   9.478   9.890 -0.2622 -0.1690  0.0695
  329MOL0     H43385   3.992   9.561   9.733  0.9517  2.1014 -1.3403
  329MOL0     H43386   4.129   9.671   9.991 -1.4235 -2.5575  0.5257
  329MOL0     H43387   4.122   9.753   9.823 -1.6291  1.9608  1.4503
  329MOL0     H43388   3.898   9.688  10.018  2.8716 -1.2501  1.8209
  329MOL0     H43389   3.863   9.739   9.856  0.0233  3.5057 -0.1157
  329MOL0     H43390   4.071   9.784  10.172  0.4411  0.5318  2.7057
  329MOL0     H43391   4.103   9.891  10.390 -1.8082 -1.4806  0.1782
  329MOL0     H43392   4.329  10.237  10.558 -0.1022 -2.1908 -0.4988
  329MOL0     H43393   4.411  10.350  10.746  0.5220  1.2247  4.9650
  329MOL0     H43394   4.438  10.510  10.959 -0.4086 -1.0951 -1.1613
  329MOL0     H43395   4.447  10.335  10.991  1.5969  0.3370 -0.2106
  329MOL0     H43396   4.307  10.501  11.184 -3.4101 -3.1727 -3.6591
  329MOL0     H43397   4.482  10.502  11.190 -0.0412  0.2021 -1.1219
  329MOL0     H43398   4.500  10.274  11.233 -0.8476 -1.6195 -0.1950
  329MOL0     H43399   4.321  10.257  11.194 -0.6877  1.9068 -1.3096
  329MOL0     H43400   4.438  10.400  11.424  0.4163  1.0798  1.2306
  329MOL0     H43401   4.271  10.403  11.389  3.0960  2.0587 -2.1461
  329MOL0     H43402   4.238  10.170  11.436  0.8267 -1.1804  0.1698
  329MOL0     H43403   4.344  10.229  11.559 -0.8888 -0.7371 -0.3276
  329MOL0     H43404   4.524  10.127  11.469  1.7913 -0.4313 -3.3477
  329MOL0     H43405   4.452  10.080  11.312 -0.4945  2.9425 -1.0281
  329MOL0     H43406   4.378   9.961  11.589  0.4013 -1.2165  0.3862
  329MOL0     H43407   4.268   9.952  11.452  0.8473 -3.0325 -1.4114
  329MOL0     H43408   4.550   9.846  11.464 -0.0255 -2.2537  0.5687
  329MOL0     H43409   4.455   9.849  11.312  0.3323 -4.4386 -0.5805
  329MOL0     H43410   4.024  10.296  10.945  0.8362  2.1297  0.4976
  329MOL0     H43411   3.976  10.144  10.801  0.8097 -0.5515  1.3700
  329MOL0     H43412   3.955  10.247  10.233 -1.2058  0.5961 -2.1608
  329MOL0     H43413   3.887  10.130  10.015 -3.3002 -1.5534  1.7283
  329MOL0     H43414   3.637   8.412   9.504 -0.3341 -0.0294  1.1867
  329MOL0     H43415   3.566   8.232   9.386  1.1144  0.5063 -0.9083
  329MOL0     H43416   3.596   7.726   9.465  0.6232 -1.9981  1.1331
  329MOL0     H43417   3.525   7.496   9.372  1.5201  1.2645 -0.5777
  329MOL0     H43418   3.240   7.252   9.252  1.6784 -4.3230  4.5776
  329MOL0     H43419   3.293   7.315   9.392 -2.7527  2.0709 -0.7131
  329MOL0     H43420   3.525   7.305   9.302  0.1689  0.6643 -1.1240
  329MOL0     H43421   3.436   7.153   9.264 -4.3891  0.2384 -0.7197
  329MOL0     H43422   3.513   7.386   9.085  1.7791 -0.5237  3.9429
  329MOL0     H43423   3.393   7.279   9.026  1.1197  1.1472 -0.7078
  329MOL0     H43424   3.531   7.073   9.049 -1.9646  1.4459 -1.1669
  329MOL0     H43425   3.576   7.183   8.932  2.2244 -3.2632 -0.0963
  329MOL0     H43426   3.884   7.279   9.213  1.3564 -4.0138  1.2266
  329MOL0     H43427   3.133   7.661   9.279 -0.6467  2.0927 -0.6400
  329MOL0     H43428   3.212   7.886   9.356  1.4612  2.5492  0.8096
  330MOL0     O43429   2.317   4.496   5.623  0.0638 -0.2214 -0.4437
  330MOL0     C43430   2.194   4.491   5.608 -0.0564  0.3231  0.1483
  330MOL0     O43431   2.112   4.424   5.690  0.3685 -0.0112 -0.8544
  330MOL0     C43432   2.162   4.372   5.815 -0.6139  0.3332  0.1351
  330MOL0     C43433   2.174   4.438   5.938 -0.3109  1.2376 -0.3055
  330MOL0     C43434   2.248   4.377   6.040 -0.6667 -0.2290  0.1716
  330MOL0     C43435   2.313   4.246   6.023  0.5451  0.6455 -0.3583
  330MOL0     O43436   2.369   4.180   6.129  0.2047 -0.3905 -0.6017
  330MOL0     C43437   2.373   4.242   6.255 -0.8520 -0.8823  0.0930
  330MOL0     C43438   2.413   4.142   6.364  0.1468  0.4029 -0.0174
  330MOL0     C43439   2.435   4.224   6.494  1.0811  0.5731  0.2512
  330MOL0     C43440   2.479   4.146   6.617 -0.2168  0.3908  1.1214
  330MOL0     C43441   2.617   4.092   6.607 -0.2999  0.1664 -0.5749
  330MOL0     C43442   2.696   4.143   6.726 -0.6403  1.0578  0.0822
  330MOL0     C43443   2.835   4.068   6.727 -1.3096  0.2152 -0.7981
  330MOL0     C43444   2.929   4.143   6.819 -0.1459 -0.1577  0.8164
  330MOL0     N43445   3.061   4.082   6.817 -0.0833 -0.8260  0.5070
  330MOL0     C43446   3.117   3.979   6.888  0.1211 -0.0576 -0.7234
  330MOL0     C43447   3.233   3.945   6.839  0.2751 -0.2803 -0.6602
  330MOL0     C43448   3.319   3.848   6.905  0.2864 -0.2711  0.1049
  330MOL0     C43449   3.260   3.713   6.893  0.3692 -0.2839  1.1243
  330MOL0     C43450   3.341   3.605   6.952 -0.2625 -0.1556  0.7847
  330MOL0     C43451   3.458   3.554   6.864 -0.0934  0.6030 -0.4088
  330MOL0     O43452   3.411   3.494   6.744 -0.7591  0.5702  0.1382
  330MOL0     C43453   3.496   3.421   6.667 -0.2921  0.0063  1.1936
  330MOL0     C43454   3.445   3.352   6.550 -0.7580 -0.1819 -0.9276
  330MOL0     C43455   3.529   3.262   6.478 -0.2500  0.2852 -0.4709
  330MOL0     C43456   3.669   3.236   6.522  0.2166 -0.5891 -0.5383
  330MOL0     C43457   3.750   3.139   6.451  0.3531  0.3641 -0.2650
  330MOL0     O43458   3.711   3.104   6.326 -0.2138  0.5513  0.1684
  330MOL0     C43459   3.780   3.004   6.268  0.7582  0.1719 -0.5904
  330MOL0     C43460   3.816   3.005   6.134 -0.2885 -0.4759 -0.4376
  330MOL0     C43461   3.878   2.895   6.082 -0.7338 -0.6216  0.2371
  330MOL0     C43462   3.920   2.778   6.151  0.6287  0.0053 -0.1940
  330MOL0     O43463   3.985   2.674   6.088  0.0355  0.3797  0.8530
  330MOL0     C43464   4.093   2.706   5.998 -0.5962  0.3690  0.0198
  330MOL0     C43465   4.146   2.581   5.928  0.0768 -0.4196 -0.2334
  330MOL0     C43466   4.042   2.487   5.873 -0.2995 -0.5316 -1.2940
  330MOL0     C43467   4.121   2.399   5.787  0.2233  0.9550  0.5843
  330MOL0     C43468   4.053   2.282   5.698  0.1574  0.3509  0.2084
  330MOL0     C43469   3.976   2.166   5.773 -0.2022 -0.6760  0.1161
  330MOL0     C43470   4.080   2.078   5.833 -0.7026  0.1921  1.0346
  330MOL0     C43471   4.136   1.976   5.737 -0.4000 -0.1987  0.2960
  330MOL0    Cl43472   4.256   1.884   5.827  0.0082  0.4303 -0.0033
  330MOL0     C43473   3.877   2.776   6.283  0.8099 -0.6213  0.1782
  330MOL0     C43474   3.802   2.882   6.334 -0.2785 -0.5699  0.3565
  330MOL0     O43475   3.852   3.102   6.511  0.6675  0.1531 -0.3625
  330MOL0     C43476   3.721   3.323   6.623 -0.3594  1.0311  0.7941
  330MOL0     C43477   3.634   3.405   6.700 -0.2976 -0.0603  0.3345
  330MOL0     N43478   3.260   4.041   6.743 -0.0331  0.5305 -1.3407
  330MOL0     N43479   3.158   4.108   6.725 -0.1879 -0.7113 -0.1631
  330MOL0     C43480   2.285   4.186   5.901 -0.7208 -0.0722  0.6430
  330MOL0     C43481   2.222   4.250   5.794 -0.1661  1.3632 -0.2442
  330MOL0     C43482   2.141   4.587   5.504  1.1913  0.4432  0.6529
  330MOL0     C43483   2.227   4.666   5.425 -0.2308 -0.0232  0.0698
  330MOL0     C43484   2.170   4.751   5.333  0.4351 -1.0023  0.7666
  330MOL0     C43485   2.035   4.762   5.311 -0.1143  0.2421 -0.3412
  330MOL0     O43486   1.973   4.848   5.215  0.3054 -0.4042 -0.0678
  330MOL0     C43487   1.890   4.807   5.099 -0.1964  0.9392 -0.5990
  330MOL0     C43488   1.966   4.722   4.992 -0.0400 -0.3789  0.2678
  330MOL0     C43489   2.007   4.812   4.868  0.7306 -0.4294 -0.5198
  330MOL0     C43490   2.129   4.746   4.788 -0.4402 -1.6684  0.2579
  330MOL0     C43491   2.091   4.610   4.748  1.6459  0.0501  0.3835
  330MOL0     C43492   2.068   4.500   4.706 -0.2180 -0.1173  0.0528
  330MOL0     C43493   1.947   4.694   5.396 -0.0025  0.9488  0.1466
  330MOL0     C43494   2.000   4.600   5.488  0.3727 -0.0992  0.9972
  330MOL0     H43495   2.112   4.526   5.954 -2.0235 -0.2027  1.4565
  330MOL0     H43496   2.265   4.427   6.134  2.4957  2.1311 -1.4663
  330MOL0     H43497   2.273   4.279   6.274  0.1048  1.5988  0.6559
  330MOL0     H43498   2.440   4.329   6.252 -0.9936 -0.5737  3.0418
  330MOL0     H43499   2.501   4.085   6.333  1.0529  1.3810  0.6757
  330MOL0     H43500   2.330   4.073   6.378 -0.4067  1.2812  1.2993
  330MOL0     H43501   2.340   4.268   6.524  0.3538 -2.3184  2.6503
  330MOL0     H43502   2.510   4.298   6.468  1.7882 -0.7742 -1.8198
  330MOL0     H43503   2.477   4.220   6.698  0.5703  2.9917 -1.0557
  330MOL0     H43504   2.414   4.061   6.639 -1.2464  0.6453 -0.7615
  330MOL0     H43505   2.666   4.129   6.516  0.4673 -1.5200 -0.8834
  330MOL0     H43506   2.606   3.984   6.606  1.6889 -0.0651 -0.4330
  330MOL0     H43507   2.644   4.120   6.819 -0.7007  0.3681 -0.1212
  330MOL0     H43508   2.716   4.251   6.722 -2.0924  1.4460  2.0169
  330MOL0     H43509   2.817   3.968   6.766 -0.6519  0.7904  1.0670
  330MOL0     H43510   2.872   4.063   6.624 -1.4267 -1.5674 -0.7770
  330MOL0     H43511   2.899   4.145   6.924  3.6599 -1.4716  2.0991
  330MOL0     H43512   2.939   4.244   6.779 -0.8667 -0.0371  0.9201
  330MOL0     H43513   3.072   3.930   6.974  1.1251 -2.1983 -1.3578
  330MOL0     H43514   3.322   3.871   7.011  1.4776  1.9803 -0.3529
  330MOL0     H43515   3.422   3.856   6.869 -0.6149 -2.8890 -3.7194
  330MOL0     H43516   3.242   3.681   6.790 -0.5996  1.6521  0.6532
  330MOL0     H43517   3.166   3.702   6.949 -0.1077  0.2713  0.4605
  330MOL0     H43518   3.387   3.640   7.045  0.5831 -0.6375  0.5665
  330MOL0     H43519   3.281   3.518   6.980  1.5830 -1.6147  0.4949
  330MOL0     H43520   3.507   3.482   6.930 -0.1628 -1.4864 -2.4953
  330MOL0     H43521   3.529   3.634   6.840  0.4548  0.7570  1.5787
  330MOL0     H43522   3.341   3.354   6.518 -1.0598 -0.3580  0.0179
  330MOL0     H43523   3.495   3.200   6.396 -0.8882 -2.6309  1.8212
  330MOL0     H43524   3.797   3.098   6.082 -1.7139  0.5487  1.7748
  330MOL0     H43525   3.918   2.888   5.981 -0.5371 -0.7485  0.3220
  330MOL0     H43526   4.178   2.742   6.056  0.0261 -0.0407 -0.6285
  330MOL0     H43527   4.065   2.776   5.918 -0.3320 -2.5345 -2.8394
  330MOL0     H43528   4.206   2.512   5.988 -0.3240  1.2001  2.1582
  330MOL0     H43529   4.226   2.607   5.857  1.3822  0.5859  1.5221
  330MOL0     H43530   3.967   2.548   5.821  0.5701  3.0347  1.3019
  330MOL0     H43531   4.001   2.437   5.962 -0.3379  1.8675  0.1068
  330MOL0     H43532   4.173   2.461   5.714 -1.6652  0.3679 -1.3679
  330MOL0     H43533   4.205   2.354   5.841 -0.3409  2.4182  2.8016
  330MOL0     H43534   4.130   2.229   5.641 -0.3560  2.2584 -2.4989
  330MOL0     H43535   3.972   2.330   5.643 -0.5435  1.6087  2.2238
  330MOL0     H43536   3.893   2.118   5.721 -0.6800  0.5369 -0.2719
  330MOL0     H43537   3.929   2.214   5.858  0.0707 -1.8489  0.9571
  330MOL0     H43538   4.168   2.136   5.862  1.4166 -1.5912 -1.4043
  330MOL0     H43539   4.033   2.023   5.915 -1.2445  0.3035  0.8052
  330MOL0     H43540   4.182   2.014   5.645  0.9007 -0.5591  0.7766
  330MOL0     H43541   4.056   1.903   5.717 -1.1179  0.3710  1.0027
  330MOL0     H43542   3.896   2.688   6.344  0.4160  0.4658  1.9068
  330MOL0     H43543   3.774   2.876   6.438 -2.0458 -1.1012 -0.1082
  330MOL0     H43544   3.823   3.322   6.661 -0.2658 -0.2929  0.5915
  330MOL0     H43545   3.674   3.458   6.785  1.0506 -1.8376  0.8844
  330MOL0     H43546   2.339   4.094   5.880  2.0220  1.7441 -0.9192
  330MOL0     H43547   2.212   4.193   5.702  0.9291 -0.3971  0.6786
  330MOL0     H43548   2.335   4.656   5.420 -0.4255 -2.0682 -3.9866
  330MOL0     H43549   2.233   4.807   5.264 -2.1902 -1.4471 -2.2053
  330MOL0     H43550   1.834   4.890   5.056  0.1161  1.2780 -0.3538
  330MOL0     H43551   1.815   4.742   5.144  0.1614  0.1317 -1.1210
  330MOL0     H43552   2.056   4.689   5.045 -1.2267 -0.6528  2.1741
  330MOL0     H43553   1.917   4.632   4.954  0.9221  0.3591 -3.0418
  330MOL0     H43554   2.040   4.905   4.916 -3.3719  0.9780 -0.0148
  330MOL0     H43555   1.926   4.830   4.797  0.5798 -2.7873 -1.0106
  330MOL0     H43556   2.145   4.803   4.696 -2.4551 -2.0285 -0.3464
  330MOL0     H43557   2.219   4.735   4.850  1.3871  1.2224 -1.5943
  330MOL0     H43558   2.062   4.410   4.648 -0.7509  1.9776 -3.4154
  330MOL0     H43559   1.838   4.696   5.400 -0.1295 -2.1206  0.4212
  330MOL0     H43560   1.932   4.539   5.548 -1.3402 -0.1215 -0.8907
  331MOL0     O43561   3.642   1.067   1.021  0.4001  0.7607  0.5301
  331MOL0     C43562   3.569   0.979   0.974 -0.1744  0.2266 -0.9874
  331MOL0     O43563   3.571   0.847   0.989 -0.2062 -0.6726 -0.4876
  331MOL0     C43564   3.676   0.778   1.035 -0.2477  0.6932  0.4892
  331MOL0     C43565   3.805   0.830   1.072 -0.2188 -0.1602  1.1683
  331MOL0     C43566   3.898   0.751   1.139  0.7094  0.7288  0.9509
  331MOL0     C43567   3.864   0.618   1.179 -0.0087 -0.3068  0.0272
  331MOL0     O43568   3.941   0.535   1.259 -0.0090  0.1539 -0.4074
  331MOL0     C43569   4.056   0.585   1.329 -0.4606  0.1285  0.9829
  331MOL0     C43570   4.009   0.660   1.459  0.7008  0.0738 -0.7251
  331MOL0     C43571   4.080   0.603   1.575  0.1996  0.2218  0.5790
  331MOL0     C43572   4.053   0.697   1.700 -0.0207 -0.3409  0.0366
  331MOL0     C43573   4.139   0.670   1.820 -0.6200  0.0261 -0.5878
  331MOL0     C43574   4.092   0.553   1.910  0.5159 -0.6418  0.0522
  331MOL0     C43575   3.945   0.572   1.958 -0.3355 -0.1549 -0.5943
  331MOL0     C43576   3.909   0.465   2.066 -0.5001 -0.4090 -0.0478
  331MOL0     N43577   3.999   0.472   2.179 -0.5184 -0.0569 -0.6316
  331MOL0     C43578   4.114   0.409   2.191 -0.1277  0.3750 -0.4816
  331MOL0     C43579   4.160   0.437   2.311  0.6625 -0.8792 -0.3735
  331MOL0     C43580   4.290   0.384   2.373  0.1624 -0.1119 -0.8636
  331MOL0     C43581   4.411   0.485   2.380  0.5494  0.0322 -0.3100
  331MOL0     C43582   4.420   0.519   2.526  0.1638 -0.7028  0.2475
  331MOL0     C43583   4.537   0.616   2.553  0.1192 -0.3668 -0.5505
  331MOL0     O43584   4.549   0.736   2.480  0.0906 -0.1740 -0.9840
  331MOL0     C43585   4.665   0.815   2.492 -0.5449  0.5292  0.7879
  331MOL0     C43586   4.777   0.795   2.582  0.6238 -0.1846  0.6907
  331MOL0     C43587   4.883   0.891   2.585  0.7298  1.1269 -1.1323
  331MOL0     C43588   4.883   1.002   2.497 -0.0633  0.2820 -0.8760
  331MOL0     C43589   4.987   1.104   2.507 -0.5811 -0.8820 -0.0713
  331MOL0     O43590   5.048   1.104   2.629  1.1276 -0.0975 -0.4284
  331MOL0     C43591   5.121   1.218   2.653 -0.1046 -0.3577  0.1704
  331MOL0     C43592   5.109   1.285   2.775 -0.1552  0.5444 -0.0760
  331MOL0     C43593   5.195   1.392   2.811  0.2055 -0.0722  0.3138
  331MOL0     C43594   5.290   1.448   2.725 -0.1099 -0.8318 -0.8621
  331MOL0     O43595   5.372   1.549   2.758 -0.2059  0.7031 -0.6197
  331MOL0     C43596   5.506   1.541   2.715 -0.0829 -0.9766  0.1085
  331MOL0     C43597   5.568   1.666   2.772 -0.3474 -1.0162 -0.3971
  331MOL0     C43598   5.712   1.671   2.714  0.5156 -0.3340 -0.7665
  331MOL0     C43599   5.776   1.803   2.754 -0.1255  0.0248  0.2794
  331MOL0     C43600   5.913   1.831   2.690 -0.2743  0.0290  0.3463
  331MOL0     C43601   5.975   1.959   2.743 -0.1940  0.6026  0.1590
  331MOL0     C43602   6.120   1.960   2.710  0.1253 -0.2366 -1.0338
  331MOL0     C43603   6.153   1.963   2.555  0.6794 -0.0281 -0.6592
  331MOL0    Cl43604   6.332   1.994   2.519  0.1303 -0.1903 -0.1443
  331MOL0     C43605   5.298   1.390   2.601 -0.0948 -0.2045  0.1564
  331MOL0     C43606   5.220   1.274   2.565 -0.1577 -0.0701  0.0965
  331MOL0     O43607   4.995   1.183   2.416 -0.6463  0.1874  1.0826
  331MOL0     C43608   4.777   1.017   2.405 -0.3414 -0.1431 -0.0209
  331MOL0     C43609   4.672   0.923   2.407 -0.2919 -0.2588  0.0123
  331MOL0     N43610   4.076   0.535   2.375 -0.6653  0.6084  0.5250
  331MOL0     N43611   3.968   0.550   2.300  0.2930  0.5010 -0.1283
  331MOL0     C43612   3.748   0.562   1.124  0.5734 -0.4227  0.2388
  331MOL0     C43613   3.655   0.646   1.055 -0.4770  0.1391 -0.4487
  331MOL0     C43614   3.457   1.031   0.887  0.8947  1.0232  0.2245
  331MOL0     C43615   3.457   1.155   0.826 -0.7565 -0.2757  0.0725
  331MOL0     C43616   3.356   1.194   0.735  0.0504  0.7214  0.0064
  331MOL0     C43617   3.239   1.114   0.705  0.2258  0.0458  0.6917
  331MOL0     O43618   3.142   1.124   0.606 -0.1569  0.1859 -1.0429
  331MOL0     C43619   3.182   1.207   0.499  0.1509  0.5413 -0.2015
  331MOL0     C43620   3.048   1.274   0.455  0.1730  0.2644  0.2593
  331MOL0     C43621   3.080   1.372   0.346 -0.2294 -0.6704  0.0089
  331MOL0     C43622   3.136   1.303   0.216  0.0077 -0.3305  0.0534
  331MOL0     C43623   3.168   1.401   0.112 -0.4353  0.0005 -0.5686
  331MOL0     C43624   3.189   1.506   0.046 -0.2165 -1.0520 -0.8628
  331MOL0     C43625   3.247   0.989   0.769  0.0593  1.1282  0.2675
  331MOL0     C43626   3.345   0.941   0.853 -0.5359  0.0648 -0.6944
  331MOL0     H43627   3.828   0.935   1.057  2.2457 -1.0787 -3.6743
  331MOL0     H43628   3.990   0.795   1.175  1.8725 -1.1222  0.3973
  331MOL0     H43629   4.128   0.642   1.269 -1.1636 -3.0587 -3.2724
  331MOL0     H43630   4.108   0.491   1.348  1.5792  1.3893  2.1358
  331MOL0     H43631   3.902   0.638   1.460  0.4251  1.2563 -1.6226
  331MOL0     H43632   4.019   0.769   1.453  0.8745  0.2259  1.5058
  331MOL0     H43633   4.187   0.612   1.557  0.5708  2.1658  3.0469
  331MOL0     H43634   4.055   0.498   1.593 -0.4877  0.4162  0.7861
  331MOL0     H43635   4.074   0.798   1.663  0.8858  0.1666  1.8085
  331MOL0     H43636   3.948   0.698   1.731 -0.0578  0.0489 -0.0940
  331MOL0     H43637   4.128   0.762   1.878 -0.5974  1.5520 -2.8584
  331MOL0     H43638   4.245   0.660   1.797 -0.2888 -4.0927  1.7411
  331MOL0     H43639   4.163   0.560   1.993 -0.7075  3.2172  0.9667
  331MOL0     H43640   4.112   0.468   1.844  4.4101 -0.2826  0.5569
  331MOL0     H43641   3.939   0.670   2.007  0.4206  0.2958 -1.3645
  331MOL0     H43642   3.877   0.568   1.872 -0.5700 -1.5522 -0.3600
  331MOL0     H43643   3.920   0.365   2.023  0.0128  0.0174 -0.9305
  331MOL0     H43644   3.810   0.469   2.112 -0.2855  0.0380  0.3749
  331MOL0     H43645   4.149   0.339   2.116 -0.0042 -0.0445 -0.0413
  331MOL0     H43646   4.312   0.292   2.319  2.4090 -0.3176  0.3017
  331MOL0     H43647   4.276   0.336   2.471 -0.5605  2.8591  0.6207
  331MOL0     H43648   4.382   0.577   2.329  0.0770 -0.1404 -0.3631
  331MOL0     H43649   4.502   0.442   2.339 -0.9505 -3.0388 -0.7538
  331MOL0     H43650   4.331   0.566   2.570  1.8750  1.4880  1.6038
  331MOL0     H43651   4.430   0.432   2.590  0.7478 -0.7580  0.0876
  331MOL0     H43652   4.631   0.561   2.540  0.1470 -0.7916  1.2088
  331MOL0     H43653   4.530   0.637   2.660  1.3954 -0.8275 -0.3548
  331MOL0     H43654   4.782   0.701   2.636  3.5042 -0.4627  0.0986
  331MOL0     H43655   4.961   0.870   2.657 -2.7117 -2.9473  1.8998
  331MOL0     H43656   5.036   1.254   2.849 -3.3113 -3.7430 -4.4083
  331MOL0     H43657   5.197   1.425   2.915 -1.3412 -1.1778  0.7245
  331MOL0     H43658   5.522   1.541   2.607  0.9079 -4.5985  0.1085
  331MOL0     H43659   5.553   1.450   2.755 -0.8558 -0.6745  1.8013
  331MOL0     H43660   5.572   1.665   2.882  0.9359 -0.8022 -0.4352
  331MOL0     H43661   5.503   1.747   2.735 -0.2759 -1.5966 -1.8571
  331MOL0     H43662   5.704   1.659   2.605 -5.1039  1.0027 -0.7732
  331MOL0     H43663   5.775   1.592   2.757 -0.3651  0.7248  2.7119
  331MOL0     H43664   5.706   1.884   2.729  0.1308  1.4590  3.6096
  331MOL0     H43665   5.773   1.797   2.863 -0.6449 -0.6182  0.2326
  331MOL0     H43666   5.894   1.840   2.583  1.7087  1.0702  0.0244
  331MOL0     H43667   5.986   1.751   2.705  0.2560  0.6460  1.1239
  331MOL0     H43668   5.964   1.967   2.852  2.4703  1.3441  0.4497
  331MOL0     H43669   5.909   2.036   2.704  0.0393  1.8759  2.1573
  331MOL0     H43670   6.159   2.049   2.761  1.8601 -1.2738 -0.4486
  331MOL0     H43671   6.179   1.873   2.741  5.3127  1.5158 -4.5564
  331MOL0     H43672   6.088   2.027   2.495 -3.7967 -1.8686  1.8032
  331MOL0     H43673   6.128   1.862   2.522 -1.5845 -0.2975  1.6263
  331MOL0     H43674   5.362   1.426   2.521 -1.5442 -2.1006 -1.9699
  331MOL0     H43675   5.231   1.229   2.467 -0.8552 -2.0987  0.8916
  331MOL0     H43676   4.781   1.105   2.342  2.5122  0.2046  0.5215
  331MOL0     H43677   4.584   0.945   2.348 -0.6487  0.0329  0.6416
  331MOL0     H43678   3.716   0.462   1.150  2.4747 -1.7138 -1.9354
  331MOL0     H43679   3.561   0.600   1.029 -1.8151  0.2492  3.5561
  331MOL0     H43680   3.544   1.214   0.853 -1.4644  0.3853  0.9599
  331MOL0     H43681   3.357   1.292   0.688 -0.2992  0.4555 -0.5752
  331MOL0     H43682   3.222   1.144   0.420 -2.2935  1.9337 -2.7311
  331MOL0     H43683   3.257   1.281   0.529 -1.1714  1.3539  1.2819
  331MOL0     H43684   2.968   1.206   0.422 -0.4467  1.2936 -0.4254
  331MOL0     H43685   3.010   1.328   0.542 -2.9142  1.7526 -1.8269
  331MOL0     H43686   3.146   1.447   0.388 -1.7689  0.2744  0.8230
  331MOL0     H43687   2.988   1.427   0.322  0.0487 -0.0772  0.2916
  331MOL0     H43688   3.230   1.252   0.237  1.5846  3.3547  3.1975
  331MOL0     H43689   3.057   1.234   0.183  0.1718 -1.0274  1.0907
  331MOL0     H43690   3.209   1.604   0.007  1.0604  0.1356  2.3985
  331MOL0     H43691   3.173   0.919   0.732  1.6281 -0.0853 -0.7020
  331MOL0     H43692   3.341   0.842   0.897 -0.0408  1.0287  1.6492
  332MOL0     O43693   4.399   1.877   9.758 -0.1065  0.0435  0.2145
  332MOL0     C43694   4.453   1.795   9.829  0.1643 -1.1027 -1.0769
  332MOL0     O43695   4.393   1.715   9.921  0.4654 -0.0431 -0.2020
  332MOL0     C43696   4.267   1.752   9.971  0.0493 -0.3778  0.4188
  332MOL0     C43697   4.164   1.650   9.965 -1.1237 -0.1681 -0.1614
  332MOL0     C43698   4.040   1.687  10.024  0.2427  0.6052 -0.2578
  332MOL0     C43699   4.012   1.818  10.073 -0.3895  0.2542 -0.1070
  332MOL0     O43700   3.897   1.860  10.131  0.0437  0.8398  0.7336
  332MOL0     C43701   3.778   1.789  10.153  0.0910  0.1009  0.3432
  332MOL0     C43702   3.751   1.779  10.297  0.5537 -0.5457  0.5768
  332MOL0     C43703   3.643   1.683  10.344  0.3065  0.1277  0.4766
  332MOL0     C43704   3.501   1.722  10.313 -0.7362 -0.8319 -0.3148
  332MOL0     C43705   3.400   1.605  10.308  0.7784  0.2600 -0.4769
  332MOL0     C43706   3.392   1.560  10.161  0.2717  0.2849  0.2430
  332MOL0     C43707   3.281   1.450  10.149  0.7749  0.1264  0.2949
  332MOL0     C43708   3.268   1.381  10.018  0.2315 -0.4826  0.6377
  332MOL0     N43709   3.187   1.259  10.035  0.3170 -0.6418  0.7050
  332MOL0     C43710   3.052   1.254  10.056 -0.1573 -0.6469 -0.3973
  332MOL0     C43711   3.023   1.121  10.075  0.1267  0.1383  0.6605
  332MOL0     C43712   2.895   1.070  10.124 -0.6092  0.1780  0.5493
  332MOL0     C43713   2.777   1.108  10.032 -0.0293  0.8594  0.1066
  332MOL0     C43714   2.797   1.031   9.900  0.6011  0.3665  0.7276
  332MOL0     C43715   2.681   1.031   9.801  0.4783  1.1532  0.7898
  332MOL0     O43716   2.555   0.963   9.849 -0.4875 -0.1983  0.5155
  332MOL0     C43717   2.571   0.829   9.838  1.0282  1.0671  0.2874
  332MOL0     C43718   2.517   0.762   9.725 -0.8235  0.6754 -1.0928
  332MOL0     C43719   2.504   0.623   9.726 -0.1889 -0.3812 -0.9544
  332MOL0     C43720   2.555   0.550   9.839  0.4901 -0.2350  0.5195
  332MOL0     C43721   2.551   0.401   9.846  0.7858  0.5911  0.8043
  332MOL0     O43722   2.522   0.337   9.726  0.1886 -0.1540 -0.1343
  332MOL0     C43723   2.467   0.211   9.724 -0.8476 -0.5543  0.7603
  332MOL0     C43724   2.554   0.106   9.686  0.5270  0.9027 -0.2184
  332MOL0     C43725   2.506  -0.025   9.663 -1.3059  1.3333 -0.1064
  332MOL0     C43726   2.371  -0.045   9.699  0.1457  0.0347 -0.0343
  332MOL0     O43727   2.315  -0.169   9.705 -0.0861  0.0869 -0.5844
  332MOL0     C43728   2.297  -0.198   9.838  0.0234  0.7107  0.2542
  332MOL0     C43729   2.237  -0.336   9.861 -0.0970 -0.4114 -0.8622
  332MOL0     C43730   2.116  -0.363   9.770 -1.3703  0.0021 -0.0468
  332MOL0     C43731   2.060  -0.500   9.787 -0.2595  0.3934 -0.0537
  332MOL0     C43732   1.944  -0.519   9.690 -0.3248  0.8446 -0.0390
  332MOL0     C43733   1.863  -0.651   9.721 -1.1016 -0.1923  0.2813
  332MOL0     C43734   1.750  -0.617   9.823 -0.3378 -0.9047 -0.2356
  332MOL0     C43735   1.671  -0.725   9.892 -0.0269  0.2611 -0.1144
  332MOL0    Cl43736   1.789  -0.819   9.981  0.2485  0.1210  0.0239
  332MOL0     C43737   2.283   0.062   9.738 -0.3758 -0.0838  0.4137
  332MOL0     C43738   2.342   0.188   9.749  0.6900  0.4971 -0.9555
  332MOL0     O43739   2.556   0.346   9.956  0.0838  0.4022 -0.0444
  332MOL0     C43740   2.612   0.623   9.943  0.3672  0.5741  0.0631
  332MOL0     C43741   2.612   0.756   9.946 -0.4538 -0.1833  0.1629
  332MOL0     N43742   3.144   1.055  10.078 -0.3631  0.4418  0.1233
  332MOL0     N43743   3.239   1.136  10.048 -0.4380  0.0196  0.1759
  332MOL0     C43744   4.113   1.920  10.075  0.2222 -0.3438 -0.8687
  332MOL0     C43745   4.239   1.881  10.022  1.1134 -0.8372 -0.9363
  332MOL0     C43746   4.595   1.784   9.792  0.4365  0.1730  0.6461
  332MOL0     C43747   4.642   1.812   9.661  0.1603 -0.2628 -0.3074
  332MOL0     C43748   4.770   1.792   9.633 -0.2527  0.5841  0.7377
  332MOL0     C43749   4.861   1.725   9.720  0.2442 -0.6538  0.1633
  332MOL0     O43750   4.989   1.713   9.675 -0.3937  0.0352 -0.0017
  332MOL0     C43751   5.084   1.660   9.762  0.2997 -0.5699  0.3841
  332MOL0     C43752   5.236   1.666   9.706 -0.6597 -0.1321 -0.4661
  332MOL0     C43753   5.252   1.798   9.623 -0.4347 -0.5015  0.1594
  332MOL0     C43754   5.247   1.916   9.732 -0.0942  0.4253  0.0883
  332MOL0     C43755   5.307   2.038   9.665  0.7927 -0.5329 -0.3899
  332MOL0     C43756   5.353   2.141   9.623 -0.1212 -0.1975 -0.0216
  332MOL0     C43757   4.809   1.686   9.849 -0.1371 -0.1526  0.2896
  332MOL0     C43758   4.677   1.720   9.874  0.7553  0.6362  0.4355
  332MOL0     H43759   4.189   1.550   9.931  2.6976  0.2266  1.0216
  332MOL0     H43760   3.963   1.611  10.031  0.9473 -0.6194 -3.7488
  332MOL0     H43761   3.787   1.686  10.118  2.1212 -0.0829  1.3007
  332MOL0     H43762   3.702   1.837  10.090  0.9356 -1.2472 -1.8207
  332MOL0     H43763   3.738   1.883  10.327  1.2474 -0.2761 -0.0034
  332MOL0     H43764   3.840   1.742  10.349 -0.1684  1.7861  3.7570
  332MOL0     H43765   3.654   1.678  10.452 -1.1085  1.8338  0.7464
  332MOL0     H43766   3.655   1.583  10.301  0.1389 -0.2582  1.3124
  332MOL0     H43767   3.478   1.798  10.389  2.1458 -0.4720  0.3067
  332MOL0     H43768   3.499   1.768  10.213 -0.1110  0.9995  0.4739
  332MOL0     H43769   3.301   1.637  10.341 -1.0103 -2.8502 -2.3227
  332MOL0     H43770   3.435   1.523  10.371  2.2290 -0.8745 -2.6067
  332MOL0     H43771   3.489   1.513  10.142  1.1045  1.7629  0.7315
  332MOL0     H43772   3.384   1.638  10.085 -0.1655  1.2910  1.2899
  332MOL0     H43773   3.299   1.370  10.222 -1.0363  1.6322  2.5790
  332MOL0     H43774   3.187   1.504  10.168 -0.2772 -1.4356 -0.2299
  332MOL0     H43775   3.366   1.360   9.974  0.0959  2.7401 -1.5955
  332MOL0     H43776   3.223   1.454   9.950  2.6222  0.5932  0.0955
  332MOL0     H43777   2.991   1.344  10.056 -1.1070 -1.2711 -1.6739
  332MOL0     H43778   2.890   1.110  10.225 -0.1096  2.0874 -0.1439
  332MOL0     H43779   2.898   0.963  10.145  2.6704  0.2525  0.8295
  332MOL0     H43780   2.773   1.215  10.010 -0.9646  0.1617 -4.0355
  332MOL0     H43781   2.684   1.076  10.079 -0.9499 -0.3261 -2.3413
  332MOL0     H43782   2.880   1.077   9.846  1.4718 -0.7668  1.0530
  332MOL0     H43783   2.818   0.925   9.920  0.1058  0.8977  5.0912
  332MOL0     H43784   2.709   0.990   9.704 -1.1837  2.5481 -0.3388
  332MOL0     H43785   2.655   1.135   9.781  0.5576  0.8842 -0.8199
  332MOL0     H43786   2.480   0.825   9.645 -0.1590 -1.1326 -2.9020
  332MOL0     H43787   2.470   0.561   9.644 -1.1630 -1.0454 -0.0698
  332MOL0     H43788   2.655   0.131   9.657  0.6658 -0.2083 -0.7306
  332MOL0     H43789   2.570  -0.097   9.612 -0.4199 -1.1022  4.0215
  332MOL0     H43790   2.210  -0.138   9.868 -0.2952  0.1029  0.5648
  332MOL0     H43791   2.381  -0.183   9.907  0.9821 -0.4141 -0.6279
  332MOL0     H43792   2.207  -0.335   9.966  1.8040  2.8159 -0.2158
  332MOL0     H43793   2.319  -0.406   9.844  1.9154  1.3586  0.9768
  332MOL0     H43794   2.156  -0.354   9.669 -1.6585  1.4884 -0.0527
  332MOL0     H43795   2.036  -0.291   9.785 -2.8453 -2.2637  6.2674
  332MOL0     H43796   2.126  -0.577   9.747  1.5260  0.7812  2.0080
  332MOL0     H43797   2.043  -0.528   9.891 -0.7230 -2.5782 -0.8450
  332MOL0     H43798   1.983  -0.537   9.590  1.1676  1.1704  0.4654
  332MOL0     H43799   1.875  -0.434   9.695 -2.0699 -0.4073 -1.3742
  332MOL0     H43800   1.938  -0.710   9.775  1.7785 -1.1188 -4.1730
  332MOL0     H43801   1.826  -0.707   9.634  1.1797 -3.5732  1.2691
  332MOL0     H43802   1.792  -0.559   9.905 -1.8635  3.6418 -2.3687
  332MOL0     H43803   1.672  -0.549   9.787 -1.0730 -0.8596  1.3408
  332MOL0     H43804   1.619  -0.785   9.817  1.1534 -1.1980  0.1780
  332MOL0     H43805   1.597  -0.695   9.967  2.6033  0.1111  2.7625
  332MOL0     H43806   2.178   0.045   9.761 -0.4863 -0.7706 -0.5498
  332MOL0     H43807   2.288   0.280   9.771  1.7141  1.8085 -3.5912
  332MOL0     H43808   2.658   0.566  10.023 -0.4225 -0.3497 -0.1240
  332MOL0     H43809   2.650   0.804  10.036  0.5218  1.0066 -0.8434
  332MOL0     H43810   4.102   2.022  10.110  0.3909 -0.6398  0.0633
  332MOL0     H43811   4.315   1.958  10.019 -0.9850  1.3642 -0.8239
  332MOL0     H43812   4.577   1.870   9.596 -0.3204 -0.3598  0.0853
  332MOL0     H43813   4.804   1.808   9.531 -2.7127 -0.8109 -0.4176
  332MOL0     H43814   5.058   1.560   9.797 -0.7917 -0.4140  0.0468
  332MOL0     H43815   5.079   1.719   9.854  0.6014 -0.5250  0.3739
  332MOL0     H43816   5.314   1.670   9.782  2.2154  1.8225 -3.2592
  332MOL0     H43817   5.240   1.585   9.633 -2.4554 -0.0400 -0.7189
  332MOL0     H43818   5.175   1.811   9.546 -1.2824 -4.3018  0.1339
  332MOL0     H43819   5.348   1.802   9.571 -1.1041 -0.8263 -1.1444
  332MOL0     H43820   5.141   1.940   9.741  0.3383  1.7856  2.1418
  332MOL0     H43821   5.302   1.896   9.824  0.7749 -3.1135 -1.0382
  332MOL0     H43822   5.393   2.225   9.569  2.3884 -0.6216  1.0096
  332MOL0     H43823   4.870   1.632   9.921 -0.0373 -2.0467 -1.1359
  332MOL0     H43824   4.661   1.690   9.977 -0.3156 -0.3010  0.0207
  333MOL0     O43825   1.605  11.219  11.351 -0.7273  0.6369  0.0328
  333MOL0     C43826   1.677  11.154  11.272 -0.7645 -0.1206  0.7616
  333MOL0     O43827   1.690  11.178  11.142  0.2382 -0.0589 -0.5882
  333MOL0     C43828   1.599  11.274  11.083  0.1038  0.4847 -0.1214
  333MOL0     C43829   1.461  11.236  11.067 -0.1553 -0.1736 -0.3352
  333MOL0     C43830   1.388  11.316  10.987 -0.3245 -0.7874 -0.1164
  333MOL0     C43831   1.446  11.429  10.924 -0.5247  0.9225 -0.8105
  333MOL0     O43832   1.365  11.507  10.835  0.4617 -0.1095 -0.5651
  333MOL0     C43833   1.273  11.598  10.893 -0.3243  0.4497 -0.7713
  333MOL0     C43834   1.286  11.737  10.824 -0.2801 -0.1363 -0.3839
  333MOL0     C43835   1.430  11.806  10.836 -0.1279  0.0061  0.0164
  333MOL0     C43836   1.434  11.871  10.983 -0.7632  0.1963  1.0067
  333MOL0     C43837   1.567  11.941  11.007 -0.6800  1.0654 -0.5071
  333MOL0     C43838   1.657  11.859  11.092 -1.3866 -0.3465 -0.7846
  333MOL0     C43839   1.778  11.934  11.149 -0.7261 -1.0828 -0.8960
  333MOL0     C43840   1.897  11.944  11.049  0.0639 -0.1375 -0.7401
  333MOL0     N43841   1.991  12.052  11.092  0.9130 -0.0977 -0.1474
  333MOL0     C43842   2.123  12.032  11.111  0.1018  0.4373 -0.9576
  333MOL0     C43843   2.171  12.162  11.120  0.2612 -0.0382 -0.8679
  333MOL0     C43844   2.320  12.201  11.124 -0.2932  0.3440  0.1790
  333MOL0     C43845   2.389  12.139  11.245 -0.6249 -0.6467  0.7478
  333MOL0     C43846   2.537  12.192  11.236 -0.2435 -1.4287 -0.2379
  333MOL0     C43847   2.626  12.119  11.338 -0.1679 -0.0475 -0.5093
  333MOL0     O43848   2.592  12.146  11.471 -0.4628 -0.0279 -0.9595
  333MOL0     C43849   2.619  12.276  11.509  0.0097  0.3640  0.3775
  333MOL0     C43850   2.527  12.327  11.597  0.6685 -0.1822  0.7918
  333MOL0     C43851   2.525  12.467  11.623 -0.1957  0.3949 -0.0722
  333MOL0     C43852   2.624  12.554  11.585 -0.2728  0.0887 -0.0182
  333MOL0     C43853   2.633  12.695  11.616  1.0081  0.5628  0.2102
  333MOL0     O43854   2.520  12.737  11.697 -0.3955 -0.5041  0.3897
  333MOL0     C43855   2.496  12.862  11.733  0.9018  0.0623 -0.7151
  333MOL0     C43856   2.484  12.965  11.639  0.6993 -0.0448 -0.6518
  333MOL0     C43857   2.457  13.097  11.669 -0.3555 -0.2487  0.1381
  333MOL0     C43858   2.439  13.121  11.802 -0.3908  0.1667  0.1598
  333MOL0     O43859   2.399  13.248  11.836 -0.2418 -0.1258 -0.2017
  333MOL0     C43860   2.282  13.294  11.788  0.6318 -0.4550  1.1240
  333MOL0     C43861   2.160  13.221  11.838  0.0168 -0.4628  0.1203
  333MOL0     C43862   2.035  13.301  11.843 -0.4626 -0.2092  0.1165
  333MOL0     C43863   1.914  13.215  11.884 -0.2663  0.2440 -0.5144
  333MOL0     C43864   1.790  13.295  11.839 -1.5435  0.7895  0.2940
  333MOL0     C43865   1.758  13.267  11.698  0.1786  0.3665 -0.5609
  333MOL0     C43866   1.703  13.387  11.629 -0.2363 -0.5093 -0.3574
  333MOL0     C43867   1.703  13.358  11.490  0.4691  0.0617  0.9171
  333MOL0    Cl43868   1.567  13.251  11.473 -0.1702  0.6229  0.5273
  333MOL0     C43869   2.452  13.025  11.894 -0.6630 -0.1050 -0.8104
  333MOL0     C43870   2.485  12.889  11.868  0.2158  0.8968 -0.1612
  333MOL0     O43871   2.715  12.774  11.566  0.5147 -1.0153 -0.3567
  333MOL0     C43872   2.724  12.499  11.498  0.2769 -0.3509 -0.2410
  333MOL0     C43873   2.724  12.367  11.463  0.5478 -0.2028  0.2285
  333MOL0     N43874   2.059  12.242  11.127 -0.0964 -0.0695  1.0592
  333MOL0     N43875   1.952  12.178  11.106 -0.6069 -0.7315  0.1466
  333MOL0     C43876   1.583  11.462  10.949 -0.2193 -0.3814  0.1596
  333MOL0     C43877   1.656  11.378  11.021  0.7706  0.0232  0.9049
  333MOL0     C43878   1.745  11.041  11.322  0.0868 -0.0064  0.1706
  333MOL0     C43879   1.763  10.926  11.240 -0.5228  0.5035 -0.1347
  333MOL0     C43880   1.827  10.818  11.294  0.4565  0.4196 -0.6578
  333MOL0     C43881   1.872  10.813  11.430  0.0621 -0.3482  0.7592
  333MOL0     O43882   1.917  10.703  11.500  0.7521 -0.7279  1.0667
  333MOL0     C43883   1.877  10.573  11.450 -0.1893 -0.2780 -0.4937
  333MOL0     C43884   1.737  10.554  11.501  0.0957 -0.5796 -0.6649
  333MOL0     C43885   1.663  10.427  11.458  0.0877  0.3519 -0.6549
  333MOL0     C43886   1.755  10.310  11.432 -0.6550 -0.2845 -1.1420
  333MOL0     C43887   1.827  10.308  11.307 -0.1579 -0.1308 -0.1321
  333MOL0     C43888   1.884  10.305  11.194  0.0648 -0.4590  0.6578
  333MOL0     C43889   1.851  10.928  11.513  0.3040 -0.8984 -0.4179
  333MOL0     C43890   1.781  11.043  11.465  0.1931  1.4380  0.5796
  333MOL0     H43891   1.413  11.145  11.102  2.7795 -1.2860  1.1361
  333MOL0     H43892   1.283  11.294  10.975 -1.4636  3.9113 -0.4149
  333MOL0     H43893   1.287  11.614  11.000  0.6284  3.1185 -1.2222
  333MOL0     H43894   1.172  11.564  10.866 -1.0251  1.9613 -0.1912
  333MOL0     H43895   1.205  11.806  10.849 -0.1534  0.2178 -0.9379
  333MOL0     H43896   1.262  11.718  10.719  1.6272  3.2550 -1.5826
  333MOL0     H43897   1.446  11.877  10.755 -1.8548  0.3080 -0.0933
  333MOL0     H43898   1.502  11.725  10.821 -0.2265  0.0414 -0.6696
  333MOL0     H43899   1.349  11.939  10.996 -2.1701 -2.0962  5.8915
  333MOL0     H43900   1.411  11.792  11.055 -0.8707 -1.1062 -0.4023
  333MOL0     H43901   1.551  12.039  11.052 -2.1407  1.3940 -1.6876
  333MOL0     H43902   1.619  11.950  10.911  0.7154 -1.0186 -0.0221
  333MOL0     H43903   1.698  11.764  11.056  2.7842  1.3887 -1.2476
  333MOL0     H43904   1.590  11.830  11.173 -0.3777  2.7588  1.3575
  333MOL0     H43905   1.742  12.033  11.179  1.0229 -0.7484  0.2276
  333MOL0     H43906   1.820  11.889  11.239  2.7219  0.7780 -1.3811
  333MOL0     H43907   1.856  11.986  10.957 -0.4729 -0.9352 -0.8690
  333MOL0     H43908   1.954  11.852  11.036  1.7530  1.0443 -2.1119
  333MOL0     H43909   2.181  11.940  11.113  0.3222  0.5835  1.3828
  333MOL0     H43910   2.325  12.310  11.135 -1.5073  0.2975  1.7395
  333MOL0     H43911   2.360  12.172  11.027 -0.3050  2.1476 -0.3964
  333MOL0     H43912   2.392  12.030  11.257  0.7041 -0.5277  1.8674
  333MOL0     H43913   2.350  12.182  11.338  0.6276 -0.0604  1.0310
  333MOL0     H43914   2.571  12.172  11.134  0.8129 -3.8646  0.5248
  333MOL0     H43915   2.536  12.300  11.251 -0.2035 -1.0033 -2.8578
  333MOL0     H43916   2.732  12.136  11.319 -0.3467  1.1293 -0.5320
  333MOL0     H43917   2.618  12.012  11.318 -1.9386 -0.2764  1.1446
  333MOL0     H43918   2.444  12.268  11.634 -1.7848  3.1243  1.0020
  333MOL0     H43919   2.442  12.510  11.678 -1.4458 -0.7153 -1.0145
  333MOL0     H43920   2.512  12.942  11.537  0.1424 -3.0869 -0.1977
  333MOL0     H43921   2.467  13.180  11.600  2.4686 -1.0918 -0.6018
  333MOL0     H43922   2.281  13.306  11.680 -0.9192  2.7807  1.3700
  333MOL0     H43923   2.262  13.398  11.815 -2.4452 -0.9446  1.1132
  333MOL0     H43924   2.174  13.194  11.943  2.0880  1.2046  0.3545
  333MOL0     H43925   2.145  13.122  11.792  0.1710 -1.3922  1.9785
  333MOL0     H43926   2.019  13.347  11.745  1.5189  1.9319  0.6946
  333MOL0     H43927   2.051  13.396  11.896  1.0032 -0.5197  0.2804
  333MOL0     H43928   1.918  13.112  11.845 -1.9402  0.1476 -0.5277
  333MOL0     H43929   1.911  13.199  11.992  0.0459  1.5172 -0.3024
  333MOL0     H43930   1.811  13.400  11.864 -0.4596  0.3100  1.5133
  333MOL0     H43931   1.697  13.273  11.892  0.2364 -0.0581  3.3691
  333MOL0     H43932   1.698  13.175  11.693  0.2668  0.2345  0.5720
  333MOL0     H43933   1.859  13.250  11.660  2.0171 -1.2076  4.3261
  333MOL0     H43934   1.601  13.420  11.650  0.3323  0.8399  0.4189
  333MOL0     H43935   1.765  13.476  11.644  1.0739 -1.0216 -2.3668
  333MOL0     H43936   1.794  13.316  11.447  1.4532  3.7810 -1.1432
  333MOL0     H43937   1.676  13.447  11.431  0.6358  0.8743  2.0401
  333MOL0     H43938   2.438  13.046  12.000 -0.4721 -1.7114 -0.4502
  333MOL0     H43939   2.494  12.812  11.944  0.3207  2.4801  1.4992
  333MOL0     H43940   2.809  12.558  11.462  1.7716 -1.8431  0.7203
  333MOL0     H43941   2.784  12.339  11.377 -1.7294  0.5350 -1.7330
  333MOL0     H43942   1.620  11.553  10.904  0.0952  1.6552  4.0932
  333MOL0     H43943   1.762  11.401  11.029  1.2095 -2.0731  1.9890
  333MOL0     H43944   1.729  10.916  11.137 -0.7839 -0.1967  0.0086
  333MOL0     H43945   1.843  10.729  11.234 -2.0335 -1.8283  1.6981
  333MOL0     H43946   1.948  10.511  11.505 -1.1057  0.5135  1.6901
  333MOL0     H43947   1.883  10.566  11.341 -2.7055 -1.4308 -0.6171
  333MOL0     H43948   1.737  10.568  11.609  3.7436  1.5744 -0.7844
  333MOL0     H43949   1.677  10.632  11.453  0.7102  0.6767  0.5368
  333MOL0     H43950   1.618  10.462  11.365  0.4749  1.1428 -0.5531
  333MOL0     H43951   1.587  10.400  11.533  2.5590 -0.9937  1.5557
  333MOL0     H43952   1.827  10.298  11.514 -1.5767  2.3105  0.1776
  333MOL0     H43953   1.694  10.219  11.445  2.3525 -2.2383  0.5620
  333MOL0     H43954   1.925  10.288  11.096 -1.3023 -0.8747  0.1344
  333MOL0     H43955   1.881  10.938  11.617  0.6366  1.9469 -0.6972
  333MOL0     H43956   1.771  11.130  11.531  2.7105  3.6423 -1.6689
  334MOL0     O43957   9.040   9.555   5.549 -0.6742 -0.2586 -0.6523
  334MOL0     C43958   8.955   9.631   5.514  0.1071 -0.6457  0.6634
  334MOL0     O43959   8.978   9.752   5.453  0.1654 -1.0599 -0.0631
  334MOL0     C43960   9.096   9.832   5.468 -0.2951  0.1601  0.0588
  334MOL0     C43961   9.171   9.861   5.581 -0.3451  0.5367 -0.3789
  334MOL0     C43962   9.301   9.930   5.590  0.1142  0.1710 -0.6417
  334MOL0     C43963   9.345   9.970   5.465 -0.5600 -0.8952 -0.2994
  334MOL0     O43964   9.469  10.044   5.457  0.3736  0.2066  0.0545
  334MOL0     C43965   9.540  10.092   5.573 -0.0382  0.1196 -0.8918
  334MOL0     C43966   9.668  10.170   5.542  0.0829  0.6098  0.7487
  334MOL0     C43967   9.686  10.282   5.648  0.4358 -0.5974 -0.1743
  334MOL0     C43968   9.680  10.225   5.791  0.6271  0.6498  0.5866
  334MOL0     C43969   9.689  10.334   5.907  0.0927  0.3085 -0.3712
  334MOL0     C43970   9.667  10.267   6.039 -0.9780 -0.1680  0.2325
  334MOL0     C43971   9.527  10.289   6.088  0.7858 -0.7257 -0.0239
  334MOL0     C43972   9.521  10.238   6.226  0.4950  0.8442  0.8944
  334MOL0     N43973   9.376  10.239   6.263  0.8728  0.7390  0.0942
  334MOL0     C43974   9.278  10.328   6.240 -0.2280 -0.8023  0.3703
  334MOL0     C43975   9.155  10.283   6.300 -0.3942 -0.8585 -0.5874
  334MOL0     C43976   9.018  10.347   6.287 -0.5154 -0.4666  0.9040
  334MOL0     C43977   8.960  10.292   6.162 -0.5870 -0.0824 -0.8453
  334MOL0     C43978   8.806  10.308   6.164 -0.0655 -0.1111  0.3511
  334MOL0     C43979   8.789  10.463   6.164  0.5040  0.9372  0.0550
  334MOL0     O43980   8.649  10.504   6.150  0.0886  0.0031  0.2148
  334MOL0     C43981   8.619  10.637   6.175 -0.4345  0.1201 -0.0407
  334MOL0     C43982   8.484  10.683   6.201  0.2362 -0.0642 -0.1819
  334MOL0     C43983   8.460  10.814   6.224  1.2018  0.2977 -0.0337
  334MOL0     C43984   8.563  10.912   6.248  1.1416 -0.2323  0.0926
  334MOL0     C43985   8.546  11.058   6.270  0.0295  0.1388 -0.0770
  334MOL0     O43986   8.662  11.131   6.266  0.4597 -0.4768 -0.7733
  334MOL0     C43987   8.667  11.262   6.240  1.1490  0.1068  0.2322
  334MOL0     C43988   8.689  11.350   6.349  0.3086 -0.4547 -0.6173
  334MOL0     C43989   8.707  11.487   6.327 -0.2732 -0.1388  0.0164
  334MOL0     C43990   8.693  11.540   6.197  0.2784  0.2538  0.2932
  334MOL0     O43991   8.726  11.671   6.167 -0.7379 -0.5816 -0.1293
  334MOL0     C43992   8.623  11.741   6.101 -0.2935 -0.0575 -0.5511
  334MOL0     C43993   8.684  11.864   6.051 -0.0082  0.3088  0.0657
  334MOL0     C43994   8.572  11.933   5.979 -0.9375  0.3412 -0.7814
  334MOL0     C43995   8.480  12.010   6.078 -0.2249 -0.2440  1.5500
  334MOL0     C43996   8.346  12.063   6.030  0.1436  0.4293 -0.9313
  334MOL0     C43997   8.263  11.980   5.925 -0.3822 -0.5696  0.5631
  334MOL0     C43998   8.129  12.055   5.887 -0.0092  0.3037 -0.2206
  334MOL0     C43999   8.074  11.973   5.765 -0.5322 -0.4530 -0.5095
  334MOL0    Cl44000   7.918  12.034   5.723  0.0256  0.3696 -0.1603
  334MOL0     C44001   8.658  11.451   6.089 -0.0659 -0.9420 -0.0810
  334MOL0     C44002   8.639  11.318   6.106  0.2097  0.7160  0.6880
  334MOL0     O44003   8.436  11.098   6.252 -0.3577  0.0516 -0.4483
  334MOL0     C44004   8.695  10.861   6.231  0.6346  0.0092 -0.5639
  334MOL0     C44005   8.718  10.731   6.197 -0.0722  0.1478 -0.8592
  334MOL0     N44006   9.197  10.176   6.372 -0.1095  0.7259 -0.5433
  334MOL0     N44007   9.324  10.154   6.358  0.6619 -0.6334  1.1889
  334MOL0     C44008   9.271   9.960   5.346 -0.2033 -0.8428  0.0046
  334MOL0     C44009   9.150   9.897   5.353  0.9235  0.7825 -0.0337
  334MOL0     C44010   8.818   9.573   5.508 -0.1373  0.3706 -0.7688
  334MOL0     C44011   8.713   9.657   5.507 -0.1678  0.4240 -0.1580
  334MOL0     C44012   8.579   9.610   5.499 -1.5148 -0.1161 -0.8769
  334MOL0     C44013   8.557   9.469   5.510  0.4638 -0.3770 -0.2623
  334MOL0     O44014   8.430   9.419   5.504  1.1563 -0.9845 -0.3318
  334MOL0     C44015   8.359   9.429   5.626  0.3802  0.5486 -0.8790
  334MOL0     C44016   8.216   9.384   5.623  0.4049  0.3770  1.1971
  334MOL0     C44017   8.140   9.470   5.515 -0.5767  0.3081  0.4016
  334MOL0     C44018   7.995   9.425   5.488 -0.2714 -0.1024 -0.1876
  334MOL0     C44019   7.995   9.289   5.438  0.5269  0.5226 -0.0414
  334MOL0     C44020   7.993   9.171   5.401  0.1955 -0.2670 -1.2794
  334MOL0     C44021   8.665   9.382   5.526 -1.0580  0.1247 -0.8304
  334MOL0     C44022   8.790   9.439   5.530  0.6941  1.0390  0.8108
  334MOL0     H44023   9.130   9.830   5.677 -0.5819  0.8043 -0.3923
  334MOL0     H44024   9.344   9.941   5.689 -2.8353  0.9599  0.6861
  334MOL0     H44025   9.567  10.016   5.646 -1.3203 -1.1726 -1.7029
  334MOL0     H44026   9.465  10.152   5.623  1.6293  1.1262  0.5160
  334MOL0     H44027   9.657  10.227   5.449  1.6299  1.6044  1.1290
  334MOL0     H44028   9.748  10.096   5.542  1.9098  2.0380 -5.1792
  334MOL0     H44029   9.601  10.349   5.636 -1.4814 -2.7781  0.4444
  334MOL0     H44030   9.782  10.330   5.625  1.7187 -0.8934  3.7010
  334MOL0     H44031   9.588  10.167   5.794  0.3615  0.9380 -1.0705
  334MOL0     H44032   9.760  10.153   5.812 -1.0158 -1.9778 -1.5401
  334MOL0     H44033   9.622  10.419   5.890  1.5679  1.3121 -1.4211
  334MOL0     H44034   9.787  10.383   5.905  0.6922 -0.8005  0.5819
  334MOL0     H44035   9.747  10.310   6.101  2.3969 -1.4223 -2.8916
  334MOL0     H44036   9.679  10.160   6.025 -0.3555  0.0655 -1.1360
  334MOL0     H44037   9.496  10.393   6.093 -0.7149 -1.0597 -1.4477
  334MOL0     H44038   9.450  10.244   6.024  0.0958  2.3112 -1.4994
  334MOL0     H44039   9.573  10.308   6.292  1.6555 -1.6717  2.7878
  334MOL0     H44040   9.563  10.138   6.239  1.8750  1.0727 -1.3028
  334MOL0     H44041   9.290  10.392   6.153 -0.5432 -1.4898 -0.1838
  334MOL0     H44042   9.048  10.449   6.264  1.1647 -0.8709  1.1994
  334MOL0     H44043   8.956  10.339   6.377  2.2375  0.8130  3.0655
  334MOL0     H44044   8.975  10.184   6.169 -1.8132 -0.1740  4.9167
  334MOL0     H44045   9.003  10.322   6.066 -1.7704  2.5885 -0.6393
  334MOL0     H44046   8.761  10.252   6.082  1.0282 -0.7913  0.1955
  334MOL0     H44047   8.769  10.264   6.257  2.7092 -0.0985  1.5730
  334MOL0     H44048   8.828  10.512   6.074 -3.0380  1.4801 -1.3721
  334MOL0     H44049   8.825  10.507   6.257 -2.5704  0.6184  1.5414
  334MOL0     H44050   8.408  10.610   6.175  0.5441 -0.5690  0.3138
  334MOL0     H44051   8.355  10.844   6.226  1.6976  2.1716  1.8811
  334MOL0     H44052   8.687  11.315   6.452 -1.0597 -0.1962 -0.5304
  334MOL0     H44053   8.717  11.548   6.416  1.7395 -0.1016 -0.1994
  334MOL0     H44054   8.539  11.764   6.166 -1.4649 -1.0907 -1.6523
  334MOL0     H44055   8.576  11.681   6.022 -0.3027 -0.7168 -0.0506
  334MOL0     H44056   8.773  11.835   5.994 -0.2585  1.3685 -0.9095
  334MOL0     H44057   8.710  11.929   6.135 -2.0700 -0.0926  1.0899
  334MOL0     H44058   8.520  11.861   5.914  1.1051 -1.3274 -0.6701
  334MOL0     H44059   8.605  12.004   5.902  0.1039  0.3721 -0.3223
  334MOL0     H44060   8.471  11.956   6.173  0.6310 -0.3569  1.5818
  334MOL0     H44061   8.532  12.098   6.117  0.5988  0.6557 -1.3512
  334MOL0     H44062   8.371  12.160   5.986 -0.5978  0.3324 -1.5942
  334MOL0     H44063   8.280  12.077   6.116  0.1425 -1.6164 -0.5455
  334MOL0     H44064   8.239  11.883   5.970  1.3999 -1.5852 -0.5669
  334MOL0     H44065   8.319  11.969   5.832  0.0721  2.3198  0.4066
  334MOL0     H44066   8.056  12.047   5.969 -1.4323 -0.8908 -1.5232
  334MOL0     H44067   8.138  12.160   5.858 -0.7284  0.6725  0.8443
  334MOL0     H44068   8.072  11.865   5.787 -1.3341 -0.0649  1.5238
  334MOL0     H44069   8.144  11.996   5.685  0.7762 -1.7873  0.1813
  334MOL0     H44070   8.637  11.496   5.992 -2.7278 -2.0159 -0.1021
  334MOL0     H44071   8.626  11.256   6.019 -0.0482 -0.2565  1.4012
  334MOL0     H44072   8.782  10.922   6.255  1.3298 -1.7387  1.6445
  334MOL0     H44073   8.823  10.712   6.177  0.5631  1.7556  0.7038
  334MOL0     H44074   9.296  10.002   5.249  0.2098 -2.6899 -0.7265
  334MOL0     H44075   9.086   9.874   5.269  1.6995 -0.0113 -0.4297
  334MOL0     H44076   8.736   9.763   5.500  0.1872  0.3239 -0.4752
  334MOL0     H44077   8.508   9.690   5.483 -0.3449  1.7136  2.2844
  334MOL0     H44078   8.346   9.532   5.660 -1.0961  0.5536 -1.3628
  334MOL0     H44079   8.408   9.364   5.700  0.8391  3.1753  1.2653
  334MOL0     H44080   8.210   9.277   5.599  1.7938  0.6360 -0.5352
  334MOL0     H44081   8.176   9.406   5.723  1.2895  4.6015  0.8176
  334MOL0     H44082   8.189   9.474   5.417  0.1109  1.8868  0.7757
  334MOL0     H44083   8.123   9.572   5.551  2.6784  0.9796  0.2979
  334MOL0     H44084   7.943   9.446   5.582 -0.0276 -0.9561  0.1491
  334MOL0     H44085   7.945   9.494   5.418 -0.4452  1.9638  1.8672
  334MOL0     H44086   7.995   9.069   5.367  1.7530 -0.0224 -1.9935
  334MOL0     H44087   8.642   9.277   5.544 -2.2647 -0.9742 -6.7278
  334MOL0     H44088   8.874   9.371   5.535  1.6116  1.8211 -2.1113
  335MOL0     O44089   0.040   0.639  10.932 -0.2421  0.7951 -0.2381
  335MOL0     C44090   0.003   0.618  10.820 -0.4389  0.0662 -0.2583
  335MOL0     O44091   0.075   0.522  10.742  0.5844  0.2132 -0.5450
  335MOL0     C44092   0.205   0.525  10.753 -1.6679 -0.8543  0.4978
  335MOL0     C44093   0.267   0.625  10.684  1.2021 -0.9932 -0.0982
  335MOL0     C44094   0.402   0.658  10.701 -1.4395 -0.0689  0.0703
  335MOL0     C44095   0.482   0.564  10.775 -0.0588 -0.5227  0.2076
  335MOL0     O44096   0.619   0.594  10.779  0.3771 -1.0035 -0.9601
  335MOL0     C44097   0.709   0.495  10.730 -1.0604 -0.1731  0.1302
  335MOL0     C44098   0.855   0.532  10.752 -0.3753 -0.6895 -0.7091
  335MOL0     C44099   0.877   0.591  10.892  0.1878 -0.0488  0.0273
  335MOL0     C44100   1.017   0.636  10.903 -0.2188  0.0472  1.2066
  335MOL0     C44101   1.058   0.718  11.029  0.0918 -0.0776  0.6652
  335MOL0     C44102   1.097   0.632  11.142 -0.5433  0.7147  0.0486
  335MOL0     C44103   1.153   0.702  11.261  0.1886 -0.2425 -0.2427
  335MOL0     C44104   1.155   0.619  11.389  0.0967 -0.3450  0.4448
  335MOL0     N44105   1.230   0.687  11.496 -0.9275 -0.5222  0.3880
  335MOL0     C44106   1.178   0.760  11.596 -0.5060 -0.8229  0.0567
  335MOL0     C44107   1.282   0.784  11.682 -0.5425  0.4642 -0.1390
  335MOL0     C44108   1.269   0.880  11.792 -0.2171 -0.0533 -0.1487
  335MOL0     C44109   1.400   0.930  11.851 -0.3449  0.7537 -0.2722
  335MOL0     C44110   1.469   0.819  11.932 -0.0869 -0.3926  0.5073
  335MOL0     C44111   1.617   0.838  11.986 -0.0553  0.7052 -1.1805
  335MOL0     O44112   1.680   0.705  12.028 -0.4345 -0.2493  0.5661
  335MOL0     C44113   1.725   0.627  11.933  0.1227 -0.5384  0.0350
  335MOL0     C44114   1.792   0.508  11.970  0.3917 -0.8561  0.8873
  335MOL0     C44115   1.838   0.418  11.873 -0.8483  0.0388 -0.1447
  335MOL0     C44116   1.816   0.435  11.735  0.4384  0.4755  0.6541
  335MOL0     C44117   1.884   0.345  11.631  0.9399  0.4077  0.3589
  335MOL0     O44118   1.985   0.263  11.673  0.4152 -0.4259  0.0157
  335MOL0     C44119   2.101   0.263  11.605  0.5000  0.7094 -0.4722
  335MOL0     C44120   2.164   0.383  11.547  0.3848 -1.3742 -1.2741
  335MOL0     C44121   2.288   0.371  11.482  0.8331 -1.0325 -0.7005
  335MOL0     C44122   2.356   0.249  11.489 -0.8132 -0.6921  0.8669
  335MOL0     O44123   2.472   0.249  11.406  0.1621 -0.0110 -0.6730
  335MOL0     C44124   2.571   0.142  11.423 -0.2722 -1.0690 -0.3871
  335MOL0     C44125   2.713   0.186  11.382 -0.4965  0.3541 -0.7242
  335MOL0     C44126   2.821   0.095  11.423  0.7998 -0.0400 -0.2540
  335MOL0     C44127   2.960   0.103  11.361 -0.2732 -0.5133 -0.3258
  335MOL0     C44128   3.060   0.045  11.465  0.0415 -0.7126  0.0484
  335MOL0     C44129   3.201   0.029  11.405  0.4839  0.5185 -0.5864
  335MOL0     C44130   3.296  -0.042  11.497 -0.3125  0.5140  0.5586
  335MOL0     C44131   3.436  -0.003  11.448 -0.3330 -0.2129 -0.4512
  335MOL0    Cl44132   3.571  -0.095  11.529  0.1692  0.3066 -0.0720
  335MOL0     C44133   2.308   0.135  11.562 -0.8972  0.0728 -1.0496
  335MOL0     C44134   2.179   0.142  11.613  0.7870  0.3101  0.0442
  335MOL0     O44135   1.877   0.372  11.506 -0.0218 -0.4620 -0.0521
  335MOL0     C44136   1.754   0.553  11.696  1.0465  0.2176  0.5026
  335MOL0     C44137   1.719   0.649  11.792  0.3457  0.1182 -0.3462
  335MOL0     N44138   1.397   0.734  11.633 -0.7895 -0.0335 -0.6410
  335MOL0     N44139   1.365   0.668  11.527  0.4333  0.1176  0.5664
  335MOL0     C44140   0.423   0.460  10.839 -0.0377  0.1136 -0.2045
  335MOL0     C44141   0.282   0.439  10.827 -1.0842 -0.2571  0.0960
  335MOL0     C44142  -0.114   0.679  10.759 -0.5455 -0.5894 -0.4182
  335MOL0     C44143  -0.180   0.769  10.841  0.0470  0.5516 -0.6439
  335MOL0     C44144  -0.300   0.831  10.798 -0.7527 -0.1859 -1.4019
  335MOL0     C44145  -0.344   0.815  10.664  0.3537  0.8059 -0.1991
  335MOL0     O44146  -0.429   0.901  10.604 -0.5867 -0.3306  0.6371
  335MOL0     C44147  -0.571   0.861  10.627 -0.9468 -0.1147 -0.9123
  335MOL0     C44148  -0.667   0.918  10.532 -0.1016  0.3082  0.7755
  335MOL0     C44149  -0.641   0.873  10.397 -0.3325  0.1054  0.1257
  335MOL0     C44150  -0.765   0.823  10.324  0.5275  0.0239  0.2692
  335MOL0     C44151  -0.825   0.703  10.386 -0.0848  0.5921  0.4138
  335MOL0     C44152  -0.858   0.591  10.428 -0.5513 -0.7284  1.0262
  335MOL0     C44153  -0.281   0.723  10.578  0.6097 -0.0664 -0.5610
  335MOL0     C44154  -0.164   0.653  10.620  0.9029 -0.5584 -0.1633
  335MOL0     H44155   0.207   0.688  10.619 -0.8158 -1.4919  1.1874
  335MOL0     H44156   0.448   0.732  10.637 -1.7036 -0.3310 -0.4313
  335MOL0     H44157   0.700   0.473  10.624  4.1406 -2.9020 -0.0847
  335MOL0     H44158   0.683   0.400  10.777  0.6826 -2.4444 -3.1376
  335MOL0     H44159   0.889   0.599  10.673 -2.0889  1.6042  0.3810
  335MOL0     H44160   0.911   0.439  10.741 -1.4882 -1.9457  2.7210
  335MOL0     H44161   0.845   0.522  10.970 -2.3582 -0.2053 -1.0485
  335MOL0     H44162   0.821   0.684  10.908  1.2176  0.4285  0.9803
  335MOL0     H44163   1.087   0.552  10.900 -0.5709 -0.2648 -2.0905
  335MOL0     H44164   1.038   0.693  10.813 -2.8336  1.1765  1.2059
  335MOL0     H44165   0.968   0.779  11.044  1.7582  3.5142 -2.2667
  335MOL0     H44166   1.137   0.789  11.001  0.3595  0.3833  2.4075
  335MOL0     H44167   1.157   0.549  11.106 -0.1043  0.9171  0.3037
  335MOL0     H44168   0.996   0.595  11.160 -0.9790  1.8306 -0.0151
  335MOL0     H44169   1.252   0.747  11.245  1.5584 -3.5222 -1.9672
  335MOL0     H44170   1.098   0.792  11.289  2.6585  0.5223  2.6575
  335MOL0     H44171   1.202   0.525  11.357 -1.9806 -1.0651 -0.6970
  335MOL0     H44172   1.058   0.586  11.429  0.3007 -0.2350  1.0476
  335MOL0     H44173   1.079   0.804  11.591 -0.3684 -0.0636  2.7184
  335MOL0     H44174   1.213   0.825  11.868  1.0004  1.2153  1.7454
  335MOL0     H44175   1.213   0.969  11.761 -1.4891 -0.3205  1.3090
  335MOL0     H44176   1.375   1.003  11.929 -0.4227 -0.6409  1.0437
  335MOL0     H44177   1.466   0.982  11.780  0.9664 -0.7155 -0.1890
  335MOL0     H44178   1.400   0.776  12.005 -1.7825 -1.9899 -1.8670
  335MOL0     H44179   1.472   0.732  11.865  0.7973 -0.6085  0.8194
  335MOL0     H44180   1.603   0.901  12.075  0.1516  3.9042 -3.2375
  335MOL0     H44181   1.669   0.905  11.917 -1.4533  0.6805 -2.3025
  335MOL0     H44182   1.802   0.494  12.077 -4.2879  2.2853  2.0362
  335MOL0     H44183   1.890   0.331  11.912  0.8835  1.2058  0.2780
  335MOL0     H44184   2.101   0.470  11.563 -0.6222 -1.8717 -2.3481
  335MOL0     H44185   2.338   0.454  11.434 -0.4850  0.7448  0.8373
  335MOL0     H44186   2.525   0.064  11.361 -0.7326 -2.2080  1.3060
  335MOL0     H44187   2.580   0.105  11.526  1.5813  0.3554  0.0103
  335MOL0     H44188   2.729   0.283  11.429 -1.1870 -0.7031  1.8864
  335MOL0     H44189   2.717   0.190  11.273 -0.7582 -1.4153 -0.8337
  335MOL0     H44190   2.792  -0.006  11.395  0.4399 -0.6148  1.9732
  335MOL0     H44191   2.814   0.102  11.532 -0.8531 -1.1624 -0.2574
  335MOL0     H44192   2.974   0.070  11.257  0.5903  0.8321 -0.6576
  335MOL0     H44193   3.006   0.202  11.355 -2.3576  0.4489 -3.7886
  335MOL0     H44194   3.030  -0.057  11.491 -3.3720 -1.0541 -4.1453
  335MOL0     H44195   3.056   0.125  11.539  3.2231 -0.1187 -0.2570
  335MOL0     H44196   3.246   0.120  11.364  1.7569  0.1440 -0.0875
  335MOL0     H44197   3.178  -0.038  11.322 -1.0994 -0.5272  0.6421
  335MOL0     H44198   3.293  -0.005  11.600  0.6463 -0.0480  0.8000
  335MOL0     H44199   3.283  -0.151  11.497 -2.0338  0.5654 -2.9835
  335MOL0     H44200   3.443   0.105  11.460 -2.3494 -0.2685  2.2059
  335MOL0     H44201   3.449  -0.031  11.343  0.8017 -2.0052  0.1302
  335MOL0     H44202   2.379   0.054  11.576  1.5039  2.1438 -0.3460
  335MOL0     H44203   2.129   0.064  11.669  2.6859 -0.0169  1.3976
  335MOL0     H44204   1.733   0.571  11.591 -0.1442 -0.4652  0.6047
  335MOL0     H44205   1.671   0.733  11.742  0.1282 -0.3029 -0.8475
  335MOL0     H44206   0.470   0.380  10.897 -4.2321 -0.4959  2.7607
  335MOL0     H44207   0.225   0.364  10.881  0.0926  1.0493  3.4020
  335MOL0     H44208  -0.152   0.798  10.943 -4.4578  0.9303  0.6897
  335MOL0     H44209  -0.352   0.898  10.864 -0.2385 -1.8968  0.8519
  335MOL0     H44210  -0.597   0.903  10.725 -1.3567 -2.1484 -0.1098
  335MOL0     H44211  -0.575   0.752  10.629  0.7906 -0.3861 -4.3148
  335MOL0     H44212  -0.767   0.886  10.563 -0.3245 -0.2850 -0.5064
  335MOL0     H44213  -0.674   1.027  10.540  0.2250  0.2938  1.3419
  335MOL0     H44214  -0.582   0.781  10.387 -0.4481  0.0770 -0.3229
  335MOL0     H44215  -0.595   0.954  10.340  0.1853 -1.1670 -1.3250
  335MOL0     H44216  -0.844   0.899  10.317 -0.7670 -1.0800  1.8609
  335MOL0     H44217  -0.737   0.797  10.222  0.4655  2.3433 -0.3908
  335MOL0     H44218  -0.890   0.492  10.452 -0.4386 -1.4722 -1.5848
  335MOL0     H44219  -0.316   0.723  10.475 -0.3070 -2.7131 -0.3223
  335MOL0     H44220  -0.110   0.577  10.564  4.1049  0.5513  1.1484
  336MOL0     O44221  10.085   1.257   3.653 -0.6535  0.2624  0.7388
  336MOL0     C44222  10.162   1.345   3.680 -0.1282 -0.3106 -0.7098
  336MOL0     O44223  10.231   1.422   3.590 -0.3596 -0.0518  0.3056
  336MOL0     C44224  10.190   1.407   3.454 -0.0663 -0.0524  0.1495
  336MOL0     C44225  10.298   1.380   3.360  0.6938  0.4721  0.2627
  336MOL0     C44226  10.265   1.377   3.223  0.0998 -0.5921  0.8526
  336MOL0     C44227  10.130   1.411   3.179  0.4948 -0.3556 -0.3577
  336MOL0     O44228  10.099   1.432   3.049  0.2335 -0.5689 -0.6456
  336MOL0     C44229  10.214   1.457   2.962 -0.6127  0.2252  0.1389
  336MOL0     C44230  10.155   1.492   2.829  0.2350 -0.5275  0.3165
  336MOL0     C44231  10.089   1.630   2.828 -0.0954 -0.0912 -0.0234
  336MOL0     C44232  10.001   1.662   2.704 -0.7244 -0.1520  0.2844
  336MOL0     C44233   9.931   1.796   2.733  0.5593  0.2569  0.1252
  336MOL0     C44234   9.823   1.827   2.627 -0.4291 -0.2829 -0.0294
  336MOL0     C44235   9.878   1.900   2.506  0.4363 -0.2272 -0.1737
  336MOL0     C44236   9.802   1.867   2.377  0.1039  0.7815  0.3821
  336MOL0     N44237   9.848   1.741   2.306 -0.0580  0.7163 -0.1510
  336MOL0     C44238   9.760   1.645   2.258 -0.3110  0.3708 -0.3492
  336MOL0     C44239   9.839   1.554   2.187  1.1751 -0.4169 -0.5120
  336MOL0     C44240   9.791   1.421   2.135 -0.0132  1.1176 -0.3408
  336MOL0     C44241   9.795   1.418   1.985 -0.0692  0.1280 -0.0759
  336MOL0     C44242   9.720   1.539   1.922 -0.1013  0.3147  0.5233
  336MOL0     C44243   9.577   1.571   1.967  0.7059  0.3797  0.0322
  336MOL0     O44244   9.512   1.653   1.860  1.0398  0.1010  0.3308
  336MOL0     C44245   9.392   1.718   1.891  0.9024  0.6643  0.3336
  336MOL0     C44246   9.313   1.703   2.007 -0.1681 -0.5144 -0.9140
  336MOL0     C44247   9.186   1.762   2.029 -0.8872  0.3387  0.1280
  336MOL0     C44248   9.133   1.840   1.923  0.2800 -0.2566  0.5214
  336MOL0     C44249   8.996   1.905   1.926  0.7838  0.5172 -0.0646
  336MOL0     O44250   8.962   1.982   1.820  0.5414  0.6651 -0.0337
  336MOL0     C44251   8.833   2.035   1.821 -0.3881 -0.2310  0.5120
  336MOL0     C44252   8.758   2.091   1.928 -0.2844 -0.0120 -0.4505
  336MOL0     C44253   8.621   2.125   1.927  1.2413  0.2619  0.4989
  336MOL0     C44254   8.551   2.114   1.801  0.3282  0.9556 -0.0732
  336MOL0     O44255   8.420   2.148   1.784  0.7509  0.1575  1.0241
  336MOL0     C44256   8.392   2.231   1.663  0.4054  0.3448 -0.5507
  336MOL0     C44257   8.252   2.296   1.658 -0.1547 -0.7329  0.5866
  336MOL0     C44258   8.260   2.424   1.578 -0.1932  0.1598 -0.2556
  336MOL0     C44259   8.331   2.545   1.637  0.3401  0.0480 -0.7926
  336MOL0     C44260   8.297   2.675   1.557  0.3950 -0.5736  0.8635
  336MOL0     C44261   8.364   2.792   1.640 -0.2198  0.3145  0.1251
  336MOL0     C44262   8.311   2.934   1.590  0.2290  1.1059 -0.3358
  336MOL0     C44263   8.383   3.055   1.640  0.1497 -0.3148  0.2502
  336MOL0    Cl44264   8.388   3.086   1.808 -0.2550 -0.0857 -0.0986
  336MOL0     C44265   8.629   2.066   1.693 -0.3644  0.4971 -0.0887
  336MOL0     C44266   8.756   2.025   1.703  0.6728 -1.8175 -0.6039
  336MOL0     O44267   8.928   1.888   2.028 -0.8437  0.3439  0.2056
  336MOL0     C44268   9.209   1.851   1.804 -1.1651  0.4135  0.2604
  336MOL0     C44269   9.329   1.780   1.781 -0.0693 -0.2361 -0.4287
  336MOL0     N44270   9.959   1.616   2.176 -0.8364 -0.3024 -0.7999
  336MOL0     N44271   9.967   1.724   2.242  0.7674 -0.0990  0.5089
  336MOL0     C44272  10.030   1.418   3.271  0.2883  0.2976  0.3940
  336MOL0     C44273  10.057   1.419   3.409 -0.4665  0.9219  1.2755
  336MOL0     C44274  10.178   1.378   3.815 -0.1659 -0.2253 -0.6538
  336MOL0     C44275  10.300   1.447   3.862 -0.0355  0.0837  0.2222
  336MOL0     C44276  10.326   1.495   3.995  0.9354  0.4472  0.3912
  336MOL0     C44277  10.222   1.481   4.089 -0.8540 -0.3024 -0.1481
  336MOL0     O44278  10.232   1.544   4.214  0.4775  0.5591  0.1747
  336MOL0     C44279  10.359   1.558   4.273  1.1349  0.3605 -0.8188
  336MOL0     C44280  10.326   1.525   4.419 -0.3373 -0.3059  0.7741
  336MOL0     C44281  10.287   1.644   4.507  0.3434 -0.9341 -0.2992
  336MOL0     C44282  10.155   1.716   4.480 -0.5215  0.9307 -0.1242
  336MOL0     C44283  10.176   1.817   4.379  0.1421  0.2715  0.2253
  336MOL0     C44284  10.173   1.909   4.296 -0.6721  1.1402  0.0333
  336MOL0     C44285  10.099   1.431   4.043  0.5909  0.3325  0.0812
  336MOL0     C44286  10.076   1.371   3.916 -0.4193 -0.1755 -0.3185
  336MOL0     H44287  10.397   1.356   3.396  1.5273  2.3787 -0.6080
  336MOL0     H44288  10.351   1.385   3.157  0.0250  1.1164  0.9025
  336MOL0     H44289  10.283   1.372   2.959 -0.2184  0.4296  1.9261
  336MOL0     H44290  10.279   1.534   3.004 -1.0498  1.4561 -1.3468
  336MOL0     H44291  10.080   1.417   2.803 -0.3826  0.6135 -1.3353
  336MOL0     H44292  10.230   1.494   2.749  0.7923  0.4935  0.8461
  336MOL0     H44293  10.158   1.715   2.835  0.8577 -0.8182 -0.3210
  336MOL0     H44294  10.036   1.629   2.923 -3.0784  0.7753 -1.5577
  336MOL0     H44295  10.058   1.666   2.610  0.4020 -2.9012  0.7365
  336MOL0     H44296   9.928   1.582   2.686  1.6272 -2.6271  0.9740
  336MOL0     H44297  10.003   1.877   2.746  1.0128 -0.3649  1.7567
  336MOL0     H44298   9.884   1.784   2.831 -1.2194 -0.2854 -0.7629
  336MOL0     H44299   9.738   1.869   2.682 -3.1643 -4.8435 -0.2454
  336MOL0     H44300   9.779   1.736   2.584  1.9678 -0.5258 -2.1968
  336MOL0     H44301   9.885   2.008   2.522 -1.2650  0.5828 -3.7351
  336MOL0     H44302   9.981   1.866   2.493  1.1441  0.2880  3.3087
  336MOL0     H44303   9.810   1.951   2.308  0.0479 -0.4292 -1.1390
  336MOL0     H44304   9.695   1.859   2.401  0.5664 -0.2821  2.3256
  336MOL0     H44305   9.658   1.634   2.293 -0.1735  0.0110 -0.0622
  336MOL0     H44306   9.693   1.401   2.180  0.2538 -1.0939 -0.6707
  336MOL0     H44307   9.843   1.334   2.176 -1.4417  0.9324  1.2254
  336MOL0     H44308   9.743   1.326   1.956 -0.7695  0.0700  1.2810
  336MOL0     H44309   9.898   1.417   1.948  0.5728 -0.5477  1.6028
  336MOL0     H44310   9.780   1.627   1.946  2.5720 -1.7846  2.1173
  336MOL0     H44311   9.731   1.539   1.813  1.2021  1.4715  0.6264
  336MOL0     H44312   9.588   1.622   2.064  0.3962 -1.9752  1.3940
  336MOL0     H44313   9.522   1.480   1.992  0.2606  0.5318 -0.4042
  336MOL0     H44314   9.350   1.640   2.087  0.6074  0.4529 -0.4881
  336MOL0     H44315   9.123   1.746   2.116 -0.8731 -1.2511 -0.1171
  336MOL0     H44316   8.804   2.119   2.022 -0.6449 -0.7038 -0.0635
  336MOL0     H44317   8.572   2.148   2.021  0.0901 -0.6115  0.1435
  336MOL0     H44318   8.383   2.169   1.573  0.9299 -1.3145  0.4928
  336MOL0     H44319   8.477   2.299   1.654  1.1186 -0.4112  0.2820
  336MOL0     H44320   8.216   2.325   1.757 -0.3278  1.1119  0.0177
  336MOL0     H44321   8.179   2.228   1.614  0.0568 -2.3015  2.4831
  336MOL0     H44322   8.156   2.459   1.581  0.4092  2.1726  2.8221
  336MOL0     H44323   8.304   2.416   1.479 -0.0023  0.9664 -0.2441
  336MOL0     H44324   8.298   2.562   1.740  0.6162  1.3077 -0.9032
  336MOL0     H44325   8.440   2.537   1.635  0.2259 -1.7901 -2.0519
  336MOL0     H44326   8.189   2.694   1.559  0.6014  0.6265  1.6792
  336MOL0     H44327   8.329   2.673   1.452  0.3083 -0.3675  0.8335
  336MOL0     H44328   8.472   2.775   1.637 -0.3110 -0.2136 -2.2605
  336MOL0     H44329   8.333   2.781   1.744 -1.8817 -2.7883 -0.5819
  336MOL0     H44330   8.305   2.944   1.481  2.1305  1.7294 -0.4031
  336MOL0     H44331   8.213   2.936   1.640  0.2989 -0.2894 -0.1063
  336MOL0     H44332   8.332   3.138   1.590 -0.2407 -0.6625  0.0638
  336MOL0     H44333   8.486   3.045   1.605  1.4780  1.2747  3.2812
  336MOL0     H44334   8.603   2.076   1.588 -0.8964  2.5462  0.1939
  336MOL0     H44335   8.825   1.988   1.628  1.9433 -3.2163  1.1700
  336MOL0     H44336   9.180   1.903   1.713  2.4371  0.8791 -0.8120
  336MOL0     H44337   9.380   1.777   1.685 -2.8350 -0.1461 -1.9938
  336MOL0     H44338   9.927   1.429   3.238 -0.0633  0.5835  1.5408
  336MOL0     H44339   9.976   1.440   3.479 -2.0269  2.0671 -0.7694
  336MOL0     H44340  10.375   1.453   3.783 -1.9725  0.6775 -1.6844
  336MOL0     H44341  10.418   1.550   4.013  0.4571  1.0708  0.9742
  336MOL0     H44342  10.394   1.661   4.266 -1.6565  1.6290  1.8123
  336MOL0     H44343  10.428   1.484   4.232 -0.7641 -1.7439 -0.4521
  336MOL0     H44344  10.253   1.445   4.433 -5.7484  3.7902 -0.6210
  336MOL0     H44345  10.424   1.498   4.458 -0.2350  1.0019  1.4876
  336MOL0     H44346  10.362   1.724   4.509 -0.8787  0.2394 -0.1285
  336MOL0     H44347  10.263   1.618   4.610  1.8702 -0.3437  0.2397
  336MOL0     H44348  10.076   1.650   4.443 -0.9223  2.5346 -2.2857
  336MOL0     H44349  10.114   1.764   4.569  0.4811 -1.0636  1.4952
  336MOL0     H44350  10.171   1.987   4.224  1.0589 -0.3772 -1.7786
  336MOL0     H44351  10.016   1.451   4.110  1.0361 -0.5024  0.9026
  336MOL0     H44352   9.980   1.325   3.893  0.2889 -1.1054 -1.5495
  337MOL0     O44353   4.324   9.101   7.887  0.1922  0.1373  0.1734
  337MOL0     C44354   4.271   9.169   7.971 -1.1330 -0.2093 -0.5618
  337MOL0     O44355   4.163   9.133   8.047 -0.0739  0.2770  0.1072
  337MOL0     C44356   4.081   9.025   8.008 -0.3354  1.2386 -0.0515
  337MOL0     C44357   3.996   9.035   7.901 -0.0149  0.1127 -0.3188
  337MOL0     C44358   3.911   8.937   7.871  0.4517 -0.1836  0.1175
  337MOL0     C44359   3.882   8.840   7.961 -0.2630 -0.2066 -1.3193
  337MOL0     O44360   3.781   8.754   7.929 -0.2398 -0.3583 -0.2196
  337MOL0     C44361   3.827   8.617   7.942 -0.1830  0.4401  0.2770
  337MOL0     C44362   3.731   8.515   7.867  0.4036 -0.2073  0.0782
  337MOL0     C44363   3.726   8.530   7.711 -0.4980 -0.4384  0.1982
  337MOL0     C44364   3.632   8.647   7.670  0.7467  0.2436 -0.1069
  337MOL0     C44365   3.696   8.756   7.575 -0.0216  0.3095 -0.5016
  337MOL0     C44366   3.592   8.840   7.518 -0.3312 -0.2541 -0.0043
  337MOL0     C44367   3.509   8.767   7.406 -0.8330  0.6491 -0.6043
  337MOL0     C44368   3.367   8.824   7.383 -0.8390 -0.7956  0.7542
  337MOL0     N44369   3.336   8.791   7.242 -0.2070 -0.5763  0.1436
  337MOL0     C44370   3.321   8.669   7.189 -1.3458  0.1434 -0.2877
  337MOL0     C44371   3.311   8.693   7.052 -0.6444 -0.8781 -0.1234
  337MOL0     C44372   3.299   8.585   6.947  0.8883  0.1251 -0.6828
  337MOL0     C44373   3.167   8.504   6.962  0.2757  0.2864 -0.2646
  337MOL0     C44374   3.150   8.399   6.860  1.4215  0.7269  0.9750
  337MOL0     C44375   3.022   8.314   6.897 -0.6173  0.8695  0.4133
  337MOL0     O44376   3.022   8.204   6.809  0.6033  1.1261  0.5066
  337MOL0     C44377   2.894   8.170   6.784  0.7799 -0.3642  0.3226
  337MOL0     C44378   2.851   8.041   6.822 -0.1527 -1.3214  0.0151
  337MOL0     C44379   2.728   7.993   6.784  0.0110 -0.4505  1.1765
  337MOL0     C44380   2.634   8.077   6.709 -0.3178 -0.7069  0.7754
  337MOL0     C44381   2.488   8.051   6.680  0.2946  1.4328  0.0292
  337MOL0     O44382   2.440   7.944   6.759  0.7513 -0.5783  1.1988
  337MOL0     C44383   2.306   7.910   6.756 -0.1334 -0.7908 -0.4401
  337MOL0     C44384   2.258   7.825   6.657 -0.8829 -0.0859  0.0539
  337MOL0     C44385   2.137   7.755   6.676  0.5507 -0.7384 -0.0064
  337MOL0     C44386   2.053   7.791   6.779  0.1446  0.4943  0.1764
  337MOL0     O44387   1.931   7.747   6.794  0.5189 -0.4165 -0.5686
  337MOL0     C44388   1.881   7.664   6.688  0.3117  0.0811 -0.1113
  337MOL0     C44389   1.737   7.615   6.704  0.7805  0.2646  0.1650
  337MOL0     C44390   1.687   7.518   6.595  0.2967  0.8200 -0.1422
  337MOL0     C44391   1.699   7.573   6.453 -0.2304  0.5826 -0.6063
  337MOL0     C44392   1.710   7.456   6.340  0.1143 -0.6649  1.0324
  337MOL0     C44393   1.593   7.475   6.235  0.3167  0.5951  0.4519
  337MOL0     C44394   1.652   7.425   6.096  0.3063 -0.0226 -0.3308
  337MOL0     C44395   1.564   7.427   5.976  0.4489  1.1972  0.0523
  337MOL0    Cl44396   1.439   7.293   5.968  0.4701  0.2397  0.3801
  337MOL0     C44397   2.106   7.865   6.882 -0.5233  0.0310  0.1301
  337MOL0     C44398   2.235   7.916   6.873  0.3303 -0.1102 -0.4268
  337MOL0     O44399   2.416   8.112   6.594 -0.3275  0.2900 -0.2797
  337MOL0     C44400   2.683   8.207   6.666 -0.5363  0.0245 -0.0104
  337MOL0     C44401   2.811   8.251   6.705  0.0839 -0.4142 -0.0290
  337MOL0     N44402   3.317   8.824   7.026 -1.5668  0.0593  0.3209
  337MOL0     N44403   3.346   8.881   7.136 -1.0185  0.5473 -0.7986
  337MOL0     C44404   3.961   8.829   8.077  0.0749 -0.7086  0.5808
  337MOL0     C44405   4.055   8.926   8.107  1.0337  0.8551  0.4137
  337MOL0     C44406   4.318   9.300   7.986  0.6412 -0.4411 -0.3757
  337MOL0     C44407   4.255   9.390   8.075 -0.0539  0.8572 -0.1673
  337MOL0     C44408   4.301   9.523   8.090 -0.0398 -0.1085 -0.3384
  337MOL0     C44409   4.398   9.575   8.007  0.0579  0.4786 -0.7943
  337MOL0     O44410   4.429   9.711   8.035 -0.2350 -0.2968  0.6192
  337MOL0     C44411   4.538   9.778   7.966 -0.7020 -0.8877 -0.8236
  337MOL0     C44412   4.545   9.929   7.999  0.6248  0.3748 -0.8003
  337MOL0     C44413   4.403   9.987   7.985 -0.7852 -0.7231  0.3490
  337MOL0     C44414   4.424  10.114   7.908  0.1625  0.6138  0.2140
  337MOL0     C44415   4.294  10.175   7.879 -0.0221  0.1665  0.0635
  337MOL0     C44416   4.193  10.233   7.863  0.4984 -0.4073  0.6363
  337MOL0     C44417   4.460   9.492   7.913  0.4910  1.2565 -0.0099
  337MOL0     C44418   4.425   9.355   7.911 -0.0827  0.0128 -0.6128
  337MOL0     H44419   4.002   9.121   7.835 -1.9811  2.0934  1.9173
  337MOL0     H44420   3.853   8.940   7.779  0.5030 -4.6093 -0.2720
  337MOL0     H44421   3.833   8.594   8.049  0.0855  1.4879  0.4997
  337MOL0     H44422   3.924   8.598   7.895 -0.6354 -3.7775  0.6841
  337MOL0     H44423   3.630   8.534   7.904  1.4572 -0.2105  3.2562
  337MOL0     H44424   3.755   8.411   7.892  0.0549  0.0919  1.7085
  337MOL0     H44425   3.708   8.435   7.662 -0.8604  0.0446 -0.6221
  337MOL0     H44426   3.821   8.555   7.664 -0.6915 -0.4306 -0.1888
  337MOL0     H44427   3.542   8.594   7.636 -1.1350  3.1399  0.0031
  337MOL0     H44428   3.599   8.693   7.764  0.5295 -1.4216  0.6729
  337MOL0     H44429   3.762   8.706   7.503 -2.3651 -0.8122 -1.9930
  337MOL0     H44430   3.768   8.816   7.631  0.7733  1.2104 -2.3942
  337MOL0     H44431   3.640   8.933   7.487  2.3031 -1.4834  0.1981
  337MOL0     H44432   3.538   8.876   7.607  0.6867 -3.5179  2.0933
  337MOL0     H44433   3.572   8.765   7.317  4.2381 -3.8253  2.4984
  337MOL0     H44434   3.496   8.665   7.444  1.5125 -0.2996 -2.1383
  337MOL0     H44435   3.366   8.934   7.387  2.8027 -0.4592 -2.1423
  337MOL0     H44436   3.299   8.781   7.457 -1.4661 -0.4131  0.4202
  337MOL0     H44437   3.309   8.573   7.239  0.0533 -1.2581 -2.4732
  337MOL0     H44438   3.390   8.524   6.954  0.7436 -0.0082  0.1104
  337MOL0     H44439   3.294   8.641   6.853  0.5545  1.7311  0.2540
  337MOL0     H44440   3.075   8.563   6.948 -1.8070 -2.7909 -0.5869
  337MOL0     H44441   3.169   8.472   7.067  0.9171  3.1739  0.7008
  337MOL0     H44442   3.132   8.446   6.764 -0.6879  1.0514  1.4954
  337MOL0     H44443   3.243   8.341   6.851 -0.2556 -1.9859 -0.1824
  337MOL0     H44444   2.935   8.381   6.897 -1.1113  0.2734 -0.8512
  337MOL0     H44445   3.034   8.272   6.997  3.2570  0.4113 -0.1066
  337MOL0     H44446   2.908   7.965   6.875 -1.8137 -2.1146  0.7476
  337MOL0     H44447   2.692   7.895   6.814 -0.7170 -0.8419 -0.8302
  337MOL0     H44448   2.313   7.811   6.565 -3.3340 -0.0069 -1.5110
  337MOL0     H44449   2.124   7.680   6.598  1.7271 -2.9984  1.8385
  337MOL0     H44450   1.944   7.574   6.682  0.3484 -0.0499  1.7196
  337MOL0     H44451   1.887   7.723   6.596 -0.2189  1.0442  0.4555
  337MOL0     H44452   1.669   7.699   6.695 -2.0900 -1.9653 -0.5589
  337MOL0     H44453   1.734   7.567   6.803  4.1558  3.3591  2.0144
  337MOL0     H44454   1.581   7.514   6.622  0.3262  2.3224  0.2577
  337MOL0     H44455   1.723   7.415   6.591 -4.3959 -1.0206 -2.1994
  337MOL0     H44456   1.612   7.638   6.443 -0.8890 -0.1334  0.2639
  337MOL0     H44457   1.793   7.628   6.439 -1.5141  2.8475 -0.7833
  337MOL0     H44458   1.700   7.358   6.388  1.3130 -0.2547  2.1720
  337MOL0     H44459   1.805   7.482   6.293 -1.1739 -0.5143 -1.7223
  337MOL0     H44460   1.553   7.577   6.227 -0.3498  0.3730  0.8587
  337MOL0     H44461   1.510   7.405   6.252 -0.9825  1.4146 -1.9832
  337MOL0     H44462   1.734   7.495   6.079 -1.2942  1.7414 -1.1105
  337MOL0     H44463   1.669   7.318   6.111  2.5822  0.3521 -0.0007
  337MOL0     H44464   1.621   7.424   5.882  1.3483 -1.3799  0.6101
  337MOL0     H44465   1.515   7.525   5.973 -0.6361  0.8396  3.2026
  337MOL0     H44466   2.058   7.887   6.977  3.5390 -1.9462  2.9547
  337MOL0     H44467   2.281   7.963   6.960  0.4332 -0.4114 -0.3144
  337MOL0     H44468   2.622   8.270   6.602 -1.1951 -1.8210 -1.2860
  337MOL0     H44469   2.846   8.349   6.675  0.3042  0.0507  1.6364
  337MOL0     H44470   3.935   8.761   8.157 -1.3260  1.8136  2.4353
  337MOL0     H44471   4.091   8.928   8.209 -2.6430  1.5113  1.8739
  337MOL0     H44472   4.165   9.359   8.127  0.1335  1.0466  0.2781
  337MOL0     H44473   4.261   9.578   8.175  2.1627  1.5477 -0.2768
  337MOL0     H44474   4.547   9.749   7.861 -1.3696  0.7728 -1.3611
  337MOL0     H44475   4.624   9.736   8.019 -1.6853 -0.6923  0.9932
  337MOL0     H44476   4.584   9.943   8.100 -0.2654 -0.1190 -0.3790
  337MOL0     H44477   4.622   9.990   7.951  0.7456  1.6277  0.9026
  337MOL0     H44478   4.360  10.031   8.076  1.0463 -1.2501  1.5288
  337MOL0     H44479   4.338   9.912   7.938 -0.7889 -1.8017  1.9853
  337MOL0     H44480   4.484  10.183   7.968  0.5828  1.4716 -1.1287
  337MOL0     H44481   4.476  10.095   7.814  2.1401 -0.7183  1.4923
  337MOL0     H44482   4.100  10.284   7.851  0.4570 -0.0399  2.2604
  337MOL0     H44483   4.544   9.527   7.853  1.2286  2.1860  1.5042
  337MOL0     H44484   4.467   9.287   7.838  0.3182 -1.0662  0.6003
  338MOL0     O44485   8.052   2.331   8.916 -0.6065 -0.8491  1.2402
  338MOL0     C44486   8.159   2.362   8.973  0.4672  0.3227  0.5734
  338MOL0     O44487   8.239   2.272   9.029  0.1470  0.2926  0.5341
  338MOL0     C44488   8.224   2.137   9.063  1.2789  0.6203 -0.3461
  338MOL0     C44489   8.321   2.091   9.154  0.3551 -0.2749  0.4321
  338MOL0     C44490   8.304   1.960   9.209  0.0530 -0.4689  0.5270
  338MOL0     C44491   8.203   1.876   9.176 -0.7522  0.1825  0.2376
  338MOL0     O44492   8.217   1.749   9.227  0.0000  0.2589  0.5258
  338MOL0     C44493   8.201   1.644   9.124  0.2464  0.1172 -1.1625
  338MOL0     C44494   8.200   1.500   9.176  0.0660 -0.0912 -0.4414
  338MOL0     C44495   8.295   1.410   9.096  1.1318 -0.6815 -0.6283
  338MOL0     C44496   8.266   1.369   8.945  1.0940 -0.1257 -0.4016
  338MOL0     C44497   8.347   1.250   8.912 -0.5012 -0.8997  0.3700
  338MOL0     C44498   8.334   1.234   8.758 -0.1460  0.4299  0.0206
  338MOL0     C44499   8.195   1.180   8.704 -0.3967  0.1508 -0.0995
  338MOL0     C44500   8.191   1.203   8.553  0.0563 -0.6494 -0.0358
  338MOL0     N44501   8.294   1.121   8.482 -0.4127 -0.2565 -0.3562
  338MOL0     C44502   8.401   1.166   8.405  0.5895 -0.3634  1.7191
  338MOL0     C44503   8.432   1.061   8.331  0.7618 -0.1043 -0.3078
  338MOL0     C44504   8.516   1.075   8.215 -0.4256  0.1671 -0.9715
  338MOL0     C44505   8.491   0.965   8.117 -0.2192 -0.0834  0.1661
  338MOL0     C44506   8.366   0.999   8.037  0.5129 -0.6109 -0.0700
  338MOL0     C44507   8.324   0.880   7.947 -0.6235 -0.3020  0.1277
  338MOL0     O44508   8.397   0.885   7.825 -0.7485 -0.3706  0.0387
  338MOL0     C44509   8.345   0.851   7.710  0.3058  0.2201  0.6187
  338MOL0     C44510   8.232   0.769   7.704  0.9931 -0.4967 -0.4600
  338MOL0     C44511   8.194   0.722   7.586 -0.5816  0.4316  1.0016
  338MOL0     C44512   8.267   0.749   7.467 -0.4639  0.0668 -1.2728
  338MOL0     C44513   8.227   0.700   7.337  0.4593  0.0394  0.5880
  338MOL0     O44514   8.318   0.729   7.231 -0.4723  0.6063 -0.0024
  338MOL0     C44515   8.293   0.674   7.106  0.7271 -0.0807  0.1549
  338MOL0     C44516   8.222   0.752   7.016 -0.3514 -0.3192  0.3159
  338MOL0     C44517   8.177   0.706   6.889 -0.5776 -0.0226 -0.8048
  338MOL0     C44518   8.204   0.570   6.854 -0.4638 -1.0374 -0.1103
  338MOL0     O44519   8.178   0.515   6.733 -0.2336  0.0252  0.3099
  338MOL0     C44520   8.134   0.604   6.621 -0.5024 -0.6123 -1.4339
  338MOL0     C44521   8.081   0.505   6.520  0.1685  0.4039 -0.0977
  338MOL0     C44522   8.121   0.518   6.371  0.4241 -0.8412 -0.8395
  338MOL0     C44523   8.065   0.429   6.269 -0.2122  1.0124 -1.2537
  338MOL0     C44524   8.120   0.281   6.299  0.0951 -0.2836 -0.5216
  338MOL0     C44525   8.258   0.255   6.259 -0.1423 -0.3656 -0.4309
  338MOL0     C44526   8.298   0.109   6.299 -0.8904 -0.2409 -1.2116
  338MOL0     C44527   8.310   0.087   6.456 -0.5015 -0.0084 -1.0743
  338MOL0    Cl44528   8.444   0.195   6.528  0.0142  0.6871  0.7441
  338MOL0     C44529   8.274   0.493   6.949 -1.3127  0.1300  0.1612
  338MOL0     C44530   8.323   0.544   7.068  0.3769  0.2067 -0.7826
  338MOL0     O44531   8.125   0.627   7.334  0.3577  0.4233 -0.1480
  338MOL0     C44532   8.381   0.828   7.470  0.5545 -0.1145 -0.8739
  338MOL0     C44533   8.422   0.881   7.596  0.0283  0.2296 -0.1548
  338MOL0     N44534   8.385   0.944   8.389 -0.1813  0.2532 -0.3583
  338MOL0     N44535   8.296   0.980   8.471 -0.1293 -0.4928  0.4104
  338MOL0     C44536   8.097   1.929   9.094 -0.0354 -0.5063 -0.8727
  338MOL0     C44537   8.111   2.059   9.038 -0.1885  0.6599 -0.0246
  338MOL0     C44538   8.183   2.516   8.986 -0.3327  0.8636 -0.6788
  338MOL0     C44539   8.216   2.558   9.115 -0.0569  0.2764 -0.2847
  338MOL0     C44540   8.256   2.690   9.132 -0.4526 -0.0012  0.2262
  338MOL0     C44541   8.243   2.797   9.026  0.2150  0.7373  0.3511
  338MOL0     O44542   8.290   2.918   9.058 -0.4746 -0.2249 -0.4901
  338MOL0     C44543   8.344   2.995   8.952 -0.5739  0.6919 -0.3510
  338MOL0     C44544   8.237   3.096   8.900 -0.1447  0.1259 -0.7271
  338MOL0     C44545   8.195   3.203   9.011 -0.6753 -0.1673 -0.7539
  338MOL0     C44546   8.111   3.308   8.947 -0.4700  0.2276 -0.4937
  338MOL0     C44547   8.074   3.407   9.059  0.0164  0.5766  0.5310
  338MOL0     C44548   8.045   3.472   9.153 -0.1279 -0.8739  0.8566
  338MOL0     C44549   8.222   2.746   8.898  0.6248 -0.2412 -0.2179
  338MOL0     C44550   8.184   2.608   8.879  0.0918 -0.2100 -0.3511
  338MOL0     H44551   8.417   2.136   9.178  1.7770 -2.7683 -0.2415
  338MOL0     H44552   8.383   1.922   9.273  1.3541  2.9627  1.1652
  338MOL0     H44553   8.274   1.645   9.043  3.1493 -0.7804  1.2467
  338MOL0     H44554   8.098   1.631   9.089 -0.5698 -1.9588  1.6317
  338MOL0     H44555   8.100   1.459   9.193 -0.4041  0.3528 -2.0574
  338MOL0     H44556   8.247   1.511   9.275  0.4256 -1.0789 -0.4864
  338MOL0     H44557   8.306   1.312   9.143  2.9232  0.3809  1.3631
  338MOL0     H44558   8.390   1.464   9.103  0.4935  0.4608 -0.5316
  338MOL0     H44559   8.160   1.359   8.920  0.7492  0.6155  0.7315
  338MOL0     H44560   8.314   1.447   8.885  1.7415  1.8239  2.4920
  338MOL0     H44561   8.296   1.172   8.969 -0.5941  0.2103  1.8694
  338MOL0     H44562   8.451   1.245   8.946 -0.0121 -1.1924 -1.0592
  338MOL0     H44563   8.420   1.175   8.724  0.7055  1.5611  0.1283
  338MOL0     H44564   8.351   1.329   8.707 -1.7374  0.3991 -0.6077
  338MOL0     H44565   8.200   1.072   8.723 -2.5027  0.3556  2.0753
  338MOL0     H44566   8.101   1.219   8.742 -0.7575 -1.4559  0.7456
  338MOL0     H44567   8.219   1.303   8.519 -0.9310 -0.7785 -1.2872
  338MOL0     H44568   8.088   1.189   8.517 -0.3389  2.2155 -0.2985
  338MOL0     H44569   8.438   1.268   8.394  0.1580 -0.4555 -1.2755
  338MOL0     H44570   8.618   1.060   8.252 -0.9061 -0.9997 -0.0915
  338MOL0     H44571   8.521   1.179   8.180  1.7501  2.0459  4.0209
  338MOL0     H44572   8.483   0.872   8.174 -0.8268 -0.5925 -0.7302
  338MOL0     H44573   8.573   0.955   8.045  0.7451 -0.4519  1.2768
  338MOL0     H44574   8.280   1.022   8.101 -0.4532 -2.0931 -0.7675
  338MOL0     H44575   8.387   1.085   7.972 -2.2880  1.2548  1.2948
  338MOL0     H44576   8.216   0.893   7.935 -0.7951 -2.7747 -1.7218
  338MOL0     H44577   8.356   0.788   7.997  3.4060  0.0364 -1.4465
  338MOL0     H44578   8.166   0.740   7.785  0.6455  2.4653  0.4531
  338MOL0     H44579   8.105   0.661   7.577 -0.2620  0.0872  0.0331
  338MOL0     H44580   8.186   0.851   7.043 -0.4317 -0.7505  1.9137
  338MOL0     H44581   8.136   0.773   6.815 -3.4338 -3.0381 -2.2131
  338MOL0     H44582   8.222   0.650   6.574 -1.0529 -0.3887 -2.2607
  338MOL0     H44583   8.057   0.675   6.651  1.2798 -0.1578  2.7810
  338MOL0     H44584   7.972   0.507   6.516  0.1075 -0.3132  0.8421
  338MOL0     H44585   8.117   0.405   6.546  1.1043  0.2046 -1.9834
  338MOL0     H44586   8.230   0.518   6.367  0.5027  1.4050  0.0917
  338MOL0     H44587   8.099   0.622   6.344  5.6700  0.9415  0.4349
  338MOL0     H44588   7.956   0.434   6.267 -0.3070 -0.6025 -1.1037
  338MOL0     H44589   8.098   0.448   6.166 -2.9500 -1.7666 -2.8034
  338MOL0     H44590   8.053   0.219   6.239 -0.1596  1.7828 -2.4902
  338MOL0     H44591   8.114   0.254   6.405  1.9006 -0.6585 -0.4823
  338MOL0     H44592   8.330   0.330   6.294  0.0100 -2.1892  3.7249
  338MOL0     H44593   8.276   0.268   6.151  3.7819 -0.3421  0.0774
  338MOL0     H44594   8.221   0.045   6.254 -0.2733 -3.0875  1.4080
  338MOL0     H44595   8.394   0.088   6.251  1.2740  3.0091  1.2382
  338MOL0     H44596   8.340  -0.017   6.466  0.6200  0.4221  0.4058
  338MOL0     H44597   8.217   0.096   6.513  0.6986  0.0340  0.9673
  338MOL0     H44598   8.296   0.397   6.902  1.5956 -0.1835  1.9289
  338MOL0     H44599   8.377   0.479   7.136  1.4333 -0.3168 -2.0797
  338MOL0     H44600   8.442   0.844   7.382  2.1226  0.0994  0.1898
  338MOL0     H44601   8.520   0.928   7.601 -0.3430  0.8884  2.2517
  338MOL0     H44602   8.009   1.866   9.089  1.6948 -3.1628  0.1386
  338MOL0     H44603   8.033   2.097   8.973  2.4521  2.6521 -2.2728
  338MOL0     H44604   8.229   2.481   9.191 -1.6484  1.8016  1.6170
  338MOL0     H44605   8.292   2.720   9.230  0.7624 -0.3695 -0.0876
  338MOL0     H44606   8.391   2.940   8.870  2.4569  1.4918  0.6964
  338MOL0     H44607   8.420   3.061   8.994 -0.8525  1.0360 -0.3836
  338MOL0     H44608   8.296   3.134   8.816  1.8920 -0.2484  0.4730
  338MOL0     H44609   8.151   3.042   8.860  0.8192 -0.7903 -1.6581
  338MOL0     H44610   8.284   3.254   9.049  0.6470 -1.6404 -1.7542
  338MOL0     H44611   8.136   3.151   9.087 -0.4572  1.0767  0.3018
  338MOL0     H44612   8.187   3.347   8.878  0.4592 -0.2551  0.2393
  338MOL0     H44613   8.035   3.270   8.878  2.7550 -0.0880 -4.2786
  338MOL0     H44614   7.994   3.534   9.224 -3.1502 -0.9848 -1.0554
  338MOL0     H44615   8.236   2.812   8.813 -0.2639 -1.1751 -1.1140
  338MOL0     H44616   8.159   2.580   8.777 -1.1480  1.2519 -0.4730
  339MOL0     O44617   7.837   7.647   0.634  0.0305  0.8809 -0.5274
  339MOL0     C44618   7.818   7.767   0.642  0.1277  0.0029 -0.3271
  339MOL0     O44619   7.711   7.829   0.702 -0.6427 -0.1249 -0.0620
  339MOL0     C44620   7.595   7.761   0.737 -0.0064  0.3141 -0.4962
  339MOL0     C44621   7.512   7.831   0.834 -0.4062  0.6902  0.2610
  339MOL0     C44622   7.393   7.780   0.867  0.2018 -0.4784 -0.3311
  339MOL0     C44623   7.345   7.665   0.802 -0.5773  0.6803 -0.3278
  339MOL0     O44624   7.228   7.612   0.834  0.4060  0.4289 -0.1540
  339MOL0     C44625   7.130   7.618   0.733 -0.5704 -0.8317 -0.5098
  339MOL0     C44626   6.996   7.548   0.779  0.1338 -0.2614  2.0435
  339MOL0     C44627   7.013   7.394   0.777 -0.9537 -0.2284  1.5218
  339MOL0     C44628   6.886   7.312   0.815  0.2462  0.0933 -0.1266
  339MOL0     C44629   6.778   7.317   0.707  0.4803  0.3216  0.4891
  339MOL0     C44630   6.642   7.277   0.768 -0.2672  0.0729 -0.1193
  339MOL0     C44631   6.526   7.337   0.688 -0.3581  0.4699  0.9274
  339MOL0     C44632   6.504   7.483   0.694  1.2336  0.0661  0.5732
  339MOL0     N44633   6.364   7.531   0.661 -0.0083  0.1430 -0.4532
  339MOL0     C44634   6.268   7.463   0.596  0.6171  0.5353  0.3311
  339MOL0     C44635   6.155   7.525   0.619  0.0263  0.3633 -0.0465
  339MOL0     C44636   6.028   7.477   0.560 -0.2944 -0.1710 -0.4706
  339MOL0     C44637   6.022   7.469   0.406  0.6292 -0.0149  0.0195
  339MOL0     C44638   6.046   7.595   0.318 -0.2681  0.1095 -1.0310
  339MOL0     C44639   6.186   7.641   0.314 -0.7270 -0.5140 -0.1316
  339MOL0     O44640   6.286   7.531   0.305 -0.0578 -0.1840 -0.7812
  339MOL0     C44641   6.418   7.537   0.314  0.5322 -0.2444 -0.3697
  339MOL0     C44642   6.507   7.431   0.333 -0.7842 -0.0212  0.5050
  339MOL0     C44643   6.648   7.444   0.346  1.9990 -0.8135  0.2496
  339MOL0     C44644   6.702   7.567   0.331  0.2859 -0.9621 -1.0379
  339MOL0     C44645   6.848   7.569   0.331 -0.0859 -0.9466 -0.5088
  339MOL0     O44646   6.906   7.460   0.387 -0.3416 -0.4379 -0.5715
  339MOL0     C44647   7.043   7.442   0.383  0.4187 -0.0101 -0.1730
  339MOL0     C44648   7.148   7.511   0.321 -0.9945  0.2952 -0.2499
  339MOL0     C44649   7.284   7.463   0.322 -0.1073 -0.6551 -0.3849
  339MOL0     C44650   7.306   7.331   0.372 -0.7858  0.1113  0.1647
  339MOL0     O44651   7.439   7.299   0.389  0.5643 -0.1171 -0.3210
  339MOL0     C44652   7.474   7.215   0.505 -1.4147 -0.4784  0.4000
  339MOL0     C44653   7.593   7.274   0.576  0.5444  0.7864  0.3599
  339MOL0     C44654   7.663   7.188   0.683 -0.0928 -0.0557 -0.2782
  339MOL0     C44655   7.767   7.257   0.779  0.5797  0.0097 -0.0762
  339MOL0     C44656   7.852   7.152   0.867 -0.3180  0.0491 -0.7791
  339MOL0     C44657   7.835   7.161   1.021  0.2427 -0.3916 -0.2183
  339MOL0     C44658   7.951   7.099   1.106  0.4967  0.3120 -0.6242
  339MOL0     C44659   7.978   7.169   1.245 -0.1360  0.4076  1.3478
  339MOL0    Cl44660   7.839   7.135   1.354  0.1185 -0.1963 -0.4871
  339MOL0     C44661   7.210   7.259   0.419 -0.3651  0.5112  0.1287
  339MOL0     C44662   7.076   7.309   0.426 -0.7031  0.3853  0.2099
  339MOL0     O44663   6.907   7.668   0.281  0.2359 -0.8650  0.0329
  339MOL0     C44664   6.623   7.681   0.307 -0.2719 -0.5797 -0.1426
  339MOL0     C44665   6.477   7.666   0.304  0.0909 -0.5364 -0.8392
  339MOL0     N44666   6.187   7.632   0.701 -0.3576 -0.1623 -0.6725
  339MOL0     N44667   6.314   7.647   0.713 -0.1702  0.0391 -0.0973
  339MOL0     C44668   7.423   7.598   0.704  0.4043 -0.9681 -0.3214
  339MOL0     C44669   7.540   7.654   0.665 -0.5650 -0.5520  0.6617
  339MOL0     C44670   7.911   7.854   0.571 -0.2566 -0.2429 -0.0831
  339MOL0     C44671   7.907   7.989   0.587 -0.7153 -0.2671  0.8149
  339MOL0     C44672   7.993   8.065   0.514 -1.5067  0.2745 -0.3575
  339MOL0     C44673   8.084   8.016   0.419  0.7105  0.9227  1.4043
  339MOL0     O44674   8.154   8.093   0.336 -0.2910  0.0966 -1.0032
  339MOL0     C44675   8.285   8.115   0.394 -0.3365 -0.1375 -0.7064
  339MOL0     C44676   8.364   8.201   0.295 -0.9309  0.4999  1.0319
  339MOL0     C44677   8.301   8.340   0.292  1.0513  0.4811  0.0110
  339MOL0     C44678   8.293   8.432   0.423 -0.0201  0.9078  0.9329
  339MOL0     C44679   8.411   8.428   0.508 -0.1837 -0.2563  1.0358
  339MOL0     C44680   8.513   8.425   0.566  0.1761  0.2401 -0.6859
  339MOL0     C44681   8.075   7.876   0.398 -1.2725  0.7340  0.9389
  339MOL0     C44682   8.002   7.793   0.475  0.4734  0.1492 -0.1075
  339MOL0     H44683   7.545   7.928   0.870  1.4760 -0.5951  2.2447
  339MOL0     H44684   7.330   7.828   0.942  2.1074  0.3697  0.7834
  339MOL0     H44685   7.162   7.566   0.642  3.2280  0.9993 -0.4449
  339MOL0     H44686   7.108   7.721   0.704 -3.6422 -0.4910  2.4312
  339MOL0     H44687   6.912   7.585   0.720 -0.8107 -3.6444  1.0183
  339MOL0     H44688   6.960   7.574   0.878 -2.3731 -3.4186  2.1212
  339MOL0     H44689   7.093   7.379   0.850  1.1284 -1.6686 -0.8838
  339MOL0     H44690   7.065   7.369   0.684  3.3292 -1.9631  4.0566
  339MOL0     H44691   6.897   7.203   0.824 -1.2774 -0.3809 -2.9519
  339MOL0     H44692   6.849   7.357   0.908 -0.7219  0.6635 -0.7809
  339MOL0     H44693   6.789   7.253   0.619 -2.4317  1.0403 -0.5133
  339MOL0     H44694   6.769   7.421   0.675 -1.2963  0.6532  1.9296
  339MOL0     H44695   6.630   7.316   0.869 -1.1520  0.8268 -0.5049
  339MOL0     H44696   6.638   7.168   0.779 -0.6641 -0.3211 -3.2353
  339MOL0     H44697   6.538   7.298   0.587  0.4724 -2.0001  1.8790
  339MOL0     H44698   6.433   7.296   0.729 -0.3514 -0.7955 -0.2384
  339MOL0     H44699   6.561   7.526   0.611  2.0113 -0.8578  0.6223
  339MOL0     H44700   6.532   7.514   0.796 -4.3178 -0.0018  2.4667
  339MOL0     H44701   6.276   7.376   0.531  2.2821  1.2519 -0.4755
  339MOL0     H44702   5.944   7.537   0.597 -0.3020 -2.0626  3.0673
  339MOL0     H44703   5.998   7.379   0.598 -0.3008 -1.0703 -2.6790
  339MOL0     H44704   5.921   7.433   0.388  1.0343 -1.6021  0.7739
  339MOL0     H44705   6.079   7.386   0.364  4.9687  1.4565  2.3348
  339MOL0     H44706   6.027   7.578   0.211 -0.6902 -2.4013 -0.6122
  339MOL0     H44707   5.984   7.681   0.346 -2.2507 -0.6979 -2.6794
  339MOL0     H44708   6.202   7.699   0.405  1.5809 -3.3458  1.4550
  339MOL0     H44709   6.200   7.705   0.227 -0.1658 -2.8561 -1.8604
  339MOL0     H44710   6.468   7.330   0.341  1.3451 -1.0716 -1.3114
  339MOL0     H44711   6.705   7.353   0.363  0.2793 -2.1586 -0.8761
  339MOL0     H44712   7.144   7.610   0.277  1.8926  0.1706 -1.0061
  339MOL0     H44713   7.375   7.519   0.302 -1.4385  1.9665  0.3140
  339MOL0     H44714   7.483   7.109   0.476  1.5372  0.1749 -1.6383
  339MOL0     H44715   7.394   7.216   0.578 -1.0770 -3.4001  0.9305
  339MOL0     H44716   7.564   7.367   0.625 -0.5189  0.5124  0.2664
  339MOL0     H44717   7.668   7.302   0.501  0.8733 -0.0894  0.3486
  339MOL0     H44718   7.702   7.095   0.640 -0.6409  0.2200 -1.4218
  339MOL0     H44719   7.593   7.139   0.751  0.5610 -1.7310 -0.7637
  339MOL0     H44720   7.826   7.319   0.711 -1.3264  2.1544  0.1103
  339MOL0     H44721   7.707   7.324   0.841 -0.4364 -1.0667  0.1339
  339MOL0     H44722   7.956   7.180   0.845  0.0911 -1.3428 -0.7010
  339MOL0     H44723   7.839   7.050   0.831  1.0455  0.1816 -1.7391
  339MOL0     H44724   7.744   7.105   1.047 -0.0733  0.3149  0.2543
  339MOL0     H44725   7.830   7.262   1.062  1.4088 -0.1401 -0.6865
  339MOL0     H44726   7.945   6.992   1.126 -2.2760  0.9750  3.5482
  339MOL0     H44727   8.045   7.099   1.050 -0.0572 -2.1138 -1.6612
  339MOL0     H44728   7.981   7.277   1.225 -5.5275  1.4747  4.3226
  339MOL0     H44729   8.065   7.128   1.297 -0.1453 -1.0360  0.2987
  339MOL0     H44730   7.212   7.160   0.463 -1.0004 -0.8139 -2.5649
  339MOL0     H44731   6.996   7.248   0.467  0.4381 -1.5291 -0.2695
  339MOL0     H44732   6.664   7.781   0.296 -0.2271 -0.9145 -4.6441
  339MOL0     H44733   6.418   7.757   0.299 -0.7373 -1.1343 -2.9113
  339MOL0     H44734   7.381   7.507   0.664 -3.2659  0.1518  0.5627
  339MOL0     H44735   7.596   7.600   0.589 -0.5909 -2.0795  1.6862
  339MOL0     H44736   7.843   8.050   0.651  3.0153  3.0820  1.7059
  339MOL0     H44737   7.979   8.172   0.524  0.4193  0.4270  1.4668
  339MOL0     H44738   8.337   8.019   0.399  0.0896  0.1239  0.0613
  339MOL0     H44739   8.281   8.157   0.495 -1.3209 -0.3008 -0.6687
  339MOL0     H44740   8.460   8.199   0.347 -1.9573  1.5001  3.0911
  339MOL0     H44741   8.362   8.155   0.196 -4.0075  2.3639  0.0812
  339MOL0     H44742   8.194   8.335   0.271  1.0453  2.2362 -0.5258
  339MOL0     H44743   8.338   8.397   0.206  4.2872  0.5210  1.2697
  339MOL0     H44744   8.274   8.532   0.384 -3.0662 -0.7771 -2.6094
  339MOL0     H44745   8.209   8.395   0.483  1.0574 -1.1462  1.2912
  339MOL0     H44746   8.608   8.408   0.612  0.2155  1.3092 -0.3442
  339MOL0     H44747   8.125   7.839   0.309 -0.6338 -0.1362  1.6328
  339MOL0     H44748   8.007   7.686   0.460  2.4688  0.2441 -0.4069
  340MOL0     O44749   0.349   8.870  10.243  0.3256  0.4556 -0.3375
  340MOL0     C44750   0.301   8.754  10.216 -0.4527 -0.4307  0.5888
  340MOL0     O44751   0.367   8.654  10.148 -0.3215 -0.3399  0.3394
  340MOL0     C44752   0.496   8.688  10.098 -0.2246 -0.0361  0.4956
  340MOL0     C44753   0.599   8.602  10.128  1.1848 -0.8452  1.2064
  340MOL0     C44754   0.729   8.621  10.077 -0.3832  0.0490  1.2579
  340MOL0     C44755   0.760   8.732   9.993 -1.0981 -0.0114 -0.4602
  340MOL0     O44756   0.874   8.760   9.918  0.3423 -0.1063 -0.2162
  340MOL0     C44757   0.976   8.665   9.904  0.7698  0.2952 -0.6162
  340MOL0     C44758   1.075   8.698   9.795 -0.4418 -0.3371  0.5533
  340MOL0     C44759   1.131   8.842   9.821 -0.2735  0.6104 -1.6184
  340MOL0     C44760   1.268   8.871   9.757  0.3898  0.8501 -0.5782
  340MOL0     C44761   1.324   9.010   9.774  0.1741 -1.0193  0.2523
  340MOL0     C44762   1.483   9.022   9.774 -0.1197  0.4409 -0.6123
  340MOL0     C44763   1.538   8.965   9.909 -0.3052  0.6352  0.1468
  340MOL0     C44764   1.618   8.833   9.878 -0.0862 -0.1193 -0.0535
  340MOL0     N44765   1.708   8.774   9.969  0.1847 -1.2639 -0.4206
  340MOL0     C44766   1.664   8.706  10.082 -0.2126  0.0861  0.8789
  340MOL0     C44767   1.772   8.652  10.139  0.2166  0.2924  0.0898
  340MOL0     C44768   1.777   8.573  10.265 -0.1592  0.2959  0.6154
  340MOL0     C44769   1.758   8.417  10.229 -0.1154 -0.5064  0.4721
  340MOL0     C44770   1.626   8.388  10.168 -0.6748 -0.3641  0.1326
  340MOL0     C44771   1.637   8.254  10.086  0.0070  0.2565 -0.0695
  340MOL0     O44772   1.540   8.268   9.978 -0.7109 -0.3210  0.5188
  340MOL0     C44773   1.587   8.326   9.863 -0.2810  0.9931  0.3585
  340MOL0     C44774   1.505   8.293   9.748 -0.9197 -0.2418  0.1371
  340MOL0     C44775   1.518   8.372   9.629  0.5157  0.3695  0.1008
  340MOL0     C44776   1.628   8.465   9.613 -0.5131  0.3898  0.1167
  340MOL0     C44777   1.650   8.531   9.482 -0.0257 -0.3922 -0.3536
  340MOL0     O44778   1.556   8.495   9.395  0.6316 -0.5461  0.4047
  340MOL0     C44779   1.567   8.553   9.267  0.1528  0.1917 -0.4607
  340MOL0     C44780   1.652   8.492   9.171 -0.7411  0.4520 -0.5162
  340MOL0     C44781   1.653   8.537   9.041 -1.0111  0.2726  0.2568
  340MOL0     C44782   1.565   8.637   9.001 -0.7192  0.3906  0.5835
  340MOL0     O44783   1.575   8.673   8.867 -0.3121  0.7202 -0.0550
  340MOL0     C44784   1.653   8.793   8.849  0.0999 -0.2586  0.2023
  340MOL0     C44785   1.621   8.871   8.709 -0.5067  1.2125 -0.9235
  340MOL0     C44786   1.483   8.939   8.722  0.6062 -1.1136  0.5872
  340MOL0     C44787   1.429   9.007   8.594 -0.3959  0.0473  0.0265
  340MOL0     C44788   1.313   9.103   8.624  0.2450 -0.0487 -0.3590
  340MOL0     C44789   1.205   9.044   8.700  0.6693  0.2718  0.1445
  340MOL0     C44790   1.129   8.932   8.622 -1.2714  0.8418 -0.4502
  340MOL0     C44791   0.980   8.924   8.632 -0.2077  0.1048  0.2839
  340MOL0    Cl44792   0.922   8.772   8.544 -0.1710  0.2679 -0.1581
  340MOL0     C44793   1.487   8.703   9.099 -0.4297 -0.7993 -0.1441
  340MOL0     C44794   1.490   8.660   9.234  0.1004  0.1794  0.0987
  340MOL0     O44795   1.744   8.605   9.463  0.2072  0.1575  0.6511
  340MOL0     C44796   1.714   8.484   9.725  0.5202 -0.8665  0.0229
  340MOL0     C44797   1.684   8.424   9.844 -1.0817  0.7347 -0.5915
  340MOL0     N44798   1.872   8.690  10.053 -0.9586  0.4844 -0.0923
  340MOL0     N44799   1.833   8.743   9.948 -0.5593 -0.9979  0.4521
  340MOL0     C44800   0.647   8.809   9.948 -0.2478  0.4677  0.0990
  340MOL0     C44801   0.520   8.794  10.005  0.6226  0.0446  0.3398
  340MOL0     C44802   0.171   8.719  10.271 -0.2718 -0.1050  0.3899
  340MOL0     C44803   0.086   8.811  10.337 -0.2415 -0.9815 -0.1296
  340MOL0     C44804  -0.030   8.765  10.389 -1.0020 -0.1036 -0.1095
  340MOL0     C44805  -0.077   8.636  10.372  1.3316 -0.4497  0.8549
  340MOL0     O44806  -0.202   8.607  10.424  0.2194 -0.8541  0.1055
  340MOL0     C44807  -0.203   8.487  10.493  0.3848 -0.7979  0.5157
  340MOL0     C44808  -0.326   8.506  10.581  0.1181  0.0543 -0.9720
  340MOL0     C44809  -0.302   8.619  10.680 -0.3633  0.4387 -0.8334
  340MOL0     C44810  -0.409   8.618  10.799  0.1674 -0.3529  0.7028
  340MOL0     C44811  -0.378   8.738  10.886  1.1293  0.0980  0.0972
  340MOL0     C44812  -0.324   8.813  10.959  0.1709  0.9655 -0.6952
  340MOL0     C44813  -0.000   8.540  10.315 -0.7451  0.0542 -0.0371
  340MOL0     C44814   0.124   8.582  10.265  0.3410 -0.0949  0.2049
  340MOL0     H44815   0.574   8.517  10.190 -0.5815 -0.2815  1.3142
  340MOL0     H44816   0.804   8.546  10.096 -0.8267 -0.6840  0.2051
  340MOL0     H44817   0.938   8.567   9.871  1.1519  0.1110 -0.5124
  340MOL0     H44818   1.020   8.656  10.004 -3.5771  3.8672  2.0072
  340MOL0     H44819   1.028   8.704   9.697  1.2167  2.4613 -0.1558
  340MOL0     H44820   1.158   8.626   9.794 -0.0830  0.0736 -0.2093
  340MOL0     H44821   1.145   8.861   9.928 -0.6065 -0.0022 -1.4606
  340MOL0     H44822   1.050   8.908   9.790 -1.0424  0.3115 -0.3206
  340MOL0     H44823   1.348   8.807   9.797  0.1847  0.0874 -1.3516
  340MOL0     H44824   1.251   8.842   9.653  0.1187 -0.0587 -0.2954
  340MOL0     H44825   1.288   9.054   9.867  0.1968 -0.1648 -0.1269
  340MOL0     H44826   1.282   9.080   9.700  2.0564 -1.0776 -0.9451
  340MOL0     H44827   1.510   9.126   9.754  1.9030 -0.3723 -2.5983
  340MOL0     H44828   1.533   8.970   9.691 -0.0964  0.5837 -0.6881
  340MOL0     H44829   1.603   9.043   9.950  2.5152 -2.1579  1.3679
  340MOL0     H44830   1.458   8.948   9.982  1.0104  2.2743  2.0765
  340MOL0     H44831   1.682   8.861   9.794 -0.6873 -2.6215 -1.4669
  340MOL0     H44832   1.547   8.757   9.842  0.1841 -2.3428  3.6221
  340MOL0     H44833   1.565   8.702  10.127 -0.1767 -0.2629  0.9279
  340MOL0     H44834   1.709   8.600  10.347 -1.5524 -1.2967  0.0421
  340MOL0     H44835   1.877   8.597  10.302 -0.4334  2.9954 -0.1778
  340MOL0     H44836   1.766   8.353  10.317  0.8650  2.1718  2.4637
  340MOL0     H44837   1.827   8.385  10.150 -1.0259  0.0784 -0.5832
  340MOL0     H44838   1.562   8.356  10.251 -2.0695 -1.4243 -1.3020
  340MOL0     H44839   1.588   8.464  10.099  0.3759 -1.3102 -1.5351
  340MOL0     H44840   1.616   8.175  10.159  4.1767  0.3356  1.5191
  340MOL0     H44841   1.729   8.223  10.037 -1.6031 -4.3226 -0.6684
  340MOL0     H44842   1.442   8.205   9.748  1.9009 -2.5176  3.4123
  340MOL0     H44843   1.444   8.345   9.555 -0.0868 -1.1821  1.2278
  340MOL0     H44844   1.704   8.402   9.203 -1.8608 -1.3133 -3.2493
  340MOL0     H44845   1.708   8.482   8.965  2.3339  1.6406  1.4820
  340MOL0     H44846   1.756   8.759   8.836 -0.7425 -2.3711 -1.7286
  340MOL0     H44847   1.634   8.854   8.937 -2.8410 -2.4027  1.2171
  340MOL0     H44848   1.632   8.783   8.645 -2.9983 -1.7040  2.2741
  340MOL0     H44849   1.701   8.942   8.687  1.2192 -1.0661 -2.5891
  340MOL0     H44850   1.498   9.016   8.798  0.7747 -1.9946  1.4651
  340MOL0     H44851   1.400   8.872   8.744 -1.1829 -0.2886 -2.8949
  340MOL0     H44852   1.518   9.058   8.557 -0.1137  1.3023  2.2350
  340MOL0     H44853   1.404   8.931   8.520 -0.2272  0.0853 -0.0711
  340MOL0     H44854   1.271   9.135   8.528  0.6705  0.9376 -0.2227
  340MOL0     H44855   1.337   9.200   8.669 -2.0954  0.8258 -0.8674
  340MOL0     H44856   1.120   9.109   8.719  0.0736 -0.9011  1.6969
  340MOL0     H44857   1.241   9.009   8.798 -2.0149 -1.3005  0.6618
  340MOL0     H44858   1.157   8.940   8.516  1.6960 -1.8362 -0.0180
  340MOL0     H44859   1.182   8.843   8.656 -0.3360  1.0420 -1.3487
  340MOL0     H44860   0.938   9.015   8.589  1.8285  1.1781  0.4699
  340MOL0     H44861   0.943   8.916   8.735 -1.9595 -0.8328 -0.3801
  340MOL0     H44862   1.427   8.787   9.066 -3.3355 -3.2677 -1.7013
  340MOL0     H44863   1.426   8.710   9.306  0.1304  0.1610  0.1378
  340MOL0     H44864   1.795   8.556   9.721  1.1175 -1.5394 -0.1721
  340MOL0     H44865   1.738   8.446   9.935 -2.6820  2.9647 -0.0856
  340MOL0     H44866   0.666   8.881   9.869 -1.8616 -1.9022 -2.6623
  340MOL0     H44867   0.429   8.853   9.990  2.0845  2.5894  0.9023
  340MOL0     H44868   0.108   8.917  10.335 -2.3695 -0.4289 -4.0191
  340MOL0     H44869  -0.100   8.837  10.432 -1.4999 -0.7660  0.1991
  340MOL0     H44870  -0.111   8.472  10.551 -0.3403 -1.3856  1.5469
  340MOL0     H44871  -0.218   8.403  10.425  1.8443 -0.7151  0.0361
  340MOL0     H44872  -0.416   8.525  10.522 -0.1169 -2.3538 -1.4872
  340MOL0     H44873  -0.337   8.407  10.627  2.0055  0.3527  0.2579
  340MOL0     H44874  -0.284   8.712  10.626 -1.6445  0.7006 -0.8305
  340MOL0     H44875  -0.215   8.608  10.746 -1.1570  3.7898  1.0249
  340MOL0     H44876  -0.509   8.619  10.755  0.5094 -1.4267 -0.1330
  340MOL0     H44877  -0.404   8.529  10.862 -0.6351 -0.7552  0.2079
  340MOL0     H44878  -0.282   8.882  11.028  0.3911 -1.7782  2.1337
  340MOL0     H44879  -0.030   8.436  10.311  1.0410 -0.4719 -0.4936
  340MOL0     H44880   0.187   8.508  10.219  2.2744  2.4679 -1.5624
  341MOL0     O44881   3.780   6.727   7.836  0.6116  0.5731 -0.0163
  341MOL0     C44882   3.797   6.760   7.719 -0.2119  0.3967  0.0852
  341MOL0     O44883   3.861   6.875   7.675  0.2630 -0.6291 -0.3189
  341MOL0     C44884   3.879   6.971   7.778 -0.7744  0.2788  0.0844
  341MOL0     C44885   3.990   6.949   7.861 -0.2971 -0.9655  0.0306
  341MOL0     C44886   4.026   7.041   7.962  0.7502 -0.0619 -1.1698
  341MOL0     C44887   3.933   7.145   7.992  0.4663  0.7256 -0.4005
  341MOL0     O44888   3.961   7.217   8.104  0.7483  0.7233 -0.6181
  341MOL0     C44889   3.860   7.317   8.137  0.9876  1.2221 -0.0765
  341MOL0     C44890   3.880   7.370   8.272 -0.4107 -0.1973  0.5896
  341MOL0     C44891   3.746   7.441   8.284 -0.3982 -0.2989  0.0242
  341MOL0     C44892   3.757   7.544   8.398  0.9105 -0.4983  0.9509
  341MOL0     C44893   3.619   7.578   8.459  0.6909 -0.4422  0.7315
  341MOL0     C44894   3.557   7.708   8.389  0.4767 -1.0806 -0.7709
  341MOL0     C44895   3.419   7.735   8.449 -0.2277 -0.6563  0.5575
  341MOL0     C44896   3.428   7.760   8.600 -0.3073 -0.6300  1.3600
  341MOL0     N44897   3.385   7.653   8.685  0.1591  0.2894  0.3374
  341MOL0     C44898   3.253   7.618   8.692  0.0437  0.6046 -0.0317
  341MOL0     C44899   3.242   7.527   8.787  0.6327 -0.2481 -0.7564
  341MOL0     C44900   3.125   7.479   8.858  0.1366 -0.9309 -0.1809
  341MOL0     C44901   3.075   7.347   8.793  0.6686  0.4537 -0.7631
  341MOL0     C44902   2.922   7.321   8.836 -0.1137 -0.0292  0.9266
  341MOL0     C44903   2.875   7.205   8.746 -0.2740  0.0656  0.6622
  341MOL0     O44904   2.834   7.255   8.613  0.0455  0.4414 -0.9709
  341MOL0     C44905   2.734   7.173   8.567  0.3110  0.7926  1.2394
  341MOL0     C44906   2.756   7.037   8.517 -0.3425 -0.1831 -0.2540
  341MOL0     C44907   2.648   6.977   8.458  0.3981  1.0077  0.8241
  341MOL0     C44908   2.522   7.030   8.452 -0.0877  0.7878  0.3910
  341MOL0     C44909   2.406   6.968   8.398 -1.0704  0.4570  0.1470
  341MOL0     O44910   2.426   6.850   8.346  0.0363  0.0283  0.5104
  341MOL0     C44911   2.331   6.797   8.262  0.0348 -0.5631 -0.2708
  341MOL0     C44912   2.378   6.719   8.161  0.2740  0.6120  0.1221
  341MOL0     C44913   2.286   6.651   8.079  0.2124  0.0226 -0.0357
  341MOL0     C44914   2.151   6.663   8.094  0.8508  0.3552  0.2462
  341MOL0     O44915   2.068   6.588   8.015 -0.0599  0.3180  0.0514
  341MOL0     C44916   1.947   6.643   7.960  0.4249  0.4133  0.6898
  341MOL0     C44917   1.877   6.539   7.882  0.6039 -0.3848  0.2332
  341MOL0     C44918   1.757   6.605   7.809 -0.0244 -0.4643 -0.0242
  341MOL0     C44919   1.680   6.502   7.729 -0.1357 -0.9512 -0.2507
  341MOL0     C44920   1.538   6.543   7.707 -0.2702  1.0082 -0.3894
  341MOL0     C44921   1.452   6.544   7.841 -0.2912  0.2769  0.0302
  341MOL0     C44922   1.368   6.663   7.835 -0.3093 -0.9437 -0.3786
  341MOL0     C44923   1.249   6.650   7.935 -0.2031 -0.9874 -0.0723
  341MOL0    Cl44924   1.128   6.778   7.884 -0.1731  0.2299 -0.2125
  341MOL0     C44925   2.108   6.748   8.190  0.3898 -0.0293 -0.6779
  341MOL0     C44926   2.193   6.819   8.276 -0.0522  0.2919  0.0791
  341MOL0     O44927   2.323   7.046   8.364 -0.1125 -0.7807  0.7997
  341MOL0     C44928   2.508   7.163   8.495  1.0858  1.1824 -0.0861
  341MOL0     C44929   2.607   7.236   8.547 -0.0965  0.4051  0.0538
  341MOL0     N44930   3.369   7.497   8.825  0.5306  0.2756 -0.3072
  341MOL0     N44931   3.455   7.569   8.760 -0.1723  0.0822 -0.1260
  341MOL0     C44932   3.819   7.160   7.906 -0.1778 -0.3440 -0.4660
  341MOL0     C44933   3.790   7.078   7.804 -0.3672  0.3003  0.5481
  341MOL0     C44934   3.766   6.658   7.616  0.0154  0.5845  1.1748
  341MOL0     C44935   3.776   6.527   7.661  0.5949 -0.2183  0.3343
  341MOL0     C44936   3.757   6.422   7.565 -1.1147  0.4087  0.3632
  341MOL0     C44937   3.738   6.444   7.429 -0.3807 -0.6788 -0.2149
  341MOL0     O44938   3.726   6.341   7.345 -0.3004  0.3687  0.6154
  341MOL0     C44939   3.638   6.357   7.228  0.4180  0.5840 -0.4733
  341MOL0     C44940   3.606   6.212   7.180  0.5643  0.9957  0.4579
  341MOL0     C44941   3.724   6.133   7.110 -0.1229 -0.4772 -0.3645
  341MOL0     C44942   3.692   6.077   6.972 -0.6193  0.3717 -0.3193
  341MOL0     C44943   3.605   5.955   6.968 -0.2746 -0.1258  0.5952
  341MOL0     C44944   3.522   5.871   6.982  0.4613 -0.5830 -0.3768
  341MOL0     C44945   3.740   6.579   7.385 -0.6476  0.0225 -0.6787
  341MOL0     C44946   3.754   6.683   7.479  0.3710 -0.5016  0.2905
  341MOL0     H44947   4.052   6.864   7.834  2.7048  0.3161  2.2739
  341MOL0     H44948   4.109   7.034   8.031  0.1493 -0.5561 -0.4780
  341MOL0     H44949   3.763   7.267   8.129  0.5860  1.4509  2.5357
  341MOL0     H44950   3.861   7.400   8.066 -1.3725  2.0595  0.8045
  341MOL0     H44951   3.967   7.436   8.265 -0.4685  0.0121  1.6922
  341MOL0     H44952   3.899   7.294   8.349  0.3113 -0.9842 -0.3371
  341MOL0     H44953   3.674   7.363   8.311 -0.2443 -1.3933 -2.5337
  341MOL0     H44954   3.714   7.484   8.189 -2.5108 -2.1437 -0.1757
  341MOL0     H44955   3.817   7.491   8.473  1.2585 -1.7313 -0.1601
  341MOL0     H44956   3.816   7.632   8.372  0.0749 -0.7670 -2.2198
  341MOL0     H44957   3.630   7.599   8.566 -0.8025  0.8185  0.6677
  341MOL0     H44958   3.543   7.500   8.462  1.7659 -1.7052 -1.7369
  341MOL0     H44959   3.548   7.698   8.280  1.1107  0.8612 -1.0574
  341MOL0     H44960   3.626   7.790   8.411  0.5178 -1.3045 -0.0504
  341MOL0     H44961   3.380   7.828   8.407  0.5337 -0.3509  0.5133
  341MOL0     H44962   3.357   7.649   8.421 -1.8504  0.1918  1.3665
  341MOL0     H44963   3.368   7.851   8.613  0.8493  0.8389 -2.1884
  341MOL0     H44964   3.532   7.789   8.618  0.1440 -0.7216 -0.8234
  341MOL0     H44965   3.164   7.657   8.643 -1.4331 -1.4825  0.8498
  341MOL0     H44966   3.043   7.552   8.861  1.7016  0.8634  0.5209
  341MOL0     H44967   3.154   7.460   8.962 -0.5865  3.6000  1.0830
  341MOL0     H44968   3.138   7.268   8.835 -0.8389 -0.0485  0.6971
  341MOL0     H44969   3.078   7.354   8.684 -3.1243 -0.4302 -1.0662
  341MOL0     H44970   2.913   7.295   8.942  0.0567  1.7801  1.4126
  341MOL0     H44971   2.877   7.419   8.818  2.2248  1.1015  0.9036
  341MOL0     H44972   2.787   7.164   8.796 -1.3797 -1.0142 -1.9711
  341MOL0     H44973   2.941   7.118   8.744 -1.0053 -0.7909 -5.1356
  341MOL0     H44974   2.854   6.991   8.532  0.0733  0.6950 -0.2255
  341MOL0     H44975   2.665   6.881   8.411 -1.9478  1.9601 -2.2628
  341MOL0     H44976   2.485   6.719   8.142 -0.1440  0.9701 -2.5419
  341MOL0     H44977   2.316   6.587   7.998 -0.4478 -2.0766  1.3032
  341MOL0     H44978   1.968   6.731   7.900 -0.6321 -0.1036 -0.4875
  341MOL0     H44979   1.886   6.675   8.046  1.8018 -0.5913  2.0977
  341MOL0     H44980   1.835   6.458   7.943 -2.1930  0.3718 -0.4982
  341MOL0     H44981   1.938   6.497   7.802  0.7753 -1.5221  0.9456
  341MOL0     H44982   1.793   6.692   7.754  1.0430 -0.4342  0.6970
  341MOL0     H44983   1.686   6.657   7.874  0.5413 -1.6976  1.6616
  341MOL0     H44984   1.732   6.494   7.633  1.9700  2.8697  0.3956
  341MOL0     H44985   1.685   6.406   7.782 -3.7374 -0.4212  1.3230
  341MOL0     H44986   1.493   6.476   7.633  1.5359 -0.2874 -0.3910
  341MOL0     H44987   1.535   6.644   7.667  3.1312  1.0025 -0.9438
  341MOL0     H44988   1.520   6.563   7.925 -0.4365  0.9173  0.0135
  341MOL0     H44989   1.391   6.455   7.854 -1.8153  0.9858 -1.8218
  341MOL0     H44990   1.437   6.746   7.855  2.0598 -2.9536  0.3176
  341MOL0     H44991   1.319   6.684   7.740  0.3167  1.2291 -0.2900
  341MOL0     H44992   1.282   6.674   8.037  2.9336 -2.5503 -0.6274
  341MOL0     H44993   1.209   6.549   7.924  2.9034 -2.3027 -0.0390
  341MOL0     H44994   2.000   6.750   8.193  0.2979 -0.2816 -2.6504
  341MOL0     H44995   2.158   6.897   8.343  0.1406  2.8229 -2.5501
  341MOL0     H44996   2.409   7.207   8.503  0.7869  0.4737  0.1900
  341MOL0     H44997   2.596   7.340   8.577  4.5296  0.6237  1.7514
  341MOL0     H44998   3.755   7.247   7.921 -0.1440 -0.3479 -0.2901
  341MOL0     H44999   3.698   7.101   7.752 -0.0105  2.4886  0.7753
  341MOL0     H45000   3.806   6.495   7.760 -0.3778 -1.2677  0.3004
  341MOL0     H45001   3.772   6.326   7.613  0.7047  2.1012  3.5301
  341MOL0     H45002   3.691   6.409   7.147 -0.9727  1.7703 -0.6573
  341MOL0     H45003   3.546   6.406   7.260  0.2606  0.7260 -1.1419
  341MOL0     H45004   3.575   6.136   7.252  2.2841 -1.8839 -1.6250
  341MOL0     H45005   3.529   6.215   7.103  3.2815 -1.5245 -2.6862
  341MOL0     H45006   3.746   6.048   7.176  1.3791  1.2010  1.4614
  341MOL0     H45007   3.807   6.205   7.104  0.9852 -1.6615  0.1225
  341MOL0     H45008   3.632   6.150   6.917 -0.2274  1.1349  0.2458
  341MOL0     H45009   3.782   6.056   6.914 -0.9737 -0.6171 -0.5306
  341MOL0     H45010   3.435   5.812   7.006 -0.8160  2.0566  2.0821
  341MOL0     H45011   3.732   6.603   7.279  4.5274 -2.3796 -1.9467
  341MOL0     H45012   3.758   6.787   7.447 -3.1366 -0.7997 -1.5176
  342MOL0     O45013   8.396   2.953   0.317  0.6699 -0.0228 -0.3986
  342MOL0     C45014   8.353   3.045   0.252  0.3961  0.5280  0.0382
  342MOL0     O45015   8.312   3.038   0.121  0.0517 -0.3734 -0.4662
  342MOL0     C45016   8.319   2.930   0.033 -1.1383 -0.0712 -0.2205
  342MOL0     C45017   8.205   2.875  -0.026 -0.5435 -0.5874  0.0077
  342MOL0     C45018   8.212   2.762  -0.112  0.0345  0.4966  0.0784
  342MOL0     C45019   8.340   2.704  -0.143 -0.8450 -0.1318  0.1786
  342MOL0     O45020   8.342   2.590  -0.217  0.4239 -0.5310 -0.0340
  342MOL0     C45021   8.447   2.494  -0.203  0.5725  0.5678  0.4852
  342MOL0     C45022   8.403   2.361  -0.252 -0.0828  0.1454 -1.2719
  342MOL0     C45023   8.519   2.260  -0.239 -0.2218 -0.2229  0.7048
  342MOL0     C45024   8.480   2.126  -0.313 -0.2479 -0.3961 -0.7793
  342MOL0     C45025   8.589   2.027  -0.285  0.2101 -0.6321 -0.3741
  342MOL0     C45026   8.618   1.933  -0.397  0.4429 -0.8657  0.6495
  342MOL0     C45027   8.502   1.834  -0.426 -0.8371 -0.3335  0.4266
  342MOL0     C45028   8.491   1.807  -0.582 -0.6981 -0.9646 -0.8190
  342MOL0     N45029   8.617   1.745  -0.624  0.4672  0.4742  0.3780
  342MOL0     C45030   8.721   1.805  -0.693  1.8612 -0.2274 -0.0986
  342MOL0     C45031   8.799   1.709  -0.729 -0.3192 -0.5358 -0.0608
  342MOL0     C45032   8.926   1.708  -0.804 -0.3301 -0.2776 -0.7997
  342MOL0     C45033   8.894   1.640  -0.941  0.2097 -0.3971  0.3544
  342MOL0     C45034   9.015   1.633  -1.041  0.9795 -0.4514 -0.2503
  342MOL0     C45035   8.973   1.581  -1.171 -0.7188 -0.3716 -0.1775
  342MOL0     O45036   9.091   1.580  -1.251 -0.2093 -0.4366 -0.3555
  342MOL0     C45037   9.110   1.681  -1.330  0.3147 -0.5686  0.4879
  342MOL0     C45038   9.193   1.667  -1.438  0.3864  1.3429  0.2794
  342MOL0     C45039   9.234   1.762  -1.525 -0.8931  1.0504 -0.9411
  342MOL0     C45040   9.173   1.881  -1.520  0.4184 -0.1154  0.6272
  342MOL0     C45041   9.212   1.988  -1.617  0.2442 -0.1001  0.2103
  342MOL0     O45042   9.237   1.936  -1.740  0.4663 -0.0207 -0.1124
  342MOL0     C45043   9.277   2.022  -1.839 -0.3462  0.4322  0.2481
  342MOL0     C45044   9.211   2.026  -1.962  0.3421 -0.2756  0.9202
  342MOL0     C45045   9.246   2.109  -2.069  0.5485  0.3918 -0.2338
  342MOL0     C45046   9.374   2.190  -2.055  0.9585  0.1894  0.4578
  342MOL0     O45047   9.428   2.271  -2.149  0.4395  0.0723  0.3748
  342MOL0     C45048   9.352   2.345  -2.245  0.6034  0.0547  1.6300
  342MOL0     C45049   9.431   2.405  -2.358 -0.2612 -0.9652  0.0159
  342MOL0     C45050   9.525   2.296  -2.418 -0.2536 -0.0791 -0.2066
  342MOL0     C45051   9.611   2.346  -2.526 -0.0182 -0.0771  1.5221
  342MOL0     C45052   9.738   2.267  -2.550  0.3330 -0.4736  0.0203
  342MOL0     C45053   9.836   2.280  -2.438 -0.0660  0.6408  0.6877
  342MOL0     C45054   9.956   2.198  -2.474 -1.0400  0.3347 -0.5281
  342MOL0     C45055  10.066   2.212  -2.367  0.0819  0.2800  0.2216
  342MOL0    Cl45056  10.133   2.380  -2.395 -0.3765 -0.0248  0.7902
  342MOL0     C45057   9.434   2.188  -1.930 -0.5829  0.6975  0.0346
  342MOL0     C45058   9.386   2.106  -1.831  0.2636  0.4113  0.2021
  342MOL0     O45059   9.237   2.098  -1.575 -0.3361 -0.5965  0.5063
  342MOL0     C45060   9.101   1.919  -1.408 -0.2268  0.0272  0.4140
  342MOL0     C45061   9.065   1.818  -1.319  0.0896 -0.2849 -1.5871
  342MOL0     N45062   8.737   1.593  -0.695 -0.2953  0.8149  0.6670
  342MOL0     N45063   8.630   1.612  -0.628  0.5479 -0.5135 -0.6467
  342MOL0     C45064   8.457   2.765  -0.093  0.1951  0.9594 -0.2136
  342MOL0     C45065   8.439   2.871   0.001 -0.6919 -0.3546 -0.1434
  342MOL0     C45066   8.325   3.172   0.319 -0.1170  0.7251 -0.2958
  342MOL0     C45067   8.298   3.180   0.462  0.0634  0.0812  0.1463
  342MOL0     C45068   8.278   3.305   0.523 -0.1122  0.4277 -0.1804
  342MOL0     C45069   8.285   3.419   0.445  0.3710  0.6204 -0.2739
  342MOL0     O45070   8.266   3.541   0.495  0.0540  0.3440 -1.0894
  342MOL0     C45071   8.290   3.670   0.423 -0.2199 -0.6139  0.2140
  342MOL0     C45072   8.310   3.777   0.525 -0.2550 -0.5451  0.3422
  342MOL0     C45073   8.411   3.747   0.631 -0.4490 -0.4194  0.0189
  342MOL0     C45074   8.453   3.881   0.701 -0.1429  0.2774  0.1863
  342MOL0     C45075   8.536   3.971   0.610  0.0314 -0.5778  0.8393
  342MOL0     C45076   8.593   4.045   0.527  0.0376  0.9921 -0.2290
  342MOL0     C45077   8.305   3.407   0.312 -1.3047 -0.8986 -0.0365
  342MOL0     C45078   8.311   3.288   0.255 -0.0171  0.4678  1.0186
  342MOL0     H45079   8.106   2.920  -0.017 -0.0024  0.8865 -0.9874
  342MOL0     H45080   8.124   2.725  -0.163  0.3260  3.0198 -2.5667
  342MOL0     H45081   8.484   2.473  -0.102  0.7219 -3.1301 -0.2102
  342MOL0     H45082   8.533   2.525  -0.263  1.6734 -3.0452 -0.0309
  342MOL0     H45083   8.358   2.360  -0.352  0.7791 -1.4202 -1.6836
  342MOL0     H45084   8.328   2.328  -0.180  1.1921  0.8676  0.4762
  342MOL0     H45085   8.530   2.243  -0.132  2.5646  1.2446  0.7448
  342MOL0     H45086   8.612   2.298  -0.281 -0.7482 -0.5565 -0.8328
  342MOL0     H45087   8.384   2.085  -0.280  0.0487  0.0136  0.6972
  342MOL0     H45088   8.475   2.144  -0.420  1.1047  0.2111 -0.7569
  342MOL0     H45089   8.548   1.962  -0.207  2.3862 -1.5776  0.0644
  342MOL0     H45090   8.680   2.069  -0.240 -0.6113  2.0383 -1.0393
  342MOL0     H45091   8.702   1.871  -0.365  1.0873  0.9089  2.6545
  342MOL0     H45092   8.645   1.994  -0.484 -1.9717 -1.8536 -0.8883
  342MOL0     H45093   8.516   1.742  -0.368  2.2142 -0.3586 -0.1887
  342MOL0     H45094   8.407   1.880  -0.396 -0.2965  1.5441 -0.5889
  342MOL0     H45095   8.480   1.901  -0.636 -1.0428 -1.0585 -0.9143
  342MOL0     H45096   8.406   1.743  -0.609 -2.6778  1.9389 -1.9094
  342MOL0     H45097   8.717   1.910  -0.722  2.5737  0.2280  1.3773
  342MOL0     H45098   9.000   1.667  -0.735  1.0615  2.1491 -0.7208
  342MOL0     H45099   8.949   1.815  -0.810 -2.1310  0.2460  0.8635
  342MOL0     H45100   8.807   1.680  -0.994 -0.7015 -2.1902  0.4254
  342MOL0     H45101   8.857   1.538  -0.929 -3.0423  0.6315  0.2578
  342MOL0     H45102   9.051   1.737  -1.037 -0.8916  0.2678 -0.9876
  342MOL0     H45103   9.099   1.570  -1.012  3.1643  1.3946 -2.0980
  342MOL0     H45104   8.892   1.637  -1.218 -1.6958  0.2323  2.1021
  342MOL0     H45105   8.934   1.479  -1.173  1.3801 -1.2061 -0.9223
  342MOL0     H45106   9.237   1.568  -1.446  0.1872  1.2348  0.5063
  342MOL0     H45107   9.315   1.745  -1.595 -0.8719 -0.8395 -0.4914
  342MOL0     H45108   9.124   1.962  -1.971 -0.4403  0.8748  0.0971
  342MOL0     H45109   9.183   2.107  -2.157  3.7820 -0.7087 -2.7451
  342MOL0     H45110   9.290   2.422  -2.197  0.8354  0.7263  0.8898
  342MOL0     H45111   9.282   2.278  -2.296  0.0346 -0.5162  3.1124
  342MOL0     H45112   9.503   2.484  -2.331 -0.6195 -0.7940  0.4934
  342MOL0     H45113   9.370   2.442  -2.441  1.6416 -1.1980 -1.5811
  342MOL0     H45114   9.472   2.215  -2.469 -0.5395 -0.0090 -0.0208
  342MOL0     H45115   9.586   2.253  -2.337  2.7720 -0.6190 -2.5777
  342MOL0     H45116   9.563   2.341  -2.624  1.7068 -0.1857  0.6541
  342MOL0     H45117   9.656   2.443  -2.503  2.5834 -0.3792 -1.5894
  342MOL0     H45118   9.788   2.297  -2.642 -1.1418 -3.1439 -1.7924
  342MOL0     H45119   9.716   2.160  -2.559 -1.7045  0.0706 -2.7741
  342MOL0     H45120   9.804   2.246  -2.340  2.1677 -0.8951  0.9686
  342MOL0     H45121   9.870   2.384  -2.435  2.5690 -0.0917 -0.5258
  342MOL0     H45122   9.924   2.095  -2.492  0.2845 -0.1322 -0.3011
  342MOL0     H45123  10.000   2.240  -2.565  2.6637  0.6940  1.2293
  342MOL0     H45124  10.143   2.138  -2.392  1.5949  1.9205 -0.1896
  342MOL0     H45125  10.021   2.193  -2.269  1.7133 -0.0787  0.9427
  342MOL0     H45126   9.518   2.256  -1.912 -1.3762  1.6399  0.2454
  342MOL0     H45127   9.442   2.096  -1.739 -0.0412 -0.6025  0.2865
  342MOL0     H45128   9.053   2.016  -1.416  2.1322  1.2651  0.5021
  342MOL0     H45129   8.993   1.841  -1.241 -2.9957 -0.0598 -4.2919
  342MOL0     H45130   8.557   2.732  -0.117 -0.3793  0.9755 -3.0227
  342MOL0     H45131   8.523   2.920   0.049  1.1610  0.0148 -3.5045
  342MOL0     H45132   8.298   3.082   0.508  3.6011  0.4047  1.1161
  342MOL0     H45133   8.253   3.317   0.628 -0.0316  1.2279 -0.2490
  342MOL0     H45134   8.214   3.712   0.357  1.9121  1.3086 -1.1475
  342MOL0     H45135   8.384   3.666   0.368  1.0726 -0.2555  2.2839
  342MOL0     H45136   8.344   3.856   0.457 -1.4685 -0.4911 -0.2411
  342MOL0     H45137   8.210   3.803   0.561 -0.6269 -0.7676 -0.5028
  342MOL0     H45138   8.501   3.703   0.587 -1.3709 -3.8501  1.2529
  342MOL0     H45139   8.372   3.668   0.695  0.2117 -1.1658 -0.4875
  342MOL0     H45140   8.361   3.932   0.732 -1.4480 -1.9835  0.3265
  342MOL0     H45141   8.514   3.850   0.786  1.1570 -3.2566 -1.8066
  342MOL0     H45142   8.652   4.101   0.458  0.0339 -1.1775 -2.1132
  342MOL0     H45143   8.304   3.495   0.248 -0.5265 -1.7220 -1.2309
  342MOL0     H45144   8.314   3.281   0.146 -2.8473  0.0076  0.8860
  343MOL0     O45145   7.364   8.227   4.074  0.2001 -0.2285 -0.9162
  343MOL0     C45146   7.395   8.296   3.984  0.0254 -1.1181 -0.3144
  343MOL0     O45147   7.346   8.289   3.857 -0.5803  0.8296  0.4785
  343MOL0     C45148   7.248   8.195   3.846 -0.3858 -0.7135 -0.1185
  343MOL0     C45149   7.113   8.237   3.835 -0.2201  0.7404 -0.2439
  343MOL0     C45150   7.023   8.147   3.794 -0.4547  0.1474 -0.6925
  343MOL0     C45151   7.047   8.017   3.772  0.5391  1.4854 -1.8185
  343MOL0     O45152   6.943   7.935   3.728  0.1358  0.3248  0.4246
  343MOL0     C45153   6.980   7.808   3.671 -0.0406  0.2840 -0.0462
  343MOL0     C45154   6.857   7.725   3.622  0.4680  0.1951 -0.4146
  343MOL0     C45155   6.783   7.665   3.735  0.5012  0.7939 -0.5212
  343MOL0     C45156   6.653   7.596   3.687  0.5704  0.4906 -0.7881
  343MOL0     C45157   6.691   7.477   3.598 -0.0028 -0.1652  0.4318
  343MOL0     C45158   6.586   7.379   3.557 -0.9062  0.6861 -0.5459
  343MOL0     C45159   6.489   7.454   3.456  0.3226  0.0818 -0.3661
  343MOL0     C45160   6.350   7.373   3.472  0.2736 -0.0802  0.4543
  343MOL0     N45161   6.250   7.432   3.375 -0.0771 -0.2280  0.8970
  343MOL0     C45162   6.265   7.420   3.237 -0.0960  0.8702  0.0858
  343MOL0     C45163   6.147   7.470   3.192  1.2329  0.2882 -0.1528
  343MOL0     C45164   6.090   7.471   3.058 -0.7162  0.9664  0.7380
  343MOL0     C45165   6.032   7.338   3.025  0.5306  0.8624 -0.7101
  343MOL0     C45166   5.986   7.332   2.879 -0.5458 -0.6418 -0.9023
  343MOL0     C45167   5.924   7.192   2.858 -0.4658 -0.0385 -0.0152
  343MOL0     O45168   6.020   7.085   2.875  0.0039  0.5294 -0.6782
  343MOL0     C45169   5.979   6.963   2.845 -0.0716  0.7780 -0.2343
  343MOL0     C45170   6.036   6.859   2.916  0.2411 -1.4068 -1.5260
  343MOL0     C45171   5.991   6.722   2.888  0.0600  0.3630  0.8163
  343MOL0     C45172   5.905   6.689   2.781  0.3520 -0.4408  0.5120
  343MOL0     C45173   5.869   6.553   2.739 -0.6635 -0.6661 -0.3104
  343MOL0     O45174   5.833   6.537   2.616 -0.1289 -0.5995  0.2995
  343MOL0     C45175   5.777   6.425   2.567  0.0548  0.3529  0.6921
  343MOL0     C45176   5.673   6.355   2.633  0.1284 -0.8649  0.6444
  343MOL0     C45177   5.608   6.247   2.584 -0.0518  0.6048  0.2210
  343MOL0     C45178   5.644   6.188   2.462  0.2546 -0.3906  0.2028
  343MOL0     O45179   5.573   6.071   2.428 -0.0103  0.2701 -0.3283
  343MOL0     C45180   5.598   6.011   2.303  0.4120  0.0942  0.2372
  343MOL0     C45181   5.537   6.084   2.189  0.1538  0.1647  0.2095
  343MOL0     C45182   5.390   6.055   2.167 -0.1929  0.0188  0.1095
  343MOL0     C45183   5.317   6.137   2.064  1.4632  0.5677  0.6212
  343MOL0     C45184   5.182   6.068   2.000 -0.3310 -0.0360 -0.0416
  343MOL0     C45185   5.197   5.938   1.922  0.3973  0.1641 -0.7302
  343MOL0     C45186   5.063   5.887   1.870  0.3963 -0.1323 -0.5547
  343MOL0     C45187   5.008   5.980   1.764  0.8767 -0.1207 -0.3415
  343MOL0    Cl45188   5.123   6.059   1.645 -0.2133 -0.1546  0.3843
  343MOL0     C45189   5.746   6.258   2.387 -0.0814 -0.4233 -0.0274
  343MOL0     C45190   5.805   6.383   2.437  0.0348  0.6784 -0.0473
  343MOL0     O45191   5.856   6.468   2.824  1.5228 -0.3602  0.2621
  343MOL0     C45192   5.854   6.805   2.706 -0.4505  1.3540 -0.8893
  343MOL0     C45193   5.894   6.934   2.734 -0.2842  0.4899 -0.4562
  343MOL0     N45194   6.086   7.528   3.292  0.9443 -0.2908  0.0486
  343MOL0     N45195   6.144   7.503   3.408 -0.3855 -0.0992  0.3559
  343MOL0     C45196   7.179   7.959   3.794  0.2296 -0.5796 -0.1558
  343MOL0     C45197   7.273   8.062   3.821  0.0519 -0.4763 -0.1819
  343MOL0     C45198   7.505   8.398   4.007  0.0151 -1.0259 -0.5361
  343MOL0     C45199   7.544   8.428   4.137 -0.6781 -0.9065  0.3843
  343MOL0     C45200   7.648   8.507   4.163  0.6724 -0.3822 -0.0068
  343MOL0     C45201   7.720   8.575   4.055 -0.3207  1.0248 -0.0670
  343MOL0     O45202   7.833   8.656   4.073  0.1108 -0.1263 -0.4634
  343MOL0     C45203   7.882   8.659   4.209 -0.8803  0.7113  0.6259
  343MOL0     C45204   8.005   8.762   4.219  0.3531  0.6647  0.2029
  343MOL0     C45205   7.953   8.901   4.192 -0.1605  0.3100 -0.2444
  343MOL0     C45206   8.067   9.001   4.213 -0.6090  0.0641  0.6858
  343MOL0     C45207   8.034   9.140   4.194  1.0710 -0.3057 -0.3019
  343MOL0     C45208   7.978   9.246   4.176  0.1693  0.0546  0.6841
  343MOL0     C45209   7.675   8.555   3.922  0.5076  0.8484 -1.0095
  343MOL0     C45210   7.567   8.468   3.909  0.9300  0.4132 -0.4316
  343MOL0     H45211   7.093   8.341   3.860 -0.3091  0.4483  0.9759
  343MOL0     H45212   6.919   8.177   3.785  0.0330  2.2081 -0.0583
  343MOL0     H45213   7.042   7.758   3.745  3.9063 -0.4773 -3.4581
  343MOL0     H45214   7.040   7.819   3.580 -1.3756 -0.1601 -1.0240
  343MOL0     H45215   6.902   7.657   3.549  1.8569 -0.8766  1.3824
  343MOL0     H45216   6.787   7.793   3.572  0.3105 -0.3426 -0.9426
  343MOL0     H45217   6.757   7.747   3.803 -1.7317 -0.0044 -0.3343
  343MOL0     H45218   6.848   7.605   3.800  0.5143  2.6787  1.3109
  343MOL0     H45219   6.588   7.561   3.768  3.7758  1.1238  2.3019
  343MOL0     H45220   6.594   7.664   3.625 -2.0270 -3.5290 -3.2307
  343MOL0     H45221   6.781   7.428   3.635  1.7372  3.5811  1.6746
  343MOL0     H45222   6.720   7.523   3.502 -0.5844 -3.0254 -1.2215
  343MOL0     H45223   6.526   7.348   3.643  1.3716 -1.4183  0.4017
  343MOL0     H45224   6.632   7.291   3.512 -0.7512 -1.2259  3.0302
  343MOL0     H45225   6.486   7.563   3.459 -4.0094  0.1762 -1.4601
  343MOL0     H45226   6.510   7.428   3.352 -0.4950 -2.4436  0.0224
  343MOL0     H45227   6.310   7.382   3.574  1.5895  4.4770  0.7833
  343MOL0     H45228   6.365   7.265   3.459 -2.3109 -0.5406  0.8218
  343MOL0     H45229   6.345   7.371   3.182 -0.7376 -0.0103 -0.0773
  343MOL0     H45230   6.176   7.478   2.990  0.9478 -2.4559  2.2571
  343MOL0     H45231   6.021   7.552   3.031 -1.9661 -1.2390 -3.5946
  343MOL0     H45232   5.951   7.316   3.095  1.1369 -1.9594 -0.7536
  343MOL0     H45233   6.112   7.268   3.050 -1.3912 -0.8146  1.1208
  343MOL0     H45234   5.907   7.407   2.868  1.0274  1.0190 -1.2283
  343MOL0     H45235   6.069   7.356   2.813  0.1428  0.7822  0.4109
  343MOL0     H45236   5.873   7.183   2.762  1.7522 -0.4545 -1.1970
  343MOL0     H45237   5.842   7.181   2.930  0.8645 -0.2240  1.5313
  343MOL0     H45238   6.080   6.887   3.011 -3.0315 -0.3936 -0.1690
  343MOL0     H45239   6.024   6.654   2.965  0.5534  0.3448  0.5921
  343MOL0     H45240   5.647   6.398   2.730 -1.6830  0.4197 -0.3510
  343MOL0     H45241   5.521   6.214   2.641  0.5487  0.4439  1.0722
  343MOL0     H45242   5.542   5.917   2.316 -0.2361  0.5054  0.4713
  343MOL0     H45243   5.703   5.981   2.294  0.0800 -1.5320  1.3585
  343MOL0     H45244   5.587   6.057   2.095 -1.3444 -0.6197 -0.3995
  343MOL0     H45245   5.542   6.192   2.204 -0.8262  0.2648 -0.0738
  343MOL0     H45246   5.349   6.076   2.266  3.2171 -0.8746  1.8627
  343MOL0     H45247   5.380   5.952   2.129  0.6228  1.0772 -3.3631
  343MOL0     H45248   5.278   6.233   2.099 -5.0076 -1.8129  1.4312
  343MOL0     H45249   5.392   6.156   1.987  1.9055 -0.2486  0.8408
  343MOL0     H45250   5.129   6.135   1.933 -2.1668 -1.2658  0.1186
  343MOL0     H45251   5.108   6.051   2.078 -2.3546 -0.3390 -1.9070
  343MOL0     H45252   5.242   5.862   1.987  2.7386  0.9962 -1.2827
  343MOL0     H45253   5.268   5.953   1.840 -0.2146 -1.9977 -1.7303
  343MOL0     H45254   5.084   5.787   1.830  0.1165 -0.8128  0.9292
  343MOL0     H45255   5.002   5.891   1.961  0.7272 -2.4434 -0.1642
  343MOL0     H45256   4.948   6.056   1.816 -0.2249 -1.5417  0.5329
  343MOL0     H45257   4.943   5.919   1.701 -1.9453  2.3436 -0.0741
  343MOL0     H45258   5.776   6.221   2.289 -0.9970 -4.9528  1.1420
  343MOL0     H45259   5.879   6.430   2.373  1.8061 -2.4330 -0.4540
  343MOL0     H45260   5.783   6.793   2.625 -0.7390  0.8997 -0.5811
  343MOL0     H45261   5.854   7.012   2.670  0.3937  1.2635  0.0430
  343MOL0     H45262   7.218   7.859   3.782 -0.1393 -0.5259 -2.3497
  343MOL0     H45263   7.379   8.046   3.836  0.0504  1.0017  1.7891
  343MOL0     H45264   7.475   8.395   4.214  0.0075  0.9537  1.8646
  343MOL0     H45265   7.668   8.531   4.267  2.7086  1.7349 -0.7859
  343MOL0     H45266   7.921   8.560   4.234 -0.7364  0.9577  1.4069
  343MOL0     H45267   7.803   8.676   4.283 -2.2944 -3.2961  0.2846
  343MOL0     H45268   8.065   8.745   4.308 -0.7242 -1.2800  0.6134
  343MOL0     H45269   8.073   8.733   4.138  0.4948 -0.0639  0.5759
  343MOL0     H45270   7.868   8.930   4.255 -0.3856  1.2871 -0.9569
  343MOL0     H45271   7.916   8.906   4.089  0.0008  0.8553 -0.2801
  343MOL0     H45272   8.128   8.993   4.303  0.4100  0.6152  0.0583
  343MOL0     H45273   8.144   8.977   4.140  1.4326  3.2237  1.6170
  343MOL0     H45274   7.908   9.323   4.151  0.1543 -0.2141 -0.1187
  343MOL0     H45275   7.725   8.603   3.838 -1.2412  2.7616 -1.0372
  343MOL0     H45276   7.515   8.448   3.815 -0.9656  0.3875  0.5748
  344MOL0     O45277   9.574   1.733   4.174  0.1619  1.1404  0.5170
  344MOL0     C45278   9.679   1.783   4.163 -1.8105  0.1160 -0.1887
  344MOL0     O45279   9.781   1.746   4.077  0.0260 -0.4214 -0.0334
  344MOL0     C45280   9.746   1.668   3.970  1.0179 -0.3176 -0.2119
  344MOL0     C45281   9.803   1.711   3.856 -0.4392 -0.6314 -0.0844
  344MOL0     C45282   9.798   1.636   3.737  0.3307 -0.8924  0.4437
  344MOL0     C45283   9.715   1.523   3.728 -0.0968  0.5348 -0.3247
  344MOL0     O45284   9.689   1.455   3.607 -0.7066 -0.9502 -0.5442
  344MOL0     C45285   9.643   1.539   3.505  0.9291  0.5348  0.2876
  344MOL0     C45286   9.597   1.462   3.383  0.0688 -0.4988  0.0187
  344MOL0     C45287   9.541   1.565   3.292  0.2755  0.6573  0.6290
  344MOL0     C45288   9.482   1.496   3.159 -0.1348  0.6701  1.0264
  344MOL0     C45289   9.567   1.387   3.089  1.3019 -0.6525  0.3153
  344MOL0     C45290   9.672   1.445   2.999 -0.3679  0.4872 -0.2957
  344MOL0     C45291   9.635   1.503   2.861 -0.1858  0.9165 -0.8246
  344MOL0     C45292   9.540   1.431   2.755 -0.2038 -0.8260 -0.3193
  344MOL0     N45293   9.406   1.398   2.807  0.2874  0.5280 -0.0882
  344MOL0     C45294   9.351   1.278   2.845  0.0894  1.2721 -0.5977
  344MOL0     C45295   9.222   1.301   2.883 -0.0187  0.3603 -0.8080
  344MOL0     C45296   9.122   1.201   2.929 -0.6100  0.8990 -0.9693
  344MOL0     C45297   9.033   1.148   2.819 -0.2178 -0.6137  0.4648
  344MOL0     C45298   9.105   1.044   2.739  0.2995  0.2750  0.2906
  344MOL0     C45299   9.012   0.984   2.624 -0.9251 -0.3642  0.0731
  344MOL0     O45300   8.885   0.923   2.648  0.4298 -0.3994 -0.7098
  344MOL0     C45301   8.878   0.787   2.673 -0.5233 -0.2312 -0.3339
  344MOL0     C45302   8.951   0.723   2.774 -0.1380 -0.5603 -0.1252
  344MOL0     C45303   8.960   0.592   2.787 -0.6319 -0.2249  0.1370
  344MOL0     C45304   8.896   0.504   2.690 -0.1667 -0.5721  0.2989
  344MOL0     C45305   8.903   0.352   2.706 -0.6016  0.0920 -0.7908
  344MOL0     O45306   8.984   0.302   2.791 -0.6709 -0.0390  0.5482
  344MOL0     C45307   8.964   0.166   2.827 -0.3640 -0.4239 -0.5037
  344MOL0     C45308   9.066   0.082   2.856 -0.5182  0.5707 -0.1562
  344MOL0     C45309   9.062  -0.056   2.886  0.5337 -1.1348 -0.2654
  344MOL0     C45310   8.931  -0.116   2.907  1.5381 -0.0687 -0.6596
  344MOL0     O45311   8.911  -0.248   2.942 -0.5719 -0.1168  0.6682
  344MOL0     C45312   8.778  -0.299   2.956 -0.4088 -0.9610  0.3839
  344MOL0     C45313   8.738  -0.275   3.108 -1.3973 -0.2930  0.0633
  344MOL0     C45314   8.591  -0.298   3.133 -0.0662  0.6887  0.5473
  344MOL0     C45315   8.571  -0.306   3.282 -0.3226  0.2845  0.5087
  344MOL0     C45316   8.629  -0.193   3.374 -0.7484 -0.2488 -0.1326
  344MOL0     C45317   8.589  -0.048   3.338 -0.5295  0.9918 -0.0643
  344MOL0     C45318   8.429  -0.038   3.329 -0.4571 -0.5202  0.0914
  344MOL0     C45319   8.390   0.082   3.418 -0.6851 -0.6131  0.8294
  344MOL0    Cl45320   8.476   0.234   3.364  0.3439  0.0431  0.1290
  344MOL0     C45321   8.827  -0.026   2.894  1.4968  0.4712  0.1171
  344MOL0     C45322   8.836   0.107   2.858 -0.0840  0.0310  0.0602
  344MOL0     O45323   8.821   0.291   2.645  1.0249  0.0164  0.3459
  344MOL0     C45324   8.803   0.565   2.601  0.0697  0.0959  0.4164
  344MOL0     C45325   8.798   0.706   2.600  0.6739 -0.3895  0.2455
  344MOL0     N45326   9.218   1.446   2.892  0.7803  0.0158  0.5385
  344MOL0     N45327   9.329   1.497   2.846  0.0554 -0.5503 -0.8335
  344MOL0     C45328   9.654   1.474   3.846  0.4423  0.4852  0.0776
  344MOL0     C45329   9.678   1.547   3.964 -0.1106  0.0624  0.4760
  344MOL0     C45330   9.714   1.897   4.263 -1.0608  0.1129  0.5409
  344MOL0     C45331   9.613   1.950   4.340  0.6631 -0.7046  0.9015
  344MOL0     C45332   9.636   2.046   4.432  1.1598  0.9153  1.2332
  344MOL0     C45333   9.763   2.089   4.453  0.1043  0.6058 -0.0020
  344MOL0     O45334   9.779   2.186   4.549  1.0441 -0.5558 -0.8725
  344MOL0     C45335   9.904   2.249   4.579  0.1323  0.2129  0.2376
  344MOL0     C45336  10.007   2.157   4.654  0.1396 -0.4638 -0.3678
  344MOL0     C45337  10.123   2.230   4.703 -0.6503 -0.8323 -0.1138
  344MOL0     C45338  10.223   2.235   4.585 -0.1472  0.0100 -0.4952
  344MOL0     C45339  10.342   2.309   4.640  0.5544  0.1730 -0.9365
  344MOL0     C45340  10.427   2.377   4.696 -0.0547 -0.3054 -0.2549
  344MOL0     C45341   9.873   2.032   4.389  0.9687 -0.4916 -0.5118
  344MOL0     C45342   9.845   1.934   4.286 -0.3478  0.7597 -0.6073
  344MOL0     H45343   9.852   1.808   3.861 -0.3417 -0.4382 -3.0977
  344MOL0     H45344   9.839   1.682   3.648 -1.3169  0.9549  0.5614
  344MOL0     H45345   9.709   1.623   3.481 -2.8488  3.4002 -1.0364
  344MOL0     H45346   9.555   1.584   3.552 -0.1531 -0.0484 -1.0906
  344MOL0     H45347   9.522   1.388   3.413 -2.3233  2.5302  2.1514
  344MOL0     H45348   9.693   1.423   3.347  1.2272  0.6516  1.7023
  344MOL0     H45349   9.619   1.634   3.259  0.2362 -1.3557 -4.7042
  344MOL0     H45350   9.456   1.610   3.345  0.6782  1.4701  0.5925
  344MOL0     H45351   9.387   1.446   3.183 -0.7795  1.4805  0.2311
  344MOL0     H45352   9.452   1.569   3.083 -1.8146  0.3474  1.3349
  344MOL0     H45353   9.505   1.320   3.028  1.6744 -0.7566  0.0543
  344MOL0     H45354   9.616   1.333   3.171  4.7061  3.5045  1.3611
  344MOL0     H45355   9.742   1.364   2.975  0.9653  2.5267 -4.0660
  344MOL0     H45356   9.740   1.513   3.051 -0.0587 -1.0713  1.4584
  344MOL0     H45357   9.586   1.597   2.890  1.3115  1.5925 -0.4062
  344MOL0     H45358   9.724   1.541   2.809  3.0001 -1.6222  2.3183
  344MOL0     H45359   9.576   1.332   2.728 -0.4379 -0.3487 -2.5177
  344MOL0     H45360   9.541   1.497   2.668 -1.6931 -0.2413  0.0850
  344MOL0     H45361   9.402   1.182   2.841 -1.7817  0.1474  0.8535
  344MOL0     H45362   9.050   1.248   2.997  0.6882  1.1466  0.2853
  344MOL0     H45363   9.178   1.126   2.986 -1.1690  1.3449  0.2129
  344MOL0     H45364   9.004   1.234   2.757  0.2478 -1.3852 -0.8569
  344MOL0     H45365   8.941   1.104   2.858  1.4444 -2.0162  3.1067
  344MOL0     H45366   9.190   1.091   2.689  0.5730  0.0138  0.5030
  344MOL0     H45367   9.147   0.969   2.807 -1.0690 -3.2445 -2.4262
  344MOL0     H45368   9.078   0.911   2.577  0.3579 -0.5694  2.0636
  344MOL0     H45369   8.991   1.050   2.540 -3.7418 -2.6795 -1.2366
  344MOL0     H45370   9.002   0.790   2.843 -0.0736  0.4630 -1.1337
  344MOL0     H45371   9.025   0.552   2.864  1.5492  3.0854  0.1963
  344MOL0     H45372   9.163   0.118   2.824 -0.9582  1.9727  0.0426
  344MOL0     H45373   9.153  -0.115   2.893  1.4212 -0.1077 -2.3854
  344MOL0     H45374   8.792  -0.408   2.956 -1.1451 -1.0558  0.3330
  344MOL0     H45375   8.703  -0.278   2.880  0.1389  3.3568  0.7721
  344MOL0     H45376   8.759  -0.170   3.130  1.2025 -0.5090 -1.1022
  344MOL0     H45377   8.798  -0.342   3.170 -1.7961 -1.1444 -0.4433
  344MOL0     H45378   8.555  -0.388   3.082  0.8397  0.2773  0.6173
  344MOL0     H45379   8.535  -0.208   3.103 -0.9332 -0.4614 -1.4660
  344MOL0     H45380   8.465  -0.311   3.306 -0.1891  0.8561  1.2599
  344MOL0     H45381   8.620  -0.400   3.310  0.6624  0.7956  0.5772
  344MOL0     H45382   8.738  -0.196   3.380 -0.4113  3.1373 -1.8063
  344MOL0     H45383   8.590  -0.214   3.474  0.4987  1.6402  0.8285
  344MOL0     H45384   8.636  -0.025   3.242  3.7836 -0.4470  1.4743
  344MOL0     H45385   8.622   0.009   3.426  0.2904 -0.6148  0.7134
  344MOL0     H45386   8.398  -0.029   3.225 -3.4413  1.8729  1.0385
  344MOL0     H45387   8.382  -0.132   3.358  0.3997 -1.1508 -0.5272
  344MOL0     H45388   8.421   0.067   3.522  1.1611  0.5750  0.5013
  344MOL0     H45389   8.285   0.114   3.416 -0.9111 -1.2171 -2.6857
  344MOL0     H45390   8.724  -0.058   2.907  1.8077 -1.4679 -1.5929
  344MOL0     H45391   8.741   0.154   2.836  0.9227  1.2897 -1.9623
  344MOL0     H45392   8.749   0.504   2.529  0.8833 -5.6384  4.0076
  344MOL0     H45393   8.749   0.761   2.520  2.4536 -1.0892 -1.3685
  344MOL0     H45394   9.585   1.391   3.840  0.0962  0.5762  2.0835
  344MOL0     H45395   9.645   1.519   4.064 -1.7599 -0.2007 -0.1138
  344MOL0     H45396   9.510   1.916   4.325  0.6110 -0.4808  0.7479
  344MOL0     H45397   9.548   2.082   4.483 -0.7349  1.1181 -1.9434
  344MOL0     H45398   9.870   2.328   4.647  0.3956  0.5569 -0.0288
  344MOL0     H45399   9.944   2.281   4.482 -0.8930 -0.6425 -0.4893
  344MOL0     H45400   9.957   2.105   4.736  3.9833 -0.7707  2.0527
  344MOL0     H45401  10.032   2.067   4.597 -2.4688 -1.8365  0.4725
  344MOL0     H45402  10.172   2.173   4.783 -0.0967 -3.3440 -2.1052
  344MOL0     H45403  10.097   2.328   4.742 -1.7647 -1.2151  0.1446
  344MOL0     H45404  10.256   2.134   4.560 -1.3782 -0.3851 -0.5964
  344MOL0     H45405  10.188   2.295   4.501 -0.1981  4.0703  2.1201
  344MOL0     H45406  10.507   2.426   4.748 -1.5663  0.9476  1.0489
  344MOL0     H45407   9.977   2.059   4.402  1.0620 -1.0184 -0.1327
  344MOL0     H45408   9.934   1.898   4.237 -0.3630  1.7764 -1.3982
  345MOL0     O45409   6.232   1.848   6.380 -0.1137 -0.5680  0.3713
  345MOL0     C45410   6.245   1.765   6.475  0.3350 -0.0687  0.1020
  345MOL0     O45411   6.182   1.648   6.485 -0.0571 -0.1872 -0.5326
  345MOL0     C45412   6.088   1.592   6.403 -0.0165  0.6477  0.0965
  345MOL0     C45413   6.048   1.466   6.441 -0.2783 -0.0630  0.8002
  345MOL0     C45414   5.960   1.386   6.365  0.6633  0.1273  0.8447
  345MOL0     C45415   5.905   1.447   6.241  0.0301 -0.1791 -0.6935
  345MOL0     O45416   5.822   1.377   6.157 -0.8784  0.2000 -0.1239
  345MOL0     C45417   5.685   1.416   6.189  0.4825 -0.0045 -0.6842
  345MOL0     C45418   5.607   1.348   6.081  0.4035  0.0346 -0.2472
  345MOL0     C45419   5.608   1.195   6.090  0.2134 -0.8789  0.1645
  345MOL0     C45420   5.554   1.143   6.229  0.9035 -0.0166  0.0460
  345MOL0     C45421   5.546   0.992   6.221 -0.3874  0.1586  0.1078
  345MOL0     C45422   5.424   0.932   6.159 -0.2830 -0.1179 -1.2677
  345MOL0     C45423   5.407   0.787   6.171 -0.5266  1.7182 -0.1349
  345MOL0     C45424   5.504   0.694   6.096  0.8687  0.3906  0.7010
  345MOL0     N45425   5.514   0.729   5.950  0.1254 -0.3435 -0.3502
  345MOL0     C45426   5.621   0.794   5.887  0.1887  0.4494 -0.0965
  345MOL0     C45427   5.574   0.851   5.771  0.3909 -0.2690 -0.0605
  345MOL0     C45428   5.641   0.942   5.679  0.0628  0.2974  0.5472
  345MOL0     C45429   5.661   1.083   5.730  0.8672 -0.2650 -0.8020
  345MOL0     C45430   5.731   1.163   5.620 -0.3652 -0.4733 -1.0850
  345MOL0     C45431   5.740   1.313   5.648 -0.6728 -0.0099  0.3199
  345MOL0     O45432   5.831   1.350   5.754 -0.1835 -0.7679 -0.4299
  345MOL0     C45433   5.960   1.331   5.731 -0.7850 -0.8432 -0.7134
  345MOL0     C45434   6.024   1.300   5.611  0.0242 -0.8163 -1.1670
  345MOL0     C45435   6.164   1.289   5.611 -0.8206  0.0147 -0.5801
  345MOL0     C45436   6.236   1.300   5.734  0.0808  0.7772  0.2071
  345MOL0     C45437   6.383   1.280   5.731 -0.3616 -0.1968  0.8097
  345MOL0     O45438   6.433   1.209   5.624  0.7108 -0.2485  0.5459
  345MOL0     C45439   6.560   1.153   5.643 -0.1904  0.3930 -0.1913
  345MOL0     C45440   6.572   1.034   5.716 -0.5243 -0.0550  0.1362
  345MOL0     C45441   6.696   0.979   5.743 -0.5243  0.4097  0.9354
  345MOL0     C45442   6.810   1.047   5.706 -0.5756  0.2977 -0.2343
  345MOL0     O45443   6.922   0.973   5.754  0.1507 -0.6236  0.1119
  345MOL0     C45444   7.058   1.023   5.718 -0.0961 -0.3158  0.4617
  345MOL0     C45445   7.160   0.922   5.785  1.4349  0.1555 -0.5224
  345MOL0     C45446   7.299   0.966   5.750 -0.3071 -0.0844  0.2411
  345MOL0     C45447   7.393   0.856   5.802  0.4123  0.6245  0.7778
  345MOL0     C45448   7.531   0.878   5.761 -0.0715  0.3976 -0.1742
  345MOL0     C45449   7.620   0.766   5.819  0.4992  0.4635 -1.1508
  345MOL0     C45450   7.632   0.776   5.979 -0.6587  0.4782 -0.9256
  345MOL0     C45451   7.651   0.645   6.055 -0.7824 -1.1033 -0.0457
  345MOL0    Cl45452   7.508   0.558   6.018 -0.0552 -0.3505 -0.3114
  345MOL0     C45453   6.802   1.165   5.639  0.4132  0.5826 -0.5649
  345MOL0     C45454   6.681   1.212   5.607  1.1265  0.0989  0.3081
  345MOL0     O45455   6.447   1.326   5.827 -0.0658  0.1516  0.7390
  345MOL0     C45456   6.160   1.323   5.851  0.2449  0.5048  1.1138
  345MOL0     C45457   6.031   1.337   5.850 -0.2728 -0.3619 -0.0283
  345MOL0     N45458   5.438   0.808   5.762 -0.5846 -0.5164  0.3854
  345MOL0     N45459   5.409   0.733   5.869 -0.9112  0.4174  0.0926
  345MOL0     C45460   5.950   1.573   6.202 -0.1440 -0.3583 -0.0709
  345MOL0     C45461   6.036   1.645   6.289 -0.2519  0.4117  0.1626
  345MOL0     C45462   6.322   1.809   6.586  0.0096  0.4586  0.1708
  345MOL0     C45463   6.390   1.932   6.588 -0.1459 -0.0020 -0.4157
  345MOL0     C45464   6.472   1.966   6.704  0.8176  0.2967  0.3744
  345MOL0     C45465   6.485   1.867   6.815 -1.2481  0.0897  0.2452
  345MOL0     O45466   6.561   1.882   6.927 -0.4608 -0.2762 -0.0643
  345MOL0     C45467   6.635   2.004   6.944 -1.8138 -0.4338 -0.8187
  345MOL0     C45468   6.737   1.970   7.065  0.4704  0.6629  0.1390
  345MOL0     C45469   6.860   1.895   7.014  1.2367  0.0364 -0.5091
  345MOL0     C45470   6.959   1.998   6.957  0.4860 -0.0334  0.5723
  345MOL0     C45471   6.986   1.999   6.816  0.7719  1.4118  0.3848
  345MOL0     C45472   7.020   2.003   6.700 -0.1034 -1.2016  0.1026
  345MOL0     C45473   6.417   1.750   6.804 -0.3514  0.0874 -0.2694
  345MOL0     C45474   6.333   1.721   6.701  0.5523 -0.1148  0.4470
  345MOL0     H45475   6.086   1.425   6.534  3.2821  2.4028  0.6169
  345MOL0     H45476   5.922   1.285   6.376 -0.3475  0.0276 -2.4283
  345MOL0     H45477   5.667   1.524   6.187 -1.7914 -0.1729  2.8773
  345MOL0     H45478   5.664   1.383   6.291  4.0831 -0.5538  0.0382
  345MOL0     H45479   5.657   1.390   5.993  2.7462 -0.0161  0.9774
  345MOL0     H45480   5.507   1.394   6.080  0.1161 -0.3805  2.4578
  345MOL0     H45481   5.709   1.154   6.083 -0.3250 -2.3871  0.7123
  345MOL0     H45482   5.546   1.150   6.012 -0.5053 -2.7541  1.7204
  345MOL0     H45483   5.620   1.179   6.308  1.3740 -2.1951  0.7116
  345MOL0     H45484   5.454   1.182   6.250  1.5921  1.8936 -0.0478
  345MOL0     H45485   5.550   0.947   6.320 -1.5324  2.2119  1.1347
  345MOL0     H45486   5.634   0.955   6.167 -0.8862 -0.1678 -0.5032
  345MOL0     H45487   5.426   0.952   6.051 -0.9397 -2.4846 -1.7655
  345MOL0     H45488   5.341   0.982   6.209 -0.0689  0.7229 -1.7282
  345MOL0     H45489   5.421   0.759   6.276  0.9434 -0.9385 -0.9310
  345MOL0     H45490   5.301   0.767   6.150 -1.4736  3.2909  2.6663
  345MOL0     H45491   5.470   0.591   6.107 -2.0419  1.0435 -1.0421
  345MOL0     H45492   5.603   0.712   6.139  0.9731  2.9558 -0.3908
  345MOL0     H45493   5.718   0.813   5.932  0.2029  2.1411 -0.7797
  345MOL0     H45494   5.591   0.949   5.582  0.5188  1.6768  0.3932
  345MOL0     H45495   5.739   0.900   5.655  0.3331  1.7597 -1.1106
  345MOL0     H45496   5.730   1.071   5.813  2.2110 -0.5447 -1.9297
  345MOL0     H45497   5.574   1.136   5.772  0.7048 -0.3886 -0.9796
  345MOL0     H45498   5.832   1.127   5.598 -0.7080 -0.7092 -2.3389
  345MOL0     H45499   5.676   1.151   5.526  0.9479 -4.0032 -1.5854
  345MOL0     H45500   5.643   1.350   5.681 -0.8618  1.6408 -1.8830
  345MOL0     H45501   5.759   1.371   5.557  1.5147  0.1521  0.8152
  345MOL0     H45502   5.955   1.290   5.527 -1.5081  1.3726 -0.2694
  345MOL0     H45503   6.220   1.272   5.519  0.3740 -1.3800  0.3640
  345MOL0     H45504   6.482   0.988   5.755 -0.0648 -1.3206 -0.2699
  345MOL0     H45505   6.705   0.893   5.808  1.0024  0.7073  1.1474
  345MOL0     H45506   7.077   1.125   5.752 -1.8170 -0.4972  2.0926
  345MOL0     H45507   7.065   1.028   5.609  1.4962  2.1794  0.6008
  345MOL0     H45508   7.153   0.820   5.748  0.8761 -0.0463  0.1237
  345MOL0     H45509   7.148   0.921   5.894  3.2315  0.6523 -0.2931
  345MOL0     H45510   7.330   1.060   5.797  0.3392  0.3942 -1.1033
  345MOL0     H45511   7.319   0.961   5.642  0.5309  1.2375  0.3217
  345MOL0     H45512   7.376   0.850   5.910 -3.6193  1.3865  0.3262
  345MOL0     H45513   7.354   0.761   5.765 -1.9669  0.4592  3.3403
  345MOL0     H45514   7.557   0.979   5.795 -2.4369  1.2052 -0.5825
  345MOL0     H45515   7.538   0.872   5.652 -1.4239 -0.1592 -0.2571
  345MOL0     H45516   7.719   0.762   5.771 -0.1396  2.8038 -2.8124
  345MOL0     H45517   7.559   0.677   5.799  1.7089 -0.3483 -1.3436
  345MOL0     H45518   7.734   0.810   5.999 -0.8670  0.1817  0.7044
  345MOL0     H45519   7.555   0.838   6.025 -0.8242 -0.9434  0.8293
  345MOL0     H45520   7.675   0.660   6.160 -3.0986 -2.8602  0.8019
  345MOL0     H45521   7.742   0.595   6.019  0.4123  0.1243  1.1494
  345MOL0     H45522   6.887   1.231   5.626 -0.6214  3.5769  4.6022
  345MOL0     H45523   6.661   1.316   5.583 -0.8435  0.3419  2.5766
  345MOL0     H45524   6.206   1.350   5.946  1.9900 -1.6369  0.9500
  345MOL0     H45525   5.978   1.349   5.944  0.9969 -2.1734  0.9709
  345MOL0     H45526   5.899   1.616   6.116  0.2554  0.8876  0.2926
  345MOL0     H45527   6.053   1.750   6.269 -0.4301  0.2333 -1.0037
  345MOL0     H45528   6.394   2.010   6.513  3.2557  1.3011  0.9061
  345MOL0     H45529   6.535   2.055   6.709 -1.2308  1.8517 -0.4117
  345MOL0     H45530   6.570   2.089   6.969  1.0906  2.4271 -2.3560
  345MOL0     H45531   6.689   2.023   6.851 -3.6638  1.3100 -1.6089
  345MOL0     H45532   6.769   2.056   7.125  3.1948  0.5776 -1.0245
  345MOL0     H45533   6.686   1.915   7.145 -0.4605 -1.5819 -1.8669
  345MOL0     H45534   6.834   1.828   6.932 -0.3449  1.7167 -1.4300
  345MOL0     H45535   6.903   1.843   7.100 -0.1461 -0.2364  0.0406
  345MOL0     H45536   6.920   2.098   6.979 -1.7300 -0.6602 -0.2587
  345MOL0     H45537   7.048   1.986   7.019  0.1577  0.0856  1.0694
  345MOL0     H45538   7.066   2.017   6.604 -2.2852 -0.9244 -0.9696
  345MOL0     H45539   6.433   1.688   6.892 -1.6150 -0.6249 -0.5122
  345MOL0     H45540   6.278   1.628   6.713  3.5771 -2.0740  0.1097
  346MOL0     O45541   2.783  10.081   5.641  0.4380 -0.1113 -0.2618
  346MOL0     C45542   2.810  10.196   5.615  0.1667  0.8030  0.4843
  346MOL0     O45543   2.831  10.297   5.708  0.0820  0.3653 -0.3206
  346MOL0     C45544   2.787  10.275   5.836  0.0661 -0.1086  0.0756
  346MOL0     C45545   2.653  10.299   5.878 -0.4593  0.2187  1.1284
  346MOL0     C45546   2.626  10.285   6.016  0.3967  0.1851  0.1360
  346MOL0     C45547   2.723  10.253   6.113  0.0953  0.5718  0.7090
  346MOL0     O45548   2.696  10.274   6.244 -0.6791  0.0398 -0.9635
  346MOL0     C45549   2.769  10.198   6.338  0.1722 -0.4877  0.1738
  346MOL0     C45550   2.712  10.178   6.471  0.0136 -0.2199  0.6992
  346MOL0     C45551   2.589  10.080   6.468  0.0739 -0.3561 -1.0552
  346MOL0     C45552   2.609   9.958   6.395 -0.1437 -0.1189  0.6647
  346MOL0     C45553   2.541   9.964   6.259  0.6031  0.2610  1.4751
  346MOL0     C45554   2.620   9.866   6.168 -0.4685  0.1563  0.2191
  346MOL0     C45555   2.554   9.861   6.036  0.4934  0.1137  1.4022
  346MOL0     C45556   2.649   9.859   5.911 -0.4215 -0.0042 -0.0411
  346MOL0     N45557   2.719   9.731   5.887 -0.7346 -0.2290  0.1638
  346MOL0     C45558   2.658   9.615   5.895  0.1852  0.7198  0.8574
  346MOL0     C45559   2.745   9.528   5.856 -0.0273 -0.5530  0.3395
  346MOL0     C45560   2.719   9.378   5.843 -0.5726  0.6216 -0.5395
  346MOL0     C45561   2.831   9.286   5.902  0.2681  0.6379  0.4739
  346MOL0     C45562   2.874   9.335   6.034  0.2529 -0.1575 -1.0865
  346MOL0     C45563   2.976   9.248   6.101 -0.0714 -0.1029 -0.5545
  346MOL0     O45564   2.958   9.257   6.245  0.2966 -0.8548 -0.1316
  346MOL0     C45565   2.863   9.168   6.304  0.5270 -0.1579 -0.7412
  346MOL0     C45566   2.848   9.177   6.444 -0.0764  0.5361  0.0051
  346MOL0     C45567   2.745   9.099   6.508  0.3368  0.1305 -0.7242
  346MOL0     C45568   2.659   9.013   6.432 -0.0676 -0.0644  0.1152
  346MOL0     C45569   2.558   8.930   6.503  0.3754  0.7694 -0.2072
  346MOL0     O45570   2.494   8.841   6.429 -0.4951  0.4016 -0.7747
  346MOL0     C45571   2.409   8.749   6.482 -0.7577 -0.1733 -0.2432
  346MOL0     C45572   2.274   8.771   6.485  0.1800 -0.2496 -0.8640
  346MOL0     C45573   2.196   8.675   6.557  0.1742  0.1683  1.0619
  346MOL0     C45574   2.248   8.554   6.606  0.3612 -0.2728 -0.9979
  346MOL0     O45575   2.159   8.467   6.671 -0.1895  0.2604  0.1099
  346MOL0     C45576   2.206   8.355   6.737 -0.2135 -0.2472  1.1620
  346MOL0     C45577   2.089   8.284   6.789  0.1570  0.0312  0.1293
  346MOL0     C45578   2.002   8.225   6.685  0.7534  0.0939 -0.4659
  346MOL0     C45579   1.896   8.136   6.744 -0.4500 -0.2845 -0.5350
  346MOL0     C45580   1.853   8.022   6.635  0.2694 -0.6397  0.7526
  346MOL0     C45581   1.773   8.096   6.522  0.1709  0.3460  0.1741
  346MOL0     C45582   1.700   7.979   6.440  0.0150  0.4073 -0.1787
  346MOL0     C45583   1.707   8.003   6.289  1.1218  0.0539 -0.2332
  346MOL0    Cl45584   1.650   7.852   6.196 -0.0116  0.0426 -0.2651
  346MOL0     C45585   2.382   8.537   6.588  0.2012  0.4861 -0.9423
  346MOL0     C45586   2.469   8.633   6.540 -0.1370 -0.2505  0.8901
  346MOL0     O45587   2.535   8.958   6.617  0.6625 -0.0422 -0.6745
  346MOL0     C45588   2.681   9.007   6.295 -0.4755  0.9190 -0.0473
  346MOL0     C45589   2.776   9.088   6.233  0.0800  0.5455  0.2615
  346MOL0     N45590   2.863   9.592   5.818  0.0464  0.0108 -0.4469
  346MOL0     N45591   2.850   9.718   5.846  0.4871 -0.1636 -0.3529
  346MOL0     C45592   2.851  10.215   6.069 -0.6547 -0.6078 -0.5016
  346MOL0     C45593   2.885  10.234   5.929 -0.4970  0.4715  0.9199
  346MOL0     C45594   2.810  10.227   5.472  0.8263 -0.5710 -0.1672
  346MOL0     C45595   2.780  10.133   5.374  0.2807  0.0525  0.5511
  346MOL0     C45596   2.777  10.168   5.246  0.5949 -0.5210  0.2913
  346MOL0     C45597   2.798  10.307   5.206  0.3032  0.0022 -0.9519
  346MOL0     O45598   2.813  10.361   5.081 -0.1676 -0.2357  0.6873
  346MOL0     C45599   2.765  10.298   4.961 -0.2085  0.7970 -0.3201
  346MOL0     C45600   2.787  10.386   4.844 -0.5309 -0.3956 -0.5560
  346MOL0     C45601   2.719  10.524   4.861  0.1893  0.2738  0.0025
  346MOL0     C45602   2.720  10.612   4.731  0.5062  0.7450 -1.1293
  346MOL0     C45603   2.692  10.753   4.759  0.1415  0.8948  0.2198
  346MOL0     C45604   2.672  10.871   4.770  0.4419  0.1302  0.5434
  346MOL0     C45605   2.826  10.393   5.309  0.4387 -1.4310 -0.7557
  346MOL0     C45606   2.839  10.359   5.439 -0.2166  0.6601  0.2378
  346MOL0     H45607   2.578  10.336   5.809 -1.6600 -0.5602  1.9726
  346MOL0     H45608   2.523  10.306   6.041 -0.1388 -1.4129 -0.5699
  346MOL0     H45609   2.864  10.250   6.355 -0.2502  0.7904 -1.1849
  346MOL0     H45610   2.808  10.100   6.307  1.3491 -0.5646  1.7940
  346MOL0     H45611   2.676  10.272   6.514  0.9019  1.2972 -1.6769
  346MOL0     H45612   2.786  10.130   6.537  0.6356 -1.4509 -0.8306
  346MOL0     H45613   2.488  10.115   6.442 -1.6886 -1.1138  3.8083
  346MOL0     H45614   2.584  10.059   6.575 -0.1356  1.5586 -0.6574
  346MOL0     H45615   2.715   9.928   6.395  0.1937  1.0190  1.9096
  346MOL0     H45616   2.564   9.868   6.438 -1.4864  0.2603  0.1049
  346MOL0     H45617   2.539  10.060   6.207  0.2415 -0.0264  0.9471
  346MOL0     H45618   2.434   9.946   6.271 -0.1112  0.6720 -2.6081
  346MOL0     H45619   2.615   9.766   6.213 -3.0214 -0.1026 -0.4482
  346MOL0     H45620   2.721   9.899   6.146 -0.7392 -0.3404 -2.0045
  346MOL0     H45621   2.490   9.773   6.027  0.8516 -0.3665  3.1725
  346MOL0     H45622   2.494   9.951   6.021 -0.9977 -1.0590 -0.0478
  346MOL0     H45623   2.705   9.952   5.918 -3.2303  1.8605 -0.7377
  346MOL0     H45624   2.586   9.886   5.826 -0.0550 -0.0168 -0.3214
  346MOL0     H45625   2.559   9.598   5.937 -2.7291  0.9418 -4.9471
  346MOL0     H45626   2.709   9.358   5.736 -1.2935 -2.8649  0.0852
  346MOL0     H45627   2.633   9.333   5.892 -0.7459  3.1486  1.7041
  346MOL0     H45628   2.917   9.304   5.836 -1.4365  0.7935 -1.8202
  346MOL0     H45629   2.806   9.180   5.900  2.4346  0.0779  0.8023
  346MOL0     H45630   2.919   9.433   6.021 -0.0425  0.6910  2.8968
  346MOL0     H45631   2.796   9.361   6.105  2.9927 -1.9027  2.9428
  346MOL0     H45632   3.080   9.274   6.076 -0.1698  0.2701 -0.5806
  346MOL0     H45633   2.979   9.141   6.083  0.7768 -0.2390  0.3001
  346MOL0     H45634   2.913   9.237   6.506 -0.4410 -0.8749  1.8322
  346MOL0     H45635   2.726   9.115   6.613  0.1177  0.2655 -0.7833
  346MOL0     H45636   2.238   8.862   6.438 -3.4068 -0.4699  1.0958
  346MOL0     H45637   2.090   8.678   6.579 -0.0994 -3.3597  0.7541
  346MOL0     H45638   2.280   8.380   6.814  0.4835 -0.3721  0.5497
  346MOL0     H45639   2.251   8.288   6.662 -2.3672  0.5162 -0.9249
  346MOL0     H45640   2.039   8.348   6.862  1.1407 -3.2516  4.0373
  346MOL0     H45641   2.139   8.199   6.835  1.5221  2.6637  4.0195
  346MOL0     H45642   2.060   8.173   6.610 -1.7128 -2.5029 -0.7392
  346MOL0     H45643   1.946   8.297   6.625 -1.9932 -0.4408  1.2523
  346MOL0     H45644   1.933   8.089   6.836 -0.4814 -0.8883 -0.8317
  346MOL0     H45645   1.813   8.200   6.777 -0.1981 -0.6705  0.9276
  346MOL0     H45646   1.801   7.938   6.682  2.0836 -2.7249 -0.7492
  346MOL0     H45647   1.941   7.977   6.587 -0.4352 -0.9624 -0.2553
  346MOL0     H45648   1.844   8.158   6.466 -0.9495  2.8204  1.3557
  346MOL0     H45649   1.696   8.163   6.561  2.9948  3.2378  1.2513
  346MOL0     H45650   1.755   7.885   6.455  1.2250  0.7382 -2.2042
  346MOL0     H45651   1.599   7.962   6.477  0.1364  1.2012  0.5533
  346MOL0     H45652   1.801   8.043   6.251  0.3022  0.3986 -2.0065
  346MOL0     H45653   1.640   8.088   6.269 -0.5878 -1.7625 -2.8648
  346MOL0     H45654   2.426   8.446   6.628  0.6366  0.6245 -1.0977
  346MOL0     H45655   2.576   8.626   6.524  0.2425  2.6282  1.5778
  346MOL0     H45656   2.606   8.955   6.235 -2.3763  0.5023  2.5138
  346MOL0     H45657   2.779   9.081   6.125 -0.7195  1.0986  0.1872
  346MOL0     H45658   2.924  10.197   6.147 -1.5701 -3.1518 -0.1616
  346MOL0     H45659   2.988  10.213   5.901 -0.9120 -1.6321  0.8261
  346MOL0     H45660   2.780  10.029   5.404  1.6789 -0.7688 -1.9822
  346MOL0     H45661   2.786  10.105   5.158  0.8213  1.4456 -1.1642
  346MOL0     H45662   2.657  10.291   4.972 -0.2111  0.5557 -0.4868
  346MOL0     H45663   2.805  10.197   4.951  0.8906  1.1124  0.6664
  346MOL0     H45664   2.895  10.404   4.843 -0.3614 -0.3359  3.3447
  346MOL0     H45665   2.748  10.351   4.749 -0.5302 -2.2370  0.0817
  346MOL0     H45666   2.769  10.575   4.944  0.4951  0.9802 -0.6091
  346MOL0     H45667   2.614  10.510   4.891  0.6242 -1.9878  0.6934
  346MOL0     H45668   2.817  10.608   4.680  0.2599 -1.2670 -1.5196
  346MOL0     H45669   2.637  10.580   4.667 -0.8964  2.2058 -0.1212
  346MOL0     H45670   2.652  10.976   4.770  1.1957  0.3053 -1.3454
  346MOL0     H45671   2.851  10.499   5.306  0.7540 -1.3884  1.4948
  346MOL0     H45672   2.859  10.445   5.502 -0.5434 -0.4170  1.8809
  347MOL0     O45673   5.832   7.293   9.558 -0.3050 -0.4188 -0.0763
  347MOL0     C45674   5.841   7.409   9.551 -0.8286 -0.1822 -0.0231
  347MOL0     O45675   5.886   7.484   9.441 -0.9351  0.1455  0.0493
  347MOL0     C45676   5.931   7.418   9.328 -0.3263 -0.2969  0.0119
  347MOL0     C45677   5.995   7.295   9.317  1.0960  0.4024  0.5900
  347MOL0     C45678   6.042   7.245   9.189 -0.6119  0.4199  0.3769
  347MOL0     C45679   6.045   7.332   9.075  0.1268 -0.1776  0.6239
  347MOL0     O45680   6.091   7.293   8.950  0.5643 -0.2564  0.2101
  347MOL0     C45681   6.081   7.156   8.917 -0.7294 -0.2798  0.0319
  347MOL0     C45682   6.098   7.139   8.768  0.1602  0.1863  0.7366
  347MOL0     C45683   5.991   7.207   8.688  0.4811 -0.5194 -0.3931
  347MOL0     C45684   5.995   7.171   8.537  0.0642 -0.5599 -0.7476
  347MOL0     C45685   6.134   7.210   8.475 -0.0668 -0.0295  0.4374
  347MOL0     C45686   6.138   7.140   8.344  0.0662 -0.4071  1.4971
  347MOL0     C45687   6.274   7.180   8.279 -0.4093 -0.5193  0.6115
  347MOL0     C45688   6.293   7.140   8.133 -1.0926 -0.9398  0.6450
  347MOL0     N45689   6.299   7.004   8.093 -0.3564  0.4289 -0.2803
  347MOL0     C45690   6.301   6.902   8.183  1.4212 -0.6876  0.3012
  347MOL0     C45691   6.312   6.791   8.103  0.0569 -0.3906 -0.6350
  347MOL0     C45692   6.327   6.655   8.162  0.0911 -1.0019  0.0214
  347MOL0     C45693   6.194   6.579   8.174  0.2805  0.0660 -0.9212
  347MOL0     C45694   6.144   6.528   8.039  0.2300  0.9398 -0.9622
  347MOL0     C45695   6.043   6.639   8.004 -0.7197  0.5195 -0.4178
  347MOL0     O45696   5.911   6.608   8.060  0.7774 -0.3276 -0.6642
  347MOL0     C45697   5.837   6.507   8.003 -0.3307  0.1214  0.8273
  347MOL0     C45698   5.716   6.480   8.070 -0.8682 -0.8343 -0.3992
  347MOL0     C45699   5.628   6.377   8.024  0.6837 -0.5039  0.1329
  347MOL0     C45700   5.671   6.291   7.919  0.0942  0.4003 -0.6551
  347MOL0     C45701   5.600   6.168   7.886 -0.0840  0.9249  0.8857
  347MOL0     O45702   5.665   6.095   7.795  0.3446  0.4613 -0.0022
  347MOL0     C45703   5.609   5.977   7.754 -0.4735 -1.0333  0.9248
  347MOL0     C45704   5.569   5.967   7.623 -0.2772  0.0338  0.0074
  347MOL0     C45705   5.483   5.870   7.572  0.3790 -0.5309  0.0104
  347MOL0     C45706   5.440   5.779   7.665  0.9323  0.0801 -0.2260
  347MOL0     O45707   5.348   5.679   7.649 -0.1893  0.0076  0.5118
  347MOL0     C45708   5.416   5.558   7.602  0.1011 -0.5663  0.5091
  347MOL0     C45709   5.341   5.494   7.479  0.5981  0.5280 -0.7361
  347MOL0     C45710   5.346   5.593   7.359  0.0406 -1.7731 -0.4447
  347MOL0     C45711   5.288   5.543   7.225 -0.4956  0.2937  0.0188
  347MOL0     C45712   5.369   5.428   7.184 -1.0760  0.7241  0.3451
  347MOL0     C45713   5.401   5.421   7.028  0.4835 -0.5044 -0.6105
  347MOL0     C45714   5.448   5.284   6.978 -0.0232  0.4553  0.2631
  347MOL0     C45715   5.338   5.182   6.947  0.1200  0.3848  0.4132
  347MOL0    Cl45716   5.400   5.025   6.879 -0.4507  0.4729 -0.0929
  347MOL0     C45717   5.485   5.788   7.798  0.6584 -0.7277  0.0820
  347MOL0     C45718   5.579   5.874   7.842 -0.8423 -0.7406 -0.0377
  347MOL0     O45719   5.493   6.141   7.940  0.3201  1.7812 -0.4171
  347MOL0     C45720   5.794   6.327   7.840  0.6805  0.5713 -0.6356
  347MOL0     C45721   5.869   6.436   7.887 -0.3417 -0.6364  0.3763
  347MOL0     N45722   6.303   6.831   7.967 -0.9197  1.1792  1.0268
  347MOL0     N45723   6.303   6.958   7.967  0.9603 -0.1525  0.1098
  347MOL0     C45724   5.983   7.452   9.085  0.3773  1.2507  0.6322
  347MOL0     C45725   5.927   7.499   9.213 -0.1274  0.7477  0.2477
  347MOL0     C45726   5.810   7.485   9.675 -0.0457  0.6258  0.3337
  347MOL0     C45727   5.740   7.414   9.779 -0.4426  0.1376  0.1786
  347MOL0     C45728   5.706   7.485   9.890 -0.1652 -0.3289  0.9226
  347MOL0     C45729   5.739   7.612   9.913 -0.7773 -0.0043 -0.5363
  347MOL0     O45730   5.693   7.673  10.026  0.4783 -0.2862 -0.4301
  347MOL0     C45731   5.755   7.793  10.079 -0.3408 -0.3851  0.6349
  347MOL0     C45732   5.715   7.801  10.230 -0.2507  0.0942  0.6386
  347MOL0     C45733   5.765   7.943  10.292 -0.5286 -0.7397 -1.0707
  347MOL0     C45734   5.856   7.938  10.416  0.2253 -0.0901  0.1492
  347MOL0     C45735   5.957   7.833  10.410  0.8684  0.6739 -0.1558
  347MOL0     C45736   6.044   7.752  10.388 -0.2417 -0.1922  0.2075
  347MOL0     C45737   5.822   7.682   9.817 -0.4878  1.5077 -0.5393
  347MOL0     C45738   5.856   7.615   9.692 -0.4073 -0.6693 -0.5675
  347MOL0     H45739   5.992   7.229   9.403  1.1737 -2.2939 -1.3409
  347MOL0     H45740   6.086   7.147   9.181 -2.9085 -0.7723  1.2982
  347MOL0     H45741   5.982   7.110   8.925 -0.6911 -0.4383 -0.4059
  347MOL0     H45742   6.154   7.098   8.976  0.2872  0.2945 -0.6272
  347MOL0     H45743   6.098   7.030   8.760 -2.8867 -0.1110  2.9937
  347MOL0     H45744   6.197   7.175   8.736 -1.0104  2.8078 -0.2887
  347MOL0     H45745   6.012   7.315   8.687 -2.9807  0.3408 -3.0878
  347MOL0     H45746   5.894   7.204   8.739  0.8107 -0.6228  0.2314
  347MOL0     H45747   5.966   7.068   8.516 -3.3159 -0.2065  1.4199
  347MOL0     H45748   5.914   7.233   8.498  0.6842 -0.3815 -1.8137
  347MOL0     H45749   6.216   7.170   8.534 -1.9269 -1.1551  2.3919
  347MOL0     H45750   6.146   7.318   8.465 -1.4470  0.2063  1.0238
  347MOL0     H45751   6.054   7.176   8.285 -2.0503 -0.8093  4.0699
  347MOL0     H45752   6.140   7.031   8.356  1.2756 -0.6372 -0.2985
  347MOL0     H45753   6.277   7.289   8.281 -1.8924 -0.3857 -1.4208
  347MOL0     H45754   6.352   7.148   8.349 -0.3296 -2.4235 -0.2590
  347MOL0     H45755   6.386   7.190   8.103  1.4082 -2.7210  4.6524
  347MOL0     H45756   6.204   7.182   8.085  0.0516  0.5842 -0.2236
  347MOL0     H45757   6.286   6.890   8.290 -1.5191 -2.8326 -0.2201
  347MOL0     H45758   6.378   6.670   8.258 -0.1053 -1.1067  0.1413
  347MOL0     H45759   6.393   6.600   8.093  1.5889  1.8996 -1.0593
  347MOL0     H45760   6.119   6.642   8.223  0.0499  0.3274 -1.5949
  347MOL0     H45761   6.217   6.493   8.238 -0.1373 -0.3733 -1.3503
  347MOL0     H45762   6.234   6.513   7.978  1.8260  1.7053  1.0840
  347MOL0     H45763   6.097   6.430   8.049 -0.8263  1.4621 -0.5775
  347MOL0     H45764   6.046   6.643   7.895 -1.5925 -0.4538 -0.5007
  347MOL0     H45765   6.091   6.731   8.038  1.7471 -0.2836 -1.4745
  347MOL0     H45766   5.696   6.528   8.165 -1.4183  1.0346 -1.4055
  347MOL0     H45767   5.540   6.355   8.083 -1.3008 -2.2520 -3.1578
  347MOL0     H45768   5.588   6.051   7.556 -0.8830  1.1468  1.1981
  347MOL0     H45769   5.447   5.871   7.470 -1.2215 -0.3885  0.5565
  347MOL0     H45770   5.416   5.481   7.679  1.1675  0.2228  1.3335
  347MOL0     H45771   5.513   5.587   7.562 -1.3706  1.2795 -2.0476
  347MOL0     H45772   5.237   5.466   7.501  0.5888 -0.1214 -1.5440
  347MOL0     H45773   5.392   5.400   7.456  1.0327  0.7655 -0.7488
  347MOL0     H45774   5.453   5.618   7.353 -0.0133  0.1162  3.5258
  347MOL0     H45775   5.303   5.690   7.384  4.2537  0.3090 -0.2242
  347MOL0     H45776   5.184   5.516   7.248 -1.0072 -1.1045 -3.2575
  347MOL0     H45777   5.279   5.619   7.146 -1.7621  2.1868  1.8789
  347MOL0     H45778   5.319   5.336   7.214  0.8134 -0.1545  0.9679
  347MOL0     H45779   5.464   5.440   7.237 -0.7137  2.2040 -0.5991
  347MOL0     H45780   5.469   5.505   7.010  0.6926 -0.2291  1.2416
  347MOL0     H45781   5.309   5.442   6.973  1.7215 -0.6453 -2.8524
  347MOL0     H45782   5.496   5.288   6.880 -0.5119 -3.4445 -0.2789
  347MOL0     H45783   5.522   5.242   7.047 -0.2367  0.7792  0.6943
  347MOL0     H45784   5.286   5.233   6.865  0.5668 -0.3372 -0.3411
  347MOL0     H45785   5.281   5.174   7.040  0.1345 -1.5864  0.2997
  347MOL0     H45786   5.454   5.707   7.864  0.3171  0.2622  1.1683
  347MOL0     H45787   5.607   5.882   7.946  0.0880 -1.6029 -0.2053
  347MOL0     H45788   5.812   6.270   7.750 -3.9451  0.0907 -1.5140
  347MOL0     H45789   5.958   6.470   7.835  0.2196 -0.8147  1.1999
  347MOL0     H45790   5.979   7.522   9.002  0.9180  3.3949  2.3037
  347MOL0     H45791   5.875   7.593   9.228 -0.2145  0.9828 -1.4282
  347MOL0     H45792   5.728   7.307   9.764  1.6682 -0.0162 -0.8494
  347MOL0     H45793   5.650   7.427   9.963 -0.5486 -1.0486  0.0872
  347MOL0     H45794   5.713   7.867  10.009  0.1783 -0.8717 -0.2090
  347MOL0     H45795   5.864   7.789  10.072 -0.2347 -2.9549  2.3596
  347MOL0     H45796   5.606   7.794  10.234 -0.1535 -1.7764  0.9574
  347MOL0     H45797   5.764   7.713  10.272  0.3390 -0.4116 -1.0070
  347MOL0     H45798   5.669   7.992  10.312 -0.0124 -0.7523  1.9691
  347MOL0     H45799   5.819   8.002  10.218  3.1013  0.2912  2.0352
  347MOL0     H45800   5.902   8.037  10.415 -0.1688  0.0927 -0.5711
  347MOL0     H45801   5.812   7.924  10.515 -0.3048 -1.4346 -0.2461
  347MOL0     H45802   6.131   7.691  10.372 -1.1952 -2.9379  3.9954
  347MOL0     H45803   5.846   7.785   9.841 -0.1795  1.2985  0.0468
  347MOL0     H45804   5.911   7.662   9.611 -1.1627 -1.6437 -1.6851
  348MOL0     O45805   7.389  10.879  10.675  0.1372  0.0705 -0.0129
  348MOL0     C45806   7.476  10.841  10.758  0.1858  0.5902  1.3056
  348MOL0     O45807   7.482  10.874  10.886 -0.2646  0.0348  0.0948
  348MOL0     C45808   7.388  10.953  10.942  0.9956  0.4349  0.3055
  348MOL0     C45809   7.411  11.079  10.979 -0.1352 -0.1078 -0.3467
  348MOL0     C45810   7.321  11.151  11.067  0.7499 -0.5030  0.4173
  348MOL0     C45811   7.193  11.101  11.096 -0.4691  0.7806 -0.2090
  348MOL0     O45812   7.095  11.167  11.160 -0.2443  0.2277 -1.2839
  348MOL0     C45813   7.033  11.088  11.267 -0.3847 -0.2857 -0.4345
  348MOL0     C45814   6.963  11.185  11.358  0.3322  0.1191 -0.4989
  348MOL0     C45815   6.890  11.112  11.478  1.2222  0.0596  0.2843
  348MOL0     C45816   6.794  11.200  11.547  0.5333  0.8177  0.5660
  348MOL0     C45817   6.689  11.132  11.632  0.2993 -0.0703 -0.3327
  348MOL0     C45818   6.613  11.241  11.715 -0.5572 -0.8198 -0.7069
  348MOL0     C45819   6.518  11.168  11.811 -0.4210  0.1445  0.1865
  348MOL0     C45820   6.402  11.250  11.874  0.0087 -0.5816 -0.7364
  348MOL0     N45821   6.446  11.340  11.982  0.4855 -0.1619 -0.0970
  348MOL0     C45822   6.499  11.317  12.102 -0.2765  0.0145 -0.2672
  348MOL0     C45823   6.538  11.429  12.158  0.1389  0.6268  0.4849
  348MOL0     C45824   6.594  11.463  12.288  0.4412 -0.8731 -0.0769
  348MOL0     C45825   6.507  11.426  12.406  0.5002  0.6098  0.0318
  348MOL0     C45826   6.541  11.516  12.532 -0.7950 -0.0100  0.1445
  348MOL0     C45827   6.668  11.464  12.599  0.9253 -0.4194 -0.5844
  348MOL0     O45828   6.678  11.324  12.637  0.7711  0.2626  0.5290
  348MOL0     C45829   6.619  11.269  12.744  0.2589 -0.5384  0.1705
  348MOL0     C45830   6.524  11.334  12.826 -0.4954  0.6996  0.4309
  348MOL0     C45831   6.485  11.280  12.942 -0.3345 -0.0375  0.2031
  348MOL0     C45832   6.522  11.149  12.986 -0.5864  0.8239  0.9009
  348MOL0     C45833   6.476  11.077  13.112 -0.1432 -0.6062  0.2807
  348MOL0     O45834   6.533  10.963  13.155  0.2996 -0.3047 -0.2153
  348MOL0     C45835   6.463  10.871  13.223  0.7353 -0.5828  0.2166
  348MOL0     C45836   6.511  10.835  13.347 -0.2267 -0.9674  0.2813
  348MOL0     C45837   6.440  10.748  13.432  0.6926  1.1469  1.0879
  348MOL0     C45838   6.321  10.684  13.397  0.7086 -0.6899  1.1804
  348MOL0     O45839   6.249  10.608  13.489  0.3417 -0.1128  0.0961
  348MOL0     C45840   6.150  10.513  13.435  0.1234 -0.0417 -0.1872
  348MOL0     C45841   6.108  10.428  13.554 -0.6053  0.3841  0.6770
  348MOL0     C45842   6.030  10.298  13.521 -0.8091 -0.1199 -0.3035
  348MOL0     C45843   5.979  10.227  13.646 -0.8978 -0.5548  0.2337
  348MOL0     C45844   5.876  10.119  13.602  0.2964  0.3261  1.3679
  348MOL0     C45845   5.913   9.989  13.527  0.3884  0.0967 -0.4877
  348MOL0     C45846   6.004   9.892  13.613 -0.5157 -0.5657  0.4310
  348MOL0     C45847   6.037   9.769  13.529  0.3145  0.2863  0.8264
  348MOL0    Cl45848   5.908   9.647  13.543  0.2809  0.1921 -0.4113
  348MOL0     C45849   6.274  10.725  13.267 -0.2150  0.9239 -0.1980
  348MOL0     C45850   6.342  10.822  13.189  0.9838 -0.2102 -0.5311
  348MOL0     O45851   6.386  11.132  13.171 -0.4687 -0.8329 -0.3057
  348MOL0     C45852   6.608  11.079  12.900 -0.5317  1.0868  0.6475
  348MOL0     C45853   6.660  11.143  12.783 -0.1341  0.4206  0.4229
  348MOL0     N45854   6.500  11.533  12.073  0.2917  0.2942 -1.0359
  348MOL0     N45855   6.453  11.473  11.964 -0.1680  0.6065  0.1184
  348MOL0     C45856   7.171  10.968  11.055  0.1916  0.9147  0.4157
  348MOL0     C45857   7.266  10.897  10.986 -0.6457  0.2492  0.2575
  348MOL0     C45858   7.587  10.781  10.677 -0.0668 -0.2632 -0.1313
  348MOL0     C45859   7.590  10.769  10.530 -0.1778 -0.3293 -0.2383
  348MOL0     C45860   7.701  10.706  10.472 -0.6049 -0.7300 -0.5911
  348MOL0     C45861   7.814  10.660  10.553  0.7774  0.7219  0.2299
  348MOL0     O45862   7.932  10.593  10.516 -0.3527 -0.5457  0.6785
  348MOL0     C45863   7.926  10.519  10.394 -0.3134 -0.0647 -0.3368
  348MOL0     C45864   7.874  10.382  10.425 -1.0135 -0.6277 -0.5351
  348MOL0     C45865   7.893  10.278  10.316  0.1332 -0.7864  0.0854
  348MOL0     C45866   7.832  10.319  10.167  0.3922 -0.0165 -0.7506
  348MOL0     C45867   7.840  10.201  10.073 -0.0200  0.0250 -0.2319
  348MOL0     C45868   7.847  10.117   9.989  0.0342  0.8429 -0.4780
  348MOL0     C45869   7.814  10.675  10.685  0.6761  0.4222 -0.0815
  348MOL0     C45870   7.706  10.739  10.748  0.1657  0.2069 -0.1704
  348MOL0     H45871   7.493  11.138  10.939 -0.1626 -0.9257 -1.6960
  348MOL0     H45872   7.331  11.253  11.103 -0.0098  0.4479 -1.9037
  348MOL0     H45873   7.118  11.035  11.312 -2.2291 -3.3634 -0.2842
  348MOL0     H45874   6.968  11.018  11.213  1.8776 -1.8471 -1.3092
  348MOL0     H45875   6.890  11.240  11.299 -3.1226 -1.1133  2.2718
  348MOL0     H45876   7.027  11.261  11.405 -1.5287  2.2411 -1.2108
  348MOL0     H45877   6.958  11.060  11.546 -0.5394 -2.5824  0.1852
  348MOL0     H45878   6.828  11.028  11.445 -2.6560  1.7620  2.4773
  348MOL0     H45879   6.852  11.260  11.618 -1.2931 -1.6105  4.4644
  348MOL0     H45880   6.748  11.256  11.466  2.8714 -0.0710 -1.4780
  348MOL0     H45881   6.738  11.049  11.683  1.4106  0.5223 -0.4016
  348MOL0     H45882   6.623  11.078  11.564 -1.1674  1.7522 -0.4195
  348MOL0     H45883   6.555  11.307  11.651  2.3236 -0.2492 -2.8958
  348MOL0     H45884   6.680  11.297  11.781 -1.3408  1.0390 -1.4486
  348MOL0     H45885   6.472  11.090  11.750  0.0860 -0.8421  1.0315
  348MOL0     H45886   6.574  11.106  11.882  1.2736 -0.2953 -1.4425
  348MOL0     H45887   6.321  11.182  11.902 -1.3594  2.1003  2.5706
  348MOL0     H45888   6.363  11.320  11.800 -0.8877 -0.5204 -0.2275
  348MOL0     H45889   6.545  11.227  12.142 -1.4492  0.0348  1.2412
  348MOL0     H45890   6.612  11.570  12.305 -0.7991 -0.8122  1.0218
  348MOL0     H45891   6.688  11.411  12.311  0.8731  1.1220  3.4979
  348MOL0     H45892   6.529  11.322  12.430  1.4969  0.6571 -0.5774
  348MOL0     H45893   6.401  11.424  12.379  0.0650  0.7263  1.6271
  348MOL0     H45894   6.539  11.625  12.518 -0.1305  0.4700  3.0539
  348MOL0     H45895   6.454  11.495  12.596  0.2634 -2.7608  0.7883
  348MOL0     H45896   6.697  11.513  12.693  2.1626 -1.9876 -0.1114
  348MOL0     H45897   6.755  11.486  12.536 -0.3557 -0.9377 -2.6074
  348MOL0     H45898   6.488  11.432  12.796 -2.0378 -0.2865 -1.0698
  348MOL0     H45899   6.418  11.342  13.002  1.6867  2.1208  0.3604
  348MOL0     H45900   6.582  10.904  13.391 -0.0827  1.3208 -3.1302
  348MOL0     H45901   6.468  10.719  13.533  0.2899 -0.8090  0.6904
  348MOL0     H45902   6.201  10.450  13.362  1.7285  1.0207 -0.0355
  348MOL0     H45903   6.066  10.572  13.397  2.1040  3.2333  0.1134
  348MOL0     H45904   6.049  10.490  13.622 -0.0718  1.1208  0.4908
  348MOL0     H45905   6.207  10.402  13.593 -0.1154  1.9563  0.5776
  348MOL0     H45906   6.092  10.230  13.462  2.2589  1.0791  1.2794
  348MOL0     H45907   5.944  10.327  13.460 -1.6837  0.4586  1.1679
  348MOL0     H45908   6.059  10.180  13.705 -1.1863  0.0545  1.1206
  348MOL0     H45909   5.928  10.301  13.707 -1.1549  0.7437 -1.4740
  348MOL0     H45910   5.812  10.178  13.536  0.2430 -1.7404 -0.5313
  348MOL0     H45911   5.804  10.081  13.675  2.1778 -0.5457  2.8437
  348MOL0     H45912   5.968  10.026  13.440 -1.8394  3.9058 -0.4952
  348MOL0     H45913   5.819   9.936  13.508  0.2067  0.0960  0.3887
  348MOL0     H45914   6.097   9.942  13.641  1.1240 -0.3712 -4.3356
  348MOL0     H45915   5.939   9.860  13.695 -0.4463  1.3896  1.2903
  348MOL0     H45916   6.121   9.720  13.578  0.6064  1.4228  1.5038
  348MOL0     H45917   6.059   9.791  13.424  2.3173  0.1685  1.1767
  348MOL0     H45918   6.172  10.704  13.238 -1.2731  4.2044  0.7423
  348MOL0     H45919   6.292  10.869  13.104  0.7156  0.7953  0.1699
  348MOL0     H45920   6.644  10.983  12.935 -2.6904 -0.0092  0.0284
  348MOL0     H45921   6.736  11.095  12.723 -3.2761 -5.0200  0.1725
  348MOL0     H45922   7.078  10.916  11.077  0.4764 -0.7989 -1.9946
  348MOL0     H45923   7.231  10.798  10.959  1.4823 -0.8530  1.1980
  348MOL0     H45924   7.503  10.805  10.475 -1.6311  1.0620  2.7166
  348MOL0     H45925   7.710  10.701  10.364 -1.6688  2.9717 -0.9848
  348MOL0     H45926   8.020  10.506  10.340 -0.7428  0.2817 -1.1898
  348MOL0     H45927   7.860  10.567  10.322 -0.6719  2.4241  1.5257
  348MOL0     H45928   7.919  10.350  10.520 -0.6194  3.1493  0.7506
  348MOL0     H45929   7.768  10.396  10.447 -1.1134  0.4742 -1.6167
  348MOL0     H45930   7.831  10.194  10.347 -1.9736 -0.3115 -2.5175
  348MOL0     H45931   7.995  10.238  10.312  0.6662  0.5460 -0.4650
  348MOL0     H45932   7.726  10.344  10.183  0.5680 -0.0590  0.6804
  348MOL0     H45933   7.880  10.412  10.136 -0.0661  1.3647  2.3096
  348MOL0     H45934   7.827  10.050   9.908 -0.9953 -0.0290  0.4623
  348MOL0     H45935   7.900  10.644  10.744  2.6868 -1.0024 -3.4666
  348MOL0     H45936   7.706  10.753  10.855  1.8763 -1.3768  0.0873
  349MOL0     O45937   8.684  10.640  10.077  0.3376 -0.6290 -0.5344
  349MOL0     C45938   8.711  10.762  10.086 -0.2032 -0.8277  0.3218
  349MOL0     O45939   8.696  10.850   9.993 -0.0427  0.5002  0.3430
  349MOL0     C45940   8.632  10.808   9.885 -0.2035  0.5417 -0.9956
  349MOL0     C45941   8.692  10.728   9.784  0.2139  0.0799 -0.4089
  349MOL0     C45942   8.620  10.712   9.670 -0.2567  0.1643  0.4423
  349MOL0     C45943   8.496  10.763   9.655 -0.6859  0.0474  0.1218
  349MOL0     O45944   8.442  10.741   9.536  0.3836  0.3758 -0.0934
  349MOL0     C45945   8.375  10.850   9.462  0.1767 -0.1319  0.3434
  349MOL0     C45946   8.388  10.798   9.316 -0.2441 -0.4288  0.0266
  349MOL0     C45947   8.281  10.709   9.261 -0.1821 -0.2144 -0.1166
  349MOL0     C45948   8.329  10.640   9.131 -0.4408  0.2078 -0.0908
  349MOL0     C45949   8.216  10.562   9.061 -0.0854 -1.3062  0.6197
  349MOL0     C45950   8.265  10.473   8.943  0.3239  0.5465 -0.1729
  349MOL0     C45951   8.144  10.396   8.882  0.1624  0.5516  0.1341
  349MOL0     C45952   8.189  10.296   8.778  0.8682  0.7032 -0.1622
  349MOL0     N45953   8.071  10.219   8.722 -0.8915 -0.5712  1.2617
  349MOL0     C45954   8.011  10.251   8.605 -0.4485 -0.3402 -0.3300
  349MOL0     C45955   7.918  10.155   8.600 -0.5209 -0.6803  0.1588
  349MOL0     C45956   7.805  10.136   8.502 -0.1079 -0.0926 -1.2133
  349MOL0     C45957   7.862  10.105   8.363 -0.4449 -0.5759  0.1215
  349MOL0     C45958   7.922   9.971   8.363  0.1256  0.3178 -0.4164
  349MOL0     C45959   7.928   9.913   8.222  0.2170  0.0670 -0.5528
  349MOL0     O45960   7.795   9.895   8.164 -0.3301 -0.1949  0.1506
  349MOL0     C45961   7.798   9.877   8.029 -1.1915  0.4031 -0.0027
  349MOL0     C45962   7.690   9.939   7.967  0.0594  0.2024  0.6748
  349MOL0     C45963   7.676   9.924   7.830  0.9921 -0.3303 -0.6084
  349MOL0     C45964   7.771   9.861   7.752 -0.8774 -0.5283  0.3279
  349MOL0     C45965   7.744   9.878   7.606 -0.8476  0.7149 -0.5182
  349MOL0     O45966   7.827   9.806   7.519 -0.3150  0.6159 -0.4478
  349MOL0     C45967   7.822   9.809   7.387  0.1894 -0.4963 -0.5982
  349MOL0     C45968   7.706   9.828   7.314  0.3036  0.6504  0.3244
  349MOL0     C45969   7.705   9.829   7.177 -0.6267  0.5331  0.0944
  349MOL0     C45970   7.832   9.813   7.105  0.5777  0.2006 -0.3402
  349MOL0     O45971   7.836   9.826   6.968  0.1667 -0.6420  0.7867
  349MOL0     C45972   7.709   9.804   6.891 -0.7411 -1.1410 -1.0698
  349MOL0     C45973   7.754   9.806   6.740 -0.1668  0.5794 -0.4135
  349MOL0     C45974   7.651   9.755   6.641  0.0693  0.2163 -0.6891
  349MOL0     C45975   7.502   9.766   6.690 -0.3086 -0.0542  0.5619
  349MOL0     C45976   7.384   9.737   6.589 -1.1009 -0.4703  0.4352
  349MOL0     C45977   7.244   9.778   6.634  0.5568 -0.2743  0.0901
  349MOL0     C45978   7.235   9.930   6.605  0.7979 -0.0985 -0.3347
  349MOL0     C45979   7.081   9.968   6.587 -0.2303  0.0355  0.2363
  349MOL0    Cl45980   6.976   9.869   6.477  0.2444  0.2939 -0.3482
  349MOL0     C45981   7.943   9.793   7.179 -0.4560 -1.0249 -0.9440
  349MOL0     C45982   7.944   9.797   7.323  0.1421  0.8318  0.6524
  349MOL0     O45983   7.667   9.967   7.574  0.5103 -0.2345  0.3434
  349MOL0     C45984   7.886   9.804   7.813  0.5770  0.1277  0.4589
  349MOL0     C45985   7.908   9.823   7.948  1.2015  0.1412  0.1298
  349MOL0     N45986   7.929  10.062   8.699 -0.0315 -0.0005 -0.0056
  349MOL0     N45987   8.023  10.101   8.774 -0.1136  0.0470 -0.1802
  349MOL0     C45988   8.444  10.848   9.751  0.6621  0.0794 -0.0871
  349MOL0     C45989   8.510  10.866   9.866  0.3489  0.7818  0.0369
  349MOL0     C45990   8.741  10.810  10.224 -0.5032  0.3233  0.9816
  349MOL0     C45991   8.791  10.937  10.247 -0.7693  0.9810  0.1976
  349MOL0     C45992   8.791  10.993  10.378 -0.5034  0.5094 -0.3518
  349MOL0     C45993   8.739  10.929  10.494  0.6361 -0.1462 -0.2691
  349MOL0     O45994   8.725  11.005  10.606  0.7139 -0.9909  0.0710
  349MOL0     C45995   8.653  10.932  10.704 -0.3863 -0.3700  0.0945
  349MOL0     C45996   8.702  11.009  10.834  0.1088 -0.1761 -0.0052
  349MOL0     C45997   8.642  10.951  10.966  0.2015 -0.1512  0.1122
  349MOL0     C45998   8.680  10.807  10.993  0.2269  1.0919 -0.2408
  349MOL0     C45999   8.824  10.792  10.998 -0.1504 -0.1334 -0.1641
  349MOL0     C46000   8.943  10.775  10.982 -0.2543  0.4611  0.0250
  349MOL0     C46001   8.698  10.798  10.465  0.3071 -1.6485 -0.2182
  349MOL0     C46002   8.710  10.734  10.338  0.7853 -0.4279 -0.0556
  349MOL0     H46003   8.794  10.690   9.783  1.0476  2.1488 -1.9316
  349MOL0     H46004   8.644  10.637   9.595  0.0756 -0.0040  0.7165
  349MOL0     H46005   8.441  10.937   9.473  1.7025 -1.2817  0.5737
  349MOL0     H46006   8.272  10.874   9.487 -0.1886  1.1842 -2.1269
  349MOL0     H46007   8.489  10.757   9.307  0.8447  1.8779  0.8918
  349MOL0     H46008   8.403  10.886   9.254  2.0753 -0.4139  0.5258
  349MOL0     H46009   8.198  10.777   9.240  0.2498  0.1093 -0.8032
  349MOL0     H46010   8.256  10.637   9.340 -1.1294  1.5206  1.2261
  349MOL0     H46011   8.370  10.719   9.067 -1.6080  2.4385  1.8023
  349MOL0     H46012   8.412  10.570   9.148  1.2914  2.7593  3.2357
  349MOL0     H46013   8.134  10.630   9.034 -0.2154  0.5318  4.8945
  349MOL0     H46014   8.167  10.503   9.138  1.6246 -1.8158  1.3464
  349MOL0     H46015   8.333  10.394   8.976 -0.6237 -0.6248 -0.9444
  349MOL0     H46016   8.316  10.539   8.873  2.1372 -1.3818 -0.7448
  349MOL0     H46017   8.088  10.335   8.953  2.8755 -2.6168 -0.2205
  349MOL0     H46018   8.069  10.461   8.837 -0.1828 -1.2176 -2.0115
  349MOL0     H46019   8.263  10.230   8.825  0.9806 -1.1117 -2.6284
  349MOL0     H46020   8.240  10.349   8.697  1.3825  1.7128  0.8139
  349MOL0     H46021   8.028  10.343   8.550 -3.6617  2.3786  2.6934
  349MOL0     H46022   7.751  10.231   8.498 -0.5248  0.0508  3.0917
  349MOL0     H46023   7.728  10.062   8.528 -0.5151 -0.7467 -3.9627
  349MOL0     H46024   7.939  10.177   8.336 -1.8946  1.0327  0.1222
  349MOL0     H46025   7.780  10.121   8.293 -0.9943  1.8084  1.2146
  349MOL0     H46026   8.025   9.979   8.400  1.1842  1.9981 -3.3529
  349MOL0     H46027   7.866   9.914   8.437  1.7784  1.4651  1.8310
  349MOL0     H46028   7.973   9.814   8.234 -2.3443 -1.1873 -0.5469
  349MOL0     H46029   7.994   9.975   8.161 -1.7415 -0.4157 -3.3841
  349MOL0     H46030   7.625   9.998   8.030 -2.5842  0.2377 -1.9001
  349MOL0     H46031   7.584   9.971   7.797  0.8361  0.6534  1.1450
  349MOL0     H46032   7.606   9.841   7.356 -0.9738 -0.2926 -2.2070
  349MOL0     H46033   7.612   9.854   7.126 -0.4103  0.3244 -0.4090
  349MOL0     H46034   7.637   9.886   6.902  1.6074  0.9439 -0.0682
  349MOL0     H46035   7.656   9.714   6.923 -1.1075  0.3204  3.0867
  349MOL0     H46036   7.844   9.748   6.723 -1.5076 -2.3919  1.7130
  349MOL0     H46037   7.781   9.909   6.717 -0.5747  0.9970  0.8489
  349MOL0     H46038   7.660   9.648   6.621 -3.5439 -0.0452 -1.6381
  349MOL0     H46039   7.667   9.796   6.541  0.5049  0.1788 -0.6359
  349MOL0     H46040   7.491   9.698   6.775  1.8362 -2.8676 -1.2334
  349MOL0     H46041   7.484   9.870   6.719 -1.2587  0.0421 -0.3141
  349MOL0     H46042   7.390   9.628   6.581  2.5961 -0.6400  3.0172
  349MOL0     H46043   7.413   9.771   6.489 -0.0226 -0.2309  0.8139
  349MOL0     H46044   7.224   9.760   6.740 -2.1270  1.1209 -0.0867
  349MOL0     H46045   7.173   9.732   6.565  0.1471 -2.2859  1.7732
  349MOL0     H46046   7.281   9.980   6.691  3.4532 -0.3822 -1.5022
  349MOL0     H46047   7.287   9.963   6.515 -1.0088  0.7563 -1.1357
  349MOL0     H46048   7.084  10.071   6.552  3.0057  0.1928  0.6555
  349MOL0     H46049   7.033   9.962   6.685  1.2406 -0.7220  0.9457
  349MOL0     H46050   8.045   9.775   7.146  0.5208  1.9476  0.1807
  349MOL0     H46051   8.034   9.799   7.383 -0.1924 -0.1458  1.2210
  349MOL0     H46052   7.961   9.732   7.781  1.5252  1.3964 -0.3074
  349MOL0     H46053   7.997   9.776   7.990  1.4983 -0.2637 -0.9151
  349MOL0     H46054   8.344  10.880   9.720  0.7027 -0.3936 -0.7252
  349MOL0     H46055   8.450  10.926   9.933 -1.6829  1.0639 -1.9104
  349MOL0     H46056   8.835  10.992  10.164  3.1630 -0.3556  1.1990
  349MOL0     H46057   8.805  11.100  10.388 -2.2006  1.0687 -2.9567
  349MOL0     H46058   8.677  10.826  10.718  0.8946 -0.7122 -3.6604
  349MOL0     H46059   8.545  10.932  10.686 -1.0185  1.4272  3.1030
  349MOL0     H46060   8.808  10.985  10.834 -0.1641 -1.4727 -0.1994
  349MOL0     H46061   8.688  11.117  10.827  0.5781 -0.1071  0.1041
  349MOL0     H46062   8.533  10.960  10.970  0.3232  0.8319  1.3258
  349MOL0     H46063   8.682  11.015  11.045  0.5934  1.7612 -1.5606
  349MOL0     H46064   8.637  10.788  11.092 -1.7099  0.1297 -1.2026
  349MOL0     H46065   8.630  10.740  10.922 -0.4146 -0.3050  1.4836
  349MOL0     H46066   9.048  10.758  10.972 -0.4538  0.7396 -3.9539
  349MOL0     H46067   8.652  10.743  10.547  1.0702 -0.3003  1.1681
  349MOL0     H46068   8.677  10.633  10.317  2.9404 -0.8335 -1.9242
  350MOL0     O46069  10.938   2.288   2.324  0.2567  0.0645  0.0178
  350MOL0     C46070  10.907   2.169   2.348 -0.9554 -0.1823  0.0004
  350MOL0     O46071  10.798   2.126   2.415 -0.2768  0.1283 -0.6804
  350MOL0     C46072  10.727   2.222   2.473 -0.7790 -0.7833 -0.3956
  350MOL0     C46073  10.701   2.211   2.615 -0.4755 -0.4330 -1.1296
  350MOL0     C46074  10.615   2.303   2.692  0.2464  0.1275  0.2621
  350MOL0     C46075  10.554   2.408   2.619  0.1897 -0.3585 -0.4238
  350MOL0     O46076  10.480   2.510   2.674 -0.3035 -0.3269 -0.3883
  350MOL0     C46077  10.454   2.517   2.811 -0.2218 -0.8453  0.6326
  350MOL0     C46078  10.440   2.663   2.854 -0.4397 -0.2232  0.3621
  350MOL0     C46079  10.401   2.681   2.997  0.3810 -0.9964  0.3155
  350MOL0     C46080  10.284   2.601   3.046  0.0383  0.0998  0.1051
  350MOL0     C46081  10.209   2.658   3.173 -0.5133  0.2533 -0.5794
  350MOL0     C46082  10.096   2.761   3.148  0.2347 -0.1951 -0.0865
  350MOL0     C46083  10.021   2.821   3.270 -0.1562 -0.1404 -0.0340
  350MOL0     C46084   9.959   2.716   3.367  0.7628  0.2006  0.1640
  350MOL0     N46085   9.873   2.785   3.455  0.5007  0.0550  0.4352
  350MOL0     C46086   9.929   2.874   3.538  0.4406 -0.5678 -0.5248
  350MOL0     C46087   9.827   2.955   3.567 -0.2082 -0.5731  0.4294
  350MOL0     C46088   9.823   3.080   3.653  0.5817  0.1107  0.3413
  350MOL0     C46089   9.920   3.081   3.773  0.2465 -0.8057 -0.2780
  350MOL0     C46090  10.046   3.165   3.741 -0.5104 -1.2355  0.3576
  350MOL0     C46091  10.142   3.153   3.860 -1.0603 -0.5953  0.7809
  350MOL0     O46092  10.102   3.189   3.989 -0.5985 -0.2383 -0.0965
  350MOL0     C46093  10.155   3.124   4.100 -0.3733 -0.5237  0.0631
  350MOL0     C46094  10.085   3.132   4.222 -0.0909 -0.6180 -0.5824
  350MOL0     C46095  10.129   3.063   4.331 -0.6228 -1.0491  0.4303
  350MOL0     C46096  10.242   2.976   4.321 -0.4006 -0.6721 -0.0363
  350MOL0     C46097  10.291   2.911   4.449 -0.0168  0.4853 -0.6950
  350MOL0     O46098  10.244   2.958   4.571  0.2913  0.2884 -0.2563
  350MOL0     C46099  10.270   2.872   4.681  1.2654 -0.1400 -0.0143
  350MOL0     C46100  10.345   2.928   4.787 -0.1975  0.1493  0.5768
  350MOL0     C46101  10.377   2.841   4.898  1.3573 -0.4014 -0.0291
  350MOL0     C46102  10.328   2.705   4.899 -0.0389  0.1393 -1.0708
  350MOL0     O46103  10.349   2.643   5.015 -1.1311  0.1410  0.0398
  350MOL0     C46104  10.330   2.506   5.017  0.5363 -0.3588  0.3889
  350MOL0     C46105  10.376   2.446   5.152 -0.1116  0.5174  0.1543
  350MOL0     C46106  10.382   2.291   5.147  0.0386  0.2143 -1.1673
  350MOL0     C46107  10.255   2.207   5.193 -0.2014  0.8530 -0.1946
  350MOL0     C46108  10.209   2.227   5.338 -0.8922  0.2442  0.0958
  350MOL0     C46109  10.099   2.146   5.383  1.0291 -0.1945  0.2748
  350MOL0     C46110   9.968   2.187   5.307  0.6311 -0.0686  0.8448
  350MOL0     C46111   9.857   2.080   5.311  0.1743  0.0237 -0.8718
  350MOL0    Cl46112   9.867   2.010   5.482 -0.3257  0.3091 -0.0009
  350MOL0     C46113  10.235   2.669   4.795 -0.6248 -0.1543 -0.2987
  350MOL0     C46114  10.204   2.754   4.693 -0.9760 -0.2543  0.4065
  350MOL0     O46115  10.354   2.806   4.434 -0.1962  0.9135 -1.3214
  350MOL0     C46116  10.308   2.962   4.202 -0.6450  0.8344 -0.7206
  350MOL0     C46117  10.270   3.037   4.092  0.4936  0.2093 -0.3034
  350MOL0     N46118   9.719   2.913   3.504  0.9187  0.8451 -0.4982
  350MOL0     N46119   9.740   2.812   3.431 -0.1424 -0.5330 -0.4556
  350MOL0     C46120  10.571   2.406   2.479  1.0656  0.2653 -1.4319
  350MOL0     C46121  10.652   2.321   2.407  0.9891 -0.8475 -0.1972
  350MOL0     C46122  11.006   2.071   2.296 -0.7198  0.0366 -0.7180
  350MOL0     C46123  11.089   2.118   2.193 -1.1294  0.2538  0.1085
  350MOL0     C46124  11.182   2.034   2.138  0.0123 -1.0120  0.8673
  350MOL0     C46125  11.201   1.907   2.197 -0.2408 -0.3565  0.2464
  350MOL0     O46126  11.324   1.853   2.174  0.6530  0.2327  0.4843
  350MOL0     C46127  11.353   1.821   2.033 -0.2046  0.0271  0.3035
  350MOL0     C46128  11.500   1.841   2.010  0.6509 -0.1888  0.4182
  350MOL0     C46129  11.561   1.787   1.880 -0.4935 -0.2024 -0.1227
  350MOL0     C46130  11.696   1.857   1.854 -0.3452  0.5885  0.4275
  350MOL0     C46131  11.714   1.858   1.708  0.1723  0.4901 -0.9095
  350MOL0     C46132  11.723   1.860   1.590 -0.7246  0.9709 -0.5250
  350MOL0     C46133  11.111   1.850   2.293 -0.2321 -1.0900  0.0615
  350MOL0     C46134  11.008   1.938   2.338  0.2642  0.3656 -0.3526
  350MOL0     H46135  10.745   2.130   2.673 -1.2732 -0.6961 -0.8771
  350MOL0     H46136  10.607   2.284   2.799 -2.9469  1.7486  0.4444
  350MOL0     H46137  10.531   2.477   2.879  1.0785  0.6551  0.1195
  350MOL0     H46138  10.363   2.460   2.830 -1.1676  0.3855 -0.0577
  350MOL0     H46139  10.358   2.707   2.796  1.0133  1.7636 -0.2887
  350MOL0     H46140  10.537   2.708   2.833 -1.2249  1.4577  0.2153
  350MOL0     H46141  10.387   2.788   3.013  0.5505 -0.8638 -0.3692
  350MOL0     H46142  10.483   2.641   3.057  0.6801 -1.3585 -0.3241
  350MOL0     H46143  10.203   2.599   2.973 -4.4076 -1.5802  4.5026
  350MOL0     H46144  10.313   2.497   3.062  0.8933  0.3773  0.4088
  350MOL0     H46145  10.284   2.715   3.230  1.7157 -0.3735 -2.7314
  350MOL0     H46146  10.176   2.575   3.236 -3.6584  2.3487  0.7906
  350MOL0     H46147  10.026   2.695   3.095 -0.7778  0.7656  0.0190
  350MOL0     H46148  10.125   2.833   3.071  1.3985  1.5772  1.8911
  350MOL0     H46149  10.090   2.881   3.329 -0.2279  0.0688 -0.1604
  350MOL0     H46150   9.945   2.892   3.234  1.2434  1.6491  0.4118
  350MOL0     H46151  10.026   2.662   3.434 -2.9086 -0.7142  3.4074
  350MOL0     H46152   9.903   2.637   3.317  1.8462 -1.1012  0.9434
  350MOL0     H46153  10.027   2.881   3.582 -0.1934  3.5628  0.6590
  350MOL0     H46154   9.720   3.066   3.688  0.5870 -0.5696  0.0911
  350MOL0     H46155   9.840   3.172   3.596  2.5402  1.5055  2.9529
  350MOL0     H46156   9.951   2.979   3.797  2.6883  0.0124  0.3284
  350MOL0     H46157   9.887   3.132   3.863  2.4832  3.0354 -1.3972
  350MOL0     H46158  10.089   3.128   3.648 -1.3975 -1.1964 -0.0753
  350MOL0     H46159  10.010   3.267   3.730  0.6330 -0.6934  1.4293
  350MOL0     H46160  10.224   3.221   3.834 -1.8275  0.2970  0.6272
  350MOL0     H46161  10.174   3.051   3.838 -0.5989  0.3837 -4.7455
  350MOL0     H46162   9.995   3.184   4.253  0.2598 -1.5481  2.2434
  350MOL0     H46163  10.089   3.090   4.428  0.9206 -0.6275  0.9894
  350MOL0     H46164  10.393   3.025   4.780 -0.5116  0.4791  2.4862
  350MOL0     H46165  10.405   2.886   4.993  1.6505 -1.8977  0.6331
  350MOL0     H46166  10.390   2.452   4.943  1.0639 -1.6396  1.7125
  350MOL0     H46167  10.229   2.471   4.997  0.9346  0.2568 -3.4526
  350MOL0     H46168  10.316   2.481   5.236  0.0622  1.0661  0.0583
  350MOL0     H46169  10.474   2.493   5.164  0.2469 -0.4557  1.1986
  350MOL0     H46170  10.461   2.252   5.212 -1.3662 -0.2233  0.3560
  350MOL0     H46171  10.420   2.264   5.048  4.2297 -3.0458  0.9658
  350MOL0     H46172  10.169   2.236   5.132 -0.2204 -0.6434 -0.9332
  350MOL0     H46173  10.298   2.108   5.174 -1.8640 -0.4381  2.1838
  350MOL0     H46174  10.189   2.331   5.368 -0.2379 -0.0106  1.4977
  350MOL0     H46175  10.293   2.195   5.401 -0.2306 -1.4404 -1.5559
  350MOL0     H46176  10.092   2.160   5.492  0.1827  2.0393 -0.0141
  350MOL0     H46177  10.128   2.043   5.362  4.2387  1.0942 -2.3603
  350MOL0     H46178   9.921   2.279   5.344 -2.1468 -0.2440 -1.9215
  350MOL0     H46179   9.994   2.211   5.204 -0.3888 -1.6922  0.1777
  350MOL0     H46180   9.877   1.998   5.242  2.9319 -1.5847  1.6087
  350MOL0     H46181   9.755   2.115   5.291  0.8771  0.8067 -3.4836
  350MOL0     H46182  10.179   2.577   4.781 -0.1016 -0.4359 -0.5639
  350MOL0     H46183  10.138   2.735   4.609 -2.3298  3.8056  0.3803
  350MOL0     H46184  10.397   2.900   4.194 -2.1306 -1.8781  2.0507
  350MOL0     H46185  10.311   3.017   3.993 -0.8061 -5.5826 -0.0141
  350MOL0     H46186  10.511   2.479   2.425  2.2999  2.6029  0.1596
  350MOL0     H46187  10.660   2.324   2.299 -0.1748  0.7136 -0.2667
  350MOL0     H46188  11.069   2.215   2.148 -0.1992  0.8618  0.9575
  350MOL0     H46189  11.245   2.063   2.055 -1.6478 -0.8482 -0.3843
  350MOL0     H46190  11.284   1.857   1.956  0.2853  0.2568 -0.0273
  350MOL0     H46191  11.333   1.713   2.029 -4.2778  0.6280 -0.6933
  350MOL0     H46192  11.515   1.949   2.013 -0.8829  0.0580  4.1694
  350MOL0     H46193  11.554   1.797   2.094 -1.8910  0.2907  2.4236
  350MOL0     H46194  11.493   1.819   1.801  2.3698 -0.1741 -2.7831
  350MOL0     H46195  11.573   1.678   1.878 -2.3885 -0.4644  0.8345
  350MOL0     H46196  11.710   1.959   1.893  3.5957  0.2611  0.2147
  350MOL0     H46197  11.774   1.795   1.898 -0.6398 -0.0838  0.0147
  350MOL0     H46198  11.728   1.840   1.485  2.2797  0.8211 -0.4324
  350MOL0     H46199  11.112   1.752   2.339 -3.3984 -0.1053  2.6626
  350MOL0     H46200  10.930   1.908   2.407  0.6714  1.3340  0.5618
  351MOL0     O46201   5.717   1.300   6.567 -0.3063 -0.9494 -0.4176
  351MOL0     C46202   5.609   1.352   6.578 -0.1777  0.3070  0.2767
  351MOL0     O46203   5.584   1.486   6.576  0.1633  0.2330 -0.7414
  351MOL0     C46204   5.679   1.581   6.554  0.4240 -0.0462 -0.8667
  351MOL0     C46205   5.777   1.607   6.647 -0.4137 -0.3368  0.2936
  351MOL0     C46206   5.852   1.729   6.638  0.4157 -0.2614 -0.8745
  351MOL0     C46207   5.816   1.816   6.531  1.0989 -0.2569  0.2862
  351MOL0     O46208   5.871   1.946   6.507  0.1039 -0.3132 -0.1737
  351MOL0     C46209   5.990   1.997   6.564  0.0914  1.0377  0.2791
  351MOL0     C46210   5.971   2.054   6.706 -0.3033  0.1110  0.0198
  351MOL0     C46211   6.110   2.077   6.779 -0.2234 -0.4547  0.9416
  351MOL0     C46212   6.106   2.084   6.924  0.2345  0.1544 -0.8497
  351MOL0     C46213   6.055   2.224   6.975 -1.0141  0.9103 -0.2119
  351MOL0     C46214   6.167   2.325   6.968 -0.5778  0.3186 -0.8372
  351MOL0     C46215   6.141   2.480   6.947  0.6450 -0.6737 -0.3534
  351MOL0     C46216   6.070   2.510   6.804 -0.1811  0.3453 -1.1736
  351MOL0     N46217   5.997   2.641   6.795 -0.0538 -0.4579  0.2639
  351MOL0     C46218   5.990   2.708   6.679  1.0658  0.0194  0.4561
  351MOL0     C46219   5.901   2.812   6.717 -0.7101 -0.0215 -0.0888
  351MOL0     C46220   5.840   2.912   6.612 -1.0368 -0.2262 -0.6606
  351MOL0     C46221   5.687   2.917   6.596 -0.7720  0.3842  0.0758
  351MOL0     C46222   5.611   3.004   6.697 -0.1349  0.1946  0.3754
  351MOL0     C46223   5.534   2.915   6.797  0.7625 -0.6476  0.0456
  351MOL0     O46224   5.432   2.826   6.744  0.2670 -0.2151  0.4285
  351MOL0     C46225   5.352   2.769   6.842 -0.0235  0.4359  0.5354
  351MOL0     C46226   5.236   2.694   6.809  0.0075 -0.5271 -1.1199
  351MOL0     C46227   5.151   2.645   6.912 -0.1021  0.0743 -0.5973
  351MOL0     C46228   5.177   2.668   7.047  0.1222  0.5015  0.2872
  351MOL0     C46229   5.066   2.649   7.144  0.3063  1.1627 -0.6357
  351MOL0     O46230   5.089   2.721   7.259  0.0421 -0.0925  0.0923
  351MOL0     C46231   5.011   2.711   7.371  0.8494 -1.0801 -0.1970
  351MOL0     C46232   5.070   2.739   7.490 -0.0987  0.2378 -0.8402
  351MOL0     C46233   5.001   2.750   7.619 -0.2446  1.1042  0.0681
  351MOL0     C46234   4.860   2.733   7.612 -0.9675  0.3944  1.1355
  351MOL0     O46235   4.777   2.740   7.719 -0.0234  0.3792 -0.0076
  351MOL0     C46236   4.831   2.782   7.845 -0.1247  0.0360  1.2633
  351MOL0     C46237   4.728   2.800   7.946  0.9181 -0.2480 -0.2678
  351MOL0     C46238   4.631   2.920   7.914 -0.0058  1.2570  0.1899
  351MOL0     C46239   4.521   2.928   8.024  0.3980 -0.0551  0.2800
  351MOL0     C46240   4.559   2.986   8.163  0.5879 -0.3408  0.6418
  351MOL0     C46241   4.621   3.132   8.156 -0.3466  0.0810 -0.4997
  351MOL0     C46242   4.657   3.191   8.291 -0.0084 -1.3584  0.1930
  351MOL0     C46243   4.744   3.101   8.371 -0.1921  0.1809  0.1139
  351MOL0    Cl46244   4.906   3.053   8.288  0.0539 -0.2680 -0.4185
  351MOL0     C46245   4.798   2.692   7.494 -0.2498 -0.0914  0.9272
  351MOL0     C46246   4.871   2.695   7.375  1.5582 -0.1012  0.2018
  351MOL0     O46247   4.960   2.592   7.108  0.8168 -0.6345  0.0135
  351MOL0     C46248   5.299   2.729   7.077  0.0874 -0.1367  0.5112
  351MOL0     C46249   5.385   2.778   6.975  0.1828  1.0039 -0.0921
  351MOL0     N46250   5.877   2.810   6.857 -0.1458  0.3863  0.1137
  351MOL0     N46251   5.934   2.702   6.900 -0.4413 -0.4696  0.4178
  351MOL0     C46252   5.708   1.799   6.442  0.2890 -0.9715 -0.1587
  351MOL0     C46253   5.645   1.675   6.450  0.7095  0.3689  0.9496
  351MOL0     C46254   5.492   1.260   6.587  0.3440 -0.4795 -0.3027
  351MOL0     C46255   5.513   1.126   6.613  0.5431 -0.1311 -0.8349
  351MOL0     C46256   5.393   1.052   6.634  0.0776 -0.1729  0.0429
  351MOL0     C46257   5.266   1.097   6.620  0.7885  0.1408  0.5513
  351MOL0     O46258   5.162   1.016   6.613  1.0073  0.0578  0.5061
  351MOL0     C46259   5.156   0.893   6.677 -0.9311  0.2104 -0.0295
  351MOL0     C46260   5.165   0.915   6.833  0.1508 -0.5358  0.8770
  351MOL0     C46261   5.060   1.017   6.876  0.1791 -0.5241 -0.7737
  351MOL0     C46262   5.025   1.038   7.025 -0.3462 -0.0137 -0.2207
  351MOL0     C46263   5.149   1.050   7.117 -0.4823 -0.4167  0.1122
  351MOL0     C46264   5.246   1.063   7.193  0.1340  0.3941 -0.5456
  351MOL0     C46265   5.248   1.236   6.592 -0.2205  0.3843  0.7824
  351MOL0     C46266   5.359   1.313   6.572 -0.8242 -0.1697 -0.1981
  351MOL0     H46267   5.797   1.542   6.732  1.0910  0.9511  0.9581
  351MOL0     H46268   5.934   1.744   6.708  0.7343  1.5824 -1.5801
  351MOL0     H46269   6.019   2.081   6.499 -2.4174  0.1463 -2.1931
  351MOL0     H46270   6.076   1.930   6.555 -0.9020 -0.1351 -0.8186
  351MOL0     H46271   5.908   1.981   6.757 -1.9330 -1.3465 -3.6900
  351MOL0     H46272   5.918   2.148   6.687  0.9516  0.5747 -1.4338
  351MOL0     H46273   6.162   2.166   6.743  0.6948 -1.2479  0.2467
  351MOL0     H46274   6.173   1.996   6.739 -2.7048 -1.6251 -0.8530
  351MOL0     H46275   6.044   1.998   6.952  1.0093 -0.1763 -0.0985
  351MOL0     H46276   6.206   2.070   6.964  2.0518  2.1887 -4.2326
  351MOL0     H46277   6.036   2.216   7.083  0.9601 -0.1856  0.0969
  351MOL0     H46278   5.960   2.262   6.935 -0.8048  0.3624 -1.2412
  351MOL0     H46279   6.227   2.286   6.885 -2.3210  2.0670 -3.0392
  351MOL0     H46280   6.223   2.309   7.061 -1.5822 -1.6734 -0.5258
  351MOL0     H46281   6.062   2.515   7.014  2.1596 -2.1504  2.3998
  351MOL0     H46282   6.233   2.535   6.966 -0.4170  0.9142  0.3954
  351MOL0     H46283   5.986   2.441   6.795 -2.6166  3.1012 -1.0036
  351MOL0     H46284   6.151   2.505   6.730  2.2065  1.3319  1.1774
  351MOL0     H46285   6.031   2.682   6.583  3.1645  0.7156  1.1148
  351MOL0     H46286   5.894   2.897   6.517  1.3655 -1.1204  0.7495
  351MOL0     H46287   5.877   3.008   6.650  1.7835 -1.2940 -0.4087
  351MOL0     H46288   5.666   2.810   6.601  0.0730  0.0999 -1.6865
  351MOL0     H46289   5.656   2.953   6.497 -0.4687  0.8751  0.1536
  351MOL0     H46290   5.678   3.076   6.745  0.1285  1.1556 -1.3741
  351MOL0     H46291   5.541   3.059   6.634 -0.0168 -0.8856 -0.7298
  351MOL0     H46292   5.476   2.989   6.852 -0.8196 -1.1635 -0.8459
  351MOL0     H46293   5.594   2.858   6.868 -3.0083 -2.1096  2.3820
  351MOL0     H46294   5.201   2.693   6.707  2.2468 -1.7549 -1.9427
  351MOL0     H46295   5.060   2.594   6.881  1.3746 -2.5757 -0.9671
  351MOL0     H46296   5.176   2.763   7.481 -0.0457 -0.1677 -1.3389
  351MOL0     H46297   5.051   2.765   7.714  1.0521  1.9977 -0.7221
  351MOL0     H46298   4.876   2.881   7.832  2.2830 -0.9958  1.2852
  351MOL0     H46299   4.910   2.712   7.875  0.1872 -1.4362 -2.5093
  351MOL0     H46300   4.779   2.824   8.039  1.9897  0.7149 -1.0645
  351MOL0     H46301   4.675   2.708   7.971  1.1782  0.2927  2.5258
  351MOL0     H46302   4.584   2.896   7.818  0.5192 -1.6876  0.5976
  351MOL0     H46303   4.697   3.007   7.905  4.7054 -2.0409 -0.5715
  351MOL0     H46304   4.437   2.983   7.980  3.1985  3.8562 -0.7122
  351MOL0     H46305   4.479   2.830   8.050  1.2849 -0.4838  0.1231
  351MOL0     H46306   4.628   2.915   8.210  0.8720 -0.7340 -0.3278
  351MOL0     H46307   4.470   2.990   8.225  0.6835 -4.9108  1.4162
  351MOL0     H46308   4.549   3.192   8.100  0.3371  0.3330 -1.1375
  351MOL0     H46309   4.721   3.129   8.111 -0.1009  1.5491 -0.1093
  351MOL0     H46310   4.709   3.287   8.283 -2.0735 -0.2365 -0.7310
  351MOL0     H46311   4.562   3.218   8.339 -0.4920  0.2069 -1.5527
  351MOL0     H46312   4.684   3.016   8.405  0.5708 -0.9998 -1.3729
  351MOL0     H46313   4.764   3.151   8.466 -2.6454  1.0671  0.2608
  351MOL0     H46314   4.693   2.667   7.489  0.4439 -3.3431  0.0674
  351MOL0     H46315   4.811   2.675   7.286 -0.9729  2.1970  1.2541
  351MOL0     H46316   5.329   2.745   7.180  0.6111 -1.4421  0.5955
  351MOL0     H46317   5.477   2.808   7.024  1.7274 -2.6718 -0.3672
  351MOL0     H46318   5.685   1.870   6.363  0.2178 -1.3069 -0.4384
  351MOL0     H46319   5.564   1.642   6.385 -0.8168 -1.2130  3.4621
  351MOL0     H46320   5.614   1.089   6.624  0.9209  1.3510  0.9855
  351MOL0     H46321   5.398   0.944   6.641 -0.0583 -0.0916  1.7310
  351MOL0     H46322   5.235   0.831   6.633  1.4078  3.5448 -0.9986
  351MOL0     H46323   5.063   0.841   6.658 -1.3107  1.4042 -1.6664
  351MOL0     H46324   5.158   0.817   6.881 -0.7522 -2.7029 -3.2186
  351MOL0     H46325   5.260   0.964   6.854 -0.7135  0.5019  2.6976
  351MOL0     H46326   4.963   1.000   6.827  0.6898 -2.1974 -1.2740
  351MOL0     H46327   5.092   1.114   6.836 -0.1267 -0.8366 -1.8070
  351MOL0     H46328   4.966   1.129   7.021 -0.8711 -0.2600  1.2124
  351MOL0     H46329   4.967   0.951   7.060  1.1516 -1.7705 -1.8505
  351MOL0     H46330   5.327   1.076   7.262 -0.0344 -1.9418  0.2040
  351MOL0     H46331   5.155   1.287   6.571 -0.9622 -0.6260  1.5668
  351MOL0     H46332   5.351   1.414   6.533 -2.0855 -0.3880 -0.5591
  352MOL0     O46333   0.525   2.708   1.876  0.1313 -0.5286  0.1718
  352MOL0     C46334   0.468   2.711   1.988 -1.3627  0.1594  0.8338
  352MOL0     O46335   0.494   2.620   2.089  0.8108 -0.1887 -0.7174
  352MOL0     C46336   0.586   2.524   2.081 -0.0861 -0.0968  0.5559
  352MOL0     C46337   0.574   2.394   2.134  1.4014  0.8679 -0.9863
  352MOL0     C46338   0.679   2.297   2.147  0.7943 -0.3720  0.2587
  352MOL0     C46339   0.814   2.323   2.108  0.2149 -0.6595 -0.1693
  352MOL0     O46340   0.910   2.223   2.123 -0.1797 -1.0140 -0.6459
  352MOL0     C46341   0.918   2.123   2.021 -0.0169 -0.4268 -0.2511
  352MOL0     C46342   0.999   2.178   1.906  0.1894  0.1592 -0.1258
  352MOL0     C46343   1.147   2.141   1.946  0.2827 -0.3995 -0.2097
  352MOL0     C46344   1.251   2.160   1.843 -0.6705  0.0302  0.2591
  352MOL0     C46345   1.389   2.109   1.878 -0.2625  0.1744  0.1385
  352MOL0     C46346   1.452   2.157   2.000  0.1052 -0.9649 -0.7866
  352MOL0     C46347   1.488   2.306   2.002  0.3876 -0.7803  1.0336
  352MOL0     C46348   1.512   2.365   2.133 -0.4265 -1.0792  0.1301
  352MOL0     N46349   1.603   2.304   2.230 -0.2375 -0.1294  0.0196
  352MOL0     C46350   1.565   2.202   2.314 -0.6576 -0.0972  0.3965
  352MOL0     C46351   1.686   2.165   2.367  0.2848 -0.8254  0.7782
  352MOL0     C46352   1.715   2.059   2.468 -0.3032  0.0491  0.3686
  352MOL0     C46353   1.680   2.102   2.613 -0.8065 -0.3588  0.6215
  352MOL0     C46354   1.752   2.013   2.726  0.5006 -0.1978 -0.1447
  352MOL0     C46355   1.690   1.869   2.730 -0.8071  0.2830  0.0069
  352MOL0     O46356   1.764   1.800   2.828 -0.0455 -0.1353  0.0201
  352MOL0     C46357   1.722   1.675   2.860 -0.5763 -1.1519  0.0183
  352MOL0     C46358   1.640   1.577   2.783  0.0833  0.1500 -0.1683
  352MOL0     C46359   1.609   1.452   2.824 -0.9172 -0.1708  0.3909
  352MOL0     C46360   1.671   1.398   2.937  0.1654 -0.9669  0.0472
  352MOL0     C46361   1.632   1.258   2.981 -1.0477  0.8149 -0.1609
  352MOL0     O46362   1.645   1.239   3.113  0.0334 -0.0102 -0.4920
  352MOL0     C46363   1.643   1.108   3.148  0.5656  0.2924 -0.7292
  352MOL0     C46364   1.729   1.008   3.092  0.9982 -0.7928 -0.4386
  352MOL0     C46365   1.727   0.879   3.127  1.0546  0.3550  0.4649
  352MOL0     C46366   1.635   0.828   3.222  0.7405 -0.0052 -0.6075
  352MOL0     O46367   1.633   0.692   3.257  0.0366 -0.9891  1.1532
  352MOL0     C46368   1.535   0.637   3.349 -0.3398  0.4632  0.1012
  352MOL0     C46369   1.593   0.518   3.397 -0.1214 -0.0310 -0.1720
  352MOL0     C46370   1.521   0.433   3.500  1.0324  0.6166 -0.8437
  352MOL0     C46371   1.618   0.312   3.538  0.6039 -0.2947 -0.4454
  352MOL0     C46372   1.601   0.189   3.453  0.2569 -0.7567 -0.7203
  352MOL0     C46373   1.469   0.105   3.456 -0.4840 -0.7581  0.0852
  352MOL0     C46374   1.458   0.031   3.321  0.5022 -0.5826  0.4938
  352MOL0     C46375   1.337  -0.058   3.329 -0.7784  1.1296 -0.1090
  352MOL0    Cl46376   1.373  -0.190   3.435  0.5296 -0.1218 -0.4436
  352MOL0     C46377   1.546   0.925   3.279  0.3765 -0.5319  0.3094
  352MOL0     C46378   1.551   1.064   3.248  0.1286  0.2169 -0.2091
  352MOL0     O46379   1.600   1.176   2.894  0.0266 -0.1557 -0.1836
  352MOL0     C46380   1.741   1.491   3.014  0.0028  0.9608 -0.2608
  352MOL0     C46381   1.766   1.623   2.977 -0.1535  0.5223 -0.2855
  352MOL0     N46382   1.778   2.256   2.337 -1.1479  0.5498 -0.4929
  352MOL0     N46383   1.734   2.327   2.239 -0.0195 -0.1871 -1.2303
  352MOL0     C46384   0.832   2.456   2.041 -0.3985  0.2076  0.4202
  352MOL0     C46385   0.718   2.550   2.033  0.1867  0.2054  0.2130
  352MOL0     C46386   0.371   2.807   2.012  0.0679  0.3271  1.0216
  352MOL0     C46387   0.357   2.911   1.918  0.9884 -0.3264  0.6644
  352MOL0     C46388   0.282   3.025   1.951 -0.1164 -0.5326 -0.5689
  352MOL0     C46389   0.206   3.024   2.067  1.1819  0.4990 -0.0305
  352MOL0     O46390   0.124   3.135   2.082 -0.5816  0.1478 -0.2966
  352MOL0     C46391   0.088   3.184   2.210  0.3450 -1.3601 -2.1200
  352MOL0     C46392   0.013   3.316   2.187 -0.3571  0.3990 -0.2649
  352MOL0     C46393   0.099   3.408   2.105  0.0750 -0.8940 -0.1548
  352MOL0     C46394   0.061   3.549   2.121  0.2736 -0.4491 -0.4769
  352MOL0     C46395  -0.083   3.582   2.087  0.0179  0.2260 -0.7583
  352MOL0     C46396  -0.194   3.601   2.065  0.7381  0.0142 -0.8434
  352MOL0     C46397   0.224   2.924   2.168 -0.3169  1.2806 -0.9898
  352MOL0     C46398   0.304   2.817   2.142  0.6166 -0.7290  0.6184
  352MOL0     H46399   0.480   2.365   2.180  2.0646 -1.4909 -1.0281
  352MOL0     H46400   0.680   2.194   2.181  5.3369 -1.0295 -1.2305
  352MOL0     H46401   0.820   2.096   1.980  0.3460  0.7172 -1.9430
  352MOL0     H46402   0.964   2.035   2.067  2.0068  0.9235  0.4315
  352MOL0     H46403   0.978   2.283   1.883 -0.7538  0.2312  0.9549
  352MOL0     H46404   0.974   2.112   1.823 -1.2428  1.1761 -0.5315
  352MOL0     H46405   1.158   2.035   1.973 -0.0505 -0.5693 -0.7217
  352MOL0     H46406   1.182   2.199   2.031 -0.4155 -2.0453  1.2653
  352MOL0     H46407   1.204   2.118   1.754 -0.0693  2.6818 -1.4333
  352MOL0     H46408   1.258   2.269   1.830  1.5198 -0.1096 -0.2337
  352MOL0     H46409   1.456   2.133   1.795  0.5199 -1.9119  0.1153
  352MOL0     H46410   1.384   2.001   1.889  0.7249  0.2792  2.1858
  352MOL0     H46411   1.540   2.093   2.016 -0.6798 -1.5470  1.7666
  352MOL0     H46412   1.382   2.133   2.081  1.2800  2.3149  1.4277
  352MOL0     H46413   1.576   2.319   1.938 -1.6975 -3.4638 -2.7168
  352MOL0     H46414   1.408   2.357   1.950  2.0003  0.5675 -0.2395
  352MOL0     H46415   1.410   2.367   2.175 -0.8090 -0.5458 -0.7978
  352MOL0     H46416   1.557   2.463   2.118 -3.5147  1.0667  3.1017
  352MOL0     H46417   1.468   2.157   2.331 -1.2585  1.1786  0.4962
  352MOL0     H46418   1.820   2.032   2.460 -0.5700 -0.8630 -0.0841
  352MOL0     H46419   1.646   1.976   2.450 -1.5806  0.7562  1.7205
  352MOL0     H46420   1.571   2.108   2.617 -0.7595  2.1903  0.0245
  352MOL0     H46421   1.721   2.202   2.628  1.7952 -1.3591  0.7539
  352MOL0     H46422   1.861   2.009   2.718  0.5804 -1.7353  1.1269
  352MOL0     H46423   1.736   2.066   2.821 -0.0938 -0.1656 -0.2586
  352MOL0     H46424   1.705   1.830   2.629 -0.1308 -0.3842  0.3474
  352MOL0     H46425   1.582   1.861   2.741 -1.2142  0.2089 -3.1089
  352MOL0     H46426   1.581   1.606   2.697 -1.1974 -2.8433 -0.4128
  352MOL0     H46427   1.541   1.387   2.769 -1.0683  0.2628  0.0666
  352MOL0     H46428   1.792   1.054   3.017  0.8107  3.0358  1.5141
  352MOL0     H46429   1.793   0.800   3.091  1.0934 -0.0004  1.2859
  352MOL0     H46430   1.438   0.622   3.300 -0.2003  1.5776 -0.5560
  352MOL0     H46431   1.518   0.709   3.430 -1.0883  3.1370 -2.2522
  352MOL0     H46432   1.694   0.530   3.437  1.9316 -3.7603 -3.4819
  352MOL0     H46433   1.615   0.467   3.303  0.0058  0.3274 -0.3416
  352MOL0     H46434   1.417   0.420   3.471  0.9198  1.6999 -0.9550
  352MOL0     H46435   1.515   0.482   3.598  1.5465  0.2837 -0.6338
  352MOL0     H46436   1.721   0.351   3.543  0.1477  0.8035  1.6961
  352MOL0     H46437   1.597   0.284   3.641  0.3978  1.4891  0.0388
  352MOL0     H46438   1.679   0.118   3.480 -0.9873 -2.8067 -2.3020
  352MOL0     H46439   1.608   0.226   3.351 -0.4678  0.5769 -0.3126
  352MOL0     H46440   1.385   0.174   3.469  1.5879  1.9470  0.0560
  352MOL0     H46441   1.480   0.037   3.541  1.8715  1.7609  1.9918
  352MOL0     H46442   1.447   0.094   3.232  0.2379 -0.0564  0.8989
  352MOL0     H46443   1.550  -0.027   3.313  0.9975 -0.6407  4.5983
  352MOL0     H46444   1.324  -0.099   3.228  3.7473 -0.8022 -0.1342
  352MOL0     H46445   1.254  -0.000   3.370  0.6203  2.9869  0.2562
  352MOL0     H46446   1.475   0.894   3.356 -0.8688 -1.6530 -1.2301
  352MOL0     H46447   1.486   1.138   3.293  1.0908  2.2372 -1.9902
  352MOL0     H46448   1.782   1.450   3.106  1.1515 -4.6630 -2.8488
  352MOL0     H46449   1.828   1.678   3.048  0.1309 -0.6387  0.3923
  352MOL0     H46450   0.931   2.465   1.997  0.0149  0.1276  1.3323
  352MOL0     H46451   0.731   2.649   1.991 -0.9857  0.0354 -0.5723
  352MOL0     H46452   0.401   2.894   1.820  1.4595 -1.9172  1.1227
  352MOL0     H46453   0.254   3.102   1.879 -1.3975  1.6008  2.0287
  352MOL0     H46454   0.164   3.217   2.281 -1.5256  1.0550 -1.1021
  352MOL0     H46455   0.023   3.105   2.250 -0.6543 -0.9803 -2.9591
  352MOL0     H46456  -0.084   3.305   2.137 -0.7118 -0.2000  0.5210
  352MOL0     H46457   0.004   3.350   2.291  0.2610 -2.9224  1.0185
  352MOL0     H46458   0.076   3.389   2.000 -1.3959 -1.2093  0.2058
  352MOL0     H46459   0.206   3.397   2.125 -0.2913  1.2922  4.1560
  352MOL0     H46460   0.081   3.580   2.224  2.1591 -1.5999 -0.4598
  352MOL0     H46461   0.125   3.613   2.060 -0.6482  0.9918  0.0198
  352MOL0     H46462  -0.294   3.628   2.038 -0.4690 -0.0909  2.9708
  352MOL0     H46463   0.179   2.957   2.260  2.2325  5.5607 -1.0248
  352MOL0     H46464   0.315   2.738   2.216  0.0489 -0.9737  0.4475
  353MOL0     O46465   5.904   5.002   9.034  0.7497  0.7516 -0.0280
  353MOL0     C46466   5.842   5.057   8.948  0.9260  1.6982  1.1693
  353MOL0     O46467   5.712   5.051   8.934  0.0131  0.2542  0.6560
  353MOL0     C46468   5.631   4.981   9.008 -0.6042 -0.0668  0.1838
  353MOL0     C46469   5.511   5.046   9.042 -0.1699  0.1927 -0.1969
  353MOL0     C46470   5.423   4.968   9.120 -0.0639  0.6039 -0.7700
  353MOL0     C46471   5.450   4.834   9.162  0.3281  0.0740 -0.6903
  353MOL0     O46472   5.362   4.775   9.246  0.8847 -0.0739  0.1445
  353MOL0     C46473   5.371   4.643   9.297  0.5073 -0.3460 -0.1750
  353MOL0     C46474   5.331   4.549   9.184 -1.0509  0.6479 -0.2939
  353MOL0     C46475   5.180   4.523   9.171 -0.0380  0.3011  0.5345
  353MOL0     C46476   5.147   4.462   9.029 -0.6454 -0.2802  0.7525
  353MOL0     C46477   5.006   4.440   8.995  0.8002 -0.0879 -1.2041
  353MOL0     C46478   4.935   4.350   9.094 -0.4252  0.1259 -0.8648
  353MOL0     C46479   4.795   4.325   9.037  1.0462  0.0126 -1.0438
  353MOL0     C46480   4.721   4.255   9.157  0.1100 -0.3480  0.7631
  353MOL0     N46481   4.604   4.184   9.109 -0.2088  0.5504 -1.0312
  353MOL0     C46482   4.482   4.219   9.162  0.1683 -0.9599 -0.6416
  353MOL0     C46483   4.413   4.105   9.184 -0.0813  0.7487 -0.1471
  353MOL0     C46484   4.269   4.098   9.230  0.4130  0.4571  0.5946
  353MOL0     C46485   4.236   4.199   9.335 -0.4665  0.8640 -0.1440
  353MOL0     C46486   4.161   4.131   9.459 -0.2379  0.4481 -0.1088
  353MOL0     C46487   4.255   4.067   9.562  0.9470 -0.0623  0.0820
  353MOL0     O46488   4.168   4.043   9.681 -0.0877 -0.9313  0.4718
  353MOL0     C46489   4.193   3.941   9.769  0.1144 -0.0071  0.9163
  353MOL0     C46490   4.076   3.883   9.832  0.3388 -0.1374 -0.2314
  353MOL0     C46491   4.089   3.790   9.937  0.7766 -0.6997  0.5439
  353MOL0     C46492   4.214   3.744   9.978 -0.5373 -0.1440  1.0071
  353MOL0     C46493   4.236   3.630  10.078  1.2888  0.0361 -0.2823
  353MOL0     O46494   4.126   3.540  10.073 -0.0628  0.2707  0.1876
  353MOL0     C46495   4.107   3.461  10.183 -1.0067  0.5645  0.2954
  353MOL0     C46496   4.112   3.326  10.162 -0.5451  0.4308  0.3190
  353MOL0     C46497   4.110   3.235  10.267  0.7943  1.0558 -1.1259
  353MOL0     C46498   4.098   3.278  10.399  0.0525 -0.7943  0.4192
  353MOL0     O46499   4.103   3.214  10.514  0.0159  0.1280 -0.5315
  353MOL0     C46500   4.107   3.073  10.508  0.2734  0.5616  0.6154
  353MOL0     C46501   4.001   3.023  10.600  0.7055  0.2272 -0.3876
  353MOL0     C46502   3.975   2.872  10.588  0.2578 -0.7170 -0.5156
  353MOL0     C46503   4.095   2.789  10.628 -0.1227  0.5855 -0.0536
  353MOL0     C46504   4.094   2.647  10.574 -0.1953  0.4340 -0.4175
  353MOL0     C46505   4.123   2.626  10.425 -0.5548  0.4614  0.7774
  353MOL0     C46506   4.259   2.690  10.386 -0.7758  0.4829  0.3900
  353MOL0     C46507   4.303   2.646  10.250 -0.1143  0.3096  1.0514
  353MOL0    Cl46508   4.232   2.765  10.130  0.6559 -0.3301 -0.3590
  353MOL0     C46509   4.092   3.421  10.418  0.1380 -0.3416  0.8057
  353MOL0     C46510   4.094   3.511  10.309  0.4647 -0.5952 -0.7979
  353MOL0     O46511   4.321   3.631  10.152 -0.7912  0.1029  0.1247
  353MOL0     C46512   4.325   3.791   9.905 -0.9491 -1.1588  0.3266
  353MOL0     C46513   4.320   3.886   9.799 -0.3292  1.1564  0.2652
  353MOL0     N46514   4.496   4.002   9.143 -0.8711 -0.4260  0.7361
  353MOL0     N46515   4.606   4.054   9.097 -0.8816  0.3991  0.1592
  353MOL0     C46516   5.574   4.779   9.124  0.4995  0.0363 -0.4982
  353MOL0     C46517   5.657   4.849   9.050 -0.0488  0.1835  0.0882
  353MOL0     C46518   5.913   5.128   8.846 -1.0035  0.3186  0.0864
  353MOL0     C46519   5.849   5.191   8.729  0.6427  0.7748  0.2154
  353MOL0     C46520   5.921   5.268   8.634  1.9152 -0.1449  0.0283
  353MOL0     C46521   6.058   5.291   8.652 -0.0106  0.7086 -1.1345
  353MOL0     O46522   6.114   5.374   8.551 -0.2605  0.6191 -0.2143
  353MOL0     C46523   6.252   5.428   8.566  0.2020 -0.4144  0.0947
  353MOL0     C46524   6.243   5.566   8.633 -0.4533 -0.5040 -0.6666
  353MOL0     C46525   6.383   5.636   8.647 -0.7675  0.7658 -0.6304
  353MOL0     C46526   6.362   5.791   8.668 -0.7322  0.8622  0.7305
  353MOL0     C46527   6.491   5.859   8.648  0.1210 -0.3655 -1.0810
  353MOL0     C46528   6.591   5.919   8.614  0.0330  0.7639  0.3954
  353MOL0     C46529   6.120   5.233   8.771  0.3633 -0.5822  0.5609
  353MOL0     C46530   6.047   5.160   8.863 -0.0699 -0.3295 -0.4979
  353MOL0     H46531   5.479   5.143   9.005 -1.3254 -0.4635 -0.9915
  353MOL0     H46532   5.343   5.021   9.172  0.1753  0.6480 -0.4406
  353MOL0     H46533   5.326   4.624   9.395  1.4474 -0.6510  0.2133
  353MOL0     H46534   5.479   4.625   9.309  0.9281  1.5771 -0.6741
  353MOL0     H46535   5.373   4.449   9.199 -0.0122  1.2622  1.1043
  353MOL0     H46536   5.373   4.590   9.092  0.8491  1.6865  0.9761
  353MOL0     H46537   5.126   4.619   9.168  0.7814  0.7614 -0.5805
  353MOL0     H46538   5.140   4.474   9.260 -1.7002  1.5467  0.5243
  353MOL0     H46539   5.187   4.537   8.960  0.1382 -1.2354  0.1487
  353MOL0     H46540   5.208   4.372   9.015  2.8898  2.2188 -1.6694
  353MOL0     H46541   5.001   4.397   8.894  0.9251 -0.2587 -1.1389
  353MOL0     H46542   4.949   4.533   9.000  1.2666  0.2212 -1.5491
  353MOL0     H46543   4.934   4.408   9.187  1.8463  0.4149 -0.9659
  353MOL0     H46544   4.983   4.252   9.095 -1.3034 -0.3155  0.8661
  353MOL0     H46545   4.739   4.418   9.021 -0.5511 -0.6065  0.6003
  353MOL0     H46546   4.787   4.256   8.952 -4.0942  1.3160 -1.9513
  353MOL0     H46547   4.700   4.330   9.234 -1.3954 -0.9469  0.9630
  353MOL0     H46548   4.789   4.177   9.194  0.9707  0.4293  0.8670
  353MOL0     H46549   4.446   4.316   9.194 -0.0415 -0.3201 -2.7129
  353MOL0     H46550   4.255   3.997   9.271  2.5083 -0.3177 -0.4558
  353MOL0     H46551   4.197   4.108   9.148  1.7835  0.0600 -0.6986
  353MOL0     H46552   4.154   4.251   9.284 -1.4670 -0.4570  0.0419
  353MOL0     H46553   4.320   4.259   9.370 -0.5757  0.9364 -0.0049
  353MOL0     H46554   4.103   4.206   9.513  1.8222  0.7790  1.7707
  353MOL0     H46555   4.091   4.056   9.420  0.9862 -0.5633 -0.4415
  353MOL0     H46556   4.336   4.135   9.592 -0.9232  1.5916  1.8050
  353MOL0     H46557   4.308   3.984   9.517 -2.0820 -0.1867 -3.7671
  353MOL0     H46558   3.983   3.936   9.814 -1.2768 -1.8911  2.3622
  353MOL0     H46559   4.004   3.762   9.998  0.7793 -0.4326  0.6699
  353MOL0     H46560   4.115   3.283  10.062 -1.6783 -2.0168  1.2611
  353MOL0     H46561   4.115   3.132  10.233 -5.1942 -0.4710  1.3502
  353MOL0     H46562   4.202   3.031  10.545 -0.5134  0.0626  2.1599
  353MOL0     H46563   4.088   3.033  10.408 -1.7842  2.3713  0.2048
  353MOL0     H46564   3.913   3.081  10.568  1.0629  2.4528  2.2756
  353MOL0     H46565   4.020   3.042  10.706  2.1043  0.1736 -0.6124
  353MOL0     H46566   3.955   2.842  10.485  0.3432  1.1655 -1.1097
  353MOL0     H46567   3.888   2.845  10.650 -0.8191 -2.1877 -2.5562
  353MOL0     H46568   4.199   2.821  10.617 -0.1353  0.4490 -0.5844
  353MOL0     H46569   4.079   2.779  10.736  1.1479  0.7457  0.1707
  353MOL0     H46570   4.005   2.597  10.614 -1.5732  2.5388 -0.6668
  353MOL0     H46571   4.177   2.596  10.624  2.1696  0.6150 -3.8512
  353MOL0     H46572   4.044   2.677  10.369 -0.6323  0.7919  1.1894
  353MOL0     H46573   4.118   2.521  10.391 -0.2017  0.9947 -1.0526
  353MOL0     H46574   4.258   2.799  10.397  2.9441  0.4483  2.9385
  353MOL0     H46575   4.334   2.642  10.449  0.6217 -0.1345 -1.6691
  353MOL0     H46576   4.265   2.547  10.222 -1.1479  1.3940 -1.7542
  353MOL0     H46577   4.411   2.658  10.238 -0.4596  1.3240 -1.7178
  353MOL0     H46578   4.083   3.466  10.516 -2.6364  0.9215  0.0913
  353MOL0     H46579   4.103   3.618  10.318  1.1035 -0.5389 -1.9307
  353MOL0     H46580   4.428   3.776   9.936 -1.5792 -2.4399  1.9546
  353MOL0     H46581   4.414   3.925   9.760 -1.7186  2.4545 -2.0183
  353MOL0     H46582   5.599   4.675   9.138  0.7334  0.1481 -0.0586
  353MOL0     H46583   5.748   4.799   9.018 -0.9871 -1.7036  0.2315
  353MOL0     H46584   5.744   5.166   8.718  0.6946  0.1855  1.0060
  353MOL0     H46585   5.870   5.306   8.546  1.6035  0.7782  0.5848
  353MOL0     H46586   6.307   5.425   8.472  0.7047 -3.0785  0.3930
  353MOL0     H46587   6.305   5.370   8.642 -0.4632 -2.8996 -1.2504
  353MOL0     H46588   6.171   5.631   8.583 -1.4638  0.1999  1.5767
  353MOL0     H46589   6.201   5.541   8.731  0.0066 -1.2453 -0.6520
  353MOL0     H46590   6.459   5.619   8.571 -0.7752 -2.1994 -0.0977
  353MOL0     H46591   6.427   5.602   8.741 -1.5566 -3.0695 -1.4692
  353MOL0     H46592   6.296   5.825   8.588  1.1651  2.1733 -0.3620
  353MOL0     H46593   6.330   5.803   8.772 -0.2606  0.4532  0.9247
  353MOL0     H46594   6.683   5.969   8.594  0.7973 -0.8088 -0.1694
  353MOL0     H46595   6.224   5.244   8.800  0.4830 -2.8120  1.1629
  353MOL0     H46596   6.103   5.115   8.944  0.9624  0.2786 -0.8678
  354MOL0     O46597   2.572   7.521   5.677  0.2370  0.1606  0.2355
  354MOL0     C46598   2.501   7.536   5.775  0.0760  1.0142  0.9833
  354MOL0     O46599   2.515   7.635   5.876 -0.0879 -1.5762 -0.1108
  354MOL0     C46600   2.614   7.730   5.843  0.4420 -0.2985  0.4106
  354MOL0     C46601   2.752   7.716   5.878 -0.5720  0.6741 -0.3576
  354MOL0     C46602   2.842   7.811   5.833  0.7484  0.0023 -0.1271
  354MOL0     C46603   2.789   7.921   5.760 -0.2973  0.0885  0.0334
  354MOL0     O46604   2.883   8.013   5.731  0.1401  0.7920  1.0619
  354MOL0     C46605   2.838   8.146   5.725  0.4282  0.2849  0.3304
  354MOL0     C46606   2.948   8.224   5.682  0.1098  0.4742 -0.2054
  354MOL0     C46607   3.079   8.205   5.767 -0.2478  0.2305  0.1379
  354MOL0     C46608   3.171   8.326   5.765  0.3372  0.3665  1.2033
  354MOL0     C46609   3.310   8.314   5.831 -0.1484  0.7545 -0.5830
  354MOL0     C46610   3.312   8.328   5.983  0.2899 -0.5560 -0.5518
  354MOL0     C46611   3.450   8.344   6.032 -0.4812  0.0401 -0.8621
  354MOL0     C46612   3.528   8.207   6.037 -0.1702 -0.2229  0.2941
  354MOL0     N46613   3.638   8.243   6.128  0.8636 -0.1120  0.6258
  354MOL0     C46614   3.750   8.314   6.101 -0.0711  0.3747  0.4536
  354MOL0     C46615   3.814   8.353   6.215  0.2851 -0.6652 -0.1944
  354MOL0     C46616   3.937   8.432   6.253  0.6565 -0.0340 -1.0974
  354MOL0     C46617   4.078   8.384   6.209 -0.0532 -0.6284  0.6486
  354MOL0     C46618   4.093   8.236   6.196 -0.2926 -0.9450 -0.5542
  354MOL0     C46619   4.219   8.194   6.258  0.4123 -0.4269  0.4716
  354MOL0     O46620   4.254   8.050   6.256  0.1287 -0.7153  0.2986
  354MOL0     C46621   4.222   7.980   6.148 -0.6130 -0.3869 -0.2826
  354MOL0     C46622   4.100   7.910   6.140 -0.0873 -0.2333  0.8995
  354MOL0     C46623   4.065   7.838   6.020 -0.2075  0.4284  1.2486
  354MOL0     C46624   4.158   7.846   5.910  0.1831  0.2554 -1.2233
  354MOL0     C46625   4.127   7.778   5.786 -0.3410  0.6941  0.0617
  354MOL0     O46626   4.227   7.744   5.702  0.3869 -0.0504 -0.1279
  354MOL0     C46627   4.212   7.661   5.596 -0.1653 -0.5645 -0.3628
  354MOL0     C46628   4.160   7.724   5.481 -0.6936 -0.1105  0.2856
  354MOL0     C46629   4.164   7.652   5.359  0.2163 -0.3451 -0.4080
  354MOL0     C46630   4.205   7.519   5.359  0.4978 -0.0924 -0.2181
  354MOL0     O46631   4.210   7.463   5.240  0.5017  0.4178 -0.0804
  354MOL0     C46632   4.157   7.321   5.230 -0.0082  0.8205  0.0295
  354MOL0     C46633   3.995   7.331   5.231  0.2473  0.3605 -0.8627
  354MOL0     C46634   3.927   7.217   5.156 -0.2133 -0.1924 -0.3739
  354MOL0     C46635   3.927   7.099   5.256 -0.1372  0.4009  0.0863
  354MOL0     C46636   3.806   7.009   5.207  0.0109  1.0437 -0.1945
  354MOL0     C46637   3.803   6.880   5.290 -0.2425 -0.2345  0.2658
  354MOL0     C46638   3.690   6.774   5.265  0.6757  0.0740  0.2617
  354MOL0     C46639   3.721   6.680   5.145 -0.2021  0.4597 -0.1650
  354MOL0    Cl46640   3.737   6.772   4.981  0.1879 -0.3858 -0.3369
  354MOL0     C46641   4.231   7.458   5.481  0.6751  1.0463  0.3018
  354MOL0     C46642   4.244   7.528   5.600  0.2951 -0.1655 -0.6036
  354MOL0     O46643   4.018   7.721   5.783  0.7001  0.4162 -0.0903
  354MOL0     C46644   4.280   7.914   5.930 -0.0058  0.1501 -0.0483
  354MOL0     C46645   4.308   7.979   6.044  0.4468 -0.7010 -0.2681
  354MOL0     N46646   3.730   8.304   6.312  0.0765  0.1844 -0.6924
  354MOL0     N46647   3.625   8.245   6.263  0.4492  0.2103 -0.4114
  354MOL0     C46648   2.650   7.936   5.735 -0.4465  0.6289  0.3826
  354MOL0     C46649   2.570   7.834   5.783  0.8637 -0.8080 -0.5705
  354MOL0     C46650   2.398   7.435   5.795  0.2460  1.1601 -0.7979
  354MOL0     C46651   2.274   7.465   5.847  0.6954  0.1818 -0.2284
  354MOL0     C46652   2.167   7.367   5.860 -0.1833  0.5651 -0.3849
  354MOL0     C46653   2.202   7.242   5.820  0.1979 -0.7423  0.0343
  354MOL0     O46654   2.097   7.158   5.849  0.1981 -0.4848  0.6769
  354MOL0     C46655   2.107   7.024   5.825  0.5859  0.2439  0.5538
  354MOL0     C46656   2.178   6.940   5.936 -0.6214  1.6661  0.9601
  354MOL0     C46657   2.203   6.793   5.886 -0.2586 -0.4158  0.4171
  354MOL0     C46658   2.260   6.704   5.995 -0.3582  0.1919 -1.1056
  354MOL0     C46659   2.252   6.559   5.993 -0.0619 -0.4867  0.2571
  354MOL0     C46660   2.232   6.440   5.996 -0.4715  0.3073  0.2646
  354MOL0     C46661   2.327   7.199   5.771  0.5568  0.1635  0.5824
  354MOL0     C46662   2.420   7.302   5.747  0.2119 -1.5765  1.2129
  354MOL0     H46663   2.788   7.631   5.936  1.3826 -1.0077 -3.7306
  354MOL0     H46664   2.949   7.805   5.844  0.5501 -2.7627  0.9357
  354MOL0     H46665   2.814   8.181   5.826  0.1671 -2.0446  1.1444
  354MOL0     H46666   2.760   8.169   5.653  0.4758  1.0945  0.5216
  354MOL0     H46667   2.917   8.327   5.704 -2.1869 -0.5825  1.9580
  354MOL0     H46668   2.978   8.205   5.578  3.6021 -2.0653  1.0798
  354MOL0     H46669   3.132   8.118   5.729  2.8984  2.4925 -1.0118
  354MOL0     H46670   3.045   8.184   5.870 -3.6581  2.9161 -0.2516
  354MOL0     H46671   3.192   8.336   5.658 -0.1909 -2.2541  0.8053
  354MOL0     H46672   3.117   8.412   5.806 -1.1499 -0.2195  0.5421
  354MOL0     H46673   3.372   8.396   5.794 -2.3813  1.6351 -2.6759
  354MOL0     H46674   3.356   8.217   5.811 -1.2264  0.1877 -0.3882
  354MOL0     H46675   3.262   8.245   6.035 -1.1129  0.8629  0.4635
  354MOL0     H46676   3.242   8.407   6.014 -0.0795  0.2153 -3.1216
  354MOL0     H46677   3.494   8.419   5.965 -0.6014  1.4225  0.5525
  354MOL0     H46678   3.457   8.395   6.128  0.0932 -2.0295  0.2531
  354MOL0     H46679   3.565   8.180   5.938  2.4981  3.8941 -0.1130
  354MOL0     H46680   3.469   8.124   6.075 -3.0233  1.5415 -0.0129
  354MOL0     H46681   3.762   8.356   6.001 -1.2310 -3.6768 -1.6136
  354MOL0     H46682   3.938   8.456   6.360  1.2886  0.5430 -1.2199
  354MOL0     H46683   3.945   8.532   6.208  0.4851  0.6139  0.2656
  354MOL0     H46684   4.146   8.416   6.289 -1.3628 -1.8277  2.3260
  354MOL0     H46685   4.110   8.435   6.118  0.5605 -0.9727  0.6670
  354MOL0     H46686   4.010   8.172   6.228  0.5670 -1.3595  0.9065
  354MOL0     H46687   4.110   8.217   6.090 -2.1626  0.1953 -1.1116
  354MOL0     H46688   4.221   8.228   6.362 -1.3502  1.1922  0.0437
  354MOL0     H46689   4.303   8.234   6.200  0.0535  0.3388  0.4637
  354MOL0     H46690   4.016   7.915   6.209 -2.0542 -0.0682 -1.3768
  354MOL0     H46691   3.966   7.793   6.018 -0.0656  0.1293  0.0675
  354MOL0     H46692   4.139   7.830   5.493  5.0504  1.4662 -0.7944
  354MOL0     H46693   4.125   7.710   5.276 -4.0888 -1.7558  0.3372
  354MOL0     H46694   4.209   7.259   5.304  1.9933  0.5779 -1.5013
  354MOL0     H46695   4.189   7.277   5.135  0.0836 -1.5397  1.0905
  354MOL0     H46696   3.966   7.425   5.184  0.3358  1.2224  0.7601
  354MOL0     H46697   3.967   7.346   5.336 -0.2092  1.8754 -1.1786
  354MOL0     H46698   3.975   7.177   5.067 -1.3841  0.6369 -1.4096
  354MOL0     H46699   3.826   7.251   5.131 -0.7590  0.0314  1.9330
  354MOL0     H46700   4.026   7.053   5.256 -0.8648 -1.4003  2.6245
  354MOL0     H46701   3.903   7.126   5.359 -0.0862  3.4701 -0.6146
  354MOL0     H46702   3.815   6.982   5.102 -3.1001  1.4150 -0.6485
  354MOL0     H46703   3.708   7.056   5.218  0.1345  1.1711  0.4419
  354MOL0     H46704   3.799   6.911   5.395 -1.2354  2.0897 -0.3890
  354MOL0     H46705   3.902   6.835   5.273 -1.0525 -1.7035 -0.7572
  354MOL0     H46706   3.690   6.712   5.354  0.2275 -1.2271 -0.6066
  354MOL0     H46707   3.588   6.814   5.268  0.1453 -1.1483  4.2361
  354MOL0     H46708   3.649   6.599   5.128  2.3734 -1.7899 -0.9617
  354MOL0     H46709   3.816   6.629   5.158  0.0595  0.1928 -2.6416
  354MOL0     H46710   4.274   7.359   5.468 -0.8053  0.4446 -0.3062
  354MOL0     H46711   4.295   7.496   5.690  0.2726  1.2076 -0.0700
  354MOL0     H46712   4.358   7.907   5.855  2.5442  0.5031  2.4052
  354MOL0     H46713   4.404   8.026   6.059  0.6326 -0.6440 -1.5758
  354MOL0     H46714   2.603   8.011   5.673 -1.5859 -0.8944 -0.6863
  354MOL0     H46715   2.471   7.846   5.741  1.1061 -1.2479 -1.2818
  354MOL0     H46716   2.249   7.568   5.868  1.5771  0.2516  0.6020
  354MOL0     H46717   2.074   7.393   5.910  0.4575 -0.8400  1.6388
  354MOL0     H46718   2.148   6.997   5.728  0.2837 -2.3472  1.0654
  354MOL0     H46719   2.003   6.992   5.814  0.5219  1.2957 -3.8051
  354MOL0     H46720   2.274   6.985   5.964  0.6789 -1.3010  1.7577
  354MOL0     H46721   2.108   6.933   6.020 -0.1876 -0.6200  1.2005
  354MOL0     H46722   2.272   6.797   5.802  0.8651  3.0084  1.3272
  354MOL0     H46723   2.103   6.757   5.860  0.1320 -1.6460  0.5541
  354MOL0     H46724   2.367   6.724   6.005  0.0359 -2.5026  1.6612
  354MOL0     H46725   2.220   6.747   6.087 -2.4772 -1.1119 -1.3494
  354MOL0     H46726   2.221   6.334   6.001 -0.9776  0.0119 -3.7318
  354MOL0     H46727   2.337   7.095   5.742 -0.8068 -0.4947  2.3154
  354MOL0     H46728   2.495   7.279   5.672 -1.3823 -0.6531 -0.7509
  355MOL0     O46729   3.627   6.870  10.083  0.0977  0.7868 -0.8490
  355MOL0     C46730   3.625   6.786  10.171 -0.4727  0.2045  0.1944
  355MOL0     O46731   3.539   6.691  10.176 -0.2777 -0.8736 -0.0986
  355MOL0     C46732   3.486   6.652  10.055 -0.5269 -0.5631  0.0845
  355MOL0     C46733   3.373   6.712  10.007 -0.4205 -0.2803  0.2704
  355MOL0     C46734   3.321   6.672   9.882  0.0081  0.3245 -0.5862
  355MOL0     C46735   3.384   6.579   9.796 -0.5216  0.2451 -0.7510
  355MOL0     O46736   3.343   6.556   9.664  1.2065  0.3607  0.6954
  355MOL0     C46737   3.435   6.515   9.563 -0.9862  0.9259 -0.4395
  355MOL0     C46738   3.439   6.360   9.575 -0.0009  0.3355 -0.3924
  355MOL0     C46739   3.339   6.293   9.477 -0.0986 -0.4432 -0.0288
  355MOL0     C46740   3.356   6.135   9.490  0.4779  0.9361  0.3471
  355MOL0     C46741   3.329   6.067   9.628 -0.4529  0.2424 -0.2446
  355MOL0     C46742   3.442   6.025   9.715  0.3201 -0.3736 -0.8086
  355MOL0     C46743   3.516   5.902   9.661 -1.4026 -0.7660  0.3526
  355MOL0     C46744   3.659   5.892   9.716 -0.1184 -0.2479  0.5726
  355MOL0     N46745   3.662   5.881   9.862  0.5861 -0.1931 -1.2396
  355MOL0     C46746   3.593   5.794   9.940  0.4431  0.5146 -0.0818
  355MOL0     C46747   3.652   5.806  10.063 -0.6105  0.4574  0.1096
  355MOL0     C46748   3.613   5.745  10.193  0.2170 -0.5696  1.4064
  355MOL0     C46749   3.528   5.841  10.270  0.3331  0.4124 -0.4329
  355MOL0     C46750   3.394   5.902  10.225  0.2234  0.3904  1.1349
  355MOL0     C46751   3.410   6.025  10.133 -0.6123 -0.1856 -0.4780
  355MOL0     O46752   3.286   6.065  10.076  0.1484  0.0824 -0.2429
  355MOL0     C46753   3.235   6.188  10.120 -0.5544 -0.2649 -0.3232
  355MOL0     C46754   3.206   6.296  10.028  0.1916  0.5798  0.0257
  355MOL0     C46755   3.155   6.414  10.077  0.9869 -0.5027 -0.2056
  355MOL0     C46756   3.120   6.434  10.215 -1.0496 -0.0901  0.5512
  355MOL0     C46757   3.087   6.554  10.271  0.2194 -0.8613 -0.8291
  355MOL0     O46758   3.074   6.659  10.191 -0.4060 -0.4689  0.0411
  355MOL0     C46759   3.027   6.778  10.243 -0.4877  0.4154 -1.1835
  355MOL0     C46760   2.886   6.803  10.255 -0.1229 -0.9781 -0.1549
  355MOL0     C46761   2.853   6.920  10.329 -0.3452 -0.6175  0.0249
  355MOL0     C46762   2.943   7.004  10.389  0.3320 -0.2986  0.3825
  355MOL0     O46763   2.901   7.093  10.473  0.4771  0.4972 -0.6733
  355MOL0     C46764   2.955   7.229  10.471  0.2356  0.1918  0.5311
  355MOL0     C46765   3.052   7.228  10.594 -0.5119 -1.2987 -0.4997
  355MOL0     C46766   3.112   7.365  10.636 -0.4054 -0.1690  0.9009
  355MOL0     C46767   3.199   7.342  10.768 -0.0016 -0.1899  0.8460
  355MOL0     C46768   3.259   7.475  10.826 -0.5155 -0.9458  0.5600
  355MOL0     C46769   3.374   7.453  10.917  0.2253  0.5466 -0.4350
  355MOL0     C46770   3.413   7.579  10.997  0.9067 -0.5298 -0.0935
  355MOL0     C46771   3.541   7.539  11.073  0.1291 -0.7167 -0.5180
  355MOL0    Cl46772   3.686   7.527  10.964 -0.1810 -0.1312 -0.2816
  355MOL0     C46773   3.078   6.972  10.376 -0.3554  0.7817 -0.1475
  355MOL0     C46774   3.124   6.856  10.308  1.0415 -0.7868  0.4915
  355MOL0     O46775   3.072   6.555  10.392  0.2370 -0.7678 -0.5910
  355MOL0     C46776   3.143   6.319  10.302  0.1125  0.3697  0.3377
  355MOL0     C46777   3.199   6.199  10.255  0.7083 -0.1558  0.4746
  355MOL0     N46778   3.743   5.908  10.059 -0.0668 -0.1630 -0.2463
  355MOL0     N46779   3.743   5.949   9.937 -0.0697  0.3848 -0.3062
  355MOL0     C46780   3.511   6.526   9.842  0.8504 -0.2675  0.1510
  355MOL0     C46781   3.558   6.561   9.979  0.6803  0.9516 -0.2995
  355MOL0     C46782   3.734   6.803  10.276 -0.4330 -0.1184  0.2242
  355MOL0     C46783   3.750   6.723  10.390  0.1100 -1.3234  0.0180
  355MOL0     C46784   3.862   6.714  10.473 -0.0935 -1.0000  0.6850
  355MOL0     C46785   3.958   6.814  10.455  0.7811 -0.1499 -0.3037
  355MOL0     O46786   4.056   6.819  10.544 -0.0317  0.5168  0.0489
  355MOL0     C46787   4.069   6.950  10.607  0.2000 -0.0960 -0.1717
  355MOL0     C46788   4.145   6.930  10.731  0.5132 -0.3857 -0.1608
  355MOL0     C46789   4.108   7.050  10.824  0.2551  0.7886  0.2226
  355MOL0     C46790   4.125   7.009  10.973  0.3121 -0.9662  0.1611
  355MOL0     C46791   4.265   6.961  10.996 -0.6667 -0.0699 -0.2303
  355MOL0     C46792   4.379   6.939  11.025 -0.0790  0.3824  0.2219
  355MOL0     C46793   3.943   6.907  10.348 -0.1286  0.7492  0.5062
  355MOL0     C46794   3.827   6.903  10.256 -0.2782 -0.3866 -0.5035
  355MOL0     H46795   3.326   6.784  10.073 -2.5024  1.0539 -2.4475
  355MOL0     H46796   3.231   6.711   9.835  0.6949  0.7299 -1.5980
  355MOL0     H46797   3.534   6.557   9.583  0.5553 -1.9316 -1.4810
  355MOL0     H46798   3.406   6.541   9.461  1.4532 -2.1265 -2.1073
  355MOL0     H46799   3.430   6.323   9.677  4.1192 -6.3054 -1.8462
  355MOL0     H46800   3.542   6.329   9.555  0.0873  1.2651 -1.5261
  355MOL0     H46801   3.364   6.325   9.375 -2.0125 -1.3379 -0.8333
  355MOL0     H46802   3.240   6.333   9.501 -0.3922 -0.2263 -1.5073
  355MOL0     H46803   3.277   6.087   9.430  0.9462 -0.1135  0.5573
  355MOL0     H46804   3.464   6.122   9.481  0.5654  1.5816  0.4314
  355MOL0     H46805   3.260   5.988   9.598 -0.1775  1.3990 -4.7867
  355MOL0     H46806   3.268   6.134   9.689  0.2151  1.8265 -1.2303
  355MOL0     H46807   3.406   6.003   9.816 -2.9847  0.3703 -1.6942
  355MOL0     H46808   3.512   6.107   9.735  1.0526 -1.3022  0.6578
  355MOL0     H46809   3.470   5.805   9.686  0.4352 -1.6430  0.4955
  355MOL0     H46810   3.513   5.912   9.552 -2.5004  0.9135  0.5095
  355MOL0     H46811   3.708   5.988   9.694 -0.7279  0.3748  1.8461
  355MOL0     H46812   3.709   5.806   9.671 -0.9482 -0.1631 -0.5730
  355MOL0     H46813   3.519   5.718   9.918  1.8469 -1.2853  1.0408
  355MOL0     H46814   3.702   5.715  10.249  0.6032 -0.3294  0.9245
  355MOL0     H46815   3.551   5.659  10.163 -1.0595  0.3140  1.4440
  355MOL0     H46816   3.587   5.913  10.328  1.6530 -1.8301  1.1686
  355MOL0     H46817   3.499   5.771  10.349  0.7099  0.6480 -0.0783
  355MOL0     H46818   3.337   5.827  10.169 -0.3822  1.7455 -0.1361
  355MOL0     H46819   3.320   5.930  10.301 -0.0657  0.1941  0.9299
  355MOL0     H46820   3.466   5.996  10.044 -4.8399 -1.7428 -2.9316
  355MOL0     H46821   3.459   6.107  10.187 -2.8302  0.1834  1.1240
  355MOL0     H46822   3.230   6.303   9.922  2.7768  7.2908  0.5394
  355MOL0     H46823   3.144   6.505  10.019  1.5786  2.3687  3.8448
  355MOL0     H46824   2.824   6.737  10.195  2.4176 -1.7865 -2.0954
  355MOL0     H46825   2.749   6.944  10.347  0.2011  0.0680  2.5846
  355MOL0     H46826   2.872   7.301  10.477  2.1685  2.6281 -0.4340
  355MOL0     H46827   3.003   7.245  10.374 -2.8386 -1.3466 -1.4105
  355MOL0     H46828   3.143   7.178  10.562  1.4581 -0.2651  2.9857
  355MOL0     H46829   3.007   7.183  10.683  0.0282 -0.5552  0.1597
  355MOL0     H46830   3.038   7.442  10.661  0.1170 -0.2067  2.6997
  355MOL0     H46831   3.179   7.402  10.558 -1.2072  0.4513  0.4919
  355MOL0     H46832   3.136   7.295  10.843 -2.7335  1.2559 -0.4016
  355MOL0     H46833   3.285   7.280  10.738  0.0886  0.3870 -0.1579
  355MOL0     H46834   3.194   7.527  10.897  1.2953  0.6911  1.1178
  355MOL0     H46835   3.280   7.546  10.746  1.7043 -0.7043  1.2830
  355MOL0     H46836   3.456   7.418  10.854 -0.1299 -1.0940 -0.0293
  355MOL0     H46837   3.353   7.379  10.995  1.3944 -2.1993 -2.5707
  355MOL0     H46838   3.435   7.658  10.925  1.1914  0.1156  0.6908
  355MOL0     H46839   3.342   7.606  11.076 -0.0601 -0.0718 -1.0958
  355MOL0     H46840   3.522   7.452  11.136 -0.5010  0.4174  0.9148
  355MOL0     H46841   3.554   7.617  11.148 -5.3031 -0.7615  0.8306
  355MOL0     H46842   3.155   7.016  10.440  1.4312 -2.7738  0.3596
  355MOL0     H46843   3.227   6.822  10.303  1.8144  0.9284  3.1014
  355MOL0     H46844   3.139   6.331  10.410  0.5400  1.1938  0.2707
  355MOL0     H46845   3.198   6.119  10.329 -0.9225  2.2417  3.2330
  355MOL0     H46846   3.574   6.453   9.793 -1.0716 -1.1029 -1.1726
  355MOL0     H46847   3.652   6.516  10.010  0.0213 -1.4642 -1.5240
  355MOL0     H46848   3.668   6.652  10.388  0.9889 -2.4191  1.1646
  355MOL0     H46849   3.869   6.645  10.556 -3.5513  2.2678  4.1272
  355MOL0     H46850   3.969   6.982  10.638 -0.4986 -1.6439 -0.7580
  355MOL0     H46851   4.113   7.025  10.541  0.3915 -1.6504 -1.8595
  355MOL0     H46852   4.117   6.838  10.782 -3.0066  0.6120 -0.0457
  355MOL0     H46853   4.253   6.936  10.716  0.7458  0.3387  1.6049
  355MOL0     H46854   4.005   7.085  10.809  0.1789  0.4368 -0.0853
  355MOL0     H46855   4.173   7.137  10.811  0.3144  0.7973  0.5651
  355MOL0     H46856   4.095   7.092  11.037 -1.8363 -2.0503  0.6785
  355MOL0     H46857   4.050   6.934  11.002  1.0914 -1.0725  2.0759
  355MOL0     H46858   4.480   6.917  11.052  0.4267  0.3755 -1.5812
  355MOL0     H46859   4.015   6.987  10.342  2.3829 -1.1814  2.5890
  355MOL0     H46860   3.828   6.964  10.167  1.0175 -1.2344 -1.0897
  356MOL0     O46861   3.101  10.710   8.917 -0.0678 -0.1801 -0.0311
  356MOL0     C46862   3.178  10.799   8.876  1.1896 -0.8837 -1.1336
  356MOL0     O46863   3.174  10.860   8.746  0.5384  0.3376  0.2563
  356MOL0     C46864   3.090  10.797   8.642 -1.0201 -0.4164 -0.9124
  356MOL0     C46865   2.997  10.871   8.568 -0.0896  0.2516  0.9363
  356MOL0     C46866   2.901  10.813   8.487 -0.3661 -1.0482  0.7639
  356MOL0     C46867   2.900  10.671   8.464  0.6497 -0.3317  0.4501
  356MOL0     O46868   2.802  10.587   8.403  0.6131 -0.0692 -0.1628
  356MOL0     C46869   2.679  10.585   8.483 -0.4647  0.1934 -0.6383
  356MOL0     C46870   2.550  10.576   8.390 -0.2845 -0.1088 -1.1843
  356MOL0     C46871   2.535  10.708   8.314  0.4127 -0.4656  0.0946
  356MOL0     C46872   2.490  10.845   8.380  0.7958  0.5325 -0.3276
  356MOL0     C46873   2.365  10.898   8.320 -1.0375 -0.6078  1.1645
  356MOL0     C46874   2.243  10.807   8.346  1.1302  0.4920 -0.2239
  356MOL0     C46875   2.115  10.853   8.285 -0.2531 -0.5230  0.1130
  356MOL0     C46876   2.125  10.832   8.131 -0.0301  0.2553 -0.4175
  356MOL0     N46877   1.990  10.834   8.069  1.9284  1.4281  0.8352
  356MOL0     C46878   1.900  10.941   8.052  0.0166 -0.0399  0.7032
  356MOL0     C46879   1.791  10.883   7.989  0.3223 -0.2752  0.6203
  356MOL0     C46880   1.666  10.957   7.946 -1.3065 -0.2823 -0.0750
  356MOL0     C46881   1.575  10.973   8.070 -0.6734 -0.2167  0.8564
  356MOL0     C46882   1.439  11.014   8.021 -0.0296  0.4224 -0.0109
  356MOL0     C46883   1.335  11.074   8.123  0.4572  0.3632 -0.1415
  356MOL0     O46884   1.218  11.106   8.056 -0.0713 -0.5539  0.9512
  356MOL0     C46885   1.115  11.157   8.136 -0.0598  0.8264 -0.4367
  356MOL0     C46886   1.000  11.206   8.073  0.0566  0.3362 -0.4897
  356MOL0     C46887   0.895  11.282   8.139 -0.3813  0.2835  0.9942
  356MOL0     C46888   0.901  11.298   8.281 -0.1122 -0.1492 -0.3758
  356MOL0     C46889   0.799  11.371   8.363  0.6197 -0.2271 -0.7104
  356MOL0     O46890   0.807  11.357   8.495 -0.3115  0.2384  0.6263
  356MOL0     C46891   0.702  11.413   8.560  0.4525  0.9678  0.1224
  356MOL0     C46892   0.704  11.541   8.603  0.5277  0.9468  0.7381
  356MOL0     C46893   0.603  11.600   8.668 -0.0718  0.4465 -0.6149
  356MOL0     C46894   0.491  11.519   8.714 -0.8883 -1.2189  1.2895
  356MOL0     O46895   0.387  11.570   8.787  0.3508  0.2654  0.2460
  356MOL0     C46896   0.318  11.695   8.758 -0.3596 -1.0745  0.5693
  356MOL0     C46897   0.221  11.713   8.871 -0.0253  0.0541  0.3866
  356MOL0     C46898   0.106  11.608   8.857 -0.2893  0.5795  0.5443
  356MOL0     C46899   0.018  11.615   8.985  0.2904 -0.4845 -0.1268
  356MOL0     C46900  -0.128  11.557   8.975 -0.9265 -0.4039  0.7824
  356MOL0     C46901  -0.227  11.647   8.895  0.6251  0.7970  0.3529
  356MOL0     C46902  -0.291  11.751   8.969  0.0992 -1.1263 -0.0697
  356MOL0     C46903  -0.425  11.803   8.905  0.0545 -0.0002  0.2730
  356MOL0    Cl46904  -0.558  11.667   8.907  0.2111  0.2683 -0.1401
  356MOL0     C46905   0.491  11.387   8.675 -0.4092 -0.2865 -0.2243
  356MOL0     C46906   0.588  11.337   8.595  0.2646 -0.3741 -0.6519
  356MOL0     O46907   0.694  11.405   8.302 -0.2692 -0.0767  0.1414
  356MOL0     C46908   1.011  11.235   8.351 -0.9537  0.6923 -0.2766
  356MOL0     C46909   1.120  11.176   8.278 -0.7025  0.1784 -0.6068
  356MOL0     N46910   1.822  10.760   7.934  0.3545 -0.8877 -0.1146
  356MOL0     N46911   1.937  10.724   7.993  0.4108 -0.4979 -0.0084
  356MOL0     C46912   3.000  10.595   8.535  0.1011 -0.5576 -0.6447
  356MOL0     C46913   3.099  10.655   8.612  1.2482 -0.7195 -0.1414
  356MOL0     C46914   3.264  10.870   8.979  0.1086 -1.4335  0.5360
  356MOL0     C46915   3.353  10.978   8.945 -0.8553 -0.2720 -0.6379
  356MOL0     C46916   3.394  11.069   9.039  0.3212 -0.4947 -0.0632
  356MOL0     C46917   3.358  11.058   9.170 -0.1359 -0.6035  0.2729
  356MOL0     O46918   3.398  11.131   9.281 -0.1968  0.6011  0.2803
  356MOL0     C46919   3.339  11.266   9.271  0.2059  0.5580  0.3825
  356MOL0     C46920   3.436  11.378   9.232 -0.1249  0.5241  0.8387
  356MOL0     C46921   3.560  11.369   9.310 -0.0943  0.0194 -0.5242
  356MOL0     C46922   3.652  11.482   9.273 -0.3828 -0.3527  0.3500
  356MOL0     C46923   3.789  11.465   9.328 -0.3485  1.1258 -0.5672
  356MOL0     C46924   3.896  11.441   9.382 -0.3257 -0.1804  1.1051
  356MOL0     C46925   3.275  10.961   9.208 -0.2793  0.5799 -0.6380
  356MOL0     C46926   3.225  10.866   9.116 -0.1386  0.2343 -0.4770
  356MOL0     H46927   2.980  10.973   8.602 -2.7452 -0.5234  2.1707
  356MOL0     H46928   2.831  10.880   8.437 -1.1504 -3.4223 -1.5512
  356MOL0     H46929   2.673  10.678   8.540 -0.0448 -0.0372 -0.2055
  356MOL0     H46930   2.670  10.501   8.552 -0.5905 -1.0207 -2.0736
  356MOL0     H46931   2.468  10.539   8.452  0.7406  0.9560  0.9216
  356MOL0     H46932   2.561  10.491   8.323 -1.9113 -1.1303 -0.2278
  356MOL0     H46933   2.467  10.678   8.233  0.0746 -4.8909  1.7352
  356MOL0     H46934   2.629  10.731   8.264  1.3866  0.0705  2.0990
  356MOL0     H46935   2.469  10.829   8.487  0.2788  0.3933 -0.4484
  356MOL0     H46936   2.553  10.934   8.383 -2.3922  2.9991  3.0115
  356MOL0     H46937   2.380  10.913   8.213  3.3482 -1.8539  1.3963
  356MOL0     H46938   2.342  10.998   8.357  1.0143 -0.9168  3.5625
  356MOL0     H46939   2.227  10.800   8.454 -0.4925  1.8605 -0.3363
  356MOL0     H46940   2.261  10.710   8.299 -2.5139  0.0432 -0.9621
  356MOL0     H46941   2.033  10.790   8.321  2.2008 -4.1520 -0.1887
  356MOL0     H46942   2.091  10.959   8.294 -1.3485 -0.5989 -1.5718
  356MOL0     H46943   2.172  10.734   8.115 -1.8631 -0.8356  0.5211
  356MOL0     H46944   2.178  10.917   8.089  2.7360  0.2253  2.6359
  356MOL0     H46945   1.900  11.040   8.096  2.5834 -0.6757  2.3749
  356MOL0     H46946   1.613  10.895   7.873 -1.8097  0.5774 -0.4433
  356MOL0     H46947   1.718  11.048   7.915 -0.4711  1.7571  6.0419
  356MOL0     H46948   1.613  11.051   8.137 -0.5920  0.3450  0.1618
  356MOL0     H46949   1.569  10.878   8.125 -1.2049 -0.1767  0.8735
  356MOL0     H46950   1.440  11.089   7.941  2.2666  0.4140 -0.0656
  356MOL0     H46951   1.401  10.923   7.973  0.9647  0.4917 -0.9689
  356MOL0     H46952   1.374  11.158   8.181  2.6505 -1.6632  1.5080
  356MOL0     H46953   1.324  11.005   8.208 -2.5103  2.3471  1.2518
  356MOL0     H46954   0.987  11.198   7.965  0.5905  1.7960 -0.6867
  356MOL0     H46955   0.812  11.319   8.081  1.4549  0.5468 -1.6384
  356MOL0     H46956   0.800  11.592   8.600  2.3029 -2.1713  0.4552
  356MOL0     H46957   0.619  11.697   8.714 -1.6398 -0.7611  2.8519
  356MOL0     H46958   0.269  11.694   8.660 -3.8631 -0.7503  2.1995
  356MOL0     H46959   0.392  11.776   8.759 -2.2776  0.7420  0.7546
  356MOL0     H46960   0.167  11.809   8.873 -3.6390 -1.7611 -0.9793
  356MOL0     H46961   0.263  11.701   8.971 -0.7434 -1.7731  0.5064
  356MOL0     H46962   0.155  11.510   8.851 -0.1655  0.7502 -2.0207
  356MOL0     H46963   0.049  11.621   8.765 -0.1787 -0.3434  0.3324
  356MOL0     H46964   0.071  11.577   9.073 -2.7157 -0.2520  1.9585
  356MOL0     H46965   0.002  11.720   9.014 -2.6619 -0.7495 -0.4880
  356MOL0     H46966  -0.157  11.533   9.078 -1.4229  2.6631  1.4279
  356MOL0     H46967  -0.118  11.458   8.929 -0.6064 -1.7309  3.4899
  356MOL0     H46968  -0.304  11.577   8.861  1.9075  0.9992 -3.3396
  356MOL0     H46969  -0.174  11.685   8.808 -1.1584  0.4656 -0.9346
  356MOL0     H46970  -0.328  11.710   9.064  2.4854 -4.3588 -0.3562
  356MOL0     H46971  -0.222  11.832   8.994  2.8136 -2.1676 -3.4081
  356MOL0     H46972  -0.411  11.850   8.807 -0.9606  1.8452  0.9576
  356MOL0     H46973  -0.463  11.891   8.958 -0.2073 -0.3529  0.6747
  356MOL0     H46974   0.412  11.317   8.701  2.2314 -2.2368  3.4366
  356MOL0     H46975   0.583  11.232   8.569  0.1847 -0.2903 -0.9804
  356MOL0     H46976   1.032  11.249   8.456 -3.7073  0.0963  0.4401
  356MOL0     H46977   1.212  11.154   8.331 -1.8057 -3.9160 -0.0665
  356MOL0     H46978   3.005  10.486   8.531  3.3867 -0.4853 -0.9061
  356MOL0     H46979   3.181  10.593   8.647 -0.9507 -3.4171  0.5633
  356MOL0     H46980   3.383  10.995   8.842 -0.5029  0.3774 -0.4301
  356MOL0     H46981   3.464  11.140   8.998  0.5329 -1.0055 -0.5934
  356MOL0     H46982   3.293  11.295   9.366  1.5606  0.6791  1.0376
  356MOL0     H46983   3.251  11.267   9.207 -1.3962 -0.0954  2.4651
  356MOL0     H46984   3.475  11.359   9.131  1.1057  0.8641  1.2273
  356MOL0     H46985   3.396  11.479   9.234  0.8707  0.9231  2.8317
  356MOL0     H46986   3.613  11.274   9.303  2.0563  1.2019 -1.0432
  356MOL0     H46987   3.534  11.377   9.417 -2.1760  2.0615 -1.0803
  356MOL0     H46988   3.659  11.484   9.164 -3.1838  1.3653  0.0900
  356MOL0     H46989   3.614  11.574   9.318 -0.6671  0.6662 -1.8563
  356MOL0     H46990   3.986  11.414   9.435  1.4226  3.3382  0.2354
  356MOL0     H46991   3.237  10.949   9.309 -1.9445  0.8387 -1.1946
  356MOL0     H46992   3.152  10.790   9.141 -2.2491  1.9935 -0.9870
  357MOL0     O46993   7.136   2.127  10.875 -0.7562 -1.0564 -0.5450
  357MOL0     C46994   7.192   2.051  10.802  0.0365  0.7397  0.9742
  357MOL0     O46995   7.264   2.083  10.691 -0.8151 -0.0995  0.0590
  357MOL0     C46996   7.254   2.208  10.644  0.7853 -0.0784  0.8654
  357MOL0     C46997   7.142   2.278  10.640  0.5858 -0.4162  0.0050
  357MOL0     C46998   7.133   2.409  10.583  0.1676 -0.0919  0.4028
  357MOL0     C46999   7.242   2.476  10.530  0.0213 -0.2381  0.0150
  357MOL0     O47000   7.218   2.587  10.459 -0.5279 -0.2319 -0.0062
  357MOL0     C47001   7.297   2.617  10.351 -0.9518  0.3424  0.1735
  357MOL0     C47002   7.242   2.753  10.294 -0.7959  0.7741  0.1322
  357MOL0     C47003   7.117   2.738  10.215  0.6010  0.7765 -0.6749
  357MOL0     C47004   7.136   2.682  10.068 -0.4211 -0.3072 -0.6161
  357MOL0     C47005   7.026   2.579  10.027  0.0186 -1.2963  0.6899
  357MOL0     C47006   6.897   2.663  10.000  0.3562  0.4210 -0.3139
  357MOL0     C47007   6.893   2.760   9.870  0.5183  0.5117  0.0624
  357MOL0     C47008   6.884   2.683   9.731 -0.5943 -0.2363 -0.3805
  357MOL0     N47009   6.817   2.775   9.635  0.4705  0.0665  0.0975
  357MOL0     C47010   6.684   2.822   9.637 -0.6343  0.4258 -0.0358
  357MOL0     C47011   6.678   2.901   9.533 -0.0771  1.0430 -0.2275
  357MOL0     C47012   6.564   2.967   9.472 -0.4269 -0.2636  0.6426
  357MOL0     C47013   6.578   2.971   9.315 -0.7580 -0.3330  0.1955
  357MOL0     C47014   6.491   3.063   9.243  0.9895 -0.3540  0.6881
  357MOL0     C47015   6.339   3.056   9.276  0.2124 -1.0787 -0.1524
  357MOL0     O47016   6.278   2.929   9.250 -0.1157  0.4111 -0.3954
  357MOL0     C47017   6.146   2.907   9.296  0.8154 -0.0202 -1.2440
  357MOL0     C47018   6.066   3.006   9.349 -0.5558 -0.2798 -0.3999
  357MOL0     C47019   5.936   2.979   9.400  0.3513 -0.7634 -0.1005
  357MOL0     C47020   5.867   2.856   9.387 -0.4408  0.9491 -0.7683
  357MOL0     C47021   5.736   2.833   9.433  1.1191  0.5318 -1.3774
  357MOL0     O47022   5.694   2.707   9.435  0.5025  0.8697  0.1336
  357MOL0     C47023   5.564   2.666   9.430  0.0300 -0.8024 -0.4851
  357MOL0     C47024   5.472   2.736   9.345  0.2315  0.0459 -0.0988
  357MOL0     C47025   5.347   2.681   9.339 -0.1646  0.6612 -0.6251
  357MOL0     C47026   5.301   2.571   9.416 -0.2768 -0.2437  0.2761
  357MOL0     O47027   5.173   2.523   9.422  0.0930 -0.0802  0.4718
  357MOL0     C47028   5.073   2.605   9.359 -0.9273 -0.3454 -1.2893
  357MOL0     C47029   4.929   2.571   9.417  0.4644 -0.0003  0.5228
  357MOL0     C47030   4.905   2.556   9.564  0.2414 -0.1068 -0.6945
  357MOL0     C47031   4.903   2.692   9.644  0.1399  0.7919  0.2185
  357MOL0     C47032   4.768   2.754   9.610 -0.3182 -0.5038 -0.5265
  357MOL0     C47033   4.731   2.892   9.669 -0.6105  0.1094 -0.0887
  357MOL0     C47034   4.720   2.888   9.828 -0.2256 -0.0809  0.3265
  357MOL0     C47035   4.614   2.799   9.887  0.7337  0.3682  0.2450
  357MOL0    Cl47036   4.599   2.825  10.062  0.1363  0.0206 -0.3981
  357MOL0     C47037   5.393   2.507   9.495 -0.2788 -0.2098 -0.5383
  357MOL0     C47038   5.522   2.553   9.509  0.1952  0.1162 -0.1507
  357MOL0     O47039   5.673   2.926   9.488  0.0887  0.8546  0.2348
  357MOL0     C47040   5.947   2.756   9.330 -0.8420  1.3573  0.3856
  357MOL0     C47041   6.085   2.775   9.293 -0.5997 -0.5969  0.0070
  357MOL0     N47042   6.811   2.929   9.495 -0.3679 -0.4027  0.8772
  357MOL0     N47043   6.889   2.850   9.548 -0.0517  0.3337 -0.3433
  357MOL0     C47044   7.358   2.390  10.514 -0.9560 -0.5930 -0.3545
  357MOL0     C47045   7.359   2.262  10.576 -0.4592  0.2120 -0.7467
  357MOL0     C47046   7.211   1.908  10.850 -0.3850 -0.8997 -0.7107
  357MOL0     C47047   7.309   1.824  10.793 -0.9220  1.0064  0.3621
  357MOL0     C47048   7.319   1.682  10.816  0.8258 -0.2990 -0.7233
  357MOL0     C47049   7.233   1.624  10.911  0.0780  0.6120 -1.0537
  357MOL0     O47050   7.224   1.495  10.962  0.1205  0.3134 -0.2745
  357MOL0     C47051   7.302   1.389  10.901 -0.0154 -0.8419  0.5292
  357MOL0     C47052   7.224   1.258  10.894  1.2861  0.4472 -0.5315
  357MOL0     C47053   7.271   1.168  10.778  0.7265  0.6978  0.2977
  357MOL0     C47054   7.220   1.019  10.792  0.7902 -0.5985  0.3228
  357MOL0     C47055   7.278   0.957  10.908 -0.2205 -0.1840  0.0552
  357MOL0     C47056   7.310   0.901  11.003  0.0230  0.2102 -0.2738
  357MOL0     C47057   7.134   1.709  10.972 -0.3162 -0.6210  0.3136
  357MOL0     C47058   7.126   1.849  10.943 -0.3843  0.6725 -0.0649
  357MOL0     H47059   7.048   2.243  10.680 -1.0462  2.4616 -1.0660
  357MOL0     H47060   7.044   2.470  10.597 -1.7757 -2.1350 -1.9975
  357MOL0     H47061   7.299   2.541  10.272 -1.8977  0.7880 -0.2959
  357MOL0     H47062   7.402   2.630  10.378 -1.0153  0.6403  0.2755
  357MOL0     H47063   7.317   2.808  10.237  0.2159 -1.7764 -1.1329
  357MOL0     H47064   7.216   2.816  10.379 -5.0597  0.1268 -0.4454
  357MOL0     H47065   7.073   2.838  10.205  1.7054  1.6640  2.2859
  357MOL0     H47066   7.048   2.667  10.261  0.3572  1.1213 -0.5021
  357MOL0     H47067   7.142   2.755   9.986 -4.0397 -2.2915 -2.8998
  357MOL0     H47068   7.233   2.631  10.065  0.2549  0.9460 -1.0922
  357MOL0     H47069   7.010   2.506  10.107  0.5843 -1.6939  0.4457
  357MOL0     H47070   7.036   2.521   9.935  4.4608 -2.4826  1.6547
  357MOL0     H47071   6.862   2.704  10.095  2.2529 -2.0640  1.6192
  357MOL0     H47072   6.835   2.577   9.973  0.0854  0.8707 -1.1479
  357MOL0     H47073   6.797   2.811   9.882 -0.0570 -0.5186 -0.0335
  357MOL0     H47074   6.975   2.833   9.873 -0.2524  1.3869  2.9887
  357MOL0     H47075   6.846   2.580   9.730  0.8879 -0.8213  0.5017
  357MOL0     H47076   6.986   2.671   9.694  0.4750  0.6145  2.0950
  357MOL0     H47077   6.614   2.782   9.709  0.5917  0.5640  1.2782
  357MOL0     H47078   6.549   3.066   9.516  1.5670 -0.1169  1.0971
  357MOL0     H47079   6.466   2.924   9.495 -0.9586 -0.0149 -0.9985
  357MOL0     H47080   6.567   2.868   9.281  0.3424 -0.8402  1.3144
  357MOL0     H47081   6.678   3.012   9.299 -0.5522 -0.1260  1.8278
  357MOL0     H47082   6.522   3.168   9.249 -1.0064  0.4442 -1.3294
  357MOL0     H47083   6.499   3.035   9.138 -1.0253  0.8469  0.1499
  357MOL0     H47084   6.298   3.128   9.205 -1.4613 -0.2298  1.5696
  357MOL0     H47085   6.322   3.074   9.383  2.4195 -2.4142  0.4788
  357MOL0     H47086   6.097   3.110   9.357  2.7935 -0.9774 -2.4636
  357MOL0     H47087   5.888   3.064   9.448 -1.4899 -0.0090 -3.0370
  357MOL0     H47088   5.492   2.828   9.291  0.0712 -1.7151 -3.4349
  357MOL0     H47089   5.279   2.731   9.270  0.3685 -1.7509 -3.0339
  357MOL0     H47090   5.059   2.594   9.252 -0.0608  1.0905 -1.5738
  357MOL0     H47091   5.090   2.710   9.384  2.8227 -1.2891  0.9193
  357MOL0     H47092   4.907   2.470   9.382  1.5197  0.4368 -1.6174
  357MOL0     H47093   4.848   2.628   9.370 -0.5577 -1.0656  0.9556
  357MOL0     H47094   4.978   2.490   9.611  0.4934  1.2916  1.0338
  357MOL0     H47095   4.810   2.502   9.563 -1.0241  1.8064  2.3763
  357MOL0     H47096   4.909   2.680   9.753  2.4980  2.3524  0.3399
  357MOL0     H47097   4.985   2.755   9.609  1.2545 -1.3070 -1.2082
  357MOL0     H47098   4.697   2.683   9.654 -1.8846  0.8312 -0.7790
  357MOL0     H47099   4.748   2.768   9.503 -2.5854  2.4841  0.1264
  357MOL0     H47100   4.632   2.922   9.633 -0.6071 -1.6728 -1.8148
  357MOL0     H47101   4.795   2.975   9.637 -3.5881  3.8237  2.7523
  357MOL0     H47102   4.815   2.860   9.873 -0.7145 -1.9863  0.2306
  357MOL0     H47103   4.695   2.991   9.857 -3.2605 -0.6887  0.2267
  357MOL0     H47104   4.627   2.691   9.879  1.2202 -0.0393  4.2575
  357MOL0     H47105   4.510   2.818   9.856  0.0393 -1.3748  1.3429
  357MOL0     H47106   5.354   2.421   9.548  1.9789  0.6553  2.8350
  357MOL0     H47107   5.593   2.506   9.576 -2.0903  0.7114  2.9330
  357MOL0     H47108   5.902   2.658   9.320 -0.9876  1.3542  0.9927
  357MOL0     H47109   6.139   2.691   9.250 -1.4470 -2.1008  1.7603
  357MOL0     H47110   7.452   2.426  10.473  0.9193 -2.3140  2.1869
  357MOL0     H47111   7.456   2.212  10.575 -1.5961 -2.1709 -2.7999
  357MOL0     H47112   7.395   1.877  10.754  0.6785 -0.3681  1.8520
  357MOL0     H47113   7.399   1.618  10.780  1.8074  2.0260 -3.0124
  357MOL0     H47114   7.395   1.385  10.959  1.1519  1.5909 -1.0189
  357MOL0     H47115   7.331   1.420  10.800 -1.0017 -1.4595  0.0376
  357MOL0     H47116   7.225   1.214  10.994  4.9213  3.3625  0.9627
  357MOL0     H47117   7.117   1.274  10.877  0.6324  0.0438  2.7009
  357MOL0     H47118   7.378   1.180  10.761  0.0415  1.9266 -5.1441
  357MOL0     H47119   7.222   1.212  10.690  0.5005 -1.6627 -0.8245
  357MOL0     H47120   7.111   1.008  10.797  0.8729 -1.1216  4.5140
  357MOL0     H47121   7.257   0.973  10.700  0.3267  0.2374 -0.2991
  357MOL0     H47122   7.336   0.844  11.090 -1.1882 -0.9070 -0.6149
  357MOL0     H47123   7.075   1.666  11.053  1.7991 -2.5980  0.9060
  357MOL0     H47124   7.058   1.922  10.985 -0.5252  1.2848 -1.3015
  358MOL0     O47125   4.006   2.955   3.678  0.3092  0.3468  1.1328
  358MOL0     C47126   4.114   2.966   3.620  0.6990 -0.0058 -0.9786
  358MOL0     O47127   4.159   2.872   3.534 -0.5316 -1.4595 -0.9757
  358MOL0     C47128   4.089   2.772   3.479  1.0208  0.2547  1.2325
  358MOL0     C47129   4.171   2.688   3.399  0.0272 -0.5942  0.7863
  358MOL0     C47130   4.113   2.580   3.323  0.2215 -0.8733 -0.0703
  358MOL0     C47131   3.976   2.560   3.331  1.0281  0.0047  0.1140
  358MOL0     O47132   3.903   2.467   3.268 -0.4376 -0.3600  0.0109
  358MOL0     C47133   3.952   2.383   3.162 -0.3407 -0.4518  0.2567
  358MOL0     C47134   3.859   2.269   3.141 -0.2022 -0.9248  0.5893
  358MOL0     C47135   3.917   2.157   3.055 -0.1415  0.5456 -0.0566
  358MOL0     C47136   3.813   2.047   3.053  0.7031  0.3100  1.0875
  358MOL0     C47137   3.879   1.921   2.978 -0.1149 -0.3503 -0.5366
  358MOL0     C47138   3.767   1.830   2.930 -0.1853 -0.0461  0.8356
  358MOL0     C47139   3.807   1.768   2.793  0.0021 -0.3865  1.4405
  358MOL0     C47140   3.685   1.682   2.737 -0.2716  0.3267  0.5414
  358MOL0     N47141   3.740   1.582   2.639  0.2960 -0.1890 -0.2655
  358MOL0     C47142   3.810   1.467   2.669  1.0043  0.3148 -0.5296
  358MOL0     C47143   3.850   1.418   2.549 -0.5161  0.3423  0.0495
  358MOL0     C47144   3.928   1.283   2.526 -0.2320 -0.3731  0.2255
  358MOL0     C47145   3.829   1.172   2.571  0.0077  0.1193 -0.4185
  358MOL0     C47146   3.698   1.162   2.480  0.0849  0.5889 -0.2970
  358MOL0     C47147   3.725   1.133   2.325 -0.1279  0.0468  0.0452
  358MOL0     O47148   3.797   1.013   2.323 -0.0844  0.1024  0.4616
  358MOL0     C47149   3.896   0.996   2.228 -0.2394  0.7497 -0.3156
  358MOL0     C47150   3.913   1.072   2.103  0.4476  0.5388  0.4224
  358MOL0     C47151   4.034   1.062   2.023  0.3767 -0.0022 -0.7151
  358MOL0     C47152   4.147   0.985   2.072 -0.1051  0.1832 -0.4357
  358MOL0     C47153   4.280   0.998   2.017  0.4853  0.0768 -0.0944
  358MOL0     O47154   4.293   1.080   1.903  0.4259 -0.5727  0.3136
  358MOL0     C47155   4.415   1.129   1.866  0.0205 -0.6258 -0.0857
  358MOL0     C47156   4.546   1.105   1.913 -0.4496  0.0641 -0.6383
  358MOL0     C47157   4.658   1.164   1.852 -0.5381  0.0330  0.8127
  358MOL0     C47158   4.632   1.255   1.742 -0.4008  0.9124  0.5745
  358MOL0     O47159   4.743   1.301   1.673  0.0777  0.1279  0.4213
  358MOL0     C47160   4.714   1.317   1.530  0.0212  0.7648 -0.4608
  358MOL0     C47161   4.702   1.184   1.450  0.3973 -0.1162  0.3206
  358MOL0     C47162   4.846   1.143   1.416 -0.8750  0.0774 -0.7559
  358MOL0     C47163   4.859   1.003   1.368  0.1994 -0.1756 -0.0189
  358MOL0     C47164   5.009   0.961   1.404  0.7320  0.6987  0.0467
  358MOL0     C47165   5.042   0.807   1.377  0.0325 -0.1084 -0.3027
  358MOL0     C47166   5.196   0.790   1.418  0.3226 -0.5337  0.0114
  358MOL0     C47167   5.271   0.660   1.388  1.5919 -0.7630 -1.0980
  358MOL0    Cl47168   5.416   0.648   1.485  0.3139  0.3086 -0.0918
  358MOL0     C47169   4.502   1.295   1.704  0.1468  0.7683  1.0768
  358MOL0     C47170   4.402   1.221   1.758 -0.4635 -0.0899 -0.6476
  358MOL0     O47171   4.375   0.944   2.085 -0.7221  0.2408  0.1811
  358MOL0     C47172   4.115   0.909   2.187 -0.3259 -0.1926  0.3219
  358MOL0     C47173   3.992   0.906   2.266 -0.2816 -0.4836  1.4279
  358MOL0     N47174   3.804   1.507   2.457  0.2613 -0.2552 -0.0111
  358MOL0     N47175   3.741   1.603   2.504 -0.3473 -0.5080  0.5793
  358MOL0     C47176   3.894   2.642   3.402 -0.5747 -1.0556  0.7443
  358MOL0     C47177   3.948   2.749   3.485 -0.6670 -0.6901 -0.0061
  358MOL0     C47178   4.174   3.093   3.639 -0.1563  0.1804  0.1814
  358MOL0     C47179   4.315   3.112   3.618 -0.6370  0.9365  0.1070
  358MOL0     C47180   4.370   3.240   3.625 -0.4007  0.8839  0.2939
  358MOL0     C47181   4.303   3.355   3.678  0.8896 -0.3397  0.0430
  358MOL0     O47182   4.365   3.478   3.692 -0.9635 -0.2360  0.4628
  358MOL0     C47183   4.342   3.554   3.810 -0.9008  0.3695  0.6592
  358MOL0     C47184   4.420   3.688   3.809 -0.4411 -0.2630 -0.5644
  358MOL0     C47185   4.377   3.787   3.926 -0.3048  0.9085 -0.4516
  358MOL0     C47186   4.458   3.921   3.924 -0.3544 -0.7210  0.4071
  358MOL0     C47187   4.410   4.017   4.017 -0.0374  0.8969 -0.1454
  358MOL0     C47188   4.358   4.094   4.091  0.2946  0.3328 -0.8647
  358MOL0     C47189   4.165   3.325   3.704 -0.4673 -0.2818  1.0555
  358MOL0     C47190   4.099   3.204   3.686 -0.1615  0.5476 -0.3477
  358MOL0     H47191   4.275   2.717   3.388 -0.3516  0.5689  0.1181
  358MOL0     H47192   4.179   2.515   3.266  3.0795  1.3413  0.5092
  358MOL0     H47193   4.031   2.328   3.214 -0.9618  0.2858  2.0533
  358MOL0     H47194   3.982   2.433   3.070  1.2411  1.1702  1.5658
  358MOL0     H47195   3.773   2.305   3.084  0.1502  0.6465  1.0173
  358MOL0     H47196   3.826   2.236   3.240 -0.6045 -4.2183 -0.4933
  358MOL0     H47197   4.014   2.124   3.094  1.3715  2.3689 -2.0479
  358MOL0     H47198   3.941   2.199   2.957  1.0724 -1.1592 -0.5351
  358MOL0     H47199   3.798   2.025   3.159  0.0620  0.5206  1.0425
  358MOL0     H47200   3.721   2.078   3.002  0.5510 -2.3764 -0.4742
  358MOL0     H47201   3.946   1.866   3.045  1.7463  1.1703 -1.0284
  358MOL0     H47202   3.939   1.958   2.895  0.7670  0.7364  0.5386
  358MOL0     H47203   3.673   1.884   2.914 -0.5329 -0.8329  0.1599
  358MOL0     H47204   3.748   1.753   3.006 -2.7957 -0.6354 -0.3108
  358MOL0     H47205   3.841   1.841   2.720  0.9264 -1.4841  0.7320
  358MOL0     H47206   3.889   1.696   2.805  0.7632  0.1263 -0.3981
  358MOL0     H47207   3.605   1.741   2.693  0.2837  0.4925 -0.2694
  358MOL0     H47208   3.635   1.623   2.814  3.8284 -0.1725  3.1466
  358MOL0     H47209   3.833   1.432   2.769  1.1465  0.2105 -0.5978
  358MOL0     H47210   4.030   1.273   2.567  0.3857  3.1880 -0.0783
  358MOL0     H47211   3.957   1.285   2.421  2.5983 -3.6480  0.7665
  358MOL0     H47212   3.816   1.176   2.680  0.6269 -0.8364 -0.2982
  358MOL0     H47213   3.894   1.085   2.559  1.5773  1.3084 -0.8131
  358MOL0     H47214   3.646   1.081   2.533  1.8760  0.3968  1.3028
  358MOL0     H47215   3.630   1.246   2.496 -3.7011 -2.2821  0.2524
  358MOL0     H47216   3.767   1.216   2.267  1.1392 -2.6319 -3.2548
  358MOL0     H47217   3.632   1.114   2.270  0.2993  1.7158 -1.3531
  358MOL0     H47218   3.828   1.128   2.064  0.1052  0.0768  0.4976
  358MOL0     H47219   4.053   1.134   1.944 -0.2036 -0.2739 -1.1143
  358MOL0     H47220   4.560   1.042   2.000  0.3861  1.4636  0.2821
  358MOL0     H47221   4.759   1.139   1.884 -1.1712  1.5519  4.4481
  358MOL0     H47222   4.792   1.381   1.489 -2.1058  4.6618  1.0245
  358MOL0     H47223   4.624   1.374   1.505 -1.3875 -0.5676  1.2427
  358MOL0     H47224   4.649   1.219   1.360 -2.0673  0.6910  1.9768
  358MOL0     H47225   4.637   1.105   1.489 -1.0224  0.2316 -1.1917
  358MOL0     H47226   4.902   1.153   1.510  1.9046 -0.7134 -2.2070
  358MOL0     H47227   4.904   1.215   1.357  2.5595 -0.9625  1.0543
  358MOL0     H47228   4.777   0.944   1.407 -1.9534  2.0259 -0.9399
  358MOL0     H47229   4.856   1.005   1.259  1.3614 -2.2850 -0.1387
  358MOL0     H47230   5.016   0.976   1.512 -0.1807  2.6969 -0.1355
  358MOL0     H47231   5.076   1.035   1.359 -2.2051  2.9687 -0.8748
  358MOL0     H47232   5.028   0.780   1.272  0.0532  0.6376 -0.5052
  358MOL0     H47233   4.983   0.744   1.443  0.0493  0.9254  0.7334
  358MOL0     H47234   5.247   0.871   1.365  1.5362 -2.2229 -1.5272
  358MOL0     H47235   5.203   0.801   1.527  0.0621 -4.3104  0.5303
  358MOL0     H47236   5.297   0.641   1.283  2.2294  0.5897 -1.1945
  358MOL0     H47237   5.212   0.573   1.419 -0.1931  1.5827  2.8347
  358MOL0     H47238   4.471   1.372   1.635 -2.6681 -2.2411 -1.3664
  358MOL0     H47239   4.299   1.253   1.745 -0.0346  2.0006  0.5455
  358MOL0     H47240   4.187   0.839   2.228 -0.9693 -0.6316  0.7166
  358MOL0     H47241   3.996   0.861   2.364  1.7175 -0.5162  1.3731
  358MOL0     H47242   3.788   2.619   3.397 -1.6024  2.9839  0.1625
  358MOL0     H47243   3.882   2.811   3.544 -1.2807 -2.4998  1.2936
  358MOL0     H47244   4.372   3.025   3.586 -3.4051 -2.1137  2.6434
  358MOL0     H47245   4.465   3.245   3.572 -0.0405  2.1844  1.0292
  358MOL0     H47246   4.383   3.494   3.892  0.5630 -0.4823 -0.6504
  358MOL0     H47247   4.234   3.573   3.817 -0.7456  2.0306 -0.7301
  358MOL0     H47248   4.527   3.664   3.807  0.0265  1.4187  1.6562
  358MOL0     H47249   4.403   3.728   3.708 -1.3865 -0.7142 -0.5922
  358MOL0     H47250   4.403   3.728   4.014  0.9501 -3.0749 -3.2211
  358MOL0     H47251   4.270   3.801   3.944 -0.8854 -3.0799  0.1662
  358MOL0     H47252   4.563   3.897   3.942 -0.4785 -0.4924  1.4762
  358MOL0     H47253   4.461   3.963   3.823  0.8410 -1.1658  0.2483
  358MOL0     H47254   4.304   4.165   4.150  1.1269 -0.3554  0.7975
  358MOL0     H47255   4.105   3.407   3.742 -0.0459  0.2485  0.5926
  358MOL0     H47256   3.994   3.195   3.711 -0.5099  1.9472 -1.2542
  359MOL0     O47257   3.300   1.503   5.913 -0.5559  0.5837 -0.5222
  359MOL0     C47258   3.370   1.596   5.940 -1.3140 -0.2870  0.1705
  359MOL0     O47259   3.439   1.669   5.852  0.3902 -0.6093 -0.7573
  359MOL0     C47260   3.419   1.653   5.720  0.5414 -0.6103 -0.1648
  359MOL0     C47261   3.310   1.735   5.679 -0.3987  0.0936  0.1256
  359MOL0     C47262   3.286   1.734   5.538 -0.7258 -0.1992 -1.2052
  359MOL0     C47263   3.378   1.666   5.446 -0.1183  0.3131 -0.4318
  359MOL0     O47264   3.346   1.670   5.314  0.4843 -0.0867  0.3636
  359MOL0     C47265   3.448   1.649   5.222  0.6309  0.0318  0.6538
  359MOL0     C47266   3.410   1.720   5.096 -0.8325 -0.1911  0.2753
  359MOL0     C47267   3.496   1.667   4.980  0.5742 -0.1137  0.0897
  359MOL0     C47268   3.435   1.702   4.842 -0.4884  0.3563  1.3880
  359MOL0     C47269   3.525   1.663   4.722 -0.4774 -0.2142  0.5473
  359MOL0     C47270   3.503   1.516   4.685 -0.2048  0.2561 -1.3848
  359MOL0     C47271   3.585   1.467   4.572  0.5794  0.0267  0.1369
  359MOL0     C47272   3.585   1.317   4.538  1.1048 -1.2250 -0.2999
  359MOL0     N47273   3.661   1.304   4.421 -0.4987 -0.4477 -0.2388
  359MOL0     C47274   3.778   1.236   4.406 -0.5731  0.1013  0.2082
  359MOL0     C47275   3.794   1.228   4.272 -0.4032  0.0366 -1.1444
  359MOL0     C47276   3.912   1.162   4.204 -0.1888  0.7515  0.3835
  359MOL0     C47277   3.883   1.005   4.196 -0.8182  0.1141  0.4549
  359MOL0     C47278   4.012   0.917   4.182 -0.0189 -0.0668  0.4787
  359MOL0     C47279   4.073   0.931   4.037  0.2782  0.4833 -0.5000
  359MOL0     O47280   4.190   0.848   4.042  0.8258  0.2548 -0.7525
  359MOL0     C47281   4.170   0.722   3.986 -0.3799  0.3385 -0.5192
  359MOL0     C47282   4.046   0.661   3.955  0.8732  0.0028 -0.2300
  359MOL0     C47283   4.037   0.537   3.885  0.4188 -0.3936 -0.6418
  359MOL0     C47284   4.154   0.475   3.855  0.1066 -0.1349  0.4616
  359MOL0     C47285   4.160   0.340   3.788  0.2562  0.1229 -0.5183
  359MOL0     O47286   4.044   0.265   3.767 -0.1737 -1.0774 -0.1368
  359MOL0     C47287   4.045   0.132   3.727  0.0150  0.9340 -0.5971
  359MOL0     C47288   4.157   0.036   3.719  0.4115  0.6949 -0.9769
  359MOL0     C47289   4.143  -0.103   3.676  0.0794 -0.5342 -0.2856
  359MOL0     C47290   4.017  -0.137   3.628 -0.6919  0.7820 -0.1078
  359MOL0     O47291   4.007  -0.246   3.552 -0.5129 -0.1792 -0.1165
  359MOL0     C47292   3.890  -0.270   3.478  0.4831  0.5261 -0.8720
  359MOL0     C47293   3.916  -0.382   3.381 -0.4053  0.3037  0.2436
  359MOL0     C47294   4.037  -0.352   3.292 -0.1607 -0.3766  0.4261
  359MOL0     C47295   4.089  -0.454   3.201  0.2536 -0.0371  0.5374
  359MOL0     C47296   4.007  -0.450   3.074 -0.3715 -0.9509 -0.4266
  359MOL0     C47297   4.049  -0.565   2.977  0.6938 -1.1436  0.5272
  359MOL0     C47298   3.984  -0.550   2.836 -0.4169  0.1040 -0.4423
  359MOL0     C47299   4.060  -0.435   2.773 -0.5648 -0.1925  0.1092
  359MOL0    Cl47300   4.048  -0.444   2.602 -0.1832  0.3364 -0.0791
  359MOL0     C47301   3.908  -0.043   3.633  0.2508 -0.2513  1.0364
  359MOL0     C47302   3.921   0.086   3.683 -0.0008 -0.4786 -0.7185
  359MOL0     O47303   4.266   0.299   3.746 -0.0109 -0.2079  0.4354
  359MOL0     C47304   4.286   0.535   3.887 -0.0236  0.0942 -0.1967
  359MOL0     C47305   4.286   0.648   3.961  0.5888 -0.6111 -0.0478
  359MOL0     N47306   3.692   1.294   4.213  0.1668 -0.1259 -0.0931
  359MOL0     N47307   3.606   1.325   4.302 -0.8328 -0.7597  1.0065
  359MOL0     C47308   3.480   1.587   5.497 -0.5303  0.6890  0.1331
  359MOL0     C47309   3.511   1.584   5.643  0.7586 -0.8275  1.3368
  359MOL0     C47310   3.393   1.625   6.079  0.4266  1.0125 -0.0315
  359MOL0     C47311   3.417   1.754   6.130 -0.6345 -0.0630 -0.1726
  359MOL0     C47312   3.429   1.781   6.269  0.0766 -0.9317 -0.5576
  359MOL0     C47313   3.403   1.676   6.356 -0.3024  0.0079 -0.8284
  359MOL0     O47314   3.396   1.694   6.493 -0.0989 -0.1241 -0.2384
  359MOL0     C47315   3.472   1.801   6.552 -0.6076  0.0228 -0.3275
  359MOL0     C47316   3.379   1.908   6.605 -0.1707  0.3807 -0.4362
  359MOL0     C47317   3.452   2.011   6.690 -0.6590  0.8734  0.0756
  359MOL0     C47318   3.556   2.097   6.607  0.0076  0.9904 -0.4344
  359MOL0     C47319   3.695   2.063   6.631 -0.4614  0.8176  1.0586
  359MOL0     C47320   3.814   2.038   6.648  1.4215  0.4920  0.4943
  359MOL0     C47321   3.372   1.551   6.311  0.6258  0.6012 -0.1317
  359MOL0     C47322   3.365   1.519   6.172 -1.0223 -0.5623  0.0752
  359MOL0     H47323   3.245   1.794   5.743 -0.5247 -0.4560  0.5174
  359MOL0     H47324   3.206   1.797   5.501  0.0856  3.8890  3.0562
  359MOL0     H47325   3.463   1.541   5.212  4.8530  0.2908  2.1916
  359MOL0     H47326   3.544   1.684   5.261  0.2833  0.5921  1.0237
  359MOL0     H47327   3.435   1.825   5.108  2.0349 -0.5159 -1.7117
  359MOL0     H47328   3.305   1.719   5.066 -1.5410 -0.7293  2.5860
  359MOL0     H47329   3.497   1.558   4.969  2.2889 -0.0764 -0.3485
  359MOL0     H47330   3.596   1.710   4.977  1.0170 -0.7933  2.6463
  359MOL0     H47331   3.337   1.653   4.835 -1.3255  2.1814 -0.7035
  359MOL0     H47332   3.412   1.808   4.836  3.2469  1.2625 -2.9519
  359MOL0     H47333   3.625   1.671   4.766 -2.5875 -1.1263  6.3866
  359MOL0     H47334   3.524   1.726   4.632  0.4523  0.0491  0.7088
  359MOL0     H47335   3.396   1.498   4.678 -0.2696 -1.3212  1.9005
  359MOL0     H47336   3.525   1.458   4.774  0.5765 -0.5741 -2.0926
  359MOL0     H47337   3.570   1.521   4.478 -0.4263  2.4206  1.5648
  359MOL0     H47338   3.689   1.484   4.603  0.0197  1.2094  1.5020
  359MOL0     H47339   3.482   1.282   4.523  0.1136  1.9316 -1.6843
  359MOL0     H47340   3.634   1.260   4.617  0.1891  0.0867  1.2634
  359MOL0     H47341   3.831   1.173   4.478 -1.6855 -1.3058 -0.1592
  359MOL0     H47342   4.012   1.188   4.240  0.2742 -0.4212 -0.0238
  359MOL0     H47343   3.930   1.200   4.104  0.0562 -0.7099 -0.1490
  359MOL0     H47344   3.821   1.003   4.106  1.2961  1.2678 -1.1169
  359MOL0     H47345   3.816   0.973   4.277 -2.9120  3.5113  0.2846
  359MOL0     H47346   4.087   0.948   4.255  2.2148 -0.9173 -1.3185
  359MOL0     H47347   3.961   0.821   4.195 -2.9504  1.3838  0.3920
  359MOL0     H47348   4.104   1.035   4.028 -0.3236  0.7101  0.0103
  359MOL0     H47349   4.000   0.917   3.957  1.1637 -1.1392 -1.0732
  359MOL0     H47350   3.950   0.704   3.984  1.5790 -0.0298  2.4131
  359MOL0     H47351   3.940   0.491   3.871 -0.2120  1.7020 -5.1779
  359MOL0     H47352   4.246   0.076   3.767 -0.2067 -0.3267  1.1400
  359MOL0     H47353   4.214  -0.183   3.659  0.3780 -0.9464  2.4486
  359MOL0     H47354   3.864  -0.183   3.417  0.1054  1.3517  0.4084
  359MOL0     H47355   3.799  -0.291   3.536  0.3488 -0.2012 -1.3381
  359MOL0     H47356   3.825  -0.395   3.323 -0.4966  0.1895  0.4134
  359MOL0     H47357   3.947  -0.474   3.432 -2.3217 -2.1217 -2.6191
  359MOL0     H47358   4.125  -0.325   3.351  1.1297  0.9545 -1.9440
  359MOL0     H47359   4.006  -0.271   3.225  3.7306  0.3941 -0.7027
  359MOL0     H47360   4.197  -0.446   3.183  1.2933 -0.8027  5.1027
  359MOL0     H47361   4.086  -0.551   3.251  4.0879  1.1387  3.5904
  359MOL0     H47362   4.007  -0.349   3.033  0.9199 -0.9230 -0.3889
  359MOL0     H47363   3.900  -0.470   3.091 -0.8820  2.5844  1.2649
  359MOL0     H47364   4.003  -0.656   3.016 -0.2686 -0.4750  1.0004
  359MOL0     H47365   4.157  -0.581   2.971  0.6529 -1.8353  1.3628
  359MOL0     H47366   3.974  -0.643   2.780 -0.6363  0.2686 -0.6795
  359MOL0     H47367   3.882  -0.521   2.863 -1.4166 -2.0113 -1.7033
  359MOL0     H47368   4.167  -0.429   2.796 -1.1914 -0.7728  3.8348
  359MOL0     H47369   4.019  -0.339   2.804  0.0491  0.5701 -1.3642
  359MOL0     H47370   3.809  -0.069   3.597  1.4218 -3.2983 -0.3512
  359MOL0     H47371   3.838   0.156   3.691 -0.9787 -1.7177  0.4443
  359MOL0     H47372   4.383   0.503   3.850  1.1083  2.6052  0.3407
  359MOL0     H47373   4.382   0.688   3.991  1.1216 -0.6291 -1.6110
  359MOL0     H47374   3.533   1.521   5.429  0.1362 -1.0797  2.2316
  359MOL0     H47375   3.591   1.522   5.684  2.6356 -0.5395 -1.5528
  359MOL0     H47376   3.429   1.842   6.067  0.3841  1.3618  1.8918
  359MOL0     H47377   3.455   1.885   6.287 -2.6376 -0.5163  1.5941
  359MOL0     H47378   3.555   1.834   6.489  0.0510 -0.0887  0.4657
  359MOL0     H47379   3.517   1.757   6.641  0.9264  2.4531  0.2013
  359MOL0     H47380   3.317   1.949   6.525  0.3780 -1.8921 -2.1093
  359MOL0     H47381   3.317   1.850   6.673  1.8171  0.4340  1.5363
  359MOL0     H47382   3.510   1.952   6.762 -1.3214 -1.4667 -1.2098
  359MOL0     H47383   3.379   2.074   6.741 -1.2740  0.4009 -0.2078
  359MOL0     H47384   3.527   2.093   6.502  0.0139 -1.7653 -0.4037
  359MOL0     H47385   3.545   2.203   6.630 -0.1771  1.3846 -2.1697
  359MOL0     H47386   3.912   2.006   6.679  0.7499 -3.1076 -0.6822
  359MOL0     H47387   3.340   1.481   6.387 -0.4439  1.5478  0.3309
  359MOL0     H47388   3.352   1.416   6.139 -3.1173 -0.6503  0.9709
  360MOL0     O47389   4.710  10.230   6.452 -0.2297  0.3678 -0.4072
  360MOL0     C47390   4.812  10.200   6.515 -0.0650  0.3421  0.1038
  360MOL0     O47391   4.822  10.099   6.612 -0.1192  0.2841  0.3632
  360MOL0     C47392   4.724  10.009   6.606 -0.4172 -0.6598  0.7224
  360MOL0     C47393   4.619  10.000   6.698  0.1067 -0.6725 -0.3558
  360MOL0     C47394   4.545   9.883   6.700 -0.2615 -0.9227  0.1320
  360MOL0     C47395   4.569   9.775   6.617  0.5310  0.0938  0.2223
  360MOL0     O47396   4.500   9.653   6.634  1.7361 -0.2450 -0.0168
  360MOL0     C47397   4.555   9.553   6.719  0.5251  0.9841  0.7877
  360MOL0     C47398   4.434   9.455   6.717  0.4092 -0.4737  0.8683
  360MOL0     C47399   4.465   9.313   6.767 -0.2554  0.0253 -0.8962
  360MOL0     C47400   4.531   9.227   6.656 -0.2886  0.4397 -0.2540
  360MOL0     C47401   4.582   9.087   6.704  0.8318 -0.4040 -0.2531
  360MOL0     C47402   4.619   9.006   6.579 -0.6622 -1.0244  0.2811
  360MOL0     C47403   4.506   8.958   6.488  0.4625 -0.4075 -0.4449
  360MOL0     C47404   4.556   8.904   6.353  0.4897 -0.6411 -0.7611
  360MOL0     N47405   4.459   8.839   6.265  0.6019 -0.2756 -0.3364
  360MOL0     C47406   4.362   8.897   6.187 -0.2983 -0.1326  0.1808
  360MOL0     C47407   4.323   8.798   6.109  0.4603 -0.0503  0.5139
  360MOL0     C47408   4.197   8.801   6.026  0.4439  0.2160 -0.6280
  360MOL0     C47409   4.257   8.853   5.890 -0.0214 -0.3792  0.6697
  360MOL0     C47410   4.145   8.868   5.793 -0.5519  0.2163 -0.1095
  360MOL0     C47411   4.172   8.969   5.682 -0.0509  0.3638 -0.0574
  360MOL0     O47412   4.213   9.090   5.738  0.2076  0.3195  0.1717
  360MOL0     C47413   4.280   9.176   5.658 -0.2645  0.3939  0.5462
  360MOL0     C47414   4.302   9.175   5.528  0.4499  1.0673  1.2844
  360MOL0     C47415   4.386   9.280   5.471 -0.5269  0.1336 -0.0492
  360MOL0     C47416   4.422   9.398   5.543 -0.5485 -0.1363 -0.0527
  360MOL0     C47417   4.515   9.498   5.483 -0.7288  0.2177 -0.2388
  360MOL0     O47418   4.526   9.509   5.347  0.3298 -0.3855  0.0494
  360MOL0     C47419   4.582   9.628   5.298 -0.1668  0.3333 -0.2058
  360MOL0     C47420   4.716   9.642   5.255 -1.7517  0.2198 -0.2586
  360MOL0     C47421   4.752   9.754   5.176 -0.5356 -0.1745  0.1296
  360MOL0     C47422   4.666   9.862   5.173 -0.0009 -0.4461  0.9386
  360MOL0     O47423   4.698   9.980   5.109 -0.0296 -0.7693 -0.5785
  360MOL0     C47424   4.831  10.008   5.072 -0.0963 -0.3403  0.0241
  360MOL0     C47425   4.844  10.156   5.041  0.5464  0.4122 -0.8749
  360MOL0     C47426   4.999  10.184   5.051  0.2735  0.2691  0.2893
  360MOL0     C47427   5.049  10.322   5.001 -0.0879 -1.1444  0.9531
  360MOL0     C47428   5.199  10.341   5.015 -1.3022 -0.2401  0.5874
  360MOL0     C47429   5.240  10.485   4.972 -0.1212  0.2228  0.3652
  360MOL0     C47430   5.395  10.480   4.973  0.6293 -0.8927 -1.1383
  360MOL0     C47431   5.441  10.622   4.950  1.0852 -0.0825 -0.0499
  360MOL0    Cl47432   5.377  10.688   4.802 -0.0586 -0.4128 -0.2232
  360MOL0     C47433   4.536   9.856   5.220  0.4767 -0.5221 -1.0220
  360MOL0     C47434   4.497   9.738   5.281  1.4377  0.1467 -0.5099
  360MOL0     O47435   4.566   9.580   5.560  0.0465  0.3203 -0.4598
  360MOL0     C47436   4.368   9.404   5.670 -0.0935 -0.3754 -1.1627
  360MOL0     C47437   4.319   9.296   5.732  0.4424  0.4776 -1.2743
  360MOL0     N47438   4.395   8.682   6.124  0.3744  0.3920 -0.0901
  360MOL0     N47439   4.481   8.715   6.218  0.1714 -0.1056  0.6818
  360MOL0     C47440   4.663   9.795   6.513  0.2664 -0.2336  0.0357
  360MOL0     C47441   4.743   9.902   6.507 -0.0086 -0.7572 -0.1251
  360MOL0     C47442   4.922  10.289   6.501  1.2535 -0.5864 -0.6507
  360MOL0     C47443   4.922  10.413   6.434 -1.4595 -0.4161  0.6840
  360MOL0     C47444   5.038  10.500   6.441 -0.5707  0.3092  0.4230
  360MOL0     C47445   5.155  10.452   6.489  0.4920  0.0910  0.2834
  360MOL0     O47446   5.276  10.508   6.495  0.0386  1.3428 -0.4068
  360MOL0     C47447   5.343  10.552   6.381  0.6073 -0.4138 -0.3060
  360MOL0     C47448   5.448  10.665   6.411  0.7909  0.3721  0.1709
  360MOL0     C47449   5.366  10.784   6.465 -0.9374  0.3977  0.2476
  360MOL0     C47450   5.457  10.906   6.476 -0.4341 -0.2032 -0.2489
  360MOL0     C47451   5.554  10.877   6.582 -0.4678  0.1995  0.5539
  360MOL0     C47452   5.638  10.848   6.660 -0.7685  0.5471  0.4095
  360MOL0     C47453   5.154  10.323   6.544 -0.7290  0.6048 -0.2683
  360MOL0     C47454   5.041  10.239   6.555 -0.3553 -0.1643  0.1041
  360MOL0     H47455   4.606  10.074   6.776  4.5484 -1.4619  1.4549
  360MOL0     H47456   4.471   9.875   6.780 -1.8247  3.9049 -0.5178
  360MOL0     H47457   4.572   9.600   6.817 -0.3788  3.2676 -0.0707
  360MOL0     H47458   4.648   9.522   6.671  0.9422  2.5033  0.5519
  360MOL0     H47459   4.399   9.436   6.615  1.1254 -1.9210  0.8591
  360MOL0     H47460   4.348   9.497   6.769  2.0016  2.5849  1.2980
  360MOL0     H47461   4.370   9.264   6.791 -1.6738  1.9158 -2.3533
  360MOL0     H47462   4.536   9.314   6.850 -0.5562 -4.1579 -0.3576
  360MOL0     H47463   4.454   9.201   6.583 -1.3549 -4.0579  2.1138
  360MOL0     H47464   4.607   9.281   6.599  1.2037 -3.8190 -2.7856
  360MOL0     H47465   4.508   9.022   6.753 -0.5666  2.6930  2.1331
  360MOL0     H47466   4.660   9.117   6.774 -0.1716 -1.0577  1.2061
  360MOL0     H47467   4.678   8.919   6.610  1.1217  0.3855  1.0209
  360MOL0     H47468   4.690   9.074   6.531  1.3438 -2.2844  1.3273
  360MOL0     H47469   4.457   8.873   6.537  0.3604 -2.2438 -3.4275
  360MOL0     H47470   4.440   9.037   6.453  3.1974  1.3125 -2.0947
  360MOL0     H47471   4.641   8.839   6.375  0.9791 -0.2241 -1.3859
  360MOL0     H47472   4.601   8.989   6.302  0.5276  1.6389  2.7270
  360MOL0     H47473   4.328   9.000   6.186 -2.3321 -0.7647  0.6893
  360MOL0     H47474   4.114   8.853   6.075 -0.1986 -1.3919  0.0587
  360MOL0     H47475   4.159   8.699   6.018 -1.6228  0.8932 -0.1276
  360MOL0     H47476   4.326   8.778   5.851  3.3332  2.3552  0.8245
  360MOL0     H47477   4.313   8.944   5.915 -0.5615  0.4030 -0.8545
  360MOL0     H47478   4.142   8.768   5.747  1.7381 -0.2153  0.5450
  360MOL0     H47479   4.052   8.896   5.843  2.2450  3.9001  3.6650
  360MOL0     H47480   4.086   8.984   5.616  0.8793 -0.0507 -1.4072
  360MOL0     H47481   4.245   8.930   5.611 -2.3890  0.7179 -2.8738
  360MOL0     H47482   4.279   9.088   5.468 -0.1368  1.6682  0.6262
  360MOL0     H47483   4.411   9.282   5.366  0.2209  1.6067  0.1268
  360MOL0     H47484   4.772   9.549   5.264 -0.6938  0.6795 -1.8003
  360MOL0     H47485   4.846   9.746   5.123 -0.1086  2.1210  0.4204
  360MOL0     H47486   4.854   9.947   4.984  0.8998 -0.1860  0.1558
  360MOL0     H47487   4.906   9.976   5.145  0.0901 -5.3169 -1.9401
  360MOL0     H47488   4.785  10.212   5.113  1.7220  0.2106  0.3060
  360MOL0     H47489   4.820  10.173   4.936 -1.3877 -0.8629 -0.6874
  360MOL0     H47490   5.045  10.119   4.977  1.6908  2.4030 -0.8051
  360MOL0     H47491   5.033  10.170   5.154  0.0302  1.3348  0.5293
  360MOL0     H47492   5.041  10.327   4.892  0.2790  2.8633  0.9722
  360MOL0     H47493   4.994  10.408   5.038  1.8098  1.3267 -1.5446
  360MOL0     H47494   5.245  10.278   4.938 -1.1765  0.5003  0.0377
  360MOL0     H47495   5.222  10.319   5.119  2.1884 -1.9019 -0.3803
  360MOL0     H47496   5.180  10.548   5.038 -1.4465 -0.8189  0.2056
  360MOL0     H47497   5.201  10.523   4.877  2.9832  0.8410 -0.7951
  360MOL0     H47498   5.439  10.436   5.063 -1.3592 -0.7959 -0.0663
  360MOL0     H47499   5.423  10.421   4.884 -0.4145 -3.3019  0.0278
  360MOL0     H47500   5.550  10.607   4.945  1.0868 -0.2996  0.5470
  360MOL0     H47501   5.416  10.679   5.040 -1.0804 -0.9264 -0.0573
  360MOL0     H47502   4.465   9.936   5.230 -0.8959 -1.9409  1.3687
  360MOL0     H47503   4.395   9.728   5.315  0.2233  4.4134 -2.1316
  360MOL0     H47504   4.377   9.492   5.733  0.0231 -1.1400 -0.1021
  360MOL0     H47505   4.301   9.301   5.839  5.6241 -1.3667 -0.0273
  360MOL0     H47506   4.674   9.704   6.454  1.7752 -1.4173  2.0533
  360MOL0     H47507   4.819   9.907   6.430  2.1251  1.4314  1.9228
  360MOL0     H47508   4.828  10.443   6.388 -0.4561  2.2669  0.1806
  360MOL0     H47509   5.031  10.599   6.397  0.9719  0.0054 -0.5861
  360MOL0     H47510   5.280  10.584   6.298 -1.9093 -0.7201  1.3683
  360MOL0     H47511   5.405  10.473   6.337  1.0593 -0.4643  0.4016
  360MOL0     H47512   5.532  10.637   6.474 -0.5985 -2.0269  1.1185
  360MOL0     H47513   5.492  10.688   6.314  1.3319  0.4487  0.4313
  360MOL0     H47514   5.318  10.749   6.557 -0.4782 -1.5866 -0.2142
  360MOL0     H47515   5.281  10.808   6.401 -1.6797 -0.1520  0.9972
  360MOL0     H47516   5.512  10.923   6.383 -0.1897 -0.4916 -0.1599
  360MOL0     H47517   5.400  10.995   6.503  0.8284  0.3395  0.7985
  360MOL0     H47518   5.726  10.820   6.715 -0.2612  1.9205  0.3370
  360MOL0     H47519   5.251  10.278   6.566 -1.1040 -2.8812 -4.3140
  360MOL0     H47520   5.057  10.136   6.589 -0.4553 -0.0099  0.6317
  361MOL0     O47521   6.271   8.308   6.154 -0.0107  0.9258 -0.6563
  361MOL0     C47522   6.268   8.193   6.193  0.3185  0.2675  0.1501
  361MOL0     O47523   6.381   8.112   6.222  0.5382  0.1898  0.3174
  361MOL0     C47524   6.501   8.172   6.221  0.1161 -0.4226 -1.3159
  361MOL0     C47525   6.564   8.228   6.100 -0.8672 -0.2410  0.2135
  361MOL0     C47526   6.693   8.281   6.105  0.8627 -0.2227 -0.5804
  361MOL0     C47527   6.764   8.283   6.227 -0.4788 -0.2354 -0.4067
  361MOL0     O47528   6.883   8.355   6.246 -0.8121  0.0061 -0.3617
  361MOL0     C47529   6.945   8.440   6.142 -0.3483  0.5056 -0.2539
  361MOL0     C47530   7.085   8.492   6.173  0.0002 -0.2189 -0.6060
  361MOL0     C47531   7.188   8.371   6.191  0.2670 -0.5929  0.0355
  361MOL0     C47532   7.305   8.425   6.279  0.4759 -0.8140 -0.1508
  361MOL0     C47533   7.375   8.544   6.221  0.1187 -0.2154 -0.2234
  361MOL0     C47534   7.506   8.573   6.291 -0.3475 -0.1074  0.2495
  361MOL0     C47535   7.494   8.573   6.450 -0.3119  0.0398 -0.6044
  361MOL0     C47536   7.628   8.639   6.504 -0.1817  0.8324 -0.5833
  361MOL0     N47537   7.602   8.695   6.641 -0.2734 -0.7310  0.2093
  361MOL0     C47538   7.681   8.803   6.692 -0.5520  0.3817  0.2386
  361MOL0     C47539   7.614   8.848   6.793  0.1101  0.0129 -0.1394
  361MOL0     C47540   7.634   8.976   6.864  0.5759 -0.4275  0.3334
  361MOL0     C47541   7.748   8.997   6.969 -0.8813 -0.2455  0.9059
  361MOL0     C47542   7.882   9.026   6.892  1.1256  0.7813  0.0385
  361MOL0     C47543   8.001   9.059   6.985 -0.5055  0.3335  0.1870
  361MOL0     O47544   7.973   9.189   7.031  0.1792  0.0814 -0.3235
  361MOL0     C47545   8.017   9.236   7.150  0.1378 -0.0866 -1.1641
  361MOL0     C47546   7.981   9.364   7.205  0.8327  0.9420 -1.2399
  361MOL0     C47547   8.022   9.405   7.333  0.1144  0.2158 -0.6028
  361MOL0     C47548   8.097   9.319   7.412  0.1445 -1.2791 -0.3976
  361MOL0     C47549   8.159   9.364   7.547 -1.0192 -0.3741 -0.0790
  361MOL0     O47550   8.102   9.472   7.607  0.0224 -0.4415  0.1296
  361MOL0     C47551   8.142   9.513   7.727 -0.9899 -0.5334 -0.1045
  361MOL0     C47552   8.087   9.458   7.841  0.5092  0.7049  0.5458
  361MOL0     C47553   8.110   9.528   7.962 -0.3859  0.1538 -0.3921
  361MOL0     C47554   8.203   9.629   7.981 -0.1480 -0.5569  1.1266
  361MOL0     O47555   8.217   9.687   8.101 -0.2091 -0.0320 -0.3345
  361MOL0     C47556   8.350   9.702   8.156  0.6363  1.3039 -0.0188
  361MOL0     C47557   8.350   9.762   8.294 -0.2337 -0.7124 -0.0165
  361MOL0     C47558   8.497   9.804   8.325 -0.7406 -1.0265  0.6386
  361MOL0     C47559   8.512   9.816   8.477 -0.3510 -0.0268 -0.3603
  361MOL0     C47560   8.651   9.845   8.531  0.2634  0.0959  0.2262
  361MOL0     C47561   8.754   9.731   8.517  0.1134  0.4818 -0.3223
  361MOL0     C47562   8.708   9.601   8.589 -0.5761  0.6646 -0.1155
  361MOL0     C47563   8.750   9.589   8.744  0.0738  0.9332 -0.2676
  361MOL0    Cl47564   8.727   9.425   8.812 -0.1099 -0.5556  0.0470
  361MOL0     C47565   8.261   9.680   7.867 -0.9611 -0.7358  0.5676
  361MOL0     C47566   8.219   9.633   7.737 -1.0825 -0.3284  0.8276
  361MOL0     O47567   8.233   9.282   7.601 -0.3728 -0.2961  0.0376
  361MOL0     C47568   8.117   9.187   7.376  0.1275  0.1945  0.5624
  361MOL0     C47569   8.090   9.153   7.242  0.4686 -0.6313  0.0444
  361MOL0     N47570   7.499   8.777   6.812 -0.3764 -0.3376 -0.5156
  361MOL0     N47571   7.492   8.686   6.726 -0.7285 -0.4361 -0.2314
  361MOL0     C47572   6.700   8.242   6.345  0.2036  0.6272  0.7044
  361MOL0     C47573   6.582   8.181   6.339 -0.4294 -1.2243  0.1481
  361MOL0     C47574   6.136   8.124   6.187 -0.4014 -0.3719 -0.3975
  361MOL0     C47575   6.022   8.203   6.173 -0.7081 -0.1856  0.0920
  361MOL0     C47576   5.904   8.147   6.141  1.2695  0.2548 -0.0386
  361MOL0     C47577   5.880   8.012   6.130 -0.0415  0.3365  1.4727
  361MOL0     O47578   5.759   7.954   6.106  0.1362 -0.6551  0.1508
  361MOL0     C47579   5.693   8.010   5.989  0.0984  0.7849 -0.8913
  361MOL0     C47580   5.543   8.017   6.005  0.1617  0.7527  0.0448
  361MOL0     C47581   5.520   8.136   6.093 -0.2164 -0.6894  0.3526
  361MOL0     C47582   5.513   8.275   6.022 -0.4890 -0.1642 -0.7584
  361MOL0     C47583   5.628   8.359   6.056 -0.5922 -0.7060  0.0017
  361MOL0     C47584   5.726   8.435   6.081  0.5588 -0.4906  0.1837
  361MOL0     C47585   5.993   7.926   6.135  0.5347 -0.2224 -0.2459
  361MOL0     C47586   6.123   7.983   6.161  0.0671 -0.9085 -0.4743
  361MOL0     H47587   6.503   8.219   6.011 -0.9828  1.1970  0.1321
  361MOL0     H47588   6.742   8.326   6.019  1.6340  0.0528  0.0013
  361MOL0     H47589   6.881   8.528   6.130  0.7684  1.6119  1.3774
  361MOL0     H47590   6.939   8.374   6.055  2.0213  0.3649 -0.3759
  361MOL0     H47591   7.087   8.556   6.262  1.9516 -0.7627 -0.2163
  361MOL0     H47592   7.115   8.546   6.083  0.4633  1.5833  0.5739
  361MOL0     H47593   7.224   8.339   6.093  0.2949  0.8894 -0.4560
  361MOL0     H47594   7.146   8.288   6.249 -2.3667 -1.5233 -2.9319
  361MOL0     H47595   7.280   8.460   6.380  2.4148 -0.2922  0.1844
  361MOL0     H47596   7.377   8.345   6.300  4.1898  2.2002 -0.2989
  361MOL0     H47597   7.310   8.631   6.219  0.8206  0.3536  0.8411
  361MOL0     H47598   7.415   8.513   6.124  1.0796  1.5975 -0.4533
  361MOL0     H47599   7.534   8.673   6.254  0.3008  0.0859  1.2090
  361MOL0     H47600   7.589   8.508   6.263 -0.2805 -1.4938  3.3241
  361MOL0     H47601   7.404   8.625   6.482  0.7357  0.4213  1.9328
  361MOL0     H47602   7.505   8.472   6.490  0.9709  1.0531  1.7729
  361MOL0     H47603   7.638   8.721   6.432 -4.5785  0.2167 -2.2279
  361MOL0     H47604   7.719   8.580   6.495  0.6825  2.3341 -2.6076
  361MOL0     H47605   7.774   8.839   6.650 -0.4555  0.7426  0.7501
  361MOL0     H47606   7.545   8.987   6.928  0.1865 -2.8193  0.2966
  361MOL0     H47607   7.627   9.054   6.787 -0.9262  0.5330  1.3656
  361MOL0     H47608   7.763   8.910   7.032 -1.8056 -1.5291 -0.5745
  361MOL0     H47609   7.722   9.084   7.030 -3.5390  1.5639 -2.4426
  361MOL0     H47610   7.904   8.931   6.843 -7.0511 -0.9439 -1.6564
  361MOL0     H47611   7.877   9.092   6.805 -1.0426 -0.3932 -0.8028
  361MOL0     H47612   8.088   9.066   6.917 -1.1241 -0.7330 -0.7642
  361MOL0     H47613   8.011   8.977   7.056  5.0160 -0.0935 -0.6091
  361MOL0     H47614   7.922   9.424   7.136 -1.4942  0.1352 -0.0487
  361MOL0     H47615   7.992   9.500   7.376  2.4995  0.8619 -0.2421
  361MOL0     H47616   8.020   9.374   7.828 -0.3160  1.1331  1.8232
  361MOL0     H47617   8.070   9.462   8.039  2.9907 -2.4334 -0.5953
  361MOL0     H47618   8.406   9.770   8.092 -3.1361  2.8666 -1.9564
  361MOL0     H47619   8.404   9.608   8.151 -1.1709 -0.0353  2.7675
  361MOL0     H47620   8.317   9.690   8.370 -3.9486  1.9212  1.1462
  361MOL0     H47621   8.292   9.854   8.293  0.6442 -0.1508 -0.7845
  361MOL0     H47622   8.526   9.899   8.280 -1.6564 -0.9656  0.1728
  361MOL0     H47623   8.566   9.727   8.288 -2.4374 -2.0051 -0.6197
  361MOL0     H47624   8.454   9.898   8.521  1.6406  0.9919  0.4636
  361MOL0     H47625   8.467   9.730   8.527  0.0745 -0.2469 -0.3593
  361MOL0     H47626   8.632   9.859   8.638 -0.6088  0.8699 -0.0114
  361MOL0     H47627   8.677   9.937   8.478 -1.1056  0.4991  0.2062
  361MOL0     H47628   8.856   9.761   8.543 -1.1070  3.5128  1.4381
  361MOL0     H47629   8.762   9.713   8.410  0.8309 -0.1095 -0.1790
  361MOL0     H47630   8.599   9.604   8.578 -0.5658 -0.7988 -0.8016
  361MOL0     H47631   8.734   9.510   8.535  0.5199  0.1016  1.3043
  361MOL0     H47632   8.698   9.660   8.810  1.3695 -0.8352  2.8837
  361MOL0     H47633   8.859   9.600   8.748  0.1385  0.3685 -0.4485
  361MOL0     H47634   8.349   9.744   7.868 -0.1440 -1.7198 -1.8660
  361MOL0     H47635   8.263   9.677   7.648  1.1634 -2.3524  0.8436
  361MOL0     H47636   8.173   9.117   7.437  2.9734  1.2940 -0.6282
  361MOL0     H47637   8.142   9.059   7.226  2.4659 -0.1192  2.7190
  361MOL0     H47638   6.765   8.247   6.432  3.0542 -0.7158 -1.2083
  361MOL0     H47639   6.543   8.123   6.423  0.3143  0.2448  1.5573
  361MOL0     H47640   6.029   8.311   6.180 -2.3223 -0.1534  1.8689
  361MOL0     H47641   5.815   8.209   6.134  0.8800 -0.3643 -0.8057
  361MOL0     H47642   5.705   7.923   5.924 -1.6233 -0.5159  0.4052
  361MOL0     H47643   5.737   8.101   5.949  1.6963 -0.0641 -1.1423
  361MOL0     H47644   5.494   8.028   5.908  1.5159 -0.2451 -0.7856
  361MOL0     H47645   5.492   7.934   6.057 -3.5991  0.6825 -3.2489
  361MOL0     H47646   5.576   8.132   6.187  3.9474 -1.0357 -1.8969
  361MOL0     H47647   5.419   8.131   6.135  0.5251 -0.2175  2.3104
  361MOL0     H47648   5.513   8.263   5.914  2.0106  0.0828 -0.8336
  361MOL0     H47649   5.423   8.327   6.056  0.9994  3.1255 -1.4630
  361MOL0     H47650   5.788   8.515   6.118  0.6840  0.3437 -1.6909
  361MOL0     H47651   5.980   7.821   6.110 -5.4900 -0.5494  2.4815
  361MOL0     H47652   6.207   7.916   6.174  0.0458 -1.1120 -1.2869
  362MOL0     O47653   1.547   9.390   0.369  0.5343  0.5617 -0.2963
  362MOL0     C47654   1.447   9.394   0.446  0.2080  0.7088  0.4614
  362MOL0     O47655   1.326   9.344   0.424  0.4922 -0.2289  1.3310
  362MOL0     C47656   1.298   9.263   0.316 -0.4435  0.2130 -1.5817
  362MOL0     C47657   1.382   9.166   0.258 -0.5060 -0.5120 -0.2104
  362MOL0     C47658   1.334   9.085   0.153 -0.2321  0.5639 -0.2725
  362MOL0     C47659   1.198   9.099   0.112 -0.4669  0.3170  0.0672
  362MOL0     O47660   1.159   9.007   0.026 -0.1347 -0.2452  0.3149
  362MOL0     C47661   1.055   9.051  -0.066 -0.9972  0.3781  0.7531
  362MOL0     C47662   1.058   8.940  -0.171 -0.0277 -0.6649 -0.2381
  362MOL0     C47663   1.205   8.906  -0.226  1.5054 -0.6923  0.2173
  362MOL0     C47664   1.219   8.769  -0.311 -0.4927 -0.4402 -0.3486
  362MOL0     C47665   1.107   8.735  -0.400 -0.5430  0.2868 -0.2496
  362MOL0     C47666   1.090   8.584  -0.424 -0.2100  0.1113  0.0593
  362MOL0     C47667   1.185   8.508  -0.509  0.6227 -0.9961 -0.1252
  362MOL0     C47668   1.120   8.447  -0.633  0.9469  0.3381  0.3706
  362MOL0     N47669   1.092   8.556  -0.729  0.7546 -0.4789 -0.3682
  362MOL0     C47670   0.966   8.558  -0.801  0.5546 -0.3520  0.1178
  362MOL0     C47671   0.984   8.624  -0.915  0.0638  0.2004 -0.7374
  362MOL0     C47672   0.878   8.659  -1.001  1.0449  0.1991 -0.1094
  362MOL0     C47673   0.776   8.543  -1.027  0.3104  0.3635 -0.1406
  362MOL0     C47674   0.843   8.437  -1.128 -0.3126 -0.7099 -0.4098
  362MOL0     C47675   0.949   8.336  -1.077  1.1077  0.6937 -0.3981
  362MOL0     O47676   0.894   8.288  -0.951  0.2914  0.5451  0.3657
  362MOL0     C47677   0.955   8.171  -0.911  0.1221 -0.3307  0.2160
  362MOL0     C47678   1.093   8.144  -0.902  0.4213  0.3341 -0.5970
  362MOL0     C47679   1.141   8.022  -0.859  0.0595  0.1535 -0.3074
  362MOL0     C47680   1.062   7.917  -0.826 -0.2604 -0.1379 -0.6441
  362MOL0     C47681   1.118   7.788  -0.770  1.4141  0.7688 -1.1225
  362MOL0     O47682   1.020   7.702  -0.720  0.7306 -0.9427 -0.1816
  362MOL0     C47683   1.024   7.569  -0.753  0.1279 -0.3203 -0.3023
  362MOL0     C47684   1.063   7.519  -0.876  0.2347 -0.6434 -0.0275
  362MOL0     C47685   1.072   7.373  -0.895  0.0313 -0.0082 -0.1735
  362MOL0     C47686   1.037   7.286  -0.791 -0.6741  0.1632 -1.4560
  362MOL0     O47687   1.048   7.154  -0.815 -0.0226  0.2554  0.5513
  362MOL0     C47688   0.984   7.115  -0.939  0.3612 -0.0882 -0.7037
  362MOL0     C47689   0.911   6.982  -0.935 -0.1443 -0.0105 -0.6710
  362MOL0     C47690   0.799   7.000  -0.831  0.4728 -0.3721 -0.1475
  362MOL0     C47691   0.691   6.889  -0.831 -0.3010 -0.9012 -0.5894
  362MOL0     C47692   0.598   6.891  -0.709 -0.5477  0.4534 -0.6173
  362MOL0     C47693   0.667   6.811  -0.592  0.9447  0.2881 -0.7213
  362MOL0     C47694   0.569   6.799  -0.470 -0.8542  0.5481 -0.2349
  362MOL0     C47695   0.512   6.662  -0.457 -0.1236  0.4036  0.4089
  362MOL0    Cl47696   0.406   6.676  -0.321  0.2747 -0.3785 -0.3068
  362MOL0     C47697   0.992   7.332  -0.667  0.4771 -0.1499 -0.1201
  362MOL0     C47698   0.989   7.476  -0.653  0.4847  0.1065 -0.6678
  362MOL0     O47699   1.238   7.765  -0.766 -0.6149 -0.2372 -0.2531
  362MOL0     C47700   0.926   7.946  -0.815  0.5604 -0.6301  0.4647
  362MOL0     C47701   0.876   8.069  -0.859  1.5233  0.0931  0.7200
  362MOL0     N47702   1.124   8.648  -0.926  0.0700  0.2665 -0.7827
  362MOL0     N47703   1.182   8.608  -0.815  0.2888  0.3510 -0.4271
  362MOL0     C47704   1.106   9.196   0.171 -1.0087 -0.7033  0.0448
  362MOL0     C47705   1.160   9.281   0.275  1.5199  1.2507 -0.5464
  362MOL0     C47706   1.454   9.460   0.574  0.4266  0.5401 -0.2381
  362MOL0     C47707   1.563   9.453   0.660 -2.0447 -0.5925  0.0379
  362MOL0     C47708   1.581   9.538   0.775  0.4525  0.0224 -0.1960
  362MOL0     C47709   1.477   9.623   0.807  0.3392  0.5672  1.3601
  362MOL0     O47710   1.474   9.680   0.927 -0.3577 -0.7561 -0.2447
  362MOL0     C47711   1.567   9.796   0.944  0.7364 -1.1034 -0.5375
  362MOL0     C47712   1.512   9.888   1.063 -0.4739 -0.8957  0.6184
  362MOL0     C47713   1.619   9.982   1.120  0.2851 -0.1728  0.3238
  362MOL0     C47714   1.563  10.059   1.247 -0.3083  0.3915 -0.4931
  362MOL0     C47715   1.476  10.175   1.225 -0.4702  0.7140 -0.7133
  362MOL0     C47716   1.404  10.270   1.203 -0.4044 -0.9820  0.3037
  362MOL0     C47717   1.361   9.611   0.735  0.1613  0.6804 -1.0032
  362MOL0     C47718   1.353   9.539   0.619 -1.0017  0.0357  0.3024
  362MOL0     H47719   1.482   9.153   0.298 -0.4423  1.0423  0.2237
  362MOL0     H47720   1.380   9.007   0.094 -0.5936 -0.2234  0.4735
  362MOL0     H47721   1.075   9.147  -0.116  1.2611 -0.7661 -0.7514
  362MOL0     H47722   0.962   9.065  -0.010 -1.5505 -0.1024 -0.0281
  362MOL0     H47723   0.975   8.948  -0.243 -2.4318  0.8974  2.4642
  362MOL0     H47724   1.036   8.850  -0.113  2.3075 -0.5933  0.8477
  362MOL0     H47725   1.270   8.908  -0.138  1.4359  1.0472  0.2678
  362MOL0     H47726   1.243   8.986  -0.291 -1.3289 -1.8921 -3.2801
  362MOL0     H47727   1.315   8.756  -0.361  0.5761  0.0861  1.4604
  362MOL0     H47728   1.202   8.690  -0.237 -0.9108  0.1534  0.1929
  362MOL0     H47729   1.121   8.763  -0.505 -2.2477 -4.2465 -1.9133
  362MOL0     H47730   1.014   8.773  -0.358 -0.2169 -0.7493  1.4911
  362MOL0     H47731   0.994   8.588  -0.476 -0.3294  0.3156  0.2900
  362MOL0     H47732   1.082   8.530  -0.329 -0.0394  1.1904  0.7101
  362MOL0     H47733   1.270   8.573  -0.533 -1.5057  1.4496 -1.6211
  362MOL0     H47734   1.220   8.422  -0.451  0.0722 -2.1251 -1.4169
  362MOL0     H47735   1.025   8.400  -0.607  0.1986  0.5655 -1.7302
  362MOL0     H47736   1.182   8.371  -0.681 -3.2042 -4.3663  1.6206
  362MOL0     H47737   0.871   8.517  -0.768  0.0434  0.8329  0.1434
  362MOL0     H47738   0.915   8.698  -1.096  0.5267 -0.1709 -0.4701
  362MOL0     H47739   0.828   8.747  -0.960 -0.2817 -1.1431  1.2630
  362MOL0     H47740   0.690   8.589  -1.077  0.1136 -0.3114 -0.4292
  362MOL0     H47741   0.738   8.491  -0.939  0.0565 -0.0885 -0.5177
  362MOL0     H47742   0.781   8.369  -1.187  4.3508 -3.1394 -3.1631
  362MOL0     H47743   0.903   8.485  -1.206  3.7695 -1.4983  1.9713
  362MOL0     H47744   1.046   8.386  -1.068  1.6854 -0.7526  2.5321
  362MOL0     H47745   0.951   8.253  -1.149 -0.3907  2.1996 -2.2807
  362MOL0     H47746   1.165   8.224  -0.916  0.1815  0.7501  0.4048
  362MOL0     H47747   1.244   8.022  -0.823 -0.2532  2.3229  0.7179
  362MOL0     H47748   1.112   7.573  -0.956  1.5613  0.0656  1.2217
  362MOL0     H47749   1.115   7.335  -0.987  1.1836  1.8863 -0.4973
  362MOL0     H47750   1.048   7.098  -1.025 -0.5741 -0.0464 -1.4275
  362MOL0     H47751   0.912   7.190  -0.973  1.6104  1.6848  0.4395
  362MOL0     H47752   0.975   6.896  -0.917  0.0133  0.5937  2.0459
  362MOL0     H47753   0.875   6.970  -1.038  1.3044  2.1997 -1.4995
  362MOL0     H47754   0.752   7.094  -0.862 -1.7131 -0.8251  1.5412
  362MOL0     H47755   0.833   7.013  -0.728  2.3572  1.2089 -0.8957
  362MOL0     H47756   0.645   6.909  -0.928  1.3317  3.0264 -0.7741
  362MOL0     H47757   0.737   6.791  -0.842 -0.2038 -0.7060 -2.1859
  362MOL0     H47758   0.507   6.834  -0.728 -0.8200  0.2902  1.0545
  362MOL0     H47759   0.581   6.995  -0.681 -1.7158 -0.0656  0.7216
  362MOL0     H47760   0.760   6.852  -0.551  1.5075  0.5590 -2.1980
  362MOL0     H47761   0.701   6.711  -0.622  2.9404 -0.4529  3.3145
  362MOL0     H47762   0.614   6.818  -0.372  0.4045  3.5871 -1.2952
  362MOL0     H47763   0.489   6.873  -0.472  0.2994  1.8230 -0.3467
  362MOL0     H47764   0.586   6.590  -0.421  0.6402 -0.3049 -2.2909
  362MOL0     H47765   0.461   6.620  -0.544 -1.7122  3.8174 -0.4599
  362MOL0     H47766   0.978   7.266  -0.582  3.5645  2.6655  2.8912
  362MOL0     H47767   0.958   7.522  -0.560  1.0518 -1.0638  0.1255
  362MOL0     H47768   0.845   7.886  -0.775 -2.2815  2.9808  0.6620
  362MOL0     H47769   0.771   8.096  -0.853  0.6948 -3.0286  3.1977
  362MOL0     H47770   1.009   9.228   0.137 -0.5544 -1.0694 -1.7124
  362MOL0     H47771   1.084   9.345   0.320 -1.1390 -1.3569 -1.0150
  362MOL0     H47772   1.652   9.395   0.636 -1.6606  0.6900 -1.8464
  362MOL0     H47773   1.660   9.535   0.849 -1.0554  3.6377  1.8641
  362MOL0     H47774   1.567   9.856   0.853 -2.9065 -0.2066 -0.0959
  362MOL0     H47775   1.663   9.749   0.968  0.3837 -3.3928 -3.1839
  362MOL0     H47776   1.433   9.947   1.015  1.5914  1.3687 -0.1950
  362MOL0     H47777   1.472   9.819   1.138 -1.9058  0.1821  0.8805
  362MOL0     H47778   1.651  10.051   1.041 -3.8756 -1.4593 -2.8761
  362MOL0     H47779   1.710   9.934   1.157  1.0404  1.1822  0.2629
  362MOL0     H47780   1.516   9.977   1.302  0.6998 -1.9171 -2.8666
  362MOL0     H47781   1.654  10.100   1.292 -0.2854 -0.6101  0.3994
  362MOL0     H47782   1.325  10.340   1.187  0.8617  1.3075  3.1712
  362MOL0     H47783   1.275   9.674   0.756 -1.2618 -0.9567 -1.7350
  362MOL0     H47784   1.267   9.558   0.556  1.0117 -1.0798 -3.0336
  363MOL0     O47785   9.399  11.072   4.643  0.1454  0.0124  0.2715
  363MOL0     C47786   9.376  11.036   4.525  0.1385 -0.5335  0.1807
  363MOL0     O47787   9.361  11.127   4.428  0.1761  0.3713 -1.0195
  363MOL0     C47788   9.332  11.253   4.483 -0.1804 -0.2364  0.2360
  363MOL0     C47789   9.442  11.348   4.510  0.6694  0.7783 -0.0784
  363MOL0     C47790   9.416  11.462   4.580 -0.0073 -1.1622 -0.2473
  363MOL0     C47791   9.288  11.491   4.634 -0.2279 -0.4401  0.9258
  363MOL0     O47792   9.283  11.597   4.716  0.2636  0.0844  0.5291
  363MOL0     C47793   9.160  11.655   4.763 -0.4109  0.1585 -0.2451
  363MOL0     C47794   9.223  11.785   4.827 -0.4482  0.6495  0.9000
  363MOL0     C47795   9.116  11.888   4.881 -0.5772 -0.3114 -0.4097
  363MOL0     C47796   9.031  11.831   5.000 -0.2215 -0.7428  0.0293
  363MOL0     C47797   8.909  11.921   5.052  0.0884 -0.2709 -0.1496
  363MOL0     C47798   8.974  12.044   5.100  0.5189 -0.3042 -0.6670
  363MOL0     C47799   8.951  12.160   5.011  0.2928  0.1920  0.9394
  363MOL0     C47800   8.978  12.294   5.078  0.9818 -0.6692 -0.2251
  363MOL0     N47801   9.119  12.322   5.056  0.1000 -0.1714 -0.7063
  363MOL0     C47802   9.185  12.357   4.944 -0.1605 -0.4250  0.9913
  363MOL0     C47803   9.319  12.342   4.978  0.4382  0.1679  0.8652
  363MOL0     C47804   9.432  12.354   4.880  0.5499 -0.6554  0.0974
  363MOL0     C47805   9.491  12.233   4.821 -0.4403  0.5735 -0.5971
  363MOL0     C47806   9.594  12.170   4.922 -0.5539  0.5803 -0.9767
  363MOL0     C47807   9.656  12.039   4.861 -0.8593  0.0233  0.5414
  363MOL0     O47808   9.733  12.074   4.747  0.0306  0.4814 -0.9262
  363MOL0     C47809   9.746  11.963   4.669 -0.7000 -0.1081 -0.1209
  363MOL0     C47810   9.747  11.981   4.534 -0.4472 -0.2821 -0.2663
  363MOL0     C47811   9.751  11.875   4.441 -0.7049 -0.4283 -0.2080
  363MOL0     C47812   9.759  11.746   4.487 -0.0992  0.8239 -1.0943
  363MOL0     C47813   9.739  11.637   4.400  0.7401  0.8556  0.1023
  363MOL0     O47814   9.715  11.664   4.271  0.2161 -0.2032 -0.0694
  363MOL0     C47815   9.646  11.573   4.199  0.9754  0.1026 -0.6282
  363MOL0     C47816   9.504  11.541   4.200 -0.9156  0.3695 -0.5936
  363MOL0     C47817   9.449  11.449   4.102  0.1496  0.1386 -0.0354
  363MOL0     C47818   9.529  11.397   3.994  0.7297 -0.8146  0.3393
  363MOL0     O47819   9.461  11.313   3.899 -0.0172  0.1725 -0.1341
  363MOL0     C47820   9.527  11.270   3.784 -0.3510  0.6681 -0.5865
  363MOL0     C47821   9.475  11.133   3.758 -0.6648  0.0782  0.5668
  363MOL0     C47822   9.394  11.103   3.638 -0.1663  0.5961 -0.0530
  363MOL0     C47823   9.481  11.098   3.515 -0.5762  0.1423  0.9211
  363MOL0     C47824   9.402  11.117   3.382 -0.1782 -0.6101 -0.1771
  363MOL0     C47825   9.481  11.129   3.246  0.2331 -0.2822 -0.0291
  363MOL0     C47826   9.390  11.184   3.126 -0.6229  0.0460 -0.1959
  363MOL0     C47827   9.453  11.146   2.995  0.5029  0.0242 -0.4137
  363MOL0    Cl47828   9.626  11.197   2.995  0.0462  0.0655  0.3900
  363MOL0     C47829   9.671  11.419   4.005 -1.0632 -0.1159  0.9133
  363MOL0     C47830   9.724  11.513   4.098 -0.7722 -0.2660  0.6057
  363MOL0     O47831   9.713  11.529   4.445 -0.1302 -0.1805  0.1560
  363MOL0     C47832   9.777  11.722   4.620  0.5029 -0.6082 -0.1142
  363MOL0     C47833   9.771  11.828   4.719  0.5744  0.6638 -0.0973
  363MOL0     N47834   9.323  12.281   5.104 -0.5016 -0.0628 -0.1954
  363MOL0     N47835   9.203  12.274   5.148  0.0428 -0.1866 -0.0651
  363MOL0     C47836   9.184  11.411   4.620  0.4640  0.8182 -0.7810
  363MOL0     C47837   9.201  11.288   4.539 -0.0888 -0.4437 -0.3031
  363MOL0     C47838   9.391  10.896   4.492  0.9259  0.3135  0.0468
  363MOL0     C47839   9.346  10.844   4.371  0.3418  0.1205 -1.9804
  363MOL0     C47840   9.364  10.711   4.333  0.1803  1.3097 -0.0213
  363MOL0     C47841   9.423  10.618   4.416 -0.4188  0.4304  0.0850
  363MOL0     O47842   9.441  10.487   4.391  0.2050 -0.0652 -0.1537
  363MOL0     C47843   9.345  10.414   4.323 -0.9997  0.4273  0.5329
  363MOL0     C47844   9.375  10.387   4.178  0.7410 -0.3952 -0.0739
  363MOL0     C47845   9.428  10.239   4.172 -0.4411 -0.8107 -0.0265
  363MOL0     C47846   9.504  10.211   4.042  0.4283 -0.3734 -0.1840
  363MOL0     C47847   9.550  10.079   4.053 -0.1245 -0.0156  0.8372
  363MOL0     C47848   9.574   9.961   4.033  0.5105 -0.2059  0.1895
  363MOL0     C47849   9.472  10.667   4.534  1.4176 -0.2005  0.0468
  363MOL0     C47850   9.454  10.800   4.575 -0.3054  0.4582  0.1018
  363MOL0     H47851   9.544  11.326   4.479  1.0965 -0.9815  2.3408
  363MOL0     H47852   9.487  11.540   4.605 -0.8019 -0.3558 -0.4575
  363MOL0     H47853   9.107  11.595   4.838  1.7165  0.5612  1.6947
  363MOL0     H47854   9.098  11.675   4.676  3.1280  0.1233 -2.9806
  363MOL0     H47855   9.285  11.830   4.749 -0.0303 -1.4221 -0.0321
  363MOL0     H47856   9.287  11.746   4.906  1.5418 -1.5158 -1.6041
  363MOL0     H47857   9.044  11.918   4.804 -0.0952  1.8013 -0.1038
  363MOL0     H47858   9.172  11.975   4.917  1.8774 -2.6396  1.7717
  363MOL0     H47859   8.990  11.735   4.967 -3.8201  0.5432  0.2701
  363MOL0     H47860   9.088  11.813   5.092  0.6997 -2.5235 -0.8437
  363MOL0     H47861   8.844  11.880   5.130 -0.3343 -2.2058 -1.4502
  363MOL0     H47862   8.839  11.953   4.973  0.9340 -2.0762 -1.7167
  363MOL0     H47863   9.078  12.025   5.128 -0.2909 -1.0118  2.1606
  363MOL0     H47864   8.919  12.067   5.192 -1.4805 -0.0008 -1.8727
  363MOL0     H47865   9.012  12.154   4.921  0.1536 -0.6620  0.8948
  363MOL0     H47866   8.848  12.163   4.974 -0.2164  0.7732  2.3166
  363MOL0     H47867   8.954  12.288   5.184  1.9170  4.5640  0.5716
  363MOL0     H47868   8.908  12.369   5.040 -1.9724 -1.4438  3.1115
  363MOL0     H47869   9.147  12.373   4.843  1.7010 -1.1200  0.1349
  363MOL0     H47870   9.514  12.412   4.923 -1.1542  3.7659 -1.9937
  363MOL0     H47871   9.406  12.429   4.804 -0.4081  0.1959  1.2167
  363MOL0     H47872   9.555  12.271   4.741  0.8266 -1.8855 -0.8520
  363MOL0     H47873   9.417  12.167   4.775 -0.8487 -0.3111  1.2050
  363MOL0     H47874   9.680  12.235   4.943 -0.3955  0.6876 -1.9087
  363MOL0     H47875   9.538  12.154   5.015  1.4890 -3.2240 -0.1917
  363MOL0     H47876   9.572  11.974   4.836 -0.4392 -0.1754 -0.4102
  363MOL0     H47877   9.725  12.006   4.939  0.9154  0.9409 -0.5747
  363MOL0     H47878   9.735  12.082   4.495  0.1184  0.4489  1.3480
  363MOL0     H47879   9.736  11.904   4.337 -1.5449 -2.6957 -0.7744
  363MOL0     H47880   9.443  11.592   4.275  1.1685  1.3524  0.5220
  363MOL0     H47881   9.342  11.431   4.105  0.0797  0.3385 -1.0073
  363MOL0     H47882   9.635  11.272   3.799 -0.3950 -2.2629  1.0043
  363MOL0     H47883   9.503  11.337   3.701  0.0141  3.2952  1.3096
  363MOL0     H47884   9.411  11.112   3.844 -4.0592  3.6767 -0.8199
  363MOL0     H47885   9.562  11.067   3.753 -0.2477  0.5836  1.0144
  363MOL0     H47886   9.319  11.184   3.638  2.0570  2.7689  0.4533
  363MOL0     H47887   9.340  11.009   3.649  2.1074 -0.8182 -0.4837
  363MOL0     H47888   9.540  11.190   3.513 -2.4535  1.4014 -0.0038
  363MOL0     H47889   9.542  11.007   3.515 -0.1027  0.4594  0.3376
  363MOL0     H47890   9.343  11.207   3.406  2.4879  1.3812 -0.5932
  363MOL0     H47891   9.335  11.031   3.377 -0.0631 -1.0457  3.2285
  363MOL0     H47892   9.521  11.029   3.228  0.3921 -0.3337  0.6004
  363MOL0     H47893   9.564  11.200   3.259  0.8794 -1.1986  1.0285
  363MOL0     H47894   9.285  11.152   3.136  0.7000 -5.0519  0.2881
  363MOL0     H47895   9.376  11.291   3.145 -1.7305 -0.5966  3.2441
  363MOL0     H47896   9.393  11.188   2.914  0.9833 -0.3458 -0.9764
  363MOL0     H47897   9.452  11.037   2.993 -1.0361  0.0298 -0.6129
  363MOL0     H47898   9.741  11.377   3.934 -2.0570 -2.7809  1.4037
  363MOL0     H47899   9.829  11.541   4.090 -1.3454  1.9084  0.0378
  363MOL0     H47900   9.808  11.625   4.657  0.5301 -0.9700 -1.0747
  363MOL0     H47901   9.786  11.798   4.822 -5.8360 -1.6482  0.6261
  363MOL0     H47902   9.083  11.450   4.627 -0.5606 -1.5524 -1.2677
  363MOL0     H47903   9.112  11.228   4.527  0.0281 -0.3021 -2.1960
  363MOL0     H47904   9.312  10.925   4.307 -1.8604  1.7267  0.9854
  363MOL0     H47905   9.334  10.689   4.231 -0.1615  1.3999  0.0586
  363MOL0     H47906   9.251  10.469   4.334 -2.4668 -2.1817  1.9987
  363MOL0     H47907   9.330  10.315   4.367 -0.6256 -0.6251 -1.5792
  363MOL0     H47908   9.283  10.410   4.123  0.3494  0.7365  1.0114
  363MOL0     H47909   9.455  10.458   4.153  0.2779  0.8630  1.7659
  363MOL0     H47910   9.361  10.153   4.186  0.7437 -1.8257 -0.3999
  363MOL0     H47911   9.502  10.231   4.252 -0.5593 -1.3270  0.0329
  363MOL0     H47912   9.431  10.216   3.961 -0.2533 -1.7370  0.3139
  363MOL0     H47913   9.576  10.288   4.013 -0.2366 -0.0745 -1.0939
  363MOL0     H47914   9.587   9.856   4.019 -2.9018 -0.8847  1.2232
  363MOL0     H47915   9.524  10.588   4.589 -0.9789 -2.4123 -0.6572
  363MOL0     H47916   9.506  10.839   4.662 -1.6688 -4.0513  3.2801
  364MOL0     O47917   1.665   4.713   8.420  0.3234 -0.3457 -0.2898
  364MOL0     C47918   1.571   4.784   8.460  0.4037  0.1796 -0.5506
  364MOL0     O47919   1.564   4.848   8.578  0.5468 -1.2052  0.1153
  364MOL0     C47920   1.667   4.842   8.660 -0.3530  0.6577  0.8063
  364MOL0     C47921   1.788   4.910   8.615  0.2573  0.3810 -0.4979
  364MOL0     C47922   1.891   4.917   8.710 -0.2488 -0.2783 -0.4382
  364MOL0     C47923   1.883   4.861   8.833 -0.2986  0.2678  0.5369
  364MOL0     O47924   1.971   4.885   8.932  0.4675 -0.0701 -0.3880
  364MOL0     C47925   2.046   5.006   8.937  1.1979 -0.5841  0.3828
  364MOL0     C47926   2.147   5.021   9.037  0.2437  1.1366 -0.7239
  364MOL0     C47927   2.193   5.157   9.038 -0.0729 -0.3069 -0.8317
  364MOL0     C47928   2.108   5.270   9.105 -0.3653 -0.7239 -0.0126
  364MOL0     C47929   2.130   5.414   9.053 -1.0133  0.1705  0.9131
  364MOL0     C47930   2.042   5.436   8.933  0.5414 -1.1682  0.8090
  364MOL0     C47931   2.054   5.574   8.863 -0.9585  0.2030  0.3216
  364MOL0     C47932   1.943   5.599   8.756 -0.3539 -0.8806 -1.0797
  364MOL0     N47933   1.967   5.526   8.629 -0.5878 -0.3026  0.0201
  364MOL0     C47934   1.918   5.402   8.603  0.4440 -0.4409  0.5975
  364MOL0     C47935   1.973   5.369   8.484 -0.2912 -0.2518  1.9585
  364MOL0     C47936   1.933   5.243   8.419 -0.5868 -1.5114  0.9031
  364MOL0     C47937   1.969   5.246   8.264  0.3273  0.5317 -0.6270
  364MOL0     C47938   1.881   5.345   8.192  0.1513  0.3252 -0.3908
  364MOL0     C47939   1.923   5.363   8.041  0.2729  0.0592 -0.4225
  364MOL0     O47940   1.805   5.434   7.995 -0.0419  0.4766 -0.1493
  364MOL0     C47941   1.740   5.371   7.894  0.7926  0.3818  0.4397
  364MOL0     C47942   1.618   5.324   7.915  0.5991  0.1802  0.0700
  364MOL0     C47943   1.527   5.291   7.804 -0.7076  0.5528  0.2700
  364MOL0     C47944   1.583   5.281   7.680  0.0677  0.3822  0.0950
  364MOL0     C47945   1.493   5.229   7.568 -0.6523  0.6541 -0.1807
  364MOL0     O47946   1.551   5.230   7.446 -0.6764  0.2094  0.8297
  364MOL0     C47947   1.496   5.182   7.329  0.5994  0.1077 -0.2964
  364MOL0     C47948   1.365   5.142   7.311 -0.0434  0.3852 -0.3082
  364MOL0     C47949   1.325   5.084   7.188  0.1720 -0.3296  0.2544
  364MOL0     C47950   1.420   5.068   7.091  0.0663  0.6696 -0.3715
  364MOL0     O47951   1.375   5.005   6.977  0.2423  0.1934  0.4241
  364MOL0     C47952   1.404   4.865   6.965 -0.5335  0.8407  0.5763
  364MOL0     C47953   1.283   4.776   6.991 -1.3936 -0.0375  0.3001
  364MOL0     C47954   1.320   4.629   7.033  0.2711 -0.9817  0.0999
  364MOL0     C47955   1.200   4.537   7.065  1.2902 -0.1464  0.7846
  364MOL0     C47956   1.133   4.475   6.944 -0.3777  0.0082  0.9019
  364MOL0     C47957   0.998   4.408   6.970 -0.8401  0.5141 -1.0484
  364MOL0     C47958   0.947   4.344   6.845  0.1965 -0.3140 -0.0393
  364MOL0     C47959   0.876   4.440   6.756  0.6109  0.8165  1.0349
  364MOL0    Cl47960   0.984   4.538   6.660 -0.1961 -0.0674  0.2124
  364MOL0     C47961   1.558   5.104   7.100 -0.3772 -1.2981 -0.5357
  364MOL0     C47962   1.590   5.170   7.221 -0.1395 -0.2144  0.0260
  364MOL0     O47963   1.384   5.182   7.596 -0.8400 -0.4422  0.6902
  364MOL0     C47964   1.719   5.329   7.662  0.1916 -0.0139  0.1727
  364MOL0     C47965   1.802   5.365   7.769  0.4806  1.0143 -0.2132
  364MOL0     N47966   2.046   5.481   8.438  0.5984 -0.2606  0.2549
  364MOL0     N47967   2.047   5.570   8.526  0.1951 -0.5388 -0.0133
  364MOL0     C47968   1.772   4.794   8.869 -0.8285  0.7468 -0.6111
  364MOL0     C47969   1.654   4.794   8.791  0.8610  0.3747  0.3725
  364MOL0     C47970   1.434   4.769   8.398 -0.0753 -0.4816 -0.4158
  364MOL0     C47971   1.424   4.709   8.269  0.0111  0.2021 -0.2271
  364MOL0     C47972   1.297   4.693   8.205  0.4191  0.9956 -0.1068
  364MOL0     C47973   1.186   4.749   8.266 -0.0812  0.6865 -0.3040
  364MOL0     O47974   1.075   4.762   8.193 -0.1039  0.4593 -0.5512
  364MOL0     C47975   1.017   4.637   8.143  0.7946 -0.0936 -0.1290
  364MOL0     C47976   0.872   4.657   8.172  1.1640 -0.7634 -0.8384
  364MOL0     C47977   0.796   4.755   8.092 -0.6613 -0.5701  0.4479
  364MOL0     C47978   0.795   4.906   8.139 -1.0769  0.5509  0.3983
  364MOL0     C47979   0.769   5.012   8.043  0.7532 -0.3148  0.9069
  364MOL0     C47980   0.750   5.101   7.959 -0.5502  0.6975  0.0971
  364MOL0     C47981   1.202   4.826   8.392  0.9590  0.2956  0.0867
  364MOL0     C47982   1.319   4.825   8.459  0.4224 -0.1728  0.5418
  364MOL0     H47983   1.797   4.954   8.516  1.4808 -3.9909 -2.5818
  364MOL0     H47984   1.985   4.964   8.681 -1.8330  2.8081 -1.0156
  364MOL0     H47985   1.970   5.085   8.943  4.0614  2.5396 -0.9027
  364MOL0     H47986   2.105   5.004   8.845 -1.2449  1.7680 -1.4008
  364MOL0     H47987   2.235   4.961   9.014  3.1620  5.3859 -1.9363
  364MOL0     H47988   2.111   5.001   9.139 -1.2104  4.6068 -0.4129
  364MOL0     H47989   2.221   5.182   8.936  3.3986 -0.4745 -0.0391
  364MOL0     H47990   2.291   5.151   9.086  0.7890 -0.3375 -2.5407
  364MOL0     H47991   1.999   5.258   9.105 -0.6367  1.3695 -0.4332
  364MOL0     H47992   2.138   5.267   9.210 -1.8113 -2.2843  0.4178
  364MOL0     H47993   2.229   5.444   9.018 -0.9886 -0.5613  0.3323
  364MOL0     H47994   2.103   5.478   9.137  1.6889  1.2936  1.0386
  364MOL0     H47995   1.939   5.414   8.963  1.3671 -1.8138  3.3520
  364MOL0     H47996   2.066   5.367   8.852 -1.8556  2.3824 -3.4101
  364MOL0     H47997   2.052   5.655   8.936 -1.8273  1.8164 -1.3943
  364MOL0     H47998   2.151   5.588   8.814 -1.0184  2.1045  0.6434
  364MOL0     H47999   1.935   5.706   8.738 -0.8707  0.0001  3.2708
  364MOL0     H48000   1.842   5.572   8.791 -0.4362 -1.5193 -1.7603
  364MOL0     H48001   1.845   5.347   8.661 -0.1427 -1.4575 -1.0398
  364MOL0     H48002   1.827   5.220   8.425 -0.7779 -0.4980  1.8457
  364MOL0     H48003   1.987   5.165   8.473 -2.0939 -2.6406  0.8296
  364MOL0     H48004   1.969   5.147   8.218  2.7377  0.3124 -0.2758
  364MOL0     H48005   2.072   5.278   8.245  1.4225 -1.5782  1.3163
  364MOL0     H48006   1.778   5.308   8.189 -0.1219  1.0711 -2.5002
  364MOL0     H48007   1.879   5.441   8.245  0.3381 -1.1537  2.4879
  364MOL0     H48008   1.930   5.267   7.989 -0.8958 -0.4366  0.2739
  364MOL0     H48009   2.012   5.426   8.033  0.1816 -0.0300 -2.9362
  364MOL0     H48010   1.591   5.328   8.020  1.3680  0.7828  0.2524
  364MOL0     H48011   1.432   5.248   7.833 -0.6934  0.1425 -0.2699
  364MOL0     H48012   1.294   5.154   7.393  0.6521  0.9243  0.2342
  364MOL0     H48013   1.226   5.057   7.151 -0.3768  2.2374 -0.3394
  364MOL0     H48014   1.482   4.837   7.036  0.6969 -0.5006 -1.1961
  364MOL0     H48015   1.447   4.840   6.867  6.4395 -0.5842  3.4456
  364MOL0     H48016   1.216   4.771   6.905  0.7523 -2.6651 -1.3798
  364MOL0     H48017   1.242   4.836   7.073 -0.1871  3.5040 -1.4764
  364MOL0     H48018   1.387   4.627   7.119 -1.1702  0.6734  1.3129
  364MOL0     H48019   1.381   4.584   6.953  0.0588  0.4622 -0.9060
  364MOL0     H48020   1.231   4.457   7.132 -0.6575 -1.9189 -0.3065
  364MOL0     H48021   1.122   4.594   7.117 -0.3175 -1.9021  0.4304
  364MOL0     H48022   1.201   4.397   6.906 -0.3910  0.7368 -0.6925
  364MOL0     H48023   1.124   4.552   6.868  1.3580 -0.5590  0.0706
  364MOL0     H48024   0.927   4.472   7.022 -1.8114 -0.6959 -0.8488
  364MOL0     H48025   1.011   4.331   7.047  0.9911  2.5944  0.8791
  364MOL0     H48026   1.031   4.297   6.793  0.7804  0.2074  0.4142
  364MOL0     H48027   0.866   4.273   6.865 -1.6076  1.0550 -2.0630
  364MOL0     H48028   0.826   4.510   6.823  0.9051 -0.4205  2.6131
  364MOL0     H48029   0.812   4.383   6.688  0.4316 -0.3465  2.1355
  364MOL0     H48030   1.634   5.082   7.026  1.9234 -2.5447  2.0400
  364MOL0     H48031   1.688   5.211   7.244  0.2353 -2.2879  2.6035
  364MOL0     H48032   1.759   5.333   7.561  1.7720 -2.2935  0.6054
  364MOL0     H48033   1.901   5.402   7.745  1.3361 -1.1854 -0.2438
  364MOL0     H48034   1.755   4.758   8.970  0.8590  4.0782  1.0509
  364MOL0     H48035   1.565   4.737   8.815  1.0676  0.1240  0.5553
  364MOL0     H48036   1.513   4.678   8.215 -0.4807 -3.2969  0.7606
  364MOL0     H48037   1.296   4.631   8.116  2.0313 -1.4467  1.4672
  364MOL0     H48038   1.063   4.549   8.188  2.2105  1.7619  2.2607
  364MOL0     H48039   1.033   4.616   8.036  3.5534  2.5002 -0.3543
  364MOL0     H48040   0.828   4.563   8.137  1.1658 -1.6370  1.3198
  364MOL0     H48041   0.853   4.677   8.278  0.4066 -0.2739 -1.0598
  364MOL0     H48042   0.693   4.724   8.107 -0.9516 -0.6687 -1.5028
  364MOL0     H48043   0.826   4.739   7.988 -0.8860  0.1038  0.2689
  364MOL0     H48044   0.727   4.926   8.222 -2.3864 -1.3705 -0.1731
  364MOL0     H48045   0.896   4.925   8.178 -1.1962  0.6834  0.6421
  364MOL0     H48046   0.745   5.189   7.898  1.5198 -0.0973 -1.3136
  364MOL0     H48047   1.112   4.880   8.419  1.4097  0.7239  0.7762
  364MOL0     H48048   1.314   4.871   8.558 -1.4640 -2.0639  1.3998
  365MOL0     O48049  10.881   7.665   3.108 -0.4103 -0.1253 -0.9184
  365MOL0     C48050  10.798   7.719   3.181  0.0873  0.9304 -0.5784
  365MOL0     O48051  10.781   7.851   3.209  0.1896 -0.2740 -0.6166
  365MOL0     C48052  10.843   7.947   3.124  0.0559  0.7456 -1.1816
  365MOL0     C48053  10.882   7.932   2.992 -0.5094 -1.1137  0.3140
  365MOL0     C48054  10.954   8.052   2.941 -0.4746  0.4434  0.6748
  365MOL0     C48055  10.975   8.170   3.007  0.1798  0.0797  1.1407
  365MOL0     O48056  11.026   8.281   2.952 -0.0509 -0.0327 -0.0645
  365MOL0     C48057  11.010   8.316   2.811 -0.4341  0.1527 -0.0878
  365MOL0     C48058  10.867   8.351   2.784 -0.4516  1.0337  0.5210
  365MOL0     C48059  10.860   8.399   2.634 -0.2393  0.0423  0.7939
  365MOL0     C48060  10.934   8.537   2.614  0.4626  0.1696 -0.6899
  365MOL0     C48061  10.901   8.583   2.470  0.2104 -0.2842  0.2701
  365MOL0     C48062  10.985   8.718   2.435 -0.4696 -0.0749  0.2774
  365MOL0     C48063  10.966   8.798   2.293  0.2219 -1.0101 -0.0732
  365MOL0     C48064  11.079   8.880   2.243 -0.1361 -0.2762 -0.7289
  365MOL0     N48065  11.061   8.969   2.126  1.0631  0.5059  0.1652
  365MOL0     C48066  11.019   8.924   1.996  0.2426  0.2414 -0.8249
  365MOL0     C48067  11.037   9.046   1.927 -0.1136  0.8593 -0.4446
  365MOL0     C48068  11.049   9.064   1.776  0.0674  0.7238 -0.2224
  365MOL0     C48069  10.917   9.114   1.725  0.0363  0.4641 -0.2340
  365MOL0     C48070  10.894   9.263   1.777  1.6232 -0.0132 -0.4648
  365MOL0     C48071  10.782   9.337   1.706 -0.1370 -0.3567 -0.4589
  365MOL0     O48072  10.724   9.442   1.787 -0.4152 -0.1624 -0.5944
  365MOL0     C48073  10.719   9.564   1.720  0.6351 -0.8026 -0.7651
  365MOL0     C48074  10.821   9.636   1.652 -0.0840 -0.6462 -0.2653
  365MOL0     C48075  10.791   9.766   1.612 -0.8720  0.6939  1.4154
  365MOL0     C48076  10.675   9.829   1.647  0.3368  0.1255 -1.2655
  365MOL0     C48077  10.646   9.962   1.592  1.7802 -0.2805 -0.5510
  365MOL0     O48078  10.727  10.061   1.604 -0.1902 -0.8713  0.8390
  365MOL0     C48079  10.670  10.186   1.578  0.5767  0.3615  0.7611
  365MOL0     C48080  10.619  10.263   1.677  0.4392 -0.2523  0.9465
  365MOL0     C48081  10.586  10.390   1.655  0.0874 -1.0207  0.0837
  365MOL0     C48082  10.599  10.457   1.534  0.6958  0.2226  0.6263
  365MOL0     O48083  10.574  10.589   1.518  0.4961 -0.1458  0.5823
  365MOL0     C48084  10.447  10.618   1.458  0.9116  0.5101 -0.1495
  365MOL0     C48085  10.389  10.754   1.494  0.6266  0.2890 -0.2852
  365MOL0     C48086  10.238  10.760   1.465  0.3669  0.2713  0.0567
  365MOL0     C48087  10.207  10.757   1.320 -0.4154  0.2680 -0.5156
  365MOL0     C48088  10.067  10.828   1.311  1.1666 -0.1754  0.2516
  365MOL0     C48089  10.019  10.812   1.167  0.0500 -0.2151  0.5757
  365MOL0     C48090   9.878  10.885   1.151  0.6603  0.2597 -0.7700
  365MOL0     C48091   9.815  10.856   1.015 -0.3065 -0.6589 -0.0349
  365MOL0    Cl48092   9.897  10.911   0.865  0.2333  0.0238  0.4262
  365MOL0     C48093  10.643  10.382   1.418  0.1067  0.6123  0.3536
  365MOL0     C48094  10.683  10.246   1.445  0.8688 -0.0112 -0.4701
  365MOL0     O48095  10.538   9.959   1.531  0.2200 -1.7560  0.0854
  365MOL0     C48096  10.589   9.772   1.739 -0.0178  0.8298  0.1113
  365MOL0     C48097  10.615   9.646   1.780  0.4472  0.9294 -0.6853
  365MOL0     N48098  11.065   9.142   2.017 -0.4643  0.7100 -0.6460
  365MOL0     N48099  11.086   9.103   2.134  0.0396  0.3291 -0.4671
  365MOL0     C48100  10.945   8.171   3.140  0.3584 -0.1549  0.2505
  365MOL0     C48101  10.879   8.063   3.200  0.5065 -0.2094  1.0938
  365MOL0     C48102  10.717   7.620   3.252  0.0530 -1.1186  0.5578
  365MOL0     C48103  10.770   7.496   3.287 -0.5916  0.4819  0.3317
  365MOL0     C48104  10.686   7.395   3.345 -0.6101  0.0337  0.9189
  365MOL0     C48105  10.549   7.422   3.386 -1.0529  0.2644 -0.1665
  365MOL0     O48106  10.473   7.331   3.446 -0.0724 -0.8495 -0.3467
  365MOL0     C48107  10.359   7.282   3.382 -1.0339 -0.3707  0.2242
  365MOL0     C48108  10.404   7.174   3.293 -0.8296  0.3554  0.6145
  365MOL0     C48109  10.294   7.100   3.211 -0.8747  0.2974  0.2616
  365MOL0     C48110  10.349   6.975   3.143 -0.5489 -0.1350  0.4150
  365MOL0     C48111  10.457   7.011   3.048 -0.3253  0.1008 -0.7552
  365MOL0     C48112  10.549   7.043   2.967  0.2031 -0.3169  0.0918
  365MOL0     C48113  10.495   7.547   3.351  0.0151 -0.4184 -0.4352
  365MOL0     C48114  10.576   7.647   3.286 -0.3587  0.2246 -0.3848
  365MOL0     H48115  10.866   7.844   2.931 -2.3994 -1.2456  0.9571
  365MOL0     H48116  10.958   8.044   2.833  2.5374  0.3382  0.7053
  365MOL0     H48117  11.036   8.229   2.750 -0.4693  0.5281 -0.6447
  365MOL0     H48118  11.078   8.396   2.781  0.5442 -1.0737 -1.2964
  365MOL0     H48119  10.839   8.422   2.862 -1.0688 -1.9816  3.2729
  365MOL0     H48120  10.804   8.261   2.794 -3.7995  3.1496  0.1967
  365MOL0     H48121  10.754   8.400   2.607 -0.7711 -4.6943  1.8393
  365MOL0     H48122  10.902   8.322   2.570  0.9089  2.2857 -1.3304
  365MOL0     H48123  10.903   8.610   2.690 -3.6104 -1.0664 -0.9389
  365MOL0     H48124  11.043   8.540   2.629  0.3528  3.2099  0.1278
  365MOL0     H48125  10.794   8.592   2.448  0.8035  1.1261 -2.5472
  365MOL0     H48126  10.925   8.503   2.401  1.5123 -0.4404  0.8727
  365MOL0     H48127  11.084   8.674   2.446 -2.1661 -4.8956 -1.1569
  365MOL0     H48128  10.965   8.788   2.517 -0.4222  1.1862 -0.7690
  365MOL0     H48129  10.953   8.726   2.211 -1.4558 -1.3673  0.4670
  365MOL0     H48130  10.874   8.856   2.294 -1.0941 -2.8883 -2.0715
  365MOL0     H48131  11.162   8.811   2.231 -0.9344 -1.2510 -0.7816
  365MOL0     H48132  11.101   8.948   2.326  1.4192  0.0622 -1.3840
  365MOL0     H48133  10.995   8.828   1.953  0.4521  0.4214 -1.3434
  365MOL0     H48134  11.069   8.971   1.723 -0.7081 -0.6922  1.8356
  365MOL0     H48135  11.136   9.129   1.758  1.4553 -0.9164  0.2460
  365MOL0     H48136  10.835   9.056   1.768 -1.0119  0.9978 -1.4419
  365MOL0     H48137  10.894   9.102   1.619 -1.4035  0.1932  0.0857
  365MOL0     H48138  10.860   9.264   1.881 -1.1812  1.2661 -1.2926
  365MOL0     H48139  10.984   9.325   1.776  2.0199 -0.5663  0.0380
  365MOL0     H48140  10.702   9.268   1.678  1.1769 -1.5538 -1.3623
  365MOL0     H48141  10.822   9.376   1.613  0.8799 -3.1070 -1.2750
  365MOL0     H48142  10.917   9.589   1.632  1.0571  1.2649  0.4306
  365MOL0     H48143  10.855   9.813   1.537  1.0799 -2.2221  1.1080
  365MOL0     H48144  10.613  10.220   1.777  0.3719 -3.3597 -0.2799
  365MOL0     H48145  10.556  10.442   1.746  4.7096  0.8825  0.7964
  365MOL0     H48146  10.378  10.540   1.491  2.6899 -1.1543 -0.1425
  365MOL0     H48147  10.446  10.610   1.349 -0.5027  0.5815 -0.1624
  365MOL0     H48148  10.439  10.838   1.444  1.3239 -1.1513 -2.1040
  365MOL0     H48149  10.396  10.758   1.603  0.1419  0.4480 -0.2582
  365MOL0     H48150  10.197  10.851   1.508 -2.3506  0.5982 -2.8421
  365MOL0     H48151  10.180  10.680   1.512 -0.2559  0.2693 -0.6994
  365MOL0     H48152  10.275  10.806   1.250  1.7658 -1.5347  0.2261
  365MOL0     H48153  10.188  10.653   1.289 -0.8951 -0.0946  0.9136
  365MOL0     H48154  10.056  10.936   1.329 -4.2574 -0.1114 -1.6409
  365MOL0     H48155   9.999  10.780   1.381  0.2313  3.4065  2.0444
  365MOL0     H48156  10.017  10.707   1.135  1.8452  0.0958 -0.7499
  365MOL0     H48157  10.086  10.874   1.107 -0.3963  1.0508  1.3549
  365MOL0     H48158   9.819  10.831   1.227  0.2884 -0.8881 -1.8436
  365MOL0     H48159   9.882  10.993   1.168  1.5404  0.1954 -0.5021
  365MOL0     H48160   9.712  10.894   1.013  0.1406  0.9376  2.4321
  365MOL0     H48161   9.799  10.749   1.002  2.2991 -1.5120  2.6706
  365MOL0     H48162  10.653  10.426   1.319 -2.9702  2.4182  0.6988
  365MOL0     H48163  10.741  10.188   1.374  2.5429  0.6411  0.2977
  365MOL0     H48164  10.501   9.825   1.773  0.8411  2.4481 -0.0571
  365MOL0     H48165  10.538   9.603   1.844  2.1857 -3.0380 -0.9361
  365MOL0     H48166  10.956   8.263   3.197  1.4877 -0.1016 -0.0274
  365MOL0     H48167  10.848   8.060   3.304  2.2367 -2.3517  1.6114
  365MOL0     H48168  10.873   7.466   3.274 -2.0691 -5.1588 -1.2401
  365MOL0     H48169  10.727   7.300   3.376  0.8995  0.3957  0.1385
  365MOL0     H48170  10.304   7.361   3.331 -0.2232  1.1521  1.6249
  365MOL0     H48171  10.290   7.240   3.457 -0.9092 -0.3023  0.3785
  365MOL0     H48172  10.463   7.226   3.217  0.5759  0.2326  1.5658
  365MOL0     H48173  10.467   7.096   3.338  1.8396  0.8299 -1.9807
  365MOL0     H48174  10.255   7.169   3.136 -1.0963 -2.5767 -2.4474
  365MOL0     H48175  10.211   7.070   3.276 -1.2524 -1.9888 -1.1602
  365MOL0     H48176  10.385   6.914   3.225  2.2552  1.0041  0.1424
  365MOL0     H48177  10.266   6.925   3.093 -0.3391 -0.9552  0.8855
  365MOL0     H48178  10.622   7.084   2.900 -0.8551  1.1206 -0.2399
  365MOL0     H48179  10.394   7.579   3.377  0.7026 -1.3520  4.2937
  365MOL0     H48180  10.522   7.733   3.249  0.2686  0.8474  0.1381
  366MOL0     O48181   4.228   7.315   9.049  0.4839 -0.5623  0.6823
  366MOL0     C48182   4.312   7.237   9.080 -1.1392  0.5134  0.1229
  366MOL0     O48183   4.313   7.099   9.082 -0.0135  0.6802  0.4577
  366MOL0     C48184   4.200   7.047   9.035  0.4970 -1.2516 -0.5035
  366MOL0     C48185   4.105   7.008   9.133  0.1642 -0.0679  1.1965
  366MOL0     C48186   3.990   6.931   9.087 -0.1780  0.2252 -0.9074
  366MOL0     C48187   3.997   6.879   8.966 -1.1758 -0.0294 -0.2403
  366MOL0     O48188   3.914   6.785   8.922 -0.3021  0.6919 -0.9124
  366MOL0     C48189   3.784   6.825   8.945  0.6261 -0.3584 -0.4231
  366MOL0     C48190   3.694   6.722   8.873 -0.3136  1.4520 -0.9148
  366MOL0     C48191   3.550   6.779   8.830 -0.3330 -0.1288 -0.8899
  366MOL0     C48192   3.556   6.885   8.730 -0.2715  0.4611  0.5824
  366MOL0     C48193   3.408   6.927   8.719 -0.4813 -1.1421  0.5501
  366MOL0     C48194   3.389   7.047   8.618 -1.0050  0.1453  0.1449
  366MOL0     C48195   3.255   7.039   8.541  0.2645 -0.0247 -0.3104
  366MOL0     C48196   3.243   6.922   8.448 -0.1063 -0.1516  0.1057
  366MOL0     N48197   3.100   6.891   8.426 -0.7414  0.0224  0.3778
  366MOL0     C48198   3.040   6.919   8.310  0.0005 -0.2538 -0.5367
  366MOL0     C48199   2.941   6.838   8.291  0.6980 -0.0835 -0.8636
  366MOL0     C48200   2.841   6.829   8.177  0.1360  1.0083 -0.2404
  366MOL0     C48201   2.896   6.856   8.044  1.2710  0.0950  1.0556
  366MOL0     C48202   3.008   6.772   7.977 -0.0330 -0.0696  0.0335
  366MOL0     C48203   3.040   6.815   7.835  0.4105  0.2025  0.8070
  366MOL0     O48204   2.927   6.807   7.752  0.0339  0.1873  0.3592
  366MOL0     C48205   2.931   6.878   7.633 -0.3281  0.6312 -0.7972
  366MOL0     C48206   2.818   6.883   7.555 -0.0311 -0.0712  0.4869
  366MOL0     C48207   2.819   6.958   7.436  0.5799  0.1222  0.1716
  366MOL0     C48208   2.939   7.012   7.384 -0.5482  0.5080 -0.0845
  366MOL0     C48209   2.939   7.075   7.248 -0.1730  0.5822  0.1534
  366MOL0     O48210   3.061   7.101   7.209  0.1393 -0.6292 -0.9919
  366MOL0     C48211   3.091   7.159   7.086 -0.2447  0.6170  0.1810
  366MOL0     C48212   3.199   7.239   7.068 -0.5038 -0.6454 -0.6064
  366MOL0     C48213   3.240   7.310   6.960 -0.8144 -0.7095  0.7839
  366MOL0     C48214   3.159   7.301   6.848  0.0147  0.5461 -0.3890
  366MOL0     O48215   3.176   7.362   6.725 -0.5700  0.5951 -0.1825
  366MOL0     C48216   3.189   7.508   6.735  0.5352 -0.2193  0.2107
  366MOL0     C48217   3.233   7.547   6.605  1.0746 -0.1478  0.6643
  366MOL0     C48218   3.276   7.697   6.576 -0.0250  0.2808 -0.0079
  366MOL0     C48219   3.159   7.809   6.597  0.5848 -0.1668  0.2293
  366MOL0     C48220   3.194   7.947   6.553 -0.1964 -0.2938  0.4845
  366MOL0     C48221   3.313   8.006   6.635  0.8854 -0.0809  0.1067
  366MOL0     C48222   3.366   8.131   6.568  0.3123 -0.5707  0.0864
  366MOL0     C48223   3.508   8.154   6.614 -0.6148 -1.0817 -0.5652
  366MOL0    Cl48224   3.513   8.262   6.755  0.0797 -0.4554 -0.1258
  366MOL0     C48225   3.053   7.206   6.849  0.5033  0.3919 -0.0615
  366MOL0     C48226   3.022   7.137   6.964  0.4742  0.1373 -1.0652
  366MOL0     O48227   2.839   7.106   7.188  0.5488 -0.1354  0.3688
  366MOL0     C48228   3.056   7.004   7.460  0.4402  0.3074 -0.8674
  366MOL0     C48229   3.053   6.936   7.585  0.4815 -0.2865  0.5778
  366MOL0     N48230   2.933   6.750   8.396 -0.7957  0.2357 -0.4535
  366MOL0     N48231   3.025   6.790   8.480  0.2865 -0.0005  0.3629
  366MOL0     C48232   4.099   6.912   8.872  1.2554  1.4289 -0.2174
  366MOL0     C48233   4.192   7.007   8.904 -0.4134 -0.0934  0.3428
  366MOL0     C48234   4.441   7.305   9.110  0.1581 -0.9273  0.1879
  366MOL0     C48235   4.454   7.444   9.111 -0.0594 -0.7885 -0.5971
  366MOL0     C48236   4.575   7.506   9.137  0.0174 -0.0130  1.4742
  366MOL0     C48237   4.689   7.437   9.166  0.8426  0.1484 -0.7622
  366MOL0     O48238   4.796   7.504   9.202  1.1204 -0.1476 -0.6771
  366MOL0     C48239   4.788   7.587   9.321  0.0767 -0.1636 -1.0676
  366MOL0     C48240   4.866   7.500   9.417  0.7737 -0.2187  0.2126
  366MOL0     C48241   5.013   7.506   9.377 -0.3649  1.6738 -0.9941
  366MOL0     C48242   5.054   7.393   9.297 -0.0034  0.5645  0.7535
  366MOL0     C48243   5.034   7.260   9.360 -0.9626 -0.1609  0.1091
  366MOL0     C48244   5.022   7.161   9.422  0.4905  0.2715  0.2383
  366MOL0     C48245   4.688   7.304   9.156  0.8691 -0.4118 -0.2344
  366MOL0     C48246   4.566   7.233   9.126 -0.2383 -0.1003 -0.8921
  366MOL0     H48247   4.115   7.033   9.238  0.6177  0.0306  1.1333
  366MOL0     H48248   3.912   6.919   9.161  1.4110 -0.2629  0.7565
  366MOL0     H48249   3.774   6.930   8.916  2.2580  0.6142  2.1188
  366MOL0     H48250   3.754   6.824   9.051 -1.0275 -1.8682 -0.8588
  366MOL0     H48251   3.686   6.627   8.927 -0.4769  3.0291  2.0775
  366MOL0     H48252   3.751   6.697   8.783  1.7066 -1.0546  0.9168
  366MOL0     H48253   3.498   6.804   8.923  1.1509 -1.3767  0.3261
  366MOL0     H48254   3.499   6.698   8.776  1.3127 -1.4713 -0.4930
  366MOL0     H48255   3.628   6.965   8.751  0.7169 -0.8181  2.4838
  366MOL0     H48256   3.591   6.834   8.640  0.9673  2.8084 -0.3505
  366MOL0     H48257   3.359   6.952   8.813  2.6953 -1.6014  2.4535
  366MOL0     H48258   3.353   6.843   8.674 -1.1644 -0.2996 -0.2356
  366MOL0     H48259   3.466   7.043   8.542 -1.1248 -2.5192  0.0610
  366MOL0     H48260   3.390   7.144   8.669  0.7426  0.4548 -0.4372
  366MOL0     H48261   3.178   7.042   8.618  3.0439  0.1647  2.6525
  366MOL0     H48262   3.245   7.131   8.483 -0.7131  0.9659  1.3445
  366MOL0     H48263   3.309   6.838   8.468  2.6985  1.8254 -0.2278
  366MOL0     H48264   3.283   6.945   8.349 -0.6698  3.5183  0.5854
  366MOL0     H48265   3.065   7.000   8.242 -2.9113  1.5502  0.3349
  366MOL0     H48266   2.762   6.905   8.188 -0.4862  0.0795  2.4050
  366MOL0     H48267   2.785   6.735   8.175  0.0352  1.0492  0.3316
  366MOL0     H48268   2.912   6.963   8.035  1.0420  0.0716  0.2924
  366MOL0     H48269   2.814   6.823   7.979  2.8739 -2.2427  0.0556
  366MOL0     H48270   3.097   6.789   8.038  0.9028  0.3127 -1.3850
  366MOL0     H48271   2.995   6.663   7.983  1.9117 -0.3663 -0.4237
  366MOL0     H48272   3.117   6.749   7.794 -0.8586 -1.1059  0.4453
  366MOL0     H48273   3.067   6.921   7.846 -2.5932  1.0903  0.7168
  366MOL0     H48274   2.718   6.852   7.583 -0.8122  1.9810  0.1856
  366MOL0     H48275   2.734   6.963   7.369 -1.6430  1.7225  2.9205
  366MOL0     H48276   3.261   7.259   7.154 -1.3084  3.1336 -0.7597
  366MOL0     H48277   3.333   7.362   6.942 -1.2282  0.0078  0.6975
  366MOL0     H48278   3.251   7.551   6.814  0.3646 -0.0241  0.2415
  366MOL0     H48279   3.090   7.552   6.754 -1.8231 -4.4516 -0.9282
  366MOL0     H48280   3.149   7.511   6.545  1.2379 -2.5882  1.7917
  366MOL0     H48281   3.327   7.500   6.574 -1.6813 -4.1330 -2.7901
  366MOL0     H48282   3.315   7.707   6.475 -0.4930 -0.9544 -0.3327
  366MOL0     H48283   3.361   7.718   6.641 -0.2249 -0.4002  0.4942
  366MOL0     H48284   3.066   7.777   6.550  0.4687  0.6030 -0.0747
  366MOL0     H48285   3.140   7.817   6.705 -1.6727  0.5026 -0.1685
  366MOL0     H48286   3.111   8.015   6.574  1.4958  1.9727  0.2209
  366MOL0     H48287   3.219   7.951   6.446 -1.6994 -1.8307  0.0286
  366MOL0     H48288   3.400   7.939   6.639  1.5649  0.7182 -0.8016
  366MOL0     H48289   3.281   8.025   6.737  3.8568  0.3904  1.0468
  366MOL0     H48290   3.364   8.120   6.459 -1.4294  1.6448 -0.1808
  366MOL0     H48291   3.309   8.221   6.595  0.1161  0.0563 -2.2034
  366MOL0     H48292   3.561   8.199   6.530 -0.7899  1.3973  0.5555
  366MOL0     H48293   3.557   8.062   6.647 -0.1236  0.3395  3.2636
  366MOL0     H48294   2.993   7.187   6.761  2.9018 -0.2833 -1.6762
  366MOL0     H48295   2.943   7.064   6.954  1.2069 -0.8596  0.1187
  366MOL0     H48296   3.148   7.042   7.416  1.2830 -0.5866  0.0906
  366MOL0     H48297   3.144   6.933   7.643  0.8910  1.2066  0.0565
  366MOL0     H48298   4.105   6.868   8.773  2.0848  0.2019  0.3524
  366MOL0     H48299   4.264   7.030   8.826 -0.6316 -1.6089 -0.3521
  366MOL0     H48300   4.371   7.513   9.110 -0.3722 -1.1471  0.2144
  366MOL0     H48301   4.573   7.614   9.124 -0.8894 -0.3683 -5.3739
  366MOL0     H48302   4.693   7.606   9.372  1.3227 -1.5338  2.0277
  366MOL0     H48303   4.827   7.688   9.306 -1.4595  1.3482  3.3827
  366MOL0     H48304   4.863   7.542   9.518  0.3576  1.0803 -0.3220
  366MOL0     H48305   4.820   7.400   9.415 -3.2434  1.3951  1.9894
  366MOL0     H48306   5.067   7.501   9.473 -0.8978 -1.6723 -0.7200
  366MOL0     H48307   5.046   7.601   9.334  2.1106  1.0996 -0.4987
  366MOL0     H48308   5.016   7.396   9.194  1.0092  1.6617  0.3822
  366MOL0     H48309   5.161   7.413   9.290  0.4391 -0.9081  2.7943
  366MOL0     H48310   4.991   7.086   9.492 -2.4397  2.3503  1.3443
  366MOL0     H48311   4.777   7.244   9.164 -0.5075 -2.4129  0.9699
  366MOL0     H48312   4.574   7.125   9.130 -0.0047 -0.0475  1.3388
  367MOL0     O48313   4.137  11.237   0.478 -0.2090  0.1233  0.0662
  367MOL0     C48314   4.025  11.251   0.504  0.6228  1.1369 -0.0740
  367MOL0     O48315   3.922  11.229   0.422  0.2019 -0.1073  0.9177
  367MOL0     C48316   3.952  11.193   0.291 -0.4214 -0.1474 -0.5772
  367MOL0     C48317   4.056  11.110   0.248 -0.1299  0.3221 -0.2638
  367MOL0     C48318   4.067  11.092   0.110 -0.5659  0.7098 -0.9879
  367MOL0     C48319   3.981  11.144   0.015  0.1088 -0.8884  0.7487
  367MOL0     O48320   4.004  11.113  -0.119 -0.5830  0.4491 -0.0712
  367MOL0     C48321   3.896  11.129  -0.207  0.1267  1.0528  0.9309
  367MOL0     C48322   3.903  11.260  -0.282  0.7687 -0.5424 -1.2096
  367MOL0     C48323   3.774  11.287  -0.348 -0.4707  0.7748  0.6829
  367MOL0     C48324   3.779  11.418  -0.435  0.4093 -0.0492  0.1585
  367MOL0     C48325   3.855  11.390  -0.557 -0.2637  0.1631  0.2328
  367MOL0     C48326   3.858  11.512  -0.654  0.2649 -0.2407  0.0129
  367MOL0     C48327   3.956  11.625  -0.615 -0.4390 -0.6120  0.3875
  367MOL0     C48328   3.943  11.758  -0.694  0.4816  0.7217 -0.1720
  367MOL0     N48329   3.824  11.838  -0.668  0.4069  0.5909 -1.1339
  367MOL0     C48330   3.774  11.941  -0.750  0.0643  0.2563 -0.6792
  367MOL0     C48331   3.714  12.027  -0.675  1.4530 -0.1890  0.2062
  367MOL0     C48332   3.638  12.150  -0.715 -0.0707  0.0778  0.9137
  367MOL0     C48333   3.490  12.119  -0.735 -0.5002  0.0602 -1.2655
  367MOL0     C48334   3.403  12.245  -0.745 -0.1682 -0.6431 -0.8961
  367MOL0     C48335   3.255  12.231  -0.754 -0.2778 -0.3223 -0.6435
  367MOL0     O48336   3.238  12.165  -0.878 -0.1980 -0.4862  0.4925
  367MOL0     C48337   3.176  12.046  -0.881 -0.3747 -0.3067  0.8015
  367MOL0     C48338   3.053  12.028  -0.811 -0.4739  0.0409  0.6120
  367MOL0     C48339   2.988  11.899  -0.810 -0.3524 -0.2140 -0.3575
  367MOL0     C48340   3.046  11.790  -0.869 -0.4894 -0.3091  0.6372
  367MOL0     C48341   2.980  11.659  -0.883 -0.6889  0.6541 -0.6041
  367MOL0     O48342   3.015  11.593  -0.991 -0.2700  0.3488  0.2700
  367MOL0     C48343   3.027  11.457  -1.000  1.0912 -0.6975 -0.6223
  367MOL0     C48344   3.042  11.410  -1.130  0.1876  0.7550  0.5291
  367MOL0     C48345   3.076  11.271  -1.152 -0.4433  1.0165 -1.1632
  367MOL0     C48346   3.073  11.176  -1.041 -0.5102 -0.0792  0.6985
  367MOL0     O48347   3.085  11.036  -1.044  0.5379  0.0089  0.4806
  367MOL0     C48348   3.017  10.956  -1.144  0.3688 -0.0646 -0.5169
  367MOL0     C48349   3.109  10.904  -1.258  0.2011  0.1232 -0.5242
  367MOL0     C48350   3.202  10.792  -1.208  0.8116 -0.1561 -0.5294
  367MOL0     C48351   3.121  10.661  -1.192 -0.1980  0.3675 -0.6070
  367MOL0     C48352   3.220  10.543  -1.163  0.5409  0.0944  1.0850
  367MOL0     C48353   3.278  10.540  -1.022 -0.4687 -0.2177 -0.5359
  367MOL0     C48354   3.333  10.408  -0.978 -0.2423  0.3734  0.7666
  367MOL0     C48355   3.400  10.407  -0.842 -0.0522  0.2138  0.8114
  367MOL0    Cl48356   3.303  10.388  -0.694 -0.1763  0.1548  0.3575
  367MOL0     C48357   3.076  11.229  -0.918  0.4487  0.4206 -0.4385
  367MOL0     C48358   3.063  11.372  -0.887 -0.1225 -0.2841  0.0720
  367MOL0     O48359   2.913  11.621  -0.787  0.0416 -1.1593 -0.3385
  367MOL0     C48360   3.171  11.808  -0.940  0.3569  0.1210  0.1618
  367MOL0     C48361   3.231  11.937  -0.950 -0.4124 -0.5332 -0.0435
  367MOL0     N48362   3.702  11.957  -0.547  1.4379  0.0110  0.3544
  367MOL0     N48363   3.774  11.852  -0.540  0.9240 -0.6201  0.1052
  367MOL0     C48364   3.888  11.236   0.061 -0.1957 -0.3366  0.2831
  367MOL0     C48365   3.875  11.270   0.195 -0.3915  0.8768 -0.1325
  367MOL0     C48366   3.997  11.279   0.653 -0.9367 -0.1046  0.3809
  367MOL0     C48367   3.870  11.266   0.709 -0.4176  0.4117 -0.4737
  367MOL0     C48368   3.849  11.299   0.851  0.5379  0.0909  0.6537
  367MOL0     C48369   3.955  11.339   0.929 -0.7229 -0.0424 -0.6828
  367MOL0     O48370   3.919  11.358   1.067  0.6262 -0.9893  0.4418
  367MOL0     C48371   4.010  11.410   1.161 -0.1340  0.1746 -0.1292
  367MOL0     C48372   4.061  11.302   1.256  0.4804  0.9915 -0.2476
  367MOL0     C48373   4.173  11.353   1.346  0.6002  0.2618  0.2591
  367MOL0     C48374   4.227  11.235   1.436  0.0651 -0.8802  0.1095
  367MOL0     C48375   4.316  11.138   1.368 -0.6619 -1.0570  0.3156
  367MOL0     C48376   4.386  11.051   1.324  0.4272 -0.5025  0.4412
  367MOL0     C48377   4.087  11.330   0.875  0.4329  0.3142  0.3220
  367MOL0     C48378   4.109  11.309   0.743  0.2193  0.5324  0.7176
  367MOL0     H48379   4.107  11.056   0.327  0.1640  0.6489 -0.2305
  367MOL0     H48380   4.149  11.025   0.087 -0.9142 -0.1941  0.2745
  367MOL0     H48381   3.802  11.121  -0.152  0.8228 -0.1517  1.9791
  367MOL0     H48382   3.892  11.038  -0.267  2.2438  0.7592  1.1798
  367MOL0     H48383   3.992  11.266  -0.345  0.0589 -1.3476 -2.3156
  367MOL0     H48384   3.908  11.339  -0.206  0.6805 -2.6737  1.1651
  367MOL0     H48385   3.696  11.302  -0.273 -2.3036 -0.3699 -0.8956
  367MOL0     H48386   3.736  11.204  -0.408  0.8841 -0.3328  1.3298
  367MOL0     H48387   3.676  11.441  -0.461  1.6368  1.6835 -4.0557
  367MOL0     H48388   3.806  11.512  -0.386  1.7638 -0.3109 -0.0267
  367MOL0     H48389   3.818  11.297  -0.603 -0.3358  0.2833  0.0447
  367MOL0     H48390   3.959  11.367  -0.532 -1.2420 -1.9287  2.8908
  367MOL0     H48391   3.759  11.558  -0.668  0.5737  0.1952 -0.7437
  367MOL0     H48392   3.878  11.490  -0.759 -0.6127 -0.4254 -0.1284
  367MOL0     H48393   3.930  11.628  -0.508 -4.6211 -3.3044 -0.3297
  367MOL0     H48394   4.055  11.578  -0.623  0.4383  1.4786 -3.8308
  367MOL0     H48395   3.939  11.746  -0.803  0.5294 -0.3557 -0.0640
  367MOL0     H48396   4.036  11.808  -0.664  0.1813 -0.3045  2.7741
  367MOL0     H48397   3.815  11.961  -0.849  1.3959  1.1620  0.0288
  367MOL0     H48398   3.694  12.191  -0.800  2.8977 -1.7242  1.8665
  367MOL0     H48399   3.639  12.216  -0.628 -1.5193  0.5451  0.5926
  367MOL0     H48400   3.463  12.076  -0.639  1.5939 -0.2613 -0.7707
  367MOL0     H48401   3.471  12.041  -0.810 -2.5255 -1.6649  0.9095
  367MOL0     H48402   3.425  12.286  -0.646  1.1315  0.3821 -1.5662
  367MOL0     H48403   3.435  12.323  -0.815 -2.6058  0.1596 -1.2013
  367MOL0     H48404   3.202  12.326  -0.748  3.0132  1.5620  1.9434
  367MOL0     H48405   3.204  12.172  -0.677 -0.8574  0.4788 -0.4127
  367MOL0     H48406   3.001  12.110  -0.761 -0.0094 -0.4344  1.9200
  367MOL0     H48407   2.890  11.904  -0.763 -0.4855  3.8847 -0.7172
  367MOL0     H48408   3.045  11.484  -1.209 -0.5028 -0.1760 -0.3928
  367MOL0     H48409   3.094  11.224  -1.249 -0.2110  0.3140 -0.7892
  367MOL0     H48410   2.937  11.014  -1.190  0.9515 -0.3595 -1.9267
  367MOL0     H48411   2.975  10.871  -1.088 -0.6456  1.4497  1.1344
  367MOL0     H48412   3.172  10.989  -1.286 -1.8611  2.7021  2.0888
  367MOL0     H48413   3.053  10.873  -1.346 -1.5352 -1.9538  1.2069
  367MOL0     H48414   3.224  10.821  -1.105 -0.9895 -0.8983  0.1014
  367MOL0     H48415   3.295  10.769  -1.261  2.5263 -0.3450  2.3542
  367MOL0     H48416   3.048  10.664  -1.110  1.9741 -0.5015  1.4920
  367MOL0     H48417   3.084  10.634  -1.292  3.0123  0.2001 -1.8574
  367MOL0     H48418   3.296  10.526  -1.240 -1.5394 -0.6613 -0.9221
  367MOL0     H48419   3.152  10.459  -1.178  0.8562 -0.2587  1.5949
  367MOL0     H48420   3.202  10.573  -0.951 -0.9806 -1.4059 -0.5168
  367MOL0     H48421   3.358  10.615  -1.029  0.5467 -1.3148 -1.0920
  367MOL0     H48422   3.257  10.331  -0.986  0.8596 -1.2106  3.8097
  367MOL0     H48423   3.413  10.388  -1.051 -1.9274 -0.8130 -0.8243
  367MOL0     H48424   3.436  10.511  -0.844  0.2506  0.1285  1.4745
  367MOL0     H48425   3.481  10.335  -0.856 -2.1088 -1.9941 -0.4440
  367MOL0     H48426   3.102  11.172  -0.830 -1.2001 -2.2089 -1.5296
  367MOL0     H48427   3.063  11.400  -0.782 -1.7329 -0.6978  0.2170
  367MOL0     H48428   3.214  11.730  -1.003 -1.4317 -0.5563 -0.2882
  367MOL0     H48429   3.321  11.949  -1.009  0.3177  0.3222  1.1818
  367MOL0     H48430   3.813  11.280  -0.005 -0.3506  0.1267  0.7652
  367MOL0     H48431   3.795  11.331   0.235 -0.8715 -0.4493  1.0107
  367MOL0     H48432   3.784  11.236   0.650 -1.2024  1.3431  0.1627
  367MOL0     H48433   3.750  11.280   0.891  1.0679 -0.1804  1.8540
  367MOL0     H48434   3.963  11.490   1.219 -0.1339 -0.0105  0.1241
  367MOL0     H48435   4.093  11.452   1.104  0.5398  0.8990  1.3470
  367MOL0     H48436   3.984  11.254   1.317  0.3613  0.0373 -1.1289
  367MOL0     H48437   4.095  11.222   1.190 -1.6393  1.3116 -1.8785
  367MOL0     H48438   4.130  11.434   1.405 -1.1935  3.5963 -4.9928
  367MOL0     H48439   4.249  11.392   1.278  0.2816 -0.2401 -0.3914
  367MOL0     H48440   4.280  11.274   1.523 -2.6434  2.2501  0.5453
  367MOL0     H48441   4.147  11.179   1.484  1.4757 -0.2358  3.4570
  367MOL0     H48442   4.456  10.979   1.286  0.2529 -0.6492  0.4002
  367MOL0     H48443   4.171  11.343   0.943 -0.4169 -0.8396  1.6624
  367MOL0     H48444   4.210  11.298   0.705 -0.3565 -0.7651 -0.5444
  368MOL0     O48445   6.456   7.244   6.225 -0.3173 -0.5470  0.0841
  368MOL0     C48446   6.557   7.190   6.184  0.9371 -1.1298  0.2436
  368MOL0     O48447   6.568   7.123   6.072  0.8337  0.7025  0.8199
  368MOL0     C48448   6.455   7.074   5.995  1.0268 -0.2567 -0.1361
  368MOL0     C48449   6.473   7.060   5.857  0.7580  0.7798 -0.1005
  368MOL0     C48450   6.361   7.014   5.780  0.1968  0.5649  0.7860
  368MOL0     C48451   6.236   6.982   5.835  0.4247  0.4558 -0.2924
  368MOL0     O48452   6.146   6.930   5.746 -0.8204  0.0553  0.6370
  368MOL0     C48453   6.024   6.873   5.798 -0.1599  0.7021  0.1826
  368MOL0     C48454   5.950   6.813   5.684 -0.2219 -0.3895  0.0229
  368MOL0     C48455   5.807   6.814   5.734 -0.4556 -0.4557 -0.6971
  368MOL0     C48456   5.707   6.811   5.616 -0.4087 -0.5789 -0.9211
  368MOL0     C48457   5.567   6.874   5.658 -0.9231 -0.5336  0.3821
  368MOL0     C48458   5.563   7.028   5.640  0.2505  0.1305 -0.3273
  368MOL0     C48459   5.428   7.092   5.663  0.5360 -0.1913  0.2709
  368MOL0     C48460   5.363   7.040   5.791  1.1749  1.0083 -0.2519
  368MOL0     N48461   5.437   7.085   5.912 -0.0529  0.2331 -0.3034
  368MOL0     C48462   5.457   7.003   6.023  0.0823 -0.3316  1.2040
  368MOL0     C48463   5.499   7.083   6.120 -0.1155 -0.1727  0.7975
  368MOL0     C48464   5.496   7.049   6.267  0.0102  0.4571  0.8509
  368MOL0     C48465   5.632   7.082   6.330  0.9312 -0.1295 -0.4385
  368MOL0     C48466   5.737   6.973   6.313 -0.0140  0.1289  0.7262
  368MOL0     C48467   5.875   7.020   6.377  0.5726  0.4189 -0.5494
  368MOL0     O48468   5.981   6.953   6.301  0.3574  0.6836  0.2595
  368MOL0     C48469   6.108   6.970   6.351  0.7779 -0.4414  0.2315
  368MOL0     C48470   6.184   6.860   6.382 -0.2701 -0.6917  0.1875
  368MOL0     C48471   6.319   6.873   6.431 -0.3259  0.5044  0.7521
  368MOL0     C48472   6.356   7.002   6.472 -0.5694  0.4161 -0.1074
  368MOL0     C48473   6.483   7.024   6.550 -0.8409  0.0418 -0.1232
  368MOL0     O48474   6.551   6.912   6.588  0.5441  0.1007  0.0353
  368MOL0     C48475   6.657   6.937   6.673  0.9511  0.3001 -0.3767
  368MOL0     C48476   6.657   6.895   6.808 -0.6519  0.2148 -0.1541
  368MOL0     C48477   6.766   6.922   6.880  0.0440  0.3613 -0.9705
  368MOL0     C48478   6.887   6.983   6.831  1.2282  0.0622  0.2286
  368MOL0     O48479   6.975   7.032   6.923 -0.1214  1.2386 -0.0773
  368MOL0     C48480   7.070   7.133   6.892 -0.4281  0.0948  0.5455
  368MOL0     C48481   7.144   7.169   7.017  0.9519  0.7168  0.2633
  368MOL0     C48482   7.244   7.289   6.997  0.4174 -0.6740 -0.3180
  368MOL0     C48483   7.311   7.331   7.128  0.1106 -0.0561  0.0167
  368MOL0     C48484   7.425   7.422   7.100 -0.6701 -0.6289  0.6243
  368MOL0     C48485   7.503   7.428   7.229 -0.7390  0.0813 -0.6377
  368MOL0     C48486   7.598   7.543   7.250 -0.0476 -0.3380  0.4124
  368MOL0     C48487   7.660   7.547   7.387 -0.8027 -0.7292 -0.2400
  368MOL0    Cl48488   7.798   7.671   7.395  0.0162  0.7724 -0.2390
  368MOL0     C48489   6.883   7.018   6.696  0.4321 -0.9067  0.4211
  368MOL0     C48490   6.770   6.994   6.622  0.5831  0.4705  0.2014
  368MOL0     O48491   6.510   7.138   6.599  0.0423  0.6588 -0.1071
  368MOL0     C48492   6.279   7.114   6.442  0.3057 -0.0254 -0.4715
  368MOL0     C48493   6.164   7.095   6.369 -0.0810  0.5275 -0.9413
  368MOL0     N48494   5.520   7.212   6.070 -0.2336  0.0522 -0.1088
  368MOL0     N48495   5.477   7.214   5.940  0.4689 -0.0550 -0.4391
  368MOL0     C48496   6.212   7.010   5.973  0.6487 -1.0627 -0.5076
  368MOL0     C48497   6.319   7.049   6.055  0.0413  0.4505  0.8207
  368MOL0     C48498   6.687   7.215   6.256  0.8436 -0.4412  0.1216
  368MOL0     C48499   6.685   7.275   6.384 -0.1189  0.8466  0.3296
  368MOL0     C48500   6.790   7.269   6.467  0.0980  0.1796 -0.1875
  368MOL0     C48501   6.914   7.235   6.427 -0.2706  0.1887 -0.4561
  368MOL0     O48502   7.036   7.253   6.500  0.2418  0.2613 -0.6849
  368MOL0     C48503   7.056   7.386   6.536  0.3161 -0.0068 -0.1167
  368MOL0     C48504   7.106   7.460   6.402 -0.5915 -0.0428 -0.6699
  368MOL0     C48505   7.231   7.535   6.416 -1.0116 -0.6156 -0.5441
  368MOL0     C48506   7.349   7.456   6.446  0.7187 -0.0435 -0.5272
  368MOL0     C48507   7.478   7.527   6.451 -0.6071  0.0484  0.1447
  368MOL0     C48508   7.587   7.574   6.427  0.3544  0.8895  0.1479
  368MOL0     C48509   6.918   7.183   6.293  0.4754 -0.4855 -1.0093
  368MOL0     C48510   6.805   7.169   6.216 -0.1349 -0.6532  0.0212
  368MOL0     H48511   6.567   7.095   5.816  0.6776 -0.0407 -1.0278
  368MOL0     H48512   6.374   7.003   5.673 -0.3227  2.9246  0.4274
  368MOL0     H48513   5.966   6.940   5.861  0.6475 -0.4031  2.2118
  368MOL0     H48514   6.049   6.793   5.868 -0.9771  1.1578  1.0023
  368MOL0     H48515   5.992   6.715   5.664  2.4127  0.5388  0.6218
  368MOL0     H48516   5.953   6.878   5.595  2.7368 -0.0781  0.2629
  368MOL0     H48517   5.789   6.913   5.777  0.5969 -0.3407 -0.4870
  368MOL0     H48518   5.784   6.746   5.817  3.7808 -3.3027 -1.5078
  368MOL0     H48519   5.745   6.874   5.535 -2.0093  2.6562  0.6711
  368MOL0     H48520   5.697   6.709   5.576 -1.0346 -1.0251  0.3399
  368MOL0     H48521   5.549   6.842   5.761  1.2872 -1.9420  0.4132
  368MOL0     H48522   5.489   6.833   5.594 -0.9465 -0.0709  0.1095
  368MOL0     H48523   5.600   7.048   5.539  3.2428  2.4900  1.0931
  368MOL0     H48524   5.638   7.088   5.693 -0.3630  2.1741 -1.6383
  368MOL0     H48525   5.433   7.201   5.656  3.6744 -0.2427  0.1691
  368MOL0     H48526   5.377   7.061   5.572  1.2002  1.2386 -0.6231
  368MOL0     H48527   5.341   6.933   5.778 -1.9927  1.6554 -1.2666
  368MOL0     H48528   5.259   7.073   5.801 -0.3068 -2.3084 -2.7630
  368MOL0     H48529   5.435   6.897   6.022 -0.9926 -0.1267  0.0429
  368MOL0     H48530   5.462   6.947   6.291 -2.5367  1.3477  1.4071
  368MOL0     H48531   5.419   7.106   6.321 -1.0823  0.9908 -1.1647
  368MOL0     H48532   5.620   7.092   6.438 -1.3979 -5.8555  0.1961
  368MOL0     H48533   5.673   7.175   6.289 -0.6068  0.8556  0.1905
  368MOL0     H48534   5.699   6.884   6.364 -0.4384 -0.3110 -0.3310
  368MOL0     H48535   5.740   6.949   6.206 -0.6016  2.8038  0.0303
  368MOL0     H48536   5.875   6.997   6.484  2.2587  1.0884 -0.3657
  368MOL0     H48537   5.885   7.129   6.367  2.1450  0.5133  1.3236
  368MOL0     H48538   6.140   6.762   6.369 -1.7906 -0.0718  0.4252
  368MOL0     H48539   6.381   6.789   6.462  0.2558  0.2133 -1.1156
  368MOL0     H48540   6.559   6.860   6.837 -0.7174  1.5090  1.3361
  368MOL0     H48541   6.752   6.907   6.987 -0.7357  2.8886 -0.6528
  368MOL0     H48542   7.019   7.213   6.837  0.2436 -1.0365 -1.8540
  368MOL0     H48543   7.146   7.102   6.821 -0.6449  0.0173  0.3461
  368MOL0     H48544   7.202   7.081   7.045 -1.6574 -0.7119  1.5360
  368MOL0     H48545   7.078   7.181   7.103  0.3710  0.2601 -0.1145
  368MOL0     H48546   7.193   7.376   6.954  3.1193  1.6552  0.8829
  368MOL0     H48547   7.320   7.258   6.924 -0.1478 -2.7609 -0.0777
  368MOL0     H48548   7.244   7.396   7.186 -0.5017 -0.5516 -0.1221
  368MOL0     H48549   7.351   7.240   7.174  0.0544 -0.8192 -1.3910
  368MOL0     H48550   7.392   7.519   7.064  0.9607 -0.9143 -1.9668
  368MOL0     H48551   7.491   7.377   7.025  1.7073 -0.4930  2.4838
  368MOL0     H48552   7.568   7.340   7.230  3.9496  3.1139 -2.6660
  368MOL0     H48553   7.447   7.424   7.322  2.7541 -1.7580  1.6035
  368MOL0     H48554   7.674   7.545   7.171 -2.6559  1.8453 -2.2622
  368MOL0     H48555   7.549   7.640   7.236  2.3295  1.4235  2.9813
  368MOL0     H48556   7.712   7.456   7.418  0.3418  0.4177  1.3925
  368MOL0     H48557   7.579   7.578   7.455 -2.0195  0.2035 -2.0292
  368MOL0     H48558   6.963   7.060   6.637 -0.3880 -1.3881 -1.0902
  368MOL0     H48559   6.773   7.011   6.515  1.8462 -1.3574 -0.1023
  368MOL0     H48560   6.301   7.218   6.466 -2.0323  0.2596  0.7048
  368MOL0     H48561   6.112   7.184   6.333 -3.8260 -1.8420 -1.9543
  368MOL0     H48562   6.113   7.002   6.018  0.1450  4.2742 -0.0504
  368MOL0     H48563   6.310   7.078   6.159 -3.7831  1.7851  0.2992
  368MOL0     H48564   6.590   7.311   6.421 -0.2601  1.1295 -0.2965
  368MOL0     H48565   6.760   7.291   6.569  1.0192  1.4103 -0.1627
  368MOL0     H48566   7.132   7.380   6.615 -1.2762  1.2065  1.5829
  368MOL0     H48567   6.971   7.436   6.582 -0.6096  2.1521 -3.7446
  368MOL0     H48568   7.124   7.393   6.317 -2.4125  1.3774 -2.2623
  368MOL0     H48569   7.043   7.540   6.363  0.4997  1.1424 -0.0745
  368MOL0     H48570   7.216   7.604   6.500  3.0533  0.0559 -0.1677
  368MOL0     H48571   7.254   7.593   6.326  2.1675 -0.9369 -0.0675
  368MOL0     H48572   7.339   7.423   6.550 -1.0975  3.1975  0.4698
  368MOL0     H48573   7.353   7.375   6.373 -1.2369  0.3551 -1.1221
  368MOL0     H48574   7.689   7.600   6.412  0.3861 -0.0035 -1.4390
  368MOL0     H48575   7.008   7.146   6.244  0.7873 -0.9591 -0.1021
  368MOL0     H48576   6.824   7.135   6.115  1.1798 -0.4928  0.2030
  369MOL0     O48577   9.107   6.460   6.839 -0.3573  0.8970 -0.1025
  369MOL0     C48578   8.987   6.457   6.845 -0.2221  0.0215  0.5128
  369MOL0     O48579   8.904   6.413   6.751 -0.1318  0.8496 -0.6154
  369MOL0     C48580   8.953   6.347   6.641  0.5538 -1.0065  0.3320
  369MOL0     C48581   8.930   6.406   6.517 -0.4544  0.8770  0.0165
  369MOL0     C48582   8.981   6.346   6.403  0.4220 -0.5492  0.1226
  369MOL0     C48583   9.057   6.223   6.419  0.4084 -0.7894  0.3654
  369MOL0     O48584   9.108   6.162   6.310 -0.3870  0.1731 -0.5118
  369MOL0     C48585   9.062   6.194   6.171  0.1122  0.6708  0.4513
  369MOL0     C48586   9.108   6.068   6.085 -0.1837  0.5276 -0.4870
  369MOL0     C48587   9.078   5.931   6.157  0.0946  0.4332 -0.0055
  369MOL0     C48588   9.113   5.812   6.065  0.5899 -1.4097  0.0824
  369MOL0     C48589   9.080   5.677   6.130 -0.4296  0.1279  1.0365
  369MOL0     C48590   9.154   5.566   6.055  0.0238 -0.5518  0.2697
  369MOL0     C48591   9.145   5.431   6.117 -0.8401 -1.4793  0.8231
  369MOL0     C48592   9.020   5.344   6.084  0.8609 -0.3188  0.9807
  369MOL0     N48593   8.909   5.383   6.168  0.2735  0.3409 -0.1360
  369MOL0     C48594   8.911   5.411   6.303 -0.3878 -0.1419  0.8538
  369MOL0     C48595   8.791   5.469   6.332  0.2369  0.5455 -0.4605
  369MOL0     C48596   8.750   5.517   6.474 -0.1752 -0.6155  0.2643
  369MOL0     C48597   8.782   5.409   6.574  0.1721  0.6305 -0.1887
  369MOL0     C48598   8.714   5.426   6.708  0.4562  1.2681  0.4967
  369MOL0     C48599   8.561   5.419   6.709  0.2082  0.0326  0.6481
  369MOL0     O48600   8.492   5.327   6.619  1.0959 -0.3961  0.2862
  369MOL0     C48601   8.356   5.327   6.631  0.6556 -0.0241  0.6644
  369MOL0     C48602   8.274   5.435   6.597 -0.6253  0.2572 -0.0719
  369MOL0     C48603   8.137   5.430   6.618  1.1093  0.2597  0.0238
  369MOL0     C48604   8.086   5.316   6.693  0.9439  0.7855  0.9949
  369MOL0     C48605   7.941   5.310   6.725 -0.4239  0.2743  1.4866
  369MOL0     O48606   7.895   5.193   6.786  0.3509  0.1907  0.1143
  369MOL0     C48607   7.769   5.175   6.840  0.3822 -0.4012  0.2506
  369MOL0     C48608   7.689   5.279   6.886 -0.0575 -0.3255  0.6205
  369MOL0     C48609   7.558   5.272   6.929  0.4858  0.4865 -0.0915
  369MOL0     C48610   7.505   5.143   6.947 -0.9214 -0.1157  0.9448
  369MOL0     O48611   7.386   5.137   7.006 -0.1458 -0.7190  0.1821
  369MOL0     C48612   7.355   5.040   7.099  1.0196  0.2542  0.9092
  369MOL0     C48613   7.206   5.012   7.093  0.3295 -1.1173 -0.1766
  369MOL0     C48614   7.109   5.113   7.143  0.7155  0.7062 -1.0423
  369MOL0     C48615   6.956   5.078   7.105  0.3092  0.0031 -0.2915
  369MOL0     C48616   6.868   5.201   7.121  0.4780 -0.0551 -0.9656
  369MOL0     C48617   6.710   5.194   7.106 -0.4487 -0.5002  0.9884
  369MOL0     C48618   6.655   5.179   6.968  0.9368 -0.3562 -0.4420
  369MOL0     C48619   6.495   5.197   6.978 -0.2245 -0.1021 -1.2766
  369MOL0    Cl48620   6.466   5.372   7.035 -0.1721 -0.6419  0.2640
  369MOL0     C48621   7.588   5.034   6.899 -0.5750 -0.1369  0.1179
  369MOL0     C48622   7.719   5.052   6.849  0.2402  0.1435 -0.7176
  369MOL0     O48623   7.873   5.393   6.673 -0.3777 -0.4931  0.2722
  369MOL0     C48624   8.166   5.207   6.719  0.1813  0.4215  0.2737
  369MOL0     C48625   8.298   5.218   6.684 -0.6431 -0.4434 -1.0052
  369MOL0     N48626   8.727   5.477   6.218  0.4436  0.0988 -0.3859
  369MOL0     N48627   8.790   5.439   6.119 -1.4281  0.3501  0.2158
  369MOL0     C48628   9.082   6.172   6.548  0.2289 -0.5207  0.2456
  369MOL0     C48629   9.027   6.230   6.662  0.1692  1.0019  0.2810
  369MOL0     C48630   8.929   6.507   6.973 -0.0848  0.3048 -0.5903
  369MOL0     C48631   8.798   6.544   6.988  0.4102  0.3769  0.1739
  369MOL0     C48632   8.749   6.593   7.113 -0.1963 -0.4373  0.4402
  369MOL0     C48633   8.839   6.609   7.215  1.5741 -0.3869 -1.2547
  369MOL0     O48634   8.802   6.654   7.343 -0.3266  0.5871  0.2082
  369MOL0     C48635   8.673   6.697   7.379  1.5550 -0.2619  0.0936
  369MOL0     C48636   8.634   6.721   7.527  0.9456  0.2870  0.6920
  369MOL0     C48637   8.758   6.789   7.585 -0.2480  0.4736 -0.4409
  369MOL0     C48638   8.827   6.705   7.688  0.0549 -0.5079  0.4956
  369MOL0     C48639   8.862   6.750   7.817 -0.1158 -0.3740 -0.1467
  369MOL0     C48640   8.890   6.802   7.926  0.7920 -0.1368  0.0257
  369MOL0     C48641   8.971   6.573   7.203 -0.1246 -0.0184  0.1929
  369MOL0     C48642   9.015   6.521   7.084  0.5781 -0.0695 -0.7095
  369MOL0     H48643   8.888   6.507   6.515  0.1331  1.1198 -1.1823
  369MOL0     H48644   8.962   6.392   6.306 -0.1386 -3.9682 -1.5555
  369MOL0     H48645   9.114   6.284   6.138 -0.0577  0.8497  0.6726
  369MOL0     H48646   8.955   6.214   6.171 -0.0208 -0.0282  0.7314
  369MOL0     H48647   9.216   6.064   6.066 -0.3154 -2.3632 -1.0575
  369MOL0     H48648   9.069   6.073   5.983  0.1835 -2.0431 -0.8109
  369MOL0     H48649   8.971   5.931   6.177  0.0581  0.1272 -0.1954
  369MOL0     H48650   9.130   5.925   6.254 -1.7511 -1.7095  0.9537
  369MOL0     H48651   9.058   5.827   5.972  1.6651 -0.8378 -0.4736
  369MOL0     H48652   9.219   5.813   6.039  0.2874 -2.6947 -1.3547
  369MOL0     H48653   8.973   5.657   6.142 -0.1806 -2.0399  0.0931
  369MOL0     H48654   9.104   5.678   6.237  0.4311  0.0339  0.8449
  369MOL0     H48655   9.261   5.586   6.040 -0.3457  2.3917  0.9684
  369MOL0     H48656   9.107   5.572   5.957 -1.7494  1.0291  1.1535
  369MOL0     H48657   9.235   5.374   6.092 -1.9580 -3.5311  1.3116
  369MOL0     H48658   9.144   5.449   6.225  0.9157 -1.5272  0.8856
  369MOL0     H48659   9.052   5.244   6.115 -0.6771 -1.4313 -0.7539
  369MOL0     H48660   8.999   5.344   5.976 -5.4332 -0.0299  1.8719
  369MOL0     H48661   8.986   5.392   6.379 -0.0430 -2.6546 -0.0361
  369MOL0     H48662   8.644   5.546   6.474  0.0379  0.3201  2.2021
  369MOL0     H48663   8.800   5.609   6.506 -0.5905 -1.0938  2.5403
  369MOL0     H48664   8.888   5.423   6.593 -0.1175  0.5919  1.6555
  369MOL0     H48665   8.746   5.315   6.532  1.3548  0.5408 -1.0362
  369MOL0     H48666   8.737   5.339   6.770 -1.1977  0.1736 -0.3482
  369MOL0     H48667   8.736   5.520   6.759 -1.4883  1.8775  0.3135
  369MOL0     H48668   8.525   5.517   6.678  2.3817  0.7538  0.2507
  369MOL0     H48669   8.534   5.405   6.814 -0.6224 -1.1092  0.3025
  369MOL0     H48670   8.325   5.522   6.557 -1.2622  1.0504  0.8022
  369MOL0     H48671   8.069   5.507   6.582 -0.9967 -0.7817  1.5629
  369MOL0     H48672   7.729   5.379   6.871 -0.5264 -0.1464  0.5415
  369MOL0     H48673   7.507   5.362   6.962 -1.0192  0.3594 -1.9061
  369MOL0     H48674   7.388   5.069   7.199 -0.9917 -1.6773  2.2352
  369MOL0     H48675   7.407   4.948   7.069 -1.8974 -1.2585  0.1125
  369MOL0     H48676   7.190   4.923   7.155  0.0649 -0.1396  1.2036
  369MOL0     H48677   7.184   4.996   6.987 -2.2917  3.6791 -0.6185
  369MOL0     H48678   7.119   5.209   7.091 -2.1753  1.2485 -0.7609
  369MOL0     H48679   7.120   5.143   7.247 -0.4036  1.1878 -1.0474
  369MOL0     H48680   6.945   5.036   7.005 -1.4381  0.9276 -0.5067
  369MOL0     H48681   6.926   4.993   7.167 -0.8524  0.9941  0.5338
  369MOL0     H48682   6.918   5.275   7.057  4.2879 -0.2942  1.4223
  369MOL0     H48683   6.880   5.231   7.225 -0.5980 -0.9680 -0.5523
  369MOL0     H48684   6.675   5.284   7.157  0.1717  0.3455 -0.0491
  369MOL0     H48685   6.669   5.109   7.163 -0.1932 -0.8616  0.6399
  369MOL0     H48686   6.712   5.244   6.900  0.2534  1.7863  0.9385
  369MOL0     H48687   6.659   5.076   6.933  0.2696 -1.1573  1.7070
  369MOL0     H48688   6.447   5.128   7.047 -0.6257  1.0256 -0.3871
  369MOL0     H48689   6.445   5.184   6.882 -3.2755 -2.2984  0.4423
  369MOL0     H48690   7.541   4.937   6.914 -3.2645  1.2989  1.8243
  369MOL0     H48691   7.780   4.968   6.818  1.3661  0.3481  0.8202
  369MOL0     H48692   8.134   5.122   6.778 -4.7080  0.1143 -2.3044
  369MOL0     H48693   8.371   5.145   6.715  2.6218  3.8234  2.8084
  369MOL0     H48694   9.150   6.088   6.534 -0.4060 -0.8953 -0.6347
  369MOL0     H48695   9.062   6.187   6.756 -1.5537 -0.1008  0.4584
  369MOL0     H48696   8.732   6.549   6.902  2.1000  2.2953 -1.1338
  369MOL0     H48697   8.646   6.626   7.110  0.4761  2.0946  1.4581
  369MOL0     H48698   8.595   6.625   7.352 -0.6618  2.1589 -0.3112
  369MOL0     H48699   8.644   6.783   7.318  0.9013 -0.3064  0.3299
  369MOL0     H48700   8.548   6.788   7.537  0.8907  0.3019  0.1425
  369MOL0     H48701   8.615   6.623   7.572  1.2845 -0.3949 -0.6042
  369MOL0     H48702   8.728   6.886   7.627 -0.3798 -0.9841  3.2126
  369MOL0     H48703   8.832   6.819   7.510  1.2756  1.4286  1.3525
  369MOL0     H48704   8.765   6.616   7.703  0.5195 -0.8417  0.4897
  369MOL0     H48705   8.918   6.658   7.648 -0.0318 -1.9351  1.8714
  369MOL0     H48706   8.907   6.832   8.028 -2.5620  1.8152  0.1891
  369MOL0     H48707   9.038   6.583   7.288 -2.3058  2.9093  1.7887
  369MOL0     H48708   9.120   6.497   7.098  1.1356  2.0729 -0.8747
  370MOL0     O48709   2.398   7.956   2.460  0.9906 -0.3321  0.2961
  370MOL0     C48710   2.343   8.065   2.496  0.5234 -0.5707 -0.1690
  370MOL0     O48711   2.381   8.196   2.470  0.9946  0.7336 -0.7494
  370MOL0     C48712   2.510   8.217   2.418  0.0435  0.4903 -0.5087
  370MOL0     C48713   2.579   8.327   2.475  0.7294 -0.6136  0.4982
  370MOL0     C48714   2.700   8.378   2.423 -0.3302  0.0360 -0.4258
  370MOL0     C48715   2.762   8.320   2.320  0.5842  0.1352  0.9992
  370MOL0     O48716   2.891   8.365   2.286  0.1537 -0.3302 -0.6829
  370MOL0     C48717   2.974   8.281   2.201 -0.9206 -0.2492 -0.0386
  370MOL0     C48718   2.992   8.344   2.060 -0.2623 -0.5349  0.4740
  370MOL0     C48719   3.109   8.292   1.980 -0.2881 -0.0916 -0.1570
  370MOL0     C48720   3.044   8.171   1.904 -0.4104  0.8662  1.0865
  370MOL0     C48721   3.142   8.110   1.803 -0.3438  0.6701  0.2394
  370MOL0     C48722   3.079   7.978   1.740 -0.1353  0.3883 -0.0287
  370MOL0     C48723   3.057   7.863   1.847  0.3599 -0.5853  0.3369
  370MOL0     C48724   3.065   7.725   1.784  0.4918  0.0751  0.8813
  370MOL0     N48725   2.952   7.677   1.701 -0.0323 -0.1933  0.0381
  370MOL0     C48726   2.918   7.548   1.692  0.0813  0.4047 -0.1813
  370MOL0     C48727   2.802   7.554   1.623 -0.3494  0.1430  0.8363
  370MOL0     C48728   2.743   7.443   1.547  1.3207  1.3146 -0.6119
  370MOL0     C48729   2.677   7.343   1.651 -0.3133 -1.0260 -0.0234
  370MOL0     C48730   2.594   7.231   1.588 -0.2066  0.2250 -0.7755
  370MOL0     C48731   2.565   7.137   1.700  0.4823 -0.8247 -0.5992
  370MOL0     O48732   2.480   7.029   1.643 -0.4742  0.4972 -0.7001
  370MOL0     C48733   2.375   6.975   1.708  0.3111 -0.8852  0.9515
  370MOL0     C48734   2.348   7.004   1.841 -0.5169  0.6511 -0.3614
  370MOL0     C48735   2.229   6.957   1.891 -0.0466  0.0341  0.3603
  370MOL0     C48736   2.147   6.862   1.819  0.2547 -0.8852 -1.5143
  370MOL0     C48737   2.011   6.824   1.867  0.3192 -1.0429 -0.5041
  370MOL0     O48738   2.000   6.799   1.998 -0.3562 -0.3310  0.1772
  370MOL0     C48739   1.880   6.751   2.042 -0.1190 -0.0832  0.2267
  370MOL0     C48740   1.863   6.614   2.035  0.1233 -1.5451 -0.7078
  370MOL0     C48741   1.737   6.563   2.043  0.3635  0.9518 -0.5544
  370MOL0     C48742   1.624   6.643   2.078 -0.9955  0.1618 -0.0313
  370MOL0     O48743   1.498   6.595   2.093 -0.1635 -0.0983  0.2729
  370MOL0     C48744   1.479   6.451   2.078  0.7169  0.6961 -0.3790
  370MOL0     C48745   1.337   6.432   2.130  0.5818  0.9551  0.7337
  370MOL0     C48746   1.222   6.505   2.057  0.0498  0.8763  0.0516
  370MOL0     C48747   1.094   6.487   2.139  1.2198  0.0146  0.4006
  370MOL0     C48748   0.972   6.545   2.063 -0.9113  0.5383 -0.4638
  370MOL0     C48749   0.848   6.531   2.149 -0.0163 -0.4015  0.2819
  370MOL0     C48750   0.730   6.608   2.077 -0.7272 -0.6341 -0.2102
  370MOL0     C48751   0.589   6.582   2.134  0.5296  0.7415 -0.2708
  370MOL0    Cl48752   0.464   6.650   2.022  0.5498  0.4067  0.0940
  370MOL0     C48753   1.640   6.784   2.077  0.5752  0.4572 -0.0599
  370MOL0     C48754   1.769   6.835   2.063 -0.9580 -0.5407  0.6052
  370MOL0     O48755   1.923   6.794   1.789 -0.2186 -0.9131  1.2396
  370MOL0     C48756   2.175   6.835   1.695 -0.6503  0.4437  0.5700
  370MOL0     C48757   2.293   6.881   1.635  0.0892 -0.7563  0.2536
  370MOL0     N48758   2.775   7.687   1.585  0.4209  0.5081  0.4541
  370MOL0     N48759   2.859   7.760   1.638  0.1225  0.0218  0.1103
  370MOL0     C48760   2.698   8.214   2.254 -0.5812  0.3869  0.0070
  370MOL0     C48761   2.566   8.167   2.298 -0.1375  0.0830  0.1807
  370MOL0     C48762   2.235   8.046   2.599  0.2637 -0.2023 -0.7257
  370MOL0     C48763   2.217   7.913   2.652 -0.9811 -0.4628  0.0355
  370MOL0     C48764   2.129   7.892   2.748  0.5579 -0.3034  0.3030
  370MOL0     C48765   2.049   7.997   2.795  0.2398 -0.3076 -0.4081
  370MOL0     O48766   1.976   7.995   2.912 -0.2648 -0.4832 -0.0949
  370MOL0     C48767   1.997   7.877   2.992 -0.0416  0.6705  0.6227
  370MOL0     C48768   1.933   7.902   3.130 -0.0955 -0.3145  1.0102
  370MOL0     C48769   1.984   7.810   3.246 -0.1028  0.3543 -0.6650
  370MOL0     C48770   1.949   7.655   3.242  0.3602  0.7444  0.8018
  370MOL0     C48771   1.814   7.627   3.189 -0.3048 -0.2762 -0.6946
  370MOL0     C48772   1.692   7.613   3.179 -0.6395  0.0667 -0.2584
  370MOL0     C48773   2.071   8.129   2.750 -0.1715 -0.2871  0.3550
  370MOL0     C48774   2.157   8.159   2.650  0.5399 -0.3432  0.1946
  370MOL0     H48775   2.524   8.374   2.556 -2.8784 -4.1259  0.3870
  370MOL0     H48776   2.741   8.470   2.462 -2.6911 -0.3658  3.6405
  370MOL0     H48777   2.949   8.176   2.186 -0.4264 -0.3876  0.1030
  370MOL0     H48778   3.071   8.282   2.250 -1.0910  1.0538  0.3184
  370MOL0     H48779   3.021   8.449   2.068  4.9432 -1.8688  2.6436
  370MOL0     H48780   2.897   8.325   2.009  0.5167 -2.2144 -0.4094
  370MOL0     H48781   3.204   8.280   2.031  0.7934 -0.6850 -2.1959
  370MOL0     H48782   3.139   8.373   1.913  2.3559  3.1599  4.4164
  370MOL0     H48783   3.016   8.101   1.983  1.0348 -0.0002  0.8657
  370MOL0     H48784   2.957   8.209   1.850 -1.1245 -2.7062 -0.5575
  370MOL0     H48785   3.231   8.084   1.861  0.1088  2.4005  0.3838
  370MOL0     H48786   3.181   8.185   1.733  1.7571  0.6284  1.2638
  370MOL0     H48787   3.144   7.951   1.657  3.4675  0.8481  2.4108
  370MOL0     H48788   2.980   7.991   1.696 -0.2348 -1.1500 -0.3386
  370MOL0     H48789   3.142   7.882   1.912  1.2476  3.4477 -1.6765
  370MOL0     H48790   2.961   7.876   1.898  0.4818  0.1184  0.3839
  370MOL0     H48791   3.082   7.648   1.860  1.9955 -0.6069 -0.1161
  370MOL0     H48792   3.158   7.713   1.729  0.4768  2.1916  0.3353
  370MOL0     H48793   2.976   7.460   1.716 -0.4504  0.3750  1.1216
  370MOL0     H48794   2.810   7.370   1.500 -2.0178 -1.2023 -1.8554
  370MOL0     H48795   2.669   7.479   1.475 -0.4828 -1.6016 -0.3845
  370MOL0     H48796   2.622   7.411   1.717  0.9548 -0.1315  0.1608
  370MOL0     H48797   2.752   7.301   1.719 -1.3836  0.5528  2.2470
  370MOL0     H48798   2.502   7.256   1.535 -0.5445  0.1900 -0.2152
  370MOL0     H48799   2.657   7.181   1.513 -0.8495  1.5812 -2.2766
  370MOL0     H48800   2.524   7.195   1.783 -1.1903 -1.0000 -1.2708
  370MOL0     H48801   2.653   7.084   1.738  0.6363  0.3366  0.7184
  370MOL0     H48802   2.419   7.068   1.892  2.4498 -1.2951 -1.7753
  370MOL0     H48803   2.188   6.992   1.986  1.0617  3.1759 -0.1889
  370MOL0     H48804   1.950   6.549   2.027  0.3101 -1.4939  0.6325
  370MOL0     H48805   1.745   6.455   2.045  3.4234  1.1029  0.5511
  370MOL0     H48806   1.551   6.386   2.129 -2.4712 -2.1132  0.9075
  370MOL0     H48807   1.495   6.418   1.975  3.7833  0.5759  0.0471
  370MOL0     H48808   1.335   6.447   2.238 -1.2915  2.3596  0.5657
  370MOL0     H48809   1.324   6.324   2.120  3.2226  0.6755 -0.3633
  370MOL0     H48810   1.215   6.460   1.957  5.6278 -0.2231 -0.1717
  370MOL0     H48811   1.235   6.613   2.052  0.3128  0.9329  1.6192
  370MOL0     H48812   1.078   6.381   2.164  2.4050 -0.1094  0.6761
  370MOL0     H48813   1.100   6.530   2.239 -0.5078 -1.6191  1.2787
  370MOL0     H48814   0.955   6.512   1.960 -2.8418  1.3021 -0.4207
  370MOL0     H48815   0.998   6.651   2.056 -0.7095  0.4426 -1.1784
  370MOL0     H48816   0.861   6.559   2.254 -1.2468  0.0423  0.3314
  370MOL0     H48817   0.828   6.424   2.148 -0.5115 -0.3082 -0.0709
  370MOL0     H48818   0.757   6.713   2.093  0.9671 -0.9459 -0.8209
  370MOL0     H48819   0.741   6.599   1.968 -2.2039 -4.3555 -0.1845
  370MOL0     H48820   0.577   6.626   2.233  2.8605  1.8823 -0.4399
  370MOL0     H48821   0.576   6.473   2.136 -0.9161  0.8870  0.9568
  370MOL0     H48822   1.558   6.855   2.085  0.0505 -0.3016  1.7222
  370MOL0     H48823   1.786   6.942   2.054 -1.2216 -0.5270  0.2648
  370MOL0     H48824   2.098   6.773   1.649  1.5252 -1.4058 -0.7905
  370MOL0     H48825   2.318   6.870   1.530 -1.7297  1.1605 -0.4511
  370MOL0     H48826   2.750   8.156   2.178  1.0512  0.8445  0.7220
  370MOL0     H48827   2.523   8.091   2.233 -2.4189 -0.0092  1.6827
  370MOL0     H48828   2.278   7.827   2.625 -0.3527 -0.7332  2.1304
  370MOL0     H48829   2.115   7.791   2.785  1.6270  0.7109  3.9199
  370MOL0     H48830   2.100   7.851   3.016 -0.4436 -0.1660  1.5080
  370MOL0     H48831   1.945   7.791   2.950 -1.1583  1.8033 -0.3947
  370MOL0     H48832   1.957   8.007   3.152 -3.1710  0.9510 -0.9357
  370MOL0     H48833   1.824   7.897   3.122 -0.0370 -0.6412  0.3880
  370MOL0     H48834   1.932   7.852   3.333  0.2261 -0.6606  0.0585
  370MOL0     H48835   2.091   7.827   3.263 -0.4960 -0.0385  3.0189
  370MOL0     H48836   2.025   7.608   3.179  0.0289  0.2471  0.7612
  370MOL0     H48837   1.971   7.604   3.336 -1.7161  1.6608  1.8377
  370MOL0     H48838   1.587   7.591   3.184 -0.1834 -2.2313  0.0735
  370MOL0     H48839   2.026   8.210   2.807  1.4485  2.6173 -2.1746
  370MOL0     H48840   2.191   8.260   2.630  1.4292 -0.2881  1.8698
  371MOL0     O48841   3.452   3.046   8.132 -0.1182 -0.2941 -0.3253
  371MOL0     C48842   3.557   3.103   8.117 -0.3151  0.5174  0.1151
  371MOL0     O48843   3.682   3.056   8.101  0.2079  0.1349  0.1044
  371MOL0     C48844   3.679   2.930   8.040  0.0840 -1.1014  0.0087
  371MOL0     C48845   3.638   2.820   8.106  0.2272 -0.2846 -0.4748
  371MOL0     C48846   3.628   2.694   8.035 -0.0466  0.6401  0.5549
  371MOL0     C48847   3.688   2.691   7.906  0.6767  0.3704  0.0014
  371MOL0     O48848   3.710   2.574   7.835 -0.3090 -1.2636 -0.6384
  371MOL0     C48849   3.625   2.468   7.863 -0.2608  0.9590 -0.8232
  371MOL0     C48850   3.589   2.393   7.739  0.4775 -0.1755  0.1379
  371MOL0     C48851   3.718   2.326   7.684  0.3425 -0.0685  0.1006
  371MOL0     C48852   3.695   2.212   7.584  0.7068 -0.8853 -0.1281
  371MOL0     C48853   3.788   2.208   7.459 -0.3007 -0.3108  0.1016
  371MOL0     C48854   3.728   2.130   7.332 -0.4988  0.8123 -0.2930
  371MOL0     C48855   3.824   2.137   7.205  1.1498  0.1524  0.0352
  371MOL0     C48856   3.786   2.068   7.076 -0.8304 -0.3462 -0.0129
  371MOL0     N48857   3.678   2.145   7.010  0.0313 -0.4594 -0.4990
  371MOL0     C48858   3.692   2.274   6.969  0.7310 -0.5198 -0.3719
  371MOL0     C48859   3.574   2.298   6.920  0.0275 -0.3885 -0.1172
  371MOL0     C48860   3.535   2.421   6.845 -0.0911 -0.2049 -0.7300
  371MOL0     C48861   3.448   2.514   6.942 -0.2209  0.0035  0.2939
  371MOL0     C48862   3.543   2.585   7.046  0.3662  0.5705  0.1351
  371MOL0     C48863   3.612   2.700   6.976 -0.2076 -0.6296 -0.0566
  371MOL0     O48864   3.739   2.735   7.028  0.4829  0.4434 -0.4548
  371MOL0     C48865   3.732   2.827   7.129 -0.0317  1.0280  0.2911
  371MOL0     C48866   3.781   2.955   7.090 -0.5687 -0.6680  0.4402
  371MOL0     C48867   3.793   3.056   7.186  0.1991  0.3021  0.3301
  371MOL0     C48868   3.745   3.033   7.315  0.4814 -0.6886  0.0283
  371MOL0     C48869   3.761   3.144   7.408 -0.2760  0.4776 -0.8796
  371MOL0     O48870   3.778   3.110   7.538  0.1492  0.8488 -0.0709
  371MOL0     C48871   3.803   3.203   7.633  0.7774  0.5498  0.9280
  371MOL0     C48872   3.701   3.282   7.688 -0.4340 -0.0611  0.3518
  371MOL0     C48873   3.741   3.382   7.780  1.0229  0.0091 -0.6448
  371MOL0     C48874   3.870   3.406   7.820  0.3069  0.9676  0.3500
  371MOL0     O48875   3.894   3.513   7.916 -0.3991 -0.2404  1.0729
  371MOL0     C48876   4.019   3.582   7.917 -1.0567 -1.1358  0.4287
  371MOL0     C48877   4.023   3.681   8.037 -0.0066  0.7051  0.0206
  371MOL0     C48878   4.152   3.759   8.026  1.3032  0.6253 -0.5376
  371MOL0     C48879   4.172   3.855   8.147 -0.4988  0.7759  0.6860
  371MOL0     C48880   4.318   3.900   8.158 -0.5343  0.1243  0.5155
  371MOL0     C48881   4.356   4.002   8.048 -0.0732 -0.4732 -0.4107
  371MOL0     C48882   4.492   3.961   8.005 -0.1201 -0.1194 -0.2469
  371MOL0     C48883   4.526   4.028   7.875  0.9360  0.4097 -0.4833
  371MOL0    Cl48884   4.453   3.945   7.736 -0.3993  0.2299  0.4164
  371MOL0     C48885   3.964   3.321   7.762 -0.4487 -0.0244  0.6775
  371MOL0     C48886   3.940   3.228   7.664 -0.4572 -0.2208  0.1261
  371MOL0     O48887   3.759   3.256   7.363  0.1306 -0.5707  0.6855
  371MOL0     C48888   3.690   2.901   7.354 -0.6297 -0.6728 -0.1645
  371MOL0     C48889   3.690   2.799   7.258 -0.4419 -0.1823  0.5302
  371MOL0     N48890   3.489   2.194   6.938 -0.1808 -0.4775 -0.0365
  371MOL0     N48891   3.554   2.096   6.977 -0.1826  0.8837  0.1277
  371MOL0     C48892   3.733   2.812   7.843 -0.3427  0.4776 -0.7649
  371MOL0     C48893   3.723   2.927   7.908 -0.1782 -0.2152 -0.5123
  371MOL0     C48894   3.545   3.244   8.123 -0.3352  0.1551 -1.2058
  371MOL0     C48895   3.431   3.316   8.170 -0.0097 -0.2151  1.0295
  371MOL0     C48896   3.429   3.457   8.181  0.6757  0.0654 -0.1904
  371MOL0     C48897   3.548   3.532   8.171 -0.3097 -0.4100 -0.3067
  371MOL0     O48898   3.545   3.671   8.187 -0.2303  0.3469  0.3864
  371MOL0     C48899   3.613   3.751   8.093  0.7853  0.7949  0.1657
  371MOL0     C48900   3.671   3.866   8.163  0.1036  0.5346 -1.1826
  371MOL0     C48901   3.557   3.951   8.229  0.5474 -0.1169 -0.5094
  371MOL0     C48902   3.601   4.081   8.297 -0.1347 -0.6430 -0.5654
  371MOL0     C48903   3.484   4.171   8.347 -0.7983 -0.8315  1.1066
  371MOL0     C48904   3.385   4.232   8.378  0.8370 -0.7016  0.2641
  371MOL0     C48905   3.664   3.462   8.141 -0.2648 -0.4273 -0.9425
  371MOL0     C48906   3.662   3.327   8.115 -0.9122  0.5586 -0.7285
  371MOL0     H48907   3.599   2.821   8.207  2.9938  1.1064  0.7125
  371MOL0     H48908   3.595   2.605   8.089 -1.7285  2.2204  2.2553
  371MOL0     H48909   3.527   2.476   7.912 -0.3331  0.0846 -0.8062
  371MOL0     H48910   3.684   2.400   7.925 -1.0248  0.2320 -0.8773
  371MOL0     H48911   3.547   2.453   7.658 -0.9882  2.5613  2.7365
  371MOL0     H48912   3.524   2.310   7.769  2.8358 -2.2325 -0.0803
  371MOL0     H48913   3.773   2.298   7.774 -3.2434 -0.8937  2.2304
  371MOL0     H48914   3.770   2.403   7.627 -3.1283  1.0492 -1.8866
  371MOL0     H48915   3.694   2.112   7.627 -3.3664 -0.5848  0.8437
  371MOL0     H48916   3.597   2.230   7.539  0.5583  0.0474  0.5315
  371MOL0     H48917   3.886   2.174   7.494 -0.1174  2.3937  2.6327
  371MOL0     H48918   3.805   2.310   7.424  3.1413  0.4778  3.3366
  371MOL0     H48919   3.625   2.150   7.303 -0.7231  1.2652  0.7916
  371MOL0     H48920   3.736   2.026   7.365 -2.5063 -0.1686 -2.6154
  371MOL0     H48921   3.843   2.241   7.177 -1.1654  1.1487  1.8004
  371MOL0     H48922   3.920   2.106   7.248  1.0667  0.9660  0.8312
  371MOL0     H48923   3.747   1.968   7.098  1.0445 -0.9175  0.9333
  371MOL0     H48924   3.871   2.059   7.007 -1.1274  1.2820 -0.6364
  371MOL0     H48925   3.775   2.344   6.967 -0.2657  0.6817 -2.2871
  371MOL0     H48926   3.471   2.391   6.762 -2.2291  1.4987  0.1855
  371MOL0     H48927   3.621   2.474   6.805  1.0236 -0.6002  1.0504
  371MOL0     H48928   3.372   2.455   6.993  1.2947 -2.1825  0.2006
  371MOL0     H48929   3.393   2.591   6.888 -1.2982  0.6089  2.1771
  371MOL0     H48930   3.491   2.615   7.137 -2.3345 -1.3609 -0.6331
  371MOL0     H48931   3.619   2.511   7.075 -2.3291 -2.7420 -0.5562
  371MOL0     H48932   3.548   2.789   6.976  0.7713  0.0940 -0.7823
  371MOL0     H48933   3.627   2.671   6.872 -1.2436 -1.3499 -0.0266
  371MOL0     H48934   3.830   2.968   6.994  1.7726 -0.1414  1.6373
  371MOL0     H48935   3.857   3.144   7.183  1.8348 -0.7029  2.6845
  371MOL0     H48936   3.601   3.260   7.652 -0.4091 -3.2626  1.9102
  371MOL0     H48937   3.669   3.439   7.839  2.0208  4.5032 -3.3213
  371MOL0     H48938   4.031   3.640   7.825  1.5184 -0.5846  1.0289
  371MOL0     H48939   4.100   3.509   7.929  1.5855  1.7848  1.7978
  371MOL0     H48940   4.019   3.627   8.132 -0.6124  2.3797  0.9961
  371MOL0     H48941   3.932   3.742   8.027 -0.2688  0.0936 -1.6440
  371MOL0     H48942   4.173   3.806   7.930 -1.8750  2.8066 -0.3209
  371MOL0     H48943   4.224   3.678   8.034 -0.1670 -0.6016  1.2671
  371MOL0     H48944   4.097   3.935   8.152 -2.4641 -0.9966  0.7140
  371MOL0     H48945   4.144   3.802   8.238  2.3390  1.6306  2.1836
  371MOL0     H48946   4.381   3.811   8.155  3.2775  2.6008 -1.2840
  371MOL0     H48947   4.344   3.945   8.254  1.4178  5.7640 -2.2009
  371MOL0     H48948   4.358   4.106   8.082 -0.7934 -0.0645 -1.5640
  371MOL0     H48949   4.281   4.006   7.969 -0.0728  1.9652 -0.3788
  371MOL0     H48950   4.556   3.980   8.091 -0.7787 -1.0647  0.4751
  371MOL0     H48951   4.500   3.853   7.991  0.1734 -0.4868  2.2852
  371MOL0     H48952   4.634   4.010   7.869  0.9685 -0.0362  0.9898
  371MOL0     H48953   4.498   4.133   7.885 -0.9719 -0.2529  2.1682
  371MOL0     H48954   4.069   3.342   7.783 -0.0207 -0.4046 -0.9247
  371MOL0     H48955   4.015   3.174   7.607 -0.7252 -0.0284 -0.4157
  371MOL0     H48956   3.664   2.898   7.460 -0.0237  3.1548  0.2191
  371MOL0     H48957   3.652   2.701   7.285 -1.1934  0.0099  0.1963
  371MOL0     H48958   3.768   2.803   7.741 -2.7532  1.4565 -1.7625
  371MOL0     H48959   3.761   3.020   7.865  1.1144  1.1257  3.1303
  371MOL0     H48960   3.330   3.282   8.189 -0.8835  1.2947 -0.5335
  371MOL0     H48961   3.353   3.521   8.225  2.2398  2.0362 -0.2097
  371MOL0     H48962   3.541   3.787   8.019 -1.4926 -0.2836  1.7129
  371MOL0     H48963   3.691   3.689   8.046  0.7336 -0.9815  2.2359
  371MOL0     H48964   3.745   3.853   8.243 -1.2633  5.4534  1.2618
  371MOL0     H48965   3.718   3.929   8.087  0.7864  0.3739 -0.9025
  371MOL0     H48966   3.517   3.890   8.310 -0.7058  1.7362  0.3275
  371MOL0     H48967   3.479   3.975   8.156  1.2496 -0.3503 -1.3619
  371MOL0     H48968   3.673   4.079   8.379 -0.3251  0.8497 -0.3276
  371MOL0     H48969   3.651   4.144   8.223  4.9790 -1.8123  1.5229
  371MOL0     H48970   3.289   4.278   8.386 -0.1645 -2.8318  1.4355
  371MOL0     H48971   3.758   3.514   8.134 -0.1382 -0.5046  0.0823
  371MOL0     H48972   3.766   3.295   8.119 -0.8761  0.7450  0.0118
  372MOL0     O48973   5.761   7.272   0.168  0.9779  1.0441 -0.6821
  372MOL0     C48974   5.729   7.201   0.077 -0.5440 -0.8147  0.0776
  372MOL0     O48975   5.815   7.165  -0.019  0.7708  0.0308  0.4091
  372MOL0     C48976   5.948   7.216  -0.033  0.9850  0.0227 -0.4511
  372MOL0     C48977   5.980   7.347  -0.029  0.4388  0.4721 -0.7037
  372MOL0     C48978   6.104   7.392  -0.067  0.1407 -0.0755  0.7781
  372MOL0     C48979   6.213   7.298  -0.093  0.0091 -0.2094 -0.8968
  372MOL0     O48980   6.334   7.349  -0.146  0.1756 -0.1456 -0.7173
  372MOL0     C48981   6.454   7.270  -0.123 -0.3171 -0.5586  0.1484
  372MOL0     C48982   6.589   7.349  -0.116 -1.0649 -0.5279  0.7107
  372MOL0     C48983   6.704   7.248  -0.101  0.9028  0.0518 -0.0981
  372MOL0     C48984   6.832   7.310  -0.132 -0.4236  0.8172 -0.1561
  372MOL0     C48985   6.875   7.403  -0.013  0.0895 -0.1118  0.3236
  372MOL0     C48986   7.022   7.435  -0.009 -0.0156 -0.6135  1.2278
  372MOL0     C48987   7.105   7.319   0.045  0.0801  0.4868 -0.7188
  372MOL0     C48988   7.241   7.289  -0.022  0.2017  1.2198 -0.6285
  372MOL0     N48989   7.220   7.255  -0.169 -0.2040  0.9941 -0.2900
  372MOL0     C48990   7.152   7.150  -0.221  0.8634  0.8451 -1.2182
  372MOL0     C48991   7.205   7.117  -0.344  0.2983  0.3241 -0.2952
  372MOL0     C48992   7.154   7.020  -0.448  0.3849 -0.1747  0.7370
  372MOL0     C48993   7.006   7.025  -0.497 -0.8992 -0.4136 -0.2489
  372MOL0     C48994   6.908   6.982  -0.385  0.1915 -0.1698  0.8404
  372MOL0     C48995   6.767   6.973  -0.439 -0.8816 -0.0135 -0.2940
  372MOL0     O48996   6.673   6.980  -0.337 -0.3538 -0.4329  0.3365
  372MOL0     C48997   6.552   6.915  -0.363 -0.4826  0.1485  0.7197
  372MOL0     C48998   6.490   6.892  -0.492 -0.8754 -0.3782  0.0746
  372MOL0     C48999   6.361   6.840  -0.508  0.4040 -0.4383 -0.5508
  372MOL0     C49000   6.271   6.832  -0.393 -0.0746  0.4084  1.5304
  372MOL0     C49001   6.130   6.785  -0.412 -0.7160 -0.7677 -0.4442
  372MOL0     O49002   6.041   6.805  -0.304 -0.8451  0.8498  0.2977
  372MOL0     C49003   5.910   6.780  -0.336  0.2486 -0.1296  0.4813
  372MOL0     C49004   5.816   6.861  -0.283  0.5263 -0.2106 -0.8900
  372MOL0     C49005   5.678   6.839  -0.304  0.6952  0.2612  0.7469
  372MOL0     C49006   5.634   6.723  -0.372 -0.4339  0.4934 -0.1712
  372MOL0     O49007   5.501   6.692  -0.391 -0.5037 -0.1301 -0.3837
  372MOL0     C49008   5.400   6.735  -0.302  0.7379  0.4744 -0.6205
  372MOL0     C49009   5.267   6.724  -0.367  1.1225  1.3693 -0.4256
  372MOL0     C49010   5.146   6.764  -0.273 -0.0652  0.1124 -0.4695
  372MOL0     C49011   5.033   6.684  -0.335 -0.5636 -0.4377 -0.3581
  372MOL0     C49012   4.906   6.722  -0.265  0.3566 -0.6157 -0.8586
  372MOL0     C49013   4.792   6.664  -0.343 -0.5814  0.6245  0.4277
  372MOL0     C49014   4.663   6.744  -0.310  0.8578  0.4755  0.8415
  372MOL0     C49015   4.625   6.750  -0.160 -0.2420  0.2418  0.5716
  372MOL0    Cl49016   4.582   6.594  -0.097 -0.1650  0.2229  0.3199
  372MOL0     C49017   5.734   6.628  -0.408  0.5315 -1.5068 -0.1208
  372MOL0     C49018   5.867   6.657  -0.384  1.4599 -0.0887  0.2244
  372MOL0     O49019   6.102   6.734  -0.522 -0.0305  0.1340  0.6166
  372MOL0     C49020   6.325   6.875  -0.271  0.3387 -0.8536 -0.4915
  372MOL0     C49021   6.460   6.918  -0.256 -0.7685  0.1024  0.4418
  372MOL0     N49022   7.292   7.216  -0.379 -0.7377  0.2708  0.0640
  372MOL0     N49023   7.295   7.294  -0.270  0.4848  0.2136 -0.4287
  372MOL0     C49024   6.178   7.173  -0.085  0.1396  0.0896 -0.4128
  372MOL0     C49025   6.057   7.124  -0.052  0.4692 -0.2143 -0.3364
  372MOL0     C49026   5.585   7.154   0.077 -0.5313  1.0159 -0.4384
  372MOL0     C49027   5.531   7.103  -0.039  0.0810 -1.1613 -0.4514
  372MOL0     C49028   5.399   7.071  -0.049  0.1202 -0.0105 -0.0372
  372MOL0     C49029   5.318   7.063   0.058 -0.9476 -0.6822 -0.8587
  372MOL0     O49030   5.197   7.005   0.051 -0.1669 -0.0771 -0.4799
  372MOL0     C49031   5.096   7.029   0.155  0.9648 -0.8957  0.7688
  372MOL0     C49032   5.025   7.157   0.124 -0.4356 -1.2589 -0.9888
  372MOL0     C49033   4.957   7.174  -0.012  0.2042 -0.1353  0.2523
  372MOL0     C49034   4.868   7.067  -0.053 -0.6550  0.8519 -0.6903
  372MOL0     C49035   4.807   7.084  -0.189 -0.7451 -0.2241 -0.1181
  372MOL0     C49036   4.770   7.087  -0.301  0.5011  1.3872 -0.3850
  372MOL0     C49037   5.367   7.121   0.181 -0.3581 -0.3557  0.3625
  372MOL0     C49038   5.498   7.179   0.183  0.3613  0.0905  0.2285
  372MOL0     H49039   5.897   7.416  -0.016 -2.3346 -2.6785 -0.3412
  372MOL0     H49040   6.119   7.498  -0.080  1.5884 -0.0904  1.9464
  372MOL0     H49041   6.465   7.196  -0.203 -2.2060 -0.7912  0.0658
  372MOL0     H49042   6.442   7.221  -0.026  0.5599 -0.9076  0.0893
  372MOL0     H49043   6.591   7.424  -0.036 -0.7092 -0.0816  0.2933
  372MOL0     H49044   6.600   7.402  -0.211  0.0326 -1.2270  0.4288
  372MOL0     H49045   6.691   7.169  -0.175 -0.5056  1.3139 -1.2545
  372MOL0     H49046   6.715   7.214   0.003 -0.0286 -0.0710 -0.0282
  372MOL0     H49047   6.897   7.222  -0.136 -1.2207  0.2048 -0.0143
  372MOL0     H49048   6.822   7.362  -0.228  1.7543  1.5010 -0.0489
  372MOL0     H49049   6.848   7.351   0.079  1.6132 -1.7349 -0.0674
  372MOL0     H49050   6.815   7.492  -0.031  1.5085  0.3681 -2.8285
  372MOL0     H49051   7.037   7.526   0.050 -2.5561  0.6129  0.1215
  372MOL0     H49052   7.056   7.463  -0.109  1.3759  0.4306  1.9679
  372MOL0     H49053   7.131   7.330   0.151  1.1839 -0.1749 -0.8966
  372MOL0     H49054   7.044   7.229   0.039 -0.7576  1.1058 -1.7493
  372MOL0     H49055   7.282   7.199   0.024 -3.8762  0.4360  2.0320
  372MOL0     H49056   7.315   7.368  -0.005 -0.0596  2.1646 -3.2866
  372MOL0     H49057   7.075   7.086  -0.177  0.3872 -1.8941 -5.3688
  372MOL0     H49058   7.158   6.922  -0.399 -1.2475  0.3735  2.0821
  372MOL0     H49059   7.211   7.014  -0.541  1.1358 -4.3895  1.2688
  372MOL0     H49060   7.003   6.955  -0.582 -2.7073  0.4451 -0.9594
  372MOL0     H49061   6.981   7.117  -0.552 -2.1899 -1.4081 -1.4015
  372MOL0     H49062   6.929   6.900  -0.316  1.6088 -1.5712 -1.1478
  372MOL0     H49063   6.904   7.062  -0.310 -0.1049  1.6900 -1.0617
  372MOL0     H49064   6.763   6.872  -0.481  4.4860 -2.0897  3.2160
  372MOL0     H49065   6.743   7.048  -0.516  1.3364  1.3407  0.2505
  372MOL0     H49066   6.549   6.914  -0.581  0.0377 -1.2588  0.4335
  372MOL0     H49067   6.318   6.823  -0.606  1.4801 -2.9969 -0.6643
  372MOL0     H49068   5.842   6.959  -0.246  1.1149  1.3769 -4.9300
  372MOL0     H49069   5.610   6.915  -0.266 -0.0111 -0.2241  0.4903
  372MOL0     H49070   5.406   6.844  -0.294  0.5571  0.4433 -0.0130
  372MOL0     H49071   5.404   6.683  -0.206 -1.4167  3.1745  1.0978
  372MOL0     H49072   5.243   6.622  -0.400  2.2754 -0.0936  2.8059
  372MOL0     H49073   5.261   6.800  -0.445 -0.4400  3.3862  1.5174
  372MOL0     H49074   5.140   6.873  -0.272  2.2063  0.3079  1.4980
  372MOL0     H49075   5.171   6.729  -0.172  2.0018  1.5696 -0.4011
  372MOL0     H49076   5.025   6.703  -0.442 -0.9230  2.7039  0.1124
  372MOL0     H49077   5.038   6.576  -0.317 -1.2609  0.1955  5.7273
  372MOL0     H49078   4.904   6.832  -0.261  0.6336 -0.3939 -4.1333
  372MOL0     H49079   4.919   6.682  -0.164 -0.1457  0.0583 -0.5161
  372MOL0     H49080   4.765   6.563  -0.309  0.6950  1.2826  3.8392
  372MOL0     H49081   4.811   6.661  -0.451  0.1870 -1.5024  0.5753
  372MOL0     H49082   4.668   6.846  -0.351 -0.9356  0.0969 -0.4247
  372MOL0     H49083   4.576   6.699  -0.357 -0.2161  1.4326  1.8481
  372MOL0     H49084   4.534   6.810  -0.151 -1.1402 -1.0164  0.1077
  372MOL0     H49085   4.701   6.805  -0.103 -0.3610  0.3890  0.5859
  372MOL0     H49086   5.696   6.533  -0.445 -1.2796 -2.4218  3.6182
  372MOL0     H49087   5.937   6.576  -0.401  1.0607 -0.2137 -0.8613
  372MOL0     H49088   6.258   6.880  -0.186 -0.2158  2.6404 -0.9843
  372MOL0     H49089   6.491   6.958  -0.160  0.4527  1.3447 -0.4343
  372MOL0     H49090   6.258   7.103  -0.107 -0.5005 -1.0001  0.6414
  372MOL0     H49091   6.031   7.020  -0.041  1.0610 -0.4652 -1.2376
  372MOL0     H49092   5.592   7.095  -0.128 -1.7668 -1.9867 -1.7229
  372MOL0     H49093   5.363   7.020  -0.138 -0.5110 -1.9453  1.2690
  372MOL0     H49094   5.137   7.016   0.255  1.7330  1.2168  0.7757
  372MOL0     H49095   5.022   6.949   0.139 -1.4801  1.7511 -2.6432
  372MOL0     H49096   4.946   7.176   0.198  1.2650 -0.0995  0.6322
  372MOL0     H49097   5.104   7.231   0.140 -0.0627 -1.4058 -2.0909
  372MOL0     H49098   5.042   7.174  -0.081  0.2847 -1.8111  0.3011
  372MOL0     H49099   4.900   7.267  -0.022 -1.0764 -0.9769 -0.7085
  372MOL0     H49100   4.924   6.974  -0.065  1.6998  2.2869 -1.3403
  372MOL0     H49101   4.793   7.055   0.027 -2.0466 -0.1587 -2.0733
  372MOL0     H49102   4.717   7.094  -0.393  1.4322  0.9734 -0.9706
  372MOL0     H49103   5.305   7.121   0.270 -1.3884  1.1859 -0.3029
  372MOL0     H49104   5.533   7.238   0.267 -1.8160  0.7711  0.7141
  373MOL0     O49105   1.403   6.304   1.735  0.6453  0.6451 -0.8295
  373MOL0     C49106   1.323   6.307   1.636 -0.6106 -0.7468 -0.2285
  373MOL0     O49107   1.367   6.334   1.504  0.2496 -0.3599 -0.5664
  373MOL0     C49108   1.496   6.316   1.463 -0.6056 -0.4906  0.1166
  373MOL0     C49109   1.542   6.398   1.354  0.6996  0.5043 -0.0467
  373MOL0     C49110   1.676   6.373   1.317 -0.0962  0.8656  1.2596
  373MOL0     C49111   1.761   6.275   1.367  0.3164 -1.3062 -0.5188
  373MOL0     O49112   1.879   6.253   1.308 -0.4723  0.4092  0.2954
  373MOL0     C49113   1.992   6.182   1.363 -0.4159 -0.1678  0.3729
  373MOL0     C49114   2.047   6.083   1.253  0.1507 -0.3591 -0.6268
  373MOL0     C49115   2.191   6.046   1.288 -0.7303 -0.4979  0.5095
  373MOL0     C49116   2.198   5.959   1.410 -0.2264 -0.3467 -0.1959
  373MOL0     C49117   2.331   5.906   1.433 -0.3644  0.7272  0.8124
  373MOL0     C49118   2.337   5.824   1.560 -0.2415  0.6855 -0.9126
  373MOL0     C49119   2.339   5.909   1.684 -0.5797  0.3004  0.2627
  373MOL0     C49120   2.348   5.831   1.822  0.5849  0.4606  0.4514
  373MOL0     N49121   2.485   5.764   1.843  0.7984  0.0578 -0.6728
  373MOL0     C49122   2.496   5.635   1.903 -0.3716  0.6004  0.6121
  373MOL0     C49123   2.629   5.613   1.875  0.5195 -0.7370 -0.0368
  373MOL0     C49124   2.677   5.467   1.884 -0.4284  0.3390  0.3077
  373MOL0     C49125   2.837   5.467   1.886  0.1926 -0.3175 -0.2715
  373MOL0     C49126   2.894   5.565   1.995 -1.2158  0.3755 -1.1952
  373MOL0     C49127   3.052   5.572   1.989 -0.1667  0.3851 -0.9240
  373MOL0     O49128   3.100   5.460   2.064 -0.4745 -0.0559  0.1660
  373MOL0     C49129   3.229   5.427   2.028  0.2526  0.0194 -0.2013
  373MOL0     C49130   3.270   5.314   2.094  0.2432  0.0855  0.0096
  373MOL0     C49131   3.400   5.276   2.084  0.2618  0.6812  0.2697
  373MOL0     C49132   3.489   5.347   2.004 -0.2069  0.3956 -0.2673
  373MOL0     C49133   3.628   5.310   2.005 -0.0176 -1.0823  0.8470
  373MOL0     O49134   3.681   5.235   2.103  0.3186 -0.1594  0.6977
  373MOL0     C49135   3.805   5.185   2.106 -0.0557  0.2485 -0.3749
  373MOL0     C49136   3.859   5.160   2.241 -0.6883  0.5509 -0.2001
  373MOL0     C49137   3.977   5.095   2.264  0.6047 -0.0983  0.5040
  373MOL0     C49138   4.060   5.060   2.152 -0.0474 -0.4868 -1.2092
  373MOL0     O49139   4.189   5.003   2.157  0.6935  0.6855  0.2257
  373MOL0     C49140   4.292   5.085   2.212 -0.2760 -0.1886 -0.1567
  373MOL0     C49141   4.366   5.177   2.105  0.8127 -0.5602 -0.3133
  373MOL0     C49142   4.487   5.247   2.163  0.4482 -0.1253 -0.3434
  373MOL0     C49143   4.487   5.298   2.311 -0.0904  0.0380  0.9787
  373MOL0     C49144   4.626   5.319   2.355 -0.3233 -0.3182 -0.7713
  373MOL0     C49145   4.646   5.369   2.493 -0.3257  1.0299 -0.3950
  373MOL0     C49146   4.628   5.511   2.512 -0.5076 -0.4165 -0.0112
  373MOL0     C49147   4.654   5.560   2.655 -0.3037 -0.2551  0.3464
  373MOL0    Cl49148   4.809   5.484   2.714  0.2338  0.2858  0.3107
  373MOL0     C49149   4.007   5.083   2.025  1.2836 -0.7899  0.1116
  373MOL0     C49150   3.878   5.149   1.996 -0.7423  0.3938  0.9396
  373MOL0     O49151   3.695   5.352   1.905  0.1126  0.4064 -0.1748
  373MOL0     C49152   3.450   5.462   1.933 -0.1138  0.0971 -0.3836
  373MOL0     C49153   3.318   5.499   1.946 -0.0431  0.1911 -0.5402
  373MOL0     N49154   2.684   5.721   1.804  0.3937 -0.0442  0.2868
  373MOL0     N49155   2.600   5.820   1.800  0.1785  0.6978  0.1791
  373MOL0     C49156   1.704   6.194   1.471 -0.2297 -0.4350 -0.2136
  373MOL0     C49157   1.573   6.207   1.520  0.6025 -0.7347 -0.2297
  373MOL0     C49158   1.184   6.321   1.665  0.6663  0.0689  0.0351
  373MOL0     C49159   1.126   6.278   1.785  0.1098  0.2222  0.6949
  373MOL0     C49160   0.989   6.293   1.807 -0.1082  0.2379 -0.1233
  373MOL0     C49161   0.908   6.362   1.712 -0.1931  0.6263  0.5337
  373MOL0     O49162   0.774   6.365   1.751 -0.5660 -0.4704 -0.2466
  373MOL0     C49163   0.688   6.417   1.646  0.7129  0.0219 -0.2393
  373MOL0     C49164   0.553   6.351   1.666  0.1765 -0.3623 -0.3359
  373MOL0     C49165   0.448   6.403   1.561 -0.3370 -1.4419  0.0473
  373MOL0     C49166   0.469   6.355   1.413 -0.6122  0.4916  0.2988
  373MOL0     C49167   0.357   6.394   1.334  0.3545  0.0697  0.6399
  373MOL0     C49168   0.263   6.441   1.266  0.5139  0.0779 -0.2183
  373MOL0     C49169   0.970   6.407   1.593  0.1595  0.1177 -0.8708
  373MOL0     C49170   1.110   6.389   1.573  1.5371  0.2502 -0.0595
  373MOL0     H49171   1.500   6.492   1.320 -0.3262 -0.6181 -2.0540
  373MOL0     H49172   1.721   6.428   1.235 -2.0106 -2.4724 -2.3988
  373MOL0     H49173   1.974   6.119   1.451  1.1221  0.5136  1.2301
  373MOL0     H49174   2.079   6.239   1.398  1.5758 -2.0682 -1.1485
  373MOL0     H49175   2.048   6.129   1.154  3.9343 -2.3058 -1.6844
  373MOL0     H49176   1.991   5.992   1.230  1.7071 -1.3015 -0.8585
  373MOL0     H49177   2.258   6.131   1.302  0.0419 -0.5438 -2.2587
  373MOL0     H49178   2.225   6.000   1.195 -1.7855 -0.7274  0.2224
  373MOL0     H49179   2.163   6.015   1.497 -1.9202 -2.0562  0.2873
  373MOL0     H49180   2.133   5.873   1.390  0.4240 -0.3945 -2.4491
  373MOL0     H49181   2.406   5.985   1.443 -0.9378  1.6246 -1.2390
  373MOL0     H49182   2.354   5.840   1.348  6.1362 -1.1395  3.3875
  373MOL0     H49183   2.426   5.760   1.562 -0.9693 -0.3906  2.0333
  373MOL0     H49184   2.250   5.760   1.572 -1.9356  3.2388  1.8026
  373MOL0     H49185   2.419   5.983   1.675  0.5732 -0.9782 -0.1995
  373MOL0     H49186   2.243   5.960   1.700 -0.4460  0.2388  1.3208
  373MOL0     H49187   2.282   5.745   1.810  0.7999  0.3933 -0.3257
  373MOL0     H49188   2.314   5.895   1.904 -0.5637  0.9308 -0.3483
  373MOL0     H49189   2.409   5.582   1.942 -0.8238  0.0718 -1.0575
  373MOL0     H49190   2.646   5.407   1.798  3.3949 -3.1054  1.0529
  373MOL0     H49191   2.646   5.418   1.977  1.2795 -2.0319 -0.2815
  373MOL0     H49192   2.873   5.509   1.791 -1.1251 -0.8321 -1.0301
  373MOL0     H49193   2.871   5.365   1.905 -1.0286 -0.3856  1.7747
  373MOL0     H49194   2.868   5.667   1.965 -1.0493  0.0367 -2.5678
  373MOL0     H49195   2.864   5.554   2.100 -1.9683  4.1874 -0.8650
  373MOL0     H49196   3.084   5.668   2.031 -0.4534 -0.5263  1.5266
  373MOL0     H49197   3.077   5.560   1.883  0.6455  3.3157 -1.1331
  373MOL0     H49198   3.205   5.269   2.169  0.3227  1.4905  0.9754
  373MOL0     H49199   3.439   5.182   2.121  1.2235 -0.0735 -2.4248
  373MOL0     H49200   3.794   5.196   2.321 -1.3330 -0.6117 -0.1799
  373MOL0     H49201   4.006   5.070   2.366 -1.1750  2.3408  1.7076
  373MOL0     H49202   4.369   5.025   2.262  0.3579 -0.4227 -1.3743
  373MOL0     H49203   4.238   5.139   2.290 -3.4786  0.6116 -2.7104
  373MOL0     H49204   4.296   5.253   2.069  1.5228  0.1163 -0.2994
  373MOL0     H49205   4.398   5.121   2.016  3.2105  1.0385 -0.5676
  373MOL0     H49206   4.519   5.321   2.089  0.8908  2.1752  2.0246
  373MOL0     H49207   4.562   5.168   2.172 -0.8062 -1.0850  4.0074
  373MOL0     H49208   4.439   5.396   2.312  1.0557  0.6419 -0.1533
  373MOL0     H49209   4.439   5.237   2.388 -0.0740 -1.0263  0.1835
  373MOL0     H49210   4.672   5.387   2.282  0.6590 -0.2907 -0.1344
  373MOL0     H49211   4.681   5.225   2.357  0.6209  0.1630  3.4382
  373MOL0     H49212   4.746   5.334   2.520 -0.2477  0.6207 -1.1718
  373MOL0     H49213   4.578   5.314   2.559  0.8634  1.2976  1.0760
  373MOL0     H49214   4.701   5.558   2.445 -2.2821  1.1761 -0.8979
  373MOL0     H49215   4.526   5.531   2.479 -0.2469 -1.2502 -1.3997
  373MOL0     H49216   4.569   5.547   2.723  1.6393 -1.0107  2.7591
  373MOL0     H49217   4.667   5.668   2.640 -0.9296 -0.4478 -2.2094
  373MOL0     H49218   4.067   5.055   1.939 -1.3605  2.3946 -3.0786
  373MOL0     H49219   3.852   5.165   1.892  1.4348 -1.5916 -0.0063
  373MOL0     H49220   3.516   5.514   1.864 -0.5342  1.0337 -0.0958
  373MOL0     H49221   3.281   5.584   1.889 -0.7293 -0.0478 -0.4636
  373MOL0     H49222   1.773   6.122   1.514  0.4340  2.1311  3.4901
  373MOL0     H49223   1.538   6.137   1.595 -0.2179 -1.6609 -1.4190
  373MOL0     H49224   1.182   6.234   1.868 -1.0873 -3.8506 -0.4615
  373MOL0     H49225   0.948   6.269   1.904  0.3311  0.5346  0.1374
  373MOL0     H49226   0.729   6.403   1.546  2.3277 -2.1635  0.6354
  373MOL0     H49227   0.685   6.527   1.649  0.8304  0.1191 -2.5263
  373MOL0     H49228   0.568   6.244   1.652  0.4024 -0.6287  1.6182
  373MOL0     H49229   0.522   6.365   1.771 -1.0025 -1.0359 -0.5817
  373MOL0     H49230   0.450   6.513   1.563  1.8044 -1.4555  0.5120
  373MOL0     H49231   0.347   6.381   1.597 -1.0779 -0.4586 -1.3483
  373MOL0     H49232   0.566   6.388   1.375 -0.8043  0.0804 -0.5730
  373MOL0     H49233   0.477   6.246   1.413  4.1700  0.5790  2.7341
  373MOL0     H49234   0.177   6.490   1.226 -0.3656 -1.8591 -0.8461
  373MOL0     H49235   0.915   6.464   1.519  1.1552  3.0741  0.4790
  373MOL0     H49236   1.143   6.436   1.481 -0.2393 -0.0894 -0.9239
  374MOL0     O49237   9.364   8.988  10.153  0.1942  0.5305 -0.7695
  374MOL0     C49238   9.450   9.067  10.181 -0.4599 -0.3407 -0.7230
  374MOL0     O49239   9.570   9.036  10.238 -0.3649  0.2360  0.3934
  374MOL0     C49240   9.589   8.917  10.307  1.9379 -0.1080 -0.4473
  374MOL0     C49241   9.484   8.855  10.390  0.5356  0.1499  0.5490
  374MOL0     C49242   9.524   8.758  10.476  0.5196  0.7344  0.5243
  374MOL0     C49243   9.651   8.702  10.477 -0.7761  0.1589 -0.1985
  374MOL0     O49244   9.701   8.616  10.578 -0.1042  0.7702  0.2063
  374MOL0     C49245   9.610   8.519  10.623  0.1590  0.4023  0.2149
  374MOL0     C49246   9.700   8.395  10.649 -0.0663  0.3960 -0.0184
  374MOL0     C49247   9.647   8.302  10.751 -0.7206  0.6600 -0.0604
  374MOL0     C49248   9.518   8.236  10.719  0.3839 -0.8228 -0.3544
  374MOL0     C49249   9.495   8.112  10.819  0.0172 -0.0487  0.0053
  374MOL0     C49250   9.375   8.025  10.778  0.1120  1.2585  0.0288
  374MOL0     C49251   9.356   7.899  10.880  0.0054 -0.1440  0.6899
  374MOL0     C49252   9.243   7.813  10.838 -0.2930 -0.4395 -0.7864
  374MOL0     N49253   9.292   7.731  10.727  0.2701 -0.5936  0.2876
  374MOL0     C49254   9.377   7.627  10.742  0.0321  0.1293 -0.5434
  374MOL0     C49255   9.390   7.581  10.619  0.0124 -0.3038  0.1068
  374MOL0     C49256   9.474   7.464  10.567 -0.7060 -0.4216  0.0987
  374MOL0     C49257   9.463   7.428  10.423  0.5753 -0.0699  0.0624
  374MOL0     C49258   9.320   7.373  10.381  0.8477 -0.9363 -0.5096
  374MOL0     C49259   9.315   7.250  10.299  0.2114 -1.3146 -0.1491
  374MOL0     O49260   9.361   7.135  10.354 -0.2776  0.0651  0.4514
  374MOL0     C49261   9.303   7.018  10.321 -0.3437 -0.0809 -0.3276
  374MOL0     C49262   9.236   6.995  10.199  0.3208 -0.2918  0.0764
  374MOL0     C49263   9.165   6.872  10.176  0.6745 -1.1333  0.6615
  374MOL0     C49264   9.165   6.774  10.276  0.0247  0.1947  0.1168
  374MOL0     C49265   9.078   6.664  10.264  0.7363  0.1861 -0.1282
  374MOL0     O49266   9.044   6.633  10.130 -0.0670 -0.1820  0.3632
  374MOL0     C49267   8.976   6.511  10.120 -0.2635  0.9760  0.2230
  374MOL0     C49268   8.839   6.506  10.109  0.1350  0.1982  0.0454
  374MOL0     C49269   8.780   6.377  10.107  0.0185 -0.4995  1.0743
  374MOL0     C49270   8.842   6.256  10.097 -0.3730  0.7089 -0.6364
  374MOL0     O49271   8.782   6.132  10.072  0.3078 -0.0295 -0.6586
  374MOL0     C49272   8.645   6.128  10.023 -0.1151  0.7359  1.1123
  374MOL0     C49273   8.654   6.172   9.870  0.5798  0.4916 -0.8928
  374MOL0     C49274   8.737   6.093   9.787 -0.5254  0.4195 -0.0620
  374MOL0     C49275   8.703   6.099   9.636  0.0568  0.3419 -0.2059
  374MOL0     C49276   8.776   5.992   9.558 -0.8037  0.1766  0.7727
  374MOL0     C49277   8.716   5.975   9.416  0.6378  0.5462  0.3846
  374MOL0     C49278   8.647   6.096   9.349  0.1293 -0.9875  0.3266
  374MOL0     C49279   8.660   6.093   9.191  0.4566  0.1894 -1.4045
  374MOL0    Cl49280   8.583   6.227   9.116  0.1722  0.0701 -0.7155
  374MOL0     C49281   8.983   6.268  10.098 -0.4664  0.5852  0.3030
  374MOL0     C49282   9.048   6.392  10.112 -0.9888  0.6320 -0.4232
  374MOL0     O49283   9.061   6.597  10.355  0.2575  0.6471  0.4947
  374MOL0     C49284   9.245   6.794  10.394 -1.1549  0.6256  1.3847
  374MOL0     C49285   9.326   6.911  10.408 -0.6513 -0.2089  0.5310
  374MOL0     N49286   9.316   7.653  10.534 -0.6693 -0.5094 -1.3025
  374MOL0     N49287   9.246   7.740  10.599 -0.1759 -0.5053  0.0954
  374MOL0     C49288   9.744   8.766  10.401  0.0586 -0.3446  0.1929
  374MOL0     C49289   9.716   8.867  10.308  0.0233 -0.0516 -0.9795
  374MOL0     C49290   9.426   9.202  10.123 -0.5895 -0.4675 -0.4188
  374MOL0     C49291   9.535   9.296  10.132  1.0078 -0.0929 -0.5500
  374MOL0     C49292   9.496   9.423  10.098  0.0699 -0.8039 -0.2128
  374MOL0     C49293   9.379   9.460  10.039 -0.3282  0.3866  0.6786
  374MOL0     O49294   9.365   9.591  10.005  0.2788 -0.2334 -0.6142
  374MOL0     C49295   9.294   9.618   9.884  0.0654  0.6093 -0.1115
  374MOL0     C49296   9.333   9.761   9.841 -0.7939 -0.0960  0.3681
  374MOL0     C49297   9.476   9.773   9.793  0.3677 -0.5052 -0.7216
  374MOL0     C49298   9.493   9.900   9.723 -0.4850 -0.4844  1.0405
  374MOL0     C49299   9.492  10.027   9.798  1.2270 -0.4230 -0.2142
  374MOL0     C49300   9.518  10.119   9.873  0.3972 -0.3933  0.7137
  374MOL0     C49301   9.280   9.363  10.026 -0.1778 -1.5138  0.4990
  374MOL0     C49302   9.306   9.238  10.070  0.5902 -0.1897  0.2410
  374MOL0     H49303   9.378   8.879  10.388 -0.0459 -2.1712  0.3561
  374MOL0     H49304   9.456   8.716  10.549  0.8136  1.0363  0.9790
  374MOL0     H49305   9.540   8.488  10.545  1.2737  0.7269 -0.9537
  374MOL0     H49306   9.559   8.553  10.713 -0.2741 -1.3944  0.6672
  374MOL0     H49307   9.799   8.424  10.685  0.7376 -3.6527  1.5874
  374MOL0     H49308   9.725   8.338  10.559 -1.9448 -1.5573  0.6161
  374MOL0     H49309   9.640   8.337  10.854 -3.3935 -2.3454  0.9403
  374MOL0     H49310   9.722   8.223  10.758 -0.7716  0.6295  0.1355
  374MOL0     H49311   9.430   8.296  10.744  1.2177 -0.0648  0.8330
  374MOL0     H49312   9.510   8.206  10.615 -0.0586 -3.1423  0.2869
  374MOL0     H49313   9.476   8.149  10.920  1.3857  1.1087 -0.1377
  374MOL0     H49314   9.592   8.062  10.828  0.6279  1.1915  0.3989
  374MOL0     H49315   9.399   7.985  10.679  1.8518 -0.9856  1.2542
  374MOL0     H49316   9.279   8.077  10.782 -1.3594 -1.0733 -2.1759
  374MOL0     H49317   9.454   7.852  10.864  0.2658  0.0436  1.7101
  374MOL0     H49318   9.337   7.937  10.981 -2.3858  1.2592 -0.1932
  374MOL0     H49319   9.166   7.886  10.811  1.8661  1.7202 -1.5064
  374MOL0     H49320   9.200   7.749  10.915  2.5452 -1.2524  0.2598
  374MOL0     H49321   9.433   7.596  10.830 -0.8374 -1.6862 -0.5661
  374MOL0     H49322   9.446   7.376  10.625  3.1501 -0.9616  1.4135
  374MOL0     H49323   9.578   7.473  10.600 -1.2464 -0.8420  2.0157
  374MOL0     H49324   9.540   7.351  10.411  0.4217 -0.2304  0.0877
  374MOL0     H49325   9.474   7.519  10.363 -2.3904  1.0697  1.0442
  374MOL0     H49326   9.271   7.344  10.474  1.1201  0.6384  0.1543
  374MOL0     H49327   9.260   7.453  10.338 -0.3057 -1.0969  0.7195
  374MOL0     H49328   9.374   7.268  10.209 -1.5691 -2.3738 -1.5939
  374MOL0     H49329   9.209   7.237  10.275 -1.2718  0.7393  4.1507
  374MOL0     H49330   9.238   7.060  10.112 -1.1761  0.3059  0.4671
  374MOL0     H49331   9.112   6.875  10.081  0.0765  1.7659  1.0195
  374MOL0     H49332   8.785   6.598  10.130  0.0570 -0.0099  0.8083
  374MOL0     H49333   8.674   6.376  10.131 -0.8644  0.0292 -2.2081
  374MOL0     H49334   8.571   6.194  10.071 -2.0976 -0.1908 -0.4885
  374MOL0     H49335   8.603   6.028  10.035 -1.4693  1.4277  2.5396
  374MOL0     H49336   8.696   6.272   9.854  0.1320  0.7047 -0.7487
  374MOL0     H49337   8.555   6.182   9.825  0.2874  1.9176 -0.0037
  374MOL0     H49338   8.740   5.987   9.812  1.2927 -1.0651 -5.3593
  374MOL0     H49339   8.844   6.117   9.790 -0.2809 -0.6843  0.4763
  374MOL0     H49340   8.595   6.092   9.624 -0.4221  1.5007  2.5962
  374MOL0     H49341   8.735   6.196   9.598 -1.5653 -0.2999 -3.5307
  374MOL0     H49342   8.776   5.901   9.619  1.2098  0.1965  0.8587
  374MOL0     H49343   8.877   6.033   9.551 -0.0650 -1.1993  2.4973
  374MOL0     H49344   8.634   5.903   9.412  1.7801 -0.8771  1.4714
  374MOL0     H49345   8.801   5.942   9.355  3.0944 -0.1961  3.8811
  374MOL0     H49346   8.544   6.100   9.388  0.7793  1.3146  2.0357
  374MOL0     H49347   8.704   6.187   9.369  1.5569 -1.0947 -2.7505
  374MOL0     H49348   8.614   6.002   9.153  0.6115  0.5359 -2.4660
  374MOL0     H49349   8.765   6.098   9.159  0.3881  1.6722 -1.4836
  374MOL0     H49350   9.044   6.178  10.094  0.0142  0.8987  0.4395
  374MOL0     H49351   9.156   6.398  10.102 -0.9030  1.2213  0.7565
  374MOL0     H49352   9.260   6.722  10.474  0.8925 -0.7372 -0.1257
  374MOL0     H49353   9.384   6.932  10.497  0.4300  2.7724 -0.7347
  374MOL0     H49354   9.845   8.730  10.417 -0.1606 -0.5858  1.0837
  374MOL0     H49355   9.789   8.914  10.243  1.4133 -1.6393 -0.6302
  374MOL0     H49356   9.625   9.258  10.180  0.2503 -2.5091 -0.9066
  374MOL0     H49357   9.572   9.500  10.100 -3.0144  2.5728 -0.5794
  374MOL0     H49358   9.185   9.614   9.895  0.1929 -1.7649  0.9686
  374MOL0     H49359   9.337   9.555   9.806  3.3411  0.1846  1.8732
  374MOL0     H49360   9.272   9.794   9.757  0.7772  3.3635  0.4048
  374MOL0     H49361   9.317   9.835   9.921  0.7220  1.6205 -0.8312
  374MOL0     H49362   9.504   9.693   9.723  0.9467 -1.5908  0.6873
  374MOL0     H49363   9.544   9.768   9.878  1.8151 -2.2834 -1.8972
  374MOL0     H49364   9.597   9.898   9.690  0.1865 -3.2685  2.9136
  374MOL0     H49365   9.430   9.904   9.634  1.4454 -2.1721 -0.5070
  374MOL0     H49366   9.534  10.211   9.927  1.0774 -1.5663  2.6099
  374MOL0     H49367   9.180   9.394  10.000  0.5980  0.4095 -0.4574
  374MOL0     H49368   9.231   9.162  10.054  1.1690 -0.2485 -2.7751
  375MOL0     O49369  10.358   5.317  10.576 -0.1756  0.2626 -0.2725
  375MOL0     C49370  10.397   5.434  10.574 -0.3107 -0.5577 -0.1650
  375MOL0     O49371  10.411   5.512  10.690 -0.4780  0.2245 -0.2900
  375MOL0     C49372  10.417   5.458  10.818  1.0349  0.0414  1.1709
  375MOL0     C49373  10.461   5.334  10.857 -0.0441  0.2169  0.7274
  375MOL0     C49374  10.468   5.303  10.989  0.0050 -0.7199 -0.8368
  375MOL0     C49375  10.407   5.393  11.080 -0.5530 -0.0079  0.7864
  375MOL0     O49376  10.409   5.344  11.204 -0.1975  0.1582  0.2370
  375MOL0     C49377  10.376   5.442  11.308  0.3205 -0.0930  0.8877
  375MOL0     C49378  10.226   5.436  11.309 -0.3974  0.4728  0.5374
  375MOL0     C49379  10.157   5.534  11.403 -0.5860  0.2302 -0.4529
  375MOL0     C49380  10.012   5.510  11.383  0.2788  0.1062  0.7266
  375MOL0     C49381   9.931   5.581  11.491  0.8233  0.2421 -0.0668
  375MOL0     C49382   9.923   5.515  11.626  0.5625 -0.8789 -1.2739
  375MOL0     C49383   9.901   5.620  11.733 -0.2724 -0.4007  0.4560
  375MOL0     C49384   9.753   5.666  11.727  0.0595 -0.4096 -1.3398
  375MOL0     N49385   9.722   5.787  11.654  0.1808 -0.5213  0.4127
  375MOL0     C49386   9.813   5.870  11.609 -0.2135  0.4543  0.2290
  375MOL0     C49387   9.747   5.986  11.576 -0.2814 -0.0662 -0.2372
  375MOL0     C49388   9.805   6.116  11.530 -0.1995  1.2965 -0.7647
  375MOL0     C49389   9.780   6.145  11.375 -0.0841  0.1930  1.5666
  375MOL0     C49390   9.837   6.046  11.280  0.0453 -1.1909 -0.6259
  375MOL0     C49391   9.977   6.082  11.217  0.5580  0.2721  0.5146
  375MOL0     O49392  10.023   6.215  11.250  0.5960  0.0695  0.2695
  375MOL0     C49393  10.146   6.262  11.201  0.4774  0.8384  0.4298
  375MOL0     C49394  10.195   6.384  11.258 -0.1360 -0.1527 -0.0815
  375MOL0     C49395  10.317   6.429  11.212 -0.0091 -0.7668 -0.3200
  375MOL0     C49396  10.398   6.370  11.113 -0.5828 -0.4453  1.0102
  375MOL0     C49397  10.524   6.435  11.059 -0.9726  0.4105 -0.2060
  375MOL0     O49398  10.538   6.575  11.057  0.5202  0.0938  0.5902
  375MOL0     C49399  10.643   6.636  10.999 -0.3402  0.9708  0.9712
  375MOL0     C49400  10.628   6.758  10.935 -0.0842  0.6096 -0.7813
  375MOL0     C49401  10.732   6.826  10.886 -1.5941 -0.1794 -0.2634
  375MOL0     C49402  10.855   6.777  10.888 -0.0685  0.6812  0.5589
  375MOL0     O49403  10.968   6.853  10.845 -0.3159 -0.4250  0.4016
  375MOL0     C49404  11.046   6.785  10.742 -0.3632 -0.1300  0.7039
  375MOL0     C49405  10.992   6.819  10.593  0.3043  0.4061  0.6940
  375MOL0     C49406  11.006   6.693  10.499  0.7404  0.4950 -0.9986
  375MOL0     C49407  10.919   6.682  10.380 -0.0084 -0.4422 -0.6299
  375MOL0     C49408  10.939   6.552  10.301 -0.0708 -0.0283  0.3610
  375MOL0     C49409  10.852   6.536  10.186  0.5140 -0.4992 -0.7183
  375MOL0     C49410  10.871   6.634  10.069  0.1877  1.3048 -0.3221
  375MOL0     C49411  10.956   6.575   9.951  0.1038 -0.0796  0.4571
  375MOL0    Cl49412  11.131   6.542  10.014  0.0830  0.1909  0.5382
  375MOL0     C49413  10.873   6.651  10.947 -0.5623  0.5950 -0.2841
  375MOL0     C49414  10.775   6.579  11.009  0.3464  1.1614  0.2209
  375MOL0     O49415  10.589   6.365  10.986 -0.3033  0.4875 -1.5069
  375MOL0     C49416  10.349   6.249  11.052 -0.8147  0.5684 -0.0711
  375MOL0     C49417  10.224   6.194  11.101  0.5898  0.2914  1.0394
  375MOL0     N49418   9.614   5.962  11.607 -0.2461  0.8575 -0.2561
  375MOL0     N49419   9.597   5.851  11.661 -0.1495 -0.7135  0.8596
  375MOL0     C49420  10.373   5.525  11.040 -0.6254  0.3694  0.3059
  375MOL0     C49421  10.371   5.552  10.909  0.0781  0.3268  0.1944
  375MOL0     C49422  10.429   5.501  10.445  0.3301  0.1214  0.1807
  375MOL0     C49423  10.555   5.561  10.409  0.3531  0.0743 -0.2277
  375MOL0     C49424  10.578   5.602  10.281  0.3309  0.6507  0.2087
  375MOL0     C49425  10.482   5.590  10.172 -0.1320  0.2014  0.8358
  375MOL0     O49426  10.525   5.623  10.046 -0.6853 -0.1083  0.6310
  375MOL0     C49427  10.427   5.658   9.946 -0.4319  0.3615  0.6259
  375MOL0     C49428  10.386   5.804   9.965  0.4668  0.0859 -0.1183
  375MOL0     C49429  10.401   5.878   9.825  0.6846  0.5169  0.0067
  375MOL0     C49430  10.282   5.841   9.727  1.2778  0.0199  0.2757
  375MOL0     C49431  10.160   5.892   9.785  0.1904 -0.5834 -0.1412
  375MOL0     C49432  10.060   5.924   9.844 -0.0963 -0.6854 -0.0227
  375MOL0     C49433  10.357   5.539  10.210  0.5343 -1.2501 -0.6572
  375MOL0     C49434  10.336   5.495  10.342 -0.2860 -0.0199 -0.4950
  375MOL0     H49435  10.506   5.266  10.786  3.2762  1.8119  1.0906
  375MOL0     H49436  10.513   5.212  11.027  0.7578  0.8388  2.3508
  375MOL0     H49437  10.414   5.545  11.303 -0.2358  0.1741  1.8432
  375MOL0     H49438  10.426   5.411  11.400  2.8716 -0.1733 -0.4490
  375MOL0     H49439  10.187   5.340  11.342  1.7016 -0.2501  1.1073
  375MOL0     H49440  10.196   5.458  11.206 -1.5672  0.9920  0.9752
  375MOL0     H49441  10.185   5.636  11.376  2.0605 -1.1446 -3.5241
  375MOL0     H49442  10.190   5.528  11.507  3.6342  1.0234 -1.5311
  375MOL0     H49443   9.993   5.551  11.283  0.5120 -2.0405 -0.2547
  375MOL0     H49444   9.989   5.404  11.400 -2.2538  0.8950  2.8536
  375MOL0     H49445   9.828   5.606  11.465  0.6545 -0.2231  0.1508
  375MOL0     H49446   9.986   5.675  11.507  1.2415 -0.1604  0.9043
  375MOL0     H49447  10.012   5.455  11.646  0.2938 -0.9713 -0.2710
  375MOL0     H49448   9.835   5.449  11.632 -0.7743  0.9415  2.3493
  375MOL0     H49449   9.918   5.572  11.831  1.1702  0.6879  0.7810
  375MOL0     H49450   9.965   5.708  11.728 -2.8969  1.5707 -0.3867
  375MOL0     H49451   9.708   5.680  11.826  1.1469  0.3387 -0.9329
  375MOL0     H49452   9.700   5.581  11.682  0.5284 -2.0547  1.0261
  375MOL0     H49453   9.919   5.850  11.619 -0.9001 -3.2723  1.3030
  375MOL0     H49454   9.913   6.121  11.548 -0.2184  0.4785 -0.3631
  375MOL0     H49455   9.766   6.198  11.591  3.7818  0.1302  4.0343
  375MOL0     H49456   9.794   6.251  11.349  0.1152  0.4995  2.8659
  375MOL0     H49457   9.672   6.132  11.376  0.0749 -1.2102  2.2338
  375MOL0     H49458   9.864   5.954  11.332  0.9354  0.1109  1.3945
  375MOL0     H49459   9.764   6.028  11.201 -1.3800 -0.2072  0.4100
  375MOL0     H49460   9.967   6.064  11.110 -2.8338  1.6473  0.4684
  375MOL0     H49461  10.053   6.009  11.247 -3.2182 -2.5853  4.4342
  375MOL0     H49462  10.135   6.446  11.324 -0.0734  2.2948 -2.1610
  375MOL0     H49463  10.354   6.522  11.255 -1.8147 -0.8301  1.5672
  375MOL0     H49464  10.530   6.794  10.904  0.1428 -0.9434 -3.5847
  375MOL0     H49465  10.711   6.907  10.816 -3.0194  0.0530  0.3834
  375MOL0     H49466  11.062   6.678  10.758  3.3951 -0.1004 -1.6570
  375MOL0     H49467  11.145   6.826  10.723 -1.4973  1.4094 -2.6557
  375MOL0     H49468  11.044   6.905  10.551 -0.3526  0.1356 -0.7174
  375MOL0     H49469  10.888   6.852  10.606  0.6358  1.0556  1.8006
  375MOL0     H49470  10.986   6.607  10.563 -1.6050 -0.1046 -2.4234
  375MOL0     H49471  11.113   6.694  10.474  1.3136  1.3283  1.2002
  375MOL0     H49472  10.818   6.680  10.423 -1.1860 -7.5943 -2.4341
  375MOL0     H49473  10.949   6.763  10.312 -1.5462  0.8106  0.1160
  375MOL0     H49474  10.921   6.465  10.364  2.2588  0.8019  2.3322
  375MOL0     H49475  11.043   6.546  10.269  0.0021 -1.2218  0.7741
  375MOL0     H49476  10.755   6.545  10.238  2.4713  1.0343  3.0733
  375MOL0     H49477  10.859   6.435  10.145  0.2170 -0.6951 -0.3019
  375MOL0     H49478  10.773   6.663  10.028 -1.2121 -0.2869  1.7054
  375MOL0     H49479  10.927   6.726  10.089  0.7990  0.9013 -0.1556
  375MOL0     H49480  10.957   6.633   9.858 -1.5007 -1.4516 -0.4870
  375MOL0     H49481  10.918   6.482   9.907 -1.9481  0.6802  0.5020
  375MOL0     H49482  10.977   6.621  10.960 -0.5805  1.7196  3.9268
  375MOL0     H49483  10.800   6.491  11.066  1.5375  0.3655 -1.4303
  375MOL0     H49484  10.416   6.195  10.986  1.0129  3.5955 -0.8906
  375MOL0     H49485  10.187   6.100  11.061  0.4955  0.5401  0.5270
  375MOL0     H49486  10.354   5.612  11.104  0.2224  1.7579 -1.2685
  375MOL0     H49487  10.338   5.649  10.874 -3.3774 -1.5241 -2.3911
  375MOL0     H49488  10.631   5.577  10.485 -1.0012  0.3727  1.1150
  375MOL0     H49489  10.672   5.656  10.274 -0.4617  2.0701  0.2041
  375MOL0     H49490  10.347   5.585   9.935 -0.0427 -0.1831  1.3383
  375MOL0     H49491  10.487   5.643   9.856  3.0873  2.8417  2.3131
  375MOL0     H49492  10.281   5.813   9.995  1.0306  1.6916  1.4856
  375MOL0     H49493  10.446   5.849  10.044 -1.3240 -1.0215  2.0051
  375MOL0     H49494  10.487   5.854   9.763 -0.7016 -0.1495 -1.7548
  375MOL0     H49495  10.396   5.986   9.846  1.7052  0.4642  0.5885
  375MOL0     H49496  10.306   5.900   9.638  5.2962 -0.1480  1.0380
  375MOL0     H49497  10.265   5.735   9.703 -1.6120 -0.0348  2.1542
  375MOL0     H49498   9.961   5.931   9.885  1.4625  0.3216  3.9871
  375MOL0     H49499  10.283   5.527  10.131  1.7345  0.0842 -2.0385
  375MOL0     H49500  10.244   5.441  10.366 -0.1793 -1.2762 -2.7179
  376MOL0     O49501  10.818   8.683   3.761 -0.1497  0.5269 -0.0658
  376MOL0     C49502  10.836   8.572   3.713 -0.3154 -0.6380 -0.8631
  376MOL0     O49503  10.949   8.501   3.735 -0.2844  0.2421  0.4000
  376MOL0     C49504  11.068   8.549   3.792  0.5582  0.6356  0.8451
  376MOL0     C49505  11.157   8.631   3.717 -0.5928  0.1613  0.1432
  376MOL0     C49506  11.271   8.680   3.782  0.1231  0.3547 -0.5443
  376MOL0     C49507  11.312   8.633   3.911 -0.4863  0.0438  0.2387
  376MOL0     O49508  11.429   8.671   3.969 -0.1847  0.2350  0.1532
  376MOL0     C49509  11.546   8.660   3.894 -0.3819 -0.7344  0.4373
  376MOL0     C49510  11.659   8.714   3.972 -0.5745 -0.5936 -0.6154
  376MOL0     C49511  11.659   8.660   4.113 -0.2395 -0.5949  0.1743
  376MOL0     C49512  11.798   8.670   4.181  0.4295  0.1882  0.3267
  376MOL0     C49513  11.789   8.689   4.330 -0.3766  1.5391 -0.3664
  376MOL0     C49514  11.714   8.567   4.398 -0.0804  0.2259 -0.2454
  376MOL0     C49515  11.742   8.538   4.544  0.5750  0.3092 -0.0208
  376MOL0     C49516  11.725   8.648   4.643 -0.3654  0.1209  0.3253
  376MOL0     N49517  11.826   8.762   4.642  0.4502 -0.2141 -0.3671
  376MOL0     C49518  11.963   8.746   4.635 -0.5886 -0.7542  0.4199
  376MOL0     C49519  12.013   8.866   4.612 -0.2845  0.5618  1.3231
  376MOL0     C49520  12.163   8.905   4.630  0.4935  0.2351 -0.3258
  376MOL0     C49521  12.201   9.034   4.572  0.5992 -1.1058  0.6092
  376MOL0     C49522  12.332   9.081   4.626 -0.2310 -0.2080 -0.2367
  376MOL0     C49523  12.353   9.232   4.581  0.7128 -0.4778 -0.3713
  376MOL0     O49524  12.348   9.251   4.437  0.1003  0.8531 -0.0818
  376MOL0     C49525  12.473   9.253   4.383  0.1705  0.2531 -0.1780
  376MOL0     C49526  12.567   9.343   4.435  0.1529 -0.2335 -0.4191
  376MOL0     C49527  12.689   9.346   4.379  0.8697  0.2899  0.3798
  376MOL0     C49528  12.732   9.264   4.277 -0.1707  1.4022 -0.2715
  376MOL0     C49529  12.872   9.277   4.229  0.3542  0.6574 -0.5246
  376MOL0     O49530  12.957   9.350   4.303  1.1627 -0.7262  0.1500
  376MOL0     C49531  13.074   9.397   4.247  0.6507 -0.1124 -0.3744
  376MOL0     C49532  13.192   9.362   4.309  0.0162  0.6096 -0.8760
  376MOL0     C49533  13.311   9.424   4.271 -0.0464 -0.4741 -0.9469
  376MOL0     C49534  13.308   9.531   4.176  1.4607 -0.4745 -0.6923
  376MOL0     O49535  13.424   9.584   4.135  0.3593 -0.6356  0.5722
  376MOL0     C49536  13.512   9.480   4.075 -0.8348 -0.5243 -0.1984
  376MOL0     C49537  13.491   9.451   3.934 -0.4733 -1.3636 -0.6809
  376MOL0     C49538  13.507   9.559   3.825 -0.0755 -0.3037 -0.3073
  376MOL0     C49539  13.659   9.584   3.781  0.4232  0.2642 -0.0825
  376MOL0     C49540  13.770   9.569   3.888 -0.7598 -0.5961 -0.1465
  376MOL0     C49541  13.919   9.593   3.846  0.2527  0.1600  0.6444
  376MOL0     C49542  14.029   9.489   3.882  0.3891 -0.1198 -0.6034
  376MOL0     C49543  14.169   9.536   3.836 -0.1875 -0.6053  0.1963
  376MOL0    Cl49544  14.287   9.422   3.870  0.1646 -0.2267  0.0342
  376MOL0     C49545  13.187   9.576   4.117  0.2409  0.8632  1.0332
  376MOL0     C49546  13.073   9.509   4.159 -0.0624  0.2537 -0.0760
  376MOL0     O49547  12.901   9.212   4.131 -0.5989 -0.4277 -0.0660
  376MOL0     C49548  12.639   9.174   4.220 -0.8915  0.6597 -1.2273
  376MOL0     C49549  12.509   9.163   4.275 -0.0309  0.0629 -1.0290
  376MOL0     N49550  11.901   8.946   4.587 -0.3077  0.0009 -0.5094
  376MOL0     N49551  11.789   8.889   4.600 -0.6893  0.2834 -0.0540
  376MOL0     C49552  11.219   8.559   3.983 -1.3920  0.9848 -0.3479
  376MOL0     C49553  11.099   8.519   3.921  0.9150 -0.1505 -0.1339
  376MOL0     C49554  10.731   8.508   3.634  0.1935 -0.1572  0.8516
  376MOL0     C49555  10.610   8.575   3.616 -0.2163  0.0713  0.3985
  376MOL0     C49556  10.512   8.503   3.554  0.4201  0.5298  0.9456
  376MOL0     C49557  10.527   8.372   3.513  0.5903  0.0183 -0.5150
  376MOL0     O49558  10.414   8.313   3.456 -0.6792 -0.4994  1.0386
  376MOL0     C49559  10.404   8.171   3.430 -0.8650  0.2059  0.2972
  376MOL0     C49560  10.276   8.096   3.460 -0.6661 -1.2435  0.5090
  376MOL0     C49561  10.273   7.947   3.451  0.4667 -0.9663 -0.5393
  376MOL0     C49562  10.169   7.890   3.354 -0.7270  0.4132 -0.0934
  376MOL0     C49563  10.146   7.741   3.355 -1.1806  0.6336 -0.2035
  376MOL0     C49564  10.119   7.615   3.352  0.4406 -0.3970 -0.4346
  376MOL0     C49565  10.648   8.305   3.530 -0.4704 -0.6422 -0.2782
  376MOL0     C49566  10.753   8.375   3.588 -0.0551 -0.7051  0.5547
  376MOL0     H49567  11.133   8.642   3.611  1.0925 -0.8876 -0.3942
  376MOL0     H49568  11.344   8.748   3.738  4.1836 -0.9877  3.3893
  376MOL0     H49569  11.556   8.719   3.802  0.9713 -1.7794 -0.1163
  376MOL0     H49570  11.571   8.560   3.858  0.6198 -0.7708  1.2229
  376MOL0     H49571  11.646   8.823   3.969 -0.3571 -0.5424  0.0971
  376MOL0     H49572  11.743   8.685   3.908 -2.8370  1.4256 -4.9464
  376MOL0     H49573  11.640   8.552   4.120 -1.7202 -0.3262  0.6911
  376MOL0     H49574  11.592   8.721   4.174  3.4070  2.2711  1.6969
  376MOL0     H49575  11.863   8.586   4.158  0.7226  0.3992  0.3698
  376MOL0     H49576  11.840   8.765   4.147 -0.4429  0.6797  0.5892
  376MOL0     H49577  11.749   8.788   4.351 -2.0245  0.7432  0.4247
  376MOL0     H49578  11.895   8.693   4.360 -0.3902 -2.1210  0.6634
  376MOL0     H49579  11.732   8.476   4.341 -3.1292  1.4175 -3.5067
  376MOL0     H49580  11.606   8.588   4.392 -0.6462 -2.5947 -1.1185
  376MOL0     H49581  11.690   8.448   4.581  1.3543  0.6560  2.0761
  376MOL0     H49582  11.844   8.507   4.567  0.8240 -1.1141 -2.6975
  376MOL0     H49583  11.743   8.606   4.742 -2.8125  0.1804  0.8550
  376MOL0     H49584  11.625   8.689   4.626  0.3839  1.3983 -1.3728
  376MOL0     H49585  12.025   8.659   4.654  0.8534  0.4967  1.7561
  376MOL0     H49586  12.209   8.821   4.578  0.5271  0.4826 -0.7044
  376MOL0     H49587  12.195   8.897   4.734 -0.0655 -0.8782 -0.2235
  376MOL0     H49588  12.127   9.111   4.598  1.5387 -0.5211  1.6359
  376MOL0     H49589  12.219   9.029   4.465  2.8216  0.1457  0.8627
  376MOL0     H49590  12.329   9.066   4.735  2.6551 -1.6190 -0.2626
  376MOL0     H49591  12.422   9.027   4.597 -0.3846 -0.2353 -0.6634
  376MOL0     H49592  12.448   9.262   4.625  0.5776 -1.7884  0.8735
  376MOL0     H49593  12.264   9.277   4.628  1.0823  1.7850 -1.6890
  376MOL0     H49594  12.527   9.425   4.493  0.5994  1.3512 -2.2352
  376MOL0     H49595  12.756   9.425   4.411 -0.7434  0.9650  2.2887
  376MOL0     H49596  13.201   9.286   4.386 -0.9608  2.3780  1.0927
  376MOL0     H49597  13.406   9.379   4.298  0.1868  1.1932  1.3432
  376MOL0     H49598  13.501   9.386   4.130  4.7870 -0.3563  1.8053
  376MOL0     H49599  13.611   9.512   4.107 -1.5450 -0.7691  2.5182
  376MOL0     H49600  13.386   9.423   3.931 -1.2741  1.3430 -4.5339
  376MOL0     H49601  13.549   9.363   3.903  1.4646 -1.2673  2.1912
  376MOL0     H49602  13.456   9.647   3.864 -1.3846  0.2569 -3.0456
  376MOL0     H49603  13.438   9.547   3.741  0.4410  1.4135 -1.0162
  376MOL0     H49604  13.674   9.505   3.706  1.2022  0.0338  0.3110
  376MOL0     H49605  13.655   9.680   3.728 -3.5399 -0.1544 -0.8434
  376MOL0     H49606  13.760   9.462   3.907 -0.2869 -0.4575  0.9493
  376MOL0     H49607  13.745   9.628   3.977 -0.1015 -2.0822  1.0800
  376MOL0     H49608  13.949   9.694   3.878 -0.3682  0.7810 -0.6601
  376MOL0     H49609  13.915   9.594   3.737 -0.1441 -2.0961  0.6050
  376MOL0     H49610  14.039   9.464   3.988  1.5798 -0.1060 -0.6924
  376MOL0     H49611  14.007   9.397   3.827 -0.7996 -1.2266  1.6048
  376MOL0     H49612  14.201   9.629   3.885 -0.4572 -0.8972  0.9397
  376MOL0     H49613  14.176   9.554   3.728  4.5426  3.6187  0.8499
  376MOL0     H49614  13.184   9.654   4.042  0.0648 -2.2836 -2.5203
  376MOL0     H49615  12.983   9.545   4.110  1.0166 -0.3222 -2.6259
  376MOL0     H49616  12.657   9.106   4.137  0.8223  0.0936 -0.4412
  376MOL0     H49617  12.429   9.100   4.237 -1.1680 -0.2153  1.5680
  376MOL0     H49618  11.241   8.535   4.087  1.1478 -0.6809 -1.1540
  376MOL0     H49619  11.029   8.464   3.984  0.5041  0.1661 -0.3125
  376MOL0     H49620  10.576   8.669   3.659 -2.5549 -1.1431  1.3793
  376MOL0     H49621  10.416   8.547   3.531 -0.7338 -2.2383  0.1451
  376MOL0     H49622  10.478   8.127   3.497  3.0167  3.7222 -1.2002
  376MOL0     H49623  10.441   8.128   3.337  0.8020 -1.6457  1.7331
  376MOL0     H49624  10.240   8.132   3.557 -2.1926 -0.7944 -0.1950
  376MOL0     H49625  10.197   8.129   3.392  0.1017 -1.0671 -0.3172
  376MOL0     H49626  10.251   7.915   3.554 -0.9494  1.3847 -0.0308
  376MOL0     H49627  10.364   7.902   3.411 -0.2610 -1.6477 -1.4475
  376MOL0     H49628  10.077   7.945   3.377 -0.0683  0.6097  2.3440
  376MOL0     H49629  10.198   7.921   3.253 -2.8665  1.3843 -0.4610
  376MOL0     H49630  10.111   7.513   3.321  2.3482  0.1318 -2.9412
  376MOL0     H49631  10.668   8.206   3.491 -1.5062 -1.5115  1.2614
  376MOL0     H49632  10.840   8.318   3.618 -0.8913 -1.3788  1.7860
  377MOL0     O49633   7.483   4.326   7.699  0.7424  0.0287 -0.0619
  377MOL0     C49634   7.449   4.218   7.739  0.0383  0.4020 -0.3915
  377MOL0     O49635   7.323   4.163   7.721  0.7044  0.0392  0.2588
  377MOL0     C49636   7.235   4.229   7.640 -0.1284  0.3692  0.0713
  377MOL0     C49637   7.192   4.162   7.523 -0.2938  0.1454  0.2438
  377MOL0     C49638   7.083   4.219   7.453 -0.0136 -0.6714 -0.0337
  377MOL0     C49639   7.022   4.340   7.487 -0.3509  0.5208  0.4476
  377MOL0     O49640   6.919   4.381   7.402  0.6316  0.0719 -0.0997
  377MOL0     C49641   6.893   4.524   7.378 -0.5063  0.2004 -0.3768
  377MOL0     C49642   6.974   4.564   7.258  0.6005 -0.5534  0.2228
  377MOL0     C49643   6.954   4.484   7.127  0.3025 -0.9429 -0.6083
  377MOL0     C49644   7.036   4.540   7.006  0.1082 -0.3213 -0.1519
  377MOL0     C49645   6.977   4.533   6.868 -0.4541  0.7207 -0.5348
  377MOL0     C49646   7.053   4.615   6.775 -0.7276 -0.8944 -0.0880
  377MOL0     C49647   7.024   4.773   6.788 -1.3065  0.2844  0.1839
  377MOL0     C49648   7.075   4.845   6.646 -0.0794  0.5748 -0.7778
  377MOL0     N49649   7.225   4.849   6.630 -0.5410  0.1510  0.8571
  377MOL0     C49650   7.285   4.927   6.537 -0.5496 -0.0815  0.2639
  377MOL0     C49651   7.408   4.874   6.545 -0.5985 -0.6157  0.2654
  377MOL0     C49652   7.523   4.907   6.461 -0.0408  0.3657  0.3499
  377MOL0     C49653   7.597   5.025   6.509  1.2723  0.2109 -0.1006
  377MOL0     C49654   7.515   5.155   6.487 -0.3407 -0.3172  0.0274
  377MOL0     C49655   7.501   5.188   6.338 -0.6022 -1.0842  0.9422
  377MOL0     O49656   7.616   5.150   6.244  0.9693 -0.0917  0.6530
  377MOL0     C49657   7.724   5.227   6.254 -0.5755 -1.2206  0.7099
  377MOL0     C49658   7.824   5.173   6.172  1.0465 -0.3081 -0.0841
  377MOL0     C49659   7.945   5.237   6.161 -1.0539  0.0518  0.2819
  377MOL0     C49660   7.972   5.350   6.246  0.3408  0.5973 -0.4645
  377MOL0     C49661   8.109   5.418   6.241 -0.2249 -0.1074  0.0859
  377MOL0     O49662   8.139   5.519   6.320  0.8688  0.0324 -0.1382
  377MOL0     C49663   8.219   5.606   6.259  0.5955 -0.1491  0.2083
  377MOL0     C49664   8.352   5.605   6.267 -0.6549  0.1722 -0.9406
  377MOL0     C49665   8.427   5.698   6.203  0.0774  0.8644 -0.9165
  377MOL0     C49666   8.373   5.794   6.122  0.0568 -0.8439  0.2358
  377MOL0     O49667   8.465   5.880   6.055  0.0841  0.9711  0.2855
  377MOL0     C49668   8.585   5.916   6.127 -0.6071 -0.7835  0.9337
  377MOL0     C49669   8.642   6.040   6.052 -1.2306  0.1545 -0.1399
  377MOL0     C49670   8.637   6.036   5.892  0.3845  0.3093  0.1433
  377MOL0     C49671   8.668   6.181   5.839 -0.5767  0.2882 -0.6963
  377MOL0     C49672   8.654   6.185   5.684 -0.4109 -0.3290  0.2998
  377MOL0     C49673   8.734   6.077   5.610  0.1974 -0.4256 -0.2692
  377MOL0     C49674   8.738   6.117   5.466 -0.0306  0.1732 -0.0809
  377MOL0     C49675   8.822   6.015   5.376 -0.1103 -0.1904  0.2415
  377MOL0    Cl49676   8.751   6.020   5.207  0.2216 -0.6015  0.6038
  377MOL0     C49677   8.235   5.800   6.111 -0.1902  0.2238  0.9102
  377MOL0     C49678   8.158   5.707   6.178 -0.2201  0.3016 -0.1985
  377MOL0     O49679   8.185   5.371   6.154 -0.2736  1.7215  0.8491
  377MOL0     C49680   7.869   5.399   6.339 -0.4072 -0.3235  0.8855
  377MOL0     C49681   7.748   5.340   6.338 -0.6526 -0.2866  0.4838
  377MOL0     N49682   7.424   4.781   6.643  0.7029 -0.1428 -0.0446
  377MOL0     N49683   7.310   4.769   6.698  0.5590 -0.1105 -0.3862
  377MOL0     C49684   7.068   4.395   7.605 -0.0354 -0.7025  0.5916
  377MOL0     C49685   7.175   4.349   7.679  0.0526  0.3846 -0.0416
  377MOL0     C49686   7.543   4.140   7.818 -0.4743  1.5297 -0.4731
  377MOL0     C49687   7.656   4.204   7.876  0.3517 -0.1940 -0.4091
  377MOL0     C49688   7.743   4.131   7.955 -0.0771  0.3646  0.2818
  377MOL0     C49689   7.729   3.992   7.962 -0.1595 -0.2672 -0.2625
  377MOL0     O49690   7.805   3.918   8.044  0.1032  0.6926 -0.0142
  377MOL0     C49691   7.749   3.817   8.129 -0.4186 -0.0510  0.6313
  377MOL0     C49692   7.763   3.885   8.270  0.1047  0.3456  0.1031
  377MOL0     C49693   7.654   3.997   8.287  0.3207 -0.5964  0.4535
  377MOL0     C49694   7.635   4.051   8.430 -0.1787  0.4601 -0.8031
  377MOL0     C49695   7.548   4.167   8.439 -0.5092 -0.4682  0.9570
  377MOL0     C49696   7.479   4.266   8.441  0.7941  0.3183  0.1947
  377MOL0     C49697   7.638   3.928   7.875 -0.1129  0.0486  0.3132
  377MOL0     C49698   7.536   3.997   7.803 -0.3011 -0.0513  0.0022
  377MOL0     H49699   7.240   4.068   7.497  1.7320  1.1956 -0.0537
  377MOL0     H49700   7.035   4.167   7.371 -1.3205  0.4211  0.0174
  377MOL0     H49701   6.916   4.582   7.468 -3.4806  0.0736  0.5776
  377MOL0     H49702   6.787   4.545   7.360 -0.2846  3.9967  1.7703
  377MOL0     H49703   7.081   4.569   7.282  0.3960 -0.2059  1.1266
  377MOL0     H49704   6.956   4.668   7.232  1.7578  0.0345  1.6195
  377MOL0     H49705   6.849   4.471   7.101 -0.3529  1.4031  0.6230
  377MOL0     H49706   6.998   4.386   7.147 -0.9171 -2.2259 -3.5329
  377MOL0     H49707   7.038   4.647   7.030  0.6766 -0.4603  0.4301
  377MOL0     H49708   7.132   4.489   7.004  0.3304 -0.2522  3.1901
  377MOL0     H49709   6.873   4.565   6.863 -0.7595 -0.1493  0.0330
  377MOL0     H49710   6.975   4.430   6.832  0.8642 -0.1004  1.5619
  377MOL0     H49711   7.025   4.589   6.673  2.0206 -2.7939 -0.4625
  377MOL0     H49712   7.158   4.596   6.797 -0.7368  1.4633  2.6207
  377MOL0     H49713   6.922   4.808   6.808 -1.5794 -1.1166  1.4529
  377MOL0     H49714   7.084   4.817   6.868 -0.7954 -1.2682  0.7007
  377MOL0     H49715   7.046   4.947   6.672 -0.2716  0.6218 -1.1793
  377MOL0     H49716   7.023   4.797   6.563 -0.9855 -3.3480  1.7411
  377MOL0     H49717   7.246   5.009   6.477  1.6051  2.0851  1.6416
  377MOL0     H49718   7.480   4.917   6.361 -0.9144 -0.3292  0.6405
  377MOL0     H49719   7.600   4.829   6.468  1.5396  1.6858 -1.1991
  377MOL0     H49720   7.695   5.026   6.461  0.3295 -2.5774 -2.3076
  377MOL0     H49721   7.623   5.018   6.616  0.6119  3.1631  0.3396
  377MOL0     H49722   7.411   5.148   6.519 -0.5167  1.0927 -0.1902
  377MOL0     H49723   7.578   5.227   6.540  1.3248 -0.1814 -1.9861
  377MOL0     H49724   7.475   5.290   6.308  1.2792 -1.1807 -1.3325
  377MOL0     H49725   7.413   5.135   6.298 -0.5700  0.1781 -0.9116
  377MOL0     H49726   7.811   5.089   6.105  2.2771 -2.3493  2.0416
  377MOL0     H49727   8.018   5.211   6.085 -2.3225  1.9180 -1.6692
  377MOL0     H49728   8.414   5.532   6.317  1.3807  2.2959 -0.1912
  377MOL0     H49729   8.534   5.678   6.208 -0.1164  0.0775  1.7486
  377MOL0     H49730   8.658   5.834   6.130  0.2018 -0.0886  0.5158
  377MOL0     H49731   8.574   5.942   6.232 -1.1570  2.4721  0.1873
  377MOL0     H49732   8.744   6.047   6.092 -0.0411 -4.4875 -1.7323
  377MOL0     H49733   8.580   6.125   6.083 -2.0826  2.1190 -5.8808
  377MOL0     H49734   8.543   5.995   5.853 -0.2173  0.9648  0.8786
  377MOL0     H49735   8.716   5.971   5.855 -0.6483 -1.4204  0.8425
  377MOL0     H49736   8.604   6.262   5.875  0.8705  2.2191 -2.2608
  377MOL0     H49737   8.767   6.200   5.880 -1.3158 -1.4307  2.1644
  377MOL0     H49738   8.666   6.291   5.661 -1.6643  0.4968  3.0497
  377MOL0     H49739   8.555   6.171   5.639  1.0297 -3.0203 -2.4159
  377MOL0     H49740   8.679   5.984   5.623 -0.7070  0.1719  0.2645
  377MOL0     H49741   8.834   6.072   5.656 -0.0840 -0.4793  0.3440
  377MOL0     H49742   8.635   6.112   5.428 -1.0311 -0.2050  2.4874
  377MOL0     H49743   8.786   6.214   5.452  2.8305 -1.2742 -1.1579
  377MOL0     H49744   8.831   5.912   5.412  0.9969 -0.8036 -1.6945
  377MOL0     H49745   8.927   6.039   5.360  0.1987 -2.5874 -2.1151
  377MOL0     H49746   8.189   5.876   6.048 -3.3587 -1.5705  0.8597
  377MOL0     H49747   8.050   5.713   6.178 -0.3255 -1.2716 -0.6166
  377MOL0     H49748   7.888   5.485   6.402  1.1170 -0.3410  0.4877
  377MOL0     H49749   7.680   5.382   6.412 -1.3111 -1.6685  0.6900
  377MOL0     H49750   7.013   4.480   7.644  0.0411 -0.2765 -0.2319
  377MOL0     H49751   7.208   4.405   7.766 -0.4402 -1.6507  1.4973
  377MOL0     H49752   7.660   4.312   7.869 -3.0618  0.0645 -0.0781
  377MOL0     H49753   7.821   4.177   8.014 -0.7860 -2.7763  4.0455
  377MOL0     H49754   7.810   3.726   8.125  1.3920  0.9868  2.6057
  377MOL0     H49755   7.645   3.794   8.103  0.2846  0.1734 -2.8480
  377MOL0     H49756   7.751   3.810   8.348  1.2165  0.0121 -0.0361
  377MOL0     H49757   7.870   3.905   8.276  0.3667 -0.6291 -1.0602
  377MOL0     H49758   7.555   3.958   8.263  0.8533  0.2201 -3.9001
  377MOL0     H49759   7.675   4.082   8.222 -2.4909  0.5835  0.9509
  377MOL0     H49760   7.597   3.967   8.489  1.6376 -2.6840 -3.7503
  377MOL0     H49761   7.725   4.089   8.477 -0.4895 -1.1067  1.1735
  377MOL0     H49762   7.413   4.350   8.430 -0.8755 -1.1401 -1.8036
  377MOL0     H49763   7.667   3.824   7.875  0.4272  0.1883  1.1193
  377MOL0     H49764   7.467   3.943   7.738 -3.0399 -1.5936  3.8342
  378MOL0     O49765   3.581   6.245   3.143 -0.9253 -0.0924  0.4367
  378MOL0     C49766   3.556   6.361   3.108  1.2298  1.0417 -0.5217
  378MOL0     O49767   3.617   6.474   3.163  0.6798  0.1190  0.0014
  378MOL0     C49768   3.762   6.473   3.181 -0.8521 -0.2011  0.5983
  378MOL0     C49769   3.815   6.580   3.246  0.1605  0.0088  0.3970
  378MOL0     C49770   3.956   6.588   3.287 -0.1799 -0.7476  0.2536
  378MOL0     C49771   4.048   6.491   3.237  0.1968  0.1298 -0.5493
  378MOL0     O49772   4.183   6.495   3.256 -0.3558  0.2330  0.2405
  378MOL0     C49773   4.243   6.628   3.270 -0.0034  0.6227 -0.7095
  378MOL0     C49774   4.389   6.633   3.253 -0.7064 -0.6722 -0.2061
  378MOL0     C49775   4.471   6.566   3.363  1.1575 -0.4359  0.2814
  378MOL0     C49776   4.624   6.540   3.366  0.6086 -0.3207 -0.0474
  378MOL0     C49777   4.712   6.667   3.375  0.1195  0.6861 -0.0559
  378MOL0     C49778   4.863   6.660   3.334  0.3129  0.8820  0.1991
  378MOL0     C49779   4.945   6.767   3.416 -0.7786  0.3552 -0.1897
  378MOL0     C49780   5.093   6.795   3.382 -0.6880  0.4699  1.0074
  378MOL0     N49781   5.185   6.690   3.408 -0.5912  0.3970 -0.3736
  378MOL0     C49782   5.321   6.703   3.387 -0.6645  0.1738 -0.4326
  378MOL0     C49783   5.364   6.576   3.360  0.6472 -0.4833 -0.4820
  378MOL0     C49784   5.506   6.548   3.317  0.7422  0.3306 -0.2189
  378MOL0     C49785   5.518   6.593   3.169 -1.3085  0.7134 -0.4682
  378MOL0     C49786   5.668   6.570   3.141 -0.4176  0.6696 -0.8887
  378MOL0     C49787   5.699   6.428   3.087  0.1751  0.9314  0.9091
  378MOL0     O49788   5.704   6.330   3.200  0.2595  0.3001  0.6130
  378MOL0     C49789   5.726   6.197   3.187  0.0073  0.3614 -0.6996
  378MOL0     C49790   5.717   6.126   3.067  0.1479  0.2424  0.9805
  378MOL0     C49791   5.751   5.989   3.060 -0.1527  0.6416  1.0159
  378MOL0     C49792   5.768   5.919   3.178  1.2608 -0.2595 -0.4589
  378MOL0     C49793   5.781   5.768   3.185 -0.2989  0.1242  0.2388
  378MOL0     O49794   5.848   5.726   3.285 -0.2381 -0.8818 -0.2165
  378MOL0     C49795   5.877   5.597   3.287  0.6432  0.9375  0.4129
  378MOL0     C49796   6.011   5.567   3.309  0.1583 -0.5009  0.7722
  378MOL0     C49797   6.048   5.431   3.324  0.8013 -0.8208 -0.2988
  378MOL0     C49798   5.956   5.328   3.325 -0.1789  0.8963 -1.0463
  378MOL0     O49799   5.967   5.194   3.336  0.4762  0.2970  0.5004
  378MOL0     C49800   6.091   5.150   3.400  0.5134  0.9019 -0.6272
  378MOL0     C49801   6.086   4.990   3.391  0.2175 -0.1782 -1.7736
  378MOL0     C49802   6.191   4.914   3.451 -0.1384  0.0912 -0.3930
  378MOL0     C49803   6.146   4.774   3.481 -0.5831 -0.3093 -0.9956
  378MOL0     C49804   6.077   4.712   3.360  0.6414  0.1572 -0.1407
  378MOL0     C49805   6.049   4.552   3.371  0.4413 -0.4593 -0.2267
  378MOL0     C49806   5.923   4.528   3.292  0.6934 -0.2384  0.8352
  378MOL0     C49807   5.896   4.379   3.279 -0.0501  0.5728  0.7019
  378MOL0    Cl49808   5.881   4.280   3.423 -0.2931  0.3786  0.1663
  378MOL0     C49809   5.820   5.359   3.312  0.4625 -0.1163  0.6903
  378MOL0     C49810   5.781   5.495   3.289  0.3500 -0.0177 -0.5403
  378MOL0     O49811   5.746   5.706   3.088 -0.0388 -0.7071  0.8903
  378MOL0     C49812   5.772   5.989   3.302 -0.2767  0.0368  0.6782
  378MOL0     C49813   5.753   6.124   3.300  0.6738  0.5194 -0.8484
  378MOL0     N49814   5.263   6.484   3.379  0.2958 -0.5345  0.2804
  378MOL0     N49815   5.156   6.559   3.407  0.2744  0.0565  0.4639
  378MOL0     C49816   3.985   6.380   3.166  0.1218  0.5687  0.7984
  378MOL0     C49817   3.849   6.372   3.141  0.1259 -0.3252 -0.6563
  378MOL0     C49818   3.437   6.379   3.025  0.8332  0.4293 -0.5442
  378MOL0     C49819   3.351   6.275   2.983 -0.6785  0.7593  0.6339
  378MOL0     C49820   3.225   6.300   2.926  0.0489  0.1583 -0.0124
  378MOL0     C49821   3.197   6.430   2.868 -1.3543  0.4326 -0.2378
  378MOL0     O49822   3.079   6.458   2.805 -0.3544  0.4506  0.4812
  378MOL0     C49823   3.009   6.339   2.757 -0.1197  0.7071  0.2672
  378MOL0     C49824   2.917   6.388   2.649 -0.1420  0.0411 -0.7932
  378MOL0     C49825   2.801   6.307   2.613  0.2449  0.8694 -0.6644
  378MOL0     C49826   2.713   6.247   2.722  0.0480 -0.4756 -0.5565
  378MOL0     C49827   2.649   6.363   2.792  0.2896  0.4664 -0.0404
  378MOL0     C49828   2.585   6.452   2.841 -0.2267 -0.4472  0.1747
  378MOL0     C49829   3.290   6.534   2.893 -0.7190 -0.0934  0.6963
  378MOL0     C49830   3.394   6.506   2.988 -1.2516 -1.0553  0.5399
  378MOL0     H49831   3.747   6.651   3.291 -2.3324 -0.6978 -2.0070
  378MOL0     H49832   3.986   6.680   3.337 -2.6252 -0.6225  1.6482
  378MOL0     H49833   4.221   6.673   3.367 -1.5819  0.5710 -1.0107
  378MOL0     H49834   4.201   6.694   3.193  2.7193 -0.1715 -3.0411
  378MOL0     H49835   4.418   6.739   3.253 -3.2096  0.1181  1.8088
  378MOL0     H49836   4.428   6.587   3.162  0.6399 -1.0850  0.5549
  378MOL0     H49837   4.426   6.466   3.362  3.5911 -1.6548 -2.5096
  378MOL0     H49838   4.446   6.607   3.462  0.6271  0.9207 -0.3911
  378MOL0     H49839   4.644   6.477   3.453 -1.9604  1.3140  1.8701
  378MOL0     H49840   4.661   6.494   3.275  2.8356 -1.3831  1.3169
  378MOL0     H49841   4.711   6.702   3.479  4.1016 -2.1000  1.1471
  378MOL0     H49842   4.673   6.740   3.303  1.0982  0.3196 -0.9913
  378MOL0     H49843   4.861   6.671   3.225 -1.1709 -3.5075 -0.4363
  378MOL0     H49844   4.904   6.559   3.346  0.8278  1.1372  0.6457
  378MOL0     H49845   4.900   6.860   3.379 -1.2916 -0.1506 -0.8504
  378MOL0     H49846   4.931   6.740   3.521  0.7313 -3.2945 -0.7768
  378MOL0     H49847   5.118   6.877   3.450 -0.0191  0.7867  0.3861
  378MOL0     H49848   5.111   6.829   3.279 -1.8268  0.5303  0.8096
  378MOL0     H49849   5.386   6.790   3.393  3.7065 -2.8041  0.6649
  378MOL0     H49850   5.508   6.440   3.333 -2.6915  0.2910  0.7253
  378MOL0     H49851   5.575   6.590   3.391  1.6826 -0.7941 -0.4349
  378MOL0     H49852   5.500   6.701   3.169 -0.8693  1.0185  4.5604
  378MOL0     H49853   5.450   6.550   3.095  2.3883  0.1691 -3.9176
  378MOL0     H49854   5.686   6.644   3.063 -0.6841  4.5168  2.3119
  378MOL0     H49855   5.735   6.607   3.219 -0.4852  2.4218 -1.6139
  378MOL0     H49856   5.798   6.420   3.041  0.3342  0.5951  1.3031
  378MOL0     H49857   5.627   6.388   3.014 -0.7981  0.8089  1.9148
  378MOL0     H49858   5.689   6.181   2.978 -3.0744 -1.9641  0.4422
  378MOL0     H49859   5.736   5.933   2.968 -1.2272 -0.9146  2.0597
  378MOL0     H49860   6.076   5.654   3.301  0.4578 -0.8136 -0.3859
  378MOL0     H49861   6.152   5.400   3.333  0.4994 -2.5982 -2.1637
  378MOL0     H49862   6.088   5.185   3.503  0.2397 -0.4315 -0.1658
  378MOL0     H49863   6.172   5.188   3.337  0.8482 -0.0793 -0.7918
  378MOL0     H49864   6.090   4.972   3.283  0.7392  2.8319 -2.3258
  378MOL0     H49865   5.990   4.965   3.438 -0.3370  1.1116 -2.1794
  378MOL0     H49866   6.216   4.962   3.546  3.0497 -1.3298 -0.3936
  378MOL0     H49867   6.277   4.916   3.383 -1.2297  0.2491 -1.8091
  378MOL0     H49868   6.237   4.721   3.511 -2.7240 -2.7241  1.7586
  378MOL0     H49869   6.090   4.777   3.575  0.7449 -1.5614 -0.1224
  378MOL0     H49870   6.133   4.733   3.268 -1.5402  3.1289 -0.9587
  378MOL0     H49871   5.985   4.771   3.359  0.6360  0.1568  0.1784
  378MOL0     H49872   6.030   4.521   3.474 -0.6370 -1.7489 -0.7766
  378MOL0     H49873   6.131   4.485   3.343 -0.9097 -3.0944  1.6382
  378MOL0     H49874   5.838   4.570   3.346 -0.2828  0.3086 -1.0259
  378MOL0     H49875   5.919   4.571   3.191  1.7733 -1.8644  0.0459
  378MOL0     H49876   5.972   4.333   3.215 -0.4988  0.3311  0.3335
  378MOL0     H49877   5.803   4.382   3.221  1.1680 -0.1216 -1.3832
  378MOL0     H49878   5.750   5.277   3.318  1.0250 -1.1182 -3.7203
  378MOL0     H49879   5.674   5.511   3.279  0.2842  0.1645  0.3657
  378MOL0     H49880   5.799   5.937   3.393  1.2831 -1.4999 -0.5894
  378MOL0     H49881   5.746   6.179   3.393  1.8947 -1.6426  0.6000
  378MOL0     H49882   4.066   6.312   3.140  1.9575  2.2149  1.8909
  378MOL0     H49883   3.812   6.281   3.094 -0.3504 -0.5167  0.0667
  378MOL0     H49884   3.376   6.173   3.011 -0.6058  1.9171  5.6245
  378MOL0     H49885   3.164   6.210   2.918  1.0646 -0.8475  2.6309
  378MOL0     H49886   2.952   6.297   2.840  0.7278 -1.0704 -0.0025
  378MOL0     H49887   3.073   6.261   2.714 -0.6817 -0.2970  1.2298
  378MOL0     H49888   2.868   6.480   2.685  4.7390  2.7474 -0.0844
  378MOL0     H49889   2.975   6.430   2.566 -2.1194 -0.6710 -2.6238
  378MOL0     H49890   2.826   6.220   2.551 -1.1954  0.8980 -1.3418
  378MOL0     H49891   2.735   6.364   2.547 -0.4931 -0.1607 -0.8424
  378MOL0     H49892   2.636   6.184   2.675 -0.1845  0.0817 -0.9331
  378MOL0     H49893   2.772   6.185   2.790  0.4321  2.7736  2.3362
  378MOL0     H49894   2.527   6.530   2.886 -0.6276 -1.3049  1.1859
  378MOL0     H49895   3.267   6.634   2.858 -1.8749 -0.6654 -0.2843
  378MOL0     H49896   3.456   6.592   3.011 -4.0743  1.1623  0.3679
  379MOL0     O49897   5.196  10.789   3.386  0.5494 -0.4505 -0.3677
  379MOL0     C49898   5.070  10.786   3.355 -0.2203 -0.3664 -0.4465
  379MOL0     O49899   4.964  10.759   3.445 -0.8356  0.1145 -0.5181
  379MOL0     C49900   4.984  10.757   3.582  0.0528  1.1988 -0.6574
  379MOL0     C49901   4.916  10.644   3.640  0.7713 -1.2207 -0.3264
  379MOL0     C49902   4.937  10.615   3.778  0.4287  0.3961 -0.5052
  379MOL0     C49903   5.013  10.695   3.858 -0.3224  0.3955 -0.7736
  379MOL0     O49904   5.022  10.673   3.995  0.1739 -0.2395  0.0214
  379MOL0     C49905   5.096  10.560   4.030  0.0802  0.0103  0.6381
  379MOL0     C49906   5.072  10.535   4.174 -0.0417  0.4105  0.7984
  379MOL0     C49907   4.934  10.481   4.207  0.0507 -0.8790 -0.7763
  379MOL0     C49908   4.891  10.350   4.152 -0.7185 -0.4539  0.3380
  379MOL0     C49909   4.742  10.309   4.197 -0.8801 -0.4210  1.3051
  379MOL0     C49910   4.715  10.164   4.165 -0.2472 -0.9191 -0.4969
  379MOL0     C49911   4.583  10.107   4.228 -0.9016 -0.2308 -0.5291
  379MOL0     C49912   4.581   9.954   4.227 -0.7454 -0.2385  0.0836
  379MOL0     N49913   4.550   9.912   4.086  0.3567 -1.0477  0.4524
  379MOL0     C49914   4.639   9.889   3.986  0.1675 -0.9953 -0.6998
  379MOL0     C49915   4.589   9.864   3.864 -0.0332  0.6446  0.0067
  379MOL0     C49916   4.656   9.847   3.731  0.1654  0.8705  0.4832
  379MOL0     C49917   4.577   9.783   3.606 -0.5648  0.5171 -0.9487
  379MOL0     C49918   4.669   9.713   3.508 -0.5848  0.6492  0.0972
  379MOL0     C49919   4.583   9.666   3.397 -0.1822 -0.2438 -0.2967
  379MOL0     O49920   4.673   9.597   3.298  0.5609 -1.1448 -0.4948
  379MOL0     C49921   4.767   9.670   3.223  0.3466  0.0490 -0.5126
  379MOL0     C49922   4.870   9.608   3.152  0.1776 -0.4200 -0.0125
  379MOL0     C49923   4.950   9.688   3.073 -0.4842  0.3994 -0.2717
  379MOL0     C49924   4.937   9.824   3.046 -1.0447 -0.3339 -0.2186
  379MOL0     C49925   5.004   9.902   2.948 -0.4172 -1.4244 -1.2152
  379MOL0     O49926   4.954  10.021   2.919 -0.2009 -0.5317  0.9575
  379MOL0     C49927   5.038  10.111   2.842 -0.3450  1.1683  0.4725
  379MOL0     C49928   5.048  10.238   2.886 -0.0742 -0.4949 -1.0037
  379MOL0     C49929   5.107  10.342   2.814  1.4082 -0.1337 -0.4969
  379MOL0     C49930   5.151  10.313   2.691 -0.4134 -0.6645  0.4289
  379MOL0     O49931   5.207  10.414   2.621 -0.5653  0.0034 -0.3206
  379MOL0     C49932   5.189  10.427   2.477  0.0919  0.6019  1.0489
  379MOL0     C49933   5.042  10.412   2.429 -0.4385 -0.4540 -0.3940
  379MOL0     C49934   5.029  10.469   2.278 -0.8315  0.4493 -0.1068
  379MOL0     C49935   4.883  10.464   2.233  0.1674  0.0157  0.3106
  379MOL0     C49936   4.868  10.503   2.090 -0.1081 -0.5604  0.4817
  379MOL0     C49937   4.723  10.492   2.045 -0.5075  0.8946 -0.2257
  379MOL0     C49938   4.687  10.521   1.901  0.2173 -0.7456 -0.4381
  379MOL0     C49939   4.535  10.533   1.891 -0.1104  0.1464  0.5190
  379MOL0    Cl49940   4.503  10.544   1.714  0.5273 -0.3777  0.3364
  379MOL0     C49941   5.158  10.182   2.640  0.3276  0.4412 -0.1727
  379MOL0     C49942   5.107  10.085   2.723  0.2628  1.1366 -0.1444
  379MOL0     O49943   5.115   9.862   2.924  0.7772  0.0178 -0.1003
  379MOL0     C49944   4.833   9.888   3.119  1.0629  1.2559  0.1427
  379MOL0     C49945   4.750   9.810   3.210 -0.2053 -0.5262  0.6841
  379MOL0     N49946   4.452   9.855   3.895 -0.3390 -0.3051 -0.2939
  379MOL0     N49947   4.432   9.874   4.030 -0.4203 -0.3619  1.1312
  379MOL0     C49948   5.094  10.802   3.799  0.4769 -0.2438  0.0973
  379MOL0     C49949   5.073  10.833   3.662  0.3495 -0.0575 -0.2086
  379MOL0     C49950   5.038  10.786   3.210 -0.1255 -0.0213 -0.7192
  379MOL0     C49951   5.129  10.734   3.110  0.0202 -0.2957  0.0019
  379MOL0     C49952   5.102  10.725   2.971 -1.0277  0.3508 -0.6828
  379MOL0     C49953   4.975  10.756   2.921  0.1642  0.5274  0.2752
  379MOL0     O49954   4.959  10.733   2.789 -0.4566  1.0513  0.0253
  379MOL0     C49955   4.906  10.830   2.699 -0.8324  0.7588 -0.1187
  379MOL0     C49956   4.843  10.765   2.568 -0.1439 -0.3317 -0.5482
  379MOL0     C49957   4.756  10.645   2.624 -0.7404  0.2439  0.1675
  379MOL0     C49958   4.634  10.668   2.714  0.1346 -0.1918 -0.5727
  379MOL0     C49959   4.539  10.759   2.665  0.2893 -0.6090  0.2547
  379MOL0     C49960   4.467  10.839   2.644  0.8387 -0.4115 -0.5001
  379MOL0     C49961   4.873  10.807   3.012 -1.0630  1.0168 -0.4211
  379MOL0     C49962   4.910  10.825   3.149 -0.5396 -0.1499  0.0147
  379MOL0     H49963   4.844  10.598   3.573 -0.6067 -1.8133  1.4785
  379MOL0     H49964   4.879  10.531   3.815  1.8000 -0.6351 -0.6176
  379MOL0     H49965   5.201  10.589   4.015  0.1957  2.9021  5.2117
  379MOL0     H49966   5.076  10.471   3.970 -2.5640  1.7722 -1.3069
  379MOL0     H49967   5.090  10.625   4.235  2.4979 -0.6451  1.7142
  379MOL0     H49968   5.138  10.459   4.217 -2.6124  0.3809  5.4000
  379MOL0     H49969   4.868  10.554   4.160 -1.5682 -3.3725 -2.6981
  379MOL0     H49970   4.919  10.477   4.315  0.8673 -1.0169 -0.6637
  379MOL0     H49971   4.896  10.353   4.043  1.7286  2.6657  0.3700
  379MOL0     H49972   4.967  10.276   4.179 -0.1404 -0.4308 -1.1181
  379MOL0     H49973   4.669  10.371   4.144  1.2281  1.0873  0.0353
  379MOL0     H49974   4.725  10.324   4.304 -2.3112 -0.6873  1.1279
  379MOL0     H49975   4.801  10.106   4.198  0.2501 -0.3668 -0.8039
  379MOL0     H49976   4.702  10.151   4.057 -3.1689 -0.2611 -0.3024
  379MOL0     H49977   4.583  10.149   4.329  0.0729 -0.2443 -0.5130
  379MOL0     H49978   4.492  10.145   4.181  0.5626  0.7587 -2.7234
  379MOL0     H49979   4.506   9.926   4.302 -1.1997 -1.8089 -0.9054
  379MOL0     H49980   4.672   9.903   4.260 -0.8047 -0.1300  0.4202
  379MOL0     H49981   4.745   9.877   4.009  0.3827  0.8013 -0.6193
  379MOL0     H49982   4.750   9.796   3.752 -0.4269 -1.4484 -1.9415
  379MOL0     H49983   4.686   9.944   3.690 -1.9378  1.4935  0.2662
  379MOL0     H49984   4.535   9.867   3.549  1.3505  3.1335  1.2328
  379MOL0     H49985   4.517   9.701   3.646  1.7934 -0.6384  0.3442
  379MOL0     H49986   4.748   9.777   3.468 -1.5174  3.0552  1.8906
  379MOL0     H49987   4.710   9.623   3.555 -0.4420  0.9531  0.5542
  379MOL0     H49988   4.527   9.746   3.348 -0.7460 -0.2052  0.3838
  379MOL0     H49989   4.508   9.604   3.448 -1.0090  2.0791  1.4955
  379MOL0     H49990   4.878   9.500   3.150 -0.2274 -0.5905  3.2897
  379MOL0     H49991   5.018   9.625   3.017  1.2371 -0.0830  2.1942
  379MOL0     H49992   5.013  10.254   2.987  3.3306  0.9735  0.0827
  379MOL0     H49993   5.103  10.441   2.859  0.7186 -0.1381 -0.5305
  379MOL0     H49994   5.247  10.361   2.412 -0.1607  2.0259 -0.6949
  379MOL0     H49995   5.231  10.524   2.449 -0.5756 -0.2597 -3.8675
  379MOL0     H49996   4.978  10.468   2.499 -0.1823  1.2399 -1.4574
  379MOL0     H49997   5.008  10.309   2.438  0.9294 -0.9128 -0.2358
  379MOL0     H49998   5.105  10.417   2.219  2.2587  1.8272  2.3454
  379MOL0     H49999   5.071  10.570   2.274  3.7834 -1.0932  2.1891
  379MOL0     H50000   4.849  10.360   2.232  0.5757 -0.1204  0.3279
  379MOL0     H50001   4.819  10.522   2.300 -0.3201  3.0275 -2.5129
  379MOL0     H50002   4.934  10.456   2.016  0.8315  0.3823  0.6984
  379MOL0     H50003   4.910  10.604   2.097 -1.5789  0.1354 -0.1305
  379MOL0     H50004   4.673  10.566   2.108 -0.8380  1.0228 -0.6320
  379MOL0     H50005   4.680  10.396   2.076  2.3071  1.0503  5.2134
  379MOL0     H50006   4.723  10.621   1.876 -1.7439  0.3701  0.9110
  379MOL0     H50007   4.719  10.451   1.824 -2.8913 -2.6192 -0.1931
  379MOL0     H50008   4.503  10.625   1.940 -2.1307 -0.0022 -0.4026
  379MOL0     H50009   4.481  10.453   1.945 -1.5372  2.6444  3.0698
  379MOL0     H50010   5.227  10.151   2.562  2.5124  1.2804  1.3183
  379MOL0     H50011   5.095   9.986   2.681 -0.7079 -0.0361  2.6190
  379MOL0     H50012   4.807   9.993   3.109 -4.1754  0.1811 -0.3296
  379MOL0     H50013   4.674   9.869   3.261  1.6234  2.4864  0.1569
  379MOL0     H50014   5.167  10.851   3.862  0.1164 -2.4069  2.3440
  379MOL0     H50015   5.136  10.915   3.629  3.2211 -1.8123  0.6340
  379MOL0     H50016   5.223  10.689   3.140  0.0801 -0.2680 -0.1417
  379MOL0     H50017   5.174  10.679   2.904  1.5484  1.6030  1.0654
  379MOL0     H50018   4.979  10.906   2.671  1.2818 -0.6474  1.2310
  379MOL0     H50019   4.840  10.902   2.748 -1.9326 -0.8790  0.9278
  379MOL0     H50020   4.782  10.840   2.516  0.1595 -0.3767 -0.9749
  379MOL0     H50021   4.919  10.732   2.497 -1.6887 -0.8346 -2.0305
  379MOL0     H50022   4.833  10.584   2.672 -2.4715 -1.2862  1.0962
  379MOL0     H50023   4.707  10.595   2.540  0.8870 -2.6485  0.8024
  379MOL0     H50024   4.586  10.573   2.738 -1.3776  1.1576  2.1873
  379MOL0     H50025   4.672  10.709   2.808 -1.3310  2.8368 -1.1725
  379MOL0     H50026   4.409  10.925   2.618  0.4331 -0.2657  0.8241
  379MOL0     H50027   4.772  10.827   2.978 -1.3510  0.2853 -0.0166
  379MOL0     H50028   4.835  10.863   3.217  0.2098  2.2529 -0.4150
  380MOL0     O50029   6.633  10.747   8.574 -0.1432  0.9338  0.2414
  380MOL0     C50030   6.583  10.679   8.488  0.2677  0.8875  0.5176
  380MOL0     O50031   6.493  10.726   8.398 -0.0268  0.0155  0.0988
  380MOL0     C50032   6.453  10.851   8.424  0.6123  0.1381 -0.0043
  380MOL0     C50033   6.326  10.888   8.465 -0.3969 -0.2441  0.0580
  380MOL0     C50034   6.285  11.025   8.466  0.2769  0.2043  1.7383
  380MOL0     C50035   6.391  11.116   8.443 -0.4168  0.7203  0.7974
  380MOL0     O50036   6.344  11.242   8.470  0.0598 -0.0487 -0.4443
  380MOL0     C50037   6.442  11.348   8.509 -0.7154 -0.3233 -0.0921
  380MOL0     C50038   6.485  11.318   8.654 -0.1186 -0.4734 -0.4456
  380MOL0     C50039   6.644  11.347   8.665 -0.2198  0.3005  0.4743
  380MOL0     C50040   6.715  11.340   8.799 -0.5261  0.9737 -0.7033
  380MOL0     C50041   6.862  11.399   8.788 -0.7630 -0.8723 -0.6911
  380MOL0     C50042   6.950  11.319   8.699 -0.6969 -0.1788 -1.0097
  380MOL0     C50043   7.087  11.394   8.694  0.2197 -0.2142 -0.3310
  380MOL0     C50044   7.178  11.312   8.598 -0.7964 -0.5982 -0.0915
  380MOL0     N50045   7.322  11.357   8.594 -0.5973  0.6847 -0.2559
  380MOL0     C50046   7.356  11.485   8.635 -0.3804  0.2347 -0.4215
  380MOL0     C50047   7.483  11.473   8.673 -0.6112 -0.1489  0.3112
  380MOL0     C50048   7.559  11.598   8.713 -0.4090 -0.1029  0.3241
  380MOL0     C50049   7.599  11.586   8.860 -1.5595 -0.3108  1.3290
  380MOL0     C50050   7.661  11.712   8.920 -0.2999  0.0965  0.1185
  380MOL0     C50051   7.773  11.782   8.844 -0.1371  0.4895  0.3196
  380MOL0     O50052   7.865  11.680   8.806  0.3356 -0.0545 -0.1552
  380MOL0     C50053   7.982  11.727   8.739 -0.2301  0.7492  1.1707
  380MOL0     C50054   8.044  11.856   8.751 -1.1088 -0.5161  0.3564
  380MOL0     C50055   8.164  11.885   8.696  0.1897 -0.4866 -0.2211
  380MOL0     C50056   8.234  11.784   8.633 -1.2919  1.0907 -0.7187
  380MOL0     C50057   8.369  11.814   8.578  0.0866 -0.2541  0.1518
  380MOL0     O50058   8.386  11.939   8.538 -0.3469  0.7724 -0.7762
  380MOL0     C50059   8.497  12.006   8.481 -0.2810  1.0817  0.4389
  380MOL0     C50060   8.512  12.143   8.503  0.0496 -0.8044  0.0211
  380MOL0     C50061   8.618  12.214   8.448 -1.1722 -0.4588  0.1522
  380MOL0     C50062   8.725  12.147   8.384  0.0344 -0.0582 -0.3595
  380MOL0     O50063   8.814  12.228   8.325  0.0146 -0.1903  0.4829
  380MOL0     C50064   8.933  12.156   8.289 -1.0885  0.8082  0.1547
  380MOL0     C50065   9.027  12.260   8.227  1.1732  0.1740 -0.2450
  380MOL0     C50066   8.971  12.279   8.088  0.3569  0.0705 -0.9408
  380MOL0     C50067   9.037  12.402   8.036 -0.2267 -0.1239 -0.3781
  380MOL0     C50068   9.010  12.403   7.884 -0.9283 -0.7295  0.8551
  380MOL0     C50069   9.032  12.543   7.815  0.1335  0.8335 -0.3348
  380MOL0     C50070   9.174  12.600   7.844 -0.4084  0.2556  0.0802
  380MOL0     C50071   9.196  12.744   7.798 -1.0603 -0.3301 -0.3822
  380MOL0    Cl50072   9.377  12.787   7.793  0.2806  0.3094  0.2393
  380MOL0     C50073   8.708  12.001   8.375  1.1920 -0.2842 -0.2079
  380MOL0     C50074   8.594  11.936   8.413 -0.1786 -0.3979 -0.4410
  380MOL0     O50075   8.435  11.720   8.544 -0.3176 -0.2171  0.1878
  380MOL0     C50076   8.189  11.649   8.619 -0.0296 -0.4775 -0.5986
  380MOL0     C50077   8.058  11.631   8.676 -0.2666  0.6207 -0.6205
  380MOL0     N50078   7.535  11.350   8.657 -0.2896  0.2559 -0.1943
  380MOL0     N50079   7.430  11.280   8.620  0.4313 -0.4297 -0.2836
  380MOL0     C50080   6.524  11.080   8.404  0.0879  0.5366 -0.2560
  380MOL0     C50081   6.546  10.948   8.382  0.0123 -0.0408 -0.6462
  380MOL0     C50082   6.622  10.527   8.479 -0.4252  0.1474  0.2279
  380MOL0     C50083   6.719  10.471   8.556 -0.7301 -0.4055  1.3062
  380MOL0     C50084   6.739  10.339   8.585 -0.8439 -0.9158  0.3919
  380MOL0     C50085   6.665  10.249   8.507  0.9513 -0.3605 -0.4064
  380MOL0     O50086   6.690  10.112   8.530 -0.2418  0.1505 -0.1730
  380MOL0     C50087   6.619  10.012   8.462 -0.9301 -0.3858  0.3312
  380MOL0     C50088   6.705   9.879   8.464 -0.1238  0.6885  0.9631
  380MOL0     C50089   6.648   9.775   8.368  0.3032 -0.1077  0.2489
  380MOL0     C50090   6.530   9.699   8.418  0.2553 -0.5726 -0.5212
  380MOL0     C50091   6.408   9.780   8.409  1.5005  1.1294 -0.1814
  380MOL0     C50092   6.299   9.825   8.439 -0.0368 -0.1673 -0.0044
  380MOL0     C50093   6.565  10.301   8.420  0.6703 -0.2086 -0.8451
  380MOL0     C50094   6.537  10.441   8.409  0.4154 -0.4155 -0.4263
  380MOL0     H50095   6.257  10.812   8.500 -0.6667 -0.4183 -0.8399
  380MOL0     H50096   6.186  11.050   8.501 -1.2265 -2.6116 -0.1203
  380MOL0     H50097   6.405  11.450   8.496 -0.1209 -0.2293 -1.2012
  380MOL0     H50098   6.528  11.347   8.442 -0.6608  2.8140 -0.2035
  380MOL0     H50099   6.466  11.217   8.690 -0.9441 -0.1585  0.0219
  380MOL0     H50100   6.436  11.388   8.723  1.7447  0.0748  0.4201
  380MOL0     H50101   6.665  11.452   8.642 -1.5058  0.2186 -1.2879
  380MOL0     H50102   6.686  11.282   8.588 -2.7895  1.6621 -2.3247
  380MOL0     H50103   6.670  11.392   8.884  0.3775 -0.6868  0.8690
  380MOL0     H50104   6.716  11.236   8.832 -0.8682 -0.0278 -3.5490
  380MOL0     H50105   6.911  11.410   8.885  1.0765 -0.2302 -1.6512
  380MOL0     H50106   6.848  11.506   8.771 -1.3769  0.1498  4.4888
  380MOL0     H50107   6.892  11.316   8.606  1.7409 -1.4672 -2.5950
  380MOL0     H50108   6.958  11.220   8.744  0.2269  0.6899  0.8338
  380MOL0     H50109   7.067  11.499   8.669 -1.8368 -0.2316  1.0008
  380MOL0     H50110   7.139  11.383   8.790  0.0344  1.7977  0.0488
  380MOL0     H50111   7.138  11.311   8.496  0.7849  0.0514 -0.7431
  380MOL0     H50112   7.173  11.214   8.647 -1.2452  0.2590  1.6379
  380MOL0     H50113   7.306  11.582   8.630  3.9783  2.7750  0.1371
  380MOL0     H50114   7.490  11.682   8.707 -1.2839 -0.6952  1.5817
  380MOL0     H50115   7.643  11.600   8.644 -0.1706 -3.3240  0.3761
  380MOL0     H50116   7.675  11.508   8.868  1.0178  1.9422  0.6673
  380MOL0     H50117   7.509  11.562   8.917 -1.1443 -0.8567  1.7660
  380MOL0     H50118   7.583  11.788   8.916  0.3436  0.8889 -5.4544
  380MOL0     H50119   7.681  11.694   9.026  0.8927  1.3003  0.1138
  380MOL0     H50120   7.819  11.861   8.905  0.1642 -0.0753  0.8462
  380MOL0     H50121   7.733  11.839   8.761 -1.2541 -0.8457 -0.0962
  380MOL0     H50122   8.002  11.944   8.798 -0.8594 -1.6697  2.8923
  380MOL0     H50123   8.197  11.987   8.712 -2.9452  1.0529 -2.6295
  380MOL0     H50124   8.440  12.194   8.567  2.2037  1.0414  1.1283
  380MOL0     H50125   8.642  12.320   8.455 -2.0285 -0.3440  1.7711
  380MOL0     H50126   8.913  12.076   8.217  0.0306  0.0368  0.6650
  380MOL0     H50127   8.979  12.121   8.382  0.1192  3.1714  0.5149
  380MOL0     H50128   9.133  12.231   8.218  0.9966  0.0857 -3.8881
  380MOL0     H50129   9.013  12.352   8.284 -1.7406  0.2136 -0.8862
  380MOL0     H50130   8.863  12.295   8.084 -0.0775 -2.6127 -4.4132
  380MOL0     H50131   9.003  12.200   8.019 -1.5250 -1.5748 -0.0409
  380MOL0     H50132   8.998  12.492   8.083  1.9292  0.0028  1.3640
  380MOL0     H50133   9.145  12.395   8.052 -0.2385  0.3675 -0.0550
  380MOL0     H50134   8.904  12.379   7.874 -0.5423 -2.2318  0.1745
  380MOL0     H50135   9.072  12.335   7.826  2.7591  2.9499 -0.0258
  380MOL0     H50136   8.967  12.620   7.859 -2.7231 -1.1076 -0.8620
  380MOL0     H50137   9.013  12.531   7.708  3.7845 -1.1590 -0.9341
  380MOL0     H50138   9.210  12.595   7.947 -1.1934  1.6654  0.4425
  380MOL0     H50139   9.234  12.531   7.784 -0.1645 -1.6145  2.2958
  380MOL0     H50140   9.136  12.807   7.864 -0.7079  0.9501 -1.2438
  380MOL0     H50141   9.162  12.765   7.696  2.3293  1.2423 -1.3251
  380MOL0     H50142   8.788  11.944   8.329 -0.4751 -0.8507 -2.6431
  380MOL0     H50143   8.570  11.835   8.381  2.4372 -1.2000 -0.1516
  380MOL0     H50144   8.253  11.569   8.583  3.1046  0.6150  2.0789
  380MOL0     H50145   8.030  11.527   8.667 -0.7539  0.3325  2.9204
  380MOL0     H50146   6.597  11.160   8.398 -1.2986  1.8121 -0.8153
  380MOL0     H50147   6.644  10.912   8.355  0.9623  0.7068  1.6123
  380MOL0     H50148   6.778  10.522   8.632  0.0780 -1.5301  1.4745
  380MOL0     H50149   6.808  10.299   8.659  0.1064  0.3707  0.2472
  380MOL0     H50150   6.596  10.040   8.358 -1.1411 -0.1931  0.4299
  380MOL0     H50151   6.528   9.998   8.520  0.3885 -0.6060  2.4647
  380MOL0     H50152   6.809   9.888   8.433 -0.4317 -1.9565 -1.2268
  380MOL0     H50153   6.705   9.853   8.571 -0.2311  3.0856  1.6077
  380MOL0     H50154   6.733   9.708   8.353  1.4085  1.4707 -0.9902
  380MOL0     H50155   6.621   9.816   8.270  2.2983 -0.6848 -0.6079
  380MOL0     H50156   6.539   9.610   8.356 -0.1879 -0.6542 -0.4687
  380MOL0     H50157   6.557   9.660   8.516  3.9815 -3.9300 -2.5802
  380MOL0     H50158   6.205   9.849   8.482 -0.9146 -0.1602 -1.8378
  380MOL0     H50159   6.488  10.240   8.374  0.8574 -0.1288 -1.2725
  380MOL0     H50160   6.466  10.490   8.343 -0.5832  0.0174  0.9162
  381MOL0     O50161   3.263   7.255   1.088  0.3772 -0.7777 -0.0829
  381MOL0     C50162   3.229   7.147   1.127  0.2140  1.2940 -0.5896
  381MOL0     O50163   3.314   7.048   1.170  0.4923  0.3203 -0.8864
  381MOL0     C50164   3.447   7.071   1.177 -1.0538  0.5776 -0.3379
  381MOL0     C50165   3.503   7.172   1.257 -0.1629  0.3113 -0.7872
  381MOL0     C50166   3.643   7.189   1.255  0.1518  0.4978 -1.3093
  381MOL0     C50167   3.734   7.111   1.189 -0.1851 -0.2479  0.8662
  381MOL0     O50168   3.868   7.146   1.189  0.5867  0.4933 -0.6943
  381MOL0     C50169   3.915   7.178   1.068  0.1863 -0.3219  0.2703
  381MOL0     C50170   3.852   7.309   1.014 -0.7193  0.3793  0.1725
  381MOL0     C50171   3.945   7.384   0.919  0.1552 -0.9360  0.2450
  381MOL0     C50172   4.000   7.301   0.796 -0.2506 -0.7829 -0.0787
  381MOL0     C50173   4.066   7.383   0.690  1.1314  0.0147 -0.1552
  381MOL0     C50174   4.186   7.458   0.754 -1.5635  0.9542  0.2097
  381MOL0     C50175   4.297   7.489   0.653  0.0045  0.1880  0.5578
  381MOL0     C50176   4.249   7.559   0.533  0.6143 -0.3400  0.0244
  381MOL0     N50177   4.333   7.671   0.489 -0.1946 -0.3214 -0.3532
  381MOL0     C50178   4.396   7.679   0.368  0.1232 -0.0111  0.4012
  381MOL0     C50179   4.481   7.775   0.372 -0.9297  0.1902 -0.4863
  381MOL0     C50180   4.574   7.816   0.253 -0.2087 -0.2658  0.1861
  381MOL0     C50181   4.711   7.872   0.296  0.2165 -0.4407 -0.7728
  381MOL0     C50182   4.806   7.873   0.164  1.3449  1.4868 -0.5806
  381MOL0     C50183   4.942   7.925   0.178  0.5012 -0.0462 -0.1340
  381MOL0     O50184   4.929   8.061   0.229  0.1234  0.1437 -0.8062
  381MOL0     C50185   4.992   8.098   0.348  0.9251  0.0541 -0.0704
  381MOL0     C50186   4.992   8.022   0.469 -0.4320  0.0702  0.2595
  381MOL0     C50187   5.029   8.079   0.590  0.2322  0.4498  1.3938
  381MOL0     C50188   5.053   8.221   0.593  0.7535  1.0519  0.6670
  381MOL0     C50189   5.071   8.289   0.727 -0.1362 -0.5783  0.9967
  381MOL0     O50190   5.096   8.218   0.842 -0.9382 -0.4861  0.1907
  381MOL0     C50191   5.102   8.278   0.961  0.0422 -0.5902 -0.2814
  381MOL0     C50192   4.980   8.316   1.024 -0.0846 -0.0391  0.3682
  381MOL0     C50193   4.986   8.391   1.137 -1.2173  0.9372  0.4731
  381MOL0     C50194   5.107   8.411   1.210  0.5068 -0.1538  0.9351
  381MOL0     O50195   5.121   8.459   1.336 -0.0570  0.2170 -0.1070
  381MOL0     C50196   5.021   8.552   1.392  0.1530 -0.2750  0.3782
  381MOL0     C50197   5.068   8.617   1.514  0.3695  0.2217 -0.5443
  381MOL0     C50198   4.985   8.719   1.575 -0.0439 -0.6672  0.0781
  381MOL0     C50199   5.056   8.815   1.675  0.3860  0.0012  0.2602
  381MOL0     C50200   4.961   8.931   1.703  0.2816 -0.5483  0.1528
  381MOL0     C50201   5.009   9.023   1.825  0.1713  0.3037  0.2562
  381MOL0     C50202   5.023   8.942   1.961 -0.1470  0.7859  1.0191
  381MOL0     C50203   4.889   8.877   2.003 -1.1475 -0.3908  0.0304
  381MOL0    Cl50204   4.924   8.807   2.151 -0.4170  0.2344 -0.3061
  381MOL0     C50205   5.226   8.360   1.157 -0.3202 -0.5790  0.1513
  381MOL0     C50206   5.228   8.307   1.025 -0.0313  0.4602  0.1425
  381MOL0     O50207   5.057   8.416   0.720 -0.5489  0.2206  0.2840
  381MOL0     C50208   5.039   8.294   0.471 -0.4800  0.1006 -0.3561
  381MOL0     C50209   5.022   8.232   0.358 -0.2203 -1.4016  0.2978
  381MOL0     N50210   4.475   7.829   0.497 -0.8398 -0.0276  0.1078
  381MOL0     N50211   4.380   7.769   0.566  0.2953  0.6164  0.0623
  381MOL0     C50212   3.684   7.008   1.116  1.2796 -0.4053 -0.6426
  381MOL0     C50213   3.540   6.997   1.103  0.0765 -0.0901  0.0559
  381MOL0     C50214   3.088   7.118   1.156  0.1101 -0.9740 -0.2022
  381MOL0     C50215   3.045   6.985   1.157  0.1385  0.6791  0.0237
  381MOL0     C50216   2.920   6.958   1.195  0.2096  0.0510 -0.4994
  381MOL0     C50217   2.832   7.055   1.237  0.1785 -0.4556 -0.7848
  381MOL0     O50218   2.700   7.015   1.248 -0.1066  0.4012  0.3126
  381MOL0     C50219   2.590   7.106   1.223 -0.1574  0.0318  0.2414
  381MOL0     C50220   2.448   7.062   1.262  0.2806 -0.3409  0.3472
  381MOL0     C50221   2.332   7.143   1.192 -1.0509  0.7975  0.5577
  381MOL0     C50222   2.196   7.075   1.205 -1.5792 -0.9219  1.4076
  381MOL0     C50223   2.134   7.088   1.341 -0.0339  0.0184 -0.7206
  381MOL0     C50224   2.092   7.100   1.453 -0.2378  0.4705 -0.2935
  381MOL0     C50225   2.870   7.193   1.238  1.1183 -0.0323  0.2671
  381MOL0     C50226   2.998   7.223   1.191 -0.7841  0.1854  0.1259
  381MOL0     H50227   3.440   7.236   1.318  1.2990  0.6315  0.4733
  381MOL0     H50228   3.675   7.268   1.322  0.7746 -2.7939  2.6307
  381MOL0     H50229   3.911   7.091   1.002 -0.1810 -2.4580  2.9578
  381MOL0     H50230   4.022   7.200   1.069  0.1580 -0.0044 -1.2267
  381MOL0     H50231   3.812   7.372   1.095 -0.5427  1.3904 -0.5136
  381MOL0     H50232   3.766   7.285   0.950  0.5437  3.6530 -3.1156
  381MOL0     H50233   4.035   7.417   0.970 -1.1388  1.4229  1.1732
  381MOL0     H50234   3.895   7.478   0.894 -0.8408 -1.2654  0.9447
  381MOL0     H50235   4.073   7.223   0.816  1.8259  0.2944 -2.7619
  381MOL0     H50236   3.918   7.249   0.745 -2.6621  2.2999  0.3784
  381MOL0     H50237   3.990   7.453   0.654  0.1522 -1.9215 -2.1159
  381MOL0     H50238   4.087   7.308   0.614 -0.4289  1.2742 -1.9075
  381MOL0     H50239   4.231   7.387   0.825 -2.9955 -1.1559 -0.8836
  381MOL0     H50240   4.143   7.549   0.798 -0.8777  1.9748 -1.1654
  381MOL0     H50241   4.368   7.557   0.701 -0.9758  1.6350 -0.0028
  381MOL0     H50242   4.349   7.395   0.632 -1.3917 -0.6873  0.9130
  381MOL0     H50243   4.143   7.581   0.548  0.1230  0.0541 -3.2128
  381MOL0     H50244   4.258   7.484   0.453  3.9456  3.2213 -3.3834
  381MOL0     H50245   4.396   7.614   0.280 -1.6393 -2.2136  1.8960
  381MOL0     H50246   4.512   7.894   0.207  0.5032  0.1309 -0.1042
  381MOL0     H50247   4.590   7.732   0.184  3.0683  0.5663 -0.2031
  381MOL0     H50248   4.758   7.799   0.363  2.8772  0.5582 -1.4012
  381MOL0     H50249   4.714   7.972   0.340 -2.6748  0.3519 -2.1760
  381MOL0     H50250   4.815   7.768   0.136  2.9285  1.8097 -1.3977
  381MOL0     H50251   4.748   7.919   0.084 -0.4790 -0.8934 -0.7305
  381MOL0     H50252   4.994   7.927   0.082  1.6408  0.1694  0.4585
  381MOL0     H50253   5.003   7.867   0.248  0.8695 -0.0010 -0.4132
  381MOL0     H50254   4.963   7.918   0.467 -0.2236 -0.0104  1.1278
  381MOL0     H50255   5.038   8.016   0.677 -1.6430 -2.1061 -0.1305
  381MOL0     H50256   4.890   8.294   0.968  0.8890  0.7341 -1.6294
  381MOL0     H50257   4.886   8.419   1.169 -0.9014 -0.3533  2.8878
  381MOL0     H50258   4.931   8.496   1.418 -2.4290  1.8478 -3.0923
  381MOL0     H50259   4.986   8.630   1.323 -0.8192 -2.6542 -1.9846
  381MOL0     H50260   5.161   8.674   1.505  0.4727  0.5411  1.7455
  381MOL0     H50261   5.093   8.534   1.581 -0.2710 -0.5387 -1.2268
  381MOL0     H50262   4.908   8.656   1.617  1.3435 -3.0551 -0.7688
  381MOL0     H50263   4.956   8.784   1.492 -0.2508  0.0341  0.6912
  381MOL0     H50264   5.078   8.762   1.768  2.2750  1.8851  0.9822
  381MOL0     H50265   5.150   8.852   1.633  0.7305  2.3019  2.7630
  381MOL0     H50266   4.858   8.906   1.728 -0.4804 -1.1378 -3.0480
  381MOL0     H50267   4.964   8.993   1.613  0.6217  1.0656  1.2512
  381MOL0     H50268   4.935   9.098   1.854 -0.4532 -0.3053  0.2617
  381MOL0     H50269   5.102   9.071   1.795 -0.8324  0.5689 -2.7648
  381MOL0     H50270   5.100   8.865   1.954 -0.7580  0.3204 -1.0755
  381MOL0     H50271   5.059   9.024   2.025  0.5246 -0.2887  2.0583
  381MOL0     H50272   4.868   8.792   1.938  0.9770 -1.0384  0.1169
  381MOL0     H50273   4.812   8.954   1.993  1.8216  2.5872 -2.2581
  381MOL0     H50274   5.318   8.373   1.213  0.1021 -2.8617  0.0900
  381MOL0     H50275   5.311   8.275   0.963 -0.5832 -0.9208  0.0801
  381MOL0     H50276   5.055   8.402   0.466 -1.5644  0.3448  0.8939
  381MOL0     H50277   5.033   8.289   0.266  3.1873 -0.6560  1.0526
  381MOL0     H50278   3.738   6.940   1.050 -0.1358 -2.1000 -0.1320
  381MOL0     H50279   3.493   6.924   1.038  1.1899  1.2907 -2.4517
  381MOL0     H50280   3.128   6.916   1.142  0.4342  1.3206 -1.5556
  381MOL0     H50281   2.889   6.854   1.206  0.9374 -0.2349 -1.0854
  381MOL0     H50282   2.599   7.136   1.119  0.8204 -0.8194  0.0597
  381MOL0     H50283   2.602   7.196   1.285 -0.8832  1.2892 -1.3915
  381MOL0     H50284   2.427   6.955   1.248 -1.0002 -0.1509  0.6951
  381MOL0     H50285   2.436   7.073   1.370  1.1356 -0.7344  0.4840
  381MOL0     H50286   2.351   7.155   1.085 -1.4691  0.1417  0.4071
  381MOL0     H50287   2.330   7.241   1.240  1.4107  0.9082  0.5489
  381MOL0     H50288   2.129   7.121   1.131  2.5369 -1.3259 -3.1259
  381MOL0     H50289   2.188   6.974   1.163 -1.2293 -0.3940  0.0211
  381MOL0     H50290   2.041   7.095   1.547  0.6535 -0.3121  0.1659
  381MOL0     H50291   2.799   7.270   1.266 -1.4766 -0.7507 -3.6141
  381MOL0     H50292   3.029   7.327   1.185  1.3581 -0.1721  3.0630
  382MOL0     O50293   1.860   7.764  11.189  0.6805  0.0372 -0.3371
  382MOL0     C50294   1.916   7.681  11.264 -0.4368 -0.9934  0.6704
  382MOL0     O50295   1.905   7.548  11.263 -0.0891 -0.1847  0.6906
  382MOL0     C50296   1.816   7.485  11.175  0.4194 -0.5718 -0.2286
  382MOL0     C50297   1.699   7.543  11.117  0.5860  0.5925  0.3825
  382MOL0     C50298   1.610   7.467  11.037 -0.3349  0.0999  0.3913
  382MOL0     C50299   1.634   7.333  11.011 -0.8448  0.0250 -0.5764
  382MOL0     O50300   1.542   7.261  10.934 -0.9477 -0.5975 -0.1851
  382MOL0     C50301   1.611   7.219  10.814  0.6528 -0.2720 -0.1131
  382MOL0     C50302   1.530   7.271  10.690 -0.1321  0.5212  0.1897
  382MOL0     C50303   1.573   7.212  10.554  0.6174  1.5254  0.6788
  382MOL0     C50304   1.528   7.290  10.437  0.1230 -0.6681  0.7297
  382MOL0     C50305   1.604   7.248  10.307 -0.5584  0.6244  0.6739
  382MOL0     C50306   1.754   7.297  10.303  0.0651  0.9991 -0.4223
  382MOL0     C50307   1.786   7.443  10.297  0.6102  0.0511  0.2885
  382MOL0     C50308   1.908   7.467  10.230  0.2699 -0.1613  0.0037
  382MOL0     N50309   1.949   7.611  10.216  0.2331 -0.2032 -0.5521
  382MOL0     C50310   1.869   7.705  10.151  0.3682 -0.4399  0.4254
  382MOL0     C50311   1.922   7.822  10.188  0.4871 -0.1804 -0.5223
  382MOL0     C50312   1.889   7.967  10.143 -0.1702  0.0204  0.3823
  382MOL0     C50313   1.962   8.013  10.011 -0.1972 -0.1976 -0.1361
  382MOL0     C50314   1.931   7.921   9.891 -0.2038  0.4242  0.1349
  382MOL0     C50315   1.787   7.933   9.848 -0.8784  0.9572  0.9750
  382MOL0     O50316   1.690   7.847   9.912  0.2068  0.3532  0.8328
  382MOL0     C50317   1.563   7.855   9.868  0.1782  0.6438  0.1217
  382MOL0     C50318   1.520   7.918   9.751  1.3665 -0.0946  0.4506
  382MOL0     C50319   1.381   7.920   9.708  0.0724 -0.4919 -0.2403
  382MOL0     C50320   1.288   7.860   9.803  0.4653  0.9543  0.0624
  382MOL0     C50321   1.137   7.849   9.765 -0.2338  0.1464 -0.0020
  382MOL0     O50322   1.111   7.832   9.635  0.2962 -0.2080 -0.0404
  382MOL0     C50323   0.986   7.869   9.595  0.8482  1.1056 -0.4254
  382MOL0     C50324   0.970   7.998   9.548  0.1389 -0.9062  0.0585
  382MOL0     C50325   0.844   8.045   9.522  0.2244  0.2660 -0.3374
  382MOL0     C50326   0.736   7.969   9.548 -0.4068 -1.1551 -0.2426
  382MOL0     O50327   0.615   8.033   9.542  0.0014 -0.5949 -0.2621
  382MOL0     C50328   0.507   7.994   9.625 -0.2666 -0.4071 -0.2130
  382MOL0     C50329   0.455   8.125   9.697  0.4437 -0.0487  0.8539
  382MOL0     C50330   0.450   8.118   9.855 -0.4849 -0.1812  0.5656
  382MOL0     C50331   0.324   8.053   9.910 -0.2858  0.5273 -0.1162
  382MOL0     C50332   0.341   8.041  10.065 -0.0075 -0.8567 -1.3412
  382MOL0     C50333   0.361   8.177  10.139  0.6095  0.1658 -0.5476
  382MOL0     C50334   0.354   8.170  10.300 -0.0718 -0.1687  0.6556
  382MOL0     C50335   0.454   8.081  10.373  0.1667  0.6766 -0.5885
  382MOL0    Cl50336   0.609   8.168  10.401  0.0138 -0.4325 -0.0885
  382MOL0     C50337   0.745   7.833   9.587 -0.3141  0.1560  0.0192
  382MOL0     C50338   0.877   7.779   9.600 -0.1721 -0.2902  0.2209
  382MOL0     O50339   1.057   7.873   9.859 -0.0267 -0.6450 -0.0924
  382MOL0     C50340   1.327   7.800   9.927 -0.9768  0.1064  0.5605
  382MOL0     C50341   1.467   7.802   9.958  0.6137  0.0733  0.0649
  382MOL0     N50342   2.017   7.790  10.285 -0.2582 -0.6978 -0.1114
  382MOL0     N50343   2.037   7.668  10.294  0.0320 -0.2377  1.2105
  382MOL0     C50344   1.750   7.280  11.067 -1.5089 -0.0655  0.8453
  382MOL0     C50345   1.842   7.354  11.140  0.3863 -0.5007 -0.5689
  382MOL0     C50346   2.000   7.736  11.371  1.2253  0.0033  0.5195
  382MOL0     C50347   2.040   7.668  11.483  1.0891 -0.6744 -0.0113
  382MOL0     C50348   2.130   7.711  11.584 -0.0397 -0.1824 -0.6568
  382MOL0     C50349   2.171   7.845  11.562 -0.7409  0.2983 -0.0186
  382MOL0     O50350   2.250   7.903  11.660 -0.1495  0.7928  0.3209
  382MOL0     C50351   2.179   7.929  11.784  1.3373 -0.6570 -0.2503
  382MOL0     C50352   2.047   8.006  11.755 -0.1576 -0.6525 -0.0988
  382MOL0     C50353   1.981   8.026  11.892 -0.0979  0.1063  0.2641
  382MOL0     C50354   1.865   8.134  11.900 -0.4966  1.1444 -0.1416
  382MOL0     C50355   1.807   8.126  12.027  0.2972  0.1491 -0.5746
  382MOL0     C50356   1.747   8.126  12.138 -0.3064 -0.1711 -0.5060
  382MOL0     C50357   2.128   7.924  11.458 -0.5506  0.0923  0.1781
  382MOL0     C50358   2.052   7.863  11.349  0.3283  0.3021  0.0119
  382MOL0     H50359   1.671   7.646  11.131  1.0243  0.6259  1.0684
  382MOL0     H50360   1.520   7.488  10.980  0.3428 -1.7087 -1.4846
  382MOL0     H50361   1.617   7.110  10.827  3.1411 -0.1728 -0.0500
  382MOL0     H50362   1.710   7.266  10.809  0.6308  0.8195  4.8547
  382MOL0     H50363   1.521   7.380  10.687 -3.2903  0.3759  0.8698
  382MOL0     H50364   1.428   7.236  10.708  0.1143 -0.9705 -1.0527
  382MOL0     H50365   1.530   7.113  10.534  1.2001  1.5147 -0.6132
  382MOL0     H50366   1.681   7.198  10.565  0.4439  2.0184  4.2580
  382MOL0     H50367   1.421   7.274  10.420 -0.2722  2.3054 -0.1179
  382MOL0     H50368   1.543   7.396  10.459  0.3745 -0.6911  0.6784
  382MOL0     H50369   1.553   7.287  10.218 -1.9593 -3.5639 -0.6079
  382MOL0     H50370   1.597   7.139  10.297 -0.8618  0.5664  1.4309
  382MOL0     H50371   1.797   7.255  10.211  0.8580 -1.2664  0.8977
  382MOL0     H50372   1.800   7.244  10.387  0.4905 -1.0066 -1.8298
  382MOL0     H50373   1.716   7.497  10.234  2.0660  0.9161 -0.6544
  382MOL0     H50374   1.780   7.479  10.400 -0.1189  0.7143  0.0277
  382MOL0     H50375   1.902   7.437  10.125  3.4805 -0.9052 -0.0952
  382MOL0     H50376   1.982   7.400  10.273 -0.6049 -0.8607  0.4300
  382MOL0     H50377   1.784   7.698  10.084  0.4566  0.7534  0.1625
  382MOL0     H50378   1.911   8.030  10.230 -1.9019 -0.3982  1.1478
  382MOL0     H50379   1.782   7.963  10.125  0.0712 -2.5070 -0.9529
  382MOL0     H50380   2.070   8.009  10.028 -0.1975 -0.1050 -0.1104
  382MOL0     H50381   1.923   8.113   9.991 -2.1350 -0.6396  1.2825
  382MOL0     H50382   2.008   7.931   9.814  1.5985 -3.2236  1.2642
  382MOL0     H50383   1.955   7.819   9.921  0.4641  0.9080  1.3494
  382MOL0     H50384   1.784   7.925   9.739 -1.2463  1.1916  0.9638
  382MOL0     H50385   1.757   8.037   9.858 -2.9303  0.7078 -1.4588
  382MOL0     H50386   1.589   7.963   9.680  1.4951 -1.3274 -0.2272
  382MOL0     H50387   1.355   7.962   9.612 -0.4947 -1.8925 -0.7267
  382MOL0     H50388   1.055   8.064   9.539 -0.4700  0.2258  2.0468
  382MOL0     H50389   0.832   8.148   9.489  5.4839  2.0014  1.9525
  382MOL0     H50390   0.533   7.921   9.703  4.2264  0.1489 -0.9550
  382MOL0     H50391   0.432   7.945   9.562 -2.8431 -0.3680  2.5736
  382MOL0     H50392   0.359   8.160   9.659  1.1992  2.4287  1.0423
  382MOL0     H50393   0.510   8.217   9.677 -1.6566  1.7392  2.7678
  382MOL0     H50394   0.447   8.224   9.881  4.7186  0.6185 -0.9246
  382MOL0     H50395   0.533   8.060   9.897 -0.8517 -0.7460  0.5190
  382MOL0     H50396   0.241   8.121   9.890 -2.7395 -2.1848  0.1066
  382MOL0     H50397   0.316   7.953   9.866  2.3577 -0.0685  0.5469
  382MOL0     H50398   0.429   7.979  10.083 -1.1389 -1.9093  1.0595
  382MOL0     H50399   0.253   7.987  10.100 -1.2531 -0.8935 -4.2479
  382MOL0     H50400   0.284   8.243  10.098 -3.8566 -2.6516  2.3193
  382MOL0     H50401   0.461   8.215  10.119 -0.1476  2.2653 -0.6874
  382MOL0     H50402   0.361   8.271  10.340  1.6078  0.2930 -0.6982
  382MOL0     H50403   0.252   8.145  10.331 -0.1391  0.9511  1.3623
  382MOL0     H50404   0.467   7.984  10.324 -2.2163 -0.0037 -0.0196
  382MOL0     H50405   0.413   8.062  10.472  2.3429  1.9327  0.6424
  382MOL0     H50406   0.655   7.774   9.596  0.2135 -1.0737 -1.9934
  382MOL0     H50407   0.891   7.672   9.617 -0.5377 -0.1716  1.3318
  382MOL0     H50408   1.256   7.772  10.004  0.3236  1.8107  2.4690
  382MOL0     H50409   1.499   7.769  10.056  1.2641 -0.3336 -0.2737
  382MOL0     H50410   1.768   7.174  11.078  0.5702  0.3294  1.6692
  382MOL0     H50411   1.929   7.306  11.182 -0.0049 -1.2075 -0.5597
  382MOL0     H50412   1.995   7.570  11.493  0.6114 -0.6135 -1.4232
  382MOL0     H50413   2.141   7.650  11.673 -1.7116 -0.1694 -0.3987
  382MOL0     H50414   2.242   7.985  11.853 -0.0357 -0.5294  0.9388
  382MOL0     H50415   2.152   7.838  11.837  3.2491 -1.5365 -0.6818
  382MOL0     H50416   2.058   8.101  11.702  3.3008 -0.8929 -0.0046
  382MOL0     H50417   1.973   7.947  11.700  0.4806  1.0049 -2.9471
  382MOL0     H50418   2.042   8.033  11.982 -0.0124 -0.7305  0.2772
  382MOL0     H50419   1.934   7.929  11.912  2.2494 -1.1309  0.1301
  382MOL0     H50420   1.905   8.233  11.875  2.2383 -0.5653 -3.3169
  382MOL0     H50421   1.784   8.114  11.829 -0.1096 -0.4195 -0.1726
  382MOL0     H50422   1.703   8.143  12.234 -0.2856  2.0040 -0.8323
  382MOL0     H50423   2.154   8.030  11.456 -3.9493  1.0489 -2.0967
  382MOL0     H50424   2.034   7.924  11.261 -1.2619 -2.7438 -1.9743
  383MOL0     O50425   5.158   4.449  10.250 -0.1728 -0.1971  0.6034
  383MOL0     C50426   5.227   4.373  10.181  0.4129  0.1207  0.3591
  383MOL0     O50427   5.259   4.393  10.052 -0.9939  0.6111 -0.9320
  383MOL0     C50428   5.219   4.506   9.989 -0.5487 -0.2780 -0.0841
  383MOL0     C50429   5.315   4.585   9.932  0.4346  0.3236 -0.2202
  383MOL0     C50430   5.279   4.702   9.858  0.0442  0.0032  1.5075
  383MOL0     C50431   5.142   4.727   9.839  0.7473 -0.8938 -0.4289
  383MOL0     O50432   5.094   4.836   9.773  0.0350  0.1088  0.8510
  383MOL0     C50433   5.107   4.964   9.834 -0.7453 -0.2881  0.5340
  383MOL0     C50434   5.018   5.062   9.750 -0.1193 -0.3814 -0.0681
  383MOL0     C50435   5.052   5.211   9.778  0.2589  0.2022  0.0298
  383MOL0     C50436   4.968   5.267   9.896  0.0734 -0.9861 -0.5555
  383MOL0     C50437   4.960   5.197  10.026 -0.8118  0.0902  1.2881
  383MOL0     C50438   4.848   5.262  10.117 -0.9006  0.5661  0.0490
  383MOL0     C50439   4.874   5.419  10.152 -0.1784 -0.3662 -0.5705
  383MOL0     C50440   4.742   5.501  10.125 -0.1385 -0.1429  0.7144
  383MOL0     N50441   4.757   5.644  10.127 -1.2265  0.6136 -0.8204
  383MOL0     C50442   4.668   5.726  10.180 -0.8537  0.1353 -0.3244
  383MOL0     C50443   4.723   5.853  10.170  0.4251  0.0616 -0.5515
  383MOL0     C50444   4.677   5.982  10.215 -0.3814 -0.3958  0.0529
  383MOL0     C50445   4.593   6.068  10.108  0.5995 -0.9440  0.7754
  383MOL0     C50446   4.447   6.037  10.088  1.3454  0.0688  0.2425
  383MOL0     C50447   4.400   6.116   9.963  0.0649  0.5415  1.0257
  383MOL0     O50448   4.261   6.094   9.953  0.5351  0.1372 -0.1253
  383MOL0     C50449   4.178   6.166   9.875  0.4397 -0.3914 -0.3106
  383MOL0     C50450   4.225   6.278   9.821  0.2412 -0.0543 -0.5262
  383MOL0     C50451   4.142   6.357   9.742  1.4384 -0.4274  1.5037
  383MOL0     C50452   4.010   6.325   9.711  1.0176  0.0661 -0.2465
  383MOL0     C50453   3.921   6.403   9.628 -0.2500  0.0820  1.0953
  383MOL0     O50454   3.982   6.491   9.543 -0.4407  0.3913 -0.0201
  383MOL0     C50455   3.899   6.586   9.484  0.3633 -1.4037 -0.4584
  383MOL0     C50456   3.872   6.557   9.348 -0.5022 -0.4115 -0.1524
  383MOL0     C50457   3.765   6.619   9.292 -0.9162  0.1611  0.2006
  383MOL0     C50458   3.695   6.718   9.362  0.3177  0.2628 -0.7961
  383MOL0     O50459   3.598   6.791   9.298  0.0267 -0.6916  0.3815
  383MOL0     C50460   3.503   6.705   9.234  0.9085 -0.2118  0.5316
  383MOL0     C50461   3.368   6.787   9.233 -0.1777 -1.0163 -0.1134
  383MOL0     C50462   3.276   6.738   9.121 -0.4455  0.6718  0.3916
  383MOL0     C50463   3.249   6.591   9.100  0.0668  0.2498 -1.0224
  383MOL0     C50464   3.160   6.546   9.216  0.0275 -0.0742  0.6936
  383MOL0     C50465   3.081   6.425   9.178 -0.8473 -0.3049 -0.1463
  383MOL0     C50466   2.979   6.387   9.293 -0.5970 -0.2393  0.1188
  383MOL0     C50467   2.898   6.262   9.273  0.9564  0.2983 -0.1603
  383MOL0    Cl50468   3.017   6.134   9.219 -0.0484  0.0142 -0.4323
  383MOL0     C50469   3.721   6.746   9.500  0.1482 -0.5429  0.5221
  383MOL0     C50470   3.816   6.678   9.556  0.1385  0.3218 -0.1756
  383MOL0     O50471   3.796   6.399   9.649 -0.0578  0.0768  0.0106
  383MOL0     C50472   3.965   6.204   9.770  0.9382 -0.1967  0.9651
  383MOL0     C50473   4.045   6.128   9.847 -0.1141 -0.3924 -0.0362
  383MOL0     N50474   4.831   5.840  10.075  0.0184  0.1781  0.1895
  383MOL0     N50475   4.847   5.717  10.049  0.3494 -0.1244  0.1290
  383MOL0     C50476   5.043   4.643   9.895  1.0851 -0.1427 -0.5805
  383MOL0     C50477   5.083   4.528   9.961 -0.2956  0.2588 -0.5420
  383MOL0     C50478   5.248   4.242  10.244 -0.3419 -0.1600 -0.1506
  383MOL0     C50479   5.292   4.133  10.165 -0.1655 -0.2369  0.3243
  383MOL0     C50480   5.297   4.005  10.211 -0.0495 -0.5454  0.4020
  383MOL0     C50481   5.276   3.981  10.344 -1.0538  0.1095  0.9125
  383MOL0     O50482   5.284   3.857  10.411  0.2165 -0.5991 -0.1400
  383MOL0     C50483   5.326   3.732  10.353  0.7130  0.0820  0.2862
  383MOL0     C50484   5.268   3.620  10.438  0.4022  1.3385 -1.2628
  383MOL0     C50485   5.330   3.480  10.420 -0.8054 -0.9064 -0.6452
  383MOL0     C50486   5.262   3.378  10.512  0.7361 -1.0210  0.6420
  383MOL0     C50487   5.366   3.278  10.535 -0.6398 -0.2498  0.2788
  383MOL0     C50488   5.463   3.210  10.546  0.4415  0.4816 -1.0299
  383MOL0     C50489   5.240   4.086  10.430  0.2729  0.2049 -0.3048
  383MOL0     C50490   5.221   4.218  10.382 -0.4118  0.8463  1.0986
  383MOL0     H50491   5.420   4.568   9.957  0.8433  3.2356  0.4036
  383MOL0     H50492   5.353   4.778   9.835 -1.2283  1.1990  1.2956
  383MOL0     H50493   5.212   4.994   9.820 -0.0856 -2.4909  0.4367
  383MOL0     H50494   5.080   4.966   9.941  0.9148  3.7604  1.0800
  383MOL0     H50495   4.912   5.036   9.760  0.0367 -0.9641  0.1068
  383MOL0     H50496   5.049   5.048   9.646  2.0919  2.3715  0.0982
  383MOL0     H50497   5.052   5.279   9.693  2.4572  0.8073  0.4322
  383MOL0     H50498   5.154   5.207   9.818  0.1215 -0.5262  0.3146
  383MOL0     H50499   5.017   5.362   9.921  1.9612 -2.1787  0.5365
  383MOL0     H50500   4.866   5.287   9.863 -0.0178 -1.2683 -0.4514
  383MOL0     H50501   5.055   5.210  10.079  1.2187  0.1948 -2.0783
  383MOL0     H50502   4.944   5.091  10.005 -0.0316  0.5987 -2.7248
  383MOL0     H50503   4.856   5.208  10.212  0.2110 -0.7466 -0.7358
  383MOL0     H50504   4.750   5.234  10.077 -1.6761  1.9658  0.8990
  383MOL0     H50505   4.878   5.420  10.262 -0.6328 -0.2734 -0.5508
  383MOL0     H50506   4.962   5.457  10.099 -0.3287  1.3849  0.3337
  383MOL0     H50507   4.666   5.475  10.199 -0.0421 -3.1569 -0.0937
  383MOL0     H50508   4.690   5.475  10.033 -2.1228 -0.4891  1.8678
  383MOL0     H50509   4.576   5.700  10.232 -1.6922  2.2345 -0.6693
  383MOL0     H50510   4.762   6.046  10.239 -0.6803  0.1562 -0.3329
  383MOL0     H50511   4.609   5.968  10.299 -4.1078 -2.1651 -2.9433
  383MOL0     H50512   4.639   6.052  10.010 -0.5337 -1.5827  0.3243
  383MOL0     H50513   4.580   6.175  10.127  0.2968 -0.8590  0.1248
  383MOL0     H50514   4.436   5.930  10.072  2.2934  0.0577 -0.4358
  383MOL0     H50515   4.404   6.064  10.185  1.0096 -0.7171  0.3206
  383MOL0     H50516   4.448   6.064   9.879  1.9108 -1.0062  2.9328
  383MOL0     H50517   4.433   6.221   9.965  1.0620  0.4284 -2.2821
  383MOL0     H50518   4.327   6.314   9.828 -0.8939  3.1290  2.4471
  383MOL0     H50519   4.192   6.448   9.710 -0.6137  0.5648  0.9857
  383MOL0     H50520   3.919   6.482   9.285 -1.0575 -1.2912  0.4570
  383MOL0     H50521   3.750   6.598   9.187  0.9104 -0.8616  0.1201
  383MOL0     H50522   3.493   6.603   9.273  2.7920 -0.8611 -0.5290
  383MOL0     H50523   3.527   6.683   9.130 -0.2390  0.1502  0.1752
  383MOL0     H50524   3.400   6.891   9.224 -0.2138 -1.1415 -2.2854
  383MOL0     H50525   3.318   6.766   9.328  1.1296 -1.2741  0.5494
  383MOL0     H50526   3.309   6.789   9.030 -1.7347  0.2761 -0.3191
  383MOL0     H50527   3.176   6.777   9.140 -0.7652 -0.4678  1.1389
  383MOL0     H50528   3.218   6.566   8.999  1.8794 -0.1922 -1.5084
  383MOL0     H50529   3.343   6.536   9.111 -1.1966 -1.8379 -0.0683
  383MOL0     H50530   3.094   6.628   9.247  1.5392  0.3297  3.0835
  383MOL0     H50531   3.211   6.531   9.311 -0.9245 -4.0851  0.7465
  383MOL0     H50532   3.147   6.346   9.143  0.5886  1.6515 -2.0949
  383MOL0     H50533   3.018   6.459   9.095 -0.7748  1.6274  0.5517
  383MOL0     H50534   3.043   6.377   9.381 -1.5821  0.5170  0.9351
  383MOL0     H50535   2.909   6.469   9.311  0.8983  1.2379 -0.5160
  383MOL0     H50536   2.811   6.275   9.207 -0.7121  3.2230  2.3653
  383MOL0     H50537   2.860   6.238   9.373  0.4079 -1.5356 -0.7584
  383MOL0     H50538   3.677   6.818   9.568  0.9627  1.1817 -0.7206
  383MOL0     H50539   3.829   6.697   9.663  2.5615  3.4574 -0.8724
  383MOL0     H50540   3.862   6.174   9.751  1.9120 -3.9155  0.9117
  383MOL0     H50541   4.015   6.036   9.897 -1.0410  0.7183  1.5380
  383MOL0     H50542   4.941   4.669   9.866  0.6281  0.3648  1.3144
  383MOL0     H50543   5.008   4.461  10.002  2.0744 -1.6655  0.9049
  383MOL0     H50544   5.307   4.154  10.060  0.4856  1.1238  0.6650
  383MOL0     H50545   5.316   3.918  10.149 -0.4066  2.1885 -4.0532
  383MOL0     H50546   5.435   3.723  10.349  0.6792 -1.7483  2.1137
  383MOL0     H50547   5.303   3.715  10.247  1.1111 -2.0237  0.4975
  383MOL0     H50548   5.283   3.654  10.541 -0.3875 -0.9505 -0.3214
  383MOL0     H50549   5.161   3.601  10.427  1.1181 -2.7454 -2.9118
  383MOL0     H50550   5.435   3.509  10.430 -1.3826  1.0297  0.1481
  383MOL0     H50551   5.319   3.437  10.320 -0.1883 -3.0923  0.1661
  383MOL0     H50552   5.228   3.422  10.606  2.0770  3.5258 -0.7353
  383MOL0     H50553   5.179   3.332  10.456  1.3418  0.7531 -1.9068
  383MOL0     H50554   5.536   3.132  10.555 -0.0654  0.1503  0.8198
  383MOL0     H50555   5.226   4.075  10.537 -3.8612  2.2977 -0.4315
  383MOL0     H50556   5.186   4.307  10.433 -1.3575  0.6321  0.8416
  384MOL0     O50557   4.199   0.087  11.090  0.2403  0.5812  0.2604
  384MOL0     C50558   4.282   0.121  11.178 -0.2243 -0.8884  0.0327
  384MOL0     O50559   4.327   0.248  11.183 -0.1343 -0.3340  0.0119
  384MOL0     C50560   4.254   0.344  11.114  0.2916 -1.5880 -0.3917
  384MOL0     C50561   4.127   0.382  11.162 -0.0561 -0.8384  0.4531
  384MOL0     C50562   4.067   0.502  11.105 -0.8317 -0.1400  0.8601
  384MOL0     C50563   4.133   0.568  10.996  0.1041  0.1096  0.5757
  384MOL0     O50564   4.074   0.686  10.955  1.0769 -0.2397  0.0799
  384MOL0     C50565   4.160   0.778  10.883 -0.1476  0.2446  0.5011
  384MOL0     C50566   4.107   0.922  10.888 -0.3765  0.2017  0.7470
  384MOL0     C50567   3.988   0.943  10.800  0.3635 -0.2683 -0.4977
  384MOL0     C50568   3.942   1.086  10.802  0.2511 -1.1692 -0.0327
  384MOL0     C50569   3.806   1.113  10.718 -0.5954 -0.5107  0.2540
  384MOL0     C50570   3.680   1.074  10.794  0.1547  1.9265 -0.0128
  384MOL0     C50571   3.647   1.166  10.912 -0.0257 -0.1130  0.2676
  384MOL0     C50572   3.519   1.120  10.989  0.2386  0.1349  0.5401
  384MOL0     N50573   3.403   1.164  10.913 -0.3939 -0.2615  0.7364
  384MOL0     C50574   3.386   1.272  10.824 -0.5909 -0.3602 -0.0384
  384MOL0     C50575   3.260   1.273  10.796  0.1840 -0.2542  0.7247
  384MOL0     C50576   3.210   1.381  10.690  0.4463 -0.7363 -0.0495
  384MOL0     C50577   3.096   1.324  10.607  0.0365  0.0875 -0.9802
  384MOL0     C50578   3.128   1.278  10.473  0.3889  0.5048  0.4764
  384MOL0     C50579   3.240   1.174  10.448 -0.6895  0.5638 -0.4741
  384MOL0     O50580   3.364   1.243  10.416  0.0730  0.2635 -1.0203
  384MOL0     C50581   3.481   1.176  10.428  0.4764  0.0775  0.5306
  384MOL0     C50582   3.486   1.035  10.445 -0.5288 -0.4182  0.9781
  384MOL0     C50583   3.603   0.963  10.435  0.7164  0.3146  0.5622
  384MOL0     C50584   3.718   1.026  10.391  0.1943  1.0190  0.4830
  384MOL0     C50585   3.846   0.949  10.375  0.4674 -0.4440 -0.0677
  384MOL0     O50586   3.836   0.814  10.386  0.1527 -0.2330 -0.3496
  384MOL0     C50587   3.949   0.734  10.405 -0.2094  1.3454 -0.2477
  384MOL0     C50588   3.926   0.597  10.382  1.0175 -0.2285  0.9958
  384MOL0     C50589   4.031   0.507  10.396  0.2424  0.4477  0.5699
  384MOL0     C50590   4.159   0.544  10.438 -0.5051 -0.1615 -0.1782
  384MOL0     O50591   4.265   0.463  10.458  0.3628  0.5015 -0.1493
  384MOL0     C50592   4.261   0.319  10.447 -0.6581 -0.3007  0.5039
  384MOL0     C50593   4.305   0.299  10.302  0.5222  0.7432 -0.4359
  384MOL0     C50594   4.284   0.150  10.254  1.0108  0.3793 -0.1442
  384MOL0     C50595   4.310   0.149  10.107  0.0593  0.0840  0.0393
  384MOL0     C50596   4.302   0.006  10.040 -0.8780  1.1575  0.4630
  384MOL0     C50597   4.377  -0.110  10.117  1.2913  0.0204 -0.5641
  384MOL0     C50598   4.368  -0.245  10.060  0.3338 -0.1307 -0.8414
  384MOL0     C50599   4.230  -0.309  10.057 -0.5824  0.8888  0.4330
  384MOL0    Cl50600   4.244  -0.462   9.979 -0.2639  0.1552 -0.0849
  384MOL0     C50601   4.183   0.683  10.443  0.1263  0.2441 -0.0933
  384MOL0     C50602   4.078   0.774  10.439 -0.6364  0.0946  0.1665
  384MOL0     O50603   3.946   1.015  10.353 -0.3975 -0.8819  0.4998
  384MOL0     C50604   3.719   1.168  10.388 -1.0922 -0.2026 -0.1318
  384MOL0     C50605   3.607   1.240  10.404  0.2476  0.1525 -0.6137
  384MOL0     N50606   3.197   1.159  10.850 -0.5046  0.0391  0.1059
  384MOL0     N50607   3.286   1.096  10.919 -0.1637 -0.6472 -0.4211
  384MOL0     C50608   4.250   0.510  10.937  1.0437 -0.3217 -0.2178
  384MOL0     C50609   4.312   0.402  11.001 -0.4223  0.7669  0.5229
  384MOL0     C50610   4.339   0.024  11.275 -0.5557  0.4073  0.6205
  384MOL0     C50611   4.391   0.049  11.406 -0.8395 -0.7590 -0.9757
  384MOL0     C50612   4.429  -0.059  11.489 -0.1770 -0.5571  0.3900
  384MOL0     C50613   4.407  -0.188  11.449 -0.9272  0.3204  0.2496
  384MOL0     O50614   4.439  -0.308  11.508 -0.6668  0.7091  0.6921
  384MOL0     C50615   4.484  -0.305  11.640 -0.8530  0.2292  0.4212
  384MOL0     C50616   4.555  -0.442  11.643 -0.2781 -0.6680  0.2160
  384MOL0     C50617   4.698  -0.459  11.606  0.7380  0.2851 -0.0353
  384MOL0     C50618   4.725  -0.408  11.470  0.0791  0.2974 -0.8062
  384MOL0     C50619   4.856  -0.438  11.425  0.1897  0.2131 -0.1030
  384MOL0     C50620   4.973  -0.456  11.412  0.0689  0.6570  0.2062
  384MOL0     C50621   4.353  -0.213  11.323 -1.6790  0.5782  0.0651
  384MOL0     C50622   4.335  -0.111  11.232  0.0456 -0.0329 -0.5351
  384MOL0     H50623   4.085   0.341  11.253 -1.2412 -2.1231 -0.6212
  384MOL0     H50624   3.971   0.539  11.139 -1.0581 -2.1806  2.6475
  384MOL0     H50625   4.168   0.731  10.784  0.1451 -0.9692  1.0888
  384MOL0     H50626   4.260   0.780  10.927 -0.4406 -0.6821  1.2229
  384MOL0     H50627   4.179   0.992  10.845 -1.4422  0.4085 -0.7967
  384MOL0     H50628   4.085   0.953  10.991 -0.7356 -2.0076  1.3791
  384MOL0     H50629   3.912   0.871  10.831  0.1327  0.6530  1.2031
  384MOL0     H50630   4.008   0.902  10.700  0.0577  1.1346 -1.1541
  384MOL0     H50631   3.943   1.121  10.905  0.8412  3.7657 -1.4334
  384MOL0     H50632   4.021   1.132  10.741  2.0927 -2.9117  0.9593
  384MOL0     H50633   3.809   1.036  10.641 -2.9749 -2.2938  1.8077
  384MOL0     H50634   3.792   1.210  10.669 -2.7629 -2.4781 -3.3798
  384MOL0     H50635   3.687   0.970  10.827  2.2555  1.8336 -0.5750
  384MOL0     H50636   3.597   1.090  10.725  0.7200  0.3008 -1.1216
  384MOL0     H50637   3.736   1.159  10.975  0.9530 -3.5394 -1.2250
  384MOL0     H50638   3.646   1.273  10.893 -0.2048  0.6722  4.0778
  384MOL0     H50639   3.502   1.164  11.087 -2.6359 -1.1597  0.7147
  384MOL0     H50640   3.521   1.013  11.012 -0.8260  0.1387  0.7148
  384MOL0     H50641   3.454   1.351  10.795 -2.3120  2.6981  3.4920
  384MOL0     H50642   3.287   1.410  10.619  1.3239 -0.5349  0.9512
  384MOL0     H50643   3.172   1.471  10.739  0.3972 -0.3746 -0.7493
  384MOL0     H50644   3.014   1.397  10.614 -0.6402 -0.8001  1.9560
  384MOL0     H50645   3.053   1.238  10.659 -0.6201  1.0638  0.1389
  384MOL0     H50646   3.029   1.247  10.437 -1.0039  3.1198  1.7036
  384MOL0     H50647   3.147   1.363  10.406  0.8662  0.4647  0.5601
  384MOL0     H50648   3.213   1.111  10.363  0.1704 -1.1840  0.4775
  384MOL0     H50649   3.257   1.121  10.542 -0.5121  2.0550  0.3599
  384MOL0     H50650   3.391   0.983  10.445 -1.3323  0.9946 -0.6416
  384MOL0     H50651   3.602   0.855  10.429 -1.9378  0.3557 -1.7241
  384MOL0     H50652   3.829   0.555  10.357  0.2117  1.6540  0.8059
  384MOL0     H50653   3.999   0.404  10.383  1.3084 -0.3524  3.4958
  384MOL0     H50654   4.163   0.273  10.463 -0.0375 -1.0520  2.4159
  384MOL0     H50655   4.338   0.271  10.507  2.0150  2.9240 -0.0750
  384MOL0     H50656   4.411   0.326  10.293  1.8071 -2.3284  2.9100
  384MOL0     H50657   4.246   0.365  10.239  1.6006  1.1419 -1.0646
  384MOL0     H50658   4.178   0.127  10.263  1.4708 -3.3493 -2.2427
  384MOL0     H50659   4.342   0.074  10.307  0.4219  0.2700  0.3497
  384MOL0     H50660   4.243   0.215  10.052 -0.5764  0.2530  0.9741
  384MOL0     H50661   4.412   0.187  10.098  0.1836 -0.2766 -0.1001
  384MOL0     H50662   4.362   0.011   9.950 -0.4563  0.8993  0.7288
  384MOL0     H50663   4.196  -0.008  10.015 -0.4405  2.0705 -2.2116
  384MOL0     H50664   4.361  -0.124  10.224 -1.4427  2.0587 -0.6109
  384MOL0     H50665   4.482  -0.079  10.119  1.7812 -1.1898 -3.1441
  384MOL0     H50666   4.391  -0.241   9.953 -0.2749 -0.8836 -1.0129
  384MOL0     H50667   4.428  -0.312  10.122  0.2515 -0.7510 -1.4198
  384MOL0     H50668   4.153  -0.244  10.014 -1.4799 -0.1375  0.4651
  384MOL0     H50669   4.202  -0.332  10.160  2.5579 -0.7435  1.0499
  384MOL0     H50670   4.277   0.720  10.483 -1.8991  3.5286  2.1843
  384MOL0     H50671   4.110   0.874  10.465 -0.5832 -0.4751  2.6310
  384MOL0     H50672   3.811   1.224  10.373  0.4192 -3.1320 -3.0829
  384MOL0     H50673   3.609   1.348  10.391 -0.4366 -0.1427 -4.5120
  384MOL0     H50674   4.307   0.551  10.855  2.6115 -1.1138  0.4482
  384MOL0     H50675   4.402   0.355  10.964 -2.6111 -2.0104 -1.7437
  384MOL0     H50676   4.394   0.148  11.449 -0.4803 -0.9233 -0.6145
  384MOL0     H50677   4.457  -0.041  11.593 -4.0509 -1.5999  1.8183
  384MOL0     H50678   4.398  -0.308  11.707 -0.3151 -1.8671  1.0899
  384MOL0     H50679   4.554  -0.223  11.656 -0.2466 -0.3985  1.0561
  384MOL0     H50680   4.555  -0.466  11.750  0.2791  0.7207  0.5484
  384MOL0     H50681   4.497  -0.517  11.588 -0.0114 -0.7822  0.0935
  384MOL0     H50682   4.725  -0.564  11.613  2.3866  0.4518 -2.6474
  384MOL0     H50683   4.763  -0.420  11.685  0.3761 -2.1684  1.5806
  384MOL0     H50684   4.663  -0.460  11.397 -1.1995 -1.1115  1.2072
  384MOL0     H50685   4.710  -0.301  11.452  0.6244 -0.1152 -4.5778
  384MOL0     H50686   5.076  -0.481  11.395  0.3903  0.1670  2.5653
  384MOL0     H50687   4.336  -0.311  11.279  2.2989  1.1635 -3.4936
  384MOL0     H50688   4.323  -0.126  11.125  0.3970  1.7967 -0.8666
  385MOL0     O50689   3.787   8.939   0.384 -1.0583 -0.5200 -0.1370
  385MOL0     C50690   3.676   8.899   0.403  0.5699  0.7911  0.2657
  385MOL0     O50691   3.632   8.844   0.523  0.1016  0.0865 -0.7318
  385MOL0     C50692   3.680   8.879   0.641  0.1170 -0.4641 -0.0716
  385MOL0     C50693   3.749   8.995   0.682  0.1645  0.0633  0.3539
  385MOL0     C50694   3.787   9.019   0.814  0.5733 -0.3246 -1.1804
  385MOL0     C50695   3.746   8.928   0.917 -0.2549  0.0401 -0.2749
  385MOL0     O50696   3.768   8.943   1.052  0.4554 -0.0727  0.4480
  385MOL0     C50697   3.893   8.997   1.100  0.9457  0.2745 -0.3903
  385MOL0     C50698   3.898   8.966   1.247 -0.4423 -0.6722 -0.4353
  385MOL0     C50699   3.925   8.813   1.286  0.3430 -0.2341 -0.3601
  385MOL0     C50700   4.033   8.754   1.195 -0.0611 -0.4459 -0.2214
  385MOL0     C50701   4.086   8.630   1.270  0.8404 -0.4178  0.0201
  385MOL0     C50702   4.194   8.548   1.191  0.7546 -0.2576  0.5335
  385MOL0     C50703   4.284   8.465   1.282 -0.0443 -0.0135  0.3712
  385MOL0     C50704   4.345   8.343   1.206 -0.1835  0.1188  0.9929
  385MOL0     N50705   4.463   8.297   1.274  0.2986 -0.0556 -0.7086
  385MOL0     C50706   4.463   8.184   1.353 -1.1178 -0.3994  0.1771
  385MOL0     C50707   4.599   8.159   1.368  0.5951 -0.4881 -0.6658
  385MOL0     C50708   4.639   8.052   1.457  0.0781 -1.5449  0.1202
  385MOL0     C50709   4.739   7.944   1.401  0.1706  0.3582  0.0501
  385MOL0     C50710   4.769   7.864   1.534  0.2885 -0.0612 -0.6081
  385MOL0     C50711   4.871   7.930   1.624 -0.0659  0.5803 -0.5835
  385MOL0     O50712   4.908   7.852   1.727  1.1221 -0.2001 -1.0154
  385MOL0     C50713   4.846   7.858   1.849 -0.1700 -0.5991 -0.1825
  385MOL0     C50714   4.905   7.778   1.949  0.4928  0.4063 -0.3086
  385MOL0     C50715   4.831   7.764   2.063  0.5647 -1.1557  0.0308
  385MOL0     C50716   4.716   7.841   2.093 -0.1713  0.8050 -0.2726
  385MOL0     C50717   4.647   7.818   2.213 -0.8727  0.3929 -0.8821
  385MOL0     O50718   4.566   7.916   2.261  0.3964  0.1213 -0.2477
  385MOL0     C50719   4.468   7.905   2.360  0.1766  0.1448 -0.2515
  385MOL0     C50720   4.448   7.797   2.455  1.4987  0.4607  1.2643
  385MOL0     C50721   4.348   7.804   2.545  0.5452 -0.0038 -1.9471
  385MOL0     C50722   4.268   7.922   2.560 -0.8372 -0.7451  0.2212
  385MOL0     O50723   4.160   7.936   2.641  0.2708  0.3532  0.1107
  385MOL0     C50724   4.087   7.817   2.703 -0.1925 -0.3297  0.3021
  385MOL0     C50725   3.953   7.850   2.771 -0.2785  0.6458 -0.1186
  385MOL0     C50726   3.983   7.932   2.899 -0.2073  0.4211  0.0764
  385MOL0     C50727   3.936   8.072   2.891  0.3538 -1.2183 -1.2206
  385MOL0     C50728   3.919   8.136   3.021  0.3083  0.6650 -0.7347
  385MOL0     C50729   4.051   8.172   3.096 -0.1280 -0.2277  0.1853
  385MOL0     C50730   4.148   8.265   3.019 -0.0588 -0.4142 -0.4175
  385MOL0     C50731   4.255   8.198   2.920 -0.4162 -0.2674 -0.1179
  385MOL0    Cl50732   4.371   8.331   2.882 -0.2116  0.2765 -0.0403
  385MOL0     C50733   4.286   8.025   2.471  0.8960 -0.1550 -0.8548
  385MOL0     C50734   4.391   8.015   2.371 -0.8805 -0.9605 -0.2052
  385MOL0     O50735   4.668   7.707   2.259  0.7294  1.0304 -0.5446
  385MOL0     C50736   4.675   7.939   2.002  0.0155  0.4208 -0.0193
  385MOL0     C50737   4.734   7.945   1.878 -0.9416  0.3608  0.2804
  385MOL0     N50738   4.684   8.258   1.312 -0.4007 -0.5989  0.3160
  385MOL0     N50739   4.590   8.349   1.270  0.0052  0.6174 -0.0047
  385MOL0     C50740   3.673   8.813   0.877 -0.2577 -0.8032 -0.9646
  385MOL0     C50741   3.641   8.792   0.742  0.5358  0.2121  0.1384
  385MOL0     C50742   3.570   8.923   0.299  0.5008 -0.9498  0.5671
  385MOL0     C50743   3.436   8.910   0.332  0.6999 -0.1830  0.4091
  385MOL0     C50744   3.343   8.924   0.233  0.0706  0.9395 -0.1783
  385MOL0     C50745   3.376   8.973   0.106  0.4970 -0.0147  0.3283
  385MOL0     O50746   3.290   8.996  -0.007 -0.4176  0.1456 -0.5858
  385MOL0     C50747   3.145   8.974  -0.006  0.1952 -0.1714 -0.2874
  385MOL0     C50748   3.089   9.073   0.096 -0.1842 -1.2674 -0.5271
  385MOL0     C50749   2.944   9.108   0.064  0.7406 -1.2471 -0.4809
  385MOL0     C50750   2.872   9.220   0.134  0.4343 -0.7194  0.8937
  385MOL0     C50751   2.745   9.256   0.062  0.5044 -0.2359 -0.6422
  385MOL0     C50752   2.638   9.294   0.015  0.2549  0.2333  0.2832
  385MOL0     C50753   3.509   8.986   0.077  0.6129  0.0512 -0.3346
  385MOL0     C50754   3.612   8.968   0.171  0.1659  0.5274  0.9419
  385MOL0     H50755   3.765   9.062   0.598 -1.9452  0.9326  0.5937
  385MOL0     H50756   3.840   9.105   0.854 -1.8729 -0.0315  1.8826
  385MOL0     H50757   3.891   9.100   1.064 -1.3559  0.0620 -1.0407
  385MOL0     H50758   3.976   8.950   1.047  2.5658  0.7845  1.5631
  385MOL0     H50759   3.816   9.005   1.306 -0.0675  0.5696 -0.6974
  385MOL0     H50760   3.982   9.030   1.276 -1.4874  0.8801 -0.6981
  385MOL0     H50761   3.837   8.749   1.271 -0.5978  1.3738 -2.1307
  385MOL0     H50762   3.949   8.815   1.393  1.2395 -0.6417 -0.5439
  385MOL0     H50763   3.999   8.736   1.092 -2.4481 -1.0201  0.5974
  385MOL0     H50764   4.115   8.827   1.193 -2.5508  2.6142 -3.4500
  385MOL0     H50765   4.004   8.559   1.285  0.2711  0.2943  0.3321
  385MOL0     H50766   4.119   8.671   1.366  0.4150 -0.7208  0.3011
  385MOL0     H50767   4.266   8.603   1.129  2.4047 -0.7655  1.9200
  385MOL0     H50768   4.130   8.487   1.127 -1.2270 -0.0736  2.2617
  385MOL0     H50769   4.364   8.527   1.324  2.4171  0.1793 -4.0182
  385MOL0     H50770   4.229   8.426   1.368  0.5177  2.1602  1.8137
  385MOL0     H50771   4.360   8.367   1.100  0.4373  2.3721  1.5484
  385MOL0     H50772   4.276   8.258   1.204  1.0500 -0.9162 -0.5453
  385MOL0     H50773   4.376   8.137   1.398  0.2891 -0.4310  3.0566
  385MOL0     H50774   4.550   8.004   1.499  0.4802  0.0205  2.9777
  385MOL0     H50775   4.681   8.108   1.541 -1.6883 -0.4476  0.3093
  385MOL0     H50776   4.835   7.989   1.373  0.2444  0.1920  0.0327
  385MOL0     H50777   4.696   7.881   1.322 -1.0001 -4.8875  4.3022
  385MOL0     H50778   4.682   7.832   1.592  3.8960 -2.5312  4.1651
  385MOL0     H50779   4.817   7.771   1.503  0.9761 -0.5529  1.7058
  385MOL0     H50780   4.838   8.028   1.658 -1.8493 -0.3594  0.5601
  385MOL0     H50781   4.960   7.950   1.563  0.9649 -1.7445  0.0277
  385MOL0     H50782   4.985   7.712   1.918  0.0624  0.8471 -2.5732
  385MOL0     H50783   4.868   7.684   2.127 -2.2396 -1.7305  1.0650
  385MOL0     H50784   4.511   7.709   2.460 -0.9909 -1.4974  0.2656
  385MOL0     H50785   4.310   7.722   2.605  0.7299  2.4781  1.9873
  385MOL0     H50786   4.143   7.767   2.782 -0.9005 -2.0973 -0.2755
  385MOL0     H50787   4.081   7.750   2.616  3.3121 -0.1520 -0.2154
  385MOL0     H50788   3.909   7.752   2.790 -1.6730  0.9280 -1.7693
  385MOL0     H50789   3.889   7.910   2.706 -0.0054 -0.3317 -1.3238
  385MOL0     H50790   4.087   7.936   2.933 -0.9939 -0.5319  2.8517
  385MOL0     H50791   3.933   7.880   2.981  0.0252 -5.5848 -3.0592
  385MOL0     H50792   3.997   8.136   2.827 -1.6398  1.5410 -0.5779
  385MOL0     H50793   3.838   8.076   2.842  0.4530  0.3762 -1.3436
  385MOL0     H50794   3.866   8.076   3.097  3.4270 -4.3660 -2.0188
  385MOL0     H50795   3.870   8.233   3.014 -2.9410 -0.8938 -1.5921
  385MOL0     H50796   4.117   8.085   3.102  0.7775  0.1317 -2.8304
  385MOL0     H50797   4.023   8.221   3.189 -1.4385 -2.9247  1.3290
  385MOL0     H50798   4.088   8.342   2.969  2.4782  0.5878 -2.1480
  385MOL0     H50799   4.202   8.311   3.102 -0.8016  0.9076 -0.6407
  385MOL0     H50800   4.221   8.162   2.823  0.7405  3.1200 -1.9307
  385MOL0     H50801   4.311   8.122   2.975  0.7986 -1.2775 -2.6034
  385MOL0     H50802   4.236   8.121   2.478  2.6390  0.8541 -1.4897
  385MOL0     H50803   4.396   8.098   2.301  2.9653 -1.3640 -0.6132
  385MOL0     H50804   4.594   8.007   2.026 -0.5931 -0.7578  1.3762
  385MOL0     H50805   4.707   8.024   1.809  0.4260  0.4999 -0.1224
  385MOL0     H50806   3.656   8.739   0.954 -0.7894 -0.6860 -0.9689
  385MOL0     H50807   3.583   8.702   0.720  0.2839  0.1059  1.1812
  385MOL0     H50808   3.408   8.874   0.430  1.9026 -1.4940  0.3012
  385MOL0     H50809   3.239   8.898   0.252  0.4640  0.8654  2.1385
  385MOL0     H50810   3.133   8.865   0.002  1.8143 -0.4629 -1.2089
  385MOL0     H50811   3.101   8.994  -0.105  0.1714  0.4123 -0.1603
  385MOL0     H50812   3.096   9.017   0.190  1.4289 -0.7149 -0.2955
  385MOL0     H50813   3.156   9.158   0.112  1.7335 -2.2890 -2.6449
  385MOL0     H50814   2.895   9.011   0.077  0.2186 -1.0813 -1.1181
  385MOL0     H50815   2.940   9.125  -0.044  0.2773 -3.6012 -0.8987
  385MOL0     H50816   2.839   9.196   0.235 -2.7393  2.1032  0.6943
  385MOL0     H50817   2.934   9.310   0.136 -0.4725  0.0868 -1.8975
  385MOL0     H50818   2.564   9.358  -0.030  1.0950  0.5988 -0.6313
  385MOL0     H50819   3.543   9.016  -0.022 -0.7162 -0.6231 -1.0187
  385MOL0     H50820   3.718   8.986   0.154  0.0001  0.3084 -0.3775
  386MOL0     O50821   9.594   9.171   8.048 -0.2055 -0.7790  0.5495
  386MOL0     C50822   9.551   9.098   7.962  1.3567 -0.4620  0.9507
  386MOL0     O50823   9.610   8.992   7.919 -0.5543 -0.2351 -0.2252
  386MOL0     C50824   9.729   8.960   7.978  0.1999 -0.3881  0.4668
  386MOL0     C50825   9.715   8.883   8.091 -0.1844 -0.0542 -0.3995
  386MOL0     C50826   9.823   8.848   8.167  0.3832 -0.5712  0.6987
  386MOL0     C50827   9.967   8.886   8.125 -0.1794  0.3339 -0.2138
  386MOL0     O50828  10.076   8.869   8.206  0.3734 -0.3351  0.0659
  386MOL0     C50829  10.195   8.796   8.166 -0.3288  0.0377  0.7361
  386MOL0     C50830  10.321   8.831   8.244  0.1116 -0.4635 -0.7829
  386MOL0     C50831  10.308   8.775   8.398 -1.1114  0.1634 -0.4955
  386MOL0     C50832  10.448   8.801   8.470  0.2470 -0.1048  0.9050
  386MOL0     C50833  10.451   8.751   8.615  0.3157 -0.5528 -1.0332
  386MOL0     C50834  10.593   8.731   8.663 -0.0866  0.4416 -0.4623
  386MOL0     C50835  10.608   8.634   8.777 -0.4689 -0.4132  0.4231
  386MOL0     C50836  10.756   8.599   8.811 -0.0369  1.1050  0.1672
  386MOL0     N50837  10.755   8.513   8.921  0.6112  1.1442  0.1222
  386MOL0     C50838  10.723   8.380   8.908 -0.2449  1.1576  0.1138
  386MOL0     C50839  10.738   8.329   9.031 -0.5296 -0.0105  0.7279
  386MOL0     C50840  10.726   8.182   9.075 -0.1043  0.0168  0.2808
  386MOL0     C50841  10.835   8.133   9.164 -0.5312 -0.0988  0.9426
  386MOL0     C50842  10.939   8.072   9.071 -0.2581 -0.0382 -0.0184
  386MOL0     C50843  11.031   7.992   9.150 -0.6258  0.5875 -0.6197
  386MOL0     O50844  11.128   7.917   9.065 -1.0495 -0.5470  0.1329
  386MOL0     C50845  11.236   7.853   9.126  0.9049 -0.1704 -0.1730
  386MOL0     C50846  11.238   7.823   9.271 -0.3172  0.2384 -0.1405
  386MOL0     C50847  11.344   7.746   9.319  0.2364  0.3071  0.1418
  386MOL0     C50848  11.446   7.690   9.237  1.1811  0.4004 -0.5489
  386MOL0     C50849  11.565   7.632   9.306 -0.2536 -0.3769 -0.0083
  386MOL0     O50850  11.667   7.592   9.224  0.3947  0.6768 -0.5274
  386MOL0     C50851  11.769   7.528   9.279 -0.8274  0.2354 -0.0354
  386MOL0     C50852  11.894   7.593   9.268 -0.9107 -0.4534 -0.3218
  386MOL0     C50853  12.010   7.526   9.286 -0.8420 -0.0823 -0.5419
  386MOL0     C50854  12.012   7.395   9.320 -0.0702 -0.0795  0.0541
  386MOL0     O50855  12.134   7.331   9.323 -1.0550 -1.0301  0.6281
  386MOL0     C50856  12.154   7.203   9.269  0.1625  0.4149 -0.1314
  386MOL0     C50857  12.242   7.210   9.154  0.6913 -0.4141  0.8453
  386MOL0     C50858  12.185   7.279   9.033  0.2460 -0.0643  0.0504
  386MOL0     C50859  12.066   7.212   8.961 -0.3466  0.2789  0.6617
  386MOL0     C50860  12.086   7.061   8.909  0.0318  0.2714  1.1162
  386MOL0     C50861  11.944   6.998   8.881 -0.0267 -0.1188  0.5109
  386MOL0     C50862  11.882   7.053   8.751  0.5686  0.6518  0.3931
  386MOL0     C50863  11.751   6.981   8.733  0.7432  0.3797 -0.9981
  386MOL0    Cl50864  11.697   7.033   8.566 -0.2526  0.8543 -0.0429
  386MOL0     C50865  11.891   7.332   9.343  0.0240  0.9428  1.5612
  386MOL0     C50866  11.766   7.398   9.318  0.5585  1.0476  0.5821
  386MOL0     O50867  11.565   7.621   9.431 -0.2200  0.2047  0.2253
  386MOL0     C50868  11.438   7.720   9.101 -0.5685 -0.0885  0.4884
  386MOL0     C50869  11.348   7.809   9.052 -0.5855 -0.5033  0.1782
  386MOL0     N50870  10.776   8.434   9.112 -0.5896 -0.7545  0.6980
  386MOL0     N50871  10.798   8.540   9.046  1.0485 -0.0762 -0.3587
  386MOL0     C50872   9.971   8.945   8.001  0.9339 -0.0923  1.0924
  386MOL0     C50873   9.855   8.974   7.923 -0.1953  0.1111 -0.6123
  386MOL0     C50874   9.420   9.137   7.889 -0.4160  0.7306  0.1503
  386MOL0     C50875   9.378   9.065   7.779  0.0510  0.9392  0.8371
  386MOL0     C50876   9.264   9.092   7.710 -0.9319 -1.0513 -0.4097
  386MOL0     C50877   9.194   9.206   7.750  0.6213 -0.3039  0.3356
  386MOL0     O50878   9.079   9.259   7.683 -0.1852 -0.7286 -0.3964
  386MOL0     C50879   9.058   9.226   7.547  0.9512 -0.1274 -0.5348
  386MOL0     C50880   8.924   9.309   7.522 -0.7727  0.0919 -0.0921
  386MOL0     C50881   8.810   9.251   7.598  0.3536  0.3253 -0.0699
  386MOL0     C50882   8.694   9.346   7.592 -0.4996  0.6350  0.6684
  386MOL0     C50883   8.596   9.313   7.690  0.2479 -0.0050  0.0305
  386MOL0     C50884   8.501   9.272   7.748 -0.0295 -0.0085 -0.2654
  386MOL0     C50885   9.228   9.270   7.869  0.2796  0.3522  0.2975
  386MOL0     C50886   9.338   9.229   7.945  0.4964  0.8368 -0.0716
  386MOL0     H50887   9.617   8.864   8.132 -1.5227  1.9436 -2.4324
  386MOL0     H50888   9.799   8.799   8.261 -5.8785  0.4049  0.0910
  386MOL0     H50889  10.210   8.817   8.060  0.7636  0.7940  1.0162
  386MOL0     H50890  10.172   8.690   8.179  0.2775  0.1740  3.8395
  386MOL0     H50891  10.319   8.940   8.253  0.0865 -0.1594 -3.7065
  386MOL0     H50892  10.418   8.809   8.199  0.1867  3.9673 -3.3430
  386MOL0     H50893  10.275   8.671   8.406  0.0944 -0.5538 -3.4079
  386MOL0     H50894  10.225   8.821   8.452 -0.8497  1.9841 -1.5548
  386MOL0     H50895  10.527   8.755   8.410 -1.7240  1.9462 -3.7624
  386MOL0     H50896  10.473   8.907   8.474  4.6099 -0.7913 -1.5791
  386MOL0     H50897  10.394   8.658   8.607 -0.2776 -0.0536 -3.9114
  386MOL0     H50898  10.386   8.810   8.680 -2.2896 -3.1621 -1.0581
  386MOL0     H50899  10.627   8.829   8.699  0.5338 -0.5734  1.8406
  386MOL0     H50900  10.647   8.707   8.571 -0.5543 -1.1557 -0.3419
  386MOL0     H50901  10.566   8.680   8.867 -0.6268  2.1961 -0.8991
  386MOL0     H50902  10.554   8.543   8.750 -1.0007 -0.7472  2.4836
  386MOL0     H50903  10.811   8.691   8.832 -1.4192  1.3258  3.3653
  386MOL0     H50904  10.806   8.544   8.730 -1.6405 -0.6381  0.2675
  386MOL0     H50905  10.711   8.323   8.816 -0.4369  0.5838  0.4872
  386MOL0     H50906  10.711   8.121   8.986 -0.4623 -1.1012  1.0879
  386MOL0     H50907  10.646   8.163   9.147  0.0982 -3.0823 -0.1781
  386MOL0     H50908  10.798   8.052   9.228 -0.4169  0.6178  1.9468
  386MOL0     H50909  10.884   8.212   9.222  1.3114 -2.3386  2.6616
  386MOL0     H50910  10.899   8.004   8.996  2.7519  1.6090 -3.4257
  386MOL0     H50911  10.993   8.156   9.026 -2.9514  1.4495 -0.6837
  386MOL0     H50912  10.967   7.925   9.208 -1.2589  1.3783 -0.3858
  386MOL0     H50913  11.085   8.052   9.223 -1.1150 -0.3963  0.5927
  386MOL0     H50914  11.150   7.847   9.329  1.0814  0.5845  1.9372
  386MOL0     H50915  11.332   7.737   9.426  1.8910  2.0944  0.5440
  386MOL0     H50916  11.902   7.699   9.248 -0.8144  0.0708  2.2235
  386MOL0     H50917  12.095   7.591   9.305  1.2987 -3.5134  3.1706
  386MOL0     H50918  12.060   7.163   9.229 -1.6754  4.6219 -0.5344
  386MOL0     H50919  12.202   7.139   9.344  3.9384 -0.1299 -2.7248
  386MOL0     H50920  12.280   7.112   9.125 -2.1935 -2.0678  2.1834
  386MOL0     H50921  12.328   7.264   9.194  3.9664 -2.1419 -3.1626
  386MOL0     H50922  12.268   7.286   8.962  1.8927 -1.9724  1.6683
  386MOL0     H50923  12.157   7.381   9.062 -0.7338 -0.9730  2.5381
  386MOL0     H50924  11.983   7.221   9.032  0.6884  3.2425  1.6673
  386MOL0     H50925  12.043   7.272   8.872 -1.1125  1.1526  1.4321
  386MOL0     H50926  12.117   7.003   8.996  0.8030 -2.2155 -0.6895
  386MOL0     H50927  12.159   7.039   8.831 -1.0233  3.3687 -0.9389
  386MOL0     H50928  11.886   7.030   8.968  0.2605  2.2286 -0.0955
  386MOL0     H50929  11.961   6.891   8.869  2.1328  0.3355 -1.2267
  386MOL0     H50930  11.882   7.162   8.762  0.6519  0.4255  3.8215
  386MOL0     H50931  11.948   7.011   8.675  3.5064  2.1140  1.9473
  386MOL0     H50932  11.669   7.010   8.800 -1.1022 -3.2047 -1.4537
  386MOL0     H50933  11.753   6.871   8.737 -1.5713  0.2602 -1.6710
  386MOL0     H50934  11.895   7.225   9.364  0.2496 -0.5381 -4.2595
  386MOL0     H50935  11.673   7.346   9.340  1.1379 -0.0209  0.5851
  386MOL0     H50936  11.504   7.667   9.032  0.3291 -1.2420  2.1555
  386MOL0     H50937  11.355   7.833   8.946  4.3726 -1.6183  0.0306
  386MOL0     H50938  10.070   8.965   7.960  2.0117 -0.7543  3.2529
  386MOL0     H50939   9.861   9.029   7.829  2.7831  0.2441 -0.4281
  386MOL0     H50940   9.442   8.982   7.750 -1.6163  0.0190 -0.4127
  386MOL0     H50941   9.243   9.037   7.619 -4.0098  0.9917 -1.0987
  386MOL0     H50942   9.041   9.119   7.530 -1.2084  0.3025 -1.4028
  386MOL0     H50943   9.148   9.256   7.493  1.0012 -1.8969 -1.5095
  386MOL0     H50944   8.939   9.414   7.550 -0.3484  0.1445 -0.5082
  386MOL0     H50945   8.903   9.312   7.414 -0.4224  1.7131 -0.1442
  386MOL0     H50946   8.858   9.232   7.694  3.7553 -2.0912 -2.0347
  386MOL0     H50947   8.787   9.150   7.562 -0.6680  0.9428 -1.2049
  386MOL0     H50948   8.722   9.452   7.597 -1.1286  0.8584 -0.3924
  386MOL0     H50949   8.653   9.337   7.492  2.0784 -4.4866 -0.2608
  386MOL0     H50950   8.423   9.235   7.810 -2.2243  1.5958 -1.8886
  386MOL0     H50951   9.166   9.349   7.909 -0.2785  1.1077 -1.9332
  386MOL0     H50952   9.372   9.286   8.030 -1.6059  1.2999  0.5207
  387MOL0     O50953  10.033   6.412   0.348 -0.1794 -0.3938 -0.7334
  387MOL0     C50954   9.985   6.309   0.379 -0.9925 -0.2688 -1.3901
  387MOL0     O50955   9.858   6.279   0.432  0.3661 -1.0707 -0.1117
  387MOL0     C50956   9.749   6.369   0.451 -0.1760  0.8478 -0.9661
  387MOL0     C50957   9.643   6.316   0.524  0.6419 -0.6490 -0.7313
  387MOL0     C50958   9.527   6.387   0.550 -0.0556  0.3975 -0.4548
  387MOL0     C50959   9.525   6.520   0.518 -0.8866  0.0513 -0.3010
  387MOL0     O50960   9.412   6.582   0.568  0.6970  0.1707 -0.4368
  387MOL0     C50961   9.363   6.700   0.499  0.2594  0.6873  0.1968
  387MOL0     C50962   9.225   6.741   0.549  0.9572 -0.8407  0.0641
  387MOL0     C50963   9.246   6.821   0.681 -0.3756 -1.0797  0.0863
  387MOL0     C50964   9.295   6.736   0.796  0.4616 -1.0861  0.9220
  387MOL0     C50965   9.278   6.798   0.933  0.0975 -0.3949  0.3117
  387MOL0     C50966   9.284   6.685   1.042 -0.6107 -0.1379  0.0421
  387MOL0     C50967   9.269   6.735   1.184  0.2859 -0.5536  0.9503
  387MOL0     C50968   9.171   6.644   1.262  0.6643  0.1893 -0.6617
  387MOL0     N50969   9.196   6.503   1.287  0.7805  0.5257 -0.2062
  387MOL0     C50970   9.283   6.468   1.395  0.7813  0.6267  0.1913
  387MOL0     C50971   9.334   6.349   1.364  1.3355  0.1510  0.9339
  387MOL0     C50972   9.439   6.265   1.433 -0.1931 -0.8194 -0.8484
  387MOL0     C50973   9.399   6.112   1.428  0.3698 -0.3556 -0.0384
  387MOL0     C50974   9.297   6.082   1.534 -0.5781 -0.8183  0.4855
  387MOL0     C50975   9.240   5.936   1.521 -0.8095 -0.1110 -0.1904
  387MOL0     O50976   9.353   5.856   1.527  0.4116  0.5268 -0.0936
  387MOL0     C50977   9.340   5.718   1.477 -0.1308 -0.0670 -0.6187
  387MOL0     C50978   9.222   5.660   1.419 -0.1215 -0.4106  0.3965
  387MOL0     C50979   9.229   5.532   1.359 -0.0925 -0.6523  0.0313
  387MOL0     C50980   9.353   5.473   1.342  0.7369 -0.3580 -0.6202
  387MOL0     C50981   9.355   5.342   1.273 -1.2521  0.2087  0.4497
  387MOL0     O50982   9.484   5.290   1.253  0.4118 -0.2243  0.0798
  387MOL0     C50983   9.502   5.156   1.235 -0.5941  0.1830  0.0157
  387MOL0     C50984   9.420   5.067   1.162  0.3081 -0.5162 -0.0291
  387MOL0     C50985   9.447   4.933   1.160 -0.1409  0.0315  0.4874
  387MOL0     C50986   9.561   4.885   1.230 -0.4842  0.4115 -0.3620
  387MOL0     O50987   9.592   4.750   1.234 -1.4255 -0.5804 -0.0542
  387MOL0     C50988   9.653   4.704   1.107 -0.2945  0.6791 -0.4662
  387MOL0     C50989   9.652   4.554   1.119  0.0032  0.3397 -0.2280
  387MOL0     C50990   9.515   4.487   1.147  0.3010 -0.7009 -0.3728
  387MOL0     C50991   9.406   4.523   1.035 -0.5374 -0.1568 -0.8819
  387MOL0     C50992   9.283   4.425   1.079  0.2706 -0.2714 -0.4852
  387MOL0     C50993   9.150   4.475   1.021 -0.1206  0.1046  1.0691
  387MOL0     C50994   9.036   4.424   1.106  0.6356 -1.2248  2.0382
  387MOL0     C50995   8.900   4.463   1.041  0.2090  0.4224 -0.2134
  387MOL0    Cl50996   8.860   4.634   1.061 -0.4353 -0.0139 -0.1973
  387MOL0     C50997   9.648   4.973   1.293 -0.0355 -0.8518  0.2474
  387MOL0     C50998   9.621   5.106   1.290 -0.2179 -0.9385  0.2716
  387MOL0     O50999   9.254   5.291   1.235 -0.1089  0.2798 -0.5717
  387MOL0     C51000   9.476   5.528   1.398  1.1398 -0.1524 -0.0467
  387MOL0     C51001   9.468   5.651   1.467  0.2097  0.2314  1.1515
  387MOL0     N51002   9.292   6.324   1.234 -0.3076 -0.2287  0.5998
  387MOL0     N51003   9.205   6.406   1.180 -0.0056  0.4124 -0.8547
  387MOL0     C51004   9.637   6.588   0.460  0.4498 -0.6691  0.6283
  387MOL0     C51005   9.743   6.506   0.422 -1.0173  1.1280  0.2842
  387MOL0     C51006  10.078   6.187   0.367 -0.3975  2.2698  0.1416
  387MOL0     C51007  10.034   6.058   0.410 -0.9307  0.5131  0.4333
  387MOL0     C51008  10.118   5.943   0.406 -0.1652 -0.2321 -0.6806
  387MOL0     C51009  10.254   5.957   0.359 -0.4173 -0.5159 -0.1174
  387MOL0     O51010  10.343   5.859   0.352 -0.5914  0.6828  0.6865
  387MOL0     C51011  10.298   5.739   0.281  0.3249 -0.4096 -0.1660
  387MOL0     C51012  10.410   5.644   0.289 -0.4985  1.1801  0.3076
  387MOL0     C51013  10.540   5.677   0.218 -0.4630 -0.2246 -0.1741
  387MOL0     C51014  10.532   5.652   0.074 -0.5085 -0.7687 -0.1456
  387MOL0     C51015  10.652   5.715   0.016 -0.9893  0.8574  0.0596
  387MOL0     C51016  10.755   5.756  -0.031  0.0413  0.5421  0.1301
  387MOL0     C51017  10.299   6.083   0.330  0.3765 -0.3717 -0.2400
  387MOL0     C51018  10.213   6.200   0.330 -0.1519 -0.1548  1.2231
  387MOL0     H51019   9.659   6.211   0.543 -0.5120 -1.1788 -2.3976
  387MOL0     H51020   9.440   6.341   0.595  1.0297 -0.1855  1.1424
  387MOL0     H51021   9.362   6.669   0.394  0.6798  1.8615 -0.1643
  387MOL0     H51022   9.432   6.785   0.501  0.4441  0.5813  3.3835
  387MOL0     H51023   9.166   6.652   0.571 -1.0652  0.1562 -1.0740
  387MOL0     H51024   9.158   6.777   0.470 -0.4378 -0.7809  1.2317
  387MOL0     H51025   9.146   6.856   0.708  0.2302  1.0799 -0.2625
  387MOL0     H51026   9.304   6.912   0.662 -0.8489 -0.2808  2.2082
  387MOL0     H51027   9.226   6.651   0.800 -4.0975  1.9213 -2.6983
  387MOL0     H51028   9.396   6.699   0.778 -0.5978 -3.8654  0.2088
  387MOL0     H51029   9.181   6.848   0.935 -0.4614 -1.3136 -1.6537
  387MOL0     H51030   9.355   6.873   0.951  0.4390  0.1685 -2.9036
  387MOL0     H51031   9.380   6.636   1.022 -1.5497 -1.1421 -2.4474
  387MOL0     H51032   9.215   6.602   1.024 -0.7241 -0.3181  1.2675
  387MOL0     H51033   9.359   6.723   1.246  0.7423 -2.0410  0.0537
  387MOL0     H51034   9.238   6.839   1.190 -1.4031 -1.1149  3.0436
  387MOL0     H51035   9.078   6.647   1.204 -2.0007 -2.6660  2.9954
  387MOL0     H51036   9.159   6.689   1.361 -1.9613 -1.3277 -0.1711
  387MOL0     H51037   9.306   6.523   1.486 -1.3219  1.3564  0.3466
  387MOL0     H51038   9.445   6.290   1.539 -3.1860  0.5106 -0.9039
  387MOL0     H51039   9.535   6.286   1.384 -0.8058  0.0034 -1.7347
  387MOL0     H51040   9.485   6.048   1.452  0.4291  0.8123  3.5525
  387MOL0     H51041   9.360   6.068   1.336  0.6635  0.3995 -0.5368
  387MOL0     H51042   9.349   6.096   1.630  1.2793 -1.1438 -0.4313
  387MOL0     H51043   9.215   6.154   1.531  0.9525  1.0228  0.7203
  387MOL0     H51044   9.189   5.917   1.426 -0.5418 -0.8983 -0.1865
  387MOL0     H51045   9.182   5.902   1.607 -0.7536 -2.0902 -0.8927
  387MOL0     H51046   9.118   5.691   1.425  0.1818  0.4542  1.4836
  387MOL0     H51047   9.136   5.487   1.326 -0.9462  0.1052  1.2893
  387MOL0     H51048   9.333   5.117   1.120  2.5342  2.6870 -1.2140
  387MOL0     H51049   9.386   4.868   1.097  1.3364  0.6818 -1.7173
  387MOL0     H51050   9.756   4.740   1.097 -0.4533  1.4558  0.5145
  387MOL0     H51051   9.595   4.741   1.022  3.0325  4.4345 -1.4480
  387MOL0     H51052   9.720   4.530   1.201  3.8108 -0.7023 -3.3659
  387MOL0     H51053   9.692   4.502   1.031 -4.5056 -0.6209 -1.9577
  387MOL0     H51054   9.478   4.520   1.245 -0.3207 -2.7799  0.1389
  387MOL0     H51055   9.514   4.378   1.157  0.7549 -1.0603 -3.2981
  387MOL0     H51056   9.362   4.623   1.040 -1.4439 -0.5457 -0.8870
  387MOL0     H51057   9.445   4.496   0.936  0.7731  0.6870 -0.6230
  387MOL0     H51058   9.268   4.434   1.187  0.7311  0.8379 -0.4982
  387MOL0     H51059   9.293   4.318   1.061 -2.4392 -0.4992 -1.1535
  387MOL0     H51060   9.151   4.430   0.921 -0.5348  1.4972  0.3987
  387MOL0     H51061   9.144   4.584   1.006 -0.2728 -0.2200 -1.7308
  387MOL0     H51062   9.036   4.315   1.106 -4.0725 -1.4502  2.7688
  387MOL0     H51063   9.037   4.466   1.207 -0.5955  1.6552  0.9917
  387MOL0     H51064   8.823   4.409   1.096  2.4458 -0.9675  1.7574
  387MOL0     H51065   8.893   4.426   0.938  1.9200  0.6983 -0.4604
  387MOL0     H51066   9.731   4.919   1.338 -0.1123  1.9090  4.2902
  387MOL0     H51067   9.683   5.182   1.337  2.4547 -1.1566 -2.5872
  387MOL0     H51068   9.576   5.488   1.389  1.2361 -0.0732  0.6233
  387MOL0     H51069   9.561   5.698   1.497 -0.1813  0.5941  1.8352
  387MOL0     H51070   9.627   6.692   0.432 -0.9520 -1.1250 -0.7652
  387MOL0     H51071   9.830   6.559   0.383 -0.8845  1.2996  0.8067
  387MOL0     H51072   9.935   6.038   0.448 -0.3728 -1.8789  0.7701
  387MOL0     H51073  10.076   5.850   0.441  0.0103 -0.4541 -1.0545
  387MOL0     H51074  10.277   5.764   0.176 -0.9441 -1.2947 -0.1411
  387MOL0     H51075  10.210   5.693   0.326  1.6732  0.0939  3.2112
  387MOL0     H51076  10.445   5.648   0.393  4.9557  3.5197 -1.2404
  387MOL0     H51077  10.382   5.550   0.241  4.5257  0.6547 -2.2854
  387MOL0     H51078  10.619   5.614   0.261 -2.6587 -4.5843 -1.9810
  387MOL0     H51079  10.567   5.780   0.246  1.0452 -1.2223  2.4686
  387MOL0     H51080  10.540   5.544   0.058 -2.3122 -0.8659 -0.5885
  387MOL0     H51081  10.438   5.699   0.044 -2.1732 -1.8512  2.9397
  387MOL0     H51082  10.848   5.772  -0.082  1.0402 -1.8540  1.0419
  387MOL0     H51083  10.404   6.085   0.302  0.5640 -2.5849  0.1479
  387MOL0     H51084  10.262   6.294   0.307  0.6632  0.2014  4.0432
  388MOL0     O51085   4.167  10.870   5.224  0.2962  0.2892  0.8250
  388MOL0     C51086   4.140  10.847   5.341  0.3956  0.4377 -0.3184
  388MOL0     O51087   4.163  10.927   5.441  0.5436 -0.6153  1.0454
  388MOL0     C51088   4.237  11.044   5.442 -0.4689 -0.2134 -0.1587
  388MOL0     C51089   4.214  11.140   5.546  0.4125  0.3561  0.8335
  388MOL0     C51090   4.271  11.265   5.556 -0.5401 -1.1549 -0.2272
  388MOL0     C51091   4.365  11.303   5.465 -0.5439 -0.8957  0.8483
  388MOL0     O51092   4.423  11.431   5.449 -0.2185  0.2384  0.0523
  388MOL0     C51093   4.369  11.536   5.534  0.0444 -0.8840  0.7692
  388MOL0     C51094   4.399  11.671   5.471  0.4531  0.3772  0.1818
  388MOL0     C51095   4.399  11.781   5.585  0.3779  0.4299  0.6578
  388MOL0     C51096   4.448  11.908   5.528 -0.1785  0.3573 -0.0736
  388MOL0     C51097   4.486  12.007   5.655 -0.0111 -0.2204  0.8736
  388MOL0     C51098   4.506  12.157   5.617  0.3559  0.2412 -0.4731
  388MOL0     C51099   4.394  12.230   5.552 -0.5404 -0.3905 -0.6875
  388MOL0     C51100   4.277  12.241   5.653  0.9521  0.1650  0.1635
  388MOL0     N51101   4.304  12.337   5.762  0.0507  1.5775  0.3651
  388MOL0     C51102   4.352  12.464   5.754 -0.4018 -0.4729 -0.9085
  388MOL0     C51103   4.378  12.507   5.884 -0.5973  0.2311 -0.4879
  388MOL0     C51104   4.446  12.643   5.906 -0.4856  0.1514  0.1932
  388MOL0     C51105   4.568  12.639   6.009  0.5495  0.4820 -0.1781
  388MOL0     C51106   4.713  12.609   5.951 -0.1288 -0.8697  0.3575
  388MOL0     C51107   4.721  12.473   5.894 -0.6184  0.4989  0.0943
  388MOL0     O51108   4.853  12.420   5.865 -0.8254  0.6949  0.3634
  388MOL0     C51109   4.945  12.498   5.791  0.3318 -0.1941  0.1469
  388MOL0     C51110   4.907  12.598   5.695  0.4765 -0.5596 -0.2824
  388MOL0     C51111   5.004  12.680   5.640 -0.3063 -0.5990  0.0918
  388MOL0     C51112   5.142  12.664   5.673  0.2862 -0.2841 -0.9220
  388MOL0     C51113   5.247  12.755   5.612  0.1883  0.0529 -0.1368
  388MOL0     O51114   5.208  12.866   5.537 -1.3586 -0.5781 -0.7656
  388MOL0     C51115   5.303  12.921   5.450  0.1142 -0.1233 -0.4649
  388MOL0     C51116   5.332  12.852   5.332  0.3083 -0.0063 -1.1788
  388MOL0     C51117   5.420  12.896   5.232  1.3295 -0.0016  1.2300
  388MOL0     C51118   5.469  13.026   5.248 -0.4606 -0.2020  0.7477
  388MOL0     O51119   5.551  13.075   5.144 -0.0116 -0.5855 -0.3489
  388MOL0     C51120   5.626  13.193   5.157 -0.6932  0.5244  1.0682
  388MOL0     C51121   5.549  13.314   5.114  0.2887 -0.2068  0.1292
  388MOL0     C51122   5.544  13.344   4.966 -0.1979 -0.7250  0.5851
  388MOL0     C51123   5.453  13.465   4.922 -0.0366 -0.5435  0.1301
  388MOL0     C51124   5.429  13.458   4.782 -0.1468 -0.3290  0.7679
  388MOL0     C51125   5.346  13.578   4.730  0.1675  0.5749  0.0004
  388MOL0     C51126   5.338  13.575   4.572  0.0806 -0.0606  0.3189
  388MOL0     C51127   5.224  13.672   4.527 -0.4387  0.4976  0.3836
  388MOL0    Cl51128   5.215  13.696   4.354 -0.1915 -0.1498  0.3376
  388MOL0     C51129   5.451  13.093   5.370  0.5524 -0.0731 -0.6202
  388MOL0     C51130   5.379  13.037   5.476 -0.3267  0.6250 -0.5672
  388MOL0     O51131   5.362  12.719   5.621  0.1516 -0.1027 -0.5346
  388MOL0     C51132   5.184  12.552   5.741  0.1821  0.9659 -0.3035
  388MOL0     C51133   5.084  12.469   5.806  0.6038  0.3563  0.0112
  388MOL0     N51134   4.339  12.403   5.967  0.6411 -0.0921  0.0130
  388MOL0     N51135   4.309  12.304   5.894 -0.2553  0.1847  0.2843
  388MOL0     C51136   4.401  11.201   5.370  0.3711 -0.1854 -1.3006
  388MOL0     C51137   4.342  11.078   5.362 -0.2198  1.6430  0.3408
  388MOL0     C51138   4.079  10.720   5.367  0.0779  0.1952  0.4540
  388MOL0     C51139   3.999  10.653   5.281  0.3744 -0.7704  0.2615
  388MOL0     C51140   3.950  10.520   5.306 -0.9505 -0.0741  0.2686
  388MOL0     C51141   3.991  10.453   5.424 -0.6271  0.2305  0.0205
  388MOL0     O51142   3.936  10.332   5.450  0.3446 -0.7339  0.1792
  388MOL0     C51143   3.906  10.291   5.579 -0.2381 -0.3339  0.2333
  388MOL0     C51144   3.805  10.176   5.566 -0.4853  0.5086  0.2375
  388MOL0     C51145   3.881  10.042   5.540 -0.3103 -0.0856 -0.4615
  388MOL0     C51146   3.785   9.928   5.515  0.4382  0.2180  0.1667
  388MOL0     C51147   3.689   9.920   5.633  0.0532  0.3792  1.1121
  388MOL0     C51148   3.614   9.922   5.729  0.2368  0.1641 -0.7171
  388MOL0     C51149   4.081  10.525   5.513 -0.4490  0.6018 -0.4376
  388MOL0     C51150   4.119  10.657   5.486 -0.1541  0.4468 -1.4367
  388MOL0     H51151   4.137  11.118   5.619 -1.4778 -1.5717 -1.5523
  388MOL0     H51152   4.237  11.323   5.641 -1.6710 -2.0572 -0.0469
  388MOL0     H51153   4.432  11.535   5.624 -1.4553 -2.8290  1.8787
  388MOL0     H51154   4.261  11.542   5.548  0.0584  0.6075  0.4133
  388MOL0     H51155   4.330  11.694   5.389  1.7586 -1.0916 -1.4040
  388MOL0     H51156   4.502  11.670   5.435  1.0433  0.2733  1.8192
  388MOL0     H51157   4.467  11.759   5.667  0.8609  4.2608  1.4822
  388MOL0     H51158   4.298  11.801   5.623  0.4366  4.9060 -0.9652
  388MOL0     H51159   4.543  11.897   5.474 -1.2607  0.6463 -2.1300
  388MOL0     H51160   4.370  11.961   5.473  0.4999  2.4829  0.9014
  388MOL0     H51161   4.587  11.985   5.691  0.8419  1.1089 -0.5840
  388MOL0     H51162   4.414  11.988   5.735  0.2270 -2.4180  0.6351
  388MOL0     H51163   4.588  12.164   5.546 -0.3667 -1.6377 -1.5681
  388MOL0     H51164   4.529  12.206   5.713 -1.2823  3.3521 -1.5492
  388MOL0     H51165   4.429  12.331   5.528 -0.8840 -0.2167 -0.4758
  388MOL0     H51166   4.371  12.197   5.450  0.7005  1.5180 -1.6407
  388MOL0     H51167   4.222  12.153   5.686 -5.5516  3.0885 -1.3633
  388MOL0     H51168   4.200  12.287   5.591  0.0450 -0.5595  0.7437
  388MOL0     H51169   4.384  12.525   5.669  5.4221 -1.6018  0.0114
  388MOL0     H51170   4.374  12.708   5.956 -1.9556 -2.3274  1.4678
  388MOL0     H51171   4.479  12.680   5.808  2.3514  1.7795  1.6225
  388MOL0     H51172   4.541  12.569   6.089  2.0688 -2.7196 -2.2102
  388MOL0     H51173   4.573  12.740   6.048 -0.4097 -0.5172  2.7599
  388MOL0     H51174   4.734  12.689   5.879  2.0941 -2.7198 -1.2221
  388MOL0     H51175   4.798  12.623   6.019 -0.7153 -4.1813  2.0037
  388MOL0     H51176   4.647  12.463   5.815 -1.3694  0.1605  0.8304
  388MOL0     H51177   4.689  12.409   5.977  1.4951 -1.4269 -0.4588
  388MOL0     H51178   4.803  12.599   5.664  0.6585 -0.7412 -0.9198
  388MOL0     H51179   4.984  12.751   5.561  0.7629 -1.8132 -1.3169
  388MOL0     H51180   5.284  12.755   5.321  2.6251 -1.9427  3.4186
  388MOL0     H51181   5.432  12.827   5.150 -1.6961  0.4239  0.2794
  388MOL0     H51182   5.701  13.187   5.078  0.0664 -0.7561  1.8500
  388MOL0     H51183   5.673  13.210   5.255 -1.0157 -0.0028  1.3158
  388MOL0     H51184   5.600  13.400   5.159 -1.5709  0.1018  1.8007
  388MOL0     H51185   5.452  13.326   5.162  0.0426  0.6858 -0.5547
  388MOL0     H51186   5.500  13.254   4.923 -2.0245  0.2983  0.2072
  388MOL0     H51187   5.648  13.347   4.931  1.1977 -3.5487  3.8405
  388MOL0     H51188   5.357  13.462   4.976 -1.2330  4.5800 -1.1658
  388MOL0     H51189   5.486  13.567   4.944  0.7809 -1.2075  2.2220
  388MOL0     H51190   5.374  13.367   4.758 -3.3875  1.6103  0.2533
  388MOL0     H51191   5.529  13.456   4.737 -1.5946 -0.2610 -2.7285
  388MOL0     H51192   5.390  13.670   4.769  1.4359  0.1909 -0.4806
  388MOL0     H51193   5.245  13.570   4.772  0.8160 -3.8652  1.2925
  388MOL0     H51194   5.436  13.619   4.552  0.0069  1.7668  3.4436
  388MOL0     H51195   5.327  13.474   4.531  1.4607 -1.2203  2.5802
  388MOL0     H51196   5.233  13.775   4.564  3.6515  0.6385 -0.5762
  388MOL0     H51197   5.136  13.617   4.561 -0.9180  1.7675  1.3035
  388MOL0     H51198   5.490  13.194   5.365  2.8897 -0.9606 -2.2125
  388MOL0     H51199   5.348  13.084   5.568  1.3387 -2.5709  1.8139
  388MOL0     H51200   5.286  12.525   5.767 -1.3284 -3.5260  2.0383
  388MOL0     H51201   5.107  12.377   5.860 -0.0187  0.3746  0.3195
  388MOL0     H51202   4.481  11.223   5.300 -1.5194 -1.3910 -4.0239
  388MOL0     H51203   4.374  11.014   5.280 -1.5403 -2.5279  2.7975
  388MOL0     H51204   3.969  10.700   5.188  2.2300  1.2174  0.6096
  388MOL0     H51205   3.876  10.480   5.236  0.5798 -1.5439 -0.5747
  388MOL0     H51206   3.854  10.373   5.630  1.9071  2.4485 -1.7550
  388MOL0     H51207   3.998  10.269   5.633 -2.3460 -1.8655  3.5661
  388MOL0     H51208   3.752  10.163   5.661  1.7737 -0.8914  1.4165
  388MOL0     H51209   3.740  10.206   5.484 -0.4326  2.6487  0.9363
  388MOL0     H51210   3.942  10.010   5.624  0.5502 -2.6895 -1.9561
  388MOL0     H51211   3.946  10.058   5.453  1.8228  0.1547  1.1243
  388MOL0     H51212   3.733   9.948   5.422 -0.1644 -0.3807  0.3702
  388MOL0     H51213   3.849   9.839   5.517  1.9090  0.9134  6.4888
  388MOL0     H51214   3.542   9.934   5.807  1.4204 -0.7566  0.5485
  388MOL0     H51215   4.125  10.474   5.598 -1.4069 -0.7650 -0.7242
  388MOL0     H51216   4.189  10.717   5.543 -0.8653  2.4902 -2.5991
  389MOL0     O51217   6.014   1.387   8.531  0.0952 -0.5562  0.5879
  389MOL0     C51218   6.037   1.291   8.601  0.0635 -0.8257 -0.4704
  389MOL0     O51219   6.140   1.276   8.690  0.1642  0.4333 -0.3781
  389MOL0     C51220   6.221   1.372   8.725  0.1769 -0.3022 -0.0714
  389MOL0     C51221   6.177   1.509   8.739  0.2438  0.2778  0.2876
  389MOL0     C51222   6.269   1.620   8.764 -0.3344  0.0322 -0.4264
  389MOL0     C51223   6.408   1.601   8.767 -0.2272  0.2628 -0.9595
  389MOL0     O51224   6.497   1.700   8.781 -0.3286 -0.7642 -0.6300
  389MOL0     C51225   6.540   1.773   8.666 -0.2660  0.1626 -0.1105
  389MOL0     C51226   6.621   1.695   8.577  0.5367 -0.0619 -0.0147
  389MOL0     C51227   6.697   1.787   8.470  0.4735 -0.3794 -0.2893
  389MOL0     C51228   6.847   1.764   8.470 -0.1025 -0.8952 -0.2023
  389MOL0     C51229   6.898   1.878   8.368  0.0601  0.5042  0.0157
  389MOL0     C51230   7.019   1.814   8.292  0.2167 -0.0592  0.3224
  389MOL0     C51231   7.090   1.920   8.210 -1.1658 -0.2906  0.3766
  389MOL0     C51232   7.190   1.866   8.102  0.3737 -0.2829 -1.2351
  389MOL0     N51233   7.245   1.977   8.021  0.3206  0.1287  0.4326
  389MOL0     C51234   7.356   1.962   7.944 -0.4158  0.2242  0.1746
  389MOL0     C51235   7.369   2.075   7.875  0.3649 -0.3308 -0.3213
  389MOL0     C51236   7.471   2.113   7.769 -1.2810  0.4318 -0.5677
  389MOL0     C51237   7.610   2.093   7.829  0.1424  0.0291 -0.3475
  389MOL0     C51238   7.712   2.060   7.719 -0.0042  0.1604 -0.3199
  389MOL0     C51239   7.742   2.177   7.626 -0.4353 -0.9153 -0.2477
  389MOL0     O51240   7.825   2.279   7.687 -0.4880  0.7468  0.1148
  389MOL0     C51241   7.961   2.254   7.726 -0.2253  1.4684  0.0973
  389MOL0     C51242   8.026   2.331   7.819  0.0216  0.0462 -0.4980
  389MOL0     C51243   8.167   2.323   7.853  0.6849 -0.1811  0.3240
  389MOL0     C51244   8.238   2.213   7.797  0.5087 -0.8059 -0.6577
  389MOL0     C51245   8.382   2.195   7.819 -0.2016 -0.2824 -0.1567
  389MOL0     O51246   8.444   2.090   7.757 -0.8822  0.0453 -0.3686
  389MOL0     C51247   8.577   2.053   7.784  0.2748  0.2349  0.0228
  389MOL0     C51248   8.663   2.110   7.879 -0.3579  0.3207  0.5935
  389MOL0     C51249   8.781   2.044   7.897  1.3803 -0.4784  0.3828
  389MOL0     C51250   8.831   1.938   7.817  0.2474  0.6107 -0.2015
  389MOL0     O51251   8.956   1.890   7.824 -0.4329 -0.1514 -0.1171
  389MOL0     C51252   9.024   1.896   7.953  0.0957  0.1616  0.6190
  389MOL0     C51253   9.148   1.804   7.939 -0.7591 -0.3583  0.2512
  389MOL0     C51254   9.137   1.676   8.018  0.0967 -0.0860 -0.3147
  389MOL0     C51255   9.263   1.587   8.018 -0.1549 -0.9604  0.0329
  389MOL0     C51256   9.377   1.651   8.098 -0.3210 -0.0266  0.5516
  389MOL0     C51257   9.356   1.580   8.233 -0.4704 -0.0620  0.0056
  389MOL0     C51258   9.467   1.626   8.330  0.0162  0.0442  1.1703
  389MOL0     C51259   9.603   1.575   8.286  0.1138  1.0451 -0.1066
  389MOL0    Cl51260   9.751   1.612   8.385 -0.1297 -0.5400  0.4850
  389MOL0     C51261   8.745   1.889   7.723  0.6047  0.2667  0.0481
  389MOL0     C51262   8.618   1.946   7.702  0.0327 -0.1507  0.3607
  389MOL0     O51263   8.424   2.270   7.911  0.2068  1.1109  0.6366
  389MOL0     C51264   8.179   2.132   7.712  2.1131  0.4161 -1.0355
  389MOL0     C51265   8.039   2.143   7.680  0.6609  1.3221 -0.4315
  389MOL0     N51266   7.253   2.148   7.890 -0.4625  0.5453 -0.0131
  389MOL0     N51267   7.178   2.088   7.980  1.2211  0.2756  0.6266
  389MOL0     C51268   6.451   1.466   8.759  0.8589  0.1270  0.4860
  389MOL0     C51269   6.361   1.344   8.752 -0.2982 -0.4333  0.2715
  389MOL0     C51270   5.957   1.172   8.552  0.1104  0.3007  0.2791
  389MOL0     C51271   5.944   1.065   8.648 -0.3635 -0.5032  0.0113
  389MOL0     C51272   5.847   0.964   8.633  0.6447  0.2478 -0.4750
  389MOL0     C51273   5.771   0.963   8.518 -0.2913  0.6383  1.5821
  389MOL0     O51274   5.675   0.869   8.524 -0.8673  0.8230  0.1420
  389MOL0     C51275   5.705   0.761   8.439 -0.7881  0.2917  0.7505
  389MOL0     C51276   5.622   0.642   8.477  0.1121 -1.0980 -0.1963
  389MOL0     C51277   5.476   0.668   8.433 -0.6166  0.0500  1.0502
  389MOL0     C51278   5.402   0.542   8.468  0.3971 -0.9512 -0.2557
  389MOL0     C51279   5.261   0.553   8.507  0.6765  0.2441 -0.8066
  389MOL0     C51280   5.153   0.570   8.559  0.4452 -0.1328 -0.6332
  389MOL0     C51281   5.779   1.068   8.426  0.7673 -0.6017 -0.1774
  389MOL0     C51282   5.864   1.171   8.443 -0.8983 -0.0581 -0.6888
  389MOL0     H51283   6.070   1.522   8.731 -0.0295 -0.7991  1.8464
  389MOL0     H51284   6.233   1.722   8.775  0.1763  0.1472  0.2168
  389MOL0     H51285   6.608   1.851   8.702 -0.0420 -0.7089  1.4383
  389MOL0     H51286   6.457   1.820   8.612 -0.1300  1.1139  0.4930
  389MOL0     H51287   6.557   1.623   8.526 -2.8850  2.8806 -0.3354
  389MOL0     H51288   6.689   1.635   8.638 -0.6494 -1.2914  0.1547
  389MOL0     H51289   6.693   1.892   8.499  1.6407 -0.9279  2.1169
  389MOL0     H51290   6.655   1.784   8.369  2.7071  2.2568 -1.4309
  389MOL0     H51291   6.898   1.781   8.565  2.2921  0.4384 -1.6210
  389MOL0     H51292   6.862   1.660   8.441 -0.7381 -1.2471  0.6875
  389MOL0     H51293   6.922   1.961   8.435  0.3737 -0.6298  1.3479
  389MOL0     H51294   6.828   1.913   8.292 -1.7691 -0.9293  0.9669
  389MOL0     H51295   6.981   1.738   8.223  0.8985 -1.9627  1.9759
  389MOL0     H51296   7.088   1.769   8.363 -0.3651 -3.3646 -1.0273
  389MOL0     H51297   7.018   1.980   8.153 -1.1004  0.7412  1.3404
  389MOL0     H51298   7.146   1.991   8.272  1.7563  1.7192 -4.0526
  389MOL0     H51299   7.128   1.805   8.036 -0.9600  0.2334 -0.4806
  389MOL0     H51300   7.268   1.803   8.148  1.8630  1.2817 -1.5204
  389MOL0     H51301   7.420   1.876   7.958 -0.8785 -0.0605  0.5639
  389MOL0     H51302   7.458   2.221   7.756  2.1894  0.8589 -1.3150
  389MOL0     H51303   7.447   2.059   7.677  0.8286 -1.5949 -0.0233
  389MOL0     H51304   7.606   1.994   7.876 -2.0332 -0.2026 -0.9371
  389MOL0     H51305   7.629   2.165   7.910  0.5755 -1.2591  0.7355
  389MOL0     H51306   7.806   2.029   7.766 -1.2200  0.1951  2.3078
  389MOL0     H51307   7.672   1.973   7.666 -1.3655  0.3714  0.3063
  389MOL0     H51308   7.649   2.225   7.594  0.8047  2.2870  0.5618
  389MOL0     H51309   7.798   2.148   7.536  1.1406  1.2546 -0.0550
  389MOL0     H51310   7.974   2.413   7.868 -0.8407 -0.1149 -1.1252
  389MOL0     H51311   8.209   2.400   7.917  3.8902  1.8085 -3.7191
  389MOL0     H51312   8.631   2.194   7.939 -1.0894  0.8206 -0.4588
  389MOL0     H51313   8.839   2.070   7.985 -1.8446  2.2426  1.8950
  389MOL0     H51314   8.972   1.853   8.039  1.3226 -1.0950  0.7586
  389MOL0     H51315   9.053   1.997   7.982  0.3660  0.8901 -1.9372
  389MOL0     H51316   9.243   1.852   7.964  2.0855 -3.2128 -3.7951
  389MOL0     H51317   9.164   1.786   7.832 -3.9083 -1.6077 -0.1173
  389MOL0     H51318   9.050   1.625   7.976 -2.4998  2.4922  1.5094
  389MOL0     H51319   9.106   1.714   8.116 -1.4847  1.2256 -1.2611
  389MOL0     H51320   9.237   1.482   8.038  0.3668 -1.8255 -3.2651
  389MOL0     H51321   9.301   1.601   7.917  0.9803  0.3001  0.6049
  389MOL0     H51322   9.376   1.760   8.105  1.5514  0.1610 -1.3562
  389MOL0     H51323   9.475   1.627   8.055  1.8019  1.0539  4.3779
  389MOL0     H51324   9.350   1.471   8.228  0.8269 -0.0937 -1.6859
  389MOL0     H51325   9.256   1.598   8.275  0.8387  0.4041  3.1594
  389MOL0     H51326   9.463   1.735   8.341  0.4251  0.3038 -0.7637
  389MOL0     H51327   9.451   1.572   8.424  0.9337  0.3805  1.5302
  389MOL0     H51328   9.619   1.617   8.186 -2.6728 -0.2047 -1.1758
  389MOL0     H51329   9.605   1.466   8.282 -0.2095  1.0513 -3.0467
  389MOL0     H51330   8.760   1.820   7.641  4.3219  0.5476  0.3457
  389MOL0     H51331   8.551   1.916   7.622  2.3124  0.8928 -2.0875
  389MOL0     H51332   8.221   2.040   7.674  2.7210 -0.2047  0.9763
  389MOL0     H51333   7.998   2.066   7.616 -0.0740  1.2845  0.0787
  389MOL0     H51334   6.558   1.462   8.776  0.6992 -0.8887  1.3643
  389MOL0     H51335   6.410   1.247   8.748  1.9793  0.6635 -2.4127
  389MOL0     H51336   5.994   1.050   8.743 -1.2294 -1.5685  0.3211
  389MOL0     H51337   5.818   0.886   8.702 -2.7424 -2.5224 -4.5728
  389MOL0     H51338   5.812   0.736   8.436 -1.0904 -0.9725  0.2076
  389MOL0     H51339   5.678   0.792   8.338 -1.7567 -0.2521  0.8338
  389MOL0     H51340   5.641   0.545   8.430 -1.6947 -1.9967  0.8153
  389MOL0     H51341   5.627   0.627   8.585 -1.1196 -2.3789 -0.2791
  389MOL0     H51342   5.468   0.687   8.326  0.5182 -2.0863  0.5243
  389MOL0     H51343   5.439   0.755   8.488  1.5403  1.7063  0.0085
  389MOL0     H51344   5.408   0.468   8.388  0.8774 -2.1032  0.8033
  389MOL0     H51345   5.458   0.496   8.550  2.7406 -0.9718 -1.7637
  389MOL0     H51346   5.050   0.575   8.588  0.8238 -0.6002  0.8710
  389MOL0     H51347   5.713   1.054   8.341  0.9142 -0.7666 -0.2666
  389MOL0     H51348   5.872   1.259   8.380 -0.9289  0.0482 -0.5436
  390MOL0     O51349   9.492   4.240   3.005  0.2174 -0.4072  0.6558
  390MOL0     C51350   9.477   4.187   3.112  0.3509  0.6798 -0.1794
  390MOL0     O51351   9.419   4.064   3.133 -0.0757 -0.2827 -0.4085
  390MOL0     C51352   9.402   3.971   3.034  0.0547 -0.6185  0.9040
  390MOL0     C51353   9.491   3.943   2.926 -0.0382  0.0089 -0.8765
  390MOL0     C51354   9.466   3.855   2.835 -0.5146  0.6381  0.8272
  390MOL0     C51355   9.354   3.769   2.847  0.4071  0.6012  0.2635
  390MOL0     O51356   9.352   3.676   2.744 -0.2964 -0.6084  0.0107
  390MOL0     C51357   9.292   3.558   2.780 -0.0759 -0.3206  0.4738
  390MOL0     C51358   9.246   3.482   2.656  0.2203 -0.7046  0.9357
  390MOL0     C51359   9.106   3.551   2.614 -0.3011 -0.0318  0.8586
  390MOL0     C51360   9.047   3.480   2.493  0.4081  0.3922 -0.3377
  390MOL0     C51361   8.899   3.494   2.498  0.7165 -0.1867 -0.2868
  390MOL0     C51362   8.827   3.395   2.405 -0.1341  0.7736  0.4174
  390MOL0     C51363   8.673   3.415   2.377  0.6534 -0.7856 -0.6172
  390MOL0     C51364   8.591   3.358   2.494 -0.0114  0.4208 -0.5993
  390MOL0     N51365   8.454   3.313   2.462 -0.3930  0.2022 -0.1040
  390MOL0     C51366   8.415   3.211   2.377  0.2616  0.1845  0.6469
  390MOL0     C51367   8.282   3.217   2.345 -0.5539  0.0410  0.0627
  390MOL0     C51368   8.204   3.105   2.282  0.1642  0.5044 -0.0111
  390MOL0     C51369   8.062   3.109   2.351  0.2729  0.4490 -0.2628
  390MOL0     C51370   7.979   2.983   2.317 -0.1210  0.3014 -0.6077
  390MOL0     C51371   7.850   2.982   2.395  0.0349 -0.0250  0.2474
  390MOL0     O51372   7.737   2.951   2.313 -0.3484  0.2816  0.0850
  390MOL0     C51373   7.721   2.820   2.286  0.7969  0.1762 -0.0572
  390MOL0     C51374   7.618   2.787   2.194 -0.2176 -0.5700  0.2363
  390MOL0     C51375   7.589   2.659   2.147 -0.1935 -0.5240 -0.5148
  390MOL0     C51376   7.669   2.546   2.204 -0.8326 -0.5928 -0.8798
  390MOL0     C51377   7.654   2.412   2.160  0.6632 -0.2877  1.0372
  390MOL0     O51378   7.745   2.327   2.208  0.5610  0.3848  1.0802
  390MOL0     C51379   7.717   2.196   2.173  0.9376  0.2512  0.2949
  390MOL0     C51380   7.688   2.146   2.050  0.0377 -0.2472  0.2728
  390MOL0     C51381   7.679   2.007   2.020 -1.0008  0.7886 -0.0499
  390MOL0     C51382   7.685   1.916   2.127 -0.1685  0.1298  0.1347
  390MOL0     O51383   7.650   1.790   2.106 -0.1982 -0.1280  0.2832
  390MOL0     C51384   7.517   1.748   2.150 -1.4333 -0.4472 -0.3452
  390MOL0     C51385   7.505   1.596   2.165  0.0350 -0.6783 -0.1028
  390MOL0     C51386   7.509   1.518   2.026  0.3679 -0.2386  0.1483
  390MOL0     C51387   7.554   1.376   2.044 -0.4381 -0.3358  0.3574
  390MOL0     C51388   7.487   1.307   2.150  0.2423  0.6162  0.2436
  390MOL0     C51389   7.549   1.172   2.181  0.6119 -0.2354  0.1356
  390MOL0     C51390   7.509   1.060   2.079 -0.6868  0.7352  0.1917
  390MOL0     C51391   7.633   0.991   2.017 -0.6140  0.3415 -0.8139
  390MOL0    Cl51392   7.716   0.892   2.134  0.1190  0.2627 -0.1579
  390MOL0     C51393   7.708   1.967   2.253  0.5718 -0.1327 -0.6222
  390MOL0     C51394   7.730   2.103   2.274  0.5561 -0.4644  0.4088
  390MOL0     O51395   7.553   2.389   2.094 -0.5462 -0.1347 -0.6180
  390MOL0     C51396   7.774   2.583   2.291  0.3792  0.9799  1.2894
  390MOL0     C51397   7.798   2.714   2.333 -0.6283 -0.8702 -0.3509
  390MOL0     N51398   8.235   3.326   2.421 -0.8656 -1.0184 -0.8098
  390MOL0     N51399   8.339   3.385   2.479 -0.8656 -0.9588  1.0254
  390MOL0     C51400   9.262   3.784   2.956 -0.9410 -0.0111  0.2388
  390MOL0     C51401   9.294   3.878   3.048 -0.5176 -0.1477 -0.3287
  390MOL0     C51402   9.508   4.258   3.234 -0.0397  0.4595  0.8423
  390MOL0     C51403   9.575   4.375   3.227  0.3347 -0.3537  0.3469
  390MOL0     C51404   9.570   4.463   3.342 -0.8187  0.4254 -0.6726
  390MOL0     C51405   9.506   4.422   3.465  0.6104  0.4355  0.5656
  390MOL0     O51406   9.512   4.498   3.582  0.3293  0.0695  0.2486
  390MOL0     C51407   9.603   4.607   3.608 -0.0522 -0.3735 -0.2291
  390MOL0     C51408   9.744   4.555   3.632 -0.8325 -0.2937  0.5902
  390MOL0     C51409   9.853   4.658   3.653  0.1612  0.0506 -0.1738
  390MOL0     C51410   9.998   4.601   3.664  1.0627 -0.2684  0.1677
  390MOL0     C51411  10.040   4.504   3.567 -0.7421  0.5278  0.3545
  390MOL0     C51412  10.074   4.426   3.475 -0.0907 -0.0216 -0.1688
  390MOL0     C51413   9.460   4.289   3.462 -0.2535 -0.1772  0.1212
  390MOL0     C51414   9.455   4.211   3.351 -0.6635 -0.2791 -1.0173
  390MOL0     H51415   9.588   3.992   2.920  0.4081 -0.6876  0.3853
  390MOL0     H51416   9.537   3.836   2.756 -2.8485 -1.7737 -0.8669
  390MOL0     H51417   9.206   3.564   2.847 -1.7414 -1.3478 -1.4417
  390MOL0     H51418   9.371   3.496   2.824  0.9525  0.3015 -0.4558
  390MOL0     H51419   9.219   3.382   2.691 -1.6307  0.3843  2.8704
  390MOL0     H51420   9.324   3.474   2.580  2.5737 -0.3659  3.1675
  390MOL0     H51421   9.131   3.655   2.591  1.1207 -0.8721 -1.8890
  390MOL0     H51422   9.038   3.558   2.700  2.0219  1.4681  2.6920
  390MOL0     H51423   9.072   3.519   2.394 -2.2864  1.3036 -0.7512
  390MOL0     H51424   9.081   3.376   2.497  1.2690  0.6256 -1.1834
  390MOL0     H51425   8.868   3.596   2.472  2.4123  0.3356 -0.3676
  390MOL0     H51426   8.854   3.466   2.593  1.4721 -3.3991 -0.7540
  390MOL0     H51427   8.836   3.289   2.430 -1.7013  1.0942  2.6375
  390MOL0     H51428   8.868   3.421   2.308 -1.4164 -2.4539 -1.1316
  390MOL0     H51429   8.647   3.520   2.364 -2.9799 -1.8356 -3.6848
  390MOL0     H51430   8.638   3.357   2.291 -0.2313 -1.4989  0.2006
  390MOL0     H51431   8.576   3.431   2.574 -0.5564  2.3401 -2.3589
  390MOL0     H51432   8.639   3.270   2.537  2.9796  2.5645  0.7829
  390MOL0     H51433   8.476   3.129   2.341 -0.2536 -0.0401  0.2682
  390MOL0     H51434   8.257   3.011   2.304  0.0947  1.2058  3.8679
  390MOL0     H51435   8.209   3.099   2.173  1.9935 -2.4681  0.1229
  390MOL0     H51436   8.010   3.200   2.321 -2.6156 -0.7146  0.9001
  390MOL0     H51437   8.074   3.114   2.459 -1.2080 -2.2924  0.1134
  390MOL0     H51438   7.951   2.983   2.211 -1.5141 -1.4109 -0.2867
  390MOL0     H51439   8.028   2.887   2.336 -1.3225  0.0226  1.4460
  390MOL0     H51440   7.840   3.086   2.425  1.5522  0.4098 -0.6290
  390MOL0     H51441   7.865   2.926   2.488  1.6983 -2.4404 -1.3376
  390MOL0     H51442   7.569   2.864   2.135  2.7202 -0.5604 -2.4697
  390MOL0     H51443   7.498   2.640   2.091 -1.2950  0.2694  0.9093
  390MOL0     H51444   7.695   2.214   1.966  2.4406 -2.2486 -1.2693
  390MOL0     H51445   7.669   1.974   1.917 -0.7148 -1.1819  0.5105
  390MOL0     H51446   7.439   1.803   2.095 -0.1113  2.3564  0.4110
  390MOL0     H51447   7.501   1.785   2.252 -2.4621 -2.5133  0.2928
  390MOL0     H51448   7.411   1.563   2.211 -0.5825 -0.2023 -0.9820
  390MOL0     H51449   7.595   1.567   2.220  0.9423 -2.2589 -2.2730
  390MOL0     H51450   7.588   1.572   1.974  0.5642  0.5349  1.1941
  390MOL0     H51451   7.419   1.535   1.966 -0.8133  0.5431  2.0361
  390MOL0     H51452   7.543   1.319   1.951 -0.6359  0.7966 -0.3295
  390MOL0     H51453   7.663   1.377   2.056 -0.4394 -0.2283  0.3616
  390MOL0     H51454   7.381   1.300   2.128  0.4383  2.7191 -1.6375
  390MOL0     H51455   7.502   1.372   2.237 -0.9327  0.7577  0.3547
  390MOL0     H51456   7.508   1.151   2.280 -2.3277  1.6960 -0.5348
  390MOL0     H51457   7.657   1.179   2.199  0.7972 -3.2427  0.5894
  390MOL0     H51458   7.451   0.980   2.125  0.0386 -0.3947 -0.7932
  390MOL0     H51459   7.443   1.106   2.005  0.8094 -0.7256 -2.1638
  390MOL0     H51460   7.702   1.063   1.973 -0.9920  1.5193  0.4548
  390MOL0     H51461   7.602   0.934   1.929 -0.9083  1.3792 -1.4006
  390MOL0     H51462   7.704   1.901   2.339  2.1875  0.9557  0.3416
  390MOL0     H51463   7.768   2.138   2.370 -0.9871  4.9042 -0.5799
  390MOL0     H51464   7.842   2.507   2.328  0.9266 -0.0174 -1.5402
  390MOL0     H51465   7.877   2.730   2.407 -0.0782  0.3074 -1.1609
  390MOL0     H51466   9.168   3.729   2.957 -1.2869  0.5541 -0.0216
  390MOL0     H51467   9.237   3.892   3.139  2.2138  0.3443  1.4296
  390MOL0     H51468   9.623   4.389   3.131 -2.2508 -1.9263 -1.3241
  390MOL0     H51469   9.624   4.557   3.333  0.9483 -0.3805  0.8258
  390MOL0     H51470   9.570   4.673   3.689  0.5638 -1.3470  0.8534
  390MOL0     H51471   9.610   4.675   3.523  0.1777  1.1513  0.9656
  390MOL0     H51472   9.752   4.482   3.714 -1.3603 -1.3805 -0.2884
  390MOL0     H51473   9.769   4.485   3.552 -1.1091  0.1091  0.1431
  390MOL0     H51474   9.835   4.717   3.744 -1.0778 -2.8644  1.6256
  390MOL0     H51475   9.855   4.733   3.574 -1.2918  1.0858  0.7326
  390MOL0     H51476  10.056   4.692   3.644 -0.4446  0.4586 -1.0983
  390MOL0     H51477  10.018   4.552   3.760  2.0980 -1.1680 -0.4764
  390MOL0     H51478  10.081   4.359   3.392 -0.2254 -1.2003  0.7330
  390MOL0     H51479   9.439   4.247   3.560 -1.6426 -0.3912 -0.2537
  390MOL0     H51480   9.413   4.112   3.367 -0.3317 -0.4189 -1.0191
  391MOL0     O51481   3.425   3.939   9.483  0.4834 -0.0654 -0.0323
  391MOL0     C51482   3.535   3.992   9.472  0.3057  0.0195  0.0473
  391MOL0     O51483   3.613   4.002   9.362 -0.7064 -0.4017 -0.8516
  391MOL0     C51484   3.561   3.979   9.242  0.6386  0.4127  0.2828
  391MOL0     C51485   3.549   4.080   9.142  0.5441  0.2074 -1.8642
  391MOL0     C51486   3.466   4.052   9.027 -0.2342 -0.0183 -0.3011
  391MOL0     C51487   3.411   3.929   9.003  0.3541  0.0740 -0.1570
  391MOL0     O51488   3.361   3.892   8.879  0.7156  0.4905 -0.9440
  391MOL0     C51489   3.234   3.825   8.886  1.2155  0.4554  0.7703
  391MOL0     C51490   3.172   3.815   8.746 -0.3143  0.1923  0.3127
  391MOL0     C51491   3.247   3.699   8.664  0.0698  0.3846 -0.6538
  391MOL0     C51492   3.211   3.714   8.517  0.5342  0.4125  0.2712
  391MOL0     C51493   3.112   3.591   8.493 -0.7486  0.0107  0.6719
  391MOL0     C51494   3.010   3.606   8.374  0.7701 -0.7456  0.3110
  391MOL0     C51495   3.083   3.615   8.237 -0.5838 -0.0953 -0.9137
  391MOL0     C51496   2.974   3.624   8.141  0.3098  0.1767 -0.7248
  391MOL0     N51497   2.888   3.501   8.127 -0.0176 -0.5004  1.5489
  391MOL0     C51498   2.931   3.380   8.078  0.3567 -0.7734  0.9831
  391MOL0     C51499   2.820   3.304   8.083  0.1800 -0.3652 -0.1527
  391MOL0     C51500   2.818   3.159   8.036  0.2996  0.0494 -0.2910
  391MOL0     C51501   2.714   3.144   7.926 -0.2347  0.6147  0.2651
  391MOL0     C51502   2.737   3.222   7.797  0.5076 -0.6331 -0.7651
  391MOL0     C51503   2.606   3.216   7.725 -0.6115 -0.5277 -0.1375
  391MOL0     O51504   2.597   3.101   7.642 -1.2271 -0.1719  0.4948
  391MOL0     C51505   2.479   3.072   7.581 -0.3203 -0.6403  1.0440
  391MOL0     C51506   2.489   2.974   7.482 -0.4191  0.1325 -0.5778
  391MOL0     C51507   2.373   2.910   7.438 -0.1832 -0.4478 -0.4864
  391MOL0     C51508   2.248   2.958   7.472 -0.1933 -0.4956  0.4671
  391MOL0     C51509   2.128   2.879   7.426  0.7861  0.6817 -0.6523
  391MOL0     O51510   2.148   2.748   7.376  0.3923 -1.2182 -0.0735
  391MOL0     C51511   2.048   2.660   7.362 -1.4160  0.3970 -0.7122
  391MOL0     C51512   1.979   2.607   7.466 -0.7553 -0.6046 -0.2345
  391MOL0     C51513   1.889   2.499   7.454  0.0208  0.9827 -0.6395
  391MOL0     C51514   1.855   2.452   7.332 -0.4652 -0.4619 -0.5778
  391MOL0     O51515   1.772   2.349   7.307  0.0134  0.3342  0.1631
  391MOL0     C51516   1.644   2.364   7.382  0.0636 -1.0305  0.1360
  391MOL0     C51517   1.545   2.282   7.299 -0.5974 -0.0110 -0.8970
  391MOL0     C51518   1.483   2.168   7.387 -0.1798  0.8294  0.2181
  391MOL0     C51519   1.412   2.063   7.300 -0.8813  1.3428  0.6253
  391MOL0     C51520   1.359   1.941   7.379 -0.5619 -0.3154  0.5514
  391MOL0     C51521   1.286   1.847   7.281 -0.3144 -0.2394  0.3287
  391MOL0     C51522   1.204   1.730   7.337 -0.1333 -0.9766 -0.1228
  391MOL0     C51523   1.134   1.656   7.225 -0.3413 -0.3658  0.5621
  391MOL0    Cl51524   1.036   1.517   7.311  0.0667 -0.1597  0.1275
  391MOL0     C51525   1.918   2.507   7.225  0.0659  0.2580 -0.1157
  391MOL0     C51526   2.013   2.609   7.239 -0.6007 -0.8009  1.0643
  391MOL0     O51527   2.022   2.925   7.450  0.7069  0.2776 -0.9189
  391MOL0     C51528   2.241   3.064   7.569 -0.7287 -0.3597  1.0940
  391MOL0     C51529   2.354   3.117   7.613 -0.8625  0.1747 -0.0685
  391MOL0     N51530   2.717   3.390   8.110 -0.3210  0.4304 -0.1604
  391MOL0     N51531   2.760   3.499   8.155 -0.0158  0.1625  0.0075
  391MOL0     C51532   3.434   3.822   9.099 -0.8090 -0.0260 -0.0087
  391MOL0     C51533   3.505   3.855   9.218 -0.4672 -0.1726 -0.1704
  391MOL0     C51534   3.598   4.055   9.595  0.2775 -0.7627 -0.1626
  391MOL0     C51535   3.721   4.129   9.593 -0.3684 -1.1061 -0.9157
  391MOL0     C51536   3.765   4.173   9.710  0.2839 -0.3002  0.3164
  391MOL0     C51537   3.715   4.136   9.834  1.0200 -0.3932 -0.3453
  391MOL0     O51538   3.796   4.174   9.936 -0.6803  1.0768  0.0823
  391MOL0     C51539   3.760   4.156  10.076 -0.1961  0.5316  0.2158
  391MOL0     C51540   3.813   4.022  10.133 -0.8850 -0.5216 -0.1497
  391MOL0     C51541   3.780   4.007  10.280  0.1671 -0.4438 -0.6422
  391MOL0     C51542   3.846   3.879  10.338 -0.0303 -0.1280  1.0862
  391MOL0     C51543   3.882   3.889  10.480 -0.0047 -0.5622  0.0326
  391MOL0     C51544   3.930   3.896  10.593 -0.3123 -0.2899 -0.6658
  391MOL0     C51545   3.598   4.069   9.834  0.1674 -0.0724 -1.0784
  391MOL0     C51546   3.536   4.039   9.716  0.0236  0.1498 -0.9151
  391MOL0     H51547   3.591   4.180   9.151  0.0980  0.4039 -1.9367
  391MOL0     H51548   3.449   4.129   8.952 -0.8161 -0.4119 -0.5869
  391MOL0     H51549   3.160   3.877   8.948  1.1365 -0.1035  1.1588
  391MOL0     H51550   3.231   3.726   8.932 -0.2472  0.0629 -0.0817
  391MOL0     H51551   3.192   3.908   8.691  1.2537 -1.3075 -1.8004
  391MOL0     H51552   3.064   3.799   8.756 -1.1123  3.6261 -1.1724
  391MOL0     H51553   3.230   3.597   8.699  2.1586 -0.3363 -1.6100
  391MOL0     H51554   3.354   3.722   8.674 -0.2305  1.2136  1.1771
  391MOL0     H51555   3.164   3.806   8.482 -2.6877 -1.3860 -0.5906
  391MOL0     H51556   3.307   3.703   8.465  1.0544 -0.2566  1.3282
  391MOL0     H51557   3.058   3.550   8.579  2.1887 -0.7991  2.2548
  391MOL0     H51558   3.186   3.513   8.473  0.9363  0.8790  3.1278
  391MOL0     H51559   2.939   3.687   8.391  2.7693  0.9714  0.7662
  391MOL0     H51560   2.955   3.511   8.371 -1.7334  0.5819 -2.9194
  391MOL0     H51561   3.159   3.692   8.225 -2.3800  1.8486 -0.5240
  391MOL0     H51562   3.126   3.516   8.219  0.2866 -0.1175  1.0542
  391MOL0     H51563   3.009   3.649   8.041  0.0007  2.4318 -0.3113
  391MOL0     H51564   2.907   3.705   8.171 -1.5774 -0.6826 -2.3643
  391MOL0     H51565   3.030   3.342   8.055 -0.7396 -1.8753 -2.5561
  391MOL0     H51566   2.790   3.096   8.121 -3.8969  0.7936 -0.8945
  391MOL0     H51567   2.915   3.124   7.999  1.7653  3.2626  0.2422
  391MOL0     H51568   2.613   3.152   7.966 -0.9653 -1.5825 -1.0074
  391MOL0     H51569   2.710   3.036   7.911  0.7097  0.0307  3.4552
  391MOL0     H51570   2.756   3.329   7.804 -0.5991 -0.5210  1.2452
  391MOL0     H51571   2.819   3.171   7.745 -0.2757 -1.7682 -0.9416
  391MOL0     H51572   2.579   3.308   7.672  0.6149  0.7173  1.3133
  391MOL0     H51573   2.529   3.204   7.802 -1.7785  0.4138 -1.1066
  391MOL0     H51574   2.587   2.943   7.448 -2.3118 -2.6713 -4.2959
  391MOL0     H51575   2.385   2.822   7.375 -0.7884 -0.2933 -0.8226
  391MOL0     H51576   2.017   2.649   7.559  0.9717 -0.5607 -0.9261
  391MOL0     H51577   1.865   2.446   7.546  0.1621  0.0785 -1.1124
  391MOL0     H51578   1.620   2.471   7.383  1.2499 -0.6930 -2.1953
  391MOL0     H51579   1.642   2.335   7.488  1.6843 -1.0114  0.1864
  391MOL0     H51580   1.598   2.243   7.211  0.2042 -0.9439 -0.0244
  391MOL0     H51581   1.456   2.336   7.264 -0.6054  0.6129  0.0619
  391MOL0     H51582   1.412   2.219   7.453  0.3037  0.1916  1.2563
  391MOL0     H51583   1.563   2.123   7.447 -0.8799 -0.0730  0.4989
  391MOL0     H51584   1.329   2.105   7.244 -1.0741 -1.3842 -1.3285
  391MOL0     H51585   1.478   2.019   7.225 -1.6070 -3.7137  2.5353
  391MOL0     H51586   1.275   1.989   7.429 -0.0823  0.3372  0.7284
  391MOL0     H51587   1.430   1.899   7.450 -0.5342  3.6706  3.1458
  391MOL0     H51588   1.367   1.795   7.228 -0.1856 -1.3264  1.5485
  391MOL0     H51589   1.215   1.892   7.211  2.0449  2.8269 -0.2850
  391MOL0     H51590   1.271   1.670   7.400  3.4769  1.0287 -1.7211
  391MOL0     H51591   1.122   1.767   7.399 -0.4150 -0.0212 -1.0490
  391MOL0     H51592   1.214   1.623   7.157  0.1869  0.3482  0.8148
  391MOL0     H51593   1.069   1.719   7.162 -0.9249 -4.3601 -3.3266
  391MOL0     H51594   1.889   2.463   7.130  0.4641 -0.8987  0.2947
  391MOL0     H51595   2.065   2.640   7.149 -2.3757 -0.9923 -0.0653
  391MOL0     H51596   2.145   3.098   7.608 -0.4502  0.6887  0.8955
  391MOL0     H51597   2.352   3.201   7.682  1.3441  1.0207 -0.9152
  391MOL0     H51598   3.410   3.717   9.092  3.1347 -1.1351  0.5130
  391MOL0     H51599   3.523   3.785   9.299 -0.5905  0.4781  0.4272
  391MOL0     H51600   3.776   4.152   9.502  1.9929  1.9692  1.0717
  391MOL0     H51601   3.853   4.236   9.720  0.9155 -1.4071  2.1563
  391MOL0     H51602   3.652   4.165  10.086 -0.2140  0.2151  0.3151
  391MOL0     H51603   3.811   4.239  10.126  0.9466  1.8772 -2.9635
  391MOL0     H51604   3.783   3.935  10.073 -1.9595 -2.3566  2.8207
  391MOL0     H51605   3.922   4.023  10.128 -0.6735  1.6817  2.6370
  391MOL0     H51606   3.673   3.997  10.300 -0.1791 -0.9247 -2.5286
  391MOL0     H51607   3.812   4.097  10.334 -1.2456  0.6351 -1.5508
  391MOL0     H51608   3.778   3.797  10.315 -1.4164  0.5085  2.7162
  391MOL0     H51609   3.944   3.865  10.292 -0.5075 -1.7434  0.5241
  391MOL0     H51610   3.968   3.894  10.693  1.8115 -2.4620 -1.3997
  391MOL0     H51611   3.560   4.031   9.928 -0.6382  0.0385 -1.3535
  391MOL0     H51612   3.441   3.988   9.723 -0.1717  0.0271 -3.3267
  392MOL0     O51613   4.183   5.930   3.208 -0.2236  0.0772 -0.1275
  392MOL0     C51614   4.132   5.826   3.181  0.3713 -0.5828  0.1252
  392MOL0     O51615   4.195   5.706   3.199  0.0563  0.1746  0.1510
  392MOL0     C51616   4.330   5.702   3.232 -0.4582 -0.7503  0.6658
  392MOL0     C51617   4.417   5.634   3.150  0.0224  1.1008 -0.5203
  392MOL0     C51618   4.559   5.633   3.172  0.6929 -0.9328  0.2320
  392MOL0     C51619   4.606   5.717   3.276  0.8171 -0.2160  0.5149
  392MOL0     O51620   4.735   5.741   3.314 -0.5799 -0.3724  0.2975
  392MOL0     C51621   4.847   5.699   3.238  0.0961  0.0278  0.2019
  392MOL0     C51622   4.883   5.794   3.131  1.2004  0.4469  0.1934
  392MOL0     C51623   4.772   5.830   3.031 -0.5781 -0.3891 -1.0665
  392MOL0     C51624   4.827   5.933   2.932  0.0371 -0.4647  0.1384
  392MOL0     C51625   4.718   5.944   2.824  0.4419  0.0795  0.4437
  392MOL0     C51626   4.768   6.001   2.688 -0.3854  0.0748  0.0248
  392MOL0     C51627   4.660   5.998   2.580 -1.1208  0.3720  0.5205
  392MOL0     C51628   4.597   6.134   2.548 -0.1351  0.2103 -0.0410
  392MOL0     N51629   4.509   6.105   2.427 -0.7739 -0.6216  0.1207
  392MOL0     C51630   4.384   6.049   2.442  0.1379  0.1614  0.9353
  392MOL0     C51631   4.358   6.005   2.321  0.3351  0.8165 -0.0528
  392MOL0     C51632   4.238   5.922   2.282  1.1060  0.2919  0.1627
  392MOL0     C51633   4.163   5.990   2.165 -0.6759 -0.7246 -0.3810
  392MOL0     C51634   4.022   5.949   2.123  1.3364 -0.3896 -0.8509
  392MOL0     C51635   3.924   5.989   2.236 -0.6294  0.0041 -0.2542
  392MOL0     O51636   3.814   5.909   2.214  0.7480  0.4383  0.2460
  392MOL0     C51637   3.720   5.948   2.127  0.2955 -0.5189 -0.4824
  392MOL0     C51638   3.605   5.879   2.134  0.5134  0.3506  0.7267
  392MOL0     C51639   3.486   5.916   2.071  0.4728 -0.3913  0.8274
  392MOL0     C51640   3.499   6.011   1.964 -0.1548  1.4983 -0.7676
  392MOL0     C51641   3.386   6.055   1.889 -0.9074  0.2384 -0.0792
  392MOL0     O51642   3.274   5.999   1.916  0.9346 -0.0743 -0.0386
  392MOL0     C51643   3.155   6.061   1.872  0.4814 -1.5694  0.7701
  392MOL0     C51644   3.135   6.195   1.824 -0.6040 -0.1946 -0.3062
  392MOL0     C51645   3.004   6.251   1.799  0.6420  0.1530 -0.0271
  392MOL0     C51646   2.894   6.162   1.806 -0.1908 -0.4404  0.0642
  392MOL0     O51647   2.769   6.202   1.775 -0.3343  0.0121 -0.4723
  392MOL0     C51648   2.685   6.185   1.878 -0.0676  0.9208 -0.2371
  392MOL0     C51649   2.552   6.227   1.823  0.3176 -0.1210  0.8130
  392MOL0     C51650   2.458   6.252   1.946  0.1095 -0.7677  0.4535
  392MOL0     C51651   2.323   6.324   1.895 -0.3177  0.9736  0.1876
  392MOL0     C51652   2.211   6.220   1.870  0.7650 -0.1818 -0.2591
  392MOL0     C51653   2.080   6.288   1.843 -0.0014  0.6909  0.8730
  392MOL0     C51654   1.987   6.180   1.774  0.1694  0.3050 -1.1689
  392MOL0     C51655   1.839   6.210   1.785 -0.5655  0.3029  0.0853
  392MOL0    Cl51656   1.800   6.209   1.958  0.2075 -0.2604 -0.0306
  392MOL0     C51657   2.920   6.028   1.836  0.1343 -0.2650 -0.8415
  392MOL0     C51658   3.042   5.985   1.885 -0.0397 -0.0221  0.1646
  392MOL0     O51659   3.412   6.141   1.804  0.5769  0.6157  0.5624
  392MOL0     C51660   3.619   6.078   1.950  1.4767  0.8780  0.5266
  392MOL0     C51661   3.723   6.051   2.031 -0.2459  0.4484 -0.0796
  392MOL0     N51662   4.453   6.035   2.235 -0.5955 -0.5559  0.1553
  392MOL0     N51663   4.546   6.104   2.293 -0.5718  0.5255 -0.4695
  392MOL0     C51664   4.521   5.770   3.369  0.5648 -0.6378  0.7148
  392MOL0     C51665   4.385   5.777   3.337  0.2083  0.0593 -0.7572
  392MOL0     C51666   4.005   5.831   3.108 -0.4854 -0.1290 -1.0438
  392MOL0     C51667   3.957   5.719   3.031 -0.4789 -0.4108  0.1578
  392MOL0     C51668   3.833   5.721   2.967  0.9685  0.9714  0.4650
  392MOL0     C51669   3.760   5.838   2.972  0.0128 -0.5832 -0.1539
  392MOL0     O51670   3.633   5.827   2.925  0.0950 -0.4038 -0.0109
  392MOL0     C51671   3.553   5.946   2.912 -0.0188  0.1037  0.3776
  392MOL0     C51672   3.421   5.903   2.839  0.1955 -0.3712  0.0413
  392MOL0     C51673   3.325   5.834   2.936 -0.0645 -0.5668 -0.1790
  392MOL0     C51674   3.198   5.796   2.866  0.3175 -0.7266 -0.5868
  392MOL0     C51675   3.107   5.902   2.813  0.3258 -0.4515 -0.2608
  392MOL0     C51676   3.033   5.978   2.753  0.7390  0.0263 -0.4192
  392MOL0     C51677   3.812   5.952   3.030 -0.2251  0.0099 -0.7717
  392MOL0     C51678   3.927   5.945   3.109 -0.0180 -0.1234 -0.5157
  392MOL0     H51679   4.371   5.580   3.068  2.0458  0.9691 -1.6597
  392MOL0     H51680   4.631   5.584   3.106  2.6059  2.7049 -0.6474
  392MOL0     H51681   4.836   5.596   3.202  0.1053  0.5795 -1.4684
  392MOL0     H51682   4.930   5.714   3.307 -0.6985 -0.6516  1.3229
  392MOL0     H51683   4.955   5.742   3.068 -0.5462 -2.0976  0.1675
  392MOL0     H51684   4.912   5.885   3.185  1.1982  2.3752 -2.7854
  392MOL0     H51685   4.691   5.875   3.088 -0.9269  1.0037 -2.5822
  392MOL0     H51686   4.739   5.733   2.992 -0.3212 -0.6924 -0.5347
  392MOL0     H51687   4.840   6.024   2.992 -1.2474 -0.3781  0.3279
  392MOL0     H51688   4.919   5.892   2.890  1.6162 -0.6452  3.4250
  392MOL0     H51689   4.627   5.996   2.855 -0.9999 -2.0224 -0.0307
  392MOL0     H51690   4.688   5.844   2.790 -1.6102  2.1746 -5.0593
  392MOL0     H51691   4.856   5.938   2.671  0.0321  0.0895  1.8823
  392MOL0     H51692   4.798   6.100   2.722  2.2893 -1.1051  1.4360
  392MOL0     H51693   4.708   5.961   2.489 -1.6065  0.7026  0.1256
  392MOL0     H51694   4.583   5.923   2.600 -0.8017 -0.7515 -2.1225
  392MOL0     H51695   4.677   6.197   2.509 -2.0289  2.2544 -0.8172
  392MOL0     H51696   4.548   6.178   2.635  0.1893  0.3974  0.0486
  392MOL0     H51697   4.339   6.033   2.539 -1.1886 -0.4174  0.2470
  392MOL0     H51698   4.162   5.912   2.360  0.0333  0.3214 -0.8463
  392MOL0     H51699   4.272   5.825   2.245  2.4389  1.1959 -1.1057
  392MOL0     H51700   4.229   5.995   2.078  1.1085 -2.5674  0.7627
  392MOL0     H51701   4.161   6.095   2.196  0.1027 -1.0359  0.8161
  392MOL0     H51702   3.984   5.990   2.028 -0.7733  2.3778  0.9976
  392MOL0     H51703   4.022   5.842   2.103  0.7129  0.0642 -3.8308
  392MOL0     H51704   3.904   6.096   2.231 -1.3436 -0.1580 -1.0073
  392MOL0     H51705   3.954   5.977   2.340 -2.3139 -2.6349  0.0407
  392MOL0     H51706   3.600   5.794   2.202  0.3906  1.3419  1.9997
  392MOL0     H51707   3.394   5.859   2.082 -0.4114  0.6063 -0.9398
  392MOL0     H51708   3.213   6.268   1.808  1.4941 -2.2438  0.1217
  392MOL0     H51709   2.990   6.356   1.778  1.8730  0.0287 -1.6169
  392MOL0     H51710   2.706   6.245   1.968  2.8120  1.8727 -1.4030
  392MOL0     H51711   2.678   6.084   1.917 -0.0685  0.8299 -0.4719
  392MOL0     H51712   2.515   6.159   1.746 -0.4800 -1.1681  2.0738
  392MOL0     H51713   2.565   6.324   1.774 -0.1248 -0.5294 -0.1200
  392MOL0     H51714   2.506   6.318   2.019 -1.1902  2.3049 -1.2485
  392MOL0     H51715   2.431   6.158   1.995 -1.4512 -0.7407 -0.2893
  392MOL0     H51716   2.280   6.403   1.958 -1.3721  1.0185 -0.5576
  392MOL0     H51717   2.338   6.378   1.801 -1.2988  0.2131 -0.4220
  392MOL0     H51718   2.197   6.166   1.965 -1.5387  2.4059  1.0117
  392MOL0     H51719   2.244   6.168   1.780  0.0048  2.4023 -2.1158
  392MOL0     H51720   2.089   6.372   1.775 -0.9166 -0.0901 -0.2545
  392MOL0     H51721   2.044   6.328   1.938 -1.8738 -0.3936  0.6670
  392MOL0     H51722   2.014   6.164   1.670 -2.4308 -1.6068 -1.6644
  392MOL0     H51723   1.999   6.082   1.822  0.0024 -0.4424 -2.6044
  392MOL0     H51724   1.767   6.148   1.730 -5.5651  1.2130  4.8211
  392MOL0     H51725   1.817   6.311   1.750 -0.3101  1.1011  2.1004
  392MOL0     H51726   2.838   5.957   1.835 -0.6850  0.5964  0.6223
  392MOL0     H51727   3.049   5.883   1.921 -1.0634 -0.3942 -0.6401
  392MOL0     H51728   3.633   6.153   1.873  0.0066 -2.9786 -3.9323
  392MOL0     H51729   3.810   6.116   2.025  0.4299 -0.2959  1.3607
  392MOL0     H51730   4.556   5.816   3.460 -1.9017 -0.1381  1.4845
  392MOL0     H51731   4.321   5.831   3.406 -1.7303 -1.6256 -1.1477
  392MOL0     H51732   4.020   5.631   3.034 -0.8914 -0.6994  0.5391
  392MOL0     H51733   3.796   5.629   2.925 -1.9977  2.9724 -1.7415
  392MOL0     H51734   3.607   6.013   2.844 -3.4096  1.9095 -0.7657
  392MOL0     H51735   3.540   6.002   3.004 -0.2881 -3.5510  2.7652
  392MOL0     H51736   3.379   5.992   2.789  0.3816  0.6170  1.5749
  392MOL0     H51737   3.442   5.832   2.759  1.0059  0.0451 -0.1312
  392MOL0     H51738   3.296   5.890   3.025  3.0372  0.0157  0.5565
  392MOL0     H51739   3.371   5.740   2.966  2.2933  0.8520  0.9694
  392MOL0     H51740   3.222   5.723   2.789  1.8318 -0.3941 -0.4616
  392MOL0     H51741   3.130   5.750   2.939 -3.0551  1.4934 -2.1218
  392MOL0     H51742   2.965   6.033   2.691 -1.3441 -0.9018  0.9605
  392MOL0     H51743   3.752   6.042   3.040  0.6305  0.4839  0.2510
  392MOL0     H51744   3.955   6.019   3.184  2.2968 -0.9918 -0.4305
  393MOL0     O51745  10.978   7.419   8.028  0.0080 -0.4708 -0.5778
  393MOL0     C51746  10.956   7.299   8.051  0.3129  0.6871 -0.0794
  393MOL0     O51747  10.906   7.198   7.963 -0.6153 -0.6335 -0.1147
  393MOL0     C51748  10.904   7.223   7.829 -0.0160  0.1940 -0.9762
  393MOL0     C51749  11.002   7.299   7.766  0.5358  0.5805  0.3170
  393MOL0     C51750  10.993   7.340   7.630  1.7172  0.3667 -0.4523
  393MOL0     C51751  10.875   7.302   7.551  0.0194  0.8695 -0.6726
  393MOL0     O51752  10.857   7.351   7.428  0.3428 -0.1159  0.8896
  393MOL0     C51753  10.801   7.261   7.336 -0.1062  0.0696  0.4642
  393MOL0     C51754  10.852   7.279   7.191  0.0850  0.1390  0.1777
  393MOL0     C51755  10.870   7.427   7.156  0.3233  0.4601 -0.2426
  393MOL0     C51756  10.898   7.436   7.003 -1.0792  0.1115  0.2362
  393MOL0     C51757  10.933   7.581   6.987  0.0305  0.2991 -0.7969
  393MOL0     C51758  11.002   7.629   6.865  0.6315  1.6132  0.7632
  393MOL0     C51759  10.998   7.778   6.873  0.2805 -0.1947 -0.1176
  393MOL0     C51760  11.078   7.858   6.774  0.1192 -0.1903 -0.5035
  393MOL0     N51761  11.043   7.840   6.632  0.4473  0.0564  0.0359
  393MOL0     C51762  11.136   7.841   6.531 -0.1893 -0.0887  0.4557
  393MOL0     C51763  11.072   7.855   6.415 -0.0912 -0.2476 -0.2711
  393MOL0     C51764  11.133   7.859   6.282 -0.4823 -0.0045 -0.4647
  393MOL0     C51765  11.217   7.733   6.256 -0.9319  0.0465 -0.3523
  393MOL0     C51766  11.136   7.604   6.222 -0.0877  0.3363  0.1258
  393MOL0     C51767  11.222   7.477   6.198  0.2600  0.5057  0.6437
  393MOL0     O51768  11.138   7.377   6.139 -0.6603 -0.9515  0.1095
  393MOL0     C51769  11.190   7.287   6.058 -0.0215  0.5094  0.1369
  393MOL0     C51770  11.116   7.218   5.967 -0.4240  0.5563 -0.5002
  393MOL0     C51771  11.176   7.128   5.880  0.0317 -0.2979  1.1146
  393MOL0     C51772  11.301   7.080   5.900 -0.0496  0.5097  0.6676
  393MOL0     C51773  11.365   6.975   5.809 -0.2906 -0.0623 -0.0465
  393MOL0     O51774  11.501   6.950   5.827 -0.0169 -0.0629  0.0196
  393MOL0     C51775  11.567   6.865   5.740 -0.3750 -0.6054 -1.0048
  393MOL0     C51776  11.539   6.869   5.607  0.1631  0.5821  0.1091
  393MOL0     C51777  11.621   6.790   5.529 -0.7146  0.6168  0.3745
  393MOL0     C51778  11.722   6.690   5.572  1.1950 -0.1984 -0.4991
  393MOL0     O51779  11.791   6.610   5.490  0.8530  0.5995 -0.0032
  393MOL0     C51780  11.905   6.550   5.540 -0.8404 -0.1303  0.1728
  393MOL0     C51781  11.964   6.465   5.422 -0.3669 -0.4954 -0.5861
  393MOL0     C51782  12.008   6.567   5.310  0.6878  0.2638  0.0813
  393MOL0     C51783  12.093   6.504   5.193 -0.3962 -0.0182 -0.1471
  393MOL0     C51784  12.095   6.588   5.074 -0.0653  0.7239  0.4135
  393MOL0     C51785  12.203   6.540   4.975  0.9934  0.8519  0.2839
  393MOL0     C51786  12.190   6.593   4.825  0.6400  0.0008 -0.1133
  393MOL0     C51787  12.265   6.506   4.724 -0.0179  0.1267 -1.0102
  393MOL0    Cl51788  12.184   6.347   4.726  0.4241  0.1759  0.1045
  393MOL0     C51789  11.735   6.693   5.712 -0.2975  0.1780  0.2070
  393MOL0     C51790  11.664   6.781   5.792 -0.3772  0.5440 -0.0769
  393MOL0     O51791  11.284   6.904   5.746 -0.7862  0.8973  0.8651
  393MOL0     C51792  11.378   7.128   6.014 -0.4365  0.1178  0.4750
  393MOL0     C51793  11.320   7.233   6.089  0.2614 -0.6764  0.2632
  393MOL0     N51794  10.942   7.835   6.437  1.2478 -0.4882 -0.3982
  393MOL0     N51795  10.921   7.834   6.565  0.3653  0.2298 -0.7255
  393MOL0     C51796  10.770   7.231   7.619  0.5463  0.4361 -0.5151
  393MOL0     C51797  10.790   7.191   7.753  0.6598 -0.4539  0.0267
  393MOL0     C51798  10.990   7.247   8.194 -1.4681 -0.2562  0.3334
  393MOL0     C51799  11.069   7.330   8.275 -0.8595 -0.6993 -0.0467
  393MOL0     C51800  11.082   7.297   8.412  0.1687 -0.4239 -0.8617
  393MOL0     C51801  11.024   7.185   8.472 -0.3119  0.1058  0.4238
  393MOL0     O51802  11.024   7.152   8.605  0.3264  0.5073  0.6190
  393MOL0     C51803  11.100   7.222   8.702  0.5222  0.3905 -0.1363
  393MOL0     C51804  11.228   7.147   8.739  0.6133  0.1606  1.0356
  393MOL0     C51805  11.319   7.229   8.819  0.4135 -0.5667 -0.6683
  393MOL0     C51806  11.266   7.299   8.950  1.3806  0.2396 -0.2009
  393MOL0     C51807  11.229   7.201   9.058  1.0875 -0.2200 -0.0191
  393MOL0     C51808  11.177   7.107   9.115  0.2755 -0.2437 -0.9875
  393MOL0     C51809  10.945   7.101   8.387  0.2015  0.5910 -0.1187
  393MOL0     C51810  10.940   7.129   8.249  0.8525 -0.0295  0.3937
  393MOL0     H51811  11.095   7.328   7.815  1.3453 -1.5653  0.1425
  393MOL0     H51812  11.081   7.383   7.586  2.7821  0.0001  1.2183
  393MOL0     H51813  10.693   7.279   7.335 -0.4041 -1.2855  2.7126
  393MOL0     H51814  10.817   7.158   7.369 -0.8720  0.8204  3.4374
  393MOL0     H51815  10.789   7.226   7.119 -1.2186 -0.6568  1.8268
  393MOL0     H51816  10.951   7.234   7.186 -0.6208 -1.3720 -0.9222
  393MOL0     H51817  10.966   7.457   7.198  2.1925 -3.6010 -1.1237
  393MOL0     H51818  10.780   7.484   7.178  0.5091  1.1467 -1.1975
  393MOL0     H51819  10.983   7.376   6.972  0.1574  1.0306  1.6852
  393MOL0     H51820  10.805   7.410   6.951  0.2085 -1.0835 -1.5558
  393MOL0     H51821  10.993   7.618   7.071  0.4966 -0.8149 -0.6264
  393MOL0     H51822  10.837   7.635   6.995  0.7518  1.8509 -2.1023
  393MOL0     H51823  10.972   7.595   6.766  2.7486  1.0145  0.2942
  393MOL0     H51824  11.104   7.591   6.875 -0.2386 -0.7947  1.1653
  393MOL0     H51825  10.894   7.811   6.863  1.0437  1.7204 -2.9887
  393MOL0     H51826  11.042   7.803   6.970  0.9307 -1.1592 -0.1510
  393MOL0     H51827  11.182   7.824   6.778  1.1779  2.9543  1.3768
  393MOL0     H51828  11.087   7.959   6.813 -0.6804 -0.2451 -0.1417
  393MOL0     H51829  11.238   7.878   6.545 -1.2444  2.7648  1.2226
  393MOL0     H51830  11.210   7.937   6.281  0.9822 -1.3953 -0.5667
  393MOL0     H51831  11.049   7.878   6.215 -0.1584  2.2616 -0.3034
  393MOL0     H51832  11.286   7.701   6.335 -1.3092 -1.1415 -0.4707
  393MOL0     H51833  11.278   7.764   6.172  1.0422 -1.3928  0.4684
  393MOL0     H51834  11.078   7.584   6.312  2.8921  1.3822  2.4426
  393MOL0     H51835  11.076   7.618   6.131  0.8628 -0.3779 -0.6266
  393MOL0     H51836  11.274   7.454   6.291  1.1664  2.6295  0.7293
  393MOL0     H51837  11.297   7.495   6.120 -3.4065 -1.5651 -3.8773
  393MOL0     H51838  11.015   7.253   5.949  0.1190  2.7796  0.4219
  393MOL0     H51839  11.126   7.097   5.789 -0.8720  4.3933 -0.2398
  393MOL0     H51840  11.466   6.938   5.566 -0.1126 -0.1994 -0.7553
  393MOL0     H51841  11.608   6.798   5.421  2.5517 -1.1790 -0.3109
  393MOL0     H51842  11.882   6.489   5.627  2.8499  1.5806  2.5983
  393MOL0     H51843  11.980   6.624   5.569 -0.5578 -0.7438  1.0635
  393MOL0     H51844  11.888   6.390   5.398  0.5691 -0.7089 -3.1097
  393MOL0     H51845  12.058   6.414   5.444  0.5248  2.4206  3.6732
  393MOL0     H51846  12.066   6.636   5.371 -1.8254 -1.4277  4.9503
  393MOL0     H51847  11.918   6.619   5.275 -0.6840 -0.4102  2.3338
  393MOL0     H51848  12.199   6.500   5.218  0.7738  0.6506 -4.2469
  393MOL0     H51849  12.053   6.406   5.166 -2.1094  0.1584  1.4878
  393MOL0     H51850  12.117   6.693   5.094 -1.1937  1.1209 -0.3101
  393MOL0     H51851  11.998   6.573   5.026 -0.5169 -1.3545  1.8420
  393MOL0     H51852  12.192   6.432   4.973  2.1683  0.6925 -2.5880
  393MOL0     H51853  12.304   6.550   5.016  0.1057  0.1117  2.7784
  393MOL0     H51854  12.082   6.601   4.808  0.8021  1.0628 -0.6978
  393MOL0     H51855  12.224   6.696   4.813 -1.2432  0.6052 -0.6389
  393MOL0     H51856  12.363   6.484   4.766 -0.3710 -1.6341 -1.0210
  393MOL0     H51857  12.284   6.545   4.624  0.1475  3.6507  0.2541
  393MOL0     H51858  11.807   6.634   5.766 -2.7931 -0.6765  2.8501
  393MOL0     H51859  11.683   6.782   5.898  0.0713  1.0346 -0.1591
  393MOL0     H51860  11.477   7.100   6.050 -0.2448  0.1010 -0.0615
  393MOL0     H51861  11.380   7.277   6.167  0.3626 -0.5837  0.1339
  393MOL0     H51862  10.678   7.199   7.574  1.0699 -0.0295 -1.2745
  393MOL0     H51863  10.710   7.145   7.811  1.0375  0.4568  1.3104
  393MOL0     H51864  11.112   7.418   8.229 -0.6999 -1.0971 -0.6602
  393MOL0     H51865  11.131   7.371   8.475  0.1653 -2.4069  1.6313
  393MOL0     H51866  11.055   7.245   8.799  3.0829  2.9918  0.6163
  393MOL0     H51867  11.107   7.328   8.675 -5.6342  1.1196 -0.2055
  393MOL0     H51868  11.201   7.070   8.812 -2.8600 -1.6318 -1.8463
  393MOL0     H51869  11.273   7.092   8.656  3.0734  0.1387  2.2560
  393MOL0     H51870  11.362   7.303   8.751  1.1060  0.1627  0.5443
  393MOL0     H51871  11.394   7.159   8.855 -2.8026 -3.6807  0.6516
  393MOL0     H51872  11.334   7.372   8.994  0.3227 -0.2310  2.4261
  393MOL0     H51873  11.182   7.362   8.920  0.8677 -1.3257 -2.2811
  393MOL0     H51874  11.137   7.037   9.186  0.3947 -3.7203 -4.0376
  393MOL0     H51875  10.893   7.012   8.423  2.2639  0.0303  1.6548
  393MOL0     H51876  10.885   7.072   8.176  1.4453  1.3840 -1.2195
  394MOL0     O51877   8.317   2.534   8.360 -0.5514  0.8936 -0.0530
  394MOL0     C51878   8.299   2.558   8.243 -0.1880 -0.2793 -0.2752
  394MOL0     O51879   8.405   2.584   8.156  0.6234  0.1817  0.2078
  394MOL0     C51880   8.530   2.557   8.198  0.1168  0.3815  0.1180
  394MOL0     C51881   8.593   2.478   8.107  0.3640 -0.1938 -0.1641
  394MOL0     C51882   8.730   2.434   8.124  0.9261  0.2366  0.4530
  394MOL0     C51883   8.799   2.491   8.230 -1.3088 -0.0373 -1.3532
  394MOL0     O51884   8.926   2.453   8.270  0.3329 -0.6254 -0.1826
  394MOL0     C51885   8.998   2.344   8.211 -0.1726 -0.7001  0.0061
  394MOL0     C51886   9.138   2.325   8.278 -0.5114 -0.0699 -0.2401
  394MOL0     C51887   9.228   2.194   8.248  0.0541  0.0127 -0.0691
  394MOL0     C51888   9.361   2.205   8.318  0.5906 -0.2344 -0.4219
  394MOL0     C51889   9.457   2.116   8.245  0.1104  0.9498  0.5109
  394MOL0     C51890   9.600   2.129   8.298 -0.4119  0.0609  0.5374
  394MOL0     C51891   9.666   2.002   8.271 -0.3722  0.6961  1.0821
  394MOL0     C51892   9.810   1.994   8.309  0.3147 -0.5087 -0.0973
  394MOL0     N51893   9.828   1.978   8.455  0.1709 -0.3804  0.2056
  394MOL0     C51894   9.892   1.870   8.505  0.9292 -0.5268  0.4467
  394MOL0     C51895   9.923   1.895   8.636 -0.5224  0.3278 -0.2752
  394MOL0     C51896   9.971   1.798   8.742 -0.2753  0.2643  0.3490
  394MOL0     C51897   9.900   1.660   8.740 -1.6086 -0.1449  0.4873
  394MOL0     C51898   9.738   1.660   8.767 -2.0786  0.0655  0.3836
  394MOL0     C51899   9.697   1.730   8.896 -0.1370 -0.4116  0.7350
  394MOL0     O51900   9.558   1.697   8.923 -0.4074  0.0949 -0.8623
  394MOL0     C51901   9.458   1.761   8.864 -0.7611  0.1665  0.2756
  394MOL0     C51902   9.331   1.697   8.879  0.8858 -0.0612 -0.3794
  394MOL0     C51903   9.221   1.739   8.811  0.1264 -0.5701  0.5260
  394MOL0     C51904   9.224   1.844   8.718  0.5137  0.3984 -0.0340
  394MOL0     C51905   9.103   1.884   8.647 -0.5360 -0.6229 -1.0152
  394MOL0     O51906   9.117   1.953   8.532 -0.0909 -0.0399  0.5007
  394MOL0     C51907   9.002   1.968   8.462 -0.2797 -0.0723  0.2116
  394MOL0     C51908   8.960   1.880   8.365  0.7592  0.4713 -0.3382
  394MOL0     C51909   8.838   1.909   8.289  0.1857  1.0498  0.1545
  394MOL0     C51910   8.750   2.013   8.324  0.3915  0.4904  0.3880
  394MOL0     O51911   8.626   2.000   8.268 -0.0708  0.6900  0.3677
  394MOL0     C51912   8.543   2.121   8.284  0.3980 -0.0956 -0.8483
  394MOL0     C51913   8.420   2.083   8.198  0.5808  0.7819 -0.9251
  394MOL0     C51914   8.329   1.995   8.283  0.6761  0.6810  0.1440
  394MOL0     C51915   8.233   2.084   8.370 -0.1207  0.1543  0.4926
  394MOL0     C51916   8.117   2.000   8.433  0.6278  0.0128 -0.5813
  394MOL0     C51917   8.151   1.953   8.574  0.5081 -0.1135 -0.0045
  394MOL0     C51918   8.045   1.859   8.644 -0.7863  0.0112  0.9369
  394MOL0     C51919   8.099   1.805   8.774  0.5252  0.1884 -0.2294
  394MOL0    Cl51920   7.962   1.733   8.857  0.6073  0.2862 -0.0568
  394MOL0     C51921   8.788   2.092   8.428  0.1070 -0.9276  0.2312
  394MOL0     C51922   8.911   2.077   8.493  0.1136  1.1400  0.4218
  394MOL0     O51923   8.997   1.825   8.680  0.0326 -0.3110  0.3811
  394MOL0     C51924   9.346   1.915   8.711  0.4394 -0.8553 -0.1807
  394MOL0     C51925   9.459   1.871   8.782 -0.2263 -0.3858 -0.0022
  394MOL0     N51926   9.869   2.018   8.665 -0.1756 -0.7603  0.1088
  394MOL0     N51927   9.813   2.071   8.558 -0.4540  0.3464 -0.0699
  394MOL0     C51928   8.744   2.581   8.321  0.2754 -0.0731  0.7370
  394MOL0     C51929   8.604   2.609   8.310  0.7916  0.2585  0.6596
  394MOL0     C51930   8.158   2.563   8.208  0.5718  0.2380  0.0503
  394MOL0     C51931   8.115   2.621   8.084 -0.6157  0.0159 -0.5803
  394MOL0     C51932   7.986   2.611   8.042 -0.9141  0.8159  0.8850
  394MOL0     C51933   7.889   2.560   8.117 -0.1409  0.1428  0.0966
  394MOL0     O51934   7.765   2.539   8.056  0.6428  0.2245 -0.2971
  394MOL0     C51935   7.656   2.527   8.145 -0.0985  0.2003  0.6119
  394MOL0     C51936   7.528   2.464   8.083 -0.0332 -0.4613 -1.0705
  394MOL0     C51937   7.394   2.493   8.163 -0.1761 -0.0689 -0.1049
  394MOL0     C51938   7.345   2.637   8.148  0.6974  0.8496 -0.9140
  394MOL0     C51939   7.220   2.646   8.221 -0.6473  0.1282  0.8590
  394MOL0     C51940   7.112   2.682   8.260 -0.4334  0.8390  0.0028
  394MOL0     C51941   7.914   2.526   8.244 -0.0526 -0.4418 -0.0449
  394MOL0     C51942   8.046   2.531   8.293  0.0242  0.3040  0.3162
  394MOL0     H51943   8.538   2.431   8.026  1.5036 -2.5504  0.3217
  394MOL0     H51944   8.756   2.368   8.043 -0.6121  2.4667 -2.0247
  394MOL0     H51945   9.011   2.371   8.106  1.1057  2.8375  0.9402
  394MOL0     H51946   8.945   2.249   8.222  2.6839 -2.2653  1.4726
  394MOL0     H51947   9.128   2.335   8.387  1.9418  1.7988 -0.0941
  394MOL0     H51948   9.200   2.405   8.237 -1.1953  0.0600 -1.0365
  394MOL0     H51949   9.239   2.201   8.139  3.5547  1.5405  0.2502
  394MOL0     H51950   9.184   2.096   8.271  0.1728 -0.4187 -1.5490
  394MOL0     H51951   9.400   2.307   8.318 -0.1568  0.0815  1.2965
  394MOL0     H51952   9.353   2.164   8.419 -1.6057 -0.9842 -0.8410
  394MOL0     H51953   9.455   2.128   8.136 -0.4659 -0.4746  0.3463
  394MOL0     H51954   9.427   2.012   8.262  0.2601  0.8627  0.2655
  394MOL0     H51955   9.602   2.131   8.407 -0.1902  1.2631  0.5256
  394MOL0     H51956   9.648   2.218   8.257  0.4937 -1.0116 -0.8634
  394MOL0     H51957   9.619   1.925   8.334 -0.0781 -1.0098 -0.6620
  394MOL0     H51958   9.655   1.969   8.167  0.8212  1.7163  0.6093
  394MOL0     H51959   9.862   2.086   8.277 -1.3939  0.2343 -0.8357
  394MOL0     H51960   9.859   1.915   8.251  1.4197  0.0831 -0.0144
  394MOL0     H51961   9.909   1.768   8.472  0.9750 -0.8654  1.4695
  394MOL0     H51962   9.966   1.846   8.840  1.6289  0.4948  0.3687
  394MOL0     H51963  10.077   1.775   8.734 -0.7818 -1.5791 -3.7033
  394MOL0     H51964   9.936   1.597   8.821 -1.7118 -0.7804  0.0422
  394MOL0     H51965   9.933   1.610   8.649  0.5402  2.0924 -0.0681
  394MOL0     H51966   9.688   1.707   8.682 -2.3693 -1.5614 -0.3824
  394MOL0     H51967   9.708   1.556   8.755  2.3446 -1.2032 -1.7505
  394MOL0     H51968   9.706   1.839   8.888 -0.6806 -0.5050 -2.5021
  394MOL0     H51969   9.759   1.679   8.970 -0.7932 -1.9084  0.2934
  394MOL0     H51970   9.318   1.608   8.940 -1.5430  0.8448  0.5252
  394MOL0     H51971   9.129   1.686   8.835 -0.8510 -0.2453 -2.1790
  394MOL0     H51972   9.016   1.792   8.337 -0.7527 -0.0795 -1.7769
  394MOL0     H51973   8.815   1.839   8.209  1.4930 -1.0195  1.4987
  394MOL0     H51974   8.588   2.214   8.247  1.1225  0.3958  1.1161
  394MOL0     H51975   8.502   2.146   8.382 -0.6122  0.4625 -1.3927
  394MOL0     H51976   8.451   2.043   8.100  0.7392  0.9914 -0.9630
  394MOL0     H51977   8.369   2.174   8.165 -0.6979 -0.3042 -2.0432
  394MOL0     H51978   8.397   1.937   8.345 -0.9246 -1.9309 -0.3949
  394MOL0     H51979   8.263   1.928   8.227 -0.5529  1.8743  0.0875
  394MOL0     H51980   8.275   2.144   8.451 -2.8448  0.3323  1.8928
  394MOL0     H51981   8.179   2.157   8.307 -0.8169  0.3924  1.3476
  394MOL0     H51982   8.097   1.912   8.372  0.0254  0.2862 -0.7897
  394MOL0     H51983   8.033   2.070   8.435  1.0166  0.4648  0.3952
  394MOL0     H51984   8.165   2.042   8.635  0.3088  0.2305 -0.4610
  394MOL0     H51985   8.242   1.893   8.580 -0.1577 -1.0590  1.1357
  394MOL0     H51986   7.946   1.901   8.664 -0.7654 -0.1338  1.3513
  394MOL0     H51987   8.015   1.775   8.580 -2.4258  1.9067 -0.9229
  394MOL0     H51988   8.148   1.890   8.822 -2.5471  1.2568  1.3468
  394MOL0     H51989   8.173   1.728   8.754  1.9848  1.2026  1.0508
  394MOL0     H51990   8.730   2.175   8.468  2.3462  2.3684 -2.7688
  394MOL0     H51991   8.930   2.149   8.572  1.0096  1.4420 -0.0521
  394MOL0     H51992   9.350   2.004   8.649 -0.1378 -0.7424 -0.0679
  394MOL0     H51993   9.548   1.926   8.754  1.9644 -2.2737  2.7516
  394MOL0     H51994   8.812   2.619   8.397  1.9925 -0.0542 -0.7507
  394MOL0     H51995   8.536   2.675   8.364  1.4290  0.2637  1.4853
  394MOL0     H51996   8.184   2.666   8.014 -0.5054  0.4115 -0.2169
  394MOL0     H51997   7.965   2.648   7.943  2.5063  0.9998  0.0876
  394MOL0     H51998   7.635   2.628   8.182 -1.7705  0.3128 -0.5796
  394MOL0     H51999   7.674   2.456   8.227  1.4974  1.6045  1.5668
  394MOL0     H52000   7.522   2.500   7.980  1.0269  1.3886 -0.5277
  394MOL0     H52001   7.531   2.355   8.077 -2.5480 -0.6863  0.1714
  394MOL0     H52002   7.407   2.462   8.267  2.3011 -2.0735 -0.8966
  394MOL0     H52003   7.308   2.435   8.127 -1.2968  1.1639  0.4994
  394MOL0     H52004   7.416   2.715   8.177  0.5563  1.5224 -2.2886
  394MOL0     H52005   7.325   2.661   8.043 -2.8288  1.9830 -0.1128
  394MOL0     H52006   7.027   2.712   8.318  0.2913  0.8224  1.1129
  394MOL0     H52007   7.844   2.480   8.314 -6.3762  1.9356 -3.8948
  394MOL0     H52008   8.067   2.505   8.397 -1.2241  3.0507  1.3501
  395MOL0     O52009   8.444   7.272   3.693 -0.4864  0.0343  0.4547
  395MOL0     C52010   8.434   7.377   3.628 -0.2602  0.3422  0.1899
  395MOL0     O52011   8.356   7.399   3.520 -0.3592 -0.2397  0.0638
  395MOL0     C52012   8.289   7.304   3.454 -0.0987  0.6575  0.4610
  395MOL0     C52013   8.311   7.163   3.463  0.1583 -0.2931  1.4385
  395MOL0     C52014   8.219   7.084   3.394 -0.2397  0.8206  0.2079
  395MOL0     C52015   8.107   7.130   3.319 -0.2169  0.4497 -0.1967
  395MOL0     O52016   8.011   7.057   3.271  0.1616  0.1349  0.1532
  395MOL0     C52017   8.045   6.930   3.230 -0.1603  1.0992 -0.3266
  395MOL0     C52018   7.914   6.843   3.184 -0.3165 -0.4733  0.1821
  395MOL0     C52019   7.939   6.706   3.111 -0.5913 -0.2626 -0.2607
  395MOL0     C52020   7.813   6.625   3.109 -1.1009  0.0209 -1.0799
  395MOL0     C52021   7.843   6.490   3.039 -1.0112  0.0851 -0.1077
  395MOL0     C52022   7.713   6.416   3.061 -0.3203 -0.0298  0.5522
  395MOL0     C52023   7.703   6.287   2.984 -0.3079  0.5476 -0.5269
  395MOL0     C52024   7.701   6.306   2.828 -0.0224  0.0473  0.1144
  395MOL0     N52025   7.581   6.245   2.765  0.2859 -0.1104  0.1600
  395MOL0     C52026   7.450   6.281   2.783  0.5874  0.5142  1.1488
  395MOL0     C52027   7.387   6.217   2.680 -0.4517  0.1325 -0.0375
  395MOL0     C52028   7.247   6.242   2.642 -0.5039 -0.0266  0.6480
  395MOL0     C52029   7.142   6.221   2.755 -0.3758 -0.3284  0.0742
  395MOL0     C52030   7.123   6.064   2.773 -0.5641 -0.5163  0.8228
  395MOL0     C52031   7.213   6.018   2.875  1.2323 -0.7083 -0.5592
  395MOL0     O52032   7.172   6.075   3.005  0.1927 -0.3589 -0.0465
  395MOL0     C52033   7.161   5.976   3.096  0.4417  0.6464  0.0915
  395MOL0     C52034   7.044   5.924   3.132  0.0723  0.0053 -1.3767
  395MOL0     C52035   7.032   5.821   3.232  0.2560 -0.5688 -0.0812
  395MOL0     C52036   7.146   5.766   3.289  0.9985  0.3903 -0.3744
  395MOL0     C52037   7.127   5.661   3.391 -0.2931 -0.6514  0.0690
  395MOL0     O52038   6.999   5.620   3.427 -0.0706 -0.3951 -0.0115
  395MOL0     C52039   6.970   5.528   3.525  0.4175 -0.7928  0.2194
  395MOL0     C52040   6.833   5.480   3.535 -0.3409 -0.8889 -0.5307
  395MOL0     C52041   6.790   5.426   3.659  0.3347 -0.5709 -0.0968
  395MOL0     C52042   6.875   5.393   3.762 -0.4324 -0.8501  0.2614
  395MOL0     O52043   6.826   5.324   3.868  0.3523 -0.1282  0.1589
  395MOL0     C52044   6.777   5.394   3.980  0.5916 -0.4450  1.1817
  395MOL0     C52045   6.895   5.383   4.086  0.1310 -0.3919  0.2732
  395MOL0     C52046   6.862   5.479   4.197 -0.8617 -0.2102 -0.6681
  395MOL0     C52047   6.980   5.487   4.304 -0.1590 -0.4590  0.1359
  395MOL0     C52048   6.928   5.597   4.402 -0.7235  0.1170  1.1283
  395MOL0     C52049   7.020   5.626   4.518 -0.5520 -0.5338  0.1301
  395MOL0     C52050   6.979   5.745   4.606  0.1046  0.1911 -0.3928
  395MOL0     C52051   6.841   5.748   4.675 -0.8346  0.6237  0.0559
  395MOL0    Cl52052   6.826   5.904   4.764  0.2542  0.5272 -0.3237
  395MOL0     C52053   7.006   5.430   3.745 -0.3469 -1.7285  0.4721
  395MOL0     C52054   7.050   5.507   3.638 -0.1687  0.1669  0.8724
  395MOL0     O52055   7.224   5.613   3.434 -0.0654 -0.4755 -0.8368
  395MOL0     C52056   7.274   5.825   3.251 -0.6281  0.3265 -0.4908
  395MOL0     C52057   7.281   5.922   3.151 -0.1653 -0.9861 -0.8601
  395MOL0     N52058   7.475   6.127   2.612 -0.5972 -0.0715  0.7041
  395MOL0     N52059   7.588   6.159   2.656 -1.2664 -0.5948 -0.3368
  395MOL0     C52060   8.099   7.263   3.296 -0.5568 -0.9459 -0.3963
  395MOL0     C52061   8.196   7.351   3.363 -0.0648  0.1045  0.7281
  395MOL0     C52062   8.524   7.478   3.676 -0.4759  0.1742  0.4331
  395MOL0     C52063   8.523   7.615   3.626  0.0218  0.1804 -0.3467
  395MOL0     C52064   8.622   7.707   3.653  0.5542  0.5822  0.2648
  395MOL0     C52065   8.726   7.680   3.742 -0.0005  0.1978 -0.1486
  395MOL0     O52066   8.824   7.770   3.783 -0.2816 -0.4199 -0.1051
  395MOL0     C52067   8.884   7.840   3.671 -0.3814  0.0252  0.0889
  395MOL0     C52068   8.914   7.983   3.709  0.0589  0.7759 -0.2160
  395MOL0     C52069   8.863   8.090   3.616  0.0207 -0.2670 -0.5086
  395MOL0     C52070   8.867   8.239   3.675  0.3411 -0.1208  0.1241
  395MOL0     C52071   9.003   8.280   3.685  0.5753  1.1272  0.6547
  395MOL0     C52072   9.114   8.331   3.676 -0.1781 -0.3911 -0.5573
  395MOL0     C52073   8.741   7.549   3.793  0.3231  0.2409 -0.7504
  395MOL0     C52074   8.633   7.454   3.762 -0.0559 -0.7504 -0.1276
  395MOL0     H52075   8.402   7.125   3.507  2.1178 -0.1083 -2.1102
  395MOL0     H52076   8.233   6.977   3.410 -1.0452  0.7760  0.6891
  395MOL0     H52077   8.096   6.871   3.306 -0.5260  1.0721 -0.0991
  395MOL0     H52078   8.113   6.941   3.145  1.8699  1.9590  1.3408
  395MOL0     H52079   7.841   6.897   3.123 -2.2658 -2.1081  0.9525
  395MOL0     H52080   7.873   6.824   3.284 -0.5046  1.4609  0.5110
  395MOL0     H52081   8.020   6.656   3.164  0.9593  0.9981 -1.3406
  395MOL0     H52082   7.967   6.706   3.005 -0.4428 -1.4409 -0.2398
  395MOL0     H52083   7.785   6.608   3.213  0.0491  0.2174 -0.7277
  395MOL0     H52084   7.738   6.689   3.062 -0.7587  1.5515  0.3766
  395MOL0     H52085   7.932   6.434   3.071 -1.7783 -1.0615  0.1079
  395MOL0     H52086   7.854   6.523   2.935 -2.4548  1.8616  0.2527
  395MOL0     H52087   7.633   6.481   3.025  0.9024  0.4154 -1.5156
  395MOL0     H52088   7.697   6.405   3.169 -2.4470  3.9379  0.7960
  395MOL0     H52089   7.796   6.233   3.006  1.1606  3.0693 -0.1644
  395MOL0     H52090   7.614   6.230   3.013  0.5072  0.4516  2.0048
  395MOL0     H52091   7.791   6.254   2.792  0.1209 -0.2815  0.9143
  395MOL0     H52092   7.713   6.410   2.798  1.9425 -0.7151 -2.0297
  395MOL0     H52093   7.407   6.349   2.855  1.2229 -2.0210  4.1159
  395MOL0     H52094   7.226   6.176   2.557 -3.9045  2.9110 -1.0335
  395MOL0     H52095   7.241   6.349   2.620 -2.6199  0.3389  2.7032
  395MOL0     H52096   7.050   6.265   2.713  0.5296  2.2627  0.6014
  395MOL0     H52097   7.180   6.265   2.848  0.8621 -0.6280 -0.2758
  395MOL0     H52098   7.020   6.034   2.793 -0.7297 -2.2494 -2.0619
  395MOL0     H52099   7.133   6.015   2.676  0.0314 -1.1920  1.2174
  395MOL0     H52100   7.318   6.042   2.859  1.1844 -0.4946 -0.5577
  395MOL0     H52101   7.212   5.909   2.868 -4.6793 -0.9002 -1.3602
  395MOL0     H52102   6.961   5.970   3.081 -0.0791  3.2107  1.4107
  395MOL0     H52103   6.937   5.776   3.257  0.1534  0.2511  1.0886
  395MOL0     H52104   6.780   5.518   3.449  0.5538  4.3810  0.8696
  395MOL0     H52105   6.682   5.409   3.653  0.3297 -0.2044 -1.1914
  395MOL0     H52106   6.682   5.360   4.021 -2.2309  2.7757 -1.9486
  395MOL0     H52107   6.756   5.498   3.951 -1.1106 -1.5250 -1.9114
  395MOL0     H52108   6.995   5.408   4.047  1.1633 -2.3853  1.4813
  395MOL0     H52109   6.896   5.284   4.132 -0.2183  0.6858  2.7790
  395MOL0     H52110   6.764   5.443   4.228 -1.4579  0.0027 -2.2290
  395MOL0     H52111   6.849   5.581   4.159 -3.1419  0.3092  1.2739
  395MOL0     H52112   6.986   5.400   4.370 -0.5003 -1.1708 -0.7526
  395MOL0     H52113   7.072   5.517   4.252 -2.0616 -2.0527 -4.6377
  395MOL0     H52114   6.830   5.573   4.445 -0.5502  1.1339  2.1185
  395MOL0     H52115   6.919   5.681   4.332  1.8141  0.2230  0.8274
  395MOL0     H52116   7.121   5.646   4.480 -1.5073  2.7798 -0.9610
  395MOL0     H52117   7.034   5.540   4.585 -1.3257 -0.2992  0.5996
  395MOL0     H52118   7.064   5.756   4.674  1.1500 -1.9621 -1.2564
  395MOL0     H52119   6.985   5.840   4.553 -1.0957  0.7667  0.4668
  395MOL0     H52120   6.839   5.662   4.741 -2.5651 -0.5936 -1.4822
  395MOL0     H52121   6.760   5.758   4.602 -1.3274  2.8127  0.8020
  395MOL0     H52122   7.078   5.412   3.825  1.8833 -0.6069 -1.1752
  395MOL0     H52123   7.153   5.541   3.643  0.9062 -2.7771  0.3723
  395MOL0     H52124   7.365   5.791   3.300 -0.4608  1.1755 -0.1960
  395MOL0     H52125   7.371   5.973   3.118  0.0757 -0.2444  0.8237
  395MOL0     H52126   8.016   7.298   3.235  0.1141  0.3095 -0.6246
  395MOL0     H52127   8.185   7.459   3.364 -1.1573  0.0032  1.2623
  395MOL0     H52128   8.449   7.635   3.549 -2.5603 -2.0021  1.3592
  395MOL0     H52129   8.613   7.806   3.608 -0.9322  0.9239  1.2312
  395MOL0     H52130   8.816   7.848   3.585 -0.8425  0.6038  0.4983
  395MOL0     H52131   8.969   7.778   3.643  0.4759  0.4743  1.5946
  395MOL0     H52132   8.865   8.001   3.805  1.1856 -0.5628  0.6537
  395MOL0     H52133   9.021   7.999   3.721  0.2316 -1.1640  1.4349
  395MOL0     H52134   8.760   8.078   3.584 -0.3412  1.2624 -0.0195
  395MOL0     H52135   8.926   8.080   3.528  0.3029 -0.8907 -0.2456
  395MOL0     H52136   8.801   8.293   3.607  1.8330 -0.2318 -1.4984
  395MOL0     H52137   8.815   8.242   3.770 -0.0007  1.2614 -0.0886
  395MOL0     H52138   9.213   8.372   3.674 -0.6183  0.6258 -1.9167
  395MOL0     H52139   8.823   7.517   3.856 -0.2236  2.7641  1.4035
  395MOL0     H52140   8.651   7.356   3.806  2.5720  0.6843  2.3819
  396MOL0     O52141   9.052   4.158   1.513 -0.6161 -0.1240 -0.1248
  396MOL0     C52142   9.026   4.267   1.466  0.1789  0.0453  0.0141
  396MOL0     O52143   9.110   4.367   1.446  0.4149 -0.0011  0.4133
  396MOL0     C52144   9.248   4.342   1.457 -0.5055  0.5671 -0.3455
  396MOL0     C52145   9.322   4.425   1.543  0.9189  0.1782 -0.1682
  396MOL0     C52146   9.459   4.410   1.556  0.3445 -0.4106 -0.6600
  396MOL0     C52147   9.523   4.308   1.489 -0.9687  0.2604 -0.2712
  396MOL0     O52148   9.660   4.291   1.507 -0.0940 -0.2031 -1.0596
  396MOL0     C52149   9.719   4.298   1.640  0.7582  0.8925 -0.5599
  396MOL0     C52150   9.872   4.324   1.625  0.1515  0.5690 -0.3382
  396MOL0     C52151   9.904   4.444   1.531  0.4843  0.0948  0.5954
  396MOL0     C52152   9.902   4.574   1.605 -0.0948 -0.2025  0.0323
  396MOL0     C52153   9.930   4.680   1.498 -0.9165  0.0810  0.2564
  396MOL0     C52154   9.950   4.817   1.561 -0.1124 -0.9449  0.2774
  396MOL0     C52155  10.077   4.838   1.648 -0.2863 -0.3704 -0.3494
  396MOL0     C52156  10.208   4.805   1.583 -0.8629  0.0348  0.5337
  396MOL0     N52157  10.321   4.829   1.687  0.8265 -0.8730  0.6705
  396MOL0     C52158  10.355   4.769   1.800 -0.7886  0.2792  0.0981
  396MOL0     C52159  10.476   4.819   1.839  0.8435 -0.2036  0.7111
  396MOL0     C52160  10.544   4.796   1.978  0.5349 -0.2451 -0.1533
  396MOL0     C52161  10.680   4.720   1.966  0.4131 -0.6321 -0.4895
  396MOL0     C52162  10.689   4.582   1.896 -0.4804 -0.7379  0.4182
  396MOL0     C52163  10.831   4.524   1.910 -0.3136  0.6777  0.0520
  396MOL0     O52164  10.919   4.569   1.815 -0.2718 -1.0703  0.9849
  396MOL0     C52165  10.937   4.482   1.712  0.5584 -0.4913  0.4411
  396MOL0     C52166  10.910   4.529   1.580 -0.0491 -0.0167  0.8295
  396MOL0     C52167  10.882   4.429   1.480  0.9016 -0.1686 -0.4312
  396MOL0     C52168  10.907   4.291   1.502  0.0027  0.6557 -0.4830
  396MOL0     C52169  10.868   4.170   1.415  0.8159  0.1992  0.1746
  396MOL0     O52170  10.855   4.189   1.279  0.2999 -0.2080 -0.2653
  396MOL0     C52171  10.850   4.086   1.185 -0.2388 -0.1162  0.2536
  396MOL0     C52172  10.912   3.960   1.206 -0.0033  0.5147 -0.6850
  396MOL0     C52173  10.892   3.848   1.123 -0.7540 -0.9461  0.6392
  396MOL0     C52174  10.823   3.855   1.002  0.7477  0.7751  0.3123
  396MOL0     O52175  10.829   3.737   0.930 -0.2094 -0.4219  0.0176
  396MOL0     C52176  10.728   3.728   0.825  0.2897 -0.3997  0.6782
  396MOL0     C52177  10.731   3.600   0.749  0.3511 -0.6788 -0.3708
  396MOL0     C52178  10.850   3.566   0.673 -0.2758 -0.1186  1.2504
  396MOL0     C52179  10.822   3.432   0.608  0.4850  0.3117 -0.1302
  396MOL0     C52180  10.843   3.300   0.694  0.2158 -1.2171  0.5429
  396MOL0     C52181  10.837   3.181   0.604 -0.0164  0.5822  0.8303
  396MOL0     C52182  10.912   3.054   0.667  0.6799 -0.1198  0.6618
  396MOL0     C52183  10.830   2.996   0.781  0.1553 -0.1368 -0.9056
  396MOL0    Cl52184  10.669   2.958   0.720  0.4293 -0.5457  0.5532
  396MOL0     C52185  10.757   3.977   0.982 -0.8305  0.6850 -0.4154
  396MOL0     C52186  10.775   4.092   1.063 -0.0129  0.0361  0.0465
  396MOL0     O52187  10.850   4.060   1.479 -0.1538 -0.0309  0.1889
  396MOL0     C52188  10.956   4.260   1.628 -0.4368 -0.4767  0.0370
  396MOL0     C52189  10.981   4.352   1.736  0.1861 -0.1752 -0.9532
  396MOL0     N52190  10.511   4.911   1.735  0.6728 -0.3178 -0.4374
  396MOL0     N52191  10.414   4.918   1.649 -0.9427  0.2153  0.5200
  396MOL0     C52192   9.455   4.217   1.408  0.2069  0.1419  1.3064
  396MOL0     C52193   9.317   4.237   1.394  0.5678 -0.0825 -0.4536
  396MOL0     C52194   8.884   4.290   1.430 -0.4815  0.0801 -0.4511
  396MOL0     C52195   8.838   4.422   1.414 -0.9888  0.9655 -0.0294
  396MOL0     C52196   8.709   4.445   1.370 -0.4259 -0.2467  0.4597
  396MOL0     C52197   8.630   4.335   1.324  0.8389  0.3201  0.7230
  396MOL0     O52198   8.507   4.368   1.270  0.4547  0.1667  0.5410
  396MOL0     C52199   8.509   4.460   1.159 -0.5831  0.1755 -0.6312
  396MOL0     C52200   8.423   4.390   1.054 -0.4314 -1.0906 -0.7651
  396MOL0     C52201   8.277   4.444   1.056  0.1050 -0.9157  2.3232
  396MOL0     C52202   8.198   4.393   0.931  0.1622  0.6061  0.9115
  396MOL0     C52203   8.244   4.452   0.803  0.0965  0.0415 -0.4601
  396MOL0     C52204   8.288   4.491   0.703  0.5018  0.1049  0.7678
  396MOL0     C52205   8.679   4.209   1.337  0.8999  0.9660  0.0053
  396MOL0     C52206   8.803   4.190   1.396 -0.0887  0.0073  0.7713
  396MOL0     H52207   9.267   4.502   1.597 -2.7784 -0.2340 -2.9516
  396MOL0     H52208   9.498   4.473   1.635 -0.3933  0.3202 -0.8590
  396MOL0     H52209   9.702   4.200   1.687  0.4133  1.9739  1.7175
  396MOL0     H52210   9.679   4.384   1.694 -1.6564  0.4424 -1.4827
  396MOL0     H52211   9.923   4.238   1.581 -0.4596  1.2462 -2.5030
  396MOL0     H52212   9.911   4.358   1.721 -0.4023 -2.1706  0.9290
  396MOL0     H52213   9.837   4.431   1.446 -0.8580  2.6804  1.1412
  396MOL0     H52214  10.008   4.437   1.497  0.3243 -0.4570  0.2254
  396MOL0     H52215   9.801   4.588   1.645 -0.3390 -2.4629  0.3476
  396MOL0     H52216   9.980   4.568   1.681  1.2818 -1.3747 -1.4191
  396MOL0     H52217   9.834   4.679   1.445 -1.8894 -1.0727  1.9520
  396MOL0     H52218  10.021   4.649   1.446 -1.7869 -1.0924 -0.6418
  396MOL0     H52219   9.864   4.841   1.625  1.8191 -0.9128  3.0540
  396MOL0     H52220   9.954   4.893   1.483 -1.2806  2.2454  3.1047
  396MOL0     H52221  10.072   4.945   1.669 -3.0990  0.2103 -3.1568
  396MOL0     H52222  10.063   4.781   1.741  0.2947  0.9688  0.5826
  396MOL0     H52223  10.225   4.873   1.499 -2.4351  0.9355  0.9106
  396MOL0     H52224  10.208   4.702   1.547 -1.3858  1.0619 -2.6468
  396MOL0     H52225  10.301   4.705   1.870  2.7941  1.2336  4.2254
  396MOL0     H52226  10.474   4.739   2.040 -0.4907 -0.0876 -1.1371
  396MOL0     H52227  10.562   4.895   2.022 -0.0590 -1.5735  3.4648
  396MOL0     H52228  10.708   4.720   2.071 -0.3990  0.0620 -0.2644
  396MOL0     H52229  10.754   4.784   1.917  3.8447 -1.0146  3.6490
  396MOL0     H52230  10.618   4.515   1.945  1.4098 -2.4079  1.0535
  396MOL0     H52231  10.664   4.595   1.791  1.5019 -1.8343 -0.2519
  396MOL0     H52232  10.821   4.415   1.903 -2.7883  0.8284  0.3866
  396MOL0     H52233  10.860   4.555   2.011 -1.7832  1.9502  0.1191
  396MOL0     H52234  10.872   4.628   1.556 -2.1725 -0.9098  0.2919
  396MOL0     H52235  10.839   4.460   1.385 -0.0009 -0.4129 -0.1087
  396MOL0     H52236  10.979   3.949   1.291  1.0047  0.8488 -1.4156
  396MOL0     H52237  10.951   3.761   1.153 -1.9635 -2.1198 -0.2518
  396MOL0     H52238  10.765   3.802   0.753 -1.1832 -0.6823 -0.4042
  396MOL0     H52239  10.626   3.755   0.851  0.0895  1.2173 -1.4652
  396MOL0     H52240  10.640   3.615   0.691  0.6104 -0.4056 -0.7086
  396MOL0     H52241  10.712   3.520   0.821  0.1246 -0.1159  0.2166
  396MOL0     H52242  10.941   3.570   0.732  0.4977  2.1923  0.0396
  396MOL0     H52243  10.861   3.644   0.597 -0.0469  0.7103  2.1161
  396MOL0     H52244  10.722   3.437   0.564  0.6338 -2.4438 -0.9918
  396MOL0     H52245  10.889   3.437   0.521 -2.0017  0.9654 -2.1386
  396MOL0     H52246  10.767   3.287   0.771  0.0757 -1.7209  0.3247
  396MOL0     H52247  10.944   3.311   0.735  1.0073  3.5115 -2.0100
  396MOL0     H52248  10.892   3.201   0.512 -0.6827 -0.3718  0.2049
  396MOL0     H52249  10.731   3.169   0.578 -0.8343  1.5420  3.3496
  396MOL0     H52250  10.933   2.976   0.593 -0.9422 -2.0961  2.1536
  396MOL0     H52251  11.010   3.084   0.705  0.6957 -2.0600  2.2780
  396MOL0     H52252  10.837   3.065   0.866  1.0075 -1.1781 -0.0897
  396MOL0     H52253  10.880   2.904   0.813 -2.6108 -1.7830 -1.0087
  396MOL0     H52254  10.704   4.005   0.892 -0.1498 -1.4118 -1.5370
  396MOL0     H52255  10.717   4.181   1.042 -1.0066 -0.9378 -1.5435
  396MOL0     H52256  10.952   4.154   1.651 -1.6864 -0.3128  0.6728
  396MOL0     H52257  11.011   4.335   1.839 -1.7032  0.7695 -0.1914
  396MOL0     H52258   9.516   4.152   1.346  1.3205  2.2461  0.1012
  396MOL0     H52259   9.247   4.174   1.341  3.0886 -3.9468  0.3532
  396MOL0     H52260   8.906   4.505   1.432  0.8914 -0.3858 -0.5389
  396MOL0     H52261   8.690   4.549   1.347  0.6368 -0.7143 -3.1741
  396MOL0     H52262   8.609   4.470   1.115 -0.7527  1.5290 -0.7652
  396MOL0     H52263   8.474   4.562   1.174  0.6274  0.6348 -0.7754
  396MOL0     H52264   8.457   4.421   0.955  0.7282 -0.4830 -0.1987
  396MOL0     H52265   8.443   4.284   1.068  0.6654 -0.7831  0.0864
  396MOL0     H52266   8.262   4.552   1.060 -1.1126 -0.9156 -0.1738
  396MOL0     H52267   8.231   4.395   1.143  0.6451 -4.1920  0.9069
  396MOL0     H52268   8.202   4.284   0.927 -1.2586  0.5576 -0.0584
  396MOL0     H52269   8.092   4.417   0.942 -0.3018 -1.4105  1.2306
  396MOL0     H52270   8.321   4.527   0.608  3.5946 -2.0901  0.8562
  396MOL0     H52271   8.613   4.125   1.315 -0.8129  1.8883  1.3660
  396MOL0     H52272   8.843   4.089   1.396  0.6189  0.2811  1.2006
  397MOL0     O52273   7.014   0.837   3.531  0.0322  0.4218  0.2571
  397MOL0     C52274   7.024   0.719   3.495 -0.1237  0.1495 -0.9926
  397MOL0     O52275   7.007   0.667   3.366  0.0206  0.2631 -0.7514
  397MOL0     C52276   6.975   0.755   3.260 -0.1690 -0.5064 -0.1054
  397MOL0     C52277   6.942   0.899   3.268 -0.0116  0.0797  0.3403
  397MOL0     C52278   6.934   0.978   3.153  1.3696  0.5270 -0.1097
  397MOL0     C52279   6.965   0.926   3.025  0.0786  0.6224 -0.4595
  397MOL0     O52280   6.959   1.015   2.924  0.0023 -1.0615  0.3327
  397MOL0     C52281   6.994   0.987   2.787  0.1913  1.2251  0.1090
  397MOL0     C52282   6.878   0.949   2.700  0.2834 -0.7467 -0.5201
  397MOL0     C52283   6.916   0.927   2.560 -0.5855  0.2143  0.9710
  397MOL0     C52284   6.979   0.788   2.534  0.8673  0.3450  0.0341
  397MOL0     C52285   7.043   0.791   2.392 -0.3837 -0.3783  0.2484
  397MOL0     C52286   7.057   0.642   2.345 -0.5999  0.3974 -0.2683
  397MOL0     C52287   7.106   0.645   2.194 -0.1971 -0.3932  0.5562
  397MOL0     C52288   7.223   0.750   2.151  0.0047 -0.2428  0.9025
  397MOL0     N52289   7.301   0.700   2.036 -0.6249 -1.1520 -0.9416
  397MOL0     C52290   7.408   0.613   2.038  0.1581  0.4714 -0.3239
  397MOL0     C52291   7.428   0.578   1.908  0.5304 -0.0007 -0.2448
  397MOL0     C52292   7.532   0.491   1.851  0.5734 -0.5519 -0.1803
  397MOL0     C52293   7.623   0.562   1.748  0.4525  0.6173 -0.1014
  397MOL0     C52294   7.709   0.668   1.813 -0.1882 -0.5425  0.5037
  397MOL0     C52295   7.831   0.707   1.735 -0.2331 -0.2635  0.5058
  397MOL0     O52296   7.793   0.776   1.616 -0.0501 -0.1907 -0.6070
  397MOL0     C52297   7.895   0.855   1.567 -0.2049  0.3594 -0.3404
  397MOL0     C52298   7.930   0.817   1.434  1.5079  0.0644 -1.4628
  397MOL0     C52299   8.042   0.877   1.371 -0.0484  0.8221  1.3231
  397MOL0     C52300   8.104   0.992   1.421 -0.2616  0.5496  0.2425
  397MOL0     C52301   8.212   1.061   1.351  0.3473  0.8668 -0.2432
  397MOL0     O52302   8.290   1.161   1.415  0.5085  1.0870 -0.6469
  397MOL0     C52303   8.401   1.219   1.359  0.0587 -1.2923 -0.8367
  397MOL0     C52304   8.407   1.286   1.237 -0.0402 -0.2352 -0.1783
  397MOL0     C52305   8.520   1.354   1.197 -0.0238  1.2185  0.6061
  397MOL0     C52306   8.645   1.331   1.253 -0.4831  0.1284  0.2510
  397MOL0     O52307   8.756   1.385   1.200 -0.8430  0.2904 -0.4360
  397MOL0     C52308   8.849   1.449   1.295 -0.7704  0.0748  1.8988
  397MOL0     C52309   8.943   1.550   1.219  0.9115  0.3149 -0.4900
  397MOL0     C52310   9.051   1.569   1.315  0.8015 -0.3488 -0.4333
  397MOL0     C52311   9.144   1.675   1.263  0.9567 -0.1736 -0.4436
  397MOL0     C52312   9.265   1.697   1.347  0.0378  0.0604 -0.5298
  397MOL0     C52313   9.366   1.567   1.355 -0.2442  0.0888 -0.6795
  397MOL0     C52314   9.500   1.581   1.427 -0.1858 -0.5689 -0.0495
  397MOL0     C52315   9.587   1.700   1.390  0.2872  0.7696  0.3524
  397MOL0    Cl52316   9.536   1.851   1.483 -0.3601 -0.0819 -0.0471
  397MOL0     C52317   8.644   1.251   1.372 -0.8391 -0.4100  0.0577
  397MOL0     C52318   8.526   1.195   1.424 -0.0793  0.3626  0.4937
  397MOL0     O52319   8.228   1.028   1.231 -0.1008  0.0856  0.1188
  397MOL0     C52320   8.059   1.036   1.553  0.3022  0.6061 -0.1546
  397MOL0     C52321   7.963   0.960   1.628  0.7661 -0.0594  0.3757
  397MOL0     N52322   7.339   0.655   1.836  1.1066  0.5659 -0.3773
  397MOL0     N52323   7.258   0.717   1.911 -0.6219  0.6289 -0.2250
  397MOL0     C52324   6.988   0.786   3.016  0.0140 -0.3511 -0.8881
  397MOL0     C52325   6.998   0.702   3.139  0.6057  0.9314 -0.6099
  397MOL0     C52326   7.042   0.628   3.613 -0.9255 -0.8286  0.5923
  397MOL0     C52327   7.085   0.678   3.733 -0.3731  0.2439  0.0256
  397MOL0     C52328   7.106   0.588   3.832 -0.2840  0.5600 -1.6361
  397MOL0     C52329   7.088   0.447   3.825  0.5273 -0.4032 -0.4287
  397MOL0     O52330   7.121   0.350   3.922  0.1010  0.5882 -0.0441
  397MOL0     C52331   7.200   0.407   4.034  0.5600 -0.3018  0.4614
  397MOL0     C52332   7.097   0.457   4.143 -0.7410  0.3624 -1.1303
  397MOL0     C52333   7.068   0.344   4.249 -0.5048 -0.2753  0.3218
  397MOL0     C52334   6.970   0.235   4.205  0.0531  0.2017  0.0543
  397MOL0     C52335   6.950   0.136   4.307  0.4681  0.5942  0.7809
  397MOL0     C52336   6.921   0.055   4.387  0.5602  0.0210  0.0828
  397MOL0     C52337   7.023   0.404   3.712 -1.1010  0.4267 -1.1538
  397MOL0     C52338   7.000   0.494   3.608  1.0316  0.0449  0.1786
  397MOL0     H52339   6.913   0.950   3.359 -4.1698  4.5496 -2.9975
  397MOL0     H52340   6.925   1.087   3.157 -1.6060  0.3371  0.4696
  397MOL0     H52341   7.074   0.914   2.773 -1.8973 -0.6780 -3.3264
  397MOL0     H52342   7.021   1.087   2.753 -1.4021  1.4153 -0.6539
  397MOL0     H52343   6.822   1.042   2.694  4.0000  1.6505 -1.5970
  397MOL0     H52344   6.827   0.859   2.737 -1.5073  0.3589 -0.2084
  397MOL0     H52345   6.981   1.005   2.520 -1.9369  0.4576 -0.8966
  397MOL0     H52346   6.825   0.940   2.501  0.8983  1.7937 -1.1289
  397MOL0     H52347   7.059   0.768   2.605  0.9264  1.4659  0.3065
  397MOL0     H52348   6.903   0.709   2.539 -0.4829  1.6049  0.1576
  397MOL0     H52349   7.143   0.836   2.398  1.1545 -3.5518  0.5017
  397MOL0     H52350   6.977   0.840   2.320 -0.1181  0.7739  0.7499
  397MOL0     H52351   6.962   0.587   2.352 -2.1974  3.1843  3.0374
  397MOL0     H52352   7.126   0.605   2.421 -3.9950 -0.2433  2.7712
  397MOL0     H52353   7.142   0.546   2.164  1.8849  1.1804 -2.6979
  397MOL0     H52354   7.016   0.662   2.135 -0.0287  0.5734  0.5676
  397MOL0     H52355   7.289   0.775   2.234  0.3269  2.9572 -0.2027
  397MOL0     H52356   7.182   0.845   2.116  1.2567  0.4412  1.2494
  397MOL0     H52357   7.462   0.578   2.125  0.2242  1.0639 -0.1209
  397MOL0     H52358   7.478   0.414   1.796 -2.9761  1.0514  0.7597
  397MOL0     H52359   7.595   0.455   1.933  0.4529  0.7233  0.4998
  397MOL0     H52360   7.565   0.610   1.669 -0.7385 -2.3092 -1.1682
  397MOL0     H52361   7.691   0.480   1.720  0.5498 -1.3051  4.8237
  397MOL0     H52362   7.645   0.754   1.834 -0.1798 -0.5643  0.6214
  397MOL0     H52363   7.750   0.634   1.909 -2.4537 -0.8761  1.4142
  397MOL0     H52364   7.882   0.613   1.714  1.4563  1.1098 -2.0905
  397MOL0     H52365   7.902   0.768   1.793 -0.4149 -0.8893  1.4048
  397MOL0     H52366   7.873   0.740   1.382  0.6128 -1.5125  1.5886
  397MOL0     H52367   8.062   0.833   1.274  1.7158  0.2058  1.9304
  397MOL0     H52368   8.311   1.304   1.191 -1.3034 -1.7266  1.7095
  397MOL0     H52369   8.548   1.413   1.110  2.6291 -0.6395  0.0461
  397MOL0     H52370   8.916   1.371   1.331 -1.5861 -1.2763  0.5975
  397MOL0     H52371   8.799   1.495   1.380 -2.0128 -0.2460  1.3654
  397MOL0     H52372   8.894   1.645   1.194  1.3070  0.2281 -1.6700
  397MOL0     H52373   8.979   1.505   1.126  0.1335  1.1275 -1.2100
  397MOL0     H52374   9.107   1.475   1.329  1.6953  0.4165  1.4632
  397MOL0     H52375   9.019   1.600   1.414  2.0208 -2.8909  0.8661
  397MOL0     H52376   9.179   1.650   1.162  1.8895  0.2805 -0.2356
  397MOL0     H52377   9.095   1.773   1.257  2.4874  0.6164 -0.6505
  397MOL0     H52378   9.228   1.720   1.447 -1.5535  1.9798 -1.5105
  397MOL0     H52379   9.322   1.782   1.308 -1.0043 -0.2125 -2.7895
  397MOL0     H52380   9.384   1.532   1.253 -1.0503  0.0089 -0.8056
  397MOL0     H52381   9.312   1.495   1.416  1.4834  0.7606  1.7993
  397MOL0     H52382   9.498   1.581   1.536  3.3535 -1.7116  0.1402
  397MOL0     H52383   9.552   1.489   1.400  1.0417  0.5913 -1.8295
  397MOL0     H52384   9.568   1.733   1.287 -2.3404  0.6364  0.7111
  397MOL0     H52385   9.689   1.684   1.425 -0.0783  2.1410  2.2365
  397MOL0     H52386   8.737   1.226   1.423  0.0361 -1.3011 -1.8771
  397MOL0     H52387   8.536   1.135   1.513  0.9868 -1.8038 -1.0009
  397MOL0     H52388   8.106   1.115   1.609  1.6378  0.3941 -0.9209
  397MOL0     H52389   7.938   1.009   1.722  1.5981 -1.5485  1.4052
  397MOL0     H52390   6.986   0.738   2.919 -4.1237  2.2474 -2.3382
  397MOL0     H52391   7.022   0.598   3.118 -1.6280  0.4608 -1.0123
  397MOL0     H52392   7.113   0.782   3.744  2.4852  0.0149 -3.4875
  397MOL0     H52393   7.149   0.623   3.925 -0.5218 -1.6890 -0.6183
  397MOL0     H52394   7.263   0.486   3.992 -3.0268  1.0019 -2.9935
  397MOL0     H52395   7.256   0.322   4.074 -1.4049 -2.6664 -1.5152
  397MOL0     H52396   7.140   0.541   4.200 -0.6400 -1.0465  1.0057
  397MOL0     H52397   7.000   0.481   4.098  0.1218  3.0354 -1.7263
  397MOL0     H52398   7.028   0.378   4.345 -0.1043 -0.9009  0.7176
  397MOL0     H52399   7.164   0.294   4.266 -0.8272 -0.8759  0.4444
  397MOL0     H52400   6.871   0.278   4.184  0.0594  0.3864  0.3920
  397MOL0     H52401   6.996   0.178   4.116  0.0194 -0.3319  0.3764
  397MOL0     H52402   6.892  -0.025   4.451 -3.0862 -0.3975 -1.8236
  397MOL0     H52403   7.012   0.297   3.696 -0.5168  0.3224 -0.8736
  397MOL0     H52404   6.960   0.458   3.514 -1.1387  4.3856 -0.8309
  398MOL0     O52405   6.263   3.899   6.091 -0.6254  0.5266  0.1674
  398MOL0     C52406   6.318   3.898   5.983 -0.0560 -0.4014  1.0692
  398MOL0     O52407   6.273   3.980   5.869  0.1587  0.0350 -0.4790
  398MOL0     C52408   6.146   4.040   5.888  0.5389 -0.3701 -0.7476
  398MOL0     C52409   6.122   4.160   5.815  1.0350 -0.5550  0.0232
  398MOL0     C52410   5.996   4.227   5.815  0.2087  0.6647 -0.3941
  398MOL0     C52411   5.886   4.171   5.884  0.1510  0.6063  0.7308
  398MOL0     O52412   5.759   4.227   5.863  0.0598  0.4907  0.4352
  398MOL0     C52413   5.644   4.146   5.910  1.1584 -0.1450 -1.2625
  398MOL0     C52414   5.524   4.226   5.868  0.2274 -0.1729  0.7546
  398MOL0     C52415   5.521   4.379   5.920 -0.4494  0.4867  0.6092
  398MOL0     C52416   5.391   4.450   5.861  0.0371  0.5264 -0.1024
  398MOL0     C52417   5.371   4.592   5.908 -0.3687 -0.0182 -0.0719
  398MOL0     C52418   5.236   4.648   5.855 -0.6905  0.1201  0.8281
  398MOL0     C52419   5.178   4.765   5.936 -0.6176 -0.2639 -0.7917
  398MOL0     C52420   5.087   4.845   5.841 -0.7209  0.3084  0.0110
  398MOL0     N52421   5.091   4.993   5.862 -0.2658 -0.3167 -0.9803
  398MOL0     C52422   5.190   5.092   5.855  0.2883  0.2256  0.2042
  398MOL0     C52423   5.132   5.208   5.912 -0.7503 -0.6298 -0.0080
  398MOL0     C52424   5.201   5.346   5.940 -0.4317  1.2162  0.5351
  398MOL0     C52425   5.273   5.411   5.822 -0.5200 -1.0827  0.2003
  398MOL0     C52426   5.247   5.572   5.832  0.4908  0.2635  0.7414
  398MOL0     C52427   5.321   5.639   5.718  0.2786  1.5034 -0.1630
  398MOL0     O52428   5.276   5.574   5.599 -0.2427  0.5184  0.7645
  398MOL0     C52429   5.342   5.615   5.484 -0.1427 -0.7738  0.2175
  398MOL0     C52430   5.469   5.578   5.445 -0.5156  0.3086  0.1414
  398MOL0     C52431   5.516   5.624   5.323  0.2467  0.5637  0.3942
  398MOL0     C52432   5.440   5.706   5.232 -0.5463 -0.7015 -1.2172
  398MOL0     C52433   5.512   5.777   5.115  0.8567 -0.2066 -0.1130
  398MOL0     O52434   5.629   5.731   5.076 -1.2167  0.4622  0.5375
  398MOL0     C52435   5.664   5.776   4.952  0.4045 -0.4178  0.2557
  398MOL0     C52436   5.654   5.674   4.846  0.5876  0.6499  1.0296
  398MOL0     C52437   5.696   5.709   4.711  0.8516 -0.7304 -0.7499
  398MOL0     C52438   5.713   5.841   4.678 -0.6335  0.5930  0.0332
  398MOL0     O52439   5.738   5.896   4.550 -0.0310 -0.6155 -0.3915
  398MOL0     C52440   5.775   5.798   4.448  0.0756 -1.1275  0.3689
  398MOL0     C52441   5.805   5.861   4.323  0.9265 -0.3444  0.1165
  398MOL0     C52442   5.666   5.924   4.276 -0.0177  0.6265 -0.0713
  398MOL0     C52443   5.677   5.961   4.128  0.6427  1.0181  1.1298
  398MOL0     C52444   5.623   5.836   4.042 -0.2941 -0.3730  0.0124
  398MOL0     C52445   5.678   5.856   3.896  0.8123  0.2195  1.0710
  398MOL0     C52446   5.646   5.989   3.829  0.0389 -0.7535 -0.2343
  398MOL0     C52447   5.632   5.972   3.687 -0.6409 -0.7595 -0.4352
  398MOL0    Cl52448   5.590   6.125   3.602  0.0369  0.1115 -0.3473
  398MOL0     C52449   5.729   5.932   4.788  0.9688  0.9862 -0.7026
  398MOL0     C52450   5.703   5.906   4.918  0.0004 -1.2901 -0.0731
  398MOL0     O52451   5.445   5.865   5.056  0.0558  0.0059  0.0664
  398MOL0     C52452   5.312   5.746   5.278 -0.6845  0.4884  0.0123
  398MOL0     C52453   5.261   5.700   5.402  0.1059  0.6074  0.4148
  398MOL0     N52454   4.998   5.173   5.955 -0.7706  0.5396  0.9243
  398MOL0     N52455   4.972   5.050   5.907  0.1200 -0.0751 -0.8357
  398MOL0     C52456   5.908   4.051   5.946 -0.3944 -0.5952 -0.0906
  398MOL0     C52457   6.038   3.998   5.965 -0.2184  0.5201  0.1250
  398MOL0     C52458   6.438   3.816   5.951  0.7612 -0.1578  0.4712
  398MOL0     C52459   6.447   3.749   5.826 -0.9158 -0.2532 -0.0917
  398MOL0     C52460   6.551   3.667   5.799  0.1728 -0.9139 -0.3495
  398MOL0     C52461   6.662   3.659   5.888 -0.4907 -0.0648 -0.6059
  398MOL0     O52462   6.771   3.578   5.877 -0.2641 -0.6962 -0.1690
  398MOL0     C52463   6.787   3.504   5.755  0.0504 -0.2795  0.8179
  398MOL0     C52464   6.894   3.395   5.762  0.4752 -0.3998 -0.0750
  398MOL0     C52465   7.031   3.451   5.794 -1.1460 -0.1944 -0.6670
  398MOL0     C52466   7.135   3.349   5.822  0.0503 -0.1588  0.3714
  398MOL0     C52467   7.237   3.416   5.904 -0.3691  1.0219  0.4074
  398MOL0     C52468   7.324   3.454   5.978 -0.5082  0.7825 -0.4044
  398MOL0     C52469   6.639   3.711   6.012  0.6383 -0.8371 -0.0657
  398MOL0     C52470   6.530   3.791   6.046  0.1744  0.4258 -0.0964
  398MOL0     H52471   6.214   4.195   5.770  0.2690 -0.2596 -1.3761
  398MOL0     H52472   5.992   4.326   5.772 -0.1533  0.9440  0.2816
  398MOL0     H52473   5.644   4.137   6.019 -0.6155 -1.1551 -1.3011
  398MOL0     H52474   5.654   4.043   5.874 -1.0997  0.0220 -2.5906
  398MOL0     H52475   5.439   4.174   5.912 -0.0839  1.6909  2.5568
  398MOL0     H52476   5.527   4.219   5.759  1.9207 -0.2833  0.7779
  398MOL0     H52477   5.615   4.427   5.892 -0.0796 -1.6372 -2.1035
  398MOL0     H52478   5.525   4.373   6.030  1.8802 -2.7621  0.4813
  398MOL0     H52479   5.386   4.447   5.752 -1.1854  1.2121 -0.0852
  398MOL0     H52480   5.314   4.381   5.895  0.7658  0.6215  1.8956
  398MOL0     H52481   5.456   4.653   5.878  1.2926 -2.5217 -0.7423
  398MOL0     H52482   5.348   4.592   6.015 -2.6221  2.9788 -0.4040
  398MOL0     H52483   5.162   4.567   5.862  1.9360 -2.4543  0.6328
  398MOL0     H52484   5.271   4.683   5.758  0.4751  1.8269  1.8238
  398MOL0     H52485   5.125   4.726   6.023 -0.6107 -1.8977 -1.4824
  398MOL0     H52486   5.254   4.830   5.978 -1.1428  0.4552 -0.9379
  398MOL0     H52487   4.985   4.813   5.863 -1.1948  2.5277  1.3963
  398MOL0     H52488   5.123   4.838   5.738  2.2366 -1.5699  1.0418
  398MOL0     H52489   5.286   5.076   5.807  1.0485  2.0574  1.0389
  398MOL0     H52490   5.279   5.318   6.011 -0.1437 -0.1430 -0.2716
  398MOL0     H52491   5.133   5.416   5.990  0.6182  2.7191 -0.0582
  398MOL0     H52492   5.234   5.367   5.730  2.1184 -0.9529 -1.0716
  398MOL0     H52493   5.382   5.398   5.833 -0.4693 -0.6916  0.1510
  398MOL0     H52494   5.138   5.586   5.835  0.4027 -0.1381 -0.0889
  398MOL0     H52495   5.298   5.608   5.921  2.9066  2.9192 -1.5337
  398MOL0     H52496   5.428   5.625   5.735  0.6677  3.1330 -1.0242
  398MOL0     H52497   5.296   5.746   5.721 -3.4130  0.7423  1.7842
  398MOL0     H52498   5.519   5.512   5.515 -2.1083 -2.4805 -1.1679
  398MOL0     H52499   5.619   5.599   5.300  0.8522  1.2969  2.1618
  398MOL0     H52500   5.626   5.572   4.871  2.5974  0.8202  4.7395
  398MOL0     H52501   5.693   5.632   4.634  1.2544 -0.1144 -1.3993
  398MOL0     H52502   5.701   5.719   4.439 -2.0179  0.6000  1.4938
  398MOL0     H52503   5.868   5.748   4.477 -1.0015 -1.5150  3.5140
  398MOL0     H52504   5.840   5.793   4.244  0.7438  1.7888 -1.9274
  398MOL0     H52505   5.881   5.940   4.327 -0.0149  0.6072 -0.1171
  398MOL0     H52506   5.632   6.015   4.326  2.6134  3.6025 -3.1604
  398MOL0     H52507   5.581   5.857   4.292 -1.6229  2.5354 -0.1423
  398MOL0     H52508   5.611   6.046   4.110 -2.4305 -1.7331 -2.0342
  398MOL0     H52509   5.782   5.983   4.109  1.0622 -0.3029  1.7950
  398MOL0     H52510   5.514   5.842   4.046 -0.5962 -3.6091 -0.6180
  398MOL0     H52511   5.657   5.739   4.078  0.5317 -0.0891  0.0264
  398MOL0     H52512   5.616   5.791   3.834  0.7162  2.3956 -1.2641
  398MOL0     H52513   5.782   5.823   3.891  0.2702 -1.4008 -3.0323
  398MOL0     H52514   5.554   6.030   3.872 -0.1869  0.5627 -1.8594
  398MOL0     H52515   5.728   6.059   3.846  0.4297 -1.4171  0.6562
  398MOL0     H52516   5.552   5.899   3.670 -1.4431 -0.1292  0.5236
  398MOL0     H52517   5.734   5.946   3.658 -0.3127  0.3232 -0.3001
  398MOL0     H52518   5.760   6.033   4.761  1.8748  1.3598  1.5494
  398MOL0     H52519   5.712   5.983   4.995 -3.4901  0.9848 -1.6760
  398MOL0     H52520   5.248   5.818   5.227 -0.3904  0.0554 -1.0074
  398MOL0     H52521   5.157   5.712   5.429  0.2537 -0.0413  1.3217
  398MOL0     H52522   5.826   3.999   5.995 -1.4033  0.7465 -0.2916
  398MOL0     H52523   6.053   3.900   6.009 -1.6923 -0.1561 -0.7931
  398MOL0     H52524   6.366   3.773   5.758 -0.2932  3.9788  0.3408
  398MOL0     H52525   6.557   3.628   5.698 -0.1050  1.9953 -1.6125
  398MOL0     H52526   6.806   3.577   5.675  0.7982 -0.8260  0.4818
  398MOL0     H52527   6.700   3.445   5.726  1.4170 -0.8030 -2.6616
  398MOL0     H52528   6.862   3.307   5.818 -2.6150  1.1548  0.8215
  398MOL0     H52529   6.908   3.359   5.659  1.4241  1.4793 -0.6414
  398MOL0     H52530   7.020   3.519   5.880  3.7318 -0.7093  0.6742
  398MOL0     H52531   7.085   3.522   5.730 -1.3926  4.0512  3.2545
  398MOL0     H52532   7.082   3.274   5.881  0.4685  0.5174  1.6497
  398MOL0     H52533   7.166   3.305   5.727  0.8022  0.4861  0.3042
  398MOL0     H52534   7.404   3.475   6.045 -1.9753 -1.6746  2.3458
  398MOL0     H52535   6.710   3.681   6.088 -3.0256 -0.2684  3.9525
  398MOL0     H52536   6.533   3.830   6.148  2.9977  0.6882 -0.1824
  399MOL0     O52537  11.107   2.855  10.844  0.5846 -0.4336  0.2201
  399MOL0     C52538  11.165   2.922  10.925 -0.0850 -1.5667  0.8375
  399MOL0     O52539  11.298   2.968  10.909  0.4538  0.0834  1.2633
  399MOL0     C52540  11.358   2.964  10.779  0.2111 -0.8805 -0.0861
  399MOL0     C52541  11.317   3.057  10.680 -1.0106  0.2121  0.6323
  399MOL0     C52542  11.369   3.058  10.553  1.1120 -0.3860  0.3213
  399MOL0     C52543  11.444   2.953  10.505  0.5937  1.2543 -0.5409
  399MOL0     O52544  11.452   2.944  10.368 -0.5288  0.3251 -0.3196
  399MOL0     C52545  11.451   2.812  10.318  0.2227 -1.1815  0.9821
  399MOL0     C52546  11.481   2.822  10.165 -0.3530 -0.4422 -0.7641
  399MOL0     C52547  11.505   2.683  10.098 -0.0833  0.4539 -0.9049
  399MOL0     C52548  11.532   2.706   9.949 -0.1580  0.6954 -0.0173
  399MOL0     C52549  11.401   2.710   9.870  0.6951  0.2310  1.0451
  399MOL0     C52550  11.429   2.761   9.725 -0.2047 -0.0014  0.9161
  399MOL0     C52551  11.460   2.903   9.707  0.1118 -0.8595  1.1590
  399MOL0     C52552  11.429   2.957   9.563 -0.5098  0.0983  1.2992
  399MOL0     N52553  11.468   3.103   9.558  0.4303 -0.3605 -0.1009
  399MOL0     C52554  11.600   3.161   9.568  0.2073  0.4444 -0.9008
  399MOL0     C52555  11.584   3.293   9.564  0.2819  1.0686  0.5993
  399MOL0     C52556  11.692   3.384   9.600  0.8179  0.2428  0.2750
  399MOL0     C52557  11.662   3.454   9.725 -0.2138 -0.0942  0.5194
  399MOL0     C52558  11.797   3.526   9.760  0.5085  0.5511 -0.5611
  399MOL0     C52559  11.790   3.576   9.911  0.3351 -0.2061  0.9059
  399MOL0     O52560  11.920   3.629   9.946  0.3942  0.3354 -0.4524
  399MOL0     C52561  11.968   3.759   9.916  0.2113 -0.5209 -0.8080
  399MOL0     C52562  12.092   3.809   9.961 -0.2444  0.5219 -0.6725
  399MOL0     C52563  12.155   3.927   9.913 -0.4900  1.0947 -1.3916
  399MOL0     C52564  12.101   3.997   9.810 -0.6585 -0.4177 -0.0892
  399MOL0     C52565  12.185   4.108   9.754  0.0964 -1.0492 -0.1128
  399MOL0     O52566  12.306   4.143   9.824  0.6013  0.5453  0.1403
  399MOL0     C52567  12.363   4.258   9.771 -0.1127 -0.0058  0.4691
  399MOL0     C52568  12.297   4.379   9.784  0.6286  0.3758  0.6518
  399MOL0     C52569  12.353   4.493   9.733 -0.2022  0.5159 -0.6660
  399MOL0     C52570  12.479   4.490   9.676  0.4824 -0.0908 -0.1190
  399MOL0     O52571  12.534   4.604   9.621  0.1251 -0.1837 -0.0559
  399MOL0     C52572  12.563   4.599   9.482  0.2872 -0.1876 -1.1701
  399MOL0     C52573  12.704   4.653   9.451  0.1053  0.1290 -1.0267
  399MOL0     C52574  12.814   4.600   9.543 -0.8433 -0.9461  0.3126
  399MOL0     C52575  12.833   4.661   9.682 -0.4933 -0.2234 -0.6384
  399MOL0     C52576  12.963   4.612   9.754 -1.1756  0.5722 -0.2265
  399MOL0     C52577  13.086   4.632   9.659  1.1308 -0.2227 -0.2784
  399MOL0     C52578  13.214   4.616   9.716 -0.9306  0.3359 -0.5218
  399MOL0     C52579  13.333   4.607   9.613 -0.5588  0.3458  0.6281
  399MOL0    Cl52580  13.389   4.436   9.599 -0.6521 -0.1850 -0.7990
  399MOL0     C52581  12.554   4.372   9.677 -0.2201 -0.0141 -0.1498
  399MOL0     C52582  12.494   4.252   9.713 -0.8594 -0.7533 -0.3186
  399MOL0     O52583  12.136   4.170   9.666  0.5742  0.2881 -0.5313
  399MOL0     C52584  11.976   3.958   9.769  0.1134  0.5158  0.0413
  399MOL0     C52585  11.906   3.849   9.819  0.9091 -0.9987 -0.6871
  399MOL0     N52586  11.453   3.326   9.551 -0.3409  0.5683 -0.2599
  399MOL0     N52587  11.384   3.209   9.543 -0.8825  0.2612  0.3215
  399MOL0     C52588  11.489   2.857  10.599 -0.3589  0.1508  0.4545
  399MOL0     C52589  11.446   2.859  10.733  0.4117  0.0454 -0.0363
  399MOL0     C52590  11.106   2.953  11.058  1.7673 -0.1958 -0.3085
  399MOL0     C52591  11.024   2.871  11.138  0.1494  0.3675  0.3207
  399MOL0     C52592  10.985   2.905  11.263 -0.5364  0.5159  0.2563
  399MOL0     C52593  11.016   3.028  11.319  0.8376  0.2912 -0.0224
  399MOL0     O52594  10.968   3.054  11.442 -0.2704 -0.3879 -0.1501
  399MOL0     C52595  10.945   3.192  11.482  0.0027 -0.2212 -0.3796
  399MOL0     C52596  10.826   3.180  11.568 -0.1319 -0.5260 -0.0181
  399MOL0     C52597  10.830   3.255  11.694  0.1231 -0.8531 -0.6692
  399MOL0     C52598  10.692   3.311  11.747  0.5649 -0.8319 -0.0619
  399MOL0     C52599  10.570   3.239  11.719  0.9644  0.7737 -0.2882
  399MOL0     C52600  10.455   3.185  11.717 -0.4973  0.2858 -1.2234
  399MOL0     C52601  11.077   3.131  11.233 -0.7903  0.8016 -0.1764
  399MOL0     C52602  11.127   3.079  11.106  0.5029  0.8193 -0.4763
  399MOL0     H52603  11.248   3.132  10.717 -2.4269 -2.8581  5.1072
  399MOL0     H52604  11.337   3.127  10.476 -0.6768 -0.2381  1.1539
  399MOL0     H52605  11.354   2.763  10.309  0.9605 -2.6120  0.5459
  399MOL0     H52606  11.529   2.748  10.361  0.0361  0.9980  5.1129
  399MOL0     H52607  11.576   2.875  10.153  0.0839 -0.5046  1.7512
  399MOL0     H52608  11.400   2.886  10.128 -2.2068 -1.8821  0.5863
  399MOL0     H52609  11.415   2.621  10.109 -1.0659  2.2390  3.8482
  399MOL0     H52610  11.592   2.639  10.148  1.0584  1.6074 -1.8040
  399MOL0     H52611  11.599   2.791   9.931 -3.1790  3.3668  0.5355
  399MOL0     H52612  11.575   2.612   9.913 -2.0839 -0.4880  0.6685
  399MOL0     H52613  11.340   2.785   9.922 -2.5311 -0.7411 -1.0215
  399MOL0     H52614  11.350   2.614   9.879 -0.7479  0.9044  0.5309
  399MOL0     H52615  11.341   2.747   9.661 -0.7146 -1.3438  1.8890
  399MOL0     H52616  11.496   2.695   9.669 -1.3154 -0.7643  0.4525
  399MOL0     H52617  11.401   2.959   9.780 -1.8749  0.8912 -1.5852
  399MOL0     H52618  11.568   2.921   9.718  0.2007 -0.2119 -0.4448
  399MOL0     H52619  11.322   2.953   9.540  0.0498  3.3954 -3.3087
  399MOL0     H52620  11.481   2.892   9.492 -1.4381  0.8744 -0.1320
  399MOL0     H52621  11.689   3.104   9.591  2.4155  4.0182  0.3412
  399MOL0     H52622  11.701   3.459   9.521  2.8810  1.9951  2.0340
  399MOL0     H52623  11.787   3.331   9.596  0.1883 -0.8256 -1.0609
  399MOL0     H52624  11.635   3.384   9.804 -3.4696 -1.2658 -1.4312
  399MOL0     H52625  11.594   3.539   9.710  2.7352  2.2012 -1.1264
  399MOL0     H52626  11.886   3.469   9.734  0.0895 -0.7332  0.6866
  399MOL0     H52627  11.814   3.621   9.708 -0.0501  2.1154  1.9484
  399MOL0     H52628  11.774   3.487   9.972 -1.7710 -0.5982 -0.1294
  399MOL0     H52629  11.714   3.646   9.947 -2.3374 -2.2492 -0.4393
  399MOL0     H52630  12.151   3.731  10.009  2.5910  1.1212 -2.8941
  399MOL0     H52631  12.244   3.950   9.970 -1.5070  2.0820 -0.1658
  399MOL0     H52632  12.200   4.374   9.833  1.3283 -1.3322  1.9685
  399MOL0     H52633  12.291   4.580   9.752 -2.4958 -0.0526 -4.4338
  399MOL0     H52634  12.501   4.675   9.434  2.0210  0.6534 -2.1788
  399MOL0     H52635  12.545   4.502   9.434 -2.3722 -1.2255  1.6085
  399MOL0     H52636  12.702   4.762   9.464 -0.3399  0.6402 -4.4213
  399MOL0     H52637  12.727   4.635   9.346  0.3829 -0.6904 -0.8295
  399MOL0     H52638  12.909   4.621   9.493  0.7355 -2.6954  2.3975
  399MOL0     H52639  12.802   4.492   9.543 -1.3809 -0.9030 -0.7175
  399MOL0     H52640  12.826   4.770   9.674 -0.4652  0.1667  2.8955
  399MOL0     H52641  12.746   4.633   9.743 -0.0235 -1.6626 -0.5978
  399MOL0     H52642  12.955   4.506   9.777  1.2626 -0.0505 -1.8965
  399MOL0     H52643  12.987   4.670   9.843  1.0182  0.8171 -0.9288
  399MOL0     H52644  13.083   4.733   9.617  4.3410  1.0841  2.1876
  399MOL0     H52645  13.076   4.556   9.581 -1.0316 -1.6625  1.2975
  399MOL0     H52646  13.243   4.699   9.782  0.9228 -0.7080  0.0554
  399MOL0     H52647  13.202   4.524   9.774  2.1406  0.9604  1.2967
  399MOL0     H52648  13.415   4.676   9.635  0.4519  0.0162 -1.8495
  399MOL0     H52649  13.303   4.637   9.513 -1.1522  0.7308  0.9167
  399MOL0     H52650  12.659   4.375   9.649  0.1669  1.1574  1.2987
  399MOL0     H52651  12.565   4.171   9.708  0.3497  0.2522  0.0118
  399MOL0     H52652  11.921   4.016   9.696  0.0943  0.9274  0.3810
  399MOL0     H52653  11.805   3.829   9.786  1.7727 -3.1941 -2.1594
  399MOL0     H52654  11.559   2.779  10.568  1.6379  2.6164 -1.7900
  399MOL0     H52655  11.479   2.789  10.809  1.3502  2.7363  2.2160
  399MOL0     H52656  10.992   2.777  11.095  0.7095 -0.2923  1.3100
  399MOL0     H52657  10.933   2.833  11.325 -0.1944 -2.0469 -2.2289
  399MOL0     H52658  10.927   3.262  11.400 -0.5140  1.6848  1.3039
  399MOL0     H52659  11.025   3.227  11.548 -0.8089  0.7175  0.1173
  399MOL0     H52660  10.744   3.211  11.502  1.5261  0.7454 -1.5492
  399MOL0     H52661  10.808   3.073  11.588  1.0888 -1.0481 -1.5312
  399MOL0     H52662  10.903   3.335  11.683  0.0370 -0.7950 -0.8355
  399MOL0     H52663  10.873   3.189  11.770 -0.9923  0.9363  1.6225
  399MOL0     H52664  10.715   3.325  11.854 -0.3980 -2.4062  0.3813
  399MOL0     H52665  10.672   3.409  11.703  2.0852 -0.9385 -1.0627
  399MOL0     H52666  10.358   3.144  11.699 -1.0702  0.9708  0.1650
  399MOL0     H52667  11.084   3.233  11.269  0.2840  0.8043 -0.3596
  399MOL0     H52668  11.185   3.152  11.050  0.0899  0.6932 -1.0845
  400MOL0     O52669   9.598  10.961   1.548 -0.5009 -0.8977 -0.5501
  400MOL0     C52670   9.576  10.948   1.671 -0.2530  0.7873  1.0679
  400MOL0     O52671   9.461  10.952   1.732  1.2032 -0.5904  0.5713
  400MOL0     C52672   9.355  10.973   1.649  0.1460 -0.6695 -0.3016
  400MOL0     C52673   9.261  11.070   1.673 -0.2731  0.4490 -0.7725
  400MOL0     C52674   9.146  11.098   1.596 -0.3507  0.0566 -0.7730
  400MOL0     C52675   9.124  11.023   1.484 -0.4800 -0.1091 -0.1051
  400MOL0     O52676   9.022  11.048   1.395  0.2315 -0.4383  0.0049
  400MOL0     C52677   8.898  10.972   1.399 -0.5279 -0.1864  0.2079
  400MOL0     C52678   8.787  11.042   1.321 -0.2442  0.0182 -0.3903
  400MOL0     C52679   8.652  10.981   1.382 -0.3082 -0.0195  0.1680
  400MOL0     C52680   8.512  11.026   1.329  0.2816 -0.9446  0.1106
  400MOL0     C52681   8.420  10.918   1.278 -0.2043  0.1847 -0.6284
  400MOL0     C52682   8.329  10.982   1.178  0.6610  0.1742 -1.1641
  400MOL0     C52683   8.211  10.886   1.127 -0.1505 -0.4290 -0.4943
  400MOL0     C52684   8.259  10.789   1.030  0.2706 -0.9194  0.8054
  400MOL0     N52685   8.158  10.686   0.987  0.7949 -0.2449  0.1301
  400MOL0     C52686   8.089  10.682   0.864  0.7468 -0.1147 -0.1863
  400MOL0     C52687   8.002  10.579   0.863  0.4045 -0.6856 -0.1373
  400MOL0     C52688   7.890  10.565   0.765 -0.5038  0.5068  0.8178
  400MOL0     C52689   7.945  10.571   0.616 -0.5673 -0.2760 -0.2684
  400MOL0     C52690   8.057  10.466   0.599  0.1549  0.5697 -0.4135
  400MOL0     C52691   8.119  10.456   0.467 -0.6400  0.3729  0.0758
  400MOL0     O52692   8.244  10.531   0.475 -0.4579  0.0621  0.2332
  400MOL0     C52693   8.248  10.645   0.402  0.0063  0.4793 -0.1676
  400MOL0     C52694   8.240  10.656   0.265 -1.1802 -0.3932 -0.2361
  400MOL0     C52695   8.268  10.786   0.200 -0.2300 -0.4401  0.1547
  400MOL0     C52696   8.284  10.900   0.276  0.7053 -0.9249  0.4814
  400MOL0     C52697   8.282  11.039   0.222 -0.6387 -0.2287  0.2371
  400MOL0     O52698   8.224  11.052   0.103 -0.8514 -0.5303  0.0048
  400MOL0     C52699   8.225  11.162   0.031 -0.0298 -1.2308  0.0899
  400MOL0     C52700   8.171  11.136  -0.095  0.4429  1.1581 -0.2527
  400MOL0     C52701   8.133  11.232  -0.180  0.5918 -0.5840  0.8232
  400MOL0     C52702   8.160  11.371  -0.154  0.5582 -0.5019  0.3470
  400MOL0     O52703   8.134  11.482  -0.228 -0.4206  0.1496 -0.6659
  400MOL0     C52704   8.025  11.479  -0.318 -0.2951  0.6536  0.7403
  400MOL0     C52705   8.004  11.598  -0.419 -0.4862  0.2978  0.0605
  400MOL0     C52706   7.884  11.578  -0.517 -0.6829  0.5341  0.8417
  400MOL0     C52707   7.856  11.702  -0.593 -0.2694  0.6019 -0.8063
  400MOL0     C52708   7.814  11.824  -0.498 -0.3993 -0.9773 -0.3106
  400MOL0     C52709   7.680  11.879  -0.548  0.1909 -0.5745 -0.7968
  400MOL0     C52710   7.634  11.996  -0.468 -0.2614 -0.5986 -0.0219
  400MOL0     C52711   7.684  12.123  -0.527 -0.7754 -0.0104 -0.2498
  400MOL0    Cl52712   7.639  12.243  -0.406 -0.2244  0.5586  0.0616
  400MOL0     C52713   8.226  11.397  -0.028  0.7418  0.6960  0.7615
  400MOL0     C52714   8.256  11.296   0.068 -0.9706 -1.0757 -0.1220
  400MOL0     O52715   8.327  11.135   0.285  0.4364  0.7850 -0.0549
  400MOL0     C52716   8.283  10.882   0.414  0.5341  0.7520  0.3842
  400MOL0     C52717   8.258  10.756   0.479 -0.2476  0.1154 -1.0793
  400MOL0     N52718   8.000  10.519   0.984  1.1270 -0.1427 -0.0717
  400MOL0     N52719   8.102  10.571   1.051  0.0215  0.9811 -1.3626
  400MOL0     C52720   9.222  10.922   1.451  0.2992 -0.0211  0.0617
  400MOL0     C52721   9.328  10.894   1.534 -0.0793 -1.1486 -0.8312
  400MOL0     C52722   9.684  10.896   1.755 -0.8158  0.6977 -0.2702
  400MOL0     C52723   9.823  10.893   1.708  0.5617  0.1085 -0.2081
  400MOL0     C52724   9.925  10.846   1.798 -0.5407  0.0001 -0.4017
  400MOL0     C52725   9.890  10.791   1.919 -0.6584 -1.1513  0.4459
  400MOL0     O52726   9.981  10.747   2.007  0.1324 -0.6031  0.1449
  400MOL0     C52727  10.049  10.858   2.077 -0.9567 -0.1854  0.4573
  400MOL0     C52728  10.170  10.799   2.158  0.2997 -0.3930  0.0451
  400MOL0     C52729  10.229  10.913   2.249 -0.5295  0.3505  0.3832
  400MOL0     C52730  10.334  10.863   2.354  0.0157 -0.5255  0.2199
  400MOL0     C52731  10.291  10.746   2.430 -0.0607 -0.9426 -0.4211
  400MOL0     C52732  10.245  10.645   2.489 -0.2982  1.4296 -0.3229
  400MOL0     C52733   9.769  10.790   1.971 -0.0415 -1.4813  1.1005
  400MOL0     C52734   9.662  10.834   1.883  0.2860 -0.1669 -0.1950
  400MOL0     H52735   9.286  11.121   1.766  1.1099 -2.7364  0.7870
  400MOL0     H52736   9.072  11.167   1.635  1.3000  0.3692  2.0934
  400MOL0     H52737   8.880  10.978   1.507  4.7097  2.0670  1.2465
  400MOL0     H52738   8.907  10.870   1.361  0.3509 -0.1683  0.3504
  400MOL0     H52739   8.801  11.019   1.214 -2.0312 -0.0046 -0.6467
  400MOL0     H52740   8.808  11.149   1.327 -1.8522  0.2801  3.8041
  400MOL0     H52741   8.651  11.017   1.485 -2.4324 -1.4679  0.7193
  400MOL0     H52742   8.649  10.871   1.380  2.0611 -0.1596  0.8148
  400MOL0     H52743   8.461  11.093   1.399  1.8326  0.2813  0.1144
  400MOL0     H52744   8.540  11.096   1.250  2.6109 -0.7514  1.0297
  400MOL0     H52745   8.371  10.882   1.369  3.3116  0.5474  1.6424
  400MOL0     H52746   8.480  10.833   1.243 -1.5147 -1.0471 -0.0036
  400MOL0     H52747   8.389  11.022   1.096  0.8641  4.3272  0.7705
  400MOL0     H52748   8.283  11.062   1.237 -1.7702 -1.3191 -0.9111
  400MOL0     H52749   8.172  10.824   1.208 -2.9229 -0.2766 -1.6313
  400MOL0     H52750   8.129  10.946   1.087  0.7964 -0.0370 -1.9525
  400MOL0     H52751   8.348  10.735   1.064  2.3950  0.5725 -1.9654
  400MOL0     H52752   8.288  10.845   0.941 -3.2266 -1.9156 -1.1425
  400MOL0     H52753   8.107  10.762   0.792 -3.5566  2.2297  1.0519
  400MOL0     H52754   7.823  10.651   0.769 -2.0645 -0.6556  0.5953
  400MOL0     H52755   7.837  10.471   0.784 -0.0978  0.5434  2.2286
  400MOL0     H52756   7.982  10.674   0.605  1.6483 -1.1443 -1.8817
  400MOL0     H52757   7.861  10.567   0.546 -0.9837  4.2757 -0.3699
  400MOL0     H52758   8.139  10.482   0.670  1.0897 -0.7754 -1.1427
  400MOL0     H52759   8.021  10.364   0.615  0.2491  0.0458 -3.1796
  400MOL0     H52760   8.058  10.506   0.391  0.0190  1.0984  0.0084
  400MOL0     H52761   8.140  10.353   0.435  3.1468  1.2181 -0.7421
  400MOL0     H52762   8.222  10.564   0.209  0.2924 -1.3082  0.7273
  400MOL0     H52763   8.260  10.802   0.093  2.7063 -2.6313 -0.5261
  400MOL0     H52764   8.156  11.030  -0.111  2.1018  0.5351  1.7475
  400MOL0     H52765   8.086  11.203  -0.274 -1.1546 -1.8944  2.0322
  400MOL0     H52766   7.930  11.463  -0.267 -0.3147 -2.1509 -0.0025
  400MOL0     H52767   8.030  11.402  -0.396 -1.2934  0.4456  0.8682
  400MOL0     H52768   8.098  11.615  -0.473  1.6384 -2.5844  2.5001
  400MOL0     H52769   7.993  11.678  -0.345  3.5053 -0.1417  1.3759
  400MOL0     H52770   7.798  11.565  -0.450 -0.5595  2.3898  1.4238
  400MOL0     H52771   7.897  11.495  -0.586 -0.2003  1.6788 -0.5042
  400MOL0     H52772   7.944  11.740  -0.646 -0.8388  2.3641 -0.5518
  400MOL0     H52773   7.781  11.683  -0.671 -0.0749  0.2645 -0.9158
  400MOL0     H52774   7.882  11.910  -0.505 -0.4332 -1.0162 -1.2251
  400MOL0     H52775   7.807  11.800  -0.392 -1.3278  1.2405  0.1822
  400MOL0     H52776   7.606  11.799  -0.533 -1.5196  1.0885  0.0539
  400MOL0     H52777   7.689  11.897  -0.656 -1.3717 -0.9236 -1.0197
  400MOL0     H52778   7.524  11.993  -0.465 -0.2775  0.5147  1.4966
  400MOL0     H52779   7.666  11.989  -0.364 -0.2755  2.4964  0.2820
  400MOL0     H52780   7.649  12.156  -0.626 -0.6681  0.7669 -0.0369
  400MOL0     H52781   7.792  12.113  -0.534 -0.5961 -1.0852  2.8064
  400MOL0     H52782   8.250  11.501  -0.011  1.2903  0.2675  2.9036
  400MOL0     H52783   8.311  11.325   0.157  0.3130  1.8449 -1.7165
  400MOL0     H52784   8.281  10.979   0.464 -0.5812  2.7895 -3.2306
  400MOL0     H52785   8.266  10.744   0.587 -0.3633  1.5101 -0.8899
  400MOL0     H52786   9.201  10.865   1.361 -0.2879 -0.8768  0.7228
  400MOL0     H52787   9.410  10.830   1.501  0.6541  1.3395 -4.3191
  400MOL0     H52788   9.850  10.913   1.604 -2.1119 -0.9977 -1.2129
  400MOL0     H52789  10.021  10.847   1.748 -0.0978 -0.3651  0.4203
  400MOL0     H52790   9.978  10.914   2.139 -1.4317  1.4233 -1.4297
  400MOL0     H52791  10.080  10.939   2.011 -3.4593  0.2729 -0.2513
  400MOL0     H52792  10.131  10.723   2.227  1.6843 -1.4097 -0.2669
  400MOL0     H52793  10.247  10.756   2.094 -1.1576 -1.1134 -1.2857
  400MOL0     H52794  10.140  10.953   2.297 -2.8770 -0.7608 -2.7127
  400MOL0     H52795  10.279  10.985   2.183  2.1580 -0.6224  1.1989
  400MOL0     H52796  10.432  10.840   2.311  0.5533  0.4614  0.8753
  400MOL0     H52797  10.349  10.932   2.438  1.1799  0.6511 -0.8927
  400MOL0     H52798  10.217  10.551   2.533 -1.6011  2.4865  1.2084
  400MOL0     H52799   9.730  10.756   2.067 -1.0352  0.2861  1.3719
  400MOL0     H52800   9.558  10.820   1.909  0.6026  0.4746  1.5330
  401MOL0     O52801   1.518  11.344   7.916  0.3680 -0.1024  0.6522
  401MOL0     C52802   1.498  11.467   7.896  0.2393  0.4443  0.3927
  401MOL0     O52803   1.574  11.541   7.825  0.1917 -0.1776 -0.1510
  401MOL0     C52804   1.640  11.485   7.715 -0.1019 -0.3755  0.1211
  401MOL0     C52805   1.559  11.427   7.608 -0.2297  0.2069 -0.6690
  401MOL0     C52806   1.621  11.382   7.489 -0.2811 -0.1447 -0.3799
  401MOL0     C52807   1.763  11.402   7.470 -0.2644 -0.6408  1.0026
  401MOL0     O52808   1.815  11.350   7.357 -0.8875 -0.2183 -0.3999
  401MOL0     C52809   1.951  11.363   7.324 -0.7744  0.7807 -0.0971
  401MOL0     C52810   1.977  11.261   7.204  0.3365 -0.9419 -0.9071
  401MOL0     C52811   1.899  11.287   7.077  0.5243 -0.2584 -0.0668
  401MOL0     C52812   1.921  11.427   7.003 -0.0605  0.3885 -0.2722
  401MOL0     C52813   1.828  11.452   6.886  0.2155  0.0229  0.4344
  401MOL0     C52814   1.878  11.576   6.814  0.0335  0.9786 -0.3891
  401MOL0     C52815   1.760  11.665   6.752  0.7561  0.4200 -0.4493
  401MOL0     C52816   1.807  11.758   6.635 -0.5460  0.3067  0.4446
  401MOL0     N52817   1.916  11.846   6.665 -0.3497 -0.5434 -0.1715
  401MOL0     C52818   1.911  11.948   6.750 -0.4982 -0.9763 -0.1837
  401MOL0     C52819   2.023  12.020   6.726  0.3406 -1.1751  0.7113
  401MOL0     C52820   2.076  12.140   6.798  0.4239 -0.7175  0.4608
  401MOL0     C52821   1.991  12.263   6.798 -0.9217 -0.3692  0.4068
  401MOL0     C52822   1.876  12.260   6.893 -0.6690  1.0041 -0.5821
  401MOL0     C52823   1.777  12.368   6.857  0.1362 -0.6194  0.0176
  401MOL0     O52824   1.672  12.397   6.950 -0.3046 -0.7436 -0.3077
  401MOL0     C52825   1.576  12.311   6.992 -0.3299  0.4320 -0.6718
  401MOL0     C52826   1.542  12.196   6.932 -0.5095  0.1599  0.1263
  401MOL0     C52827   1.440  12.105   6.974  0.2274 -0.1877 -0.9502
  401MOL0     C52828   1.361  12.151   7.085 -0.1857  0.4207  1.0393
  401MOL0     C52829   1.239  12.083   7.130  0.5933 -0.1340 -0.1614
  401MOL0     O52830   1.219  11.945   7.129 -0.7529  0.2313  0.1287
  401MOL0     C52831   1.093  11.883   7.167 -0.2339  1.6346 -0.4006
  401MOL0     C52832   1.089  11.741   7.175  0.3350 -0.7118 -0.0839
  401MOL0     C52833   0.970  11.673   7.210  0.1148 -0.0260 -0.1354
  401MOL0     C52834   0.863  11.743   7.248 -0.6148 -0.5466  0.2942
  401MOL0     O52835   0.753  11.672   7.294  0.1969 -0.0236  0.3087
  401MOL0     C52836   0.643  11.667   7.198  0.3260 -0.1745  0.0224
  401MOL0     C52837   0.656  11.546   7.102  1.0448 -0.0311  0.5509
  401MOL0     C52838   0.522  11.467   7.089 -0.2815 -0.5578  0.2895
  401MOL0     C52839   0.550  11.326   7.034 -0.0292  0.1228  0.7865
  401MOL0     C52840   0.424  11.241   7.012  0.1806 -0.7444  0.4476
  401MOL0     C52841   0.363  11.240   6.870 -0.7285 -1.0953  0.4289
  401MOL0     C52842   0.255  11.131   6.855 -0.1939  0.4931 -0.0905
  401MOL0     C52843   0.183  11.116   6.727 -0.1401  0.3006 -0.8119
  401MOL0    Cl52844   0.288  11.050   6.607 -0.0614  0.0457  0.1548
  401MOL0     C52845   0.864  11.881   7.251 -0.4521  0.5136  0.3052
  401MOL0     C52846   0.976  11.947   7.206  0.1533 -0.1037  0.2163
  401MOL0     O52847   1.155  12.164   7.172  0.3001  0.0339  0.3735
  401MOL0     C52848   1.401  12.268   7.150  0.2430  0.1379  0.7342
  401MOL0     C52849   1.506  12.337   7.111  0.2971 -0.6530  0.4430
  401MOL0     N52850   2.098  11.952   6.630  0.1032  0.0389 -0.3066
  401MOL0     N52851   2.037  11.845   6.598  0.1284 -0.6016  0.5264
  401MOL0     C52852   1.833  11.478   7.566  0.3375  1.4571 -0.2277
  401MOL0     C52853   1.774  11.516   7.686  0.1991  0.3432  0.4641
  401MOL0     C52854   1.407  11.536   7.986  1.1019 -0.0502  0.6180
  401MOL0     C52855   1.285  11.473   8.020  0.4331 -0.7078 -0.5653
  401MOL0     C52856   1.182  11.541   8.085 -0.9686  0.3631  0.5518
  401MOL0     C52857   1.198  11.676   8.100  0.1193  0.3986  0.8200
  401MOL0     O52858   1.094  11.746   8.161  0.1513 -0.7423  0.0190
  401MOL0     C52859   0.967  11.744   8.083 -0.2103  0.4297 -0.8396
  401MOL0     C52860   0.976  11.803   7.936  0.1612  0.1599  0.6150
  401MOL0     C52861   0.948  11.959   7.936  0.7558 -0.0213  0.3354
  401MOL0     C52862   0.793  11.987   7.984  0.5047 -0.6677 -0.2756
  401MOL0     C52863   0.743  12.074   7.883  1.1641  0.3359 -0.3921
  401MOL0     C52864   0.703  12.158   7.808 -0.3586 -0.3985  0.7384
  401MOL0     C52865   1.316  11.744   8.064  0.8589  0.7428 -0.0062
  401MOL0     C52866   1.415  11.672   8.013  0.1312 -0.3290  0.0457
  401MOL0     H52867   1.452  11.414   7.624 -0.0870 -1.1059 -0.7344
  401MOL0     H52868   1.577  11.339   7.401  0.7764 -0.8005 -0.6087
  401MOL0     H52869   2.010  11.348   7.416 -0.4480  1.2996 -0.2202
  401MOL0     H52870   1.971  11.461   7.281  2.1203 -0.4060 -1.7392
  401MOL0     H52871   1.953  11.162   7.245  2.3397 -1.5029 -1.0221
  401MOL0     H52872   2.085  11.261   7.189  0.9014  1.3089  2.2248
  401MOL0     H52873   1.799  11.293   7.121  0.8710  0.8952  0.6131
  401MOL0     H52874   1.903  11.217   6.994 -1.6966 -1.7372  0.9725
  401MOL0     H52875   1.907  11.505   7.079  1.1430 -0.8900  1.3447
  401MOL0     H52876   2.027  11.424   6.974  1.0989  0.6444  3.3472
  401MOL0     H52877   1.729  11.468   6.930 -0.4059  1.8231 -1.4156
  401MOL0     H52878   1.809  11.361   6.828 -0.2464  0.9835 -1.0072
  401MOL0     H52879   1.936  11.536   6.730  0.4461 -2.0384  1.1767
  401MOL0     H52880   1.953  11.634   6.870  1.7460 -2.0369  0.6773
  401MOL0     H52881   1.672  11.606   6.726 -1.6032  2.8146  1.5465
  401MOL0     H52882   1.715  11.729   6.829 -0.7569  2.9243 -3.2297
  401MOL0     H52883   1.715  11.813   6.611  0.7865  2.3349 -0.2724
  401MOL0     H52884   1.830  11.685   6.557  0.2265 -1.2714  2.1026
  401MOL0     H52885   1.822  11.977   6.805 -1.5261  1.3342 -2.8242
  401MOL0     H52886   2.162  12.185   6.747  0.8996  1.6734  3.1478
  401MOL0     H52887   2.118  12.117   6.896  1.7977  2.8682  0.8758
  401MOL0     H52888   1.968  12.281   6.693  1.0279 -2.6454 -0.5127
  401MOL0     H52889   2.043  12.351   6.838 -1.4685  0.4454 -0.6277
  401MOL0     H52890   1.819  12.167   6.905 -2.2565  1.9398 -0.5927
  401MOL0     H52891   1.916  12.287   6.991 -2.9114 -4.0718  2.1362
  401MOL0     H52892   1.732  12.337   6.762  0.4070  0.8757 -0.6362
  401MOL0     H52893   1.836  12.460   6.844 -1.6667  0.8997  1.9334
  401MOL0     H52894   1.606  12.165   6.850  0.8399  0.6643  0.9526
  401MOL0     H52895   1.409  12.016   6.920  0.6049  0.6225 -2.5586
  401MOL0     H52896   1.166  11.682   7.127  0.2503 -0.2751 -0.7736
  401MOL0     H52897   0.956  11.565   7.204  1.8326 -0.1682 -2.4865
  401MOL0     H52898   0.647  11.759   7.139 -1.0579  0.1521  0.3982
  401MOL0     H52899   0.546  11.660   7.248 -2.4469  1.0113 -4.5979
  401MOL0     H52900   0.731  11.479   7.146 -0.0423  0.1921  2.8619
  401MOL0     H52901   0.681  11.583   7.001 -0.5279 -2.4701 -0.8182
  401MOL0     H52902   0.448  11.530   7.039  0.3837 -0.9722 -1.3000
  401MOL0     H52903   0.478  11.454   7.188  0.4543  1.6530  0.9630
  401MOL0     H52904   0.614  11.317   6.946  1.0079 -1.7331  1.6688
  401MOL0     H52905   0.607  11.273   7.111 -1.4283 -1.5574  0.7292
  401MOL0     H52906   0.341  11.279   7.072 -2.1964 -3.7748 -0.6383
  401MOL0     H52907   0.435  11.139   7.051 -0.5791 -0.3005  1.9078
  401MOL0     H52908   0.441  11.227   6.795  0.7983  5.5995  0.2661
  401MOL0     H52909   0.322  11.338   6.847  1.1637  0.4461  3.0428
  401MOL0     H52910   0.309  11.037   6.871  2.0970  1.7056 -0.2114
  401MOL0     H52911   0.183  11.129   6.937  1.2534 -2.9104  1.2810
  401MOL0     H52912   0.136  11.210   6.696 -3.6021 -1.1675 -0.5096
  401MOL0     H52913   0.099  11.048   6.740  1.5030 -1.3592  2.2946
  401MOL0     H52914   0.776  11.938   7.277 -0.1119  0.3343  1.9918
  401MOL0     H52915   0.945  12.051   7.212 -3.8429 -1.1904  1.3475
  401MOL0     H52916   1.338  12.314   7.226 -1.9410  0.1767 -0.9964
  401MOL0     H52917   1.538  12.422   7.171  1.9921  0.0635 -1.3795
  401MOL0     H52918   1.941  11.479   7.573  0.5338 -1.8486 -1.1088
  401MOL0     H52919   1.827  11.574   7.761  4.5469  0.5944 -2.4580
  401MOL0     H52920   1.267  11.367   8.001 -1.2479 -1.0225  2.2964
  401MOL0     H52921   1.091  11.497   8.124  0.0752 -0.7703  1.8062
  401MOL0     H52922   0.877  11.780   8.134 -0.9478  2.1996 -3.1946
  401MOL0     H52923   0.942  11.638   8.078  2.7949 -0.4079 -0.0956
  401MOL0     H52924   1.070  11.774   7.888  0.9705 -0.3527  2.4193
  401MOL0     H52925   0.900  11.744   7.884  1.3987 -2.8042  1.9279
  401MOL0     H52926   0.951  11.998   7.833  0.3546 -2.3240 -0.6216
  401MOL0     H52927   1.018  12.005   8.005  2.0260 -2.4078  0.7709
  401MOL0     H52928   0.737  11.896   8.008  0.1080 -0.4112 -0.2056
  401MOL0     H52929   0.789  12.041   8.079 -2.2521  0.8327 -1.1170
  401MOL0     H52930   0.640  12.222   7.748  1.5934  4.1509  3.0103
  401MOL0     H52931   1.317  11.852   8.076  1.2943  0.9849 -1.8517
  401MOL0     H52932   1.509  11.722   7.992 -0.5008  0.5155 -0.8679
  402MOL0     O52933   2.334  11.058   3.718 -0.1151 -0.0254 -0.0866
  402MOL0     C52934   2.441  11.062   3.659 -0.3382 -0.3666  0.8289
  402MOL0     O52935   2.461  11.036   3.524 -0.8091  0.1929 -0.3228
  402MOL0     C52936   2.358  10.982   3.445 -0.3645  0.9294  0.3927
  402MOL0     C52937   2.322  10.853   3.471  1.1483  0.9064 -0.7139
  402MOL0     C52938   2.243  10.773   3.375 -0.7749 -0.9711  0.5680
  402MOL0     C52939   2.209  10.828   3.249 -2.1415 -0.5210  0.4272
  402MOL0     O52940   2.132  10.764   3.154 -0.2364 -0.7715 -0.7259
  402MOL0     C52941   2.203  10.745   3.033 -0.5071 -0.1924 -0.6911
  402MOL0     C52942   2.150  10.630   2.953  0.6225 -0.0279  0.2454
  402MOL0     C52943   2.026  10.658   2.868 -1.8390  0.3933 -0.2546
  402MOL0     C52944   1.992  10.523   2.799 -0.4263  0.5590 -0.3310
  402MOL0     C52945   1.856  10.548   2.733  0.0234 -0.0271 -0.5012
  402MOL0     C52946   1.790  10.437   2.663  0.5410  0.8157 -0.5740
  402MOL0     C52947   1.675  10.476   2.573 -0.9888  0.7050 -1.0675
  402MOL0     C52948   1.582  10.357   2.561  0.1660 -1.1686 -0.1187
  402MOL0     N52949   1.506  10.377   2.432 -0.1470 -0.1323 -0.8787
  402MOL0     C52950   1.397  10.465   2.427 -0.2568  0.2856  0.0280
  402MOL0     C52951   1.317  10.417   2.331 -0.5361  0.3943 -0.7097
  402MOL0     C52952   1.191  10.478   2.269  1.2650 -0.0144 -0.9719
  402MOL0     C52953   1.204  10.625   2.234  0.7847 -0.2110  0.2439
  402MOL0     C52954   1.063  10.691   2.208 -0.3601 -0.1647 -0.4280
  402MOL0     C52955   0.995  10.617   2.095 -0.1274  0.2849 -0.4325
  402MOL0     O52956   0.890  10.694   2.041 -1.1846 -0.0815  0.1360
  402MOL0     C52957   0.809  10.647   1.949 -0.8666  0.1672  0.2572
  402MOL0     C52958   0.823  10.534   1.867  0.6229  0.5484 -0.0933
  402MOL0     C52959   0.740  10.506   1.760 -0.2196 -0.1964  0.0649
  402MOL0     C52960   0.627  10.586   1.744 -0.5952  0.3559  0.2183
  402MOL0     C52961   0.545  10.571   1.626  0.1688  0.0888 -0.0694
  402MOL0     O52962   0.518  10.441   1.572 -0.8434 -0.4534 -0.2310
  402MOL0     C52963   0.425  10.446   1.477  0.1448  0.7430  0.6292
  402MOL0     C52964   0.284  10.442   1.500  0.1617  0.3439 -0.6459
  402MOL0     C52965   0.195  10.458   1.393  0.2728 -0.2526  0.9890
  402MOL0     C52966   0.245  10.468   1.259 -0.3186 -0.8076  0.3022
  402MOL0     O52967   0.162  10.465   1.153 -0.0314  0.3381 -0.4978
  402MOL0     C52968   0.196  10.375   1.041 -0.3988  0.8414  0.3997
  402MOL0     C52969   0.076  10.289   0.997  0.8496  0.7487  0.9988
  402MOL0     C52970   0.045  10.187   1.109 -0.0817  0.0186 -0.5091
  402MOL0     C52971  -0.082  10.226   1.190  0.6157  0.1343 -0.8324
  402MOL0     C52972  -0.112  10.101   1.279 -0.5656  0.3992  0.6040
  402MOL0     C52973  -0.224  10.017   1.198 -0.2474 -0.3634 -0.2437
  402MOL0     C52974  -0.219   9.871   1.224  0.1970  0.4748 -0.8681
  402MOL0     C52975  -0.230   9.847   1.383  0.9536 -0.0666  0.3837
  402MOL0    Cl52976  -0.294   9.696   1.407  0.0688 -0.0827  0.0925
  402MOL0     C52977   0.382  10.489   1.244  0.2984  0.8193  0.0516
  402MOL0     C52978   0.471  10.477   1.346  0.1105  0.1975 -0.1963
  402MOL0     O52979   0.504  10.675   1.583 -0.4566 -0.1556 -0.4120
  402MOL0     C52980   0.602  10.697   1.830  0.5035  0.7155  0.4999
  402MOL0     C52981   0.687  10.717   1.933 -0.2745  0.3167 -0.0362
  402MOL0     N52982   1.368  10.285   2.301  0.4913 -0.1609 -0.4624
  402MOL0     N52983   1.487  10.262   2.350 -0.1078 -0.3531 -0.5997
  402MOL0     C52984   2.247  10.966   3.227 -0.7406 -0.0047 -0.6205
  402MOL0     C52985   2.333  11.033   3.318  0.7435 -0.2358 -1.3873
  402MOL0     C52986   2.572  11.081   3.731  0.2879 -0.3441 -0.9291
  402MOL0     C52987   2.701  11.081   3.674  0.6194  0.7966  0.0563
  402MOL0     C52988   2.812  11.091   3.754 -0.4347 -1.2370  0.1827
  402MOL0     C52989   2.806  11.122   3.886  0.2240  1.1029 -0.2826
  402MOL0     O52990   2.932  11.142   3.942 -0.1115  0.6226 -0.4192
  402MOL0     C52991   2.941  11.179   4.086  0.0591 -0.2409 -0.1896
  402MOL0     C52992   2.907  11.331   4.112  0.3319  0.4991  0.4709
  402MOL0     C52993   3.036  11.395   4.071  2.1093 -0.5204 -0.7775
  402MOL0     C52994   3.015  11.553   4.082 -0.6824  0.4505 -0.0141
  402MOL0     C52995   3.002  11.595   4.225 -0.7971 -0.5485  0.9111
  402MOL0     C52996   3.018  11.643   4.329 -0.3774  0.6373 -0.8715
  402MOL0     C52997   2.684  11.113   3.951  0.6282  0.6725  1.0172
  402MOL0     C52998   2.564  11.099   3.875 -1.3966  0.1586 -0.0851
  402MOL0     H52999   2.348  10.804   3.564  1.2024  0.3574 -1.0137
  402MOL0     H53000   2.200  10.674   3.393 -3.4513  0.3964  2.3907
  402MOL0     H53001   2.304  10.719   3.066 -1.1804  0.2523  1.9800
  402MOL0     H53002   2.224  10.838   2.979 -0.3765  1.2209  1.6560
  402MOL0     H53003   2.148  10.538   3.013 -3.5827  0.8861  1.9101
  402MOL0     H53004   2.218  10.611   2.870 -0.7209  3.8560 -1.9563
  402MOL0     H53005   2.057  10.731   2.793  1.9298 -0.4239  0.2871
  402MOL0     H53006   1.944  10.692   2.932 -1.9891 -0.4324  0.0070
  402MOL0     H53007   2.070  10.492   2.730  0.7927 -2.7463  2.2709
  402MOL0     H53008   1.976  10.440   2.868 -0.5452 -1.2762 -2.4771
  402MOL0     H53009   1.865  10.617   2.648  1.9411  0.0330 -0.2899
  402MOL0     H53010   1.789  10.594   2.806 -1.3602  1.5093 -2.5776
  402MOL0     H53011   1.749  10.357   2.725 -3.8837  2.2586 -1.3028
  402MOL0     H53012   1.870  10.388   2.606 -1.7478  1.1691 -4.4715
  402MOL0     H53013   1.624  10.558   2.623  2.1336  1.6568  0.7923
  402MOL0     H53014   1.714  10.505   2.475  0.8345 -2.9753 -1.6202
  402MOL0     H53015   1.519  10.353   2.650 -0.4412  0.7946 -0.4157
  402MOL0     H53016   1.646  10.268   2.557  1.1895 -0.4036 -2.6731
  402MOL0     H53017   1.390  10.555   2.487 -0.1823 -0.1426  0.6828
  402MOL0     H53018   1.117  10.467   2.349  1.1013 -2.1537 -1.3511
  402MOL0     H53019   1.168  10.405   2.190  0.6583 -1.8423  0.8154
  402MOL0     H53020   1.258  10.637   2.140  2.3137  0.1171  1.1395
  402MOL0     H53021   1.253  10.669   2.321  0.2065  1.9189 -0.4472
  402MOL0     H53022   0.997  10.681   2.295 -0.0408 -1.1575 -0.2884
  402MOL0     H53023   1.088  10.795   2.184 -0.0095 -0.9252 -3.8874
  402MOL0     H53024   0.976  10.516   2.131  2.7188 -0.0098  0.4815
  402MOL0     H53025   1.061  10.582   2.015  0.3967  0.5787 -0.1362
  402MOL0     H53026   0.915  10.479   1.888  1.9473  2.7481  0.2069
  402MOL0     H53027   0.757  10.423   1.693 -2.1221  1.5528 -2.8102
  402MOL0     H53028   0.245  10.435   1.601 -0.9767 -3.5208 -1.2183
  402MOL0     H53029   0.087  10.449   1.403 -0.3835 -0.1299 -3.7693
  402MOL0     H53030   0.283  10.315   1.070 -0.7778 -0.1393 -0.4523
  402MOL0     H53031   0.240  10.441   0.966  1.4743 -2.5335 -1.6994
  402MOL0     H53032   0.107  10.245   0.902  3.3727  0.3551  1.9111
  402MOL0     H53033  -0.009  10.356   0.982  2.5286  2.5573 -1.5104
  402MOL0     H53034   0.132  10.178   1.174 -0.5742  0.5468  0.2342
  402MOL0     H53035   0.035  10.086   1.068 -3.5066  0.7955 -1.9658
  402MOL0     H53036  -0.068  10.318   1.247 -0.2445  0.2012 -0.7289
  402MOL0     H53037  -0.171  10.237   1.128 -2.9029 -2.9898  3.0247
  402MOL0     H53038  -0.174  10.123   1.366 -1.8757 -1.1460  0.1080
  402MOL0     H53039  -0.028  10.042   1.314 -0.9454  0.0344  0.9069
  402MOL0     H53040  -0.194  10.030   1.093 -1.1647  0.9448 -0.3648
  402MOL0     H53041  -0.326  10.056   1.203 -0.0863  0.0876 -0.3318
  402MOL0     H53042  -0.309   9.830   1.177 -1.0400  2.0986 -0.0068
  402MOL0     H53043  -0.125   9.828   1.190  1.4387  1.7311  0.8332
  402MOL0     H53044  -0.280   9.933   1.428  0.3264 -0.8547  1.2149
  402MOL0     H53045  -0.130   9.844   1.427  0.1451 -2.0404  2.2490
  402MOL0     H53046   0.429  10.505   1.147 -0.6563 -1.4176 -0.8572
  402MOL0     H53047   0.575  10.501   1.324 -0.0215  0.7905 -0.1885
  402MOL0     H53048   0.516  10.761   1.815 -0.8890 -1.2486 -0.2134
  402MOL0     H53049   0.662  10.799   1.999  1.9580  1.6482 -0.7570
  402MOL0     H53050   2.223  11.025   3.139  3.3241  2.6265 -0.2155
  402MOL0     H53051   2.366  11.132   3.290 -1.0190  0.5205 -0.9502
  402MOL0     H53052   2.726  11.059   3.570  0.9605 -4.1167  0.9219
  402MOL0     H53053   2.910  11.081   3.707  0.2527  3.1384  0.2555
  402MOL0     H53054   3.039  11.151   4.127  1.6202  2.0736 -2.0644
  402MOL0     H53055   2.870  11.129   4.153  2.8803  0.1818  3.4080
  402MOL0     H53056   2.828  11.355   4.039  1.1332 -3.4173 -1.9752
  402MOL0     H53057   2.875  11.358   4.213 -0.1902  0.9988  0.1822
  402MOL0     H53058   3.050  11.360   3.968  2.3573 -1.5234 -0.4092
  402MOL0     H53059   3.122  11.365   4.132  1.4716  1.7285  1.4106
  402MOL0     H53060   3.109  11.598   4.050 -2.5726  2.9958 -2.4890
  402MOL0     H53061   2.936  11.589   4.016  1.6103  3.0951 -1.5382
  402MOL0     H53062   3.015  11.687   4.427  1.0052  0.6496 -0.8249
  402MOL0     H53063   2.665  11.123   4.057 -0.0389  2.3107  0.7899
  402MOL0     H53064   2.472  11.087   3.932 -0.5188 -1.4240  1.0728
  403MOL0     O53065   2.493   5.986   8.240  0.1874  0.7730  0.8558
  403MOL0     C53066   2.548   5.893   8.302 -0.0298  0.4300 -0.0227
  403MOL0     O53067   2.506   5.762   8.304 -0.8128  0.0916 -0.0322
  403MOL0     C53068   2.431   5.722   8.190  0.5189 -0.3108 -0.8281
  403MOL0     C53069   2.457   5.733   8.054 -0.3715 -0.4604  0.2995
  403MOL0     C53070   2.384   5.675   7.963  0.1265 -0.6928 -0.1081
  403MOL0     C53071   2.274   5.590   7.997 -0.1207 -0.1635 -0.2460
  403MOL0     O53072   2.198   5.534   7.899  0.1784 -0.5577  0.1213
  403MOL0     C53073   2.258   5.467   7.785  0.5350 -0.1449  0.9542
  403MOL0     C53074   2.345   5.342   7.826  0.4041  0.0717  0.4268
  403MOL0     C53075   2.259   5.229   7.895  0.8572  1.3328 -0.4984
  403MOL0     C53076   2.337   5.140   7.992 -0.1282  0.6257  0.4685
  403MOL0     C53077   2.264   5.010   8.032 -0.1861  0.0788  0.5963
  403MOL0     C53078   2.336   4.930   8.129 -0.6082  0.3569 -0.1518
  403MOL0     C53079   2.361   5.001   8.257 -0.1171  1.1432  0.0016
  403MOL0     C53080   2.338   4.902   8.369  0.0762  1.8898  0.3574
  403MOL0     N53081   2.359   4.958   8.508  0.6793  1.3288 -0.2427
  403MOL0     C53082   2.479   4.980   8.569  0.3630  0.7579 -0.1347
  403MOL0     C53083   2.457   4.968   8.699  0.3095  0.0176 -0.0091
  403MOL0     C53084   2.564   4.971   8.808 -0.2337  1.4506  0.2408
  403MOL0     C53085   2.632   4.842   8.826  0.4348  0.5415 -0.6023
  403MOL0     C53086   2.592   4.744   8.941  0.1482  0.1356 -0.3966
  403MOL0     C53087   2.438   4.720   8.938 -0.6874 -0.6713 -0.0002
  403MOL0     O53088   2.416   4.609   9.019  0.5581 -0.0247 -0.1556
  403MOL0     C53089   2.290   4.564   9.041 -1.0121  0.6683  0.9321
  403MOL0     C53090   2.281   4.434   9.089 -0.6257  0.6297 -0.5156
  403MOL0     C53091   2.157   4.367   9.127 -0.2857 -0.6462  0.1579
  403MOL0     C53092   2.039   4.435   9.098 -0.2893  0.6334 -0.0419
  403MOL0     C53093   1.913   4.370   9.122  0.1439  0.7804 -0.3155
  403MOL0     O53094   1.804   4.451   9.123  0.3890 -0.1179 -0.0709
  403MOL0     C53095   1.684   4.394   9.159  0.8205  0.4907 -1.3559
  403MOL0     C53096   1.659   4.367   9.295 -1.0709 -0.0736  0.0736
  403MOL0     C53097   1.533   4.336   9.346  0.1931 -0.3586  0.3795
  403MOL0     C53098   1.421   4.322   9.258 -0.4991 -0.0947  0.1419
  403MOL0     O53099   1.305   4.290   9.322 -0.4159  0.5229  0.0758
  403MOL0     C53100   1.251   4.159   9.273 -0.0227 -0.1640 -0.4532
  403MOL0     C53101   1.112   4.140   9.310 -0.1231 -0.0293  0.2635
  403MOL0     C53102   1.057   4.019   9.239 -1.3166  0.1213  0.8835
  403MOL0     C53103   0.909   4.009   9.278 -0.2199  0.1312  0.0572
  403MOL0     C53104   0.879   3.865   9.269 -0.2804  0.2466  0.2634
  403MOL0     C53105   0.731   3.840   9.308  1.1177  0.5532 -0.3592
  403MOL0     C53106   0.702   3.848   9.459  0.2580 -0.0612 -0.3338
  403MOL0     C53107   0.598   3.748   9.500  1.2031 -0.1677 -0.4524
  403MOL0    Cl53108   0.428   3.796   9.447  0.1568  0.0185 -0.6497
  403MOL0     C53109   1.435   4.339   9.124 -0.1206 -0.6934 -0.4078
  403MOL0     C53110   1.562   4.371   9.075 -0.6979  0.7883  0.7694
  403MOL0     O53111   1.910   4.246   9.139  0.1236 -0.5106  0.7428
  403MOL0     C53112   2.053   4.560   9.035 -1.3178 -0.0543 -0.0997
  403MOL0     C53113   2.173   4.631   9.019 -0.1422 -0.7068  0.2933
  403MOL0     N53114   2.316   4.947   8.720 -0.5528 -0.3158  0.9028
  403MOL0     N53115   2.255   4.945   8.605 -0.4077  0.0044 -0.3336
  403MOL0     C53116   2.244   5.579   8.133  0.1133  1.0264 -0.0072
  403MOL0     C53117   2.320   5.646   8.231  0.1567  0.3832  0.0426
  403MOL0     C53118   2.672   5.922   8.388 -0.2058  0.1002 -0.4840
  403MOL0     C53119   2.736   6.054   8.386  1.1492  0.2712 -0.0631
  403MOL0     C53120   2.860   6.071   8.454 -0.3543  0.1355 -0.1685
  403MOL0     C53121   2.917   5.969   8.523 -0.0511  0.2623 -0.3969
  403MOL0     O53122   3.039   5.975   8.583 -0.5525  0.9341 -0.6081
  403MOL0     C53123   3.107   6.097   8.614  0.4646  0.0047  0.5830
  403MOL0     C53124   3.236   6.053   8.698  0.2346  0.9347  0.7941
  403MOL0     C53125   3.286   5.902   8.694 -0.4961 -0.4195 -0.0920
  403MOL0     C53126   3.416   5.875   8.773  0.0334 -0.9856  1.0672
  403MOL0     C53127   3.383   5.900   8.911  0.2952  0.1887 -0.2233
  403MOL0     C53128   3.352   5.920   9.025  0.1859  0.1414 -0.4260
  403MOL0     C53129   2.854   5.841   8.521 -0.0416  0.1266  0.7016
  403MOL0     C53130   2.737   5.815   8.447  0.0159 -0.4249  0.7636
  403MOL0     H53131   2.540   5.792   8.015 -1.7065  1.0900 -0.3093
  403MOL0     H53132   2.409   5.701   7.861 -1.1073  3.5207  0.4755
  403MOL0     H53133   2.319   5.537   7.727 -0.0808 -2.0291 -2.2729
  403MOL0     H53134   2.180   5.425   7.721  1.0049 -1.2796  1.1030
  403MOL0     H53135   2.431   5.365   7.888  1.9284 -2.9234 -0.3888
  403MOL0     H53136   2.392   5.301   7.736 -0.7731 -0.0900 -0.1335
  403MOL0     H53137   2.217   5.163   7.819  3.8256 -3.6787  1.7343
  403MOL0     H53138   2.171   5.271   7.945 -1.6581 -0.2757 -3.2262
  403MOL0     H53139   2.439   5.116   7.961 -0.5583  0.0277 -0.5143
  403MOL0     H53140   2.344   5.195   8.086 -0.5293  1.4629  0.0156
  403MOL0     H53141   2.251   4.934   7.954  2.7969  1.1218 -1.0835
  403MOL0     H53142   2.168   5.032   8.079  0.2710  0.6423  1.2857
  403MOL0     H53143   2.425   4.882   8.086  0.0846  1.2789  0.1950
  403MOL0     H53144   2.273   4.846   8.157 -0.0201 -1.1384 -2.9209
  403MOL0     H53145   2.465   5.033   8.244  0.2273 -0.4015 -1.3419
  403MOL0     H53146   2.297   5.086   8.285 -0.4608  0.6014  0.9095
  403MOL0     H53147   2.391   4.808   8.353 -0.5399  1.6016 -0.0100
  403MOL0     H53148   2.230   4.886   8.368  0.3618 -0.4979  0.2861
  403MOL0     H53149   2.573   4.966   8.517 -0.5231 -3.0716 -1.0073
  403MOL0     H53150   2.504   4.987   8.898 -1.1312 -0.5424  0.0595
  403MOL0     H53151   2.650   5.036   8.789  4.0888 -2.5577  3.5586
  403MOL0     H53152   2.735   4.871   8.850  1.6277 -3.7479  0.2500
  403MOL0     H53153   2.637   4.791   8.730 -2.2565 -1.4784  0.2228
  403MOL0     H53154   2.649   4.651   8.938  0.6757  0.3352  1.6705
  403MOL0     H53155   2.626   4.796   9.031 -1.8150  2.1101 -0.6966
  403MOL0     H53156   2.403   4.697   8.837 -2.0420 -1.0154  0.5186
  403MOL0     H53157   2.398   4.805   8.994 -0.1859 -0.7501  0.4931
  403MOL0     H53158   2.379   4.391   9.105  1.5448  4.5191 -1.8435
  403MOL0     H53159   2.160   4.264   9.159  0.4864 -0.5621  0.3765
  403MOL0     H53160   1.749   4.344   9.352 -0.5453 -2.6398 -1.6382
  403MOL0     H53161   1.530   4.306   9.451 -2.1371  0.8375  0.7035
  403MOL0     H53162   1.314   4.082   9.318 -2.6834 -3.1744 -1.4906
  403MOL0     H53163   1.267   4.145   9.165  0.9575  0.4339 -0.3996
  403MOL0     H53164   1.061   4.232   9.280  1.4938  1.4541  1.7922
  403MOL0     H53165   1.101   4.122   9.417 -1.8979  0.9525  0.2886
  403MOL0     H53166   1.104   3.928   9.276 -0.0614  0.2753 -0.2412
  403MOL0     H53167   1.057   4.015   9.129  2.2741  1.2096  0.7085
  403MOL0     H53168   0.892   4.036   9.383 -0.3293  1.3686 -0.2682
  403MOL0     H53169   0.841   4.060   9.209 -1.2661 -0.3715  0.6890
  403MOL0     H53170   0.952   3.797   9.314 -3.7162 -4.0201  0.0199
  403MOL0     H53171   0.890   3.847   9.161 -1.1125  0.6512  0.1018
  403MOL0     H53172   0.713   3.735   9.284  1.2727  0.3664  0.3293
  403MOL0     H53173   0.656   3.902   9.258 -1.1058  1.0478  3.2627
  403MOL0     H53174   0.801   3.831   9.501  1.5073  3.4755 -1.4425
  403MOL0     H53175   0.675   3.945   9.503 -1.3777 -1.1344  1.1632
  403MOL0     H53176   0.593   3.736   9.608  0.8866 -3.3940 -0.7278
  403MOL0     H53177   0.622   3.649   9.461  0.3646  0.4067 -2.6446
  403MOL0     H53178   1.349   4.330   9.059  0.7045 -2.0325 -1.3773
  403MOL0     H53179   1.553   4.377   8.967  0.5812  0.8368  0.6479
  403MOL0     H53180   1.967   4.619   9.005 -2.0779 -1.5723 -0.9770
  403MOL0     H53181   2.168   4.732   8.978  0.8942 -2.3257 -4.5101
  403MOL0     H53182   2.164   5.513   8.164  2.3871 -1.4953  0.8737
  403MOL0     H53183   2.303   5.611   8.332  1.1583 -0.0298  0.0750
  403MOL0     H53184   2.689   6.128   8.322  0.3627 -1.1053 -1.1373
  403MOL0     H53185   2.914   6.165   8.452  0.4204 -0.2254  1.6388
  403MOL0     H53186   3.057   6.165   8.684 -3.6674 -0.3255 -1.7348
  403MOL0     H53187   3.122   6.159   8.525 -1.7727  1.1897  0.9510
  403MOL0     H53188   3.321   6.112   8.663  2.1827 -1.8771  0.5362
  403MOL0     H53189   3.206   6.080   8.800 -0.3103  3.1644  0.0977
  403MOL0     H53190   3.296   5.867   8.591  1.8886 -4.8678  1.4285
  403MOL0     H53191   3.204   5.839   8.730 -1.2776 -0.3126 -1.5765
  403MOL0     H53192   3.450   5.772   8.763 -2.0295 -1.5900 -0.1556
  403MOL0     H53193   3.498   5.932   8.728 -0.1473 -1.3154  0.3187
  403MOL0     H53194   3.303   5.932   9.120 -0.9954  0.8157 -1.0866
  403MOL0     H53195   2.913   5.769   8.577  0.8102  2.3306  2.8272
  403MOL0     H53196   2.704   5.712   8.435  1.8149 -1.2340  2.2112
  404MOL0     O53197   8.926   3.272   9.433 -0.1409  0.8298 -0.0714
  404MOL0     C53198   8.900   3.350   9.347  1.1046 -0.5842  0.0089
  404MOL0     O53199   8.862   3.318   9.220  0.0463  0.2626  0.3560
  404MOL0     C53200   8.852   3.184   9.175  0.3971 -0.0395  0.2539
  404MOL0     C53201   8.899   3.138   9.053  0.1775 -0.1200  0.3260
  404MOL0     C53202   8.851   3.021   8.999  0.3366  0.0660  0.1968
  404MOL0     C53203   8.761   2.940   9.069  0.0394  0.5055 -0.5671
  404MOL0     O53204   8.707   2.817   9.016  0.5312  0.6804 -0.1217
  404MOL0     C53205   8.725   2.800   8.875 -0.7472 -0.1697  0.4836
  404MOL0     C53206   8.624   2.697   8.819 -0.2218  0.5008 -0.4861
  404MOL0     C53207   8.639   2.559   8.900  0.9765 -0.0117 -0.0908
  404MOL0     C53208   8.563   2.453   8.822  0.0911  0.8344 -0.5037
  404MOL0     C53209   8.588   2.333   8.909 -0.4034 -0.0372 -0.8487
  404MOL0     C53210   8.512   2.209   8.861  0.7695  0.3733 -0.4501
  404MOL0     C53211   8.565   2.153   8.731 -0.2265  0.1034  0.1805
  404MOL0     C53212   8.485   2.033   8.676 -0.6870 -0.5892 -0.5328
  404MOL0     N53213   8.516   1.901   8.737  0.3253 -0.3679  1.1727
  404MOL0     C53214   8.632   1.821   8.709 -0.0384  1.6361 -0.0777
  404MOL0     C53215   8.624   1.712   8.786  0.6855 -0.6020  0.0397
  404MOL0     C53216   8.735   1.617   8.800  0.0334  0.1327 -0.4886
  404MOL0     C53217   8.697   1.479   8.728 -0.3834  0.7512  1.0831
  404MOL0     C53218   8.769   1.359   8.784 -0.4884 -0.5705 -0.0628
  404MOL0     C53219   8.768   1.239   8.683  0.0699  0.7741 -0.7402
  404MOL0     O53220   8.809   1.114   8.729  0.1747  0.2151 -0.0367
  404MOL0     C53221   8.709   1.044   8.785 -0.0803  0.4174 -0.3236
  404MOL0     C53222   8.608   0.974   8.716  0.1457 -0.7964 -0.3526
  404MOL0     C53223   8.518   0.898   8.791  0.5546  0.1650 -0.3240
  404MOL0     C53224   8.507   0.908   8.933  0.1013  0.2188  0.7021
  404MOL0     C53225   8.397   0.848   9.006 -0.4626 -0.1891 -0.3739
  404MOL0     O53226   8.316   0.761   8.947 -0.3861 -0.8726  0.1068
  404MOL0     C53227   8.202   0.719   9.003 -0.1124  0.6051  1.2135
  404MOL0     C53228   8.095   0.808   9.005 -0.2556 -0.4484 -0.3131
  404MOL0     C53229   7.974   0.770   9.051  0.3440 -0.5154  0.9134
  404MOL0     C53230   7.952   0.638   9.086 -0.1238  0.3947  0.1412
  404MOL0     O53231   7.819   0.600   9.109 -0.0098 -0.2435 -0.8312
  404MOL0     C53232   7.704   0.688   9.108  0.3851 -0.1832  1.0899
  404MOL0     C53233   7.579   0.609   9.136 -0.4074 -0.6660 -0.0976
  404MOL0     C53234   7.446   0.691   9.153 -0.1670 -0.3182  0.5457
  404MOL0     C53235   7.332   0.592   9.122 -0.0922 -0.3146  0.1703
  404MOL0     C53236   7.181   0.644   9.124 -0.4770  0.2310 -0.8807
  404MOL0     C53237   7.098   0.599   9.251  0.2902  0.6434 -0.8508
  404MOL0     C53238   6.980   0.694   9.277 -0.7645  0.4864 -0.3263
  404MOL0     C53239   6.862   0.640   9.352  0.2452 -0.5778  0.9289
  404MOL0    Cl53240   6.721   0.757   9.352 -0.4176  0.1108  0.8669
  404MOL0     C53241   8.050   0.543   9.065 -0.2133  0.0546 -0.3241
  404MOL0     C53242   8.180   0.581   9.041 -0.7485 -0.1763 -0.1046
  404MOL0     O53243   8.380   0.881   9.122  0.2619 -0.0445  0.5318
  404MOL0     C53244   8.598   0.988   8.999 -0.3712  0.2713  0.2510
  404MOL0     C53245   8.701   1.049   8.929 -1.3042  0.7617  0.6122
  404MOL0     N53246   8.507   1.722   8.857  0.0049 -0.0862  0.0108
  404MOL0     N53247   8.447   1.834   8.835  0.3933  0.0200 -0.3568
  404MOL0     C53248   8.716   2.972   9.198  0.1959 -0.2384 -0.8103
  404MOL0     C53249   8.768   3.094   9.247  0.1659 -0.0405  0.3264
  404MOL0     C53250   8.908   3.486   9.389 -0.1939  0.4358  0.2862
  404MOL0     C53251   8.932   3.523   9.522  0.6105  0.5196  0.5935
  404MOL0     C53252   8.954   3.657   9.556  0.4484 -0.2269  0.2616
  404MOL0     C53253   8.942   3.756   9.462  0.4772  0.3529 -0.4150
  404MOL0     O53254   8.945   3.895   9.482  0.4491  1.0483  0.3101
  404MOL0     C53255   8.952   3.933   9.618  0.0107 -2.0898 -1.0758
  404MOL0     C53256   8.975   4.090   9.623 -0.5761  1.1586 -0.2830
  404MOL0     C53257   9.020   4.146   9.757  0.0404 -0.2464 -1.1340
  404MOL0     C53258   8.982   4.299   9.761  0.1595  0.4850  0.1068
  404MOL0     C53259   9.062   4.369   9.860 -0.8883 -0.0341 -0.2166
  404MOL0     C53260   9.139   4.419   9.937 -1.0777  0.4069  0.8272
  404MOL0     C53261   8.929   3.725   9.334  0.4938 -0.1333  1.0593
  404MOL0     C53262   8.906   3.594   9.295  0.2252  0.1197  0.3335
  404MOL0     H53263   8.966   3.208   9.005 -0.5128  0.7455  0.5915
  404MOL0     H53264   8.900   2.988   8.908 -0.6032 -2.7630  0.6201
  404MOL0     H53265   8.830   2.774   8.863 -0.3966  2.0460 -2.2543
  404MOL0     H53266   8.715   2.891   8.815  0.8249 -1.5196 -1.9695
  404MOL0     H53267   8.645   2.666   8.717 -1.9471 -0.1061 -0.6930
  404MOL0     H53268   8.521   2.728   8.840 -1.0453 -1.7366 -0.9941
  404MOL0     H53269   8.593   2.580   8.997  0.1788  2.3227 -0.9107
  404MOL0     H53270   8.745   2.540   8.919  0.8476  1.0164  1.9850
  404MOL0     H53271   8.459   2.484   8.830 -0.0034  0.0301  2.6896
  404MOL0     H53272   8.608   2.438   8.723  0.8953 -2.1778  0.2367
  404MOL0     H53273   8.555   2.346   9.012 -0.2429 -2.1526 -0.4904
  404MOL0     H53274   8.695   2.312   8.913 -0.2453  0.5794 -1.5851
  404MOL0     H53275   8.410   2.243   8.840  0.9358  0.3422 -1.3728
  404MOL0     H53276   8.493   2.139   8.943  0.4412  2.3235  1.2097
  404MOL0     H53277   8.571   2.229   8.652  2.3135 -2.3829 -2.2594
  404MOL0     H53278   8.671   2.131   8.749  0.0531 -0.0055 -1.3955
  404MOL0     H53279   8.511   2.024   8.570  1.0658 -1.8220 -0.0435
  404MOL0     H53280   8.381   2.064   8.682  0.1874  2.7208 -0.6140
  404MOL0     H53281   8.715   1.832   8.640 -0.6859 -2.3405 -1.7805
  404MOL0     H53282   8.759   1.595   8.904 -1.2034  2.6035  0.3890
  404MOL0     H53283   8.828   1.656   8.757 -0.4009  1.8109  0.0447
  404MOL0     H53284   8.719   1.501   8.623 -0.6863  0.7012  1.0084
  404MOL0     H53285   8.592   1.458   8.745 -0.2634  0.0747  0.9870
  404MOL0     H53286   8.873   1.385   8.809 -1.2527  3.8524 -0.7373
  404MOL0     H53287   8.716   1.343   8.879  0.0227  4.7221  1.4259
  404MOL0     H53288   8.841   1.274   8.609  0.5814  4.1985  1.1443
  404MOL0     H53289   8.667   1.224   8.645  0.3903 -1.6243 -0.8007
  404MOL0     H53290   8.603   0.970   8.608 -2.3793 -2.8260 -0.2666
  404MOL0     H53291   8.427   0.849   8.757  1.6536 -2.4547  0.3326
  404MOL0     H53292   8.123   0.912   8.992  2.9049 -1.1620 -0.1370
  404MOL0     H53293   7.898   0.843   9.075 -3.2826 -4.1225  1.6120
  404MOL0     H53294   7.699   0.722   9.004  3.1693 -1.9863  0.2463
  404MOL0     H53295   7.718   0.775   9.173  0.5571  0.1926  0.5531
  404MOL0     H53296   7.582   0.554   9.231  2.8225  3.3778  2.4840
  404MOL0     H53297   7.574   0.540   9.051 -0.5513 -0.5971 -0.1444
  404MOL0     H53298   7.431   0.769   9.078  3.6268 -0.1945 -0.2880
  404MOL0     H53299   7.426   0.734   9.252 -0.6774  1.7174 -0.3875
  404MOL0     H53300   7.343   0.563   9.017 -3.2967 -0.8974 -0.1048
  404MOL0     H53301   7.348   0.499   9.177  0.5265  0.1894  0.8699
  404MOL0     H53302   7.132   0.606   9.034 -0.0531  1.2668 -1.5674
  404MOL0     H53303   7.200   0.751   9.134 -0.3590  0.0139  4.0989
  404MOL0     H53304   7.164   0.597   9.339  0.5420 -2.2468 -1.0160
  404MOL0     H53305   7.053   0.502   9.229 -0.3057  0.1069  2.2305
  404MOL0     H53306   7.021   0.779   9.333  0.1035  0.8611 -1.4911
  404MOL0     H53307   6.948   0.719   9.176 -0.7456 -0.7885 -0.6558
  404MOL0     H53308   6.882   0.626   9.458 -2.4454  3.3471  2.1669
  404MOL0     H53309   6.831   0.551   9.296 -0.2699  0.6601 -0.8801
  404MOL0     H53310   8.025   0.438   9.082 -1.1463  0.0668 -1.5022
  404MOL0     H53311   8.259   0.507   9.030  0.3651  0.9831 -0.0615
  404MOL0     H53312   8.612   0.977   9.106  2.1640 -0.7012 -0.1117
  404MOL0     H53313   8.780   1.098   8.987  1.7598 -2.2410 -0.6871
  404MOL0     H53314   8.648   2.904   9.250  0.6826 -1.6813 -1.9949
  404MOL0     H53315   8.722   3.136   9.336 -1.9807  0.1370 -0.8150
  404MOL0     H53316   8.940   3.452   9.604 -1.8298 -0.4148  0.0859
  404MOL0     H53317   8.978   3.683   9.658  1.1520  0.4562 -0.0703
  404MOL0     H53318   9.036   3.885   9.670  0.0160  2.2744  3.8118
  404MOL0     H53319   8.861   3.899   9.668  1.0436  1.0768  3.5478
  404MOL0     H53320   9.039   4.116   9.538 -0.8126 -1.1168 -1.2210
  404MOL0     H53321   8.880   4.140   9.600 -0.4411  2.0247  0.9970
  404MOL0     H53322   9.128   4.127   9.761  0.2355  0.3681 -2.7491
  404MOL0     H53323   8.966   4.095   9.837  1.3474 -1.3658 -0.9381
  404MOL0     H53324   9.006   4.346   9.665 -1.6415  2.8458  0.7154
  404MOL0     H53325   8.878   4.328   9.774  0.7236  2.0578  1.5403
  404MOL0     H53326   9.205   4.465  10.007  1.3320 -1.0839 -0.3263
  404MOL0     H53327   8.916   3.808   9.265  2.7869 -0.4155  0.1955
  404MOL0     H53328   8.866   3.575   9.196 -2.4351  0.4356  1.2468
  405MOL0     O53329   6.572   1.807   0.660  0.0657  0.4564  0.0793
  405MOL0     C53330   6.688   1.808   0.697  0.3525  0.0682 -0.3968
  405MOL0     O53331   6.793   1.848   0.612  0.1830 -0.9802  0.0909
  405MOL0     C53332   6.759   1.908   0.499  0.4816  0.0930 -0.3021
  405MOL0     C53333   6.758   2.045   0.492  1.0445 -0.5637  0.3167
  405MOL0     C53334   6.742   2.113   0.367  0.5266 -0.0249 -0.2470
  405MOL0     C53335   6.703   2.030   0.261  0.5144 -1.0396  0.7305
  405MOL0     O53336   6.669   2.080   0.137  0.3356  0.0775  0.3517
  405MOL0     C53337   6.673   2.225   0.111 -0.2714 -1.0367  0.6231
  405MOL0     C53338   6.621   2.255  -0.020  0.3322 -0.6469  0.5824
  405MOL0     C53339   6.481   2.209  -0.057 -0.0828  0.0011 -0.4467
  405MOL0     C53340   6.441   2.219  -0.195  0.1908 -0.5379 -0.2017
  405MOL0     C53341   6.409   2.075  -0.254  0.0299 -0.6554  0.3316
  405MOL0     C53342   6.331   2.089  -0.386 -0.2417  0.2402 -0.7416
  405MOL0     C53343   6.272   1.969  -0.462 -0.6341 -0.5196  0.3594
  405MOL0     C53344   6.180   2.003  -0.579 -0.0375  0.8196  0.0299
  405MOL0     N53345   6.112   1.885  -0.635 -0.2433 -0.6599  0.0300
  405MOL0     C53346   5.992   1.843  -0.580 -0.2580  0.0081  0.0306
  405MOL0     C53347   5.967   1.731  -0.652  0.2057  0.7337 -0.2575
  405MOL0     C53348   5.855   1.637  -0.614 -0.2979 -0.4104  0.1241
  405MOL0     C53349   5.903   1.491  -0.603 -1.2272 -1.2551  0.3001
  405MOL0     C53350   5.810   1.392  -0.548  0.4311  0.1460 -0.0059
  405MOL0     C53351   5.880   1.259  -0.574  0.1626 -0.4514 -0.4211
  405MOL0     O53352   5.826   1.168  -0.470  0.3717 -0.7255  0.4238
  405MOL0     C53353   5.895   1.046  -0.456  0.4872  0.1478  0.0183
  405MOL0     C53354   5.914   1.002  -0.330  0.6991 -0.3717 -0.7288
  405MOL0     C53355   5.973   0.882  -0.305 -0.4813  0.5687 -0.5709
  405MOL0     C53356   6.019   0.794  -0.402 -0.4818 -0.4765  0.2932
  405MOL0     C53357   6.096   0.666  -0.368 -0.5730 -0.1379  0.0343
  405MOL0     O53358   6.083   0.622  -0.241  0.3931 -0.1481 -0.7105
  405MOL0     C53359   6.178   0.535  -0.203 -0.1177 -0.1572 -0.8193
  405MOL0     C53360   6.228   0.419  -0.284 -0.4720 -0.3094 -0.0596
  405MOL0     C53361   6.336   0.342  -0.242  0.1120 -0.4278  0.1618
  405MOL0     C53362   6.400   0.360  -0.111  0.0988 -0.3017  0.2584
  405MOL0     O53363   6.508   0.277  -0.066  0.0423 -0.7415 -0.0544
  405MOL0     C53364   6.513   0.142  -0.116  0.7475  0.0361  0.6470
  405MOL0     C53365   6.623   0.139  -0.220  0.5292 -0.0706 -0.1743
  405MOL0     C53366   6.760   0.146  -0.136 -0.1504 -0.1775  0.5558
  405MOL0     C53367   6.887   0.161  -0.222 -0.4343  0.4811  0.0470
  405MOL0     C53368   7.009   0.110  -0.145  0.6313 -0.4527  0.4128
  405MOL0     C53369   7.145   0.132  -0.216  0.3629  0.5154 -0.5217
  405MOL0     C53370   7.246   0.060  -0.140 -0.8585  0.5608  0.4556
  405MOL0     C53371   7.386   0.059  -0.207  0.6127  0.2709 -0.2089
  405MOL0    Cl53372   7.452   0.231  -0.240  0.2587 -0.2293 -0.0161
  405MOL0     C53373   6.354   0.466  -0.034 -1.5460 -0.3660  0.6595
  405MOL0     C53374   6.256   0.556  -0.081 -0.1264  0.0516 -0.8553
  405MOL0     O53375   6.160   0.615  -0.461 -0.2736 -0.1724  0.3975
  405MOL0     C53376   5.996   0.835  -0.538  0.7329  0.4151 -0.4905
  405MOL0     C53377   5.937   0.961  -0.562 -0.3608 -1.1846 -0.2541
  405MOL0     N53378   6.065   1.712  -0.759  0.5328 -0.5207  0.3092
  405MOL0     N53379   6.152   1.813  -0.739 -0.0757 -0.4227  0.3800
  405MOL0     C53380   6.692   1.899   0.271  0.4273  0.8231 -0.4549
  405MOL0     C53381   6.729   1.831   0.385  0.3950  0.0534  0.7033
  405MOL0     C53382   6.723   1.767   0.842  0.0967  0.0366  0.2830
  405MOL0     C53383   6.849   1.755   0.893 -0.0089 -0.8066 -0.0180
  405MOL0     C53384   6.873   1.743   1.032  0.3145  0.4692 -0.0774
  405MOL0     C53385   6.767   1.748   1.117 -0.0521 -0.8933  0.8718
  405MOL0     O53386   6.795   1.751   1.253  0.3587  0.2024  0.3248
  405MOL0     C53387   6.689   1.736   1.350  0.1420  0.7622 -1.2383
  405MOL0     C53388   6.768   1.692   1.478 -1.0915  0.6168  0.3925
  405MOL0     C53389   6.685   1.714   1.604  0.7869 -0.9414  0.5260
  405MOL0     C53390   6.538   1.658   1.600 -0.2156  0.4937  0.6625
  405MOL0     C53391   6.539   1.521   1.545 -0.3655 -0.1273  0.8897
  405MOL0     C53392   6.541   1.411   1.498  1.2482 -0.7738  0.2906
  405MOL0     C53393   6.636   1.751   1.064  0.5046  0.0849 -1.2300
  405MOL0     C53394   6.608   1.766   0.926 -0.7292  0.2773  0.0196
  405MOL0     H53395   6.797   2.103   0.574  0.0532  1.6084 -0.6660
  405MOL0     H53396   6.739   2.222   0.370  2.4930  0.0650 -0.2334
  405MOL0     H53397   6.775   2.264   0.107 -0.9043  0.9456  2.0566
  405MOL0     H53398   6.620   2.283   0.188 -3.7231 -0.2421 -2.1189
  405MOL0     H53399   6.687   2.212  -0.095 -2.4125 -2.0585 -1.2062
  405MOL0     H53400   6.616   2.363  -0.037 -1.9052 -0.2847  2.9116
  405MOL0     H53401   6.416   2.266   0.011  1.4965 -0.2850  1.4066
  405MOL0     H53402   6.470   2.108  -0.017 -4.2390 -0.0723 -1.2630
  405MOL0     H53403   6.352   2.283  -0.205 -0.1769 -1.1821 -1.1856
  405MOL0     H53404   6.521   2.271  -0.249  0.8934 -0.8590  0.5155
  405MOL0     H53405   6.354   2.011  -0.184 -3.0539  1.9462  0.4876
  405MOL0     H53406   6.503   2.022  -0.274  0.7950  1.5002 -2.2281
  405MOL0     H53407   6.411   2.121  -0.452 -1.4608  2.0868 -1.4203
  405MOL0     H53408   6.255   2.167  -0.376 -2.0248 -1.4813 -0.0899
  405MOL0     H53409   6.347   1.902  -0.506 -0.4257  0.9066 -1.6041
  405MOL0     H53410   6.221   1.918  -0.380 -1.3147  0.8257  0.8061
  405MOL0     H53411   6.247   2.045  -0.655  1.5493  1.5715  1.7541
  405MOL0     H53412   6.112   2.081  -0.544 -0.0765  0.4897  0.7135
  405MOL0     H53413   5.963   1.869  -0.479  0.5889  2.1503 -0.2265
  405MOL0     H53414   5.774   1.646  -0.687  1.3164 -1.4292 -1.9016
  405MOL0     H53415   5.808   1.653  -0.517 -0.0066 -0.3425  0.2565
  405MOL0     H53416   5.991   1.480  -0.539 -1.1895  0.7081  0.6443
  405MOL0     H53417   5.928   1.455  -0.703 -1.9602  0.0546 -0.3887
  405MOL0     H53418   5.800   1.411  -0.440  2.8755  1.7918  0.0105
  405MOL0     H53419   5.712   1.400  -0.596  0.4574 -1.3543 -0.3338
  405MOL0     H53420   5.989   1.264  -0.559 -0.1783 -0.8105  2.8460
  405MOL0     H53421   5.866   1.217  -0.674  0.8183  1.7387 -1.4992
  405MOL0     H53422   5.867   1.053  -0.247  2.3572 -1.7788  1.1392
  405MOL0     H53423   5.992   0.852  -0.202  0.8612  0.3957 -0.8517
  405MOL0     H53424   6.187   0.377  -0.375  1.7259 -1.9339 -0.3921
  405MOL0     H53425   6.362   0.264  -0.313 -0.8714 -1.0483  0.4587
  405MOL0     H53426   6.410   0.111  -0.138  0.6000 -0.4356  1.8806
  405MOL0     H53427   6.559   0.075  -0.042 -0.3302  1.4558  2.6726
  405MOL0     H53428   6.616   0.220  -0.293  0.0016 -1.2497 -1.4826
  405MOL0     H53429   6.613   0.055  -0.289 -0.6087 -0.0879 -0.0153
  405MOL0     H53430   6.763   0.055  -0.075  3.5105  0.5769  1.7557
  405MOL0     H53431   6.752   0.228  -0.064  2.6863 -0.5213  1.3744
  405MOL0     H53432   6.879   0.086  -0.301 -2.0205 -0.5348  1.1340
  405MOL0     H53433   6.902   0.261  -0.264 -0.1174  1.6519  2.7519
  405MOL0     H53434   7.000   0.001  -0.139 -0.9338 -0.4413 -1.1014
  405MOL0     H53435   7.019   0.156  -0.046  0.7118 -1.5002  0.9152
  405MOL0     H53436   7.165   0.240  -0.213 -0.7364  0.8153 -2.1310
  405MOL0     H53437   7.140   0.084  -0.315 -0.1827 -2.1761  0.7294
  405MOL0     H53438   7.263   0.120  -0.051  1.2170  3.1156 -1.4826
  405MOL0     H53439   7.216  -0.043  -0.120 -0.1397  0.2703  0.1011
  405MOL0     H53440   7.380   0.012  -0.306  1.7778 -3.3561  1.3158
  405MOL0     H53441   7.462   0.003  -0.152  0.3733  2.9770  3.2019
  405MOL0     H53442   6.413   0.487   0.054  1.1204  2.0101 -1.4911
  405MOL0     H53443   6.226   0.639  -0.018 -3.2700  0.8611 -3.1564
  405MOL0     H53444   6.000   0.758  -0.615 -2.4447 -0.6273  0.2221
  405MOL0     H53445   5.925   0.985  -0.667  0.8467  1.6729  0.1702
  405MOL0     H53446   6.661   1.842   0.184 -0.3984 -2.3871  1.7802
  405MOL0     H53447   6.731   1.723   0.394  0.8501 -0.3134 -2.7216
  405MOL0     H53448   6.928   1.745   0.819 -2.0778 -1.5878 -2.2429
  405MOL0     H53449   6.968   1.723   1.081  1.4643  3.5410 -0.8472
  405MOL0     H53450   6.620   1.658   1.317 -1.0345  1.0564  0.3992
  405MOL0     H53451   6.633   1.830   1.348  1.8751  1.8794  0.2596
  405MOL0     H53452   6.788   1.588   1.448  2.0276  1.4087 -0.5967
  405MOL0     H53453   6.863   1.742   1.496 -0.8391 -0.5259  2.5205
  405MOL0     H53454   6.673   1.821   1.621 -0.8479 -0.9898 -0.1646
  405MOL0     H53455   6.737   1.684   1.696  0.8058  2.7056  1.8782
  405MOL0     H53456   6.502   1.658   1.704 -0.8515 -3.9136  0.6289
  405MOL0     H53457   6.472   1.723   1.542 -0.4459  0.4507  0.8742
  405MOL0     H53458   6.554   1.312   1.458 -0.1451 -0.7706 -0.2218
  405MOL0     H53459   6.545   1.760   1.122  1.7705 -1.5511  1.1460
  405MOL0     H53460   6.505   1.776   0.891  0.1594  2.2709 -2.2637
  406MOL0     O53461   6.655   9.228   3.599  0.2457  0.5671 -0.5725
  406MOL0     C53462   6.734   9.319   3.595 -0.1677  0.2428  0.2776
  406MOL0     O53463   6.705   9.447   3.557 -0.2636 -0.3275  1.0218
  406MOL0     C53464   6.600   9.526   3.611  0.4244 -0.8789  0.3004
  406MOL0     C53465   6.576   9.652   3.553  0.0739 -0.3508 -0.0001
  406MOL0     C53466   6.482   9.738   3.612  0.3333  0.6844 -0.3316
  406MOL0     C53467   6.415   9.691   3.729 -0.3155  0.3403  0.2184
  406MOL0     O53468   6.326   9.782   3.779  0.7851  0.2197 -0.0243
  406MOL0     C53469   6.362   9.826   3.906  0.4757  0.3062 -0.1710
  406MOL0     C53470   6.254   9.785   4.007 -0.5145 -0.1302  0.0723
  406MOL0     C53471   6.269   9.852   4.145 -0.7205 -0.6214  0.3892
  406MOL0     C53472   6.215   9.995   4.157 -0.1853 -0.0833 -0.2540
  406MOL0     C53473   6.279  10.025   4.303 -0.4153 -0.9548  0.1835
  406MOL0     C53474   6.237  10.167   4.345  1.2687  0.0766 -0.4159
  406MOL0     C53475   6.298  10.216   4.474  0.5189  0.8291 -0.4178
  406MOL0     C53476   6.274  10.362   4.499  0.0507 -0.3717  0.0120
  406MOL0     N53477   6.268  10.412   4.640  0.3767 -0.0227  0.0781
  406MOL0     C53478   6.304  10.537   4.687 -0.0273  0.4862  0.3108
  406MOL0     C53479   6.255  10.526   4.819  0.0753  0.5073  0.7583
  406MOL0     C53480   6.274  10.640   4.915  0.1620 -0.4225 -1.1290
  406MOL0     C53481   6.252  10.616   5.072  0.1044  0.0072  0.9396
  406MOL0     C53482   6.104  10.633   5.118 -0.8195 -0.8931 -0.8316
  406MOL0     C53483   6.003  10.554   5.046 -0.0673  0.5217 -0.5335
  406MOL0     O53484   5.949  10.619   4.944  0.0713  0.1263  0.1936
  406MOL0     C53485   5.922  10.559   4.819  0.2297 -0.6930 -0.0162
  406MOL0     C53486   5.945  10.635   4.713 -1.2514 -0.0671  0.3727
  406MOL0     C53487   5.936  10.581   4.589 -0.3496  0.2399  0.2047
  406MOL0     C53488   5.900  10.439   4.570  0.0006 -0.0445  1.0544
  406MOL0     C53489   5.873  10.388   4.434  0.4378  0.1940 -0.4845
  406MOL0     O53490   5.864  10.252   4.429 -0.0366  1.1596  0.2079
  406MOL0     C53491   5.821  10.181   4.310  0.5814  0.4104 -0.0131
  406MOL0     C53492   5.901  10.192   4.193 -0.2765  0.0055 -0.3081
  406MOL0     C53493   5.853  10.145   4.075  0.5803 -0.3018 -0.6810
  406MOL0     C53494   5.727  10.076   4.070  0.2473 -0.3433  0.5313
  406MOL0     O53495   5.671  10.010   3.956 -0.5677 -0.3309 -0.8642
  406MOL0     C53496   5.733  10.015   3.830 -0.1862  0.3776 -0.1893
  406MOL0     C53497   5.646   9.952   3.721 -0.2835 -0.3314 -0.7662
  406MOL0     C53498   5.508  10.007   3.719 -0.1323 -0.4589 -1.3863
  406MOL0     C53499   5.417   9.976   3.596  0.2614 -0.8264  0.2684
  406MOL0     C53500   5.273  10.027   3.620 -0.0901  0.9839 -0.1098
  406MOL0     C53501   5.183   9.907   3.604  0.5143  0.7658 -0.3535
  406MOL0     C53502   5.181   9.829   3.471 -0.1193  0.6843  0.7491
  406MOL0     C53503   5.060   9.742   3.467 -0.0075 -0.2269 -0.4417
  406MOL0    Cl53504   5.077   9.629   3.606 -0.0278 -0.4085 -0.1959
  406MOL0     C53505   5.663  10.045   4.193 -0.5732  1.5084 -0.9188
  406MOL0     C53506   5.703  10.110   4.315 -0.2906  0.5755 -1.3235
  406MOL0     O53507   5.859  10.460   4.338  0.3213  0.4154  0.0814
  406MOL0     C53508   5.883  10.366   4.681 -0.6914 -0.9741 -0.0003
  406MOL0     C53509   5.888  10.422   4.807  0.2995 -0.4066  0.2965
  406MOL0     N53510   6.214  10.403   4.849  0.1599  0.2153 -0.0822
  406MOL0     N53511   6.209  10.341   4.735  0.5385  1.0276  0.2956
  406MOL0     C53512   6.424   9.569   3.780  0.3166 -0.4161 -0.8039
  406MOL0     C53513   6.520   9.484   3.721 -0.4944  0.5265 -0.6252
  406MOL0     C53514   6.880   9.281   3.622 -0.1268  0.6764 -0.4105
  406MOL0     C53515   6.921   9.143   3.602 -0.8112 -0.5850  0.4606
  406MOL0     C53516   7.054   9.114   3.598 -0.3821 -0.1915 -0.2860
  406MOL0     C53517   7.162   9.216   3.615 -0.8059 -1.3394  0.1969
  406MOL0     O53518   7.299   9.181   3.592 -0.4173  0.4585  0.0820
  406MOL0     C53519   7.393   9.293   3.614 -1.0015  0.9562  0.3162
  406MOL0     C53520   7.532   9.232   3.587 -0.2106 -0.5697 -0.0539
  406MOL0     C53521   7.627   9.352   3.584 -0.0150  0.7041  0.0884
  406MOL0     C53522   7.772   9.316   3.586  0.2591  0.3113 -0.0219
  406MOL0     C53523   7.798   9.218   3.695  0.2079 -0.1372  0.7554
  406MOL0     C53524   7.807   9.140   3.786 -0.2779  0.6682 -0.8723
  406MOL0     C53525   7.117   9.347   3.642 -0.3232  0.9576 -0.4277
  406MOL0     C53526   6.984   9.380   3.641 -0.8038 -0.2251  0.2896
  406MOL0     H53527   6.641   9.674   3.468 -1.4613 -0.4527 -1.2410
  406MOL0     H53528   6.453   9.835   3.572  1.2949  1.0640 -0.1319
  406MOL0     H53529   6.363   9.936   3.904 -0.4031  0.4896  2.9947
  406MOL0     H53530   6.465   9.799   3.929  0.7716  0.7903 -0.9111
  406MOL0     H53531   6.268   9.678   4.024  1.0738  0.0267 -0.0776
  406MOL0     H53532   6.153   9.805   3.969  0.0284 -0.3434 -1.5508
  406MOL0     H53533   6.376   9.868   4.166 -0.6911  0.6547 -0.6128
  406MOL0     H53534   6.220   9.808   4.232 -1.2988  1.7261  1.3279
  406MOL0     H53535   6.255  10.067   4.085  0.4172 -1.3528 -1.2130
  406MOL0     H53536   6.106   9.992   4.147 -0.1275  1.9230 -2.3095
  406MOL0     H53537   6.388  10.019   4.307 -0.2872 -0.8697 -1.8661
  406MOL0     H53538   6.236   9.963   4.382 -1.5041  0.5657  0.8245
  406MOL0     H53539   6.129  10.174   4.359  1.6031  2.3284  1.6073
  406MOL0     H53540   6.254  10.227   4.255  0.5223 -0.4268 -0.9007
  406MOL0     H53541   6.253  10.164   4.559  5.6527 -0.1712  2.0977
  406MOL0     H53542   6.405  10.192   4.480 -0.0631 -1.9563  4.4319
  406MOL0     H53543   6.179  10.381   4.448  0.2589  1.0146  0.1101
  406MOL0     H53544   6.360  10.408   4.449 -0.1916  1.8571  1.5060
  406MOL0     H53545   6.349  10.623   4.639 -1.3499  2.8522  3.0434
  406MOL0     H53546   6.191  10.709   4.893 -0.0561  1.3803  3.8397
  406MOL0     H53547   6.369  10.692   4.902  0.6064 -1.1188 -0.7300
  406MOL0     H53548   6.319  10.683   5.127  0.4014 -1.6864  2.7593
  406MOL0     H53549   6.282  10.513   5.093 -4.1621 -1.6821 -0.3179
  406MOL0     H53550   6.096  10.609   5.225  2.5776  2.7954  0.5066
  406MOL0     H53551   6.071  10.737   5.118  0.5902 -0.4168 -0.2251
  406MOL0     H53552   5.921  10.550   5.118 -0.7790  1.7898 -1.2487
  406MOL0     H53553   6.040  10.453   5.025  3.9918  1.2593  1.8603
  406MOL0     H53554   5.968  10.736   4.748 -0.0709 -0.4704  0.8189
  406MOL0     H53555   5.941  10.645   4.501  1.9434 -0.7675 -0.4718
  406MOL0     H53556   5.990  10.252   4.207  1.4650 -2.6065  0.7321
  406MOL0     H53557   5.917  10.166   3.990 -0.3616  1.5418 -0.9834
  406MOL0     H53558   5.820   9.949   3.830 -1.5024 -1.6656  3.6732
  406MOL0     H53559   5.750  10.121   3.810 -0.3356  0.8967  2.1288
  406MOL0     H53560   5.634   9.845   3.741 -0.0746  0.1009  2.0607
  406MOL0     H53561   5.694   9.964   3.623  1.3122 -0.7893 -0.0716
  406MOL0     H53562   5.501  10.115   3.731  0.9228 -0.0260 -4.0601
  406MOL0     H53563   5.476   9.950   3.807 -0.0426 -3.1374 -2.9685
  406MOL0     H53564   5.450  10.040   3.513 -0.0014  0.9052  1.4304
  406MOL0     H53565   5.424   9.871   3.567  0.1427 -0.5603 -0.8122
  406MOL0     H53566   5.251  10.112   3.554 -0.7539  3.0116  2.5814
  406MOL0     H53567   5.267  10.055   3.725 -0.7007 -2.1689  0.7863
  406MOL0     H53568   5.083   9.951   3.618 -0.5156 -0.4727 -3.0265
  406MOL0     H53569   5.189   9.832   3.683 -1.2110 -1.7006 -2.3844
  406MOL0     H53570   5.181   9.894   3.383 -3.0339 -2.0279 -1.5222
  406MOL0     H53571   5.270   9.767   3.466 -1.1447 -0.7637 -1.0111
  406MOL0     H53572   5.051   9.673   3.382  1.1331  0.7666 -1.4094
  406MOL0     H53573   4.971   9.805   3.463 -0.2613 -0.5803 -0.4999
  406MOL0     H53574   5.576   9.980   4.196  1.7381 -1.7947  1.1456
  406MOL0     H53575   5.651  10.097   4.409  2.6403 -1.2495  0.2100
  406MOL0     H53576   5.846  10.264   4.676 -0.3438 -1.0513 -1.8018
  406MOL0     H53577   5.844  10.364   4.887 -2.7343  1.7893  0.3862
  406MOL0     H53578   6.362   9.528   3.860  1.0421 -0.2662 -0.1526
  406MOL0     H53579   6.539   9.387   3.766  2.3530  0.4186 -1.8111
  406MOL0     H53580   6.852   9.061   3.585  0.3617 -1.3966 -0.5479
  406MOL0     H53581   7.086   9.011   3.582  1.8982 -0.0086  2.3984
  406MOL0     H53582   7.379   9.338   3.713  2.5565  1.9800  0.4771
  406MOL0     H53583   7.366   9.369   3.541 -0.2502  1.3788  0.4713
  406MOL0     H53584   7.552   9.158   3.665  1.9999 -3.3780 -3.0171
  406MOL0     H53585   7.541   9.178   3.493 -1.0165  1.3521 -1.3073
  406MOL0     H53586   7.604   9.403   3.678  0.3426 -1.4618  1.4151
  406MOL0     H53587   7.609   9.422   3.501 -2.5456  0.8584  0.6769
  406MOL0     H53588   7.792   9.266   3.490 -1.7051 -1.3032  0.3425
  406MOL0     H53589   7.837   9.404   3.593 -0.5838  0.8281  1.8606
  406MOL0     H53590   7.817   9.069   3.866 -0.3530  1.1183 -0.4604
  406MOL0     H53591   7.193   9.424   3.654  2.5484 -1.9191  2.1994
  406MOL0     H53592   6.956   9.485   3.645 -0.2357 -0.0505 -0.2146
  407MOL0     O53593   4.358   1.169   1.349 -0.0213  0.3774  0.2246
  407MOL0     C53594   4.309   1.078   1.285  0.4637 -1.0465  0.5203
  407MOL0     O53595   4.328   0.946   1.298  0.7402 -0.3660  0.0167
  407MOL0     C53596   4.409   0.903   1.400 -0.0142  0.0251 -0.1100
  407MOL0     C53597   4.511   0.818   1.362 -0.2445 -0.2715  0.0216
  407MOL0     C53598   4.582   0.759   1.467 -0.2539  0.0057  1.1267
  407MOL0     C53599   4.549   0.775   1.601  0.0301 -0.6286  0.3979
  407MOL0     O53600   4.601   0.691   1.693 -0.6314 -0.1431 -0.3034
  407MOL0     C53601   4.631   0.738   1.821 -0.1285 -0.2584  0.2213
  407MOL0     C53602   4.740   0.652   1.885  0.5839 -0.7082  0.3986
  407MOL0     C53603   4.881   0.679   1.822 -0.0773  0.0762 -0.3205
  407MOL0     C53604   4.962   0.815   1.825  1.0821 -0.4564 -0.5668
  407MOL0     C53605   5.026   0.830   1.970 -0.1351 -0.0161  0.3190
  407MOL0     C53606   5.042   0.979   2.007  0.1954 -0.3689 -0.3492
  407MOL0     C53607   5.154   1.001   2.105  1.2352 -0.1099  0.2903
  407MOL0     C53608   5.305   0.970   2.059 -0.0594  0.3315  0.0145
  407MOL0     N53609   5.340   1.032   1.936  0.1690  0.9644  0.7947
  407MOL0     C53610   5.320   1.164   1.917 -0.2390  0.2637  0.6792
  407MOL0     C53611   5.351   1.191   1.793 -0.1144 -0.5950  0.4379
  407MOL0     C53612   5.346   1.331   1.730 -0.3294 -0.5189  0.2644
  407MOL0     C53613   5.203   1.393   1.730 -1.6031 -0.4395  0.5525
  407MOL0     C53614   5.196   1.527   1.657 -0.1104  0.7857  0.4467
  407MOL0     C53615   5.052   1.579   1.660 -0.5081 -0.4245  0.6482
  407MOL0     O53616   5.063   1.719   1.624 -0.2691  0.0748  0.3852
  407MOL0     C53617   5.105   1.815   1.714 -1.2759  1.0465 -0.0258
  407MOL0     C53618   5.095   1.951   1.668  0.6153  0.3278 -0.2200
  407MOL0     C53619   5.128   2.059   1.740  1.0751 -0.0323 -1.0097
  407MOL0     C53620   5.158   2.039   1.875  0.3490 -0.0764  0.9143
  407MOL0     C53621   5.177   2.153   1.963 -0.7559  1.1064  0.8580
  407MOL0     O53622   5.201   2.279   1.900  0.1381 -0.1814 -1.0441
  407MOL0     C53623   5.216   2.391   1.992 -0.0581 -0.5779 -0.1211
  407MOL0     C53624   5.172   2.503   1.930 -0.3508  0.2214  0.0295
  407MOL0     C53625   5.213   2.623   1.975 -0.9595  0.3034 -0.5566
  407MOL0     C53626   5.311   2.644   2.077 -0.8394  0.4619  0.1501
  407MOL0     O53627   5.374   2.762   2.092 -0.4164 -0.7705 -0.9669
  407MOL0     C53628   5.455   2.769   2.214 -1.0022 -0.2875  0.3812
  407MOL0     C53629   5.508   2.907   2.244  0.9561 -0.5929  0.3349
  407MOL0     C53630   5.601   2.967   2.133  1.0181  0.5871  0.4359
  407MOL0     C53631   5.654   3.109   2.171  0.1996 -0.1313 -0.5714
  407MOL0     C53632   5.772   3.150   2.079 -0.8097  0.1404  0.3310
  407MOL0     C53633   5.824   3.286   2.134  0.7474  0.3070  0.1214
  407MOL0     C53634   5.935   3.337   2.040 -0.1766 -0.5528 -0.4344
  407MOL0     C53635   5.964   3.487   2.057 -0.7496 -0.1712 -0.1187
  407MOL0    Cl53636   6.001   3.519   2.233  0.0915 -0.2537  0.5878
  407MOL0     C53637   5.340   2.522   2.150 -0.1669 -0.3328  0.9395
  407MOL0     C53638   5.292   2.396   2.105 -1.6334 -1.1502  0.8095
  407MOL0     O53639   5.161   2.144   2.081 -0.7384  0.4141 -0.2434
  407MOL0     C53640   5.156   1.909   1.933 -0.8410 -0.6335 -0.2011
  407MOL0     C53641   5.132   1.805   1.850  0.2618  0.4999  0.4886
  407MOL0     N53642   5.403   1.077   1.735 -0.0761 -0.5700 -0.2070
  407MOL0     N53643   5.390   0.981   1.823  0.6164 -0.0409  0.4907
  407MOL0     C53644   4.455   0.873   1.640 -1.0284  0.5071 -0.3692
  407MOL0     C53645   4.389   0.938   1.531 -0.1630 -1.0465  0.2864
  407MOL0     C53646   4.233   1.131   1.166 -0.2546  0.2803  0.2433
  407MOL0     C53647   4.178   1.037   1.076  0.4617 -0.1114 -0.0077
  407MOL0     C53648   4.098   1.084   0.972  0.6052 -0.3214 -0.4845
  407MOL0     C53649   4.063   1.218   0.945 -0.9431  0.8015  0.4351
  407MOL0     O53650   3.981   1.253   0.846 -0.2461  1.1096  0.2175
  407MOL0     C53651   4.025   1.343   0.746  0.3973 -0.4294  0.7822
  407MOL0     C53652   3.929   1.369   0.631  1.0373 -0.1881  0.0548
  407MOL0     C53653   3.789   1.406   0.689 -0.0672 -0.5950  0.4551
  407MOL0     C53654   3.771   1.547   0.748 -0.0428 -0.9277  1.0731
  407MOL0     C53655   3.815   1.654   0.656 -0.4039  0.3347  0.2431
  407MOL0     C53656   3.852   1.746   0.582 -0.9647  0.0283  0.1640
  407MOL0     C53657   4.116   1.311   1.043  0.3740  0.6001 -0.8457
  407MOL0     C53658   4.189   1.268   1.153  0.0913  0.2979  0.1282
  407MOL0     H53659   4.525   0.811   1.255 -3.7889 -2.3234 -0.4670
  407MOL0     H53660   4.658   0.689   1.433 -0.5456  0.9385 -1.8108
  407MOL0     H53661   4.548   0.724   1.891  2.5638 -0.5595  3.5566
  407MOL0     H53662   4.668   0.841   1.819  0.6100 -0.5200  0.2441
  407MOL0     H53663   4.714   0.546   1.877  2.0266 -0.9508 -2.1905
  407MOL0     H53664   4.728   0.675   1.991 -2.0281 -0.2450  0.0788
  407MOL0     H53665   4.860   0.657   1.717  0.1426 -1.0682 -0.1345
  407MOL0     H53666   4.938   0.601   1.872 -0.3847 -1.0606 -1.6754
  407MOL0     H53667   5.044   0.801   1.754 -1.1613 -4.0744 -2.7934
  407MOL0     H53668   4.900   0.902   1.803 -0.7504 -1.7617 -0.7986
  407MOL0     H53669   5.125   0.785   1.971 -0.1672 -0.0844  0.7640
  407MOL0     H53670   4.957   0.793   2.048 -1.7934  1.8953 -0.1573
  407MOL0     H53671   4.948   1.005   2.057  1.1011 -0.8212  1.6960
  407MOL0     H53672   5.051   1.051   1.925 -1.2409 -0.9131 -1.0342
  407MOL0     H53673   5.165   1.106   2.132 -0.6029  0.2363 -0.1668
  407MOL0     H53674   5.135   0.942   2.195 -0.7740  2.3419  1.6218
  407MOL0     H53675   5.304   0.861   2.051 -5.0778  0.2877 -3.8511
  407MOL0     H53676   5.360   1.020   2.140 -2.5512  5.0437 -0.8820
  407MOL0     H53677   5.279   1.240   1.983  0.9460  0.3502  1.3383
  407MOL0     H53678   5.375   1.345   1.625  0.0423  0.6780  0.5109
  407MOL0     H53679   5.428   1.381   1.781  2.3524 -5.3259  1.2646
  407MOL0     H53680   5.187   1.404   1.838  0.4700 -2.1147  1.0987
  407MOL0     H53681   5.143   1.315   1.682  1.0815 -0.9166 -2.3035
  407MOL0     H53682   5.259   1.596   1.713  0.3475  0.9097 -0.2123
  407MOL0     H53683   5.234   1.531   1.555  2.1055  1.9672  1.2650
  407MOL0     H53684   5.000   1.569   1.756 -0.3870  2.9674  1.1981
  407MOL0     H53685   4.990   1.519   1.592 -0.6485  0.1267  0.2861
  407MOL0     H53686   5.072   1.947   1.562  1.8452  0.5995 -0.5169
  407MOL0     H53687   5.132   2.151   1.681  1.2512 -0.2309 -1.3135
  407MOL0     H53688   5.103   2.484   1.847  0.1010  0.0701 -0.3142
  407MOL0     H53689   5.188   2.712   1.919 -0.1657  0.0901 -1.2647
  407MOL0     H53690   5.543   2.711   2.185 -1.6913 -0.2813 -2.0038
  407MOL0     H53691   5.394   2.728   2.295 -2.5102 -0.8035 -0.9489
  407MOL0     H53692   5.566   2.890   2.335  0.4106 -0.5419  0.6997
  407MOL0     H53693   5.414   2.959   2.265 -1.5697 -4.7099  0.3741
  407MOL0     H53694   5.535   2.971   2.046  0.4912 -0.6936  0.7469
  407MOL0     H53695   5.686   2.900   2.114  1.9986  1.9999 -0.3620
  407MOL0     H53696   5.566   3.172   2.159 -0.9167 -0.9482  2.3107
  407MOL0     H53697   5.690   3.112   2.275  1.4915 -0.2676 -0.9966
  407MOL0     H53698   5.735   3.152   1.976 -3.7112 -2.9595  1.1309
  407MOL0     H53699   5.851   3.075   2.087 -0.6349  0.3131  0.2217
  407MOL0     H53700   5.865   3.271   2.234 -3.2442  0.9956  2.0501
  407MOL0     H53701   5.740   3.355   2.142  1.4614  1.2120 -0.0174
  407MOL0     H53702   6.028   3.281   2.051  0.1256  0.0438  0.1498
  407MOL0     H53703   5.907   3.336   1.935  2.7312  3.0535 -1.4789
  407MOL0     H53704   5.874   3.541   2.028 -0.6648  0.0997  0.1146
  407MOL0     H53705   6.044   3.518   1.990 -1.0739  0.7068 -0.1012
  407MOL0     H53706   5.415   2.515   2.228  1.1389 -1.0371 -0.3461
  407MOL0     H53707   5.313   2.296   2.141 -0.8362 -1.3811 -0.2249
  407MOL0     H53708   5.183   1.883   2.035  2.5593 -3.3292 -1.5869
  407MOL0     H53709   5.146   1.707   1.895 -0.2172 -0.3676 -1.1906
  407MOL0     H53710   4.428   0.890   1.744 -0.4234  0.3636 -0.1822
  407MOL0     H53711   4.313   1.008   1.563 -0.9891 -1.4715 -0.7175
  407MOL0     H53712   4.196   0.930   1.080  2.3640  0.0893 -1.8144
  407MOL0     H53713   4.047   1.004   0.921 -0.6737  2.1876 -3.4975
  407MOL0     H53714   4.118   1.314   0.698  0.7230 -1.4520  1.9910
  407MOL0     H53715   4.052   1.436   0.798  3.7918  0.2278 -1.8476
  407MOL0     H53716   3.973   1.452   0.575 -1.3233  1.0048 -0.1869
  407MOL0     H53717   3.926   1.282   0.564  1.2115  0.4006 -0.7344
  407MOL0     H53718   3.749   1.327   0.754  0.0575 -0.7133  0.3895
  407MOL0     H53719   3.718   1.396   0.606 -0.8921  2.9746  0.5905
  407MOL0     H53720   3.665   1.567   0.766  0.1122 -0.7425  1.7753
  407MOL0     H53721   3.827   1.547   0.842  2.1485  0.3933 -0.1405
  407MOL0     H53722   3.882   1.839   0.537 -0.4020  0.6878  1.8473
  407MOL0     H53723   4.076   1.410   1.022 -1.6718 -0.0196 -0.1347
  407MOL0     H53724   4.220   1.345   1.222 -0.5305  0.1307  0.6070
  408MOL0     O53725  10.408   0.013   3.148  0.0666  0.3253 -0.2470
  408MOL0     C53726  10.295   0.024   3.188  0.1026  0.1531 -0.7572
  408MOL0     O53727  10.195   0.059   3.106  0.9020  0.3100 -0.3541
  408MOL0     C53728  10.221   0.096   2.972  0.3360  0.8581 -0.8323
  408MOL0     C53729  10.168   0.218   2.926  0.7725  0.1849 -0.7990
  408MOL0     C53730  10.190   0.255   2.798 -0.6416 -0.3077  0.9457
  408MOL0     C53731  10.267   0.181   2.701  1.0461  0.5239 -0.5686
  408MOL0     O53732  10.293   0.222   2.576  0.8574 -0.5281 -0.1180
  408MOL0     C53733  10.308   0.121   2.476  1.2622 -0.0957  0.2100
  408MOL0     C53734  10.323   0.196   2.343  0.7084 -0.2941 -0.1245
  408MOL0     C53735  10.423   0.306   2.333 -0.2042 -0.0417 -0.3998
  408MOL0     C53736  10.564   0.279   2.385  0.5366 -0.5735 -0.4686
  408MOL0     C53737  10.668   0.395   2.332 -0.6406  0.1612 -0.5744
  408MOL0     C53738  10.734   0.363   2.191  0.4703 -0.3332 -0.0706
  408MOL0     C53739  10.802   0.213   2.182  0.1626 -0.2631 -0.8465
  408MOL0     C53740  10.917   0.194   2.075 -0.1997 -0.1614 -0.3614
  408MOL0     N53741  10.862   0.259   1.948 -0.5567 -0.2032  0.8569
  408MOL0     C53742  10.739   0.246   1.895  1.3058 -1.3032  0.6999
  408MOL0     C53743  10.740   0.327   1.785 -0.1008 -0.2691 -0.2084
  408MOL0     C53744  10.621   0.335   1.691 -0.0517  0.1269 -0.5448
  408MOL0     C53745  10.636   0.426   1.578 -0.1616 -0.8843  0.3822
  408MOL0     C53746  10.716   0.361   1.465 -0.3599  1.3203 -0.5373
  408MOL0     C53747  10.637   0.265   1.389  0.4208  0.0097 -0.7288
  408MOL0     O53748  10.722   0.166   1.328  0.0568 -0.8412  0.1466
  408MOL0     C53749  10.664   0.054   1.285  1.0825  0.3850  0.7042
  408MOL0     C53750  10.751  -0.048   1.250  0.3134 -0.2586  0.9610
  408MOL0     C53751  10.691  -0.168   1.197 -0.2139 -0.0246 -1.3168
  408MOL0     C53752  10.555  -0.204   1.193 -0.1843  0.0505  0.4341
  408MOL0     C53753  10.493  -0.329   1.152 -0.3207 -1.2156 -0.6100
  408MOL0     O53754  10.571  -0.422   1.079 -0.0394 -0.9382 -0.0010
  408MOL0     C53755  10.523  -0.531   1.014 -0.0369  0.2714 -0.3295
  408MOL0     C53756  10.615  -0.622   0.971 -0.1441  0.7434 -0.3811
  408MOL0     C53757  10.588  -0.738   0.908 -1.1193  0.9358  0.1762
  408MOL0     C53758  10.457  -0.772   0.880  0.0567 -0.0341 -0.1492
  408MOL0     O53759  10.427  -0.890   0.816  0.3398 -0.7574 -0.0710
  408MOL0     C53760  10.464  -0.896   0.672  0.3532 -0.0303 -0.7690
  408MOL0     C53761  10.492  -1.046   0.635  0.2397  0.4031  0.3376
  408MOL0     C53762  10.562  -1.131   0.728 -0.4251 -1.1726  0.0624
  408MOL0     C53763  10.576  -1.280   0.678 -0.4083  0.0950  0.1717
  408MOL0     C53764  10.647  -1.378   0.761 -0.3731  0.5366 -0.6081
  408MOL0     C53765  10.796  -1.335   0.785 -0.6624 -0.2855 -1.0834
  408MOL0     C53766  10.816  -1.322   0.944  1.0684 -0.0779  0.1939
  408MOL0     C53767  10.948  -1.265   0.995 -0.0590  0.8282  1.1488
  408MOL0    Cl53768  10.994  -1.116   0.914 -0.0979 -0.0479  0.0176
  408MOL0     C53769  10.362  -0.687   0.936  0.0702 -0.3926 -0.9536
  408MOL0     C53770  10.383  -0.565   0.995 -0.5727 -0.2321 -1.2244
  408MOL0     O53771  10.371  -0.338   1.168 -0.6025  0.0888 -0.5161
  408MOL0     C53772  10.473  -0.087   1.226  0.1176  0.2268  0.4025
  408MOL0     C53773  10.522   0.034   1.275 -0.6178 -1.1593  0.1137
  408MOL0     N53774  10.860   0.398   1.780 -0.6131  1.3071  0.3567
  408MOL0     N53775  10.942   0.343   1.869  0.1375 -0.5971  0.3318
  408MOL0     C53776  10.338   0.067   2.760 -0.4556 -0.2445  0.2492
  408MOL0     C53777  10.309   0.018   2.885 -0.2443  0.7366 -0.2680
  408MOL0     C53778  10.272   0.009   3.339 -1.1972 -0.2543 -0.2248
  408MOL0     C53779  10.352  -0.071   3.428  0.0765  0.0263 -0.5580
  408MOL0     C53780  10.332  -0.060   3.567 -0.8746  0.0125  0.9145
  408MOL0     C53781  10.240   0.028   3.613  0.4817 -0.4155 -0.1965
  408MOL0     O53782  10.230   0.050   3.749 -0.5028  0.6949  0.3801
  408MOL0     C53783  10.183  -0.055   3.842 -0.6176 -0.3113 -0.0557
  408MOL0     C53784  10.217  -0.012   3.984 -0.3547  0.1045 -0.1588
  408MOL0     C53785  10.372  -0.010   4.017  0.1151  0.1231 -0.3585
  408MOL0     C53786  10.394   0.036   4.155 -0.6923 -0.5185 -0.0534
  408MOL0     C53787  10.387  -0.068   4.258 -0.2381  0.5358  0.7245
  408MOL0     C53788  10.390  -0.171   4.327 -0.2353  0.0945 -0.0738
  408MOL0     C53789  10.163   0.111   3.532 -0.2298 -1.0216  0.4310
  408MOL0     C53790  10.182   0.098   3.396  0.1204  1.2361  0.0904
  408MOL0     H53791  10.099   0.282   2.981 -0.0578  0.6477 -2.3425
  408MOL0     H53792  10.157   0.346   2.749  0.3663 -0.5958 -0.3213
  408MOL0     H53793  10.223   0.053   2.466  1.8455 -0.5283 -3.1843
  408MOL0     H53794  10.398   0.063   2.498  0.5234 -1.5583 -0.5074
  408MOL0     H53795  10.223   0.223   2.307 -1.1429 -3.4996  2.1102
  408MOL0     H53796  10.353   0.111   2.281  0.5952 -3.0951  3.3338
  408MOL0     H53797  10.386   0.396   2.383 -0.1459 -0.1111 -0.2313
  408MOL0     H53798  10.418   0.336   2.229 -2.4913  2.6666  0.3808
  408MOL0     H53799  10.572   0.271   2.494 -3.3718  0.1427  0.0092
  408MOL0     H53800  10.596   0.184   2.341  0.8332  1.4896 -5.3583
  408MOL0     H53801  10.757   0.387   2.394 -1.1146 -0.2367  0.0619
  408MOL0     H53802  10.608   0.487   2.327 -2.7268 -1.1676 -1.2469
  408MOL0     H53803  10.816   0.434   2.187  1.3676 -0.8562  4.0511
  408MOL0     H53804  10.666   0.383   2.108  1.6089  1.8068 -0.5589
  408MOL0     H53805  10.847   0.195   2.280  0.3039 -0.0486 -0.8717
  408MOL0     H53806  10.720   0.142   2.163 -0.8038  0.2332  1.1672
  408MOL0     H53807  10.933   0.087   2.061  0.6109 -0.4869  2.3950
  408MOL0     H53808  11.006   0.249   2.109 -1.2622  0.2885  1.8628
  408MOL0     H53809  10.652   0.186   1.922 -1.4171  2.6846  1.7906
  408MOL0     H53810  10.547   0.386   1.754  1.3482  1.1287  0.3401
  408MOL0     H53811  10.573   0.240   1.668 -0.9302 -0.0898  1.9028
  408MOL0     H53812  10.669   0.525   1.610  1.5434 -0.8726 -1.2256
  408MOL0     H53813  10.534   0.443   1.541 -0.5997 -1.8610  1.0984
  408MOL0     H53814  10.752   0.432   1.390  2.8306  0.0858 -0.3319
  408MOL0     H53815  10.797   0.303   1.510 -2.3187 -1.1846  0.0438
  408MOL0     H53816  10.577   0.319   1.315 -0.0127 -0.9274 -1.0821
  408MOL0     H53817  10.560   0.218   1.452 -0.1523  0.6438 -0.9363
  408MOL0     H53818  10.857  -0.026   1.256  0.6889 -1.1896 -1.3645
  408MOL0     H53819  10.757  -0.237   1.146  0.7783 -0.8014  0.8822
  408MOL0     H53820  10.720  -0.595   0.980 -0.4857  1.4763  2.5778
  408MOL0     H53821  10.666  -0.797   0.861 -1.8874 -0.2778  0.3559
  408MOL0     H53822  10.556  -0.838   0.663  0.1250  0.7213  1.1506
  408MOL0     H53823  10.383  -0.852   0.613  1.8129  2.2087 -1.2490
  408MOL0     H53824  10.553  -1.050   0.545  0.6140 -0.2635  0.6096
  408MOL0     H53825  10.395  -1.094   0.622  0.5120 -0.4411  1.2805
  408MOL0     H53826  10.511  -1.128   0.825  0.9132  0.7410  0.7546
  408MOL0     H53827  10.662  -1.090   0.745  0.0199 -2.2439  0.1179
  408MOL0     H53828  10.475  -1.321   0.660 -0.2917  0.1966 -0.7718
  408MOL0     H53829  10.622  -1.273   0.579  0.9343  0.2807  0.7990
  408MOL0     H53830  10.652  -1.473   0.708  0.0052  1.4967 -2.3743
  408MOL0     H53831  10.594  -1.402   0.854  0.9620  1.6453  0.4985
  408MOL0     H53832  10.816  -1.240   0.734 -0.8701 -0.1607 -0.9335
  408MOL0     H53833  10.862  -1.412   0.745 -0.9487 -0.6750 -0.8120
  408MOL0     H53834  10.737  -1.259   0.986 -1.4081 -2.3194 -0.8563
  408MOL0     H53835  10.812  -1.423   0.985 -2.4400 -0.9457 -1.8341
  408MOL0     H53836  11.025  -1.337   0.965 -2.4146 -1.6953  0.7555
  408MOL0     H53837  10.931  -1.251   1.102  0.4490  0.7617  1.2380
  408MOL0     H53838  10.264  -0.732   0.918  0.9109 -1.7692 -2.3804
  408MOL0     H53839  10.298  -0.509   1.030  0.0621  0.5092 -0.8373
  408MOL0     H53840  10.365  -0.097   1.224  0.2105 -0.9527 -2.1148
  408MOL0     H53841  10.457   0.119   1.289  2.4677  1.4923 -0.5109
  408MOL0     H53842  10.421   0.029   2.702 -1.7852 -0.7465 -1.4492
  408MOL0     H53843  10.354  -0.069   2.932  0.2534  1.2392  0.2154
  408MOL0     H53844  10.436  -0.130   3.391  0.9204  1.8711 -1.7271
  408MOL0     H53845  10.394  -0.114   3.637 -1.2661 -1.5073  0.1513
  408MOL0     H53846  10.232  -0.152   3.829  2.7132  0.5934  3.9313
  408MOL0     H53847  10.074  -0.061   3.836 -0.5275 -1.0686 -3.2059
  408MOL0     H53848  10.172   0.085   4.005 -3.9924 -1.4218 -0.1656
  408MOL0     H53849  10.164  -0.082   4.050  0.0512 -1.0914 -1.0559
  408MOL0     H53850  10.417   0.055   3.942 -1.5525  1.6310 -0.1215
  408MOL0     H53851  10.418  -0.109   4.002 -0.0598  0.3011 -2.3454
  408MOL0     H53852  10.496   0.076   4.160  0.8017 -3.9934 -0.3545
  408MOL0     H53853  10.328   0.120   4.182  0.7862  0.6605  0.0212
  408MOL0     H53854  10.393  -0.263   4.382 -0.9313 -0.4275 -0.8767
  408MOL0     H53855  10.104   0.190   3.577  1.3018 -0.1353  0.9515
  408MOL0     H53856  10.132   0.172   3.334 -3.4750  0.2783  1.5687
  409MOL0     O53857   2.121   8.888  11.118  0.9421  0.1384 -0.6533
  409MOL0     C53858   2.214   8.817  11.128 -0.0623  0.1374 -0.0241
  409MOL0     O53859   2.316   8.827  11.222  0.4200  1.4695  0.0485
  409MOL0     C53860   2.290   8.894  11.331  0.5692 -0.2128 -0.1861
  409MOL0     C53861   2.267   8.813  11.439  0.5385  0.3088 -0.7984
  409MOL0     C53862   2.258   8.865  11.567 -0.6296 -0.3559 -1.3517
  409MOL0     C53863   2.302   8.996  11.586 -0.1640  0.0920  0.4503
  409MOL0     O53864   2.308   9.043  11.715  0.2550  0.2943  0.0846
  409MOL0     C53865   2.401   9.144  11.759  0.0064 -1.2713 -0.4502
  409MOL0     C53866   2.384   9.190  11.907  0.9829 -0.3653  0.7207
  409MOL0     C53867   2.505   9.258  11.968 -0.4515  0.2764  0.1008
  409MOL0     C53868   2.468   9.325  12.104  0.5003 -0.2098  0.5220
  409MOL0     C53869   2.583   9.383  12.186 -0.6859 -0.0201  0.4896
  409MOL0     C53870   2.669   9.272  12.248 -0.0671 -1.4867  0.0806
  409MOL0     C53871   2.785   9.337  12.320  0.1448 -0.3496  1.0464
  409MOL0     C53872   2.762   9.392  12.460 -0.0595  0.1772  0.2329
  409MOL0     N53873   2.877   9.474  12.508 -0.9772 -0.3937 -0.2600
  409MOL0     C53874   2.930   9.491  12.636  0.4278 -0.4464 -1.0935
  409MOL0     C53875   3.047   9.554  12.626  0.3707  0.2919 -0.2731
  409MOL0     C53876   3.129   9.608  12.747  1.2421  0.4355  0.6312
  409MOL0     C53877   3.183   9.498  12.828 -0.3926 -1.0367  0.4784
  409MOL0     C53878   3.249   9.385  12.743  0.3588  0.6343  0.0691
  409MOL0     C53879   3.349   9.426  12.638 -0.0740  0.5451  0.2231
  409MOL0     O53880   3.423   9.320  12.572  0.2259 -0.3430 -0.8785
  409MOL0     C53881   3.368   9.247  12.473  1.1653  0.1755 -0.4386
  409MOL0     C53882   3.439   9.144  12.414 -0.1847 -0.4812  0.6754
  409MOL0     C53883   3.389   9.072  12.307  0.9852 -0.1240  0.6245
  409MOL0     C53884   3.262   9.103  12.255 -0.7270 -1.2810  0.8725
  409MOL0     C53885   3.201   9.015  12.148 -0.0769  0.5911 -0.0482
  409MOL0     O53886   3.068   9.037  12.109 -0.4628  0.4469 -0.4721
  409MOL0     C53887   3.009   8.976  12.003 -1.1683  1.0851  0.5327
  409MOL0     C53888   3.052   8.862  11.930 -0.5166  0.3026 -0.1982
  409MOL0     C53889   2.985   8.822  11.816  0.3146 -0.4132  0.0033
  409MOL0     C53890   2.854   8.870  11.791 -0.0428 -0.1680 -0.1982
  409MOL0     O53891   2.774   8.830  11.681  0.3459  0.1625 -0.2678
  409MOL0     C53892   2.781   8.697  11.628  0.5547  0.1061 -0.1487
  409MOL0     C53893   2.684   8.689  11.499  1.0040 -0.8237 -0.3911
  409MOL0     C53894   2.758   8.742  11.379  0.0697  0.0951  0.5700
  409MOL0     C53895   2.652   8.771  11.260  0.1351  0.2082  0.8495
  409MOL0     C53896   2.717   8.837  11.136 -0.0074 -0.2911 -0.2751
  409MOL0     C53897   2.819   8.745  11.069  0.5941 -0.2196  0.3711
  409MOL0     C53898   2.765   8.677  10.944  0.0725  0.9387 -0.1077
  409MOL0     C53899   2.754   8.778  10.824  0.4044 -0.1418 -0.3942
  409MOL0    Cl53900   2.656   8.711  10.680 -0.1484 -0.3764 -0.2190
  409MOL0     C53901   2.807   8.967  11.871  0.3889 -1.1429 -0.0885
  409MOL0     C53902   2.883   9.029  11.971 -0.0755  0.9297  0.9924
  409MOL0     O53903   3.282   8.934  12.098  0.1799 -0.4393  0.0470
  409MOL0     C53904   3.188   9.210  12.309  0.4731  0.0355 -0.1040
  409MOL0     C53905   3.241   9.282  12.409 -0.2478 -0.4763 -0.8812
  409MOL0     N53906   3.063   9.579  12.491 -0.3235 -1.3717 -0.0557
  409MOL0     N53907   2.965   9.538  12.428  0.4534  0.2323 -0.1448
  409MOL0     C53908   2.331   9.077  11.477 -0.1345 -0.2341 -0.2649
  409MOL0     C53909   2.321   9.025  11.350  0.1995 -0.0522 -0.4257
  409MOL0     C53910   2.230   8.715  11.017  0.8783 -0.6269 -0.3812
  409MOL0     C53911   2.160   8.726  10.889  0.4015  0.1855 -0.0536
  409MOL0     C53912   2.196   8.643  10.792  0.7241 -0.1191  0.1717
  409MOL0     C53913   2.287   8.543  10.798  0.4170  0.0784 -0.1925
  409MOL0     O53914   2.306   8.455  10.694 -0.4215 -0.1316  0.2574
  409MOL0     C53915   2.442   8.417  10.669 -0.1701  0.1164  0.4049
  409MOL0     C53916   2.466   8.390  10.522 -0.0878  0.4936 -0.3706
  409MOL0     C53917   2.404   8.505  10.435 -0.3793 -0.0131  0.0386
  409MOL0     C53918   2.469   8.501  10.296  0.5823  0.0450  0.7689
  409MOL0     C53919   2.610   8.537  10.295  0.7458  0.8288  0.1697
  409MOL0     C53920   2.727   8.560  10.287  0.3910  0.7896  0.1676
  409MOL0     C53921   2.335   8.526  10.929 -0.3404 -0.5690 -0.6421
  409MOL0     C53922   2.317   8.613  11.034  0.5125  0.7231 -0.6304
  409MOL0     H53923   2.250   8.706  11.430  2.6916 -0.3494  1.8942
  409MOL0     H53924   2.223   8.814  11.657 -0.0329  2.2081  0.4462
  409MOL0     H53925   2.395   9.237  11.702  0.8828  0.2066  1.7408
  409MOL0     H53926   2.504   9.112  11.738  1.3266  2.4897 -0.4609
  409MOL0     H53927   2.354   9.110  11.975  0.4545 -1.4979 -0.7925
  409MOL0     H53928   2.301   9.261  11.909  0.3252 -1.1366  2.5530
  409MOL0     H53929   2.539   9.338  11.901  1.1023  1.0356  1.6987
  409MOL0     H53930   2.584   9.183  11.977 -0.8846 -0.0172  1.7479
  409MOL0     H53931   2.414   9.417  12.081 -2.5739 -2.3438 -1.6949
  409MOL0     H53932   2.393   9.267  12.159 -0.4714  0.6481  0.1435
  409MOL0     H53933   2.538   9.443  12.265  0.8698  2.2393 -0.2319
  409MOL0     H53934   2.649   9.442  12.121  1.9416  0.3646  3.2738
  409MOL0     H53935   2.710   9.204  12.173  2.0240 -1.2607  0.9385
  409MOL0     H53936   2.604   9.217  12.317 -1.1180 -1.3151 -0.7400
  409MOL0     H53937   2.850   9.250  12.325  0.1445 -0.3549  0.9804
  409MOL0     H53938   2.831   9.409  12.252  0.3435  0.8929  2.4646
  409MOL0     H53939   2.742   9.314  12.534  1.1821 -0.1838  0.2170
  409MOL0     H53940   2.676   9.459  12.468  1.7333  2.4868  1.4886
  409MOL0     H53941   2.888   9.462  12.732  0.0692  3.1295 -0.0349
  409MOL0     H53942   3.058   9.664  12.809  2.3117  0.1910  2.1071
  409MOL0     H53943   3.210   9.674  12.716  1.6238  0.2766  1.2828
  409MOL0     H53944   3.099   9.464  12.889 -3.1788  1.6591 -1.4962
  409MOL0     H53945   3.252   9.535  12.904 -1.0933  0.6573  0.3435
  409MOL0     H53946   3.311   9.328  12.814 -1.3371  0.8303  1.7706
  409MOL0     H53947   3.179   9.312  12.701 -0.6997  2.3064 -1.1888
  409MOL0     H53948   3.423   9.490  12.686 -0.3532  0.2635  1.0446
  409MOL0     H53949   3.308   9.485  12.555  0.5746 -2.7611 -2.7164
  409MOL0     H53950   3.542   9.130  12.445 -0.7647  0.8848  3.5750
  409MOL0     H53951   3.441   8.986  12.265 -0.6802 -2.0328  2.2224
  409MOL0     H53952   3.131   8.791  11.949 -0.6500  0.0356 -0.6428
  409MOL0     H53953   3.024   8.741  11.755  0.0796 -0.2284 -0.3990
  409MOL0     H53954   2.756   8.614  11.695 -1.5288  1.1470  0.4383
  409MOL0     H53955   2.882   8.665  11.602  0.6174 -1.8464  2.1383
  409MOL0     H53956   2.592   8.745  11.520  2.9615  1.7197  2.1990
  409MOL0     H53957   2.669   8.584  11.472  1.8691 -0.6630 -1.5447
  409MOL0     H53958   2.819   8.658  11.342  2.9415  1.8649  1.0471
  409MOL0     H53959   2.811   8.834  11.403  0.4827  0.1155 -0.3772
  409MOL0     H53960   2.598   8.678  11.241  0.5853 -0.0732  0.9083
  409MOL0     H53961   2.574   8.840  11.292 -0.9626  0.4014 -1.9969
  409MOL0     H53962   2.766   8.923  11.182 -3.6037  2.5899 -1.3724
  409MOL0     H53963   2.642   8.885  11.072  0.5928  2.7561  1.1169
  409MOL0     H53964   2.848   8.659  11.130  0.5850  0.1861  0.9596
  409MOL0     H53965   2.909   8.799  11.037  2.3901 -2.6650  1.0404
  409MOL0     H53966   2.832   8.596  10.914 -1.0945  0.3506 -1.1999
  409MOL0     H53967   2.665   8.638  10.965  0.6375 -0.2731  0.3860
  409MOL0     H53968   2.853   8.814  10.796  0.6278  1.6294  2.2278
  409MOL0     H53969   2.692   8.859  10.864  0.8936 -0.7525  1.7638
  409MOL0     H53970   2.720   9.010  11.824  2.5565 -1.0859 -4.6235
  409MOL0     H53971   2.855   9.122  12.020  1.0316  1.3164  0.9290
  409MOL0     H53972   3.085   9.226  12.279  0.1984 -3.2758 -1.3121
  409MOL0     H53973   3.180   9.360  12.453  1.4169  0.3118  0.1117
  409MOL0     H53974   2.344   9.185  11.484 -0.9518  0.0010 -1.8753
  409MOL0     H53975   2.334   9.093  11.267 -3.8799  2.0859  0.4448
  409MOL0     H53976   2.081   8.799  10.877  0.3115  0.1902  0.5560
  409MOL0     H53977   2.162   8.662  10.691  0.5121 -2.3611 -0.2247
  409MOL0     H53978   2.463   8.323  10.722 -2.3057 -1.6395 -1.6570
  409MOL0     H53979   2.506   8.498  10.703  1.7702 -1.2074  0.0696
  409MOL0     H53980   2.573   8.375  10.508  0.2380  0.7992  1.5633
  409MOL0     H53981   2.416   8.295  10.502 -1.4431  1.4246 -1.6581
  409MOL0     H53982   2.428   8.600  10.483 -1.8442  0.6875 -0.5620
  409MOL0     H53983   2.295   8.501  10.429 -0.3878  0.1209  0.1080
  409MOL0     H53984   2.439   8.408  10.248 -1.3589  2.0691 -2.3587
  409MOL0     H53985   2.418   8.574  10.232  2.1947  0.9733  0.4776
  409MOL0     H53986   2.830   8.586  10.273  0.4729  1.1127  1.2449
  409MOL0     H53987   2.405   8.444  10.943 -1.4123 -1.1968  1.3206
  409MOL0     H53988   2.361   8.598  11.132 -0.2783 -0.3957 -0.4312
  410MOL0     O53989   5.755   0.978   2.408  0.2497 -0.7767 -0.0917
  410MOL0     C53990   5.655   1.029   2.454 -0.6188  0.8007  0.1612
  410MOL0     O53991   5.639   1.150   2.509 -0.3691 -0.1025 -0.0972
  410MOL0     C53992   5.748   1.240   2.501  0.1170  0.4527 -1.0806
  410MOL0     C53993   5.742   1.302   2.379 -0.3488  0.1143  0.5317
  410MOL0     C53994   5.845   1.389   2.343  0.2451  0.1798 -0.6649
  410MOL0     C53995   5.937   1.425   2.435  0.1664 -0.3875 -0.1150
  410MOL0     O53996   6.014   1.531   2.410 -0.3800  0.2007 -0.7673
  410MOL0     C53997   6.141   1.539   2.469  0.0150  0.6021 -0.3257
  410MOL0     C53998   6.228   1.610   2.363 -0.5422  0.0583 -0.5168
  410MOL0     C53999   6.356   1.691   2.410 -0.3273 -0.4116 -0.2625
  410MOL0     C54000   6.477   1.596   2.416  0.3428 -0.6124  0.2367
  410MOL0     C54001   6.597   1.688   2.395  0.0218  0.9868  0.0267
  410MOL0     C54002   6.633   1.781   2.504 -0.5238  0.2742  0.9250
  410MOL0     C54003   6.740   1.883   2.455  0.2109  0.0925 -0.5687
  410MOL0     C54004   6.866   1.815   2.401 -0.0158 -0.7406  0.0156
  410MOL0     N54005   6.965   1.910   2.371 -0.6535 -1.1329 -0.4101
  410MOL0     C54006   7.039   1.995   2.459  0.3397  0.1817  1.1290
  410MOL0     C54007   7.105   2.083   2.374 -0.0508 -0.2167  0.2777
  410MOL0     C54008   7.218   2.182   2.416  0.2061 -0.6206 -0.5472
  410MOL0     C54009   7.357   2.128   2.392 -0.5382 -0.4546  0.3350
  410MOL0     C54010   7.460   2.207   2.478 -0.3683 -0.3597  0.4005
  410MOL0     C54011   7.464   2.355   2.451 -0.1418 -0.8777  0.8653
  410MOL0     O54012   7.364   2.409   2.538  0.1631  0.1111  0.5488
  410MOL0     C54013   7.371   2.540   2.576  0.0583  0.5503  0.5090
  410MOL0     C54014   7.265   2.581   2.667 -0.9782 -0.1238  0.0125
  410MOL0     C54015   7.256   2.711   2.710  0.1506  0.3925  0.8594
  410MOL0     C54016   7.332   2.815   2.643  0.8542 -0.7366  0.6300
  410MOL0     C54017   7.296   2.955   2.671 -0.4885 -0.7555 -0.2177
  410MOL0     O54018   7.210   2.977   2.777 -0.8250  0.2390  0.3830
  410MOL0     C54019   7.179   3.100   2.835  0.5640 -0.0264  0.4865
  410MOL0     C54020   7.211   3.229   2.781  1.1182  0.5596 -0.8724
  410MOL0     C54021   7.159   3.348   2.841 -0.6264  0.4616 -0.4024
  410MOL0     C54022   7.106   3.339   2.972  0.8169  0.1602  1.1419
  410MOL0     O54023   7.070   3.434   3.066 -0.6389 -0.6264 -0.8020
  410MOL0     C54024   7.112   3.574   3.059 -1.3402  0.0735  1.6289
  410MOL0     C54025   7.090   3.650   3.189  0.3463 -0.8058  0.4158
  410MOL0     C54026   7.189   3.775   3.189 -0.2440 -0.6559  0.3098
  410MOL0     C54027   7.129   3.864   3.296  0.4681  0.0234 -1.1050
  410MOL0     C54028   7.198   3.993   3.340 -0.2850  0.7431  0.3535
  410MOL0     C54029   7.321   3.986   3.423 -0.4885 -0.5581 -0.1301
  410MOL0     C54030   7.357   4.136   3.456 -0.2609  0.2272 -0.2678
  410MOL0     C54031   7.508   4.147   3.486 -0.0039 -0.2501  0.3933
  410MOL0    Cl54032   7.560   4.036   3.620  0.0140  0.0069  0.2290
  410MOL0     C54033   7.081   3.211   3.020 -0.8530 -0.0894 -0.5513
  410MOL0     C54034   7.113   3.088   2.961 -0.2055 -0.8524 -0.0016
  410MOL0     O54035   7.346   3.035   2.600  0.3021 -0.8592 -0.0968
  410MOL0     C54036   7.428   2.773   2.550 -0.6360 -1.0965  1.3517
  410MOL0     C54037   7.449   2.642   2.511 -0.4811  0.1017  0.8243
  410MOL0     N54038   7.048   2.060   2.242  0.5704 -0.4249 -1.0199
  410MOL0     N54039   6.981   1.956   2.245  1.2733 -1.0432 -0.1187
  410MOL0     C54040   5.950   1.352   2.558  0.3349 -1.4170  0.7560
  410MOL0     C54041   5.848   1.264   2.590 -0.5844  0.1043 -0.6938
  410MOL0     C54042   5.535   0.949   2.452 -1.0214  0.4535 -0.6538
  410MOL0     C54043   5.416   1.005   2.489 -0.4658  0.1574 -0.1480
  410MOL0     C54044   5.296   0.934   2.475  0.4006 -0.3630  1.2678
  410MOL0     C54045   5.296   0.807   2.413  0.2016  0.7457  0.1654
  410MOL0     O54046   5.179   0.740   2.412  0.0152 -0.3778  0.4822
  410MOL0     C54047   5.163   0.614   2.338 -1.2078 -0.0231  0.2442
  410MOL0     C54048   5.025   0.554   2.333 -0.8552  0.4279  0.0192
  410MOL0     C54049   5.032   0.422   2.249  0.0937 -0.8780 -0.1482
  410MOL0     C54050   4.885   0.378   2.210 -0.0373  0.6635  0.7637
  410MOL0     C54051   4.840   0.280   2.311 -0.6774  0.4025  0.6325
  410MOL0     C54052   4.807   0.215   2.407 -1.3338  0.1820  0.4221
  410MOL0     C54053   5.413   0.746   2.376 -1.4233  0.5500 -0.4653
  410MOL0     C54054   5.539   0.811   2.398  0.3576 -1.1541  0.3265
  410MOL0     H54055   5.656   1.278   2.317 -1.3733  1.5348  1.3459
  410MOL0     H54056   5.837   1.452   2.255  0.1196  3.8877  1.7976
  410MOL0     H54057   6.187   1.446   2.505  1.3311  1.6728  0.9015
  410MOL0     H54058   6.127   1.605   2.556 -4.6153 -1.2351  0.5916
  410MOL0     H54059   6.169   1.681   2.304 -0.4367  1.7021  1.2601
  410MOL0     H54060   6.250   1.531   2.290 -1.5619 -1.2425  0.5242
  410MOL0     H54061   6.336   1.738   2.507  1.0575  1.6253 -0.8683
  410MOL0     H54062   6.381   1.769   2.336  1.8995 -0.2899  0.5328
  410MOL0     H54063   6.490   1.540   2.509 -0.3118 -2.0846 -0.5235
  410MOL0     H54064   6.474   1.518   2.339 -1.9636  1.9245 -2.4756
  410MOL0     H54065   6.588   1.738   2.298 -1.3807  0.5453 -0.0898
  410MOL0     H54066   6.686   1.625   2.392  0.1121  1.1089  0.1410
  410MOL0     H54067   6.665   1.729   2.594 -1.2514 -1.5613  0.1686
  410MOL0     H54068   6.538   1.827   2.534 -1.3532  0.5192 -1.7760
  410MOL0     H54069   6.710   1.961   2.384 -1.7527 -0.2999 -0.2194
  410MOL0     H54070   6.751   1.928   2.554 -1.1198  1.0996 -0.8446
  410MOL0     H54071   6.855   1.754   2.311  2.1926  0.8752 -1.4440
  410MOL0     H54072   6.902   1.756   2.487 -0.7502  1.1639  1.7033
  410MOL0     H54073   7.048   1.989   2.567 -1.7446 -0.8803  1.3066
  410MOL0     H54074   7.202   2.206   2.522  2.3304 -1.3476 -0.0109
  410MOL0     H54075   7.197   2.276   2.365 -0.0754 -0.9465 -1.0324
  410MOL0     H54076   7.376   2.141   2.286 -0.3704 -0.2524  0.3902
  410MOL0     H54077   7.364   2.022   2.417 -2.2965 -0.6988 -0.0771
  410MOL0     H54078   7.436   2.200   2.585 -2.2604  0.7028  0.0840
  410MOL0     H54079   7.558   2.167   2.452 -1.0147 -0.7573 -1.6214
  410MOL0     H54080   7.445   2.387   2.348  1.3939 -1.3119  0.4301
  410MOL0     H54081   7.560   2.384   2.494 -0.0173 -0.1159  0.1093
  410MOL0     H54082   7.204   2.497   2.700 -1.7126  0.8550  1.2282
  410MOL0     H54083   7.181   2.736   2.785 -3.9947 -1.9983 -2.0431
  410MOL0     H54084   7.253   3.244   2.682  0.5239  2.0122 -0.9273
  410MOL0     H54085   7.170   3.449   2.803  0.1101  0.8796  0.8885
  410MOL0     H54086   7.047   3.630   2.991 -1.4941  0.2957  1.9556
  410MOL0     H54087   7.210   3.586   3.012 -2.2643 -0.3059 -0.5221
  410MOL0     H54088   7.110   3.592   3.280  1.5633  2.1604  2.2146
  410MOL0     H54089   6.985   3.681   3.190 -0.0270 -2.0070  1.4184
  410MOL0     H54090   7.176   3.823   3.091 -1.7105  1.2352  1.3611
  410MOL0     H54091   7.297   3.766   3.203 -0.1497 -1.5232 -0.8179
  410MOL0     H54092   7.034   3.898   3.256 -0.7095 -0.7086  0.8897
  410MOL0     H54093   7.108   3.804   3.385  1.6700  0.2226 -0.6691
  410MOL0     H54094   7.128   4.043   3.408 -0.6241 -1.2460  1.5539
  410MOL0     H54095   7.211   4.043   3.243  1.5899 -1.4528 -0.6390
  410MOL0     H54096   7.390   3.941   3.350  1.1512  3.6705 -1.5179
  410MOL0     H54097   7.319   3.920   3.510  0.1522 -1.3569 -0.6907
  410MOL0     H54098   7.333   4.202   3.372  0.3221  2.3912  1.1829
  410MOL0     H54099   7.307   4.163   3.550 -1.7109 -1.9179 -0.3571
  410MOL0     H54100   7.528   4.248   3.521  0.4104 -1.5652  4.4504
  410MOL0     H54101   7.563   4.118   3.396 -1.3041 -1.6265 -0.0119
  410MOL0     H54102   7.020   3.198   3.109  0.0162  1.3674  0.2931
  410MOL0     H54103   7.063   3.001   3.003  0.5406 -2.0379 -1.4888
  410MOL0     H54104   7.489   2.842   2.493 -1.4412  0.3656  2.1924
  410MOL0     H54105   7.519   2.625   2.429 -0.5544 -0.1341  0.8096
  410MOL0     H54106   6.029   1.361   2.632 -0.5711 -3.7038  2.1398
  410MOL0     H54107   5.850   1.221   2.690  3.4109 -0.6269 -0.9369
  410MOL0     H54108   5.407   1.106   2.527 -2.5291 -0.2178  0.4603
  410MOL0     H54109   5.203   0.965   2.522  1.5445  1.1640  2.6562
  410MOL0     H54110   5.238   0.538   2.363  0.9686  0.7158 -3.3831
  410MOL0     H54111   5.182   0.642   2.234 -2.8473 -0.2160 -0.1326
  410MOL0     H54112   5.007   0.530   2.438  0.4545 -1.3486 -0.1244
  410MOL0     H54113   4.959   0.633   2.294  3.0973  3.9100 -0.3267
  410MOL0     H54114   5.082   0.338   2.298  4.0289 -0.1133 -2.4885
  410MOL0     H54115   5.094   0.444   2.162 -0.1758 -0.0598 -0.1465
  410MOL0     H54116   4.815   0.461   2.196 -0.3837  0.3579  0.6538
  410MOL0     H54117   4.885   0.331   2.111  0.2021 -1.2084  1.6141
  410MOL0     H54118   4.815   0.178   2.507  3.4090 -0.4841  0.0658
  410MOL0     H54119   5.411   0.642   2.347 -1.8901  0.5154 -0.3050
  410MOL0     H54120   5.628   0.760   2.361  0.3234 -0.6191 -0.5202
  411MOL0     O54121   2.409   6.073   5.069 -0.5791 -0.3246 -1.1183
  411MOL0     C54122   2.327   6.047   4.989  0.9467  0.9738  1.0257
  411MOL0     O54123   2.335   6.062   4.857  0.1154 -0.6131  0.7959
  411MOL0     C54124   2.427   6.136   4.789 -0.3312 -0.0834  0.3094
  411MOL0     C54125   2.455   6.075   4.662  0.2202  0.0310  1.5120
  411MOL0     C54126   2.551   6.134   4.572 -0.3627 -0.0066  1.1379
  411MOL0     C54127   2.624   6.244   4.615  0.8996 -0.1068  0.8350
  411MOL0     O54128   2.707   6.316   4.526  0.3263 -0.1729  0.5813
  411MOL0     C54129   2.756   6.441   4.566 -0.4435 -0.9063 -0.2226
  411MOL0     C54130   2.821   6.486   4.437  0.4496  0.2649  0.1938
  411MOL0     C54131   2.903   6.616   4.454  0.1164 -0.7842 -0.4479
  411MOL0     C54132   3.011   6.621   4.342  0.0832  0.7254 -1.0035
  411MOL0     C54133   3.092   6.749   4.353  0.0536 -0.1368  0.7214
  411MOL0     C54134   3.211   6.735   4.260 -0.9299  0.2684  0.9218
  411MOL0     C54135   3.315   6.849   4.243  0.1612 -0.0051  0.3954
  411MOL0     C54136   3.250   6.978   4.180 -0.0729 -0.1301  0.5074
  411MOL0     N54137   3.161   7.050   4.272  0.5149  0.7607 -0.0449
  411MOL0     C54138   3.198   7.081   4.401  0.0666  0.7228 -0.5441
  411MOL0     C54139   3.089   7.127   4.451 -0.0000  0.8772 -0.8412
  411MOL0     C54140   3.079   7.186   4.594  0.5167  0.2322  0.3094
  411MOL0     C54141   2.949   7.135   4.661 -0.2206  0.0795 -0.2204
  411MOL0     C54142   2.817   7.202   4.611  0.1287 -0.1207  0.2585
  411MOL0     C54143   2.699   7.156   4.690  0.1118 -0.1007  0.6708
  411MOL0     O54144   2.576   7.233   4.698 -0.1440 -0.2798 -0.2160
  411MOL0     C54145   2.509   7.252   4.818  0.3740  0.8314 -0.6224
  411MOL0     C54146   2.526   7.153   4.918 -0.7930 -0.7487  1.0067
  411MOL0     C54147   2.454   7.164   5.032  1.0330 -0.7152  0.0790
  411MOL0     C54148   2.354   7.268   5.050 -0.6157  0.5595 -0.3617
  411MOL0     C54149   2.263   7.251   5.158 -0.4916  0.2591 -0.1398
  411MOL0     O54150   2.178   7.356   5.175  0.9402 -0.0888  0.3729
  411MOL0     C54151   2.079   7.341   5.269 -1.0753 -0.6447  0.1465
  411MOL0     C54152   2.110   7.355   5.403 -0.9076  0.7466  0.4454
  411MOL0     C54153   2.010   7.321   5.496 -0.1600 -1.0277  0.2268
  411MOL0     C54154   1.881   7.292   5.449  0.1188 -1.0524 -0.0952
  411MOL0     O54155   1.783   7.241   5.538  0.4789  0.7176  0.0726
  411MOL0     C54156   1.827   7.159   5.648  0.2514  0.6553 -0.2047
  411MOL0     C54157   1.725   7.044   5.672  0.8323 -0.8611  0.4315
  411MOL0     C54158   1.610   7.115   5.747 -0.4802 -0.2035 -0.2950
  411MOL0     C54159   1.495   7.023   5.800  0.2941  0.1390  0.3051
  411MOL0     C54160   1.554   6.928   5.908 -0.1293 -0.6244  0.8692
  411MOL0     C54161   1.452   6.824   5.962 -0.0750 -0.2970 -0.4785
  411MOL0     C54162   1.330   6.900   6.025  0.0288 -0.3919 -0.2310
  411MOL0     C54163   1.238   6.810   6.113 -0.7397  0.9605 -0.2891
  411MOL0    Cl54164   1.149   6.683   6.031 -0.2806  0.2096  0.3571
  411MOL0     C54165   1.852   7.294   5.314  0.4347  0.0398 -1.3227
  411MOL0     C54166   1.956   7.312   5.225  0.3419  0.0565  0.6767
  411MOL0     O54167   2.264   7.151   5.230  0.4929  0.5340  0.8342
  411MOL0     C54168   2.325   7.358   4.943 -0.5110 -0.4142 -1.1242
  411MOL0     C54169   2.409   7.349   4.831  0.0331  0.5358  0.2128
  411MOL0     N54170   2.991   7.157   4.355  0.4000  0.0167 -0.5521
  411MOL0     N54171   3.041   7.110   4.243 -0.2188 -0.2849  0.0674
  411MOL0     C54172   2.600   6.293   4.755  0.1027 -0.2201 -0.3700
  411MOL0     C54173   2.500   6.245   4.832  0.0462 -0.3436  0.0798
  411MOL0     C54174   2.193   6.002   5.042 -0.8642  0.4849 -0.8796
  411MOL0     C54175   2.168   5.992   5.178  0.0827  0.3293 -0.1685
  411MOL0     C54176   2.043   5.949   5.227  0.5488 -0.7187  0.5449
  411MOL0     C54177   1.938   5.929   5.133  0.1488  0.5596  0.2844
  411MOL0     O54178   1.827   5.880   5.202  0.3103  0.5875  0.7948
  411MOL0     C54179   1.716   5.816   5.126 -0.7105 -0.1104  0.1550
  411MOL0     C54180   1.627   5.917   5.054 -0.1684  0.1637 -0.1832
  411MOL0     C54181   1.657   6.069   5.073 -0.9287 -0.5715 -0.2756
  411MOL0     C54182   1.531   6.154   5.026 -0.6012  0.5399 -0.0952
  411MOL0     C54183   1.513   6.169   4.886 -0.3553  0.5026 -0.1816
  411MOL0     C54184   1.506   6.193   4.772  0.0867 -0.2085  0.1915
  411MOL0     C54185   1.972   5.923   4.998  0.4661 -0.2544  0.4636
  411MOL0     C54186   2.092   5.967   4.951  0.3223  0.6072  0.0458
  411MOL0     H54187   2.400   5.992   4.619  1.3644  1.1842 -2.5745
  411MOL0     H54188   2.556   6.096   4.471  3.3476 -0.4326  1.3696
  411MOL0     H54189   2.837   6.435   4.639  0.5554 -2.4725 -1.4043
  411MOL0     H54190   2.682   6.513   4.602 -0.0453 -1.6225  2.2314
  411MOL0     H54191   2.737   6.486   4.367 -1.7007 -2.2627  2.5389
  411MOL0     H54192   2.887   6.414   4.388 -1.0390  0.4065 -2.1346
  411MOL0     H54193   2.955   6.633   4.549 -0.7925  2.2234 -0.3950
  411MOL0     H54194   2.840   6.705   4.459  0.9318 -0.2523  2.4333
  411MOL0     H54195   3.086   6.541   4.346  0.1217  0.7646 -0.9314
  411MOL0     H54196   2.956   6.623   4.248 -0.1062  1.1668 -0.8832
  411MOL0     H54197   3.132   6.771   4.452  2.3583  1.0384 -0.3825
  411MOL0     H54198   3.019   6.824   4.324  0.3351 -0.0057  0.3409
  411MOL0     H54199   3.180   6.711   4.158 -1.9841  3.9896  0.2370
  411MOL0     H54200   3.268   6.650   4.298 -2.5507 -3.0531 -3.2152
  411MOL0     H54201   3.348   6.870   4.345 -0.1119  3.0389 -0.0457
  411MOL0     H54202   3.398   6.814   4.182 -0.1272 -0.4117  0.2286
  411MOL0     H54203   3.200   6.955   4.086 -1.4006  0.3824  1.0559
  411MOL0     H54204   3.334   7.046   4.164 -1.5468  1.8265  0.7230
  411MOL0     H54205   3.283   7.048   4.461 -0.0310  1.6470  0.1402
  411MOL0     H54206   3.076   7.295   4.587 -5.2143  0.7442  4.0048
  411MOL0     H54207   3.164   7.161   4.659 -1.0248  0.0785  2.3740
  411MOL0     H54208   2.956   7.150   4.769 -2.5110 -2.1194  0.3399
  411MOL0     H54209   2.933   7.030   4.636 -4.5680  0.3351  0.7405
  411MOL0     H54210   2.830   7.305   4.646  2.5943 -1.3803  3.5691
  411MOL0     H54211   2.803   7.190   4.503 -0.0452 -0.2889  0.2986
  411MOL0     H54212   2.739   7.144   4.790 -1.7764  1.2911  1.6499
  411MOL0     H54213   2.667   7.056   4.659  0.6945 -1.3062  3.6822
  411MOL0     H54214   2.586   7.063   4.905 -0.4328 -0.8034  2.7072
  411MOL0     H54215   2.486   7.078   5.090  3.1964 -1.4779 -2.0987
  411MOL0     H54216   2.210   7.386   5.430  0.4419 -0.1951 -2.9768
  411MOL0     H54217   2.021   7.311   5.604  0.2592 -0.4398  0.2451
  411MOL0     H54218   1.835   7.218   5.740  0.9136 -2.2602  1.7275
  411MOL0     H54219   1.924   7.112   5.629 -1.7222 -3.3889 -1.2586
  411MOL0     H54220   1.771   6.969   5.737  1.1018 -1.1452 -0.0780
  411MOL0     H54221   1.691   6.989   5.584  1.3517  0.5238 -0.6859
  411MOL0     H54222   1.563   7.189   5.682  1.3715  2.0071  0.7104
  411MOL0     H54223   1.654   7.174   5.828  2.7672 -3.5171  0.6148
  411MOL0     H54224   1.415   7.091   5.830  1.5594  1.4272  0.8788
  411MOL0     H54225   1.461   6.953   5.723  0.8103  1.9609 -1.6758
  411MOL0     H54226   1.583   6.987   5.995 -2.0687  2.1537 -0.2107
  411MOL0     H54227   1.641   6.875   5.870  0.1674  0.0488  0.5850
  411MOL0     H54228   1.502   6.770   6.044  0.6242  0.3311 -0.4802
  411MOL0     H54229   1.415   6.754   5.887 -0.7801  1.4575 -1.8528
  411MOL0     H54230   1.370   6.973   6.096  1.7176 -1.9821  0.5458
  411MOL0     H54231   1.278   6.959   5.948  3.5328  0.7908 -1.9567
  411MOL0     H54232   1.150   6.861   6.154 -0.9312 -1.2818  2.3789
  411MOL0     H54233   1.294   6.767   6.196 -1.7733  1.7208  0.8387
  411MOL0     H54234   1.758   7.261   5.271 -0.3459  1.1747 -0.5174
  411MOL0     H54235   1.937   7.308   5.119  1.7612  0.8025  0.3684
  411MOL0     H54236   2.249   7.433   4.959 -0.2844 -1.0004  5.5297
  411MOL0     H54237   2.403   7.407   4.740 -1.2381 -1.4621 -1.0637
  411MOL0     H54238   2.663   6.372   4.796 -0.2329 -0.2691  0.2463
  411MOL0     H54239   2.467   6.305   4.915 -3.9561 -0.1574 -1.4450
  411MOL0     H54240   2.248   6.002   5.251 -0.9121 -0.6058  1.0833
  411MOL0     H54241   2.025   5.926   5.331  1.4714  1.5969  1.2783
  411MOL0     H54242   1.649   5.782   5.206  0.1182  2.5918  2.1244
  411MOL0     H54243   1.764   5.744   5.058  2.3835  2.1370 -0.2603
  411MOL0     H54244   1.630   5.908   4.945 -0.1792  0.7718 -0.2341
  411MOL0     H54245   1.524   5.897   5.084  0.3248 -0.5909  1.0887
  411MOL0     H54246   1.739   6.103   5.009  2.4527 -2.5492  2.6001
  411MOL0     H54247   1.681   6.097   5.176  0.0164 -1.6194 -0.1860
  411MOL0     H54248   1.447   6.107   5.078 -0.2238  2.2188  2.2255
  411MOL0     H54249   1.536   6.250   5.079  0.8516  0.0049  0.8183
  411MOL0     H54250   1.522   6.234   4.674  0.9162 -0.5217  0.1835
  411MOL0     H54251   1.893   5.903   4.926 -0.3862  1.3330  0.9109
  411MOL0     H54252   2.100   5.979   4.844  0.0671 -1.7555 -0.2894
  412MOL0     O54253   9.049   2.700   5.016  0.8367 -0.4664 -0.8511
  412MOL0     C54254   9.166   2.723   5.014  0.1760 -0.2030 -0.2945
  412MOL0     O54255   9.225   2.818   4.936 -0.2600  0.2061 -0.1283
  412MOL0     C54256   9.136   2.903   4.876 -0.7984 -0.4160  0.2447
  412MOL0     C54257   9.073   3.004   4.951 -0.1904  0.3492  0.7632
  412MOL0     C54258   8.992   3.093   4.888 -0.0469 -0.3932 -0.4641
  412MOL0     C54259   8.969   3.092   4.748  0.0486 -0.5338  0.7368
  412MOL0     O54260   8.896   3.198   4.689 -0.0377 -0.6145  0.3933
  412MOL0     C54261   8.967   3.320   4.677  0.2387  0.3808 -0.5776
  412MOL0     C54262   8.873   3.432   4.612 -1.5452  0.6311 -1.0552
  412MOL0     C54263   8.808   3.391   4.478 -0.1358  0.4093  0.5272
  412MOL0     C54264   8.896   3.346   4.358 -0.0553  0.7487 -0.4411
  412MOL0     C54265   8.825   3.268   4.245 -0.0210  0.5446 -0.4851
  412MOL0     C54266   8.792   3.123   4.287  0.5078 -0.0643 -0.0653
  412MOL0     C54267   8.732   3.058   4.169  0.8277  0.2188 -0.6708
  412MOL0     C54268   8.698   2.909   4.195  0.5492  0.4363 -1.2907
  412MOL0     N54269   8.616   2.866   4.085  0.2978 -0.4084 -0.0429
  412MOL0     C54270   8.646   2.766   4.004 -0.5921  0.2328  0.6697
  412MOL0     C54271   8.537   2.751   3.924 -0.4785  0.4592  0.9320
  412MOL0     C54272   8.537   2.657   3.813  0.2920  0.4004 -0.0966
  412MOL0     C54273   8.444   2.542   3.829  1.0098  0.3473  0.3337
  412MOL0     C54274   8.440   2.470   3.689 -0.4828 -0.5340 -0.2613
  412MOL0     C54275   8.426   2.316   3.705 -0.5427 -1.0564 -0.3095
  412MOL0     O54276   8.320   2.296   3.803  0.1481  1.1012  0.6007
  412MOL0     C54277   8.319   2.171   3.860 -0.2569  0.5077  0.6123
  412MOL0     C54278   8.316   2.153   3.993  0.5457  0.1319 -0.7339
  412MOL0     C54279   8.336   2.029   4.059  0.1958  0.2236 -0.8591
  412MOL0     C54280   8.332   1.909   3.973  0.5268  1.3228 -0.5828
  412MOL0     C54281   8.319   1.777   4.030 -0.2211  0.1551 -0.0678
  412MOL0     O54282   8.306   1.764   4.170 -0.2742  0.2969 -0.0824
  412MOL0     C54283   8.264   1.647   4.228  0.2368  0.2702  0.2955
  412MOL0     C54284   8.279   1.659   4.366 -0.3643  1.3320 -0.3283
  412MOL0     C54285   8.244   1.552   4.454 -0.0698 -0.3499  0.4199
  412MOL0     C54286   8.178   1.435   4.405 -0.3892  0.5130  0.3313
  412MOL0     O54287   8.136   1.338   4.496 -0.0899  0.0815 -1.2584
  412MOL0     C54288   8.034   1.242   4.451 -0.1654  0.2355 -0.9907
  412MOL0     C54289   7.938   1.239   4.565 -0.2783  0.4253  0.0938
  412MOL0     C54290   7.822   1.134   4.544 -0.7807 -0.4487 -0.5092
  412MOL0     C54291   7.873   0.993   4.516  1.0137 -0.2037  0.3043
  412MOL0     C54292   7.785   0.890   4.575 -0.5188 -0.7441 -0.9685
  412MOL0     C54293   7.798   0.865   4.725  0.2458 -0.3114  0.8039
  412MOL0     C54294   7.708   0.755   4.788  0.5922  0.0511 -0.3315
  412MOL0     C54295   7.715   0.615   4.708 -1.4139 -0.7149  0.1420
  412MOL0    Cl54296   7.649   0.470   4.784 -0.0003 -0.5062 -0.6383
  412MOL0     C54297   8.178   1.417   4.268  0.0352 -1.1300  0.0817
  412MOL0     C54298   8.226   1.513   4.180 -0.9716 -1.1891  0.2955
  412MOL0     O54299   8.297   1.685   3.952 -0.3508 -0.2135  0.3645
  412MOL0     C54300   8.335   1.929   3.838 -0.9911 -0.6379  1.2028
  412MOL0     C54301   8.348   2.061   3.779  0.1037 -0.0839 -0.2230
  412MOL0     N54302   8.449   2.850   3.958 -0.2440 -0.7818  0.0810
  412MOL0     N54303   8.496   2.916   4.054 -0.6066  0.4997 -0.3672
  412MOL0     C54304   9.039   3.003   4.670  1.3886  0.7074  0.4356
  412MOL0     C54305   9.127   2.916   4.735 -0.5797  0.3178 -0.0328
  412MOL0     C54306   9.251   2.649   5.111  0.0609 -0.6945  0.5452
  412MOL0     C54307   9.386   2.624   5.098 -0.3027  0.9279  0.2504
  412MOL0     C54308   9.455   2.557   5.197  0.1138 -0.3181 -0.3346
  412MOL0     C54309   9.403   2.513   5.321 -0.5596 -0.1973 -0.3641
  412MOL0     O54310   9.478   2.467   5.421 -0.5490 -0.2482 -0.3186
  412MOL0     C54311   9.622   2.467   5.410  0.2286 -0.0312  0.3982
  412MOL0     C54312   9.706   2.391   5.522 -0.4447 -0.0200 -0.2633
  412MOL0     C54313   9.705   2.441   5.663  0.1066 -0.3908  0.0025
  412MOL0     C54314   9.834   2.387   5.733 -0.3108 -0.2099  0.2649
  412MOL0     C54315   9.863   2.449   5.862 -1.3127  0.4239 -0.3622
  412MOL0     C54316   9.893   2.531   5.950  0.2890  0.9945  0.5049
  412MOL0     C54317   9.269   2.544   5.340 -0.5222  0.2242  1.1629
  412MOL0     C54318   9.194   2.612   5.237 -0.1276 -0.0603 -0.0208
  412MOL0     H54319   9.089   3.006   5.059 -3.8253  1.3572  1.4086
  412MOL0     H54320   8.937   3.161   4.953  0.3156 -2.0405  1.6842
  412MOL0     H54321   9.053   3.299   4.613  1.6378  2.8026  0.3803
  412MOL0     H54322   8.999   3.365   4.771  0.7463  0.5910 -0.8529
  412MOL0     H54323   8.940   3.517   4.594 -0.7288  0.3439  0.4377
  412MOL0     H54324   8.799   3.469   4.683  2.1840  2.4116  2.3214
  412MOL0     H54325   8.744   3.471   4.441  0.4584  0.2971 -0.8334
  412MOL0     H54326   8.737   3.310   4.497  1.8148 -1.9654 -1.5791
  412MOL0     H54327   8.946   3.436   4.322 -1.8413  0.9913 -2.5008
  412MOL0     H54328   8.969   3.275   4.399 -1.2768 -1.6124 -2.0753
  412MOL0     H54329   8.889   3.272   4.156  1.0673 -1.1262  0.1783
  412MOL0     H54330   8.734   3.324   4.220  0.5969  0.9385 -1.9804
  412MOL0     H54331   8.718   3.120   4.368 -0.3762 -2.2850 -0.8779
  412MOL0     H54332   8.880   3.066   4.318  2.0959  2.3388  0.1217
  412MOL0     H54333   8.653   3.114   4.118  1.6011  1.2719 -0.7553
  412MOL0     H54334   8.805   3.045   4.088 -0.7943  0.3068 -2.2094
  412MOL0     H54335   8.638   2.901   4.286  1.2082  3.4603 -0.4682
  412MOL0     H54336   8.782   2.843   4.216 -0.6661 -0.7158  0.1739
  412MOL0     H54337   8.741   2.717   4.025  0.1038  1.5224  0.6733
  412MOL0     H54338   8.634   2.607   3.813 -0.0762 -0.4633 -2.5070
  412MOL0     H54339   8.514   2.704   3.717  3.4352  0.6270 -0.8304
  412MOL0     H54340   8.343   2.558   3.868  0.3217 -3.4776  0.4539
  412MOL0     H54341   8.480   2.475   3.907 -0.1858  1.4871  1.9317
  412MOL0     H54342   8.340   2.497   3.653  0.0928  1.3270 -0.5718
  412MOL0     H54343   8.526   2.503   3.631 -1.1205 -0.6220 -1.2833
  412MOL0     H54344   8.525   2.274   3.724 -0.4664 -0.6056  0.3132
  412MOL0     H54345   8.394   2.286   3.605  1.0307  0.8707 -1.4807
  412MOL0     H54346   8.304   2.251   4.040  1.6508 -0.0080 -0.1011
  412MOL0     H54347   8.339   2.023   4.167  0.7964 -3.6961 -0.9613
  412MOL0     H54348   8.341   1.742   4.400  0.7639 -1.0731  4.3399
  412MOL0     H54349   8.259   1.562   4.561 -2.4542 -2.5224  1.0539
  412MOL0     H54350   8.069   1.142   4.422 -0.1326 -0.1635  0.3300
  412MOL0     H54351   7.981   1.283   4.365 -1.3286 -1.5274 -1.1852
  412MOL0     H54352   7.911   1.341   4.590  2.4469  1.0081  1.0216
  412MOL0     H54353   7.978   1.198   4.658 -1.0051 -0.0712  0.1978
  412MOL0     H54354   7.759   1.154   4.457  0.5651 -3.0103 -2.2146
  412MOL0     H54355   7.748   1.136   4.625 -0.4503  3.4906 -0.1299
  412MOL0     H54356   7.878   0.979   4.408 -1.3989 -0.8938  0.2384
  412MOL0     H54357   7.971   0.979   4.562  1.5448  0.9858 -0.4180
  412MOL0     H54358   7.803   0.794   4.525 -1.0522 -0.4533 -1.7365
  412MOL0     H54359   7.681   0.914   4.548  0.0491  0.3603 -2.3110
  412MOL0     H54360   7.798   0.965   4.769  3.7420  0.9576 -1.6509
  412MOL0     H54361   7.904   0.837   4.733  0.8467  2.1452  2.6802
  412MOL0     H54362   7.756   0.732   4.883  2.9908  2.1823 -0.9293
  412MOL0     H54363   7.606   0.794   4.799  0.6142  0.0787 -0.2213
  412MOL0     H54364   7.820   0.588   4.692 -2.2455 -2.6498 -3.1539
  412MOL0     H54365   7.682   0.634   4.605 -3.2788  1.8573  1.1311
  412MOL0     H54366   8.143   1.324   4.224 -1.1854 -0.7005  0.1120
  412MOL0     H54367   8.220   1.493   4.073 -0.4746  0.9379 -0.1948
  412MOL0     H54368   8.348   1.846   3.768 -1.9902 -0.7194  1.0993
  412MOL0     H54369   8.364   2.074   3.673  0.9679  0.3805 -0.0450
  412MOL0     H54370   9.030   3.014   4.562  1.6071 -0.5362  0.2751
  412MOL0     H54371   9.189   2.856   4.668  1.2057 -0.1328  1.9072
  412MOL0     H54372   9.451   2.652   5.015  0.6811  2.4478  1.4785
  412MOL0     H54373   9.556   2.527   5.171  0.4867 -0.5052  1.2068
  412MOL0     H54374   9.666   2.567   5.413 -1.2535  0.8872 -3.0904
  412MOL0     H54375   9.646   2.426   5.312 -0.1837  0.7962 -0.0620
  412MOL0     H54376   9.680   2.285   5.525  0.0628 -0.1261  1.0151
  412MOL0     H54377   9.809   2.399   5.484  0.3638  3.3794  2.2027
  412MOL0     H54378   9.615   2.407   5.716 -0.4871 -2.4900 -2.1691
  412MOL0     H54379   9.699   2.550   5.668 -2.4822 -0.3117 -2.0558
  412MOL0     H54380   9.820   2.279   5.743 -5.0028  0.0715 -1.1252
  412MOL0     H54381   9.920   2.401   5.667 -2.0116  1.1258 -1.7657
  412MOL0     H54382   9.911   2.609   6.021 -2.3507  1.0648  1.2019
  412MOL0     H54383   9.216   2.532   5.434 -2.0606 -2.4977  0.0470
  412MOL0     H54384   9.091   2.640   5.254 -1.2736 -3.1028 -1.4094
  413MOL0     O54385  10.892   9.342  10.985  0.0232 -0.3239 -0.2285
  413MOL0     C54386  10.940   9.389  10.881  0.0467 -0.0539  0.1652
  413MOL0     O54387  10.874   9.462  10.794  0.0869 -0.2484 -0.9840
  413MOL0     C54388  10.790   9.551  10.857 -0.6585 -0.4403 -0.0096
  413MOL0     C54389  10.832   9.686  10.864  0.2746 -0.0426  0.5374
  413MOL0     C54390  10.743   9.789  10.896 -0.8244  1.0157  0.4032
  413MOL0     C54391  10.613   9.750  10.926 -0.4255  1.5134 -0.0910
  413MOL0     O54392  10.546   9.856  10.969  0.0582  0.7533 -1.0882
  413MOL0     C54393  10.439   9.835  11.059  0.6150  0.3374 -0.1423
  413MOL0     C54394  10.418   9.963  11.134  0.3895  0.1361 -0.5918
  413MOL0     C54395  10.296   9.948  11.233 -0.9876  1.6142  0.4383
  413MOL0     C54396  10.157   9.971  11.167 -0.3608  0.8080  0.2332
  413MOL0     C54397  10.131  10.107  11.117 -0.0461 -0.5035 -0.2884
  413MOL0     C54398  10.002  10.126  11.063  0.1837  0.4954  0.9901
  413MOL0     C54399   9.907  10.149  11.180  0.4293 -0.5610  0.6373
  413MOL0     C54400   9.757  10.147  11.135  0.5323  1.5143 -0.1276
  413MOL0     N54401   9.677  10.212  11.240  0.3131 -0.7383 -0.1590
  413MOL0     C54402   9.676  10.177  11.375  0.3114  0.1497 -0.2428
  413MOL0     C54403   9.601  10.265  11.447 -1.3341 -0.0479  0.9902
  413MOL0     C54404   9.568  10.250  11.596  0.3052 -0.0135 -0.1241
  413MOL0     C54405   9.415  10.223  11.612 -0.0373  0.2419 -0.4057
  413MOL0     C54406   9.377  10.068  11.609  0.5384 -0.3298  0.1139
  413MOL0     C54407   9.228  10.050  11.609 -0.1886 -0.5288  1.1149
  413MOL0     O54408   9.213   9.918  11.550 -0.7612 -0.6574 -0.0553
  413MOL0     C54409   9.097   9.864  11.557  0.1700  0.2008  0.3701
  413MOL0     C54410   9.050   9.815  11.679 -1.5233  0.2614 -0.2352
  413MOL0     C54411   8.926   9.751  11.689 -0.4483 -0.4991  0.0500
  413MOL0     C54412   8.845   9.738  11.577 -0.5636 -0.4064  0.4656
  413MOL0     C54413   8.717   9.669  11.579 -0.9539  0.4480 -0.5644
  413MOL0     O54414   8.710   9.603  11.695 -0.9259  0.8390  0.0516
  413MOL0     C54415   8.594   9.549  11.742  0.4637  0.2616  0.2766
  413MOL0     C54416   8.611   9.449  11.843  0.6282  0.5438 -0.4417
  413MOL0     C54417   8.503   9.363  11.887  0.0222 -0.8898  0.1437
  413MOL0     C54418   8.373   9.395  11.841  0.2001  0.0207 -0.0718
  413MOL0     O54419   8.273   9.306  11.892 -0.1301 -0.9350 -0.3150
  413MOL0     C54420   8.145   9.348  11.920  0.1658 -0.9516  0.1142
  413MOL0     C54421   8.129   9.340  12.071 -0.5126  0.8506  0.3468
  413MOL0     C54422   7.982   9.380  12.124  0.3364  0.2212 -0.2035
  413MOL0     C54423   7.967   9.533  12.116 -0.2747  0.0539  0.2898
  413MOL0     C54424   7.870   9.589  12.215  0.6568  0.0992  1.0697
  413MOL0     C54425   7.724   9.589  12.167 -0.8122 -1.2124 -0.1982
  413MOL0     C54426   7.635   9.672  12.267 -1.1539 -0.4780  0.4159
  413MOL0     C54427   7.491   9.676  12.221  0.1796  0.6618  0.2803
  413MOL0    Cl54428   7.391   9.771  12.345 -0.2478  0.2230  0.3027
  413MOL0     C54429   8.358   9.487  11.743 -0.8140  1.0972  0.1422
  413MOL0     C54430   8.461   9.565  11.698 -0.1726 -0.3666  0.2825
  413MOL0     O54431   8.643   9.660  11.483 -0.6005  0.9225 -0.4210
  413MOL0     C54432   8.889   9.788  11.453 -0.2844  1.0378 -0.5519
  413MOL0     C54433   9.012   9.848  11.443  0.0507 -0.9541 -0.7210
  413MOL0     N54434   9.558  10.362  11.352  0.0777  0.2598 -0.3627
  413MOL0     N54435   9.603  10.330  11.238 -0.1480 -0.0503  0.4388
  413MOL0     C54436  10.574   9.614  10.931  0.7345 -1.0008 -0.7843
  413MOL0     C54437  10.665   9.514  10.904 -1.0423  0.1861 -0.0118
  413MOL0     C54438  11.090   9.374  10.869  0.6145 -0.2729  0.4263
  413MOL0     C54439  11.173   9.468  10.805 -0.5105 -0.2904 -0.4268
  413MOL0     C54440  11.313   9.466  10.816 -0.4149  0.4162  0.5646
  413MOL0     C54441  11.386   9.358  10.869  0.8436 -0.2525 -0.6166
  413MOL0     O54442  11.524   9.337  10.870  0.8148 -0.3115  0.2992
  413MOL0     C54443  11.612   9.440  10.822 -0.2894  0.2763  0.0606
  413MOL0     C54444  11.755   9.431  10.891  0.3167 -0.1163 -0.2115
  413MOL0     C54445  11.853   9.530  10.832  0.0261 -0.4725  0.4305
  413MOL0     C54446  11.991   9.531  10.895  0.9518 -0.4565 -0.1202
  413MOL0     C54447  11.982   9.583  11.036  0.0313  1.2862  0.0437
  413MOL0     C54448  11.981   9.617  11.155  0.2858  0.2776 -0.7851
  413MOL0     C54449  11.302   9.256  10.923 -0.1381 -0.1094 -0.5262
  413MOL0     C54450  11.163   9.264  10.919 -0.1365 -0.6513 -0.2366
  413MOL0     H54451  10.932   9.716  10.832 -0.3637 -0.3607 -1.9980
  413MOL0     H54452  10.773   9.893  10.900  2.7432  0.1445  0.2469
  413MOL0     H54453  10.460   9.750  11.124  4.9882 -1.1193 -2.9754
  413MOL0     H54454  10.345   9.822  11.003 -1.8522  4.1534  2.6173
  413MOL0     H54455  10.392  10.049  11.070 -2.1449 -0.0026  0.1223
  413MOL0     H54456  10.514   9.984  11.182 -1.0528  0.8132  2.2351
  413MOL0     H54457  10.301  10.020  11.315  2.0820  0.7241  1.1411
  413MOL0     H54458  10.294   9.845  11.270  2.0786  1.8579  1.5756
  413MOL0     H54459  10.141   9.895  11.090 -1.5071 -2.6675  3.5498
  413MOL0     H54460  10.092   9.946  11.252  0.4885  1.3488  1.0616
  413MOL0     H54461  10.215  10.138  11.056 -0.1462  1.0302  0.3198
  413MOL0     H54462  10.136  10.172  11.204 -0.4902 -0.7478 -0.0733
  413MOL0     H54463   9.973  10.031  11.016  3.6093 -2.7383  4.5988
  413MOL0     H54464  10.004  10.206  10.988 -3.3016 -1.9424 -2.0685
  413MOL0     H54465   9.917  10.068  11.252 -3.0893 -1.7069  0.0494
  413MOL0     H54466   9.935  10.244  11.226  4.4052 -0.9986 -0.5389
  413MOL0     H54467   9.738  10.043  11.110  0.0697  1.9871 -1.8660
  413MOL0     H54468   9.748  10.201  11.040  1.6014  3.4249  0.7933
  413MOL0     H54469   9.725  10.093  11.424  0.6369  1.3665  1.6353
  413MOL0     H54470   9.584  10.346  11.645 -2.8659 -0.2892  1.7009
  413MOL0     H54471   9.628  10.172  11.645 -0.1762 -2.9595 -3.7456
  413MOL0     H54472   9.348  10.270  11.540 -0.4336 -1.2130 -1.0055
  413MOL0     H54473   9.389  10.252  11.715  2.6669 -1.7660  0.9896
  413MOL0     H54474   9.438  10.016  11.535  5.5927  2.1660  2.0411
  413MOL0     H54475   9.413  10.028  11.704  0.0953 -0.9081  0.0399
  413MOL0     H54476   9.173  10.110  11.536  1.3363 -1.0625 -0.5443
  413MOL0     H54477   9.185  10.059  11.709  1.2065 -1.9418  1.8908
  413MOL0     H54478   9.129   9.821  11.752 -1.4295 -0.7801 -0.2326
  413MOL0     H54479   8.908   9.712  11.789  1.9582 -4.2608 -0.7608
  413MOL0     H54480   8.706   9.423  11.889  0.9445  0.7284 -0.9859
  413MOL0     H54481   8.511   9.296  11.972 -0.9009 -1.0827  0.0895
  413MOL0     H54482   8.069   9.288  11.869  0.0943  0.0606 -1.0147
  413MOL0     H54483   8.127   9.453  11.895 -3.9205 -1.3673  0.6374
  413MOL0     H54484   8.200   9.409  12.118 -0.2424  0.4008  0.6054
  413MOL0     H54485   8.162   9.238  12.092  0.1685  0.8755 -0.5275
  413MOL0     H54486   7.959   9.361  12.229  2.0965 -0.5321  0.0783
  413MOL0     H54487   7.908   9.326  12.064  1.2661  0.8423 -1.9826
  413MOL0     H54488   8.065   9.570  12.150 -0.9432  2.8593 -0.5801
  413MOL0     H54489   7.942   9.568  12.016  0.2632 -0.3207  0.0196
  413MOL0     H54490   7.902   9.692  12.234  1.7392 -0.1046  0.4650
  413MOL0     H54491   7.870   9.535  12.310 -1.5035  0.1565  1.1476
  413MOL0     H54492   7.684   9.487  12.175  3.9576 -3.5689 -2.2499
  413MOL0     H54493   7.721   9.637  12.069  1.1042  0.2818  0.4088
  413MOL0     H54494   7.645   9.640  12.371 -0.3640  4.1711  2.0336
  413MOL0     H54495   7.671   9.776  12.265  0.1270 -0.8894  0.9494
  413MOL0     H54496   7.459   9.572  12.213 -1.5649  1.2094 -0.2755
  413MOL0     H54497   7.466   9.716  12.123  1.3008 -0.9588 -0.7074
  413MOL0     H54498   8.255   9.508  11.715 -0.9617 -0.0214 -0.2265
  413MOL0     H54499   8.436   9.630  11.615 -0.7472  0.8150  1.3499
  413MOL0     H54500   8.825   9.772  11.367 -0.0746 -2.5277 -0.1761
  413MOL0     H54501   9.056   9.882  11.350  4.4840 -1.2202  1.0586
  413MOL0     H54502  10.478   9.589  10.973  0.8462 -1.6993 -0.9348
  413MOL0     H54503  10.631   9.411  10.902 -0.6563  0.0232  1.2744
  413MOL0     H54504  11.132   9.554  10.753  0.4348 -0.9628 -2.4118
  413MOL0     H54505  11.365   9.557  10.784 -0.2644  1.6253  3.8870
  413MOL0     H54506  11.571   9.540  10.837  0.1851  0.9126 -2.3979
  413MOL0     H54507  11.623   9.429  10.713 -1.6487 -1.5507  0.0449
  413MOL0     H54508  11.760   9.440  11.000  0.9091  0.8680 -0.3087
  413MOL0     H54509  11.791   9.330  10.874  1.6063 -0.1179  2.0873
  413MOL0     H54510  11.819   9.631  10.854 -2.0031 -0.5967 -1.7487
  413MOL0     H54511  11.872   9.511  10.726  1.0983 -3.7605  1.0802
  413MOL0     H54512  12.045   9.436  10.900 -2.0734 -2.2719  0.4737
  413MOL0     H54513  12.055   9.597  10.835  0.2561 -3.5343 -4.7948
  413MOL0     H54514  11.971   9.651  11.257 -2.0516  0.4708 -1.0277
  413MOL0     H54515  11.351   9.170  10.967 -1.6524 -0.5597  0.3309
  413MOL0     H54516  11.108   9.191  10.977 -1.4055  2.0273  2.2195
  414MOL0     O54517   1.005   5.312   7.270  0.3341 -0.6942  0.7305
  414MOL0     C54518   1.101   5.342   7.187  0.9194  0.3797 -0.4989
  414MOL0     O54519   1.201   5.430   7.208 -0.1048 -0.0095 -0.4309
  414MOL0     C54520   1.193   5.517   7.310  0.9097 -0.6681 -0.1745
  414MOL0     C54521   1.138   5.643   7.293  0.0599  0.2430 -1.1295
  414MOL0     C54522   1.132   5.729   7.411 -0.1947  0.2867  0.8070
  414MOL0     C54523   1.174   5.673   7.535  0.2686 -0.4422 -0.6980
  414MOL0     O54524   1.179   5.762   7.643 -0.1034 -0.3906  0.3421
  414MOL0     C54525   1.253   5.731   7.756  0.3353  0.8132  0.4229
  414MOL0     C54526   1.407   5.747   7.723 -0.0483  0.3111  0.6129
  414MOL0     C54527   1.497   5.687   7.824 -0.7057  0.0074  0.5710
  414MOL0     C54528   1.509   5.760   7.969 -0.3005  0.1922  0.0614
  414MOL0     C54529   1.616   5.698   8.051 -0.9746  0.1666 -0.7645
  414MOL0     C54530   1.630   5.771   8.186  1.1294  0.1386  0.1420
  414MOL0     C54531   1.707   5.681   8.289 -0.5521 -0.3947  0.7491
  414MOL0     C54532   1.733   5.740   8.424 -0.2958  0.1459  0.6257
  414MOL0     N54533   1.846   5.833   8.433 -0.1270 -0.2142 -0.1925
  414MOL0     C54534   1.974   5.825   8.399  0.8020  0.6927  0.6261
  414MOL0     C54535   2.027   5.950   8.424 -0.7713  0.8471  0.6849
  414MOL0     C54536   2.175   5.983   8.414 -0.7182  0.6489  0.1882
  414MOL0     C54537   2.255   5.894   8.511 -0.4043 -0.0856  0.3185
  414MOL0     C54538   2.348   5.988   8.594  0.5655 -0.7376  1.1135
  414MOL0     C54539   2.462   5.910   8.665 -0.6333  0.4722 -0.8487
  414MOL0     O54540   2.564   5.995   8.737 -0.6520  0.2315  0.3433
  414MOL0     C54541   2.560   5.996   8.870 -0.0713  0.4128 -1.2889
  414MOL0     C54542   2.450   5.983   8.950  0.5375  0.3290  0.7410
  414MOL0     C54543   2.458   5.995   9.089 -0.2386  0.0783  0.1812
  414MOL0     C54544   2.588   5.999   9.160  1.2682  0.7493 -0.4459
  414MOL0     C54545   2.589   6.011   9.304 -0.2110  0.5135 -0.8332
  414MOL0     O54546   2.692   6.043   9.370  0.3602 -0.5493  0.0730
  414MOL0     C54547   2.696   6.065   9.502 -0.7993  0.3098 -0.2546
  414MOL0     C54548   2.594   6.111   9.586 -0.1853  0.7766  0.5048
  414MOL0     C54549   2.617   6.111   9.726  0.3801  0.2185 -0.6724
  414MOL0     C54550   2.750   6.086   9.778 -0.2079 -0.2770  0.0820
  414MOL0     O54551   2.762   6.097   9.914  0.2005  0.1174 -0.1086
  414MOL0     C54552   2.888   6.062   9.974  1.1782 -0.1836 -0.3574
  414MOL0     C54553   2.851   6.009  10.120  0.5206  0.5305  0.6101
  414MOL0     C54554   2.801   6.117  10.227 -1.1038 -0.5566 -0.2764
  414MOL0     C54555   2.786   6.072  10.378 -0.2363 -0.5552  0.0245
  414MOL0     C54556   2.769   6.192  10.459 -0.2845  0.3864  0.4595
  414MOL0     C54557   2.636   6.253  10.486 -0.6423  0.5637  0.1259
  414MOL0     C54558   2.562   6.165  10.598 -0.4233 -0.3173 -0.4376
  414MOL0     C54559   2.619   6.175  10.735  0.6501  0.2197 -0.2916
  414MOL0    Cl54560   2.532   6.069  10.847 -0.5273  0.4475  0.0286
  414MOL0     C54561   2.855   6.091   9.685 -0.3292 -0.0188  0.1807
  414MOL0     C54562   2.831   6.072   9.554  0.1542  0.1255  0.2047
  414MOL0     O54563   2.486   5.970   9.358  0.3285 -0.0647 -0.0816
  414MOL0     C54564   2.702   6.006   9.078  0.0454  0.4336  0.5345
  414MOL0     C54565   2.682   6.002   8.935 -0.4800  0.7298 -0.2108
  414MOL0     N54566   1.935   6.030   8.480 -0.4215 -0.0796  0.2886
  414MOL0     N54567   1.825   5.956   8.475  0.2509  0.0175 -0.9741
  414MOL0     C54568   1.215   5.541   7.553  0.8518 -0.3698  1.0811
  414MOL0     C54569   1.222   5.464   7.432  0.6345  0.5001  0.0164
  414MOL0     C54570   1.082   5.290   7.055 -0.3610  0.0192  0.0476
  414MOL0     C54571   0.976   5.193   7.012  0.4087  0.1975 -0.0120
  414MOL0     C54572   0.982   5.113   6.898 -0.0210 -0.9651  0.9853
  414MOL0     C54573   1.095   5.135   6.805  0.6000  0.5822 -0.3014
  414MOL0     O54574   1.111   5.070   6.688  0.0450  0.3792 -0.4500
  414MOL0     C54575   1.012   4.982   6.644  0.2098  0.6261 -0.1790
  414MOL0     C54576   1.058   4.925   6.509  0.4414  0.2942 -0.6305
  414MOL0     C54577   1.170   4.819   6.532  0.4573  0.1089  0.1039
  414MOL0     C54578   1.293   4.879   6.591 -0.9615  0.1334 -0.4488
  414MOL0     C54579   1.410   4.785   6.584 -0.4645 -0.3440  0.2790
  414MOL0     C54580   1.507   4.705   6.571 -0.8999 -0.2391 -0.1928
  414MOL0     C54581   1.202   5.214   6.852  0.4894  0.2027  0.7417
  414MOL0     C54582   1.191   5.295   6.960 -0.2822 -0.3354 -1.1199
  414MOL0     H54583   1.119   5.685   7.195 -1.9710 -1.1965 -1.4073
  414MOL0     H54584   1.087   5.828   7.408  1.0273  0.8400 -0.0100
  414MOL0     H54585   1.232   5.633   7.799  1.2631  0.0383 -0.7961
  414MOL0     H54586   1.231   5.804   7.834  2.5775  0.0743  1.8257
  414MOL0     H54587   1.433   5.853   7.713  3.6624 -0.6049 -1.0516
  414MOL0     H54588   1.423   5.705   7.624 -1.6154  0.6502  0.1908
  414MOL0     H54589   1.597   5.687   7.780 -0.9520 -0.7741  0.0047
  414MOL0     H54590   1.465   5.586   7.849 -2.6444  1.4030  4.7919
  414MOL0     H54591   1.523   5.866   7.946  1.7833  0.4968  2.3148
  414MOL0     H54592   1.405   5.745   8.001 -1.1906 -2.2714 -3.3974
  414MOL0     H54593   1.715   5.694   8.005 -1.5976 -2.5093 -2.0974
  414MOL0     H54594   1.588   5.596   8.080 -0.7150  0.7629  1.8763
  414MOL0     H54595   1.534   5.803   8.229  2.1015  3.9102 -0.1591
  414MOL0     H54596   1.676   5.870   8.180 -0.0450  0.7117  0.4132
  414MOL0     H54597   1.651   5.588   8.307 -0.2602 -0.4330  1.5080
  414MOL0     H54598   1.799   5.657   8.235 -2.7702 -3.4597 -2.1228
  414MOL0     H54599   1.749   5.656   8.492 -3.0543 -1.3744 -0.4240
  414MOL0     H54600   1.645   5.795   8.458  0.8595  3.0533 -0.6874
  414MOL0     H54601   2.035   5.745   8.358 -1.0379  0.4380 -1.8555
  414MOL0     H54602   2.186   6.089   8.437  3.2183  0.4952 -0.2741
  414MOL0     H54603   2.206   5.966   8.310  0.4324  1.3301  0.4087
  414MOL0     H54604   2.294   5.815   8.447 -0.7899  0.0677 -0.1208
  414MOL0     H54605   2.187   5.841   8.578 -0.7266 -1.9740 -1.4095
  414MOL0     H54606   2.398   6.063   8.531 -3.1031  0.2923 -0.8984
  414MOL0     H54607   2.285   6.057   8.651 -1.2863 -0.8549 -0.6567
  414MOL0     H54608   2.524   5.857   8.592  1.1614 -0.1206  1.0004
  414MOL0     H54609   2.407   5.833   8.719 -0.4258  1.0973  0.2946
  414MOL0     H54610   2.348   5.991   8.914  1.4206  0.2884 -2.0107
  414MOL0     H54611   2.357   6.006   9.127 -0.5400  0.1142 -0.6043
  414MOL0     H54612   2.492   6.130   9.553  0.4707  0.8008 -1.6564
  414MOL0     H54613   2.524   6.109   9.782 -1.6693  0.8759 -3.7575
  414MOL0     H54614   2.951   6.149   9.993  2.4996 -1.1294 -0.2957
  414MOL0     H54615   2.929   5.988   9.904 -0.4027 -0.5220 -0.9802
  414MOL0     H54616   2.938   5.955  10.159 -0.8432 -0.0849  3.0243
  414MOL0     H54617   2.776   5.934  10.096  1.8269 -0.2683 -1.1280
  414MOL0     H54618   2.710   6.162  10.188 -0.0378  1.4033 -0.5917
  414MOL0     H54619   2.877   6.194  10.214  0.1475 -2.2428 -5.4133
  414MOL0     H54620   2.705   6.000  10.388  1.2720 -2.5702 -1.4695
  414MOL0     H54621   2.879   6.026  10.413  1.3343  1.6460 -1.0164
  414MOL0     H54622   2.829   6.269  10.409  1.5583 -1.8954 -1.0714
  414MOL0     H54623   2.820   6.187  10.555  0.6521  3.8667  0.2748
  414MOL0     H54624   2.582   6.249  10.390  0.8240  3.6223 -0.9315
  414MOL0     H54625   2.643   6.360  10.507  2.6959  0.6261 -0.7705
  414MOL0     H54626   2.457   6.193  10.611 -0.7455 -1.6889  0.0869
  414MOL0     H54627   2.562   6.063  10.559 -3.8733 -2.0857  3.4094
  414MOL0     H54628   2.610   6.280  10.765  0.0723 -0.4161  2.0152
  414MOL0     H54629   2.727   6.163  10.736  1.0681  2.7213 -3.0573
  414MOL0     H54630   2.961   6.089   9.706  0.1115  2.5080 -1.3361
  414MOL0     H54631   2.918   6.069   9.489 -0.6428  0.2389 -0.9011
  414MOL0     H54632   2.796   5.999   9.132  0.3574  1.1448  0.1004
  414MOL0     H54633   2.775   6.003   8.879 -0.6641 -0.9290 -0.5995
  414MOL0     H54634   1.248   5.506   7.650  0.2508  1.2355  1.9149
  414MOL0     H54635   1.272   5.371   7.456  2.6503  1.9095  1.5663
  414MOL0     H54636   0.898   5.165   7.082  0.3464  3.5861  1.4601
  414MOL0     H54637   0.914   5.030   6.879 -0.3241 -0.9668  2.0324
  414MOL0     H54638   0.914   5.029   6.634 -0.8265 -1.3034  0.4678
  414MOL0     H54639   0.999   4.906   6.721  0.0819 -0.0827 -0.8904
  414MOL0     H54640   0.976   4.872   6.459 -1.1291  1.3784  0.6602
  414MOL0     H54641   1.095   5.011   6.453 -0.9401  3.4848  2.9182
  414MOL0     H54642   1.199   4.771   6.438 -0.2476 -0.9467  0.4051
  414MOL0     H54643   1.130   4.740   6.596 -1.5301 -1.1343 -2.4900
  414MOL0     H54644   1.324   4.968   6.535 -0.7966 -0.8275 -1.9651
  414MOL0     H54645   1.285   4.906   6.696 -2.2758 -0.0369 -0.4896
  414MOL0     H54646   1.594   4.644   6.583  0.2391  1.5059  0.9396
  414MOL0     H54647   1.282   5.227   6.780 -0.2713 -3.8412 -1.1247
  414MOL0     H54648   1.285   5.346   6.981  0.0017 -0.3188 -2.3772
  415MOL0     O54649   4.048   8.412   1.620 -0.6226 -0.4554  0.5698
  415MOL0     C54650   3.933   8.458   1.603 -0.7356 -0.7735 -0.9942
  415MOL0     O54651   3.824   8.379   1.575 -0.5863  0.7449  0.0735
  415MOL0     C54652   3.852   8.255   1.517  0.2920  0.3916 -0.6860
  415MOL0     C54653   3.778   8.140   1.570  0.4042 -1.2936 -0.0006
  415MOL0     C54654   3.789   8.016   1.500  0.2601  0.2932  0.8399
  415MOL0     C54655   3.862   8.010   1.387 -0.2785 -0.4772  0.5804
  415MOL0     O54656   3.876   7.885   1.329 -0.2136  0.5067  0.2774
  415MOL0     C54657   3.875   7.867   1.187 -0.0689  0.1423  0.9920
  415MOL0     C54658   3.857   7.723   1.135 -0.4033 -0.8272 -0.4599
  415MOL0     C54659   3.712   7.691   1.114 -0.1110  0.5391  0.2887
  415MOL0     C54660   3.637   7.675   1.243  0.3335 -0.4451 -1.1613
  415MOL0     C54661   3.504   7.618   1.219  0.5180  0.7760  0.7305
  415MOL0     C54662   3.439   7.578   1.351  0.3757  1.1240  0.0534
  415MOL0     C54663   3.286   7.537   1.327  0.1578 -1.5320 -0.1462
  415MOL0     C54664   3.183   7.547   1.448 -0.7164 -0.0994  0.6164
  415MOL0     N54665   3.212   7.432   1.528  0.8210 -0.9280 -0.5104
  415MOL0     C54666   3.191   7.298   1.508  0.8137 -0.1504 -0.6071
  415MOL0     C54667   3.208   7.248   1.632  0.3746 -0.5356  0.1933
  415MOL0     C54668   3.188   7.106   1.659  1.0998 -0.2424 -1.0957
  415MOL0     C54669   3.073   7.074   1.762 -0.1186  0.8086 -0.1840
  415MOL0     C54670   2.984   6.945   1.746 -1.1375  0.6567  0.4229
  415MOL0     C54671   3.077   6.813   1.759  1.1846  0.0390 -0.8625
  415MOL0     O54672   3.120   6.790   1.891  0.0485 -0.1059  0.3513
  415MOL0     C54673   3.213   6.690   1.914 -0.1460  0.1716  0.2355
  415MOL0     C54674   3.277   6.605   1.815  0.4850  0.0504  0.5977
  415MOL0     C54675   3.391   6.531   1.863 -0.0279 -0.7174 -0.1181
  415MOL0     C54676   3.434   6.521   1.996 -0.0713  0.6218  0.2286
  415MOL0     C54677   3.546   6.437   2.042 -0.7185 -0.3775  0.1081
  415MOL0     O54678   3.596   6.448   2.172 -0.3979  0.2912  0.0244
  415MOL0     C54679   3.727   6.420   2.198 -0.4519 -0.1264 -0.0142
  415MOL0     C54680   3.758   6.403   2.341  0.3981  0.6208 -0.1184
  415MOL0     C54681   3.883   6.374   2.385 -0.2236  0.8364  0.2037
  415MOL0     C54682   3.985   6.359   2.294  0.1682  0.0577 -0.0488
  415MOL0     O54683   4.104   6.326   2.348 -0.2005 -0.0753  0.5601
  415MOL0     C54684   4.234   6.369   2.295  0.1741 -0.1489  0.8635
  415MOL0     C54685   4.345   6.403   2.391  0.3291  0.0383  0.3216
  415MOL0     C54686   4.327   6.544   2.450 -0.6933  0.9979  0.4182
  415MOL0     C54687   4.465   6.597   2.504  0.1009 -0.0325 -0.6016
  415MOL0     C54688   4.492   6.751   2.485  0.0961 -0.5710  0.2790
  415MOL0     C54689   4.605   6.798   2.587  0.4428  0.7343  0.4242
  415MOL0     C54690   4.632   6.946   2.580  0.8286  0.3646  0.2459
  415MOL0     C54691   4.722   6.981   2.704  0.1939 -0.4820 -0.3127
  415MOL0    Cl54692   4.893   6.952   2.641  0.7439  0.1229 -0.1562
  415MOL0     C54693   3.961   6.374   2.156 -0.2963 -0.8348 -0.0954
  415MOL0     C54694   3.827   6.412   2.108 -0.8429  0.3255 -1.0050
  415MOL0     O54695   3.591   6.376   1.946 -0.0190  0.5918 -0.2635
  415MOL0     C54696   3.378   6.600   2.088  0.4824  0.0212 -0.3398
  415MOL0     C54697   3.268   6.686   2.050  0.7088  0.3115 -0.4084
  415MOL0     N54698   3.233   7.355   1.722  0.3882 -0.0965 -0.5127
  415MOL0     N54699   3.240   7.463   1.657 -0.3299 -0.5892 -0.6375
  415MOL0     C54700   3.930   8.123   1.337  1.0361 -0.6222  0.4872
  415MOL0     C54701   3.928   8.246   1.402  0.5354 -0.8371 -0.1501
  415MOL0     C54702   3.906   8.603   1.608 -0.4260  0.6194 -0.1012
  415MOL0     C54703   4.000   8.694   1.641  0.6187  0.3403 -0.1720
  415MOL0     C54704   3.962   8.828   1.665  0.5684  0.2448 -0.4649
  415MOL0     C54705   3.825   8.875   1.655 -0.5091 -0.3203 -0.8072
  415MOL0     O54706   3.783   9.010   1.665 -0.0369 -0.7439 -0.2642
  415MOL0     C54707   3.880   9.107   1.617 -1.0014  0.2810 -0.6780
  415MOL0     C54708   3.803   9.241   1.594 -0.6678 -0.5676  0.2127
  415MOL0     C54709   3.713   9.241   1.467 -0.9190 -1.1415 -0.4227
  415MOL0     C54710   3.668   9.392   1.447 -0.6506 -0.7738 -0.6027
  415MOL0     C54711   3.565   9.437   1.549 -0.4924  1.3096  0.8262
  415MOL0     C54712   3.478   9.473   1.617  1.0659 -0.9875 -0.9630
  415MOL0     C54713   3.741   8.790   1.600  0.4654  0.0463  0.1532
  415MOL0     C54714   3.773   8.649   1.581 -0.6039  0.5797 -0.4278
  415MOL0     H54715   3.735   8.161   1.668 -0.0153  0.3897 -0.5121
  415MOL0     H54716   3.741   7.931   1.548 -0.5293  0.6233  0.6676
  415MOL0     H54717   3.964   7.907   1.136  1.0027 -2.3278  0.7942
  415MOL0     H54718   3.787   7.924   1.155 -0.1148  0.4016  1.5746
  415MOL0     H54719   3.887   7.642   1.202 -0.8885  0.3480  1.2506
  415MOL0     H54720   3.908   7.713   1.039  0.3379 -3.2491  0.1081
  415MOL0     H54721   3.715   7.599   1.055 -1.6900  0.9421 -0.4806
  415MOL0     H54722   3.665   7.769   1.054  2.0422 -0.4481 -2.9706
  415MOL0     H54723   3.697   7.601   1.298 -0.9451  0.9752  2.4647
  415MOL0     H54724   3.624   7.764   1.305 -0.0633 -0.7024 -0.8678
  415MOL0     H54725   3.499   7.526   1.160 -1.1951  0.5593  1.1530
  415MOL0     H54726   3.440   7.692   1.171  0.2252 -0.9857 -1.7731
  415MOL0     H54727   3.443   7.664   1.419  1.9695  1.5755 -0.5794
  415MOL0     H54728   3.491   7.492   1.394  2.0743  0.7978 -2.4644
  415MOL0     H54729   3.239   7.606   1.256 -2.6020 -1.2108  1.8273
  415MOL0     H54730   3.293   7.437   1.282  3.5770 -1.7883  0.6491
  415MOL0     H54731   3.079   7.545   1.412 -1.2259  0.6754  1.9554
  415MOL0     H54732   3.184   7.647   1.493 -1.1187  1.1612 -1.9337
  415MOL0     H54733   3.164   7.244   1.418  0.6419 -0.7335 -0.2102
  415MOL0     H54734   3.274   7.060   1.708 -0.3442 -0.9010  0.9145
  415MOL0     H54735   3.171   7.047   1.568 -1.0880 -0.1814 -0.7892
  415MOL0     H54736   2.996   7.151   1.749 -0.9077  0.0192 -0.3371
  415MOL0     H54737   3.111   7.082   1.864 -1.9105  0.4391  0.5444
  415MOL0     H54738   2.911   6.949   1.827 -1.2059  0.6723  0.3609
  415MOL0     H54739   2.932   6.943   1.650  0.8956  2.5243 -0.8233
  415MOL0     H54740   3.160   6.841   1.694  1.4050 -0.6031 -0.8650
  415MOL0     H54741   3.013   6.731   1.725  1.1143 -0.2437 -0.0771
  415MOL0     H54742   3.246   6.589   1.712 -0.1914 -4.4692  1.2766
  415MOL0     H54743   3.435   6.464   1.790 -1.2412 -2.0967  0.3532
  415MOL0     H54744   3.684   6.411   2.419 -0.7058  2.0528 -1.2612
  415MOL0     H54745   3.895   6.357   2.491  2.9698 -0.0206 -0.2001
  415MOL0     H54746   4.212   6.451   2.225 -1.8198 -1.4204 -0.1074
  415MOL0     H54747   4.276   6.287   2.236 -3.3025 -1.7955  0.4526
  415MOL0     H54748   4.424   6.419   2.317 -0.3987  1.3505 -0.2159
  415MOL0     H54749   4.361   6.326   2.467  0.8805 -0.9471 -0.7564
  415MOL0     H54750   4.252   6.542   2.529 -2.7157 -0.6051 -1.3912
  415MOL0     H54751   4.289   6.616   2.378 -3.6352 -0.7283  0.0736
  415MOL0     H54752   4.480   6.572   2.610 -2.1006  0.0832 -0.2252
  415MOL0     H54753   4.556   6.556   2.459  0.5382 -1.2234  1.2582
  415MOL0     H54754   4.400   6.804   2.511  1.3622  2.6464 -1.3094
  415MOL0     H54755   4.519   6.777   2.382 -2.1632  0.1395 -0.1952
  415MOL0     H54756   4.698   6.745   2.565 -0.4563  0.5928 -3.8452
  415MOL0     H54757   4.575   6.769   2.688 -2.5549 -0.7085 -0.7716
  415MOL0     H54758   4.679   6.982   2.488  0.1999  1.8253  0.4765
  415MOL0     H54759   4.540   7.003   2.593  0.9482  0.9133 -1.1589
  415MOL0     H54760   4.697   6.922   2.793  3.5015  0.1673  1.1761
  415MOL0     H54761   4.700   7.087   2.722  0.7880 -0.1291 -1.5381
  415MOL0     H54762   4.042   6.358   2.085  0.3074 -1.9436  0.8123
  415MOL0     H54763   3.815   6.432   2.002 -0.2831  1.5987 -0.8516
  415MOL0     H54764   3.409   6.605   2.192 -2.3950  2.2229  0.5750
  415MOL0     H54765   3.217   6.760   2.110 -1.5359 -0.9297 -0.6810
  415MOL0     H54766   3.973   8.112   1.239 -0.7243 -1.9964 -0.1808
  415MOL0     H54767   3.970   8.337   1.362  2.9997 -0.7172  2.4077
  415MOL0     H54768   4.107   8.677   1.653  1.3024  4.2299  0.4549
  415MOL0     H54769   4.032   8.904   1.698 -2.2734  1.7729  2.5308
  415MOL0     H54770   3.930   9.079   1.524  1.4535  1.5339  0.1640
  415MOL0     H54771   3.946   9.126   1.702 -0.9333  0.5203 -0.7817
  415MOL0     H54772   3.744   9.272   1.681 -1.3010  1.3628 -0.8517
  415MOL0     H54773   3.877   9.321   1.585 -0.0055 -1.1157  0.6213
  415MOL0     H54774   3.623   9.179   1.479 -0.3403 -1.6909  1.3351
  415MOL0     H54775   3.767   9.221   1.374  1.3167  0.4442  0.4636
  415MOL0     H54776   3.757   9.457   1.445 -0.0994 -1.4254 -3.9978
  415MOL0     H54777   3.634   9.413   1.345  1.3197 -2.6307 -1.7389
  415MOL0     H54778   3.408   9.526   1.678  2.4782 -1.0660  0.7989
  415MOL0     H54779   3.653   8.832   1.552  1.6132  1.0342 -1.1591
  415MOL0     H54780   3.692   8.585   1.548  0.7227  0.5833 -4.2429
  416MOL0     O54781   2.882   2.790  11.016  0.1778 -0.0047  0.1013
  416MOL0     C54782   2.987   2.845  10.993 -1.5021  0.0377 -0.7468
  416MOL0     O54783   3.100   2.790  10.919  1.0612 -0.9649  0.8138
  416MOL0     C54784   3.059   2.680  10.841 -0.7389 -0.1251 -0.0680
  416MOL0     C54785   2.940   2.658  10.767  0.1178 -0.2648 -0.2864
  416MOL0     C54786   2.923   2.535  10.700  1.1389 -0.3572  1.6136
  416MOL0     C54787   3.024   2.438  10.704  0.4248  0.1797 -0.6795
  416MOL0     O54788   3.020   2.322  10.631  0.0652 -0.3036 -0.5147
  416MOL0     C54789   2.957   2.320  10.501  0.4586  0.0402  0.4066
  416MOL0     C54790   2.998   2.420  10.387 -0.9840  0.8646 -0.4067
  416MOL0     C54791   2.915   2.402  10.267  1.1059  0.4122  0.0578
  416MOL0     C54792   2.945   2.274  10.183  0.8530 -0.1046  0.5803
  416MOL0     C54793   2.901   2.303  10.045  0.1270  0.1786  0.5381
  416MOL0     C54794   2.903   2.182   9.957 -0.1578 -0.5845 -0.9768
  416MOL0     C54795   2.879   2.212   9.814  0.2185  0.0222 -0.0139
  416MOL0     C54796   2.814   2.341   9.770 -0.2951 -0.5851  0.7046
  416MOL0     N54797   2.810   2.353   9.619 -0.0648  0.0065 -0.1970
  416MOL0     C54798   2.760   2.262   9.532 -0.0321 -0.1675  0.1939
  416MOL0     C54799   2.760   2.313   9.409 -0.2479  0.0814  1.6596
  416MOL0     C54800   2.708   2.234   9.288 -0.8509 -0.9284  0.3279
  416MOL0     C54801   2.778   2.267   9.160  0.5472  0.1894  0.1395
  416MOL0     C54802   2.928   2.229   9.192  0.3738  0.1606  0.2641
  416MOL0     C54803   2.942   2.084   9.161 -0.0391  0.3787  0.0564
  416MOL0     O54804   3.067   2.028   9.165  0.1069 -0.5351  0.4991
  416MOL0     C54805   3.143   2.007   9.281 -1.1024 -0.2835 -0.0290
  416MOL0     C54806   3.081   2.012   9.411 -0.6814 -0.0048 -1.0340
  416MOL0     C54807   3.146   1.946   9.508  0.4596 -0.3567 -0.4618
  416MOL0     C54808   3.265   1.877   9.499 -0.2213  0.1584 -0.5357
  416MOL0     C54809   3.329   1.799   9.606 -0.2879  0.5461  1.1066
  416MOL0     O54810   3.468   1.770   9.600 -0.1160 -0.8240  0.9027
  416MOL0     C54811   3.533   1.691   9.688  0.0877 -0.5866 -0.6548
  416MOL0     C54812   3.484   1.573   9.740 -0.5195  0.4126  0.9009
  416MOL0     C54813   3.560   1.488   9.815 -0.0843 -0.2060 -0.4515
  416MOL0     C54814   3.690   1.523   9.846 -0.3138  0.4060 -0.6239
  416MOL0     O54815   3.786   1.432   9.893  0.3666  0.0318  0.2879
  416MOL0     C54816   3.747   1.357  10.009  0.4271  0.2551 -0.4739
  416MOL0     C54817   3.829   1.228  10.009  0.1393 -0.0414  1.1843
  416MOL0     C54818   3.746   1.097   9.997 -0.0432  0.5030 -0.6500
  416MOL0     C54819   3.829   0.975  10.010  0.6389  0.3820  0.0011
  416MOL0     C54820   3.755   0.852   9.956 -0.0198  0.1663  0.0076
  416MOL0     C54821   3.802   0.721  10.030 -0.0107  0.6701  1.0647
  416MOL0     C54822   3.949   0.699  10.027  1.1965  0.0995  0.4044
  416MOL0     C54823   4.003   0.679   9.891 -0.2314 -0.3829  0.0152
  416MOL0    Cl54824   3.924   0.538   9.811  0.3068  0.4909 -0.1132
  416MOL0     C54825   3.735   1.654   9.824  0.3553  0.3640 -0.4307
  416MOL0     C54826   3.651   1.734   9.740 -0.6320 -0.5891 -0.3439
  416MOL0     O54827   3.253   1.761   9.692 -0.0869 -0.8985 -0.5178
  416MOL0     C54828   3.329   1.896   9.377 -0.2785  0.5761  0.3648
  416MOL0     C54829   3.266   1.957   9.267 -0.3452 -0.3650 -0.3465
  416MOL0     N54830   2.825   2.439   9.420 -0.2220  0.1461 -0.1496
  416MOL0     N54831   2.856   2.457   9.547  0.1759 -0.0704 -0.0088
  416MOL0     C54832   3.141   2.454  10.784 -0.0693 -0.1990 -1.0003
  416MOL0     C54833   3.156   2.574  10.854  0.6759 -0.2897 -0.1647
  416MOL0     C54834   2.996   2.981  11.059 -0.5728  0.4844  0.2651
  416MOL0     C54835   3.117   3.049  11.069 -0.1133  0.4475 -1.6053
  416MOL0     C54836   3.125   3.178  11.126  0.1451 -0.1579 -0.4096
  416MOL0     C54837   3.012   3.243  11.168  0.6911  0.7352 -0.1587
  416MOL0     O54838   3.018   3.374  11.196  0.1332  0.0481 -0.4693
  416MOL0     C54839   2.899   3.440  11.262  0.6215 -0.8524  0.3363
  416MOL0     C54840   2.932   3.581  11.294  0.3449  0.0610 -0.5692
  416MOL0     C54841   2.829   3.653  11.385  0.4917  0.2924 -0.0908
  416MOL0     C54842   2.685   3.662  11.356 -0.0191  0.1299  0.9773
  416MOL0     C54843   2.653   3.659  11.208 -0.1285  0.6984 -0.6771
  416MOL0     C54844   2.634   3.672  11.092  1.2295 -0.0761  0.5673
  416MOL0     C54845   2.886   3.170  11.156  0.1457 -0.1047 -0.2393
  416MOL0     C54846   2.886   3.041  11.110  1.0954  0.5880 -0.5633
  416MOL0     H54847   2.856   2.727  10.762 -1.5126 -2.2064 -1.4159
  416MOL0     H54848   2.832   2.518  10.642  1.7245 -0.2520  0.6485
  416MOL0     H54849   2.849   2.332  10.518  0.6005  2.1700  0.0867
  416MOL0     H54850   2.970   2.217  10.468 -2.6655 -0.2620 -0.2590
  416MOL0     H54851   3.100   2.394  10.356 -0.9004  1.2703 -0.4802
  416MOL0     H54852   2.990   2.521  10.430  0.7779  0.2264  1.5875
  416MOL0     H54853   2.942   2.484  10.201 -0.4013 -1.0527 -2.5458
  416MOL0     H54854   2.806   2.395  10.280  1.2211 -1.5047  0.2631
  416MOL0     H54855   3.052   2.251  10.187  0.9497 -0.5554 -2.5992
  416MOL0     H54856   2.895   2.186  10.225  0.8735 -1.2544 -1.6757
  416MOL0     H54857   2.963   2.389  10.017 -1.2128  0.8752 -0.4091
  416MOL0     H54858   2.798   2.340  10.049  0.5016  1.3187 -0.0184
  416MOL0     H54859   2.821   2.124  10.000 -2.1137 -0.9871 -4.7510
  416MOL0     H54860   2.990   2.119   9.976 -1.5708 -2.0127  1.1023
  416MOL0     H54861   2.971   2.199   9.757 -0.9652  0.0406 -2.0056
  416MOL0     H54862   2.820   2.121   9.798  2.9881 -2.7179  3.5876
  416MOL0     H54863   2.875   2.422   9.811  1.6823 -1.5365 -0.1861
  416MOL0     H54864   2.715   2.341   9.817 -2.3677 -1.1818 -3.2439
  416MOL0     H54865   2.738   2.159   9.561 -2.2694 -0.2188 -1.4452
  416MOL0     H54866   2.603   2.263   9.292 -0.8271 -0.9895  1.9301
  416MOL0     H54867   2.711   2.126   9.305  2.0696 -1.0012 -0.1776
  416MOL0     H54868   2.773   2.375   9.145  0.0933  0.1171 -0.2514
  416MOL0     H54869   2.742   2.220   9.068  0.5944  0.2055  0.1125
  416MOL0     H54870   2.989   2.284   9.120  0.1545  0.4871  0.3295
  416MOL0     H54871   2.964   2.265   9.288 -2.4302  0.1401  1.3988
  416MOL0     H54872   2.910   2.058   9.059 -1.6137 -1.9183  1.0506
  416MOL0     H54873   2.870   2.025   9.219 -1.3850  1.0676 -0.8409
  416MOL0     H54874   2.982   2.051   9.429 -1.7208 -1.9192 -2.2781
  416MOL0     H54875   3.097   1.947   9.604 -0.3432  0.0820 -0.8625
  416MOL0     H54876   3.388   1.548   9.696  0.1214  1.6979 -1.4510
  416MOL0     H54877   3.534   1.387   9.846  1.8874 -0.3105  1.0864
  416MOL0     H54878   3.641   1.331  10.015  0.1943  1.5033  1.9178
  416MOL0     H54879   3.769   1.418  10.097 -1.1940  2.7761 -1.6900
  416MOL0     H54880   3.876   1.235  10.107  0.2500 -0.0531  1.1316
  416MOL0     H54881   3.901   1.229   9.926 -3.9755  1.1441 -2.7902
  416MOL0     H54882   3.704   1.089   9.896  2.3103 -0.5701 -1.6227
  416MOL0     H54883   3.671   1.100  10.076 -0.7109  0.3996 -1.2744
  416MOL0     H54884   3.926   0.985   9.960  0.3738 -1.5954 -0.9994
  416MOL0     H54885   3.842   0.947  10.115  2.3096 -2.5622 -0.8634
  416MOL0     H54886   3.771   0.851   9.847 -0.1112  1.1419 -0.0236
  416MOL0     H54887   3.648   0.864   9.974 -0.6163 -0.2232 -2.8312
  416MOL0     H54888   3.763   0.628   9.988 -1.2649  0.5718  2.3746
  416MOL0     H54889   3.768   0.724  10.134 -3.6478 -2.7231  0.2329
  416MOL0     H54890   4.021   0.768  10.073 -1.6414  1.4948  3.1293
  416MOL0     H54891   3.963   0.603  10.077 -0.8057 -0.2253  0.4272
  416MOL0     H54892   4.108   0.670   9.919 -0.0563  2.2063  0.3809
  416MOL0     H54893   4.003   0.771   9.832 -0.9627  0.9641  1.9986
  416MOL0     H54894   3.826   1.694   9.868 -0.8985  0.1995  2.5718
  416MOL0     H54895   3.681   1.837   9.724  3.1105 -1.1843  1.8136
  416MOL0     H54896   3.427   1.850   9.371 -0.1779  0.7898  0.3651
  416MOL0     H54897   3.305   1.931   9.169 -1.0629  1.3151 -1.1098
  416MOL0     H54898   3.214   2.376  10.805 -0.5479 -0.4666 -0.3207
  416MOL0     H54899   3.232   2.594  10.930 -1.2482  1.0981  1.5056
  416MOL0     H54900   3.204   2.994  11.034 -0.7545 -0.7321 -1.3880
  416MOL0     H54901   3.220   3.229  11.139 -1.3275  2.0215  3.4648
  416MOL0     H54902   2.868   3.380  11.347 -0.9053 -1.6010 -0.6970
  416MOL0     H54903   2.815   3.446  11.193  0.3417  1.5872  0.8016
  416MOL0     H54904   3.022   3.583  11.357 -0.1397 -0.1272  0.1393
  416MOL0     H54905   2.949   3.628  11.197  1.8905 -1.1729 -0.9554
  416MOL0     H54906   2.870   3.754  11.383 -0.0761  0.5610 -3.2472
  416MOL0     H54907   2.825   3.608  11.485  0.5005 -3.9984 -1.7856
  416MOL0     H54908   2.627   3.582  11.404  0.0989  1.5898  3.8212
  416MOL0     H54909   2.642   3.754  11.395 -0.9092  0.8342 -1.4942
  416MOL0     H54910   2.606   3.678  10.989 -0.9660 -0.0068  1.1240
  416MOL0     H54911   2.791   3.215  11.184  0.0903  1.1644 -2.2238
  416MOL0     H54912   2.792   2.987  11.117  0.9333  0.8582 -0.6599
  417MOL0     O54913  11.326  11.299   5.466  0.1778  0.4262 -0.3784
  417MOL0     C54914  11.271  11.380   5.544  0.1397 -0.9832 -0.7996
  417MOL0     O54915  11.267  11.387   5.686 -0.0185 -0.2678 -0.0728
  417MOL0     C54916  11.369  11.320   5.743  0.6943  0.9742 -1.1066
  417MOL0     C54917  11.504  11.348   5.719 -0.6394 -0.7498 -0.2376
  417MOL0     C54918  11.612  11.277   5.780 -0.0036  0.7735 -1.0857
  417MOL0     C54919  11.579  11.162   5.849  0.6007  0.8137 -0.4398
  417MOL0     O54920  11.678  11.095   5.909 -0.9304  0.5675 -1.2955
  417MOL0     C54921  11.795  11.164   5.962  0.2443 -0.0930  0.2586
  417MOL0     C54922  11.827  11.066   6.073 -0.0546  0.1756  0.7313
  417MOL0     C54923  11.940  11.102   6.180  0.3259  0.5914 -0.0098
  417MOL0     C54924  11.898  11.210   6.266  0.6126 -0.7925 -1.1493
  417MOL0     C54925  11.989  11.234   6.397  0.1862  0.4833  0.5030
  417MOL0     C54926  11.943  11.343   6.486 -0.5207 -0.2342  0.2046
  417MOL0     C54927  11.973  11.478   6.424  0.6472 -0.2698 -0.0665
  417MOL0     C54928  11.898  11.593   6.500 -0.6626  0.2602  0.4078
  417MOL0     N54929  11.937  11.736   6.468  0.5532  0.1641 -0.3875
  417MOL0     C54930  11.899  11.804   6.350  0.1580  0.0846  0.8316
  417MOL0     C54931  11.970  11.919   6.368 -0.1100 -0.2596 -0.5117
  417MOL0     C54932  11.972  12.021   6.262 -0.8620 -0.4273 -0.1844
  417MOL0     C54933  12.065  12.141   6.294  0.1829  0.5018  1.3555
  417MOL0     C54934  12.060  12.265   6.199  0.1049  0.2140  0.7720
  417MOL0     C54935  11.929  12.305   6.133  0.8989  0.3158 -0.8739
  417MOL0     O54936  11.831  12.295   6.232 -0.0899  0.3217 -0.3734
  417MOL0     C54937  11.701  12.323   6.198 -0.6302 -0.0859 -1.0995
  417MOL0     C54938  11.656  12.346   6.074 -0.0396 -0.4719 -0.8173
  417MOL0     C54939  11.519  12.347   6.036 -1.0397  1.2067 -0.2860
  417MOL0     C54940  11.421  12.330   6.138  0.2409 -0.2502  0.8292
  417MOL0     C54941  11.277  12.340   6.121  0.1476 -0.1055  0.7286
  417MOL0     O54942  11.202  12.289   6.225  0.8624  0.4310  0.9422
  417MOL0     C54943  11.064  12.310   6.240  0.0652 -0.4422 -0.6942
  417MOL0     C54944  11.024  12.363   6.367 -0.6713  0.1425  0.2040
  417MOL0     C54945  10.891  12.373   6.393  1.0083 -0.8714  0.0381
  417MOL0     C54946  10.797  12.348   6.288  0.0339  0.2668  0.0250
  417MOL0     O54947  10.656  12.362   6.302  0.3614 -0.0297 -0.3816
  417MOL0     C54948  10.599  12.339   6.429  0.9983  0.9567 -0.9907
  417MOL0     C54949  10.465  12.394   6.412 -1.0370  0.7256  0.7334
  417MOL0     C54950  10.393  12.288   6.324  1.3243  0.5360 -0.2751
  417MOL0     C54951  10.256  12.249   6.365 -1.0267 -0.3352  0.3736
  417MOL0     C54952  10.255  12.204   6.517 -0.6785  0.1159  0.2328
  417MOL0     C54953  10.183  12.073   6.550 -0.8350 -0.3000 -0.2949
  417MOL0     C54954  10.051  12.067   6.502  0.3348  0.6794 -0.0862
  417MOL0     C54955   9.955  12.002   6.604  0.3370  0.3768 -0.2559
  417MOL0    Cl54956   9.988  11.838   6.624 -0.4541  0.1336 -0.1639
  417MOL0     C54957  10.836  12.303   6.168 -0.2423  0.6465 -0.2010
  417MOL0     C54958  10.970  12.274   6.143 -0.5833  0.5596  0.4632
  417MOL0     O54959  11.230  12.385   6.021  0.8316  0.6492  0.4353
  417MOL0     C54960  11.469  12.321   6.273 -0.2933  0.8896 -0.1379
  417MOL0     C54961  11.606  12.316   6.297  0.0991  0.2372 -0.5084
  417MOL0     N54962  12.042  11.919   6.482 -1.4791 -0.6437 -0.2266
  417MOL0     N54963  12.030  11.809   6.544 -0.6153  0.5927  0.3694
  417MOL0     C54964  11.447  11.127   5.868  0.3348 -0.3797  0.0357
  417MOL0     C54965  11.339  11.197   5.815  0.1233  0.2910 -0.6201
  417MOL0     C54966  11.191  11.485   5.485 -0.2816 -0.6675 -0.0716
  417MOL0     C54967  11.184  11.609   5.547  0.1486 -0.3022 -0.1237
  417MOL0     C54968  11.087  11.696   5.492  0.1969  1.4312  0.3220
  417MOL0     C54969  11.032  11.682   5.366  0.0168  0.7146 -0.1368
  417MOL0     O54970  10.937  11.775   5.327 -0.5250 -0.1513  0.6183
  417MOL0     C54971  10.870  11.750   5.201 -0.4218 -0.3351 -0.0760
  417MOL0     C54972  10.768  11.860   5.168 -0.3652  0.3337 -0.4755
  417MOL0     C54973  10.649  11.867   5.268 -0.4894 -0.0489  0.0896
  417MOL0     C54974  10.517  11.909   5.201  0.0181 -0.4991 -0.3584
  417MOL0     C54975  10.527  12.049   5.151 -0.1042  0.7767 -0.3313
  417MOL0     C54976  10.543  12.159   5.095 -0.5286  0.3312 -0.7495
  417MOL0     C54977  11.059  11.564   5.301  1.1561 -0.1005 -0.7633
  417MOL0     C54978  11.133  11.466   5.360  0.4733  0.2659 -1.3651
  417MOL0     H54979  11.533  11.431   5.655 -0.2637 -0.0675  0.7963
  417MOL0     H54980  11.719  11.295   5.771  0.1192 -0.6001 -2.9445
  417MOL0     H54981  11.758  11.266   5.979  4.3678  2.1325 -2.4805
  417MOL0     H54982  11.886  11.173   5.903  0.4075  2.1328  0.7304
  417MOL0     H54983  11.868  10.973   6.031 -0.3332  0.1922  0.4196
  417MOL0     H54984  11.731  11.046   6.120  0.7188  0.5822  2.5662
  417MOL0     H54985  12.025  11.133   6.120 -1.1952 -0.9567 -3.2051
  417MOL0     H54986  11.970  11.021   6.247 -1.7525  0.7423  1.1918
  417MOL0     H54987  11.901  11.297   6.200  0.7373  1.1630  1.2571
  417MOL0     H54988  11.797  11.197   6.305 -0.1604  3.4536 -1.2622
  417MOL0     H54989  12.091  11.247   6.359 -0.7274  0.1795 -2.3462
  417MOL0     H54990  11.992  11.144   6.458  0.6278  0.4273  0.4027
  417MOL0     H54991  11.991  11.334   6.583 -0.4723 -0.3113  0.1735
  417MOL0     H54992  11.833  11.342   6.491 -1.0852  5.9369 -1.7198
  417MOL0     H54993  12.081  11.490   6.428  0.5009  1.1197  0.2134
  417MOL0     H54994  11.930  11.489   6.324  2.8757  2.0170 -0.8623
  417MOL0     H54995  11.924  11.588   6.606 -0.7102 -0.8931  0.3829
  417MOL0     H54996  11.791  11.572   6.496 -0.1363 -2.9327  0.5022
  417MOL0     H54997  11.839  11.775   6.264  2.0385  0.1919 -0.5950
  417MOL0     H54998  11.873  12.068   6.258  0.3838  2.2645 -2.0928
  417MOL0     H54999  11.978  11.990   6.157  2.5748 -1.3761  0.1941
  417MOL0     H55000  12.171  12.114   6.296  0.6972  2.3945  1.5438
  417MOL0     H55001  12.043  12.174   6.396  2.0782 -1.5614  2.5298
  417MOL0     H55002  12.113  12.345   6.253 -0.1313  0.9771 -0.0999
  417MOL0     H55003  12.136  12.256   6.121  0.0503 -1.0656  0.8459
  417MOL0     H55004  11.899  12.233   6.055 -2.2387 -0.3781  0.7796
  417MOL0     H55005  11.928  12.405   6.089 -1.4467  0.7478  0.0126
  417MOL0     H55006  11.719  12.339   5.986  1.2163 -2.2310  0.1459
  417MOL0     H55007  11.497  12.352   5.930  1.6153  1.9767 -0.8675
  417MOL0     H55008  11.097  12.400   6.438 -1.0017  1.5567 -0.1689
  417MOL0     H55009  10.867  12.407   6.493  2.4086  0.9926 -0.2057
  417MOL0     H55010  10.653  12.403   6.501 -1.0329  0.8707  0.7017
  417MOL0     H55011  10.600  12.235   6.463 -1.4308  1.2288  0.0948
  417MOL0     H55012  10.474  12.492   6.364 -2.1542  1.7216  2.4806
  417MOL0     H55013  10.418  12.418   6.508 -0.3844 -1.5454  1.6644
  417MOL0     H55014  10.444  12.191   6.319 -0.2373 -0.3857  0.6769
  417MOL0     H55015  10.382  12.312   6.218  0.6801 -3.2132 -1.2132
  417MOL0     H55016  10.188  12.331   6.340 -1.5154 -0.6326  0.6884
  417MOL0     H55017  10.233  12.161   6.304  1.5431 -1.2552  0.6005
  417MOL0     H55018  10.193  12.276   6.571 -0.0683  1.4777 -0.8217
  417MOL0     H55019  10.350  12.202   6.570 -1.4012 -3.2563  1.6697
  417MOL0     H55020  10.200  12.052   6.656  0.5472 -2.0354 -0.8102
  417MOL0     H55021  10.246  11.996   6.505 -1.0083 -1.6707  1.6559
  417MOL0     H55022  10.012  12.166   6.473  0.1497  0.1472 -1.7928
  417MOL0     H55023  10.053  12.005   6.412 -1.4948 -0.5398  0.6573
  417MOL0     H55024   9.852  12.024   6.576 -0.3598  0.1359  2.0116
  417MOL0     H55025   9.977  12.042   6.703 -4.5626 -0.3810  1.3891
  417MOL0     H55026  10.767  12.282   6.087  0.2196  2.2523 -1.0604
  417MOL0     H55027  11.001  12.222   6.054 -1.1098  3.0347 -1.2766
  417MOL0     H55028  11.406  12.329   6.361 -3.0899 -0.6843 -1.8282
  417MOL0     H55029  11.648  12.309   6.397 -1.4022  2.6279  0.3620
  417MOL0     H55030  11.420  11.048   5.938 -3.1968  1.0560  0.4893
  417MOL0     H55031  11.240  11.152   5.820  0.8460 -1.2959 -0.3397
  417MOL0     H55032  11.228  11.633   5.643  2.5630 -1.4060 -0.8568
  417MOL0     H55033  11.069  11.787   5.548  0.4335  1.3344  0.5613
  417MOL0     H55034  10.818  11.655   5.216  2.1427 -1.9991 -1.0857
  417MOL0     H55035  10.945  11.748   5.121  0.8979  0.6731  1.0927
  417MOL0     H55036  10.808  11.962   5.168  0.2218  0.1086 -0.4102
  417MOL0     H55037  10.738  11.847   5.064  2.4879 -0.8476 -1.2378
  417MOL0     H55038  10.678  11.945   5.339  0.9384 -2.8490  2.8008
  417MOL0     H55039  10.640  11.770   5.317  1.4278  0.3049  1.2111
  417MOL0     H55040  10.483  11.837   5.126 -1.0924 -1.5839  1.1214
  417MOL0     H55041  10.440  11.907   5.279 -0.9574 -2.2409 -1.2972
  417MOL0     H55042  10.583  12.252   5.058  0.4995  0.5720  0.8780
  417MOL0     H55043  11.010  11.536   5.208 -1.7506 -3.3471  1.4779
  417MOL0     H55044  11.134  11.374   5.303 -2.0298 -0.5705 -0.2054
  418MOL0     O55045   8.611   3.889   3.187 -0.0553  0.1017  0.1823
  418MOL0     C55046   8.701   3.973   3.167  0.8623  0.0526 -0.8970
  418MOL0     O55047   8.736   4.083   3.246  0.1464  0.0237 -0.3079
  418MOL0     C55048   8.671   4.102   3.372 -0.1604  0.2606 -0.0366
  418MOL0     C55049   8.635   3.994   3.453 -0.4513  0.0417 -0.5969
  418MOL0     C55050   8.576   4.026   3.578  1.7335 -0.7216  0.6339
  418MOL0     C55051   8.579   4.155   3.635  0.8701  0.7813  0.0773
  418MOL0     O55052   8.528   4.176   3.760 -0.4666 -0.0843  0.3801
  418MOL0     C55053   8.421   4.271   3.768 -0.1930 -0.3586 -0.2335
  418MOL0     C55054   8.300   4.228   3.854  0.2109  0.2861 -0.4714
  418MOL0     C55055   8.172   4.317   3.828 -1.1789  0.8113  0.2048
  418MOL0     C55056   8.059   4.278   3.929 -0.2169  0.3817 -0.0324
  418MOL0     C55057   8.117   4.290   4.066  0.8767 -1.1247  0.0165
  418MOL0     C55058   8.017   4.306   4.182  0.1889 -0.5099  0.7945
  418MOL0     C55059   8.089   4.322   4.318  0.9059  1.0376 -0.3472
  418MOL0     C55060   7.984   4.336   4.445 -0.7383 -0.3925 -0.5066
  418MOL0     N55061   7.909   4.212   4.470 -1.2975 -0.2702 -0.7032
  418MOL0     C55062   7.975   4.088   4.503 -0.3746  0.6719 -0.4606
  418MOL0     C55063   7.869   4.002   4.524  0.0498  0.5697 -0.2583
  418MOL0     C55064   7.869   3.850   4.551  0.6061 -0.4790  0.2715
  418MOL0     C55065   8.004   3.776   4.505  0.5191 -0.8070  0.1006
  418MOL0     C55066   8.045   3.790   4.360  0.1426 -0.0577  0.1007
  418MOL0     C55067   8.179   3.720   4.350 -0.0014  0.5245 -0.5516
  418MOL0     O55068   8.262   3.767   4.245  0.2333 -0.5023  0.2474
  418MOL0     C55069   8.316   3.887   4.237  0.4366 -0.8963 -0.9273
  418MOL0     C55070   8.380   3.921   4.116 -0.0635  0.1997  0.0876
  418MOL0     C55071   8.463   4.042   4.102 -0.4809 -0.1567 -1.0248
  418MOL0     C55072   8.489   4.114   4.222 -0.5490  0.4135 -0.0522
  418MOL0     C55073   8.589   4.220   4.213  0.9746  0.5336  0.1248
  418MOL0     O55074   8.640   4.256   4.099 -0.0620  0.0622  0.4782
  418MOL0     C55075   8.751   4.335   4.085  0.0187  0.0458  0.0903
  418MOL0     C55076   8.845   4.355   4.180  0.4018  0.3011 -0.3065
  418MOL0     C55077   8.959   4.421   4.155  0.0813 -0.2081  1.1110
  418MOL0     C55078   8.979   4.486   4.026 -0.2663  0.2220  0.2057
  418MOL0     O55079   9.100   4.547   4.007 -0.3615  0.1237  0.5956
  418MOL0     C55080   9.142   4.547   3.872 -0.4558 -0.3924  0.6613
  418MOL0     C55081   9.143   4.692   3.806 -0.2207 -0.0671  0.2856
  418MOL0     C55082   9.163   4.676   3.655 -0.2178 -0.4901  0.6740
  418MOL0     C55083   9.217   4.810   3.599 -0.2542 -1.0110 -0.6334
  418MOL0     C55084   9.223   4.809   3.448 -0.2610  0.1483 -0.1230
  418MOL0     C55085   9.291   4.945   3.403 -0.3714 -0.3803  0.1847
  418MOL0     C55086   9.248   4.970   3.260  0.6086 -0.5402  0.0190
  418MOL0     C55087   9.218   5.118   3.218  0.7646  0.5834  0.0518
  418MOL0    Cl55088   9.058   5.185   3.267 -0.4533  0.2615  0.1200
  418MOL0     C55089   8.875   4.475   3.930 -0.0004  0.3055  0.2566
  418MOL0     C55090   8.760   4.398   3.964  0.2889 -0.0430 -0.8900
  418MOL0     O55091   8.606   4.273   4.324 -0.6285  0.7279 -0.6039
  418MOL0     C55092   8.405   4.083   4.340 -0.9160  0.8122 -0.3188
  418MOL0     C55093   8.317   3.969   4.347  0.2948 -0.2293  0.1038
  418MOL0     N55094   7.745   4.067   4.512 -0.0805 -0.0505  0.4829
  418MOL0     N55095   7.773   4.192   4.473 -0.5914  0.4742  0.7484
  418MOL0     C55096   8.612   4.270   3.551  0.4460  0.1084  0.0761
  418MOL0     C55097   8.678   4.231   3.431  0.6549  0.5624  0.8206
  418MOL0     C55098   8.782   3.965   3.046  0.1860  0.0501  0.6384
  418MOL0     C55099   8.776   3.851   2.964  0.1311 -0.0774  1.1206
  418MOL0     C55100   8.868   3.830   2.853 -1.1418 -0.5860 -0.5296
  418MOL0     C55101   8.967   3.927   2.811  0.7511 -0.0364  0.4046
  418MOL0     O55102   9.050   3.889   2.709 -0.0773 -0.1307 -0.0373
  418MOL0     C55103   9.133   3.991   2.648 -1.0829  0.1771 -0.1869
  418MOL0     C55104   9.210   3.945   2.512  0.1487 -0.3583 -0.6015
  418MOL0     C55105   9.121   3.947   2.387  0.8397  0.1935 -1.1231
  418MOL0     C55106   9.164   3.868   2.266 -0.5118 -0.6818 -0.5159
  418MOL0     C55107   9.286   3.921   2.227  0.4199 -0.4460 -0.7192
  418MOL0     C55108   9.392   3.969   2.191  0.6844  0.0336 -0.0781
  418MOL0     C55109   8.974   4.052   2.886 -0.4193 -0.2558 -0.3419
  418MOL0     C55110   8.879   4.067   2.997 -0.5131 -0.1473 -1.0230
  418MOL0     H55111   8.646   3.890   3.423 -0.7529 -0.5938  1.3609
  418MOL0     H55112   8.553   3.935   3.632  1.6865 -1.3098 -0.3581
  418MOL0     H55113   8.386   4.298   3.668 -3.9897 -1.1341  0.7228
  418MOL0     H55114   8.464   4.363   3.809 -0.5806 -0.9301  1.5520
  418MOL0     H55115   8.337   4.239   3.957  3.3498 -2.2151 -1.1904
  418MOL0     H55116   8.279   4.121   3.848  0.7039 -0.1494  3.2285
  418MOL0     H55117   8.128   4.309   3.728 -0.9566  0.8572  0.1028
  418MOL0     H55118   8.199   4.423   3.837 -2.2066  0.9657  2.0491
  418MOL0     H55119   7.975   4.346   3.912  0.7882  1.7312  0.2092
  418MOL0     H55120   8.038   4.172   3.916  2.1760  0.0003 -1.3310
  418MOL0     H55121   8.184   4.377   4.066 -0.1552 -0.2763 -1.8912
  418MOL0     H55122   8.181   4.204   4.091  1.6524 -0.2849  1.0461
  418MOL0     H55123   7.949   4.220   4.174 -0.1348 -0.1254 -1.0491
  418MOL0     H55124   7.958   4.397   4.170  0.3990 -0.4935 -0.2476
  418MOL0     H55125   8.144   4.230   4.339  0.8438  1.2196  0.6174
  418MOL0     H55126   8.161   4.404   4.320  1.1336  0.8540  2.7243
  418MOL0     H55127   7.926   4.424   4.417  1.4878  1.4039  0.2610
  418MOL0     H55128   8.049   4.357   4.531 -1.8177 -0.5089  0.3646
  418MOL0     H55129   8.080   4.066   4.518 -1.4982 -3.6381  3.0597
  418MOL0     H55130   7.785   3.809   4.494  1.6710  1.4231 -2.9141
  418MOL0     H55131   7.844   3.848   4.658 -3.0363  0.7768 -0.4073
  418MOL0     H55132   7.997   3.671   4.533 -0.3156 -0.8897 -0.3976
  418MOL0     H55133   8.094   3.808   4.559  4.5051 -3.3339 -4.2959
  418MOL0     H55134   7.972   3.730   4.305  3.3296 -1.4431 -2.9269
  418MOL0     H55135   8.028   3.889   4.316  1.6964 -1.0298 -2.9226
  418MOL0     H55136   8.162   3.616   4.321  0.9468  1.4754 -5.2341
  418MOL0     H55137   8.236   3.725   4.443 -1.6454  0.3564  0.5082
  418MOL0     H55138   8.377   3.871   4.020 -1.8509  1.8797 -0.8050
  418MOL0     H55139   8.504   4.060   4.003 -1.6370 -1.9111 -1.8821
  418MOL0     H55140   8.832   4.323   4.283  2.5378  1.4066  0.3839
  418MOL0     H55141   9.042   4.428   4.224 -0.4617  1.5476  1.6234
  418MOL0     H55142   9.093   4.476   3.805 -1.5411  0.3759  0.6033
  418MOL0     H55143   9.249   4.527   3.869 -0.3484 -0.3441  2.5283
  418MOL0     H55144   9.223   4.746   3.857  0.9998 -0.6468 -0.9563
  418MOL0     H55145   9.049   4.747   3.822 -0.5983  0.1489 -2.3318
  418MOL0     H55146   9.063   4.651   3.620  0.2314 -1.5404  0.1197
  418MOL0     H55147   9.230   4.594   3.628  0.6046 -0.4268  2.4230
  418MOL0     H55148   9.147   4.890   3.625 -1.5661 -1.8893 -1.3587
  418MOL0     H55149   9.312   4.824   3.651 -0.2739 -2.7257 -0.0773
  418MOL0     H55150   9.125   4.795   3.403 -2.1069  3.1510  2.5122
  418MOL0     H55151   9.278   4.720   3.415  0.0040 -0.0500  0.8285
  418MOL0     H55152   9.397   4.931   3.424 -0.4662 -0.9913  0.2881
  418MOL0     H55153   9.237   5.029   3.447 -4.4650 -0.7098 -3.4983
  418MOL0     H55154   9.329   4.934   3.195  0.9310  3.3443 -2.1052
  418MOL0     H55155   9.154   4.921   3.236  0.3954  1.1877 -3.3255
  418MOL0     H55156   9.215   5.115   3.109  4.1896 -0.7741 -0.1199
  418MOL0     H55157   9.296   5.187   3.252  1.6986  0.1478 -1.1385
  418MOL0     H55158   8.901   4.502   3.829  0.8522 -3.0654 -0.5361
  418MOL0     H55159   8.686   4.378   3.888  0.0770  0.3120 -0.7818
  418MOL0     H55160   8.415   4.133   4.435 -0.7364 -2.1703  1.3378
  418MOL0     H55161   8.262   3.938   4.435  0.2115 -1.3483 -0.3213
  418MOL0     H55162   8.613   4.374   3.582  1.4944  0.1921 -0.2125
  418MOL0     H55163   8.721   4.305   3.364  1.3361  1.9858  2.7553
  418MOL0     H55164   8.696   3.780   2.984  0.8719 -1.1834  0.3329
  418MOL0     H55165   8.856   3.744   2.789  2.8827 -2.1564  0.4708
  418MOL0     H55166   9.206   4.029   2.720 -2.5796  0.5395  1.1831
  418MOL0     H55167   9.070   4.077   2.626  1.2744  2.0548 -0.0827
  418MOL0     H55168   9.292   4.011   2.482 -0.6562  0.2480 -1.5680
  418MOL0     H55169   9.244   3.842   2.521  1.2048  0.0766  0.5522
  418MOL0     H55170   9.108   4.051   2.357 -2.3543  0.7163  1.4164
  418MOL0     H55171   9.023   3.910   2.419  1.9254 -2.3034 -0.4907
  418MOL0     H55172   9.167   3.761   2.288  0.1816 -0.5265  0.1905
  418MOL0     H55173   9.099   3.877   2.178 -1.9030 -1.6616  0.3735
  418MOL0     H55174   9.486   3.981   2.142 -0.9016 -3.3413 -4.7667
  418MOL0     H55175   9.050   4.123   2.855  1.9225 -2.4141  0.2065
  418MOL0     H55176   8.890   4.160   3.053  0.1953 -0.0150 -1.3812
  419MOL0     O55177   2.862   7.735   5.374  0.2243  0.1487 -0.1267
  419MOL0     C55178   2.808   7.844   5.349  0.6177  0.2670  0.6464
  419MOL0     O55179   2.879   7.951   5.287  0.5582 -0.2983 -0.4633
  419MOL0     C55180   3.015   7.957   5.282  0.1902  0.2754 -0.3972
  419MOL0     C55181   3.073   7.963   5.158 -1.0130  0.4835 -0.0277
  419MOL0     C55182   3.209   7.962   5.145  0.1397  1.2294 -0.2100
  419MOL0     C55183   3.298   7.961   5.252  0.5115 -0.1814 -0.2358
  419MOL0     O55184   3.431   7.956   5.244 -0.0617  0.1450 -0.0686
  419MOL0     C55185   3.503   7.924   5.117  0.0757 -0.8668  0.0427
  419MOL0     C55186   3.482   7.781   5.082 -0.1107  0.6464  0.2389
  419MOL0     C55187   3.595   7.744   4.977 -0.4580  0.1080  0.1783
  419MOL0     C55188   3.615   7.595   4.945  0.4381 -0.4479 -0.2103
  419MOL0     C55189   3.757   7.545   4.968 -0.6600 -0.4477  0.5229
  419MOL0     C55190   3.847   7.590   4.854 -0.3149 -0.4033  0.6000
  419MOL0     C55191   3.990   7.521   4.856 -0.7693  0.0389 -0.3151
  419MOL0     C55192   4.076   7.573   4.740  0.7631 -0.1999 -0.6103
  419MOL0     N55193   4.058   7.487   4.620  0.9496 -0.0830 -0.5210
  419MOL0     C55194   4.123   7.380   4.570  1.0071  0.7155  0.1816
  419MOL0     C55195   4.033   7.327   4.472  1.0192  0.0709  0.0282
  419MOL0     C55196   4.066   7.208   4.381  0.3487 -0.1043 -0.1307
  419MOL0     C55197   4.126   7.094   4.462 -0.6108  0.5994 -0.0400
  419MOL0     C55198   4.145   6.973   4.364 -0.4191  0.0117 -0.7009
  419MOL0     C55199   4.265   6.884   4.409  0.0516  0.6140 -0.0611
  419MOL0     O55200   4.387   6.962   4.393  0.1710 -0.3314  0.1396
  419MOL0     C55201   4.487   6.934   4.311  0.1783  0.1424  0.7152
  419MOL0     C55202   4.597   7.020   4.321 -0.0423 -0.6479  0.2507
  419MOL0     C55203   4.717   6.980   4.254  0.2881  0.0241 -1.3553
  419MOL0     C55204   4.722   6.866   4.175 -0.1620 -1.7749 -1.2028
  419MOL0     C55205   4.840   6.821   4.097  1.1508  0.0135  0.0176
  419MOL0     O55206   4.829   6.715   4.015  0.0567 -0.0471  0.0533
  419MOL0     C55207   4.942   6.650   3.959 -0.2392 -0.5853 -0.6741
  419MOL0     C55208   5.034   6.579   4.034 -1.0695 -0.6633  1.4760
  419MOL0     C55209   5.156   6.536   3.979  0.5101  0.5037  0.4032
  419MOL0     C55210   5.177   6.547   3.835 -0.0224 -0.4460 -0.2098
  419MOL0     O55211   5.279   6.488   3.761  0.2648 -0.4251  0.1343
  419MOL0     C55212   5.396   6.436   3.814 -0.0394 -0.4351 -0.8327
  419MOL0     C55213   5.498   6.467   3.704 -0.2221  0.3609  0.1882
  419MOL0     C55214   5.648   6.458   3.740  0.6797 -0.1129  0.7592
  419MOL0     C55215   5.725   6.467   3.610  0.2042  0.0439  0.8475
  419MOL0     C55216   5.873   6.433   3.615 -0.0373 -0.1816  0.2825
  419MOL0     C55217   5.960   6.439   3.479  0.5167  0.5681 -0.0046
  419MOL0     C55218   5.987   6.571   3.429  0.3016 -0.9699  0.1691
  419MOL0     C55219   6.031   6.581   3.283 -0.2337  0.1501 -0.3119
  419MOL0    Cl55220   6.177   6.480   3.227 -0.1215 -0.3862 -0.0488
  419MOL0     C55221   5.074   6.603   3.764  0.6490 -0.4591 -0.0388
  419MOL0     C55222   4.962   6.660   3.824 -1.3656 -0.2337 -0.6147
  419MOL0     O55223   4.940   6.882   4.117  0.2437  0.2824  0.2039
  419MOL0     C55224   4.607   6.788   4.161  1.1995 -0.0694  1.1094
  419MOL0     C55225   4.495   6.820   4.233 -1.1058  0.1585  0.8716
  419MOL0     N55226   3.919   7.410   4.474 -0.5369  0.4685 -0.7435
  419MOL0     N55227   3.940   7.502   4.560 -0.3016  1.6337  0.1577
  419MOL0     C55228   3.247   7.958   5.381  0.8648 -0.2040  0.3378
  419MOL0     C55229   3.106   7.958   5.397  0.6336  0.7088 -0.1070
  419MOL0     C55230   2.666   7.859   5.391 -0.1663 -0.7293 -1.1771
  419MOL0     C55231   2.605   7.988   5.371  0.2144  0.3113  1.3209
  419MOL0     C55232   2.470   7.998   5.399  0.5102 -0.1801 -0.2038
  419MOL0     C55233   2.387   7.903   5.451 -0.1280  0.0106  0.8159
  419MOL0     O55234   2.265   7.929   5.494  0.7899  0.6317 -0.4148
  419MOL0     C55235   2.160   7.837   5.451 -0.6505 -0.0576 -0.0658
  419MOL0     C55236   2.104   7.767   5.574 -0.4837 -0.1049 -0.2020
  419MOL0     C55237   1.969   7.699   5.536 -0.5105  0.6291 -0.8785
  419MOL0     C55238   1.886   7.639   5.655  0.0566  0.4617  0.3005
  419MOL0     C55239   1.797   7.750   5.716 -0.0671 -0.2909  1.0188
  419MOL0     C55240   1.734   7.849   5.764 -0.3896 -0.0373 -0.1239
  419MOL0     C55241   2.451   7.781   5.479  0.2181  0.1713 -0.0841
  419MOL0     C55242   2.589   7.757   5.451 -0.0340  0.0508  0.4072
  419MOL0     H55243   3.023   7.975   5.062 -0.9823  1.9654  0.1202
  419MOL0     H55244   3.251   7.954   5.046  1.1924 -1.4886  0.3616
  419MOL0     H55245   3.606   7.946   5.145 -0.7205  0.6816  1.9927
  419MOL0     H55246   3.490   7.993   5.033 -1.0997  0.0952  0.9737
  419MOL0     H55247   3.388   7.749   5.034 -0.9634  3.1433  0.1005
  419MOL0     H55248   3.484   7.713   5.167 -1.3992  1.2825  0.8076
  419MOL0     H55249   3.693   7.773   5.017  1.4370 -1.0446 -3.2041
  419MOL0     H55250   3.578   7.789   4.879  1.7862 -0.2080 -0.4131
  419MOL0     H55251   3.544   7.534   5.002 -1.7513  0.3869 -1.8859
  419MOL0     H55252   3.583   7.577   4.842  3.0444 -0.6790 -1.0411
  419MOL0     H55253   3.759   7.436   4.956  3.2653 -0.4798  0.4461
  419MOL0     H55254   3.811   7.576   5.058  2.7444  1.8250 -2.1051
  419MOL0     H55255   3.871   7.696   4.868 -0.0165 -0.1268 -1.6182
  419MOL0     H55256   3.803   7.581   4.754  1.7810  2.7734 -0.7723
  419MOL0     H55257   4.036   7.540   4.953 -0.7635 -0.3749 -0.2333
  419MOL0     H55258   3.994   7.414   4.831  2.5581  1.0002 -5.1027
  419MOL0     H55259   4.184   7.584   4.751  0.5817  2.1378 -0.7952
  419MOL0     H55260   4.021   7.665   4.720  0.8372 -0.0474 -0.1198
  419MOL0     H55261   4.224   7.343   4.583  1.0683 -0.6532 -3.1587
  419MOL0     H55262   4.133   7.250   4.307 -0.4408  1.4729  0.0028
  419MOL0     H55263   3.979   7.175   4.324  0.6455 -2.6883  0.7706
  419MOL0     H55264   4.068   7.052   4.545  0.3005 -0.8612 -0.1037
  419MOL0     H55265   4.223   7.110   4.511 -0.2780 -0.9654 -0.1362
  419MOL0     H55266   4.057   6.909   4.377 -0.6167  0.7203  1.7424
  419MOL0     H55267   4.161   7.017   4.265 -1.2792  3.3981  0.5352
  419MOL0     H55268   4.253   6.801   4.339  2.3450  0.5129 -0.4237
  419MOL0     H55269   4.254   6.847   4.511  1.9785  0.0653 -0.0116
  419MOL0     H55270   4.609   7.102   4.391  1.5625 -2.2882  2.0155
  419MOL0     H55271   4.801   7.049   4.259  0.2964 -0.0725  0.7469
  419MOL0     H55272   5.008   6.568   4.139 -2.1331  0.0856  1.3091
  419MOL0     H55273   5.223   6.488   4.050  0.4992 -1.9872 -1.1217
  419MOL0     H55274   5.392   6.332   3.849  1.1483  0.5142  2.5019
  419MOL0     H55275   5.405   6.504   3.899 -0.4625  0.6331 -1.6152
  419MOL0     H55276   5.481   6.568   3.666 -0.0130  0.8702  1.4133
  419MOL0     H55277   5.482   6.394   3.624 -1.0592  0.0732  0.6059
  419MOL0     H55278   5.676   6.361   3.783  0.8698 -0.3410  0.1420
  419MOL0     H55279   5.675   6.532   3.815 -2.4027  0.8628  1.0555
  419MOL0     H55280   5.680   6.386   3.551 -0.1025  0.6051  0.3042
  419MOL0     H55281   5.707   6.557   3.552 -0.6995 -0.2477  0.6675
  419MOL0     H55282   5.875   6.342   3.676 -0.6034  0.7637  1.7924
  419MOL0     H55283   5.915   6.506   3.685 -2.3110  0.7874  0.7392
  419MOL0     H55284   5.908   6.376   3.406  2.2038  0.6215 -1.3144
  419MOL0     H55285   6.053   6.389   3.507  2.5676  0.7201 -5.4107
  419MOL0     H55286   5.900   6.635   3.440  1.9422  1.5446 -0.6211
  419MOL0     H55287   6.066   6.608   3.494  0.9307 -2.5055  0.3379
  419MOL0     H55288   6.060   6.687   3.281 -0.7418  0.2966 -0.0330
  419MOL0     H55289   5.948   6.558   3.216 -0.8728  0.8488  0.2327
  419MOL0     H55290   5.084   6.597   3.656 -0.3494  3.5635 -0.5323
  419MOL0     H55291   4.875   6.709   3.782 -1.8936 -0.2696  0.3941
  419MOL0     H55292   4.604   6.707   4.090  1.8699  1.0455 -0.2441
  419MOL0     H55293   4.417   6.748   4.214  0.7370 -2.3132  2.1736
  419MOL0     H55294   3.320   7.931   5.456  1.8943  1.0646 -0.1578
  419MOL0     H55295   3.065   7.945   5.497  0.8287 -2.6468 -0.3511
  419MOL0     H55296   2.658   8.072   5.327 -1.3396 -0.4948 -2.5818
  419MOL0     H55297   2.419   8.093   5.388  0.2677 -0.2749  0.0611
  419MOL0     H55298   2.204   7.768   5.379  3.3430  0.4325  1.6301
  419MOL0     H55299   2.090   7.896   5.391 -0.3263  0.6634  0.2455
  419MOL0     H55300   2.172   7.692   5.613  1.8324  0.6160 -2.5918
  419MOL0     H55301   2.087   7.851   5.642  1.7491  0.7400 -0.6091
  419MOL0     H55302   1.989   7.610   5.475 -0.3555 -0.4242  0.6294
  419MOL0     H55303   1.902   7.773   5.493 -0.9362  2.1799  2.1586
  419MOL0     H55304   1.813   7.578   5.601  1.5236 -1.2685  0.1863
  419MOL0     H55305   1.929   7.572   5.730 -4.0010  0.2631  2.7775
  419MOL0     H55306   1.682   7.929   5.810  1.2045 -0.0495  1.8272
  419MOL0     H55307   2.391   7.700   5.518 -0.4111  2.1398  3.4530
  419MOL0     H55308   2.627   7.659   5.477 -1.8289 -1.4623 -2.1714
  420MOL0     O55309   9.279   8.380   4.013  0.5460  0.1777  1.0449
  420MOL0     C55310   9.157   8.372   4.038 -0.5072  0.2872  0.3844
  420MOL0     O55311   9.057   8.461   4.003  0.2891  0.1070  0.0795
  420MOL0     C55312   9.086   8.582   3.946  0.5242  0.3068 -0.8393
  420MOL0     C55313   9.006   8.618   3.839 -0.6760 -0.8370  0.4909
  420MOL0     C55314   9.051   8.736   3.771  0.2625  0.7734 -0.4497
  420MOL0     C55315   9.146   8.821   3.821  0.8429  0.0780 -0.3773
  420MOL0     O55316   9.158   8.938   3.746  0.7975 -0.0169 -1.0757
  420MOL0     C55317   9.188   9.054   3.826  0.0153  0.7584  0.0039
  420MOL0     C55318   9.241   9.155   3.728 -1.0286  0.1511  0.7233
  420MOL0     C55319   9.362   9.106   3.643  0.5851 -0.4348 -0.0127
  420MOL0     C55320   9.404   9.207   3.539 -0.4588  0.5688 -0.5714
  420MOL0     C55321   9.550   9.204   3.508 -0.0891 -0.9554  0.8581
  420MOL0     C55322   9.577   9.328   3.423  0.1079 -0.0704  0.8078
  420MOL0     C55323   9.722   9.355   3.391  0.0717 -0.2213 -0.0302
  420MOL0     C55324   9.734   9.475   3.295 -0.8181  0.9251 -0.6245
  420MOL0     N55325   9.873   9.499   3.266 -0.2312 -0.6820 -0.5279
  420MOL0     C55326   9.939   9.589   3.343 -0.5550 -0.2492  0.7197
  420MOL0     C55327  10.074   9.585   3.307  0.2150  1.0311 -0.0554
  420MOL0     C55328  10.186   9.660   3.364  0.0512  0.4162  0.3225
  420MOL0     C55329  10.282   9.705   3.240 -0.1169  0.1202  0.2399
  420MOL0     C55330  10.404   9.777   3.291  0.9935 -0.5929  0.1037
  420MOL0     C55331  10.497   9.682   3.371 -0.2977  0.6732  0.7669
  420MOL0     O55332  10.624   9.742   3.388 -0.0415 -0.3914  0.4112
  420MOL0     C55333  10.722   9.721   3.293  0.5261 -0.5465 -0.7232
  420MOL0     C55334  10.690   9.667   3.167  0.0937  1.0212 -0.4962
  420MOL0     C55335  10.791   9.654   3.069  0.4270  0.6343 -0.4706
  420MOL0     C55336  10.924   9.702   3.086 -0.1429 -0.0799 -1.0408
  420MOL0     C55337  11.021   9.701   2.987  0.8103 -0.7868  0.2102
  420MOL0     O55338  11.150   9.708   3.040 -0.2369 -0.1778  0.5270
  420MOL0     C55339  11.262   9.731   2.962  0.2001  0.1538 -0.0519
  420MOL0     C55340  11.388   9.686   3.014  0.0962  0.1841  0.4120
  420MOL0     C55341  11.504   9.694   2.940  0.7361  0.9695  0.0079
  420MOL0     C55342  11.507   9.740   2.808 -0.3837 -0.0990  0.1184
  420MOL0     O55343  11.627   9.729   2.745 -0.0943  0.5297 -0.1325
  420MOL0     C55344  11.637   9.767   2.599 -0.4515 -0.2490 -0.0619
  420MOL0     C55345  11.768   9.718   2.539 -0.3546 -0.5960  1.3128
  420MOL0     C55346  11.887   9.745   2.632 -0.7601 -0.1635 -0.4357
  420MOL0     C55347  12.011   9.764   2.546  0.1476  1.1860  1.0455
  420MOL0     C55348  12.132   9.730   2.627 -0.0105 -1.0793  0.3763
  420MOL0     C55349  12.258   9.744   2.544  0.3764 -0.1911  0.4195
  420MOL0     C55350  12.384   9.723   2.622 -0.3295 -0.3409 -0.0790
  420MOL0     C55351  12.510   9.729   2.533 -0.3863  0.5674  0.4290
  420MOL0    Cl55352  12.528   9.876   2.439 -0.1443  0.2747  0.0337
  420MOL0     C55353  11.391   9.803   2.754  0.4660  0.8036 -0.4079
  420MOL0     C55354  11.274   9.799   2.835  0.4149 -0.3697  0.6356
  420MOL0     O55355  10.979   9.705   2.871  0.0817 -0.4222 -0.1606
  420MOL0     C55356  10.944   9.769   3.213 -0.6561  0.2286  0.4305
  420MOL0     C55357  10.854   9.767   3.321 -1.3429  0.0403 -0.3178
  420MOL0     N55358  10.086   9.476   3.215 -0.5937 -0.3991  0.1741
  420MOL0     N55359   9.961   9.430   3.198  0.1161  0.3779 -0.1194
  420MOL0     C55360   9.200   8.790   3.954  0.0968 -0.3798 -0.0904
  420MOL0     C55361   9.177   8.665   4.010 -0.0387 -0.9530  1.3961
  420MOL0     C55362   9.109   8.240   4.084 -0.6098 -0.3032  0.2346
  420MOL0     C55363   9.197   8.163   4.165 -0.6104  0.2920 -0.2065
  420MOL0     C55364   9.155   8.036   4.200  0.1545 -0.8132 -0.9386
  420MOL0     C55365   9.039   7.985   4.168  0.8678  0.9700  0.9255
  420MOL0     O55366   8.986   7.871   4.220  0.0078 -0.8128 -0.7653
  420MOL0     C55367   9.083   7.777   4.272  0.3921 -0.2626  0.0733
  420MOL0     C55368   9.039   7.647   4.204  0.5234 -0.4520 -0.7289
  420MOL0     C55369   9.080   7.641   4.063  0.3743  1.0798 -0.1855
  420MOL0     C55370   9.072   7.504   3.990  0.7668 -0.5749  1.2683
  420MOL0     C55371   9.087   7.524   3.841 -0.4379 -0.2521 -0.7939
  420MOL0     C55372   9.130   7.533   3.725  1.0362  0.0275  0.5157
  420MOL0     C55373   8.952   8.061   4.084 -0.9812  1.4402  0.4081
  420MOL0     C55374   8.989   8.189   4.050  0.3339  0.0922  0.9260
  420MOL0     H55375   8.945   8.539   3.796 -0.8468 -0.4241 -0.0405
  420MOL0     H55376   9.003   8.745   3.674 -2.1007  2.9065  0.8126
  420MOL0     H55377   9.268   9.036   3.898  0.3220  0.6413 -0.3606
  420MOL0     H55378   9.102   9.098   3.878  1.8772  2.0201  2.1932
  420MOL0     H55379   9.270   9.248   3.779 -1.9048  1.2817 -0.7675
  420MOL0     H55380   9.163   9.177   3.655  0.9568 -0.1752 -1.6365
  420MOL0     H55381   9.332   9.011   3.598 -2.3559 -1.4242  3.5967
  420MOL0     H55382   9.440   9.087   3.717 -0.4342 -1.6535  0.8016
  420MOL0     H55383   9.334   9.190   3.457 -1.1231 -0.0414  0.1056
  420MOL0     H55384   9.378   9.308   3.571 -1.1873 -0.0742  0.9198
  420MOL0     H55385   9.576   9.108   3.462 -2.0566 -0.7572 -0.7948
  420MOL0     H55386   9.605   9.214   3.602 -1.0506  1.2707  1.2302
  420MOL0     H55387   9.556   9.421   3.477  1.9583 -1.0663  3.4404
  420MOL0     H55388   9.518   9.317   3.332  1.2074 -1.0971  0.1910
  420MOL0     H55389   9.772   9.379   3.486 -0.9505  0.9310  0.2418
  420MOL0     H55390   9.775   9.275   3.337  1.1653  0.7937 -0.5119
  420MOL0     H55391   9.699   9.568   3.340 -1.8994 -0.2739  1.1032
  420MOL0     H55392   9.690   9.452   3.197 -0.2171  0.0430 -0.7040
  420MOL0     H55393   9.893   9.662   3.410 -0.4349  0.4421  0.0620
  420MOL0     H55394  10.237   9.598   3.439 -1.6902 -2.9569 -1.0953
  420MOL0     H55395  10.167   9.754   3.418  1.2594  0.9706 -0.1824
  420MOL0     H55396  10.218   9.770   3.179  3.5953  2.4166 -1.5815
  420MOL0     H55397  10.311   9.631   3.165 -2.4653 -2.3841  1.6379
  420MOL0     H55398  10.472   9.826   3.220  2.0493 -1.1809  0.6713
  420MOL0     H55399  10.363   9.858   3.352 -0.3517 -1.4207  0.3391
  420MOL0     H55400  10.507   9.582   3.328  0.4509  0.3972  1.5730
  420MOL0     H55401  10.452   9.666   3.469 -2.4653 -0.7723 -0.3773
  420MOL0     H55402  10.592   9.632   3.137  0.4179 -1.2169  0.8065
  420MOL0     H55403  10.760   9.613   2.974  0.3777 -2.3713  0.7544
  420MOL0     H55404  11.380   9.635   3.109 -0.9611  0.7000  0.6073
  420MOL0     H55405  11.591   9.650   2.989  0.2019 -0.7595 -0.5032
  420MOL0     H55406  11.638   9.876   2.593 -0.1229 -0.0838  2.1474
  420MOL0     H55407  11.553   9.732   2.537  0.1493  0.9580 -1.6248
  420MOL0     H55408  11.779   9.763   2.440  1.5974 -1.3268  1.1429
  420MOL0     H55409  11.769   9.610   2.528  0.9496 -0.4819 -0.1195
  420MOL0     H55410  11.900   9.665   2.705 -0.9205  0.0615 -0.1615
  420MOL0     H55411  11.882   9.836   2.691 -1.7010 -1.0153  0.8563
  420MOL0     H55412  12.012   9.696   2.460 -2.6587 -0.9659  2.5406
  420MOL0     H55413  12.000   9.870   2.524 -2.5632  1.0056  1.2650
  420MOL0     H55414  12.105   9.629   2.659 -1.8918 -0.3217  1.3148
  420MOL0     H55415  12.160   9.789   2.715  0.1088  1.3373 -1.1866
  420MOL0     H55416  12.268   9.843   2.498 -1.6186 -1.0940 -2.1873
  420MOL0     H55417  12.246   9.662   2.472  1.8054  1.0822 -1.3801
  420MOL0     H55418  12.389   9.805   2.695 -0.1956 -1.1924  0.8912
  420MOL0     H55419  12.369   9.629   2.676 -1.4760  0.9344  1.9532
  420MOL0     H55420  12.516   9.635   2.478 -0.7580 -1.6360  3.8395
  420MOL0     H55421  12.598   9.726   2.598 -0.1904  2.6247  0.3336
  420MOL0     H55422  11.383   9.855   2.659  0.6934  0.9501 -0.3491
  420MOL0     H55423  11.192   9.845   2.781  2.5561 -0.5021 -3.0792
  420MOL0     H55424  11.036   9.827   3.218 -1.4272  2.1405 -3.4161
  420MOL0     H55425  10.871   9.823   3.412 -3.2062 -0.4501  0.3915
  420MOL0     H55426   9.281   8.858   3.982 -0.9921  1.0280 -0.2530
  420MOL0     H55427   9.224   8.621   4.098 -0.8660 -1.4388  1.6003
  420MOL0     H55428   9.299   8.183   4.195  0.4750 -2.7174 -1.4167
  420MOL0     H55429   9.224   7.999   4.275  0.4834 -1.3099 -1.4686
  420MOL0     H55430   9.085   7.764   4.381  3.3438  0.5108  0.1997
  420MOL0     H55431   9.191   7.791   4.264  0.4789  0.5839  1.9567
  420MOL0     H55432   9.081   7.556   4.249  3.1975  0.8977 -0.3269
  420MOL0     H55433   8.929   7.644   4.199  0.4019 -1.7756  1.3439
  420MOL0     H55434   9.180   7.681   4.045  2.2333 -3.3152 -0.9209
  420MOL0     H55435   9.016   7.719   4.019 -0.6992  2.7937  3.8928
  420MOL0     H55436   9.160   7.443   4.015  0.4323 -0.6427  2.3087
  420MOL0     H55437   8.979   7.456   4.022 -0.0462  0.3813  0.4133
  420MOL0     H55438   9.180   7.536   3.630  0.2140 -0.6032  0.0471
  420MOL0     H55439   8.855   8.017   4.060 -0.2403  1.4351 -3.2067
  420MOL0     H55440   8.913   8.243   3.994 -0.0708  1.2842  2.5430
  421MOL0     O55441   7.481   6.859   5.921 -0.0362 -0.0471 -0.7414
  421MOL0     C55442   7.357   6.837   5.922 -0.2401 -0.1898 -0.0343
  421MOL0     O55443   7.266   6.936   5.932 -0.3025 -0.0844  0.5265
  421MOL0     C55444   7.287   7.069   5.957  0.3594 -0.0504 -0.5714
  421MOL0     C55445   7.407   7.140   5.986  0.0466 -1.6630 -0.1490
  421MOL0     C55446   7.411   7.274   6.016 -0.0863  0.3568  0.6828
  421MOL0     C55447   7.286   7.335   6.020 -0.4627 -0.3860 -0.4632
  421MOL0     O55448   7.291   7.469   6.061  1.2143  0.3704 -0.6134
  421MOL0     C55449   7.176   7.560   6.047 -0.3309  0.4011  0.7559
  421MOL0     C55450   7.235   7.711   6.040  0.1516  0.0038 -0.0077
  421MOL0     C55451   7.141   7.808   5.984 -0.4470 -0.0018  0.1789
  421MOL0     C55452   6.993   7.811   6.028 -0.0967  0.5495 -0.9757
  421MOL0     C55453   6.907   7.921   5.962  0.3734  0.1840 -0.4561
  421MOL0     C55454   6.899   7.898   5.807  0.0674 -0.4804  0.7870
  421MOL0     C55455   6.838   8.034   5.758  0.2317 -0.2248  1.2338
  421MOL0     C55456   6.786   8.041   5.616  0.2505 -0.1322 -0.7738
  421MOL0     N55457   6.685   7.934   5.588 -0.0017 -0.2728  0.2105
  421MOL0     C55458   6.692   7.857   5.468 -1.0599 -0.8829 -0.7251
  421MOL0     C55459   6.573   7.792   5.474 -0.0302  0.8908 -0.5769
  421MOL0     C55460   6.516   7.699   5.361 -0.4163 -0.0473  0.4407
  421MOL0     C55461   6.446   7.577   5.418 -0.8718 -0.4643 -0.8031
  421MOL0     C55462   6.539   7.474   5.469 -0.2753  0.7602 -0.0652
  421MOL0     C55463   6.463   7.352   5.523  0.5289 -0.0453  0.3843
  421MOL0     O55464   6.387   7.281   5.414 -0.8722 -0.6125 -0.1310
  421MOL0     C55465   6.452   7.196   5.332  0.6170  0.2633  1.1442
  421MOL0     C55466   6.596   7.169   5.345  0.0368  0.4565  0.0160
  421MOL0     C55467   6.653   7.075   5.265  0.2990  0.0875  0.2801
  421MOL0     C55468   6.577   7.002   5.178 -0.2628 -0.0342  0.3027
  421MOL0     C55469   6.650   6.892   5.101 -0.0733  1.3925  0.4047
  421MOL0     O55470   6.784   6.866   5.138  0.5481  0.5652 -0.7420
  421MOL0     C55471   6.857   6.767   5.065 -0.9831 -1.0770 -0.5141
  421MOL0     C55472   6.826   6.630   5.071  0.0792 -0.3405  0.3346
  421MOL0     C55473   6.900   6.537   4.989 -0.1603 -0.6600  0.2579
  421MOL0     C55474   7.016   6.578   4.921 -0.2187  0.9758  0.8982
  421MOL0     O55475   7.101   6.489   4.858 -0.1034  0.0534  0.2742
  421MOL0     C55476   7.117   6.362   4.935 -0.2438  0.2535 -1.0991
  421MOL0     C55477   7.222   6.276   4.867  0.0228 -0.8018 -0.7942
  421MOL0     C55478   7.368   6.337   4.884 -0.0860 -0.7069 -0.6060
  421MOL0     C55479   7.481   6.248   4.815  0.3249 -0.4965  0.4165
  421MOL0     C55480   7.517   6.119   4.884 -0.1911  1.1202 -0.4026
  421MOL0     C55481   7.594   6.146   5.011 -0.5519  1.2167 -0.6942
  421MOL0     C55482   7.609   6.028   5.099 -0.2108 -0.6889  0.6580
  421MOL0     C55483   7.692   5.922   5.032 -0.0462  0.3017 -0.5698
  421MOL0    Cl55484   7.869   5.973   4.999  0.7927 -0.0068  0.2275
  421MOL0     C55485   7.040   6.710   4.917 -0.4722 -0.9487  0.4299
  421MOL0     C55486   6.968   6.806   4.987  0.1990 -0.9860  0.0048
  421MOL0     O55487   6.590   6.821   5.020  0.2045 -0.3005  0.2414
  421MOL0     C55488   6.435   7.025   5.151 -0.3157  0.3042 -0.8886
  421MOL0     C55489   6.380   7.129   5.236 -0.0769 -0.5880  0.3591
  421MOL0     N55490   6.500   7.825   5.592 -0.4879 -0.0432  0.3441
  421MOL0     N55491   6.568   7.918   5.650 -0.0544  0.7661 -0.6783
  421MOL0     C55492   7.170   7.270   6.013  0.0040  0.8102 -0.1060
  421MOL0     C55493   7.172   7.141   5.974  0.8178 -0.1485  0.8940
  421MOL0     C55494   7.314   6.706   5.901  0.2652  0.4294  0.4869
  421MOL0     C55495   7.409   6.601   5.897 -0.0792 -1.1214  0.2087
  421MOL0     C55496   7.363   6.478   5.866 -0.3797  0.6520  0.4124
  421MOL0     C55497   7.231   6.448   5.833 -0.0536 -0.4520  0.0689
  421MOL0     O55498   7.188   6.316   5.823  0.0872  0.1705  0.3045
  421MOL0     C55499   7.258   6.192   5.859  0.3770 -0.4123 -0.3430
  421MOL0     C55500   7.161   6.072   5.869 -0.1427 -0.1808  0.0191
  421MOL0     C55501   7.128   6.006   5.729 -0.4373  0.3160 -0.2192
  421MOL0     C55502   6.981   5.950   5.729  1.1509 -1.1409  0.0378
  421MOL0     C55503   6.945   5.847   5.830  0.1902 -0.2769  0.1445
  421MOL0     C55504   6.912   5.766   5.906  0.6244 -0.3210 -0.1628
  421MOL0     C55505   7.144   6.554   5.832 -0.4420  1.5035  0.0960
  421MOL0     C55506   7.179   6.680   5.870 -1.5813 -0.5078  0.0381
  421MOL0     H55507   7.500   7.084   5.991  2.1389  1.6253  1.4751
  421MOL0     H55508   7.496   7.335   6.045 -2.0039  2.3245  2.5130
  421MOL0     H55509   7.110   7.557   6.135  0.9958  1.4765  1.8383
  421MOL0     H55510   7.117   7.542   5.957 -0.9352  0.5132  1.1167
  421MOL0     H55511   7.326   7.714   5.979  0.2235  0.2251  0.1131
  421MOL0     H55512   7.260   7.730   6.144  1.7446 -0.0190 -0.3578
  421MOL0     H55513   7.160   7.799   5.877  1.4271 -4.0274  0.6536
  421MOL0     H55514   7.180   7.904   6.020 -2.6091 -0.3102  3.8517
  421MOL0     H55515   6.940   7.717   6.013  0.9286 -0.0373 -1.0619
  421MOL0     H55516   6.998   7.834   6.134 -0.2570  2.8298 -1.4204
  421MOL0     H55517   6.954   8.019   5.978 -0.1774  0.1743  1.5489
  421MOL0     H55518   6.806   7.909   6.002  1.2183  0.5266  1.9835
  421MOL0     H55519   6.843   7.808   5.780  1.5337 -0.3492 -3.5204
  421MOL0     H55520   7.000   7.899   5.765  0.2923 -2.3388  1.2259
  421MOL0     H55521   6.753   8.055   5.824  0.8088  0.1840  1.8481
  421MOL0     H55522   6.908   8.117   5.771 -2.5958  2.3277  1.2872
  421MOL0     H55523   6.868   8.034   5.544 -0.1152 -2.3500 -1.0518
  421MOL0     H55524   6.739   8.139   5.602 -4.4357 -1.9458  0.3041
  421MOL0     H55525   6.769   7.859   5.392 -0.0767 -0.8219  0.2549
  421MOL0     H55526   6.594   7.669   5.290 -0.8151 -1.4227  0.5679
  421MOL0     H55527   6.447   7.753   5.295  1.8567 -0.0496 -2.1500
  421MOL0     H55528   6.373   7.538   5.346  0.1496 -2.7822 -0.6723
  421MOL0     H55529   6.380   7.620   5.494 -0.4184 -1.0328 -0.0702
  421MOL0     H55530   6.594   7.459   5.376  4.6703  2.1340  2.2885
  421MOL0     H55531   6.611   7.519   5.538  0.9751 -2.3953  0.8559
  421MOL0     H55532   6.394   7.395   5.596 -1.9475  1.7032 -2.7184
  421MOL0     H55533   6.529   7.282   5.575  3.1427  2.6196  0.9510
  421MOL0     H55534   6.651   7.216   5.426 -2.4497 -0.8627  2.6523
  421MOL0     H55535   6.758   7.057   5.285  1.0637  1.0560 -2.4814
  421MOL0     H55536   6.741   6.594   5.127  1.3470 -0.1716  2.4739
  421MOL0     H55537   6.860   6.439   4.963  0.1117 -1.0039  1.0874
  421MOL0     H55538   7.026   6.302   4.944  0.3566 -0.5379 -0.2754
  421MOL0     H55539   7.156   6.390   5.033  0.1923 -0.5514 -1.0388
  421MOL0     H55540   7.202   6.272   4.760  0.7248 -0.3698 -0.9506
  421MOL0     H55541   7.221   6.175   4.909 -0.8530 -2.2473 -4.0243
  421MOL0     H55542   7.392   6.345   4.990 -0.3755  1.2042 -0.6351
  421MOL0     H55543   7.375   6.440   4.847 -1.5704 -0.5681 -0.5764
  421MOL0     H55544   7.442   6.223   4.716  2.1161 -2.2011  0.0613
  421MOL0     H55545   7.575   6.303   4.805  0.6076 -1.3875 -3.8376
  421MOL0     H55546   7.580   6.059   4.817  1.1243  1.8598  0.1342
  421MOL0     H55547   7.421   6.078   4.914  0.8191  0.3310  2.0366
  421MOL0     H55548   7.544   6.220   5.074 -0.1479 -2.1276  4.1219
  421MOL0     H55549   7.695   6.186   4.993 -1.3892  3.0077 -1.6600
  421MOL0     H55550   7.647   6.053   5.199  0.6170 -3.0915  0.9953
  421MOL0     H55551   7.510   5.982   5.105 -0.1845 -0.6649  1.3825
  421MOL0     H55552   7.640   5.894   4.941  0.8810  0.6447 -1.2232
  421MOL0     H55553   7.693   5.837   5.100  3.1226  0.7656  0.1098
  421MOL0     H55554   7.118   6.736   4.845 -2.5339  2.2289 -0.8991
  421MOL0     H55555   6.977   6.914   4.975  0.5580 -0.8439  1.3350
  421MOL0     H55556   6.380   6.965   5.080 -0.6907  0.3063 -0.6036
  421MOL0     H55557   6.273   7.143   5.226 -0.6724 -3.5646  1.4863
  421MOL0     H55558   7.076   7.319   6.034  0.2493  1.3479 -0.2553
  421MOL0     H55559   7.073   7.098   5.964  1.0248 -0.1726 -1.6007
  421MOL0     H55560   7.513   6.628   5.911 -0.0080 -0.4707 -1.2981
  421MOL0     H55561   7.433   6.395   5.869  0.9987  1.7141 -0.6351
  421MOL0     H55562   7.305   6.202   5.958  1.2275 -0.2447 -0.7480
  421MOL0     H55563   7.339   6.184   5.785 -0.7058  2.4490 -2.0134
  421MOL0     H55564   7.215   5.999   5.930  2.6897  1.9152  0.1972
  421MOL0     H55565   7.067   6.110   5.912 -0.5990  0.5599 -1.5565
  421MOL0     H55566   7.191   5.920   5.705 -0.3771 -0.6321  2.9237
  421MOL0     H55567   7.144   6.090   5.661  1.4975 -1.5674 -2.2386
  421MOL0     H55568   6.913   6.033   5.748  3.5001  0.6203  1.3275
  421MOL0     H55569   6.956   5.901   5.634 -1.3462  2.1652 -1.1849
  421MOL0     H55570   6.877   5.684   5.964  0.4583 -0.2111 -0.1081
  421MOL0     H55571   7.039   6.529   5.817  0.3477 -5.2656  2.4227
  421MOL0     H55572   7.105   6.753   5.899 -0.6270  0.5594 -0.1317
  422MOL0     O55573   5.876  10.563   9.049  0.1095  0.3758 -0.3458
  422MOL0     C55574   5.951  10.638   9.111 -0.5397  0.1376 -0.8388
  422MOL0     O55575   5.939  10.774   9.131 -0.0830  0.2912 -0.5556
  422MOL0     C55576   5.829  10.834   9.078 -0.6030 -0.3768 -0.4255
  422MOL0     C55577   5.697  10.814   9.122 -0.9032  0.0167  0.1857
  422MOL0     C55578   5.588  10.884   9.064 -0.0673  0.7402 -0.0141
  422MOL0     C55579   5.611  10.983   8.971  0.1089  1.5671  0.1515
  422MOL0     O55580   5.522  11.065   8.919 -0.7011  0.3329 -0.0229
  422MOL0     C55581   5.424  11.131   9.003 -0.3064 -0.5545 -0.0111
  422MOL0     C55582   5.492  11.244   9.083  0.8290 -0.3497 -0.0259
  422MOL0     C55583   5.576  11.333   8.992  0.8475  0.8266 -0.6808
  422MOL0     C55584   5.501  11.436   8.910 -0.2001  1.1626  0.4624
  422MOL0     C55585   5.602  11.503   8.811 -0.7110  0.3466  0.0430
  422MOL0     C55586   5.549  11.618   8.738 -0.8728 -1.0977 -0.1153
  422MOL0     C55587   5.426  11.585   8.642  0.7626  1.0219  0.4009
  422MOL0     C55588   5.450  11.518   8.501  0.4332  0.0004 -0.1845
  422MOL0     N55589   5.520  11.607   8.405  0.5370  1.0991 -0.2897
  422MOL0     C55590   5.657  11.632   8.396  0.0752  0.0093  0.7049
  422MOL0     C55591   5.670  11.694   8.271  0.0397  0.1518  0.1433
  422MOL0     C55592   5.790  11.730   8.184  0.6498  0.5809  0.2564
  422MOL0     C55593   5.889  11.612   8.170 -0.1238 -0.0915 -0.8937
  422MOL0     C55594   5.874  11.547   8.032 -0.3664 -0.3430  0.3148
  422MOL0     C55595   5.969  11.425   8.007 -0.1702 -0.2881  0.5773
  422MOL0     O55596   5.989  11.356   8.128  0.3298 -0.6621  0.5753
  422MOL0     C55597   5.959  11.226   8.140  0.5411 -0.2394  0.5328
  422MOL0     C55598   5.833  11.163   8.099 -0.2109  0.2624  0.0202
  422MOL0     C55599   5.830  11.021   8.121  0.8424 -1.0679  0.0527
  422MOL0     C55600   5.932  10.949   8.188 -0.1111 -0.7344 -0.0595
  422MOL0     C55601   5.937  10.807   8.207 -0.2201 -0.0098 -0.3207
  422MOL0     O55602   6.021  10.764   8.305 -0.1048  1.0823  0.4976
  422MOL0     C55603   6.047  10.626   8.303  0.9923  1.0253 -0.7411
  422MOL0     C55604   5.968  10.520   8.353  0.9548 -0.4779 -0.1164
  422MOL0     C55605   6.003  10.384   8.334 -0.4053  1.1816  0.6138
  422MOL0     C55606   6.131  10.343   8.270  1.5713 -0.9225  0.8118
  422MOL0     O55607   6.180  10.217   8.273  0.1278  0.6125 -0.5228
  422MOL0     C55608   6.193  10.160   8.146 -0.5410 -0.2092  0.8278
  422MOL0     C55609   6.255  10.021   8.150 -0.3049  0.6719  1.0719
  422MOL0     C55610   6.280   9.976   8.017  0.7121  0.2860  0.5717
  422MOL0     C55611   6.369   9.859   8.014 -1.2443 -0.2865 -0.0236
  422MOL0     C55612   6.290   9.738   8.061 -0.2665  0.3602  1.0347
  422MOL0     C55613   6.373   9.621   8.082 -0.6596 -0.5236  1.1370
  422MOL0     C55614   6.279   9.526   8.151  0.2034 -0.1660 -0.2457
  422MOL0     C55615   6.343   9.401   8.228 -0.5063 -0.4468  0.3806
  422MOL0    Cl55616   6.481   9.330   8.146  0.3756 -0.1158 -0.2737
  422MOL0     C55617   6.214  10.444   8.235  0.4908  0.1652 -0.1669
  422MOL0     C55618   6.175  10.580   8.255 -0.9640 -0.8595 -0.1023
  422MOL0     O55619   5.869  10.735   8.131  0.0821  0.0630 -0.1637
  422MOL0     C55620   6.046  11.015   8.234  0.3843 -0.7820 -0.5462
  422MOL0     C55621   6.059  11.154   8.207  0.1072  1.1300 -1.0198
  422MOL0     N55622   5.547  11.711   8.215  0.3493 -0.1058 -0.4199
  422MOL0     N55623   5.460  11.661   8.297  0.8097 -0.4330  0.4688
  422MOL0     C55624   5.741  11.004   8.928 -0.1237  0.6913  0.2421
  422MOL0     C55625   5.850  10.933   8.982  0.0176  0.1940  0.5564
  422MOL0     C55626   6.086  10.589   9.162  0.6309 -0.1647  0.0812
  422MOL0     C55627   6.212  10.651   9.143  0.8919 -0.1770 -0.4086
  422MOL0     C55628   6.329  10.600   9.192 -0.2437  0.5968  0.2137
  422MOL0     C55629   6.331  10.489   9.280 -0.6100 -0.7522 -0.0381
  422MOL0     O55630   6.450  10.454   9.344  0.1244 -0.5777 -0.4493
  422MOL0     C55631   6.452  10.332   9.415  0.6913  0.2870  0.0114
  422MOL0     C55632   6.589  10.337   9.489  0.4828 -0.6978  0.2505
  422MOL0     C55633   6.625  10.211   9.569 -0.5138 -0.2115 -0.7344
  422MOL0     C55634   6.622  10.069   9.500  0.7513 -0.0568 -0.2277
  422MOL0     C55635   6.720  10.049   9.405  0.9288  1.3634 -0.1458
  422MOL0     C55636   6.813  10.024   9.336  0.9219  0.3740  0.4071
  422MOL0     C55637   6.210  10.419   9.292  0.2346  1.1532 -0.3743
  422MOL0     C55638   6.094  10.466   9.230  0.9095 -0.3162  0.2063
  422MOL0     H55639   5.683  10.745   9.204 -2.8448  3.3296  2.9366
  422MOL0     H55640   5.493  10.875   9.115  0.0378 -0.6196 -0.0187
  422MOL0     H55641   5.365  11.059   9.060 -1.4537  1.4163  1.3936
  422MOL0     H55642   5.343  11.186   8.955 -0.5333 -0.1585  0.8134
  422MOL0     H55643   5.546  11.202   9.168  1.2109  2.0837  1.0208
  422MOL0     H55644   5.412  11.304   9.129  0.3973  0.3133 -1.5599
  422MOL0     H55645   5.655  11.285   8.932  0.7977  1.4585 -1.2706
  422MOL0     H55646   5.635  11.392   9.063 -0.6264  2.7367 -0.9563
  422MOL0     H55647   5.431  11.383   8.844  0.5232 -1.0682  1.4109
  422MOL0     H55648   5.455  11.517   8.967  2.3424  2.1508  1.2458
  422MOL0     H55649   5.635  11.431   8.736 -2.4364 -2.0365  1.4618
  422MOL0     H55650   5.695  11.526   8.865  1.4400 -2.0780 -2.3376
  422MOL0     H55651   5.622  11.674   8.679 -2.7987 -0.2999 -1.8603
  422MOL0     H55652   5.524  11.697   8.809  0.3047  0.2558 -1.1547
  422MOL0     H55653   5.347  11.526   8.689  0.4869  1.0431 -0.0311
  422MOL0     H55654   5.379  11.684   8.639  1.1554  1.2374  1.0033
  422MOL0     H55655   5.350  11.493   8.466  1.3202 -2.5354 -1.1189
  422MOL0     H55656   5.502  11.422   8.513  1.5992  0.3362 -2.0403
  422MOL0     H55657   5.736  11.593   8.460 -0.4250 -0.4945  1.0276
  422MOL0     H55658   5.839  11.818   8.225  0.2838  0.8876  0.0413
  422MOL0     H55659   5.753  11.760   8.085  1.1767  2.6672  0.6531
  422MOL0     H55660   5.867  11.539   8.249 -3.4353  0.0652 -1.5232
  422MOL0     H55661   5.994  11.642   8.181  0.1060 -1.3453  0.6672
  422MOL0     H55662   5.774  11.505   8.023 -0.0343 -1.2001  0.5358
  422MOL0     H55663   5.904  11.619   7.955  2.5793  0.0448  1.6881
  422MOL0     H55664   6.070  11.462   7.988  0.3627 -0.5075  2.7463
  422MOL0     H55665   5.938  11.358   7.927  1.0821  0.1462 -0.2964
  422MOL0     H55666   5.756  11.211   8.041 -0.9887 -1.2313 -0.2406
  422MOL0     H55667   5.748  10.969   8.074  0.1968  0.7947 -0.9825
  422MOL0     H55668   5.874  10.548   8.399  0.6737  1.4870 -1.7630
  422MOL0     H55669   5.941  10.297   8.353  2.0850 -0.8396  0.1318
  422MOL0     H55670   6.270  10.225   8.104 -0.1224 -0.9457  0.4342
  422MOL0     H55671   6.105  10.162   8.081 -1.3894 -1.3043  1.8890
  422MOL0     H55672   6.197   9.952   8.212  0.6316  1.3518  2.7903
  422MOL0     H55673   6.360  10.030   8.182  1.1330  2.1266 -3.3275
  422MOL0     H55674   6.322  10.052   7.951  1.5377 -0.4527  0.2250
  422MOL0     H55675   6.188   9.938   7.972  0.2262  2.1904 -0.1391
  422MOL0     H55676   6.405   9.835   7.914 -3.5162  1.0770 -1.2371
  422MOL0     H55677   6.463   9.866   8.071 -0.1501 -0.2248 -1.7545
  422MOL0     H55678   6.212   9.710   7.989  0.2344  2.1241 -0.2893
  422MOL0     H55679   6.238   9.759   8.155  0.8339  0.1070  1.7167
  422MOL0     H55680   6.470   9.649   8.123  0.1874  3.5983 -2.8621
  422MOL0     H55681   6.404   9.594   7.981 -0.5066  2.5108  0.2730
  422MOL0     H55682   6.221   9.573   8.231 -1.2329 -1.0295 -0.7394
  422MOL0     H55683   6.208   9.487   8.077  0.5257 -2.6206  0.6255
  422MOL0     H55684   6.269   9.324   8.255 -0.5796 -0.8878 -0.9728
  422MOL0     H55685   6.387   9.433   8.322  0.0099 -0.2067  0.0599
  422MOL0     H55686   6.306  10.419   8.183  0.0901  0.8833 -1.2378
  422MOL0     H55687   6.255  10.650   8.235 -2.2447  0.8479  0.4413
  422MOL0     H55688   6.127  10.957   8.279  2.2793  2.0772 -0.0390
  422MOL0     H55689   6.156  11.197   8.234  0.0808 -0.1085  1.3810
  422MOL0     H55690   5.763  11.076   8.851  1.9238  0.1520  0.2656
  422MOL0     H55691   5.947  10.959   8.941 -0.1037 -2.4649 -1.7596
  422MOL0     H55692   6.212  10.739   9.079 -3.6527 -0.6474 -1.3773
  422MOL0     H55693   6.412  10.666   9.172 -0.7777  2.1396  2.6639
  422MOL0     H55694   6.456  10.249   9.344 -1.9945 -0.2642  0.3703
  422MOL0     H55695   6.367  10.311   9.482  1.5241  0.0638  1.0259
  422MOL0     H55696   6.661  10.363   9.410  0.8495 -0.2462  0.7244
  422MOL0     H55697   6.581  10.419   9.560  0.3842 -1.0428  0.6388
  422MOL0     H55698   6.561  10.209   9.658  1.0158  2.9219  0.5827
  422MOL0     H55699   6.728  10.219   9.606 -1.3214 -0.4277  1.7498
  422MOL0     H55700   6.630   9.993   9.578 -0.0706 -1.4556 -1.4690
  422MOL0     H55701   6.519  10.056   9.465  0.6905 -0.0675 -0.0489
  422MOL0     H55702   6.886   9.979   9.271 -0.8174 -0.7417 -0.8514
  422MOL0     H55703   6.188  10.335   9.357 -1.7357  0.9006 -1.2828
  422MOL0     H55704   6.010  10.400   9.249  0.4705 -0.3765 -1.7328
  423MOL0     O55705   8.918  10.053   9.078  0.3659  0.2068 -0.7160
  423MOL0     C55706   9.029  10.057   9.022 -0.8356  0.3357 -0.0380
  423MOL0     O55707   9.148  10.012   9.084 -0.8230  0.1280  0.0078
  423MOL0     C55708   9.140   9.986   9.221  0.3061  0.3809 -0.0364
  423MOL0     C55709   9.199  10.054   9.314 -0.0784 -0.4807  0.3378
  423MOL0     C55710   9.181  10.030   9.453  0.2250 -0.4982 -0.3736
  423MOL0     C55711   9.104   9.931   9.500  1.6832 -0.1763 -0.5365
  423MOL0     O55712   9.079   9.905   9.639  0.5928 -0.3303  0.5231
  423MOL0     C55713   8.949   9.869   9.685 -0.7204 -0.7718 -0.0828
  423MOL0     C55714   8.945   9.725   9.724 -0.4633  0.7773  0.0504
  423MOL0     C55715   8.796   9.679   9.753 -0.1172 -0.5007 -0.4165
  423MOL0     C55716   8.772   9.534   9.758  0.4105  0.0891 -0.0151
  423MOL0     C55717   8.630   9.505   9.819 -0.2983 -0.8266  0.3655
  423MOL0     C55718   8.594   9.357   9.807  0.0757 -0.0222  0.5996
  423MOL0     C55719   8.463   9.331   9.891 -0.2497 -0.1059  1.0846
  423MOL0     C55720   8.403   9.189   9.898  0.2963 -0.8662 -0.3263
  423MOL0     N55721   8.311   9.148   9.780  0.6629 -0.1947 -0.1841
  423MOL0     C55722   8.344   9.157   9.650 -0.4997  0.6789  0.6056
  423MOL0     C55723   8.250   9.088   9.580 -0.7306  0.9603  0.7267
  423MOL0     C55724   8.263   9.049   9.435 -0.9372 -0.1100 -0.2800
  423MOL0     C55725   8.379   8.961   9.391 -0.0035 -0.4904  0.0832
  423MOL0     C55726   8.389   8.822   9.454  0.4537 -0.3591  0.2353
  423MOL0     C55727   8.471   8.818   9.582 -0.1166  0.2268 -0.2949
  423MOL0     O55728   8.607   8.848   9.554  0.7039 -0.6456  0.4761
  423MOL0     C55729   8.686   8.771   9.468  0.0332  0.1386 -0.8417
  423MOL0     C55730   8.673   8.636   9.428  0.3840 -0.5553 -0.3903
  423MOL0     C55731   8.732   8.580   9.313 -0.1248 -0.0592 -0.2037
  423MOL0     C55732   8.815   8.660   9.241  0.3967  0.5722  0.2354
  423MOL0     C55733   8.884   8.609   9.120 -0.1761  0.1288 -0.3932
  423MOL0     O55734   8.946   8.704   9.042 -0.7572 -0.5793  0.5312
  423MOL0     C55735   9.064   8.668   8.974 -0.5535 -0.7883 -0.0657
  423MOL0     C55736   9.157   8.571   9.016  1.0044  0.9980  0.7195
  423MOL0     C55737   9.274   8.552   8.943 -0.3589 -0.0779  1.1695
  423MOL0     C55738   9.318   8.633   8.830 -0.5561  0.1474 -0.5598
  423MOL0     O55739   9.441   8.618   8.771 -0.1141  0.6865  0.2122
  423MOL0     C55740   9.493   8.484   8.740 -0.3784  0.0306  0.6685
  423MOL0     C55741   9.420   8.405   8.632  0.7431  0.8921  0.4234
  423MOL0     C55742   9.406   8.465   8.495  0.0702 -0.3220 -0.3462
  423MOL0     C55743   9.533   8.484   8.420 -0.6417 -0.4061 -0.4350
  423MOL0     C55744   9.610   8.354   8.381  0.2210 -0.3770  0.2844
  423MOL0     C55745   9.717   8.377   8.265 -0.7785  0.8412 -0.3178
  423MOL0     C55746   9.809   8.496   8.296 -0.7432 -0.4743  0.2480
  423MOL0     C55747   9.909   8.462   8.403 -0.4559  0.7458  0.3024
  423MOL0    Cl55748  10.015   8.599   8.437  0.0172  0.1051  0.3693
  423MOL0     C55749   9.221   8.734   8.789  0.2163  0.2924  0.3267
  423MOL0     C55750   9.107   8.755   8.868  0.0555  0.8931  1.0623
  423MOL0     O55751   8.890   8.485   9.092 -0.5776  1.2561 -0.9765
  423MOL0     C55752   8.844   8.785   9.285  0.1079 -1.1317 -0.9891
  423MOL0     C55753   8.779   8.845   9.396 -0.4456 -0.0182 -0.4750
  423MOL0     N55754   8.141   9.053   9.667  0.5889 -0.4827  0.4945
  423MOL0     N55755   8.182   9.093   9.788  0.9488 -0.5068  0.5159
  423MOL0     C55756   9.052   9.845   9.405 -0.2292 -0.5210 -0.8206
  423MOL0     C55757   9.071   9.868   9.263 -0.5392  0.4806 -0.3940
  423MOL0     C55758   9.035  10.114   8.886 -0.2670  0.4936 -0.6272
  423MOL0     C55759   8.925  10.119   8.800  0.4608  0.7106 -0.0884
  423MOL0     C55760   8.928  10.159   8.664 -0.4655  0.3236  0.2237
  423MOL0     C55761   9.047  10.224   8.624 -0.2906  0.2064 -0.7624
  423MOL0     O55762   9.034  10.284   8.497 -0.1723 -0.0274  1.0086
  423MOL0     C55763   9.143  10.366   8.460  0.1157  0.2600 -0.9546
  423MOL0     C55764   9.079  10.514   8.494  0.3285 -0.2753  0.1751
  423MOL0     C55765   8.970  10.546   8.391  0.2209  0.5361 -0.7223
  423MOL0     C55766   8.938  10.694   8.372 -0.1072  1.2822 -0.1878
  423MOL0     C55767   8.854  10.734   8.486 -0.1146  0.2835  0.6908
  423MOL0     C55768   8.799  10.775   8.587 -0.1368  1.1718  0.9605
  423MOL0     C55769   9.160  10.228   8.719  0.2476  0.5066 -0.2367
  423MOL0     C55770   9.159  10.168   8.843  0.6366  0.7189 -0.4074
  423MOL0     H55771   9.254  10.146   9.296  1.5948 -1.6722 -0.8927
  423MOL0     H55772   9.243  10.091   9.519 -1.0375  0.6358 -0.1818
  423MOL0     H55773   8.868   9.892   9.616 -0.7002 -1.2847 -0.2852
  423MOL0     H55774   8.945   9.935   9.772  2.6172 -0.6406  0.1188
  423MOL0     H55775   9.004   9.700   9.813 -0.4532 -2.3676 -0.7108
  423MOL0     H55776   8.976   9.663   9.639 -1.3907  0.9379 -0.4227
  423MOL0     H55777   8.740   9.726   9.672  2.7096 -1.3376 -3.0181
  423MOL0     H55778   8.762   9.713   9.852  0.8908 -1.1069  0.1541
  423MOL0     H55779   8.790   9.484   9.662 -2.6200  2.0701 -1.7451
  423MOL0     H55780   8.852   9.482   9.813  2.4930  0.7206 -2.2585
  423MOL0     H55781   8.554   9.564   9.768  0.3229 -1.7558 -1.7828
  423MOL0     H55782   8.635   9.534   9.924 -2.1791 -1.1514  0.5709
  423MOL0     H55783   8.679   9.301   9.848  3.2540  5.8351  3.1953
  423MOL0     H55784   8.556   9.336   9.707  0.0188  0.6801  0.4674
  423MOL0     H55785   8.480   9.361   9.995 -3.2169 -1.3988  2.0271
  423MOL0     H55786   8.381   9.390   9.849 -0.2517 -2.5619 -2.8812
  423MOL0     H55787   8.350   9.190   9.994  1.5126 -1.0697  0.3562
  423MOL0     H55788   8.491   9.126   9.912  0.7583  0.1950  2.0705
  423MOL0     H55789   8.428   9.211   9.609 -0.2365 -0.6461 -0.6905
  423MOL0     H55790   8.270   9.150   9.394 -2.7421  1.4823  2.8927
  423MOL0     H55791   8.178   8.998   9.390 -1.8115  0.5688  0.5379
  423MOL0     H55792   8.473   9.016   9.406 -0.6414  0.8193 -0.5718
  423MOL0     H55793   8.368   8.942   9.284  2.6934 -1.9486 -0.0303
  423MOL0     H55794   8.292   8.774   9.468  1.3526 -1.6861  2.3906
  423MOL0     H55795   8.442   8.757   9.384  0.6083  1.6824 -1.6828
  423MOL0     H55796   8.454   8.719   9.624 -3.0655  1.3719  1.5364
  423MOL0     H55797   8.429   8.887   9.655  1.5377  1.5973 -0.5579
  423MOL0     H55798   8.586   8.590   9.472 -0.5810  2.2106  0.8150
  423MOL0     H55799   8.719   8.475   9.289 -0.9102 -0.0764  0.2497
  423MOL0     H55800   9.143   8.509   9.103 -0.4228 -2.3994 -1.7363
  423MOL0     H55801   9.332   8.464   8.969 -0.4502 -1.6960 -3.2331
  423MOL0     H55802   9.483   8.426   8.832 -1.4483 -1.5414 -0.3808
  423MOL0     H55803   9.600   8.490   8.720 -0.3814  1.0491  0.8975
  423MOL0     H55804   9.317   8.391   8.667  0.5375 -1.3096 -0.9035
  423MOL0     H55805   9.457   8.304   8.612  0.4163  1.1179 -1.5838
  423MOL0     H55806   9.372   8.567   8.512  2.0112  0.5144 -1.2511
  423MOL0     H55807   9.330   8.420   8.430 -0.7720  4.1877 -2.8308
  423MOL0     H55808   9.495   8.527   8.327  0.9214  0.1843 -0.8508
  423MOL0     H55809   9.599   8.549   8.479 -0.8802 -0.8121  0.2876
  423MOL0     H55810   9.530   8.292   8.342  0.7620 -0.3663 -0.8893
  423MOL0     H55811   9.659   8.307   8.467  3.9518 -0.9290 -1.9111
  423MOL0     H55812   9.665   8.378   8.168 -0.6663 -1.3559 -0.4478
  423MOL0     H55813   9.788   8.294   8.273 -1.7860 -0.0078  0.0593
  423MOL0     H55814   9.865   8.530   8.208 -1.6352  2.7998  0.8221
  423MOL0     H55815   9.752   8.582   8.331 -0.4562  0.3732 -1.2566
  423MOL0     H55816   9.979   8.388   8.363  2.5642  3.6564 -0.2234
  423MOL0     H55817   9.868   8.438   8.501  1.6899  3.1264  1.9059
  423MOL0     H55818   9.240   8.811   8.716 -0.8205 -1.5445 -2.0022
  423MOL0     H55819   9.037   8.830   8.832  0.5314  0.4120 -0.9951
  423MOL0     H55820   8.921   8.848   9.242 -0.7118  0.5010 -0.1572
  423MOL0     H55821   8.802   8.949   9.417 -2.6139  0.1387  1.5448
  423MOL0     H55822   8.996   9.757   9.436 -0.8689  0.1555 -0.0075
  423MOL0     H55823   9.016   9.807   9.192 -1.2977  1.6993 -0.8893
  423MOL0     H55824   8.834  10.073   8.839  1.3347 -0.9236  0.0964
  423MOL0     H55825   8.840  10.143   8.603 -0.1401  2.5043 -0.9233
  423MOL0     H55826   9.159  10.364   8.352 -0.2208  1.5769 -1.0556
  423MOL0     H55827   9.238  10.361   8.513 -0.1095 -3.3690 -0.6767
  423MOL0     H55828   9.028  10.499   8.590 -0.9763 -2.1300 -0.7614
  423MOL0     H55829   9.152  10.595   8.503 -1.8301  1.7225  0.6049
  423MOL0     H55830   8.886  10.483   8.423 -0.0261  1.3171  0.1822
  423MOL0     H55831   9.000  10.515   8.290  0.1075  2.8449 -1.5242
  423MOL0     H55832   9.024  10.758   8.351  0.6103  0.4264  0.0299
  423MOL0     H55833   8.882  10.719   8.282  1.4271 -0.4430 -1.7052
  423MOL0     H55834   8.754  10.825   8.669 -2.5481 -0.9770  1.0639
  423MOL0     H55835   9.262  10.252   8.691  0.2686  1.5615  0.6902
  423MOL0     H55836   9.249  10.172   8.904  1.1095 -1.4439 -0.8901
  424MOL0     O55837  10.825   6.490   6.432 -0.0587 -0.0675  0.1812
  424MOL0     C55838  10.893   6.545   6.333 -0.2654  0.2542  0.0058
  424MOL0     O55839  10.966   6.657   6.340  0.3390  0.4711  0.1331
  424MOL0     C55840  10.975   6.713   6.464 -1.0470  0.1019 -0.0884
  424MOL0     C55841  10.883   6.820   6.489 -0.1371  0.3728 -0.4539
  424MOL0     C55842  10.876   6.880   6.615  0.3329  0.0149 -0.7295
  424MOL0     C55843  10.960   6.838   6.719  0.7536  0.2759 -1.1277
  424MOL0     O55844  10.922   6.910   6.830  0.3225  0.0796 -0.7203
  424MOL0     C55845  10.955   6.851   6.953 -0.5695  1.0826  0.1884
  424MOL0     C55846  11.094   6.891   7.005  0.1960 -0.5112 -0.4320
  424MOL0     C55847  11.120   7.041   6.979  0.1972 -0.3339 -0.3622
  424MOL0     C55848  11.162   7.075   6.837 -0.1042 -0.1096 -0.4290
  424MOL0     C55849  11.215   7.212   6.814 -0.2219 -1.0939  0.3065
  424MOL0     C55850  11.289   7.218   6.677  0.5396  0.1913  0.2040
  424MOL0     C55851  11.195   7.222   6.560 -0.7062  0.5690  0.4666
  424MOL0     C55852  11.277   7.213   6.437 -0.4211  0.1733  1.2249
  424MOL0     N55853  11.347   7.085   6.414  0.0536 -0.4141 -0.7160
  424MOL0     C55854  11.285   6.962   6.415  0.2133 -0.0928  0.1969
  424MOL0     C55855  11.368   6.875   6.355 -0.5549  0.7732 -0.7000
  424MOL0     C55856  11.360   6.730   6.308  0.4778  0.9857  0.6133
  424MOL0     C55857  11.353   6.737   6.153  0.2267 -0.3835 -0.1782
  424MOL0     C55858  11.307   6.602   6.093 -0.2496 -0.8405  0.9550
  424MOL0     C55859  11.300   6.599   5.938  0.9135 -0.2848 -0.5367
  424MOL0     O55860  11.423   6.544   5.891  0.1566 -0.5487  0.3341
  424MOL0     C55861  11.423   6.511   5.761  0.6963  0.2639  0.0762
  424MOL0     C55862  11.336   6.558   5.661  0.1091 -0.1580 -0.4993
  424MOL0     C55863  11.359   6.532   5.517  0.1239  0.3571 -0.6578
  424MOL0     C55864  11.472   6.465   5.474  0.1111  0.9414 -0.1472
  424MOL0     C55865  11.515   6.432   5.337 -0.4345 -0.2577  1.5278
  424MOL0     O55866  11.616   6.344   5.309 -0.1884  0.1567 -0.6875
  424MOL0     C55867  11.662   6.318   5.179 -1.1203  0.2155 -0.0339
  424MOL0     C55868  11.729   6.197   5.173  0.3822  0.7909  0.2621
  424MOL0     C55869  11.764   6.157   5.046 -0.4413  0.3859 -0.3090
  424MOL0     C55870  11.749   6.237   4.926  0.8691 -0.2372  0.5910
  424MOL0     O55871  11.777   6.194   4.800 -0.3621  0.5211  0.4143
  424MOL0     C55872  11.898   6.119   4.775  0.1741 -0.2258 -0.0664
  424MOL0     C55873  11.920   6.140   4.622 -0.6965  0.8033  0.3970
  424MOL0     C55874  11.829   6.067   4.522  0.9738  0.3130  1.2826
  424MOL0     C55875  11.891   6.066   4.375 -0.6326 -1.3546  0.2102
  424MOL0     C55876  11.934   5.927   4.323  0.5543  1.2400  0.7029
  424MOL0     C55877  12.047   5.877   4.420 -0.1558 -0.5169 -0.1674
  424MOL0     C55878  12.101   5.742   4.385  0.1520  1.3023  0.6237
  424MOL0     C55879  12.147   5.666   4.510 -0.0457 -0.2933 -0.0331
  424MOL0    Cl55880  12.184   5.506   4.437 -0.4714  0.4608 -0.0405
  424MOL0     C55881  11.677   6.360   4.934  0.6997 -0.1169  0.0220
  424MOL0     C55882  11.633   6.397   5.056 -0.7005 -0.3974 -0.5431
  424MOL0     O55883  11.445   6.490   5.252  0.6291 -0.0070  0.1450
  424MOL0     C55884  11.553   6.411   5.577 -0.4280  0.7095 -0.8513
  424MOL0     C55885  11.533   6.435   5.721 -0.5632 -1.2217  0.0913
  424MOL0     N55886  11.487   6.947   6.342  0.0577  0.3537 -0.0563
  424MOL0     N55887  11.468   7.071   6.374 -0.3010  0.6036 -0.4331
  424MOL0     C55888  11.052   6.732   6.702  0.1724 -0.6466  0.5015
  424MOL0     C55889  11.056   6.675   6.576  0.3941 -0.0752 -0.9075
  424MOL0     C55890  10.867   6.473   6.202  0.1935  0.2167 -0.0782
  424MOL0     C55891  10.791   6.352   6.194 -0.0423 -0.4052  0.1700
  424MOL0     C55892  10.764   6.293   6.064 -0.2883 -0.7074  0.5794
  424MOL0     C55893  10.838   6.345   5.955  0.6134  0.1049  0.6124
  424MOL0     O55894  10.841   6.283   5.827 -0.4753 -0.2974 -0.1775
  424MOL0     C55895  10.774   6.156   5.787  0.2034 -1.0583 -0.3739
  424MOL0     C55896  10.704   6.156   5.650  0.0769 -0.1788 -0.3360
  424MOL0     C55897  10.793   6.200   5.528 -0.4102 -0.5235  0.2160
  424MOL0     C55898  10.941   6.143   5.524 -0.2404 -1.7317  0.8684
  424MOL0     C55899  11.028   6.206   5.426  0.4108  0.8842  0.4746
  424MOL0     C55900  11.103   6.261   5.352  0.2103 -0.3681 -0.4006
  424MOL0     C55901  10.913   6.460   5.968  0.4985 -0.0977  0.5820
  424MOL0     C55902  10.917   6.534   6.087  0.4031 -0.0480 -0.4939
  424MOL0     H55903  10.814   6.849   6.411  0.3807 -1.2254 -1.5434
  424MOL0     H55904  10.801   6.957   6.627  1.6898  1.3414 -0.4933
  424MOL0     H55905  10.961   6.743   6.935 -0.6362  1.4966 -2.8382
  424MOL0     H55906  10.875   6.880   7.022 -0.0678  0.9332  0.8366
  424MOL0     H55907  11.175   6.832   6.960 -0.0287 -2.4433  1.5169
  424MOL0     H55908  11.103   6.871   7.112  1.0750 -4.3917 -1.0748
  424MOL0     H55909  11.201   7.074   7.045 -1.1381  0.5403  0.9129
  424MOL0     H55910  11.028   7.090   7.014  0.3430 -0.8931  0.8279
  424MOL0     H55911  11.240   7.004   6.808 -0.1474  0.1077 -1.0712
  424MOL0     H55912  11.083   7.058   6.764 -0.5262 -2.0472  0.4024
  424MOL0     H55913  11.287   7.249   6.887  0.7474  1.6422 -1.8582
  424MOL0     H55914  11.132   7.282   6.804 -0.6620 -1.6730 -0.1376
  424MOL0     H55915  11.360   7.135   6.666  1.4875  1.2656 -2.8175
  424MOL0     H55916  11.342   7.314   6.673  0.0584  0.4097 -1.1865
  424MOL0     H55917  11.123   7.140   6.555  0.7574 -0.7004 -2.8972
  424MOL0     H55918  11.156   7.324   6.569 -2.4500  0.3056 -2.7161
  424MOL0     H55919  11.348   7.296   6.429 -2.3138  1.8130  0.4296
  424MOL0     H55920  11.215   7.234   6.349  1.3774  2.5230  0.3966
  424MOL0     H55921  11.181   6.944   6.438 -0.2302  0.6525 -1.1128
  424MOL0     H55922  11.262   6.704   6.351  0.4095  3.3883  2.0809
  424MOL0     H55923  11.450   6.679   6.342  1.1624  1.2206 -0.7696
  424MOL0     H55924  11.455   6.761   6.122  0.7957  0.8245  2.4009
  424MOL0     H55925  11.289   6.817   6.113 -0.2659 -0.9423 -0.5229
  424MOL0     H55926  11.392   6.540   6.122  1.4763  0.2052 -1.5862
  424MOL0     H55927  11.208   6.575   6.134 -0.3302  0.4707  1.6851
  424MOL0     H55928  11.281   6.703   5.908 -1.1451  0.3303  2.4007
  424MOL0     H55929  11.213   6.538   5.914 -0.1741  0.4740  1.2140
  424MOL0     H55930  11.245   6.613   5.684  2.5685  3.6535  1.2035
  424MOL0     H55931  11.286   6.577   5.450 -0.8189 -2.3916 -1.6104
  424MOL0     H55932  11.748   6.134   5.259 -2.8984 -1.1373 -0.2617
  424MOL0     H55933  11.829   6.071   5.034  1.8864  2.2054 -1.7581
  424MOL0     H55934  11.880   6.014   4.798  2.7041 -0.4752  1.1785
  424MOL0     H55935  11.987   6.154   4.828  0.4552 -0.1821 -0.5531
  424MOL0     H55936  12.024   6.111   4.604 -0.8306  1.2360 -1.2727
  424MOL0     H55937  11.931   6.247   4.600 -1.9567  0.2857 -3.4293
  424MOL0     H55938  11.729   6.112   4.521  0.5229 -0.1218 -3.8765
  424MOL0     H55939  11.796   5.965   4.544 -1.2508 -0.4027 -3.8770
  424MOL0     H55940  11.817   6.100   4.302 -0.7962 -0.7125  0.6599
  424MOL0     H55941  11.980   6.130   4.371 -1.3641 -0.3865 -1.9889
  424MOL0     H55942  11.975   5.927   4.222  2.7829  0.9524  1.5519
  424MOL0     H55943  11.847   5.860   4.322  0.8175  0.8040 -2.2097
  424MOL0     H55944  12.010   5.875   4.523 -0.5409 -0.6747 -0.3082
  424MOL0     H55945  12.126   5.953   4.421  2.0043 -2.6213  0.1039
  424MOL0     H55946  12.023   5.680   4.339  2.1678 -2.7024  2.1916
  424MOL0     H55947  12.178   5.758   4.310  0.9245 -2.3555  0.4619
  424MOL0     H55948  12.067   5.661   4.584 -0.1774  0.0191 -0.1526
  424MOL0     H55949  12.231   5.710   4.563 -0.3297 -1.0050  1.0524
  424MOL0     H55950  11.653   6.427   4.852 -0.3658  1.1467  1.3099
  424MOL0     H55951  11.576   6.490   5.059 -0.4128 -0.1665 -1.8342
  424MOL0     H55952  11.652   6.374   5.553 -0.3473  1.4063 -1.6132
  424MOL0     H55953  11.598   6.383   5.790  1.3179  0.1806 -0.5086
  424MOL0     H55954  11.125   6.686   6.767  1.4474 -1.1536 -1.2030
  424MOL0     H55955  11.121   6.588   6.573 -2.0242 -1.9829 -1.6879
  424MOL0     H55956  10.749   6.297   6.277  0.2555 -0.8041  0.0579
  424MOL0     H55957  10.723   6.195   6.041  2.6502 -1.3919 -2.5681
  424MOL0     H55958  10.694   6.136   5.860 -1.3671  0.1774 -1.6748
  424MOL0     H55959  10.853   6.083   5.804  1.9702  0.3320 -2.1130
  424MOL0     H55960  10.667   6.055   5.631 -1.9942  1.0478 -3.7626
  424MOL0     H55961  10.618   6.222   5.653  1.7248  2.4107 -3.6251
  424MOL0     H55962  10.791   6.309   5.531 -0.0120 -0.4684 -1.0551
  424MOL0     H55963  10.745   6.167   5.436 -0.6293 -0.2393  0.2260
  424MOL0     H55964  10.988   6.164   5.621 -1.1632 -2.6491  1.5463
  424MOL0     H55965  10.945   6.034   5.512 -0.4998 -1.4624 -2.3589
  424MOL0     H55966  11.163   6.308   5.277 -0.9077 -2.3417 -2.6447
  424MOL0     H55967  10.963   6.500   5.881  2.0419  0.1299  1.5334
  424MOL0     H55968  10.960   6.633   6.093 -5.5200  2.9104 -0.1246
  425MOL0     O55969   9.052   1.465   3.418  0.4839  0.1082  0.0192
  425MOL0     C55970   8.940   1.510   3.395  0.4256 -0.0252 -0.3695
  425MOL0     O55971   8.820   1.469   3.447  0.5477 -1.1482  0.4972
  425MOL0     C55972   8.791   1.377   3.540 -0.2814  0.1355  1.0403
  425MOL0     C55973   8.652   1.360   3.562 -0.7503  0.0277  0.6654
  425MOL0     C55974   8.614   1.269   3.665 -0.3310 -1.4660  0.0381
  425MOL0     C55975   8.711   1.215   3.758 -0.2073 -0.9794  0.3545
  425MOL0     O55976   8.654   1.147   3.861  0.5362 -0.4397 -0.0155
  425MOL0     C55977   8.718   1.154   3.992 -0.3465  0.5423  0.2778
  425MOL0     C55978   8.782   1.012   4.029  0.8710 -0.4317 -0.1065
  425MOL0     C55979   8.882   1.018   4.148 -0.5328  1.0257 -0.5656
  425MOL0     C55980   8.921   0.884   4.206 -0.0162 -0.4923  0.1579
  425MOL0     C55981   9.022   0.903   4.329 -0.0247  1.3282  1.0464
  425MOL0     C55982   9.160   0.824   4.301 -0.2872  0.4592 -0.2897
  425MOL0     C55983   9.276   0.885   4.371 -0.9912 -0.0990 -0.6595
  425MOL0     C55984   9.252   0.904   4.527 -0.0794 -0.2218  0.3954
  425MOL0     N55985   9.158   1.010   4.578 -1.0185  0.4037  0.8728
  425MOL0     C55986   9.161   1.143   4.535  0.3707  0.1264  0.5032
  425MOL0     C55987   9.043   1.195   4.574 -0.5134  0.4325  0.1906
  425MOL0     C55988   8.994   1.335   4.552 -1.1547 -0.3803  0.1300
  425MOL0     C55989   8.905   1.351   4.424 -0.7704  0.6374 -0.8479
  425MOL0     C55990   8.775   1.425   4.462  0.0462 -0.4143 -1.0247
  425MOL0     C55991   8.667   1.431   4.356  0.2263  0.4335  0.2746
  425MOL0     O55992   8.613   1.301   4.321 -0.5861  0.4020 -0.7374
  425MOL0     C55993   8.573   1.224   4.430 -0.1733 -0.1517  0.1982
  425MOL0     C55994   8.644   1.110   4.462 -0.0002 -0.8788 -0.6228
  425MOL0     C55995   8.615   1.037   4.578  1.0484 -0.0778 -0.3654
  425MOL0     C55996   8.524   1.087   4.675 -0.2874  1.1756 -0.4113
  425MOL0     C55997   8.517   1.018   4.820  0.4090 -0.2861  0.1138
  425MOL0     O55998   8.441   1.089   4.912  0.5631 -0.0630 -0.1092
  425MOL0     C55999   8.398   1.021   5.027 -0.5915 -0.6920  0.7572
  425MOL0     C56000   8.258   0.991   5.046 -0.8772 -0.0420 -0.7933
  425MOL0     C56001   8.235   0.908   5.165 -0.2295 -0.8268 -0.5917
  425MOL0     C56002   8.329   0.872   5.258  1.2432 -0.0929 -0.0564
  425MOL0     O56003   8.287   0.787   5.359  0.8322 -0.1113 -0.1641
  425MOL0     C56004   8.312   0.840   5.491 -0.4944  0.1986  1.3669
  425MOL0     C56005   8.224   0.793   5.600 -0.2546 -0.2838 -0.7799
  425MOL0     C56006   8.080   0.852   5.601  0.5544  1.4985  0.3658
  425MOL0     C56007   8.064   1.005   5.621 -0.1688 -0.0254 -0.0905
  425MOL0     C56008   7.911   1.042   5.627 -0.2548 -0.4906 -0.6442
  425MOL0     C56009   7.870   1.188   5.625 -0.5066 -0.8328 -1.3270
  425MOL0     C56010   7.733   1.210   5.665 -0.1585  0.0682 -0.2164
  425MOL0     C56011   7.624   1.155   5.559 -0.4260  1.3512 -0.8395
  425MOL0    Cl56012   7.649   1.244   5.409 -0.4294 -0.1124  0.0677
  425MOL0     C56013   8.461   0.918   5.237  0.4897 -0.2180  0.5930
  425MOL0     C56014   8.493   0.990   5.119 -0.4904 -0.5695 -0.0686
  425MOL0     O56015   8.567   0.909   4.829 -0.3929  0.1586  0.4039
  425MOL0     C56016   8.455   1.202   4.633 -0.3652  0.7799  0.2015
  425MOL0     C56017   8.480   1.275   4.515  0.9748  0.5728 -0.7472
  425MOL0     N56018   8.971   1.099   4.640  0.4361  0.4127  0.2831
  425MOL0     N56019   9.035   0.988   4.630  0.1624 -0.6456 -0.4201
  425MOL0     C56020   8.852   1.220   3.723 -0.0510 -1.1087 -0.0626
  425MOL0     C56021   8.887   1.309   3.613 -0.2131  0.8742  0.0564
  425MOL0     C56022   8.934   1.599   3.281 -0.1175 -1.0898 -0.1959
  425MOL0     C56023   9.046   1.606   3.197  0.6215 -1.1138  0.7107
  425MOL0     C56024   9.035   1.686   3.085 -0.6331 -0.3440  0.9993
  425MOL0     C56025   8.919   1.760   3.048 -0.5263 -0.2779  0.3567
  425MOL0     O56026   8.929   1.817   2.924  0.3916 -0.6613 -0.6752
  425MOL0     C56027   8.830   1.906   2.889 -1.1394  0.1760 -0.4837
  425MOL0     C56028   8.849   1.925   2.739  0.2611 -0.5484  0.6428
  425MOL0     C56029   8.769   2.047   2.683  0.2671 -0.6571 -0.2712
  425MOL0     C56030   8.818   2.185   2.733  0.0702 -0.3230 -0.6419
  425MOL0     C56031   8.934   2.236   2.656 -0.2906 -0.0035 -1.2531
  425MOL0     C56032   9.024   2.282   2.575 -0.7484  0.4265  1.3862
  425MOL0     C56033   8.812   1.756   3.139  0.7864  0.2955  0.5346
  425MOL0     C56034   8.823   1.675   3.251  0.3081  0.1492 -0.9710
  425MOL0     H56035   8.587   1.411   3.492  2.7332  1.5732 -1.7497
  425MOL0     H56036   8.508   1.274   3.687  0.5777  0.2676  5.4099
  425MOL0     H56037   8.646   1.174   4.072  0.3146 -0.7443  1.2075
  425MOL0     H56038   8.802   1.223   3.999  2.5082 -2.7660  1.4544
  425MOL0     H56039   8.813   0.953   3.942  1.4307 -2.2945  1.2948
  425MOL0     H56040   8.701   0.947   4.063  2.2482 -1.9559  0.3652
  425MOL0     H56041   8.834   1.068   4.232  1.1378 -0.3994  1.3330
  425MOL0     H56042   8.977   1.066   4.123 -0.0050 -0.4602 -1.5324
  425MOL0     H56043   8.835   0.830   4.246 -0.6943 -0.2661 -0.9554
  425MOL0     H56044   8.953   0.830   4.117 -4.0846  0.9013 -2.4353
  425MOL0     H56045   8.968   0.866   4.417 -0.9763  0.2262  0.0431
  425MOL0     H56046   9.036   1.010   4.347 -0.3805  0.9181  4.3400
  425MOL0     H56047   9.185   0.820   4.195 -0.7339  2.3865 -0.5213
  425MOL0     H56048   9.144   0.721   4.333 -0.6675  0.3561 -0.8166
  425MOL0     H56049   9.369   0.829   4.355 -0.4529  1.0939 -1.9267
  425MOL0     H56050   9.302   0.983   4.329  0.1976  0.9005  2.1566
  425MOL0     H56051   9.346   0.907   4.584  0.1811 -0.4083 -0.0216
  425MOL0     H56052   9.198   0.813   4.554  0.2887 -0.9065 -1.0609
  425MOL0     H56053   9.246   1.195   4.493 -0.8283 -0.2275 -2.5883
  425MOL0     H56054   9.077   1.407   4.555  0.4454 -1.9827 -2.4599
  425MOL0     H56055   8.933   1.363   4.639  0.0753  0.6840  0.6812
  425MOL0     H56056   8.889   1.248   4.392  0.2026  0.1302  0.2329
  425MOL0     H56057   8.956   1.412   4.349  1.3394  1.0927  0.8282
  425MOL0     H56058   8.739   1.399   4.562  2.0920  0.8220  0.1035
  425MOL0     H56059   8.800   1.531   4.478  1.8053 -0.5960 -2.2915
  425MOL0     H56060   8.722   1.457   4.265  1.3920 -4.4241 -0.7358
  425MOL0     H56061   8.594   1.508   4.380 -1.6824 -0.0206 -3.3091
  425MOL0     H56062   8.726   1.085   4.396  1.9055 -2.6289  2.1898
  425MOL0     H56063   8.679   0.951   4.597 -1.0081 -2.0497 -1.8863
  425MOL0     H56064   8.180   1.014   4.974 -2.1676  0.7278  0.7889
  425MOL0     H56065   8.142   0.852   5.169  0.2048 -1.7803 -2.6026
  425MOL0     H56066   8.316   0.949   5.489  0.0819  0.2246  2.7055
  425MOL0     H56067   8.418   0.818   5.509 -0.1863  2.7050  3.1683
  425MOL0     H56068   8.274   0.814   5.695 -0.9302 -0.9641 -0.2550
  425MOL0     H56069   8.213   0.685   5.610  3.5460 -0.6183  2.4059
  425MOL0     H56070   8.018   0.809   5.680  0.6171 -2.7163 -1.6206
  425MOL0     H56071   8.034   0.833   5.504  3.6560  3.2230 -1.6546
  425MOL0     H56072   8.110   1.043   5.713 -0.0276  0.5955 -0.4146
  425MOL0     H56073   8.105   1.063   5.538 -0.9451  0.5453 -0.0882
  425MOL0     H56074   7.875   0.989   5.715  0.7328 -0.5213 -0.2421
  425MOL0     H56075   7.861   0.994   5.543 -0.5482 -0.9567 -0.2050
  425MOL0     H56076   7.902   1.236   5.532 -1.9623 -0.9874 -1.9316
  425MOL0     H56077   7.933   1.244   5.695 -1.0219 -0.6206 -1.0267
  425MOL0     H56078   7.720   1.159   5.761  0.3608 -1.1723 -0.7810
  425MOL0     H56079   7.708   1.310   5.701 -1.9134 -1.3938  3.1002
  425MOL0     H56080   7.530   1.184   5.607  0.5932  1.3543  1.2955
  425MOL0     H56081   7.636   1.047   5.551  0.0493  1.5139 -2.6586
  425MOL0     H56082   8.526   0.897   5.322 -3.4551 -1.3041  3.6271
  425MOL0     H56083   8.595   1.022   5.100  0.4842 -2.8574  0.9900
  425MOL0     H56084   8.381   1.237   4.704  0.4081 -0.6978  1.7783
  425MOL0     H56085   8.427   1.369   4.501 -1.7391 -0.2147  2.8210
  425MOL0     H56086   8.930   1.182   3.788  0.3868 -0.4565 -0.2067
  425MOL0     H56087   8.992   1.331   3.603  0.4504 -2.2308 -0.9508
  425MOL0     H56088   9.139   1.551   3.209  2.0686  0.3182 -2.6106
  425MOL0     H56089   9.114   1.701   3.012  0.5561 -0.0830  2.2961
  425MOL0     H56090   8.848   2.000   2.941 -0.6969  0.7501 -1.6381
  425MOL0     H56091   8.731   1.870   2.916 -1.0458 -0.4874 -0.9825
  425MOL0     H56092   8.952   1.943   2.709  0.6093  0.1134  2.1145
  425MOL0     H56093   8.820   1.831   2.692 -0.9042 -0.4741  1.1657
  425MOL0     H56094   8.664   2.036   2.712  0.4492 -0.9216  0.3094
  425MOL0     H56095   8.773   2.043   2.574  1.6302 -1.4714 -0.2074
  425MOL0     H56096   8.736   2.258   2.742 -0.4263 -1.0465  1.1211
  425MOL0     H56097   8.856   2.166   2.833 -2.7457  0.7824  0.7653
  425MOL0     H56098   9.092   2.312   2.497  0.4597 -0.6500  1.9805
  425MOL0     H56099   8.722   1.814   3.123  1.1768  0.6096 -0.6136
  425MOL0     H56100   8.733   1.661   3.311  0.2349  1.1067 -0.8362
  426MOL0     O56101   9.532   4.079   1.095 -0.1835 -0.3497 -0.3378
  426MOL0     C56102   9.554   4.141   0.995  0.3604 -1.0025 -0.0728
  426MOL0     O56103   9.660   4.221   0.967  0.4913 -0.0008 -0.3972
  426MOL0     C56104   9.771   4.230   1.043  0.4295  0.3973 -0.5885
  426MOL0     C56105   9.886   4.263   0.974  0.9649  0.0794 -0.0067
  426MOL0     C56106   9.993   4.297   1.051 -0.0107 -1.1891  0.3660
  426MOL0     C56107  10.007   4.278   1.185 -0.1898 -0.5480 -0.0312
  426MOL0     O56108  10.131   4.294   1.233  0.0784 -0.0861  0.0564
  426MOL0     C56109  10.172   4.218   1.346 -0.7194  0.6324 -1.6041
  426MOL0     C56110  10.197   4.079   1.300  0.4957  0.1066  0.3673
  426MOL0     C56111  10.319   4.005   1.350 -0.5792  0.1413 -0.4557
  426MOL0     C56112  10.359   3.882   1.277 -0.9100  0.0355  0.0835
  426MOL0     C56113  10.480   3.818   1.340 -0.6403 -0.3918 -0.3926
  426MOL0     C56114  10.544   3.720   1.237 -0.4366 -0.0418  0.5133
  426MOL0     C56115  10.655   3.643   1.306  0.1228  0.4643 -0.3378
  426MOL0     C56116  10.609   3.539   1.414 -0.2492 -0.2408 -0.7457
  426MOL0     N56117  10.585   3.581   1.546 -0.5753 -0.6525 -0.0789
  426MOL0     C56118  10.670   3.656   1.624 -0.2972  0.5950 -0.4777
  426MOL0     C56119  10.605   3.676   1.747 -0.2185 -1.1261  0.4080
  426MOL0     C56120  10.663   3.762   1.864 -0.7122  0.0123  0.6213
  426MOL0     C56121  10.687   3.668   1.973 -0.2123 -0.9745 -0.9243
  426MOL0     C56122  10.791   3.554   1.951  0.7290 -0.1535 -0.1859
  426MOL0     C56123  10.810   3.488   2.089 -0.3850  0.2032 -1.4054
  426MOL0     O56124  10.915   3.391   2.081  0.0614 -0.7326 -0.9445
  426MOL0     C56125  10.987   3.370   2.197 -0.2970 -0.6093 -0.8506
  426MOL0     C56126  11.077   3.263   2.187 -0.5808  0.8050  0.1888
  426MOL0     C56127  11.174   3.220   2.290 -0.5053  0.1489  1.0581
  426MOL0     C56128  11.173   3.289   2.412 -0.2622  0.5085 -0.7708
  426MOL0     C56129  11.264   3.247   2.513  0.3086  0.6691 -0.0842
  426MOL0     O56130  11.228   3.267   2.641  0.5176  0.7051  0.1576
  426MOL0     C56131  11.320   3.245   2.740 -0.7131  0.3237  0.6224
  426MOL0     C56132  11.277   3.195   2.860  0.3283  0.1808 -0.4661
  426MOL0     C56133  11.351   3.201   2.974  0.6107 -1.0848 -0.2964
  426MOL0     C56134  11.482   3.256   2.969 -0.1281 -0.4226  0.1910
  426MOL0     O56135  11.565   3.281   3.079  0.1512 -0.0344  0.3659
  426MOL0     C56136  11.560   3.176   3.180  0.3599 -0.0200 -0.3640
  426MOL0     C56137  11.703   3.187   3.239  1.0679 -0.1458  0.7528
  426MOL0     C56138  11.690   3.150   3.395  0.0344  0.6911 -0.4150
  426MOL0     C56139  11.617   3.255   3.479  0.3186 -0.3056 -0.1242
  426MOL0     C56140  11.639   3.270   3.629 -0.1613  0.2876 -0.0645
  426MOL0     C56141  11.784   3.320   3.663 -1.2510  0.0483 -0.1763
  426MOL0     C56142  11.783   3.370   3.803 -0.0146 -0.5206  0.0377
  426MOL0     C56143  11.918   3.421   3.854  0.6267  1.0842  0.8836
  426MOL0    Cl56144  11.930   3.493   4.014 -0.0114  0.1483 -0.4886
  426MOL0     C56145  11.528   3.310   2.849 -0.7883  0.1667  0.1970
  426MOL0     C56146  11.444   3.303   2.737 -0.2889  1.1004  0.3414
  426MOL0     O56147  11.361   3.182   2.479 -0.7312  0.1243  0.4904
  426MOL0     C56148  11.089   3.400   2.428  0.2886 -0.0910  0.3441
  426MOL0     C56149  10.993   3.441   2.321  0.1880  0.3453 -0.1544
  426MOL0     N56150  10.482   3.605   1.734 -0.0370 -0.9497 -0.1546
  426MOL0     N56151  10.471   3.559   1.613  0.2974  0.3625  0.9045
  426MOL0     C56152   9.902   4.224   1.252  0.6549  0.2144  1.2698
  426MOL0     C56153   9.780   4.214   1.183  0.0699 -0.0767  0.7441
  426MOL0     C56154   9.443   4.143   0.895 -0.2360 -0.5604 -0.4438
  426MOL0     C56155   9.314   4.087   0.915  0.3473  0.0512 -0.6169
  426MOL0     C56156   9.206   4.106   0.825  0.3150  0.6636 -0.4254
  426MOL0     C56157   9.214   4.179   0.712 -0.1382  0.0086  0.5036
  426MOL0     O56158   9.106   4.179   0.622 -0.6567 -0.5110  0.0614
  426MOL0     C56159   9.087   4.313   0.567  0.7359  0.6626  0.3280
  426MOL0     C56160   8.944   4.320   0.522  0.0097 -0.2368  0.8576
  426MOL0     C56161   8.930   4.252   0.385  0.3311 -0.1360 -0.8739
  426MOL0     C56162   8.841   4.327   0.286  0.2009 -0.1604  1.3486
  426MOL0     C56163   8.927   4.442   0.252  0.6094  0.3460 -0.4841
  426MOL0     C56164   8.994   4.539   0.221 -0.5616 -1.1501 -0.4881
  426MOL0     C56165   9.343   4.241   0.683  0.3564 -0.4889 -0.1108
  426MOL0     C56166   9.453   4.232   0.781 -0.3201 -0.3898  0.0123
  426MOL0     H56167   9.895   4.259   0.865 -1.3440 -0.0554 -0.2382
  426MOL0     H56168  10.084   4.341   1.010 -1.9348  2.0079 -0.8842
  426MOL0     H56169  10.106   4.231   1.432 -0.9482 -0.4374 -1.6003
  426MOL0     H56170  10.268   4.251   1.386 -0.2411 -2.5808  0.2339
  426MOL0     H56171  10.208   4.083   1.191 -1.9053 -0.9645  0.0294
  426MOL0     H56172  10.104   4.023   1.311  1.0637 -1.3360 -1.6407
  426MOL0     H56173  10.293   3.980   1.453 -2.4694  3.0106 -0.1157
  426MOL0     H56174  10.401   4.077   1.359 -0.5765  0.0406  0.3831
  426MOL0     H56175  10.268   3.822   1.290  0.8613 -2.3849  2.6114
  426MOL0     H56176  10.374   3.886   1.169  1.7672 -0.3029  0.3708
  426MOL0     H56177  10.452   3.776   1.437 -1.2154  2.5282  0.8250
  426MOL0     H56178  10.552   3.895   1.371 -0.9737 -0.9577  1.9734
  426MOL0     H56179  10.586   3.777   1.154  1.0073  1.7302  2.3538
  426MOL0     H56180  10.472   3.649   1.194  0.8172 -3.1332  3.1598
  426MOL0     H56181  10.717   3.586   1.237 -1.8917  0.2699 -2.0698
  426MOL0     H56182  10.724   3.712   1.356  0.0805 -1.3969  2.5672
  426MOL0     H56183  10.693   3.468   1.420  0.7194  0.9317  0.2359
  426MOL0     H56184  10.518   3.491   1.379  0.4069  0.0066 -2.9160
  426MOL0     H56185  10.765   3.688   1.585  0.5670  0.6343  1.5552
  426MOL0     H56186  10.593   3.838   1.898  1.1794  1.7947  0.7220
  426MOL0     H56187  10.756   3.807   1.826  0.9702 -2.4252  1.5701
  426MOL0     H56188  10.589   3.647   2.017 -2.1745  1.1412 -3.8922
  426MOL0     H56189  10.730   3.729   2.054 -2.7021  1.6702 -1.4618
  426MOL0     H56190  10.747   3.497   1.870 -1.3655 -2.0316  2.1179
  426MOL0     H56191  10.895   3.586   1.934  0.4141  0.3347 -1.2643
  426MOL0     H56192  10.720   3.441   2.131  0.0703 -0.1871 -0.8390
  426MOL0     H56193  10.841   3.566   2.159  0.9257  0.3178 -2.0791
  426MOL0     H56194  11.080   3.219   2.088 -0.0250 -2.6687  1.5805
  426MOL0     H56195  11.252   3.148   2.264  0.1994  1.5322 -0.9719
  426MOL0     H56196  11.174   3.158   2.858 -0.3895  2.0741 -0.5974
  426MOL0     H56197  11.323   3.165   3.073 -2.3966  1.6220  0.0091
  426MOL0     H56198  11.540   3.076   3.139 -4.0704 -0.0596  1.4121
  426MOL0     H56199  11.487   3.190   3.260 -0.7677 -5.6030  0.0180
  426MOL0     H56200  11.739   3.288   3.219 -2.9486  1.2445 -0.3989
  426MOL0     H56201  11.765   3.109   3.192 -0.5668 -0.8156 -0.3932
  426MOL0     H56202  11.788   3.128   3.437  0.0699  0.1018 -0.8041
  426MOL0     H56203  11.635   3.056   3.406  4.1102 -1.6899  2.1659
  426MOL0     H56204  11.649   3.355   3.447  2.1065 -1.0182 -0.6790
  426MOL0     H56205  11.509   3.238   3.476 -0.5998  3.0419  3.8591
  426MOL0     H56206  11.619   3.174   3.679 -1.4536  0.0157 -1.0686
  426MOL0     H56207  11.568   3.342   3.670  0.0465 -0.9255  2.7062
  426MOL0     H56208  11.804   3.403   3.595  0.3511  0.0208  0.2058
  426MOL0     H56209  11.858   3.241   3.642 -2.1348 -0.3673 -1.8699
  426MOL0     H56210  11.706   3.447   3.801 -0.3767 -0.8867 -0.2006
  426MOL0     H56211  11.748   3.284   3.860 -0.7174 -2.2787 -2.8649
  426MOL0     H56212  11.943   3.498   3.781 -1.1388  1.2518  0.4112
  426MOL0     H56213  12.001   3.350   3.844  1.9030  2.7480 -1.2044
  426MOL0     H56214  11.621   3.365   2.855 -1.2189  0.7762  4.0071
  426MOL0     H56215  11.479   3.350   2.646  4.1442 -2.7363 -0.3202
  426MOL0     H56216  11.063   3.447   2.523 -1.7977  1.3207 -0.8431
  426MOL0     H56217  10.931   3.527   2.345  0.2450  1.2189 -2.7492
  426MOL0     H56218   9.899   4.183   1.352  1.2837 -4.0140 -0.2466
  426MOL0     H56219   9.687   4.188   1.231 -0.2759  4.8040  3.4189
  426MOL0     H56220   9.286   4.040   1.009 -0.8445  2.6619  0.4323
  426MOL0     H56221   9.113   4.064   0.863  1.2560  0.4171  1.7985
  426MOL0     H56222   9.159   4.323   0.486  1.2015 -2.2899  0.2489
  426MOL0     H56223   9.100   4.393   0.640  3.1193  0.4791  0.1904
  426MOL0     H56224   8.881   4.264   0.591  0.3731 -0.5531  0.9324
  426MOL0     H56225   8.914   4.426   0.524  1.8008  0.4320 -1.7231
  426MOL0     H56226   8.878   4.157   0.401 -0.4249 -0.2380 -3.4361
  426MOL0     H56227   9.024   4.218   0.340  1.8810 -1.0044  2.6878
  426MOL0     H56228   8.824   4.267   0.196  1.5960  0.2412  0.7882
  426MOL0     H56229   8.747   4.366   0.323 -0.5221  0.2179 -0.7523
  426MOL0     H56230   9.041   4.627   0.183  3.7407 -1.1405  3.8360
  426MOL0     H56231   9.367   4.283   0.586  1.0925 -0.1272  0.2238
  426MOL0     H56232   9.547   4.278   0.754 -0.7921 -0.2272 -1.4966
  427MOL0     O56233   2.648   5.042  11.218 -0.1864 -0.1299  0.1756
  427MOL0     C56234   2.574   4.956  11.270  0.0093 -0.4260  0.3496
  427MOL0     O56235   2.601   4.818  11.273  0.7006 -0.0890 -0.0630
  427MOL0     C56236   2.706   4.778  11.201 -0.3000  0.1781 -0.0999
  427MOL0     C56237   2.811   4.712  11.264 -0.3463 -0.9074  0.1905
  427MOL0     C56238   2.912   4.671  11.186 -0.1704 -0.7372  0.5746
  427MOL0     C56239   2.907   4.660  11.050  0.8875 -1.0571 -0.0206
  427MOL0     O56240   3.003   4.616  10.964  0.0571  0.1159  0.3157
  427MOL0     C56241   3.129   4.572  11.022  0.4366 -0.6749  0.3786
  427MOL0     C56242   3.219   4.530  10.897  0.6786  0.8690 -1.2802
  427MOL0     C56243   3.279   4.646  10.833 -0.4634 -0.4965  0.3848
  427MOL0     C56244   3.405   4.608  10.756 -0.9823 -0.3441  0.0607
  427MOL0     C56245   3.465   4.736  10.700  0.8362 -0.1888  0.6897
  427MOL0     C56246   3.520   4.837  10.794  0.1723  0.0949  0.2229
  427MOL0     C56247   3.622   4.775  10.887 -0.1079 -0.3500 -0.0080
  427MOL0     C56248   3.717   4.887  10.952  0.1008 -0.4819 -0.1291
  427MOL0     N56249   3.829   4.826  11.027  0.3963 -0.3142 -0.0120
  427MOL0     C56250   3.961   4.832  10.994  0.1325 -0.3701  0.7106
  427MOL0     C56251   4.028   4.755  11.093 -0.1841 -0.0231  1.3027
  427MOL0     C56252   4.176   4.728  11.089  0.2243 -0.3904 -0.8393
  427MOL0     C56253   4.204   4.590  11.037  0.3092 -0.6077  1.3388
  427MOL0     C56254   4.340   4.538  11.049  0.6669  0.4602  0.2668
  427MOL0     C56255   4.393   4.518  11.185  0.1396 -0.2255  0.7611
  427MOL0     O56256   4.489   4.623  11.199 -0.0216 -0.2253  0.2639
  427MOL0     C56257   4.542   4.639  11.330 -0.1961 -0.3041  0.8989
  427MOL0     C56258   4.541   4.540  11.422 -0.1611 -0.1472 -0.1371
  427MOL0     C56259   4.604   4.563  11.545  1.8553 -0.8004 -0.5624
  427MOL0     C56260   4.637   4.695  11.581 -1.2182  0.1029  0.5558
  427MOL0     C56261   4.719   4.719  11.691 -0.7150 -0.0477  0.0679
  427MOL0     O56262   4.839   4.647  11.681  0.3358 -0.7780 -0.0206
  427MOL0     C56263   4.904   4.623  11.800 -0.3075  0.0212  0.6330
  427MOL0     C56264   5.043   4.615  11.798 -1.0475  1.1020 -0.0795
  427MOL0     C56265   5.119   4.574  11.912 -0.6088  0.2931  0.8291
  427MOL0     C56266   5.062   4.544  12.038 -0.6532  0.8208  1.4584
  427MOL0     O56267   5.148   4.518  12.136 -0.7243 -0.1628 -0.1964
  427MOL0     C56268   5.091   4.495  12.268  0.3481 -0.9591 -0.8694
  427MOL0     C56269   5.054   4.630  12.338 -0.0291  1.3461  0.8005
  427MOL0     C56270   4.943   4.620  12.440 -0.1034  0.8020 -0.6463
  427MOL0     C56271   4.972   4.537  12.563  0.3079  0.8767 -0.4516
  427MOL0     C56272   4.856   4.446  12.614 -0.5844  1.0319  0.7530
  427MOL0     C56273   4.747   4.533  12.679 -0.1118  0.2007 -1.0219
  427MOL0     C56274   4.665   4.454  12.780 -0.8663 -1.4598 -0.4015
  427MOL0     C56275   4.545   4.385  12.723 -0.6815 -0.3734  0.8856
  427MOL0    Cl56276   4.599   4.256  12.606 -0.0219  0.0087 -0.3408
  427MOL0     C56277   4.915   4.540  12.032  0.5123 -0.3494  0.4221
  427MOL0     C56278   4.844   4.589  11.923  0.7091  0.0569 -0.5504
  427MOL0     O56279   4.682   4.783  11.786 -0.0772 -0.0024  0.2314
  427MOL0     C56280   4.629   4.795  11.486 -0.6776 -0.9964  0.2983
  427MOL0     C56281   4.581   4.771  11.355  0.1618  0.4560  0.2894
  427MOL0     N56282   3.931   4.705  11.180 -0.4458 -0.3975  0.2707
  427MOL0     N56283   3.819   4.745  11.133  0.7890 -0.3338 -0.2653
  427MOL0     C56284   2.799   4.725  10.983 -0.5989  0.1380  0.0122
  427MOL0     C56285   2.697   4.782  11.063 -1.0858 -0.0144  0.5377
  427MOL0     C56286   2.437   4.997  11.312  0.5941  0.6420 -0.3961
  427MOL0     C56287   2.407   5.128  11.351 -0.4983  0.4680 -0.0997
  427MOL0     C56288   2.284   5.160  11.407 -1.0502 -0.4412 -0.1608
  427MOL0     C56289   2.188   5.058  11.422  0.7339  0.5096 -0.6712
  427MOL0     O56290   2.076   5.090  11.483  0.4909 -0.6943  0.0569
  427MOL0     C56291   2.039   5.234  11.504 -0.4682  0.2407 -1.3462
  427MOL0     C56292   1.876   5.240  11.524 -0.1102  0.1570 -0.0025
  427MOL0     C56293   1.826   5.153  11.647 -0.6187 -1.1941 -0.3309
  427MOL0     C56294   1.826   5.234  11.775 -0.7817 -0.3217  0.4296
  427MOL0     C56295   1.695   5.292  11.807 -0.3948 -0.2732 -0.2101
  427MOL0     C56296   1.584   5.332  11.827 -0.0823  0.5507  0.1425
  427MOL0     C56297   2.223   4.924  11.400  0.6192  0.0954 -0.2612
  427MOL0     C56298   2.347   4.894  11.341 -0.1101 -1.0003 -1.2523
  427MOL0     H56299   2.809   4.708  11.373  3.4845  0.5064  0.4419
  427MOL0     H56300   2.997   4.647  11.249  2.0480  2.5934 -0.8483
  427MOL0     H56301   3.125   4.488  11.092 -2.4444 -1.4166 -0.5146
  427MOL0     H56302   3.167   4.659  11.076 -1.1012  0.1991  0.1312
  427MOL0     H56303   3.160   4.463  10.834 -1.6353  0.8972  0.7113
  427MOL0     H56304   3.301   4.474  10.941 -0.9858  0.5782  1.6742
  427MOL0     H56305   3.317   4.712  10.912  1.0548 -0.0133 -0.7061
  427MOL0     H56306   3.202   4.697  10.774 -0.2922  0.4947  0.9929
  427MOL0     H56307   3.489   4.566  10.812  1.2860  0.3691 -2.5398
  427MOL0     H56308   3.382   4.539  10.674 -3.8771  0.7779 -0.1679
  427MOL0     H56309   3.383   4.789  10.649  3.4851  3.2032 -0.4241
  427MOL0     H56310   3.541   4.721  10.624 -0.9345 -3.8262 -0.5954
  427MOL0     H56311   3.430   4.878  10.842  1.4070  3.0962  0.2371
  427MOL0     H56312   3.569   4.911  10.730  1.3008  0.5604  1.5740
  427MOL0     H56313   3.574   4.723  10.969 -1.9889 -1.5715 -1.7913
  427MOL0     H56314   3.687   4.708  10.831  0.1186 -0.8392  0.8350
  427MOL0     H56315   3.660   4.941  11.029  3.0269  0.5571  1.4774
  427MOL0     H56316   3.751   4.960  10.878 -2.9908 -0.3610 -1.5933
  427MOL0     H56317   4.014   4.885  10.915 -1.9508  3.4517  1.6229
  427MOL0     H56318   4.219   4.738  11.189 -2.3779  0.1314  0.3355
  427MOL0     H56319   4.221   4.817  11.043  1.5164 -0.5049  0.1694
  427MOL0     H56320   4.189   4.595  10.929  0.1767 -0.7685  1.3508
  427MOL0     H56321   4.129   4.524  11.080 -1.6786  0.3394 -0.5037
  427MOL0     H56322   4.341   4.437  11.007 -2.4122  1.2253 -1.9478
  427MOL0     H56323   4.411   4.599  10.992  0.0213 -0.6311 -1.8107
  427MOL0     H56324   4.440   4.421  11.204  0.9285 -0.4093 -1.7882
  427MOL0     H56325   4.323   4.548  11.264 -0.9804  0.5177 -0.4676
  427MOL0     H56326   4.509   4.438  11.402  0.0471 -0.8755  2.7647
  427MOL0     H56327   4.604   4.480  11.616 -3.7197  0.7145  1.7180
  427MOL0     H56328   5.101   4.631  11.708 -0.3247  0.2573  0.2190
  427MOL0     H56329   5.227   4.584  11.914 -0.7211  2.2971  3.4436
  427MOL0     H56330   5.156   4.429  12.326  0.0520 -0.9354 -0.5086
  427MOL0     H56331   4.994   4.447  12.255  2.0450 -4.4344 -1.9539
  427MOL0     H56332   5.005   4.686  12.258  0.4620 -4.4692 -4.3267
  427MOL0     H56333   5.145   4.674  12.380  2.1716 -1.2073 -0.9646
  427MOL0     H56334   4.850   4.574  12.407 -0.5748 -0.9863  2.8324
  427MOL0     H56335   4.924   4.711  12.497  2.8794 -0.6291  3.1021
  427MOL0     H56336   5.050   4.464  12.540 -2.0661 -2.1200  0.3321
  427MOL0     H56337   5.010   4.598  12.645  3.2530 -0.7998 -0.4142
  427MOL0     H56338   4.910   4.381  12.683  1.4283 -0.0785 -1.6808
  427MOL0     H56339   4.817   4.382  12.534  1.0940 -0.4377  1.0317
  427MOL0     H56340   4.694   4.602  12.613  1.3383  2.2700 -0.1191
  427MOL0     H56341   4.808   4.606  12.733 -0.4569  0.6098 -1.1869
  427MOL0     H56342   4.733   4.384  12.829  0.6425  2.0468  3.0675
  427MOL0     H56343   4.633   4.512  12.867 -0.7016 -0.4068 -1.0343
  427MOL0     H56344   4.473   4.449  12.672  0.6655 -0.3216 -1.0188
  427MOL0     H56345   4.493   4.339  12.809 -0.0042  1.5961  2.4262
  427MOL0     H56346   4.854   4.499  12.112 -1.7228 -0.4671 -1.2334
  427MOL0     H56347   4.736   4.595  11.932  0.5247 -0.4972 -2.0570
  427MOL0     H56348   4.647   4.896  11.523  1.4570 -0.9424 -0.7584
  427MOL0     H56349   4.547   4.854  11.293  0.6092  1.0558  0.8415
  427MOL0     H56350   2.791   4.698  10.879  0.5339  2.1733 -0.6438
  427MOL0     H56351   2.623   4.840  11.009  1.2419  2.1213 -0.5833
  427MOL0     H56352   2.486   5.202  11.355  4.8818 -4.5596 -0.4972
  427MOL0     H56353   2.275   5.252  11.465 -0.9766  0.2363 -1.1904
  427MOL0     H56354   2.074   5.285  11.414  1.5756 -1.4315 -1.5667
  427MOL0     H56355   2.088   5.272  11.594 -1.8372  3.4205 -1.8112
  427MOL0     H56356   1.855   5.347  11.535  4.7174  1.1977  1.7493
  427MOL0     H56357   1.840   5.199  11.430  3.2050 -3.2549 -0.0146
  427MOL0     H56358   1.879   5.058  11.657  0.5811 -0.4268  1.1220
  427MOL0     H56359   1.720   5.129  11.636 -1.5745 -0.2221  4.4936
  427MOL0     H56360   1.863   5.174  11.858  0.7414 -0.6443 -0.4521
  427MOL0     H56361   1.904   5.310  11.778 -0.4721 -0.6056  4.3570
  427MOL0     H56362   1.487   5.374  11.843 -0.6451  0.0368 -1.6721
  427MOL0     H56363   2.161   4.845  11.443  2.3343 -0.5767  1.0985
  427MOL0     H56364   2.369   4.788  11.329 -0.1578 -1.1219 -0.3762
  428MOL0     O56365   4.032   8.001   4.007 -0.2598 -0.2924 -0.1117
  428MOL0     C56366   3.992   7.883   4.019  0.1318 -0.4991 -0.1765
  428MOL0     O56367   4.041   7.791   4.106 -0.5453  0.5090  0.5956
  428MOL0     C56368   4.155   7.804   4.175 -0.3086  1.2539 -1.0874
  428MOL0     C56369   4.254   7.907   4.153  0.5785 -0.1202 -0.8601
  428MOL0     C56370   4.378   7.905   4.224  0.0419  0.2806  1.3657
  428MOL0     C56371   4.407   7.800   4.310  0.0304  0.2370 -0.0946
  428MOL0     O56372   4.519   7.794   4.382 -0.2373 -1.1427  0.2211
  428MOL0     C56373   4.639   7.761   4.313 -0.8880  0.7827 -0.4321
  428MOL0     C56374   4.759   7.745   4.403  0.0307  0.0727 -0.8760
  428MOL0     C56375   4.787   7.608   4.456 -0.8467  0.3892  0.8525
  428MOL0     C56376   4.852   7.607   4.589  0.7367  1.1013 -0.1457
  428MOL0     C56377   4.902   7.463   4.612 -1.4019  0.9980 -0.6040
  428MOL0     C56378   4.957   7.433   4.756 -0.0768 -0.2714 -0.0635
  428MOL0     C56379   4.859   7.368   4.854 -0.3321  0.3429  0.3765
  428MOL0     C56380   4.928   7.341   4.987 -0.0420 -0.5124  0.0509
  428MOL0     N56381   4.843   7.248   5.072 -1.2244  0.4220  1.0965
  428MOL0     C56382   4.852   7.115   5.037  0.0375 -1.0995 -1.2724
  428MOL0     C56383   4.755   7.063   5.110  0.7869 -1.3694 -0.4843
  428MOL0     C56384   4.722   6.918   5.135  0.2614  0.0715 -0.1912
  428MOL0     C56385   4.785   6.861   5.275 -0.1962 -0.1840  0.3081
  428MOL0     C56386   4.724   6.734   5.319  0.6588  1.2937 -0.6035
  428MOL0     C56387   4.580   6.741   5.379 -0.1697 -0.6830  0.5301
  428MOL0     O56388   4.539   6.615   5.392  0.3478  0.9788 -0.1021
  428MOL0     C56389   4.501   6.538   5.282  0.2140 -1.5455 -0.4631
  428MOL0     C56390   4.545   6.406   5.280  0.1364  0.0474  0.3913
  428MOL0     C56391   4.499   6.315   5.174 -0.5692  0.7874  0.6442
  428MOL0     C56392   4.420   6.367   5.068 -0.3702 -0.8771 -0.0750
  428MOL0     C56393   4.389   6.276   4.951 -0.1196 -0.5223 -0.3263
  428MOL0     O56394   4.404   6.146   4.958 -0.6046 -0.0006 -0.0011
  428MOL0     C56395   4.397   6.075   4.840  0.6679 -0.2183  0.8867
  428MOL0     C56396   4.285   5.989   4.819 -0.5195 -0.6475  0.6152
  428MOL0     C56397   4.268   5.917   4.695 -0.0457 -0.3863 -0.5392
  428MOL0     C56398   4.360   5.933   4.595  0.3174 -1.1210  0.4659
  428MOL0     O56399   4.343   5.875   4.469 -0.6484 -0.4453  0.1339
  428MOL0     C56400   4.320   5.728   4.469  0.1692  1.4184 -0.0606
  428MOL0     C56401   4.326   5.676   4.320 -0.4070  0.4629 -0.7246
  428MOL0     C56402   4.192   5.688   4.251 -0.1771 -0.8669 -0.6178
  428MOL0     C56403   4.195   5.608   4.123  1.1771 -0.0551 -0.0483
  428MOL0     C56404   4.084   5.665   4.021 -0.1711 -0.0085  0.9410
  428MOL0     C56405   4.109   5.648   3.870  0.1457  0.9150  0.4554
  428MOL0     C56406   4.072   5.766   3.777 -0.6244 -0.3191  0.1812
  428MOL0     C56407   4.055   5.720   3.636 -0.0901  0.0820  1.1415
  428MOL0    Cl56408   3.905   5.622   3.610  0.1827  0.0835  0.0446
  428MOL0     C56409   4.469   6.025   4.607  0.8803 -0.1070 -0.0941
  428MOL0     C56410   4.484   6.091   4.733  0.2786  0.0192 -0.3688
  428MOL0     O56411   4.359   6.342   4.858 -1.1968  0.4284 -0.2210
  428MOL0     C56412   4.383   6.501   5.074 -0.4447 -0.1254 -0.0887
  428MOL0     C56413   4.421   6.595   5.177  0.3550 -0.7135 -0.4150
  428MOL0     N56414   4.692   7.163   5.178 -0.7055  0.7262 -0.2130
  428MOL0     N56415   4.740   7.278   5.155  0.1311 -0.3569  0.4224
  428MOL0     C56416   4.305   7.697   4.340 -0.7064 -0.5578  0.6979
  428MOL0     C56417   4.183   7.706   4.276 -0.4379 -0.2626  0.6348
  428MOL0     C56418   3.883   7.830   3.932 -0.0926 -0.1306 -0.8598
  428MOL0     C56419   3.830   7.910   3.829  1.0565  1.0156 -0.1221
  428MOL0     C56420   3.714   7.875   3.772  0.4996 -0.2073  0.1602
  428MOL0     C56421   3.641   7.758   3.805  0.3578 -0.1737  0.1083
  428MOL0     O56422   3.511   7.753   3.754 -0.3698 -0.1465  0.3494
  428MOL0     C56423   3.437   7.637   3.769 -0.5415 -0.0108 -0.5270
  428MOL0     C56424   3.312   7.649   3.681  0.3610 -0.0721  0.5407
  428MOL0     C56425   3.192   7.693   3.773 -1.4380  0.0249 -0.0881
  428MOL0     C56426   3.219   7.832   3.847  0.2864  0.3046 -0.9025
  428MOL0     C56427   3.242   7.932   3.753 -0.0550 -0.6130 -0.1592
  428MOL0     C56428   3.260   8.010   3.657 -0.1178 -0.5202  0.1110
  428MOL0     C56429   3.695   7.674   3.898  0.1255 -0.8720  0.1832
  428MOL0     C56430   3.812   7.714   3.963 -0.8846 -1.1829 -0.6649
  428MOL0     H56431   4.254   7.978   4.071  0.4208  0.9637  0.0418
  428MOL0     H56432   4.447   7.989   4.226  0.2681  0.1011  1.1607
  428MOL0     H56433   4.672   7.845   4.251  2.3313  1.4178  1.8625
  428MOL0     H56434   4.620   7.673   4.252 -1.0541 -0.4249  1.2996
  428MOL0     H56435   4.740   7.810   4.489 -1.7776 -0.4719 -0.8195
  428MOL0     H56436   4.847   7.779   4.347  0.3011  1.0642  0.1126
  428MOL0     H56437   4.849   7.559   4.380  0.3569  0.3197  1.8477
  428MOL0     H56438   4.689   7.559   4.462 -1.0642  0.3984 -1.6024
  428MOL0     H56439   4.939   7.670   4.572  3.2159 -1.6781  1.1884
  428MOL0     H56440   4.773   7.633   4.661  1.2259 -0.0022  0.8321
  428MOL0     H56441   4.974   7.434   4.535  1.2718  2.7571  1.0948
  428MOL0     H56442   4.817   7.396   4.592 -0.8004  0.8123 -2.7827
  428MOL0     H56443   4.980   7.527   4.806 -2.7014  0.7934 -0.6611
  428MOL0     H56444   5.051   7.377   4.753  0.1575  0.0919 -3.4716
  428MOL0     H56445   4.771   7.432   4.870  0.0396  0.7614  0.7642
  428MOL0     H56446   4.825   7.278   4.802  1.1778  0.2656 -0.5390
  428MOL0     H56447   4.953   7.438   5.032  1.6988 -0.3081 -1.2149
  428MOL0     H56448   5.027   7.294   4.983  0.7641  0.9117  1.7721
  428MOL0     H56449   4.918   7.057   4.974  3.6899 -0.6530  1.7865
  428MOL0     H56450   4.770   6.866   5.052 -3.1033 -1.9950 -1.0239
  428MOL0     H56451   4.614   6.904   5.145  0.0120 -1.4913 -3.6906
  428MOL0     H56452   4.782   6.931   5.360  0.4387  1.6625 -1.1270
  428MOL0     H56453   4.888   6.845   5.241 -0.8009 -1.4726 -0.9813
  428MOL0     H56454   4.728   6.663   5.235  0.2132 -3.4312  2.9667
  428MOL0     H56455   4.783   6.683   5.395  0.7223  0.6565 -1.0682
  428MOL0     H56456   4.508   6.806   5.329  1.8044 -0.1125 -1.7335
  428MOL0     H56457   4.584   6.789   5.477  1.7438  0.5390 -0.0946
  428MOL0     H56458   4.610   6.362   5.355  1.6912  1.4398 -0.1015
  428MOL0     H56459   4.525   6.209   5.169  1.3396  1.2775 -1.5244
  428MOL0     H56460   4.203   5.995   4.890 -2.2967  1.8336 -1.4300
  428MOL0     H56461   4.184   5.849   4.681 -1.4367  1.3342 -0.8476
  428MOL0     H56462   4.223   5.701   4.510  1.1381 -1.7977  0.3552
  428MOL0     H56463   4.397   5.681   4.532  1.5176  1.6368 -1.4764
  428MOL0     H56464   4.344   5.569   4.314 -4.2394 -0.3611  0.0256
  428MOL0     H56465   4.400   5.736   4.267  0.5435  0.6064  0.7216
  428MOL0     H56466   4.190   5.791   4.217  1.0286 -2.1857 -5.2922
  428MOL0     H56467   4.110   5.670   4.322  0.0856  1.5266  0.3764
  428MOL0     H56468   4.290   5.625   4.072  0.4600  3.6381 -0.4202
  428MOL0     H56469   4.177   5.501   4.139 -0.0481 -0.0756 -1.3781
  428MOL0     H56470   4.065   5.770   4.043 -2.3377 -0.7437  3.0198
  428MOL0     H56471   3.985   5.620   4.031 -1.2917  1.7919 -1.1458
  428MOL0     H56472   4.080   5.551   3.831  2.3140  0.7246 -0.8437
  428MOL0     H56473   4.217   5.631   3.860  0.1896  2.2351 -1.9339
  428MOL0     H56474   3.982   5.820   3.808  2.7148  4.0348  3.6295
  428MOL0     H56475   4.155   5.837   3.778 -0.4871 -0.4858  0.5993
  428MOL0     H56476   4.137   5.661   3.595 -0.8274 -0.3708  0.2743
  428MOL0     H56477   4.044   5.805   3.568  0.8582 -0.3469  0.4224
  428MOL0     H56478   4.529   6.051   4.520  3.4252  1.3569  1.9496
  428MOL0     H56479   4.559   6.167   4.750 -1.5335  1.3063  2.8816
  428MOL0     H56480   4.343   6.540   4.980  2.0710 -0.1684 -1.2544
  428MOL0     H56481   4.409   6.703   5.181 -0.6687 -0.7139 -2.2202
  428MOL0     H56482   4.326   7.621   4.414  1.7795 -5.1216 -4.0108
  428MOL0     H56483   4.102   7.638   4.299  0.4054 -1.5250 -0.0201
  428MOL0     H56484   3.864   8.005   3.789  1.5278  0.2035 -1.7856
  428MOL0     H56485   3.656   7.933   3.701 -0.7627 -0.9342  0.5702
  428MOL0     H56486   3.424   7.620   3.877  0.5573 -1.6070 -0.6071
  428MOL0     H56487   3.501   7.557   3.731  1.4737  0.9025  0.7440
  428MOL0     H56488   3.313   7.718   3.596 -0.6790 -1.4884 -0.6876
  428MOL0     H56489   3.285   7.546   3.655  0.0715 -0.4026  2.0643
  428MOL0     H56490   3.172   7.622   3.853 -2.6783 -0.7684 -1.0662
  428MOL0     H56491   3.110   7.711   3.703  0.3992  1.3037 -2.0741
  428MOL0     H56492   3.136   7.869   3.907  1.4171  0.2561  0.7786
  428MOL0     H56493   3.312   7.816   3.903  0.6145 -0.8917 -1.7400
  428MOL0     H56494   3.260   8.052   3.559 -1.8246  3.8207  1.7003
  428MOL0     H56495   3.656   7.577   3.929  0.1247 -0.7344  0.6249
  428MOL0     H56496   3.855   7.656   4.043  2.0156 -1.4880 -2.2705
  429MOL0     O56497  10.020   0.283   8.369 -0.1459 -0.5377 -0.4446
  429MOL0     C56498  10.011   0.216   8.268 -0.1735  0.4052  0.2553
  429MOL0     O56499  10.114   0.139   8.205  0.1590  0.5410 -0.1459
  429MOL0     C56500  10.246   0.138   8.241 -0.0309 -0.0160 -0.6657
  429MOL0     C56501  10.308   0.219   8.341 -0.2931 -0.0343  0.3763
  429MOL0     C56502  10.435   0.186   8.393 -0.9193 -0.2178 -0.1974
  429MOL0     C56503  10.509   0.085   8.343 -0.2553 -0.3283  0.0587
  429MOL0     O56504  10.623   0.040   8.407  0.1932  0.0713 -0.8145
  429MOL0     C56505  10.716  -0.023   8.322  0.1124  0.0174  0.5583
  429MOL0     C56506  10.842   0.008   8.395  0.4820  0.5226 -0.2002
  429MOL0     C56507  10.862  -0.060   8.538  0.1593  0.2614  0.3703
  429MOL0     C56508  11.004  -0.043   8.588 -0.7973  0.0777  0.1215
  429MOL0     C56509  11.098  -0.154   8.550  0.4133 -0.1636 -1.1438
  429MOL0     C56510  11.249  -0.126   8.568 -0.3668 -0.1895 -0.1676
  429MOL0     C56511  11.298   0.005   8.503  0.1948  0.1081 -0.2450
  429MOL0     C56512  11.424  -0.029   8.421  0.7440  0.4611  0.0408
  429MOL0     N56513  11.406  -0.106   8.296 -0.0811  0.0636  0.3250
  429MOL0     C56514  11.351  -0.062   8.177 -0.3015  0.9800 -0.4736
  429MOL0     C56515  11.393  -0.158   8.085  0.1988 -0.7864  0.1426
  429MOL0     C56516  11.351  -0.158   7.937 -0.0049 -0.2337  0.2801
  429MOL0     C56517  11.212  -0.202   7.906  0.5007 -0.0978 -0.7293
  429MOL0     C56518  11.193  -0.246   7.759 -0.8285 -0.2617  1.3578
  429MOL0     C56519  11.072  -0.326   7.737  0.1063  0.3991 -0.4218
  429MOL0     O56520  11.068  -0.325   7.594 -0.3680 -0.0504  0.1198
  429MOL0     C56521  10.941  -0.357   7.548 -0.5439  0.5046  0.3492
  429MOL0     C56522  10.908  -0.312   7.423 -0.8147  0.0627  0.3405
  429MOL0     C56523  10.786  -0.334   7.365 -0.5778  0.6242  1.0154
  429MOL0     C56524  10.681  -0.392   7.435 -0.6030 -0.2258 -0.1033
  429MOL0     C56525  10.539  -0.399   7.379 -0.8523  0.7791  0.5898
  429MOL0     O56526  10.520  -0.356   7.252  0.7795 -0.0872  0.6335
  429MOL0     C56527  10.415  -0.415   7.175 -1.1544 -0.9534 -1.2748
  429MOL0     C56528  10.332  -0.345   7.095  0.3926  0.4336 -0.1142
  429MOL0     C56529  10.223  -0.415   7.024 -0.3474 -0.4055  0.5066
  429MOL0     C56530  10.214  -0.553   7.026 -0.9015  0.1368  0.3456
  429MOL0     O56531  10.131  -0.628   6.940 -0.2612  0.2911  0.3826
  429MOL0     C56532   9.989  -0.607   6.948 -0.7031  1.0472 -0.3754
  429MOL0     C56533   9.902  -0.696   6.854  0.4450  1.2211 -0.2087
  429MOL0     C56534   9.926  -0.681   6.706 -0.0838 -0.3138  0.2396
  429MOL0     C56535  10.065  -0.718   6.647 -0.6254  0.3882 -1.2564
  429MOL0     C56536  10.135  -0.853   6.691 -0.2614  0.3614  0.3870
  429MOL0     C56537  10.034  -0.976   6.678 -0.8496  0.0609 -1.0840
  429MOL0     C56538   9.993  -1.017   6.542 -0.6057  1.2600  0.0794
  429MOL0     C56539   9.953  -1.162   6.532 -0.4732  0.6078  0.2924
  429MOL0    Cl56540   9.863  -1.173   6.370 -0.6901 -0.5078  0.3292
  429MOL0     C56541  10.306  -0.625   7.106  0.5005 -0.0131 -0.3624
  429MOL0     C56542  10.410  -0.557   7.173  0.1091 -0.6277  0.4075
  429MOL0     O56543  10.455  -0.442   7.459 -0.6983 -1.0669  0.3884
  429MOL0     C56544  10.714  -0.437   7.567 -0.0640 -0.6639 -0.1890
  429MOL0     C56545  10.842  -0.430   7.626 -0.1176  0.4834  0.1768
  429MOL0     N56546  11.463  -0.252   8.150 -0.3097  0.8880 -0.0870
  429MOL0     N56547  11.467  -0.228   8.272 -0.1674 -0.1047  0.5324
  429MOL0     C56548  10.460   0.028   8.223  0.2788  0.5402  0.6672
  429MOL0     C56549  10.330   0.045   8.186  0.2457 -0.9966 -0.6476
  429MOL0     C56550   9.886   0.243   8.187 -0.9217  0.6202 -0.8379
  429MOL0     C56551   9.853   0.132   8.098  0.2682 -0.7624 -1.0955
  429MOL0     C56552   9.736   0.143   8.025  0.7496  0.1362  0.2626
  429MOL0     C56553   9.646   0.262   8.038 -0.6687  0.4128  0.9232
  429MOL0     O56554   9.534   0.276   7.968 -0.4980 -0.5437 -0.4636
  429MOL0     C56555   9.442   0.177   7.997 -0.2361 -0.1831  0.1204
  429MOL0     C56556   9.335   0.193   7.893 -0.4715  0.3874  0.9054
  429MOL0     C56557   9.224   0.095   7.919  0.2918 -0.0253 -0.7237
  429MOL0     C56558   9.242  -0.052   7.885 -0.5186 -0.0923 -0.3670
  429MOL0     C56559   9.205  -0.080   7.747 -0.7248 -0.7014  0.1776
  429MOL0     C56560   9.196  -0.110   7.629 -0.4293  0.4408  0.5459
  429MOL0     C56561   9.684   0.359   8.121  0.0649 -0.0230 -0.4630
  429MOL0     C56562   9.801   0.354   8.197 -0.9576  1.0117 -0.2136
  429MOL0     H56563  10.262   0.300   8.397  0.1134  2.0556 -2.1689
  429MOL0     H56564  10.490   0.246   8.466 -1.4321  1.4263 -1.1012
  429MOL0     H56565  10.724   0.020   8.221 -1.1133 -1.3027 -0.1327
  429MOL0     H56566  10.713  -0.131   8.310 -3.6980  0.2950 -4.0455
  429MOL0     H56567  10.839   0.115   8.416  2.6256  0.7258 -0.7769
  429MOL0     H56568  10.929  -0.017   8.335 -0.3528  1.0636 -1.6866
  429MOL0     H56569  10.829  -0.164   8.539  2.4475 -0.6216 -2.4906
  429MOL0     H56570  10.799  -0.000   8.605 -0.8296 -0.8556  0.4657
  429MOL0     H56571  11.043   0.044   8.534 -1.2441 -0.3940 -0.9810
  429MOL0     H56572  11.007  -0.020   8.695 -2.2826  0.6434  0.0716
  429MOL0     H56573  11.077  -0.188   8.448  3.6443 -0.3344 -1.8448
  429MOL0     H56574  11.064  -0.241   8.607  1.4567  0.9635  1.3204
  429MOL0     H56575  11.299  -0.213   8.523  2.4237  1.1812  0.1129
  429MOL0     H56576  11.279  -0.124   8.673 -1.7004 -0.3885  0.2326
  429MOL0     H56577  11.231   0.066   8.441  1.4607  4.5748  2.3115
  429MOL0     H56578  11.315   0.072   8.587 -2.0579  0.3328  0.1037
  429MOL0     H56579  11.496  -0.087   8.480  0.4894 -3.2414 -2.8703
  429MOL0     H56580  11.470   0.065   8.390 -1.8307  2.6054  2.2402
  429MOL0     H56581  11.289   0.026   8.160 -0.6017  1.6491  3.1662
  429MOL0     H56582  11.413  -0.243   7.908 -1.0027 -0.4450 -1.3607
  429MOL0     H56583  11.378  -0.062   7.891  0.9954 -1.0460 -0.9153
  429MOL0     H56584  11.143  -0.125   7.941  0.9476 -0.8197  2.0088
  429MOL0     H56585  11.188  -0.289   7.968  0.4696 -1.0610 -2.0714
  429MOL0     H56586  11.223  -0.169   7.687 -0.5342 -0.8515  0.8405
  429MOL0     H56587  11.268  -0.325   7.750 -1.6815 -1.0589  1.0998
  429MOL0     H56588  10.980  -0.274   7.765 -1.2788 -2.3989  0.5537
  429MOL0     H56589  11.084  -0.425   7.783 -1.3249 -0.2267 -1.3443
  429MOL0     H56590  10.983  -0.266   7.360 -0.4169 -0.2642  0.5734
  429MOL0     H56591  10.757  -0.297   7.267  0.9094 -3.0672 -1.0182
  429MOL0     H56592  10.347  -0.241   7.068 -1.4947  0.8763  0.3855
  429MOL0     H56593  10.167  -0.361   6.949  0.2336 -1.3862 -0.6569
  429MOL0     H56594   9.964  -0.502   6.933 -0.1892  1.4084  1.0791
  429MOL0     H56595   9.961  -0.629   7.052  2.8008 -0.5980  0.3867
  429MOL0     H56596   9.797  -0.676   6.879 -0.2751  0.8862 -2.6572
  429MOL0     H56597   9.915  -0.796   6.895  0.3437  1.8409  1.4467
  429MOL0     H56598   9.905  -0.576   6.681  2.1739  0.6677  1.9996
  429MOL0     H56599   9.849  -0.743   6.660  0.5976  0.6808 -2.4475
  429MOL0     H56600  10.054  -0.714   6.538 -4.0135 -0.9103 -1.0733
  429MOL0     H56601  10.138  -0.639   6.668 -0.1584 -1.0041  3.3056
  429MOL0     H56602  10.167  -0.852   6.796 -0.5280 -3.3735  0.6566
  429MOL0     H56603  10.225  -0.867   6.630 -0.2786  1.0746  0.1943
  429MOL0     H56604   9.947  -0.937   6.731  0.0400 -0.0551  0.5317
  429MOL0     H56605  10.081  -1.052   6.742  0.6307 -0.3328 -2.5847
  429MOL0     H56606   9.900  -0.961   6.528  0.3954  2.6210 -1.4300
  429MOL0     H56607  10.065  -0.984   6.467 -1.5379  1.9459 -0.5321
  429MOL0     H56608   9.875  -1.178   6.608  1.7714  2.3202  3.1797
  429MOL0     H56609  10.034  -1.231   6.556 -0.8575  1.0157  3.1432
  429MOL0     H56610  10.307  -0.733   7.120  1.4834  0.1222  0.7873
  429MOL0     H56611  10.483  -0.606   7.237  2.2737  1.2551 -0.4862
  429MOL0     H56612  10.649  -0.489   7.636  1.5579  0.0742  1.9863
  429MOL0     H56613  10.850  -0.492   7.715  0.3573 -2.0867 -1.5200
  429MOL0     H56614  10.514  -0.053   8.174  3.1074  3.7240 -1.9794
  429MOL0     H56615  10.303  -0.012   8.097 -1.8846 -3.4117  1.3587
  429MOL0     H56616   9.916   0.044   8.094  1.5982  0.1290 -0.3796
  429MOL0     H56617   9.706   0.065   7.956  0.7063 -0.4903  0.9750
  429MOL0     H56618   9.395   0.192   8.095 -0.8102 -1.7048  0.1164
  429MOL0     H56619   9.484   0.077   8.013  1.7739  0.5866 -0.1735
  429MOL0     H56620   9.300   0.296   7.886 -2.5446 -0.1674  2.0250
  429MOL0     H56621   9.364   0.162   7.792 -1.2845  0.2727  0.7021
  429MOL0     H56622   9.143   0.129   7.853  1.2035 -0.2368 -2.0029
  429MOL0     H56623   9.193   0.108   8.023 -1.0945  2.2011 -1.3517
  429MOL0     H56624   9.344  -0.087   7.901 -0.4809 -0.3280 -1.0740
  429MOL0     H56625   9.171  -0.106   7.948 -1.1392 -0.2498 -1.1736
  429MOL0     H56626   9.218  -0.156   7.535  2.3571 -1.4059  1.9324
  429MOL0     H56627   9.627   0.452   8.128  2.1167  1.2732 -0.0302
  429MOL0     H56628   9.832   0.426   8.273  1.8969 -2.0525  1.8190
  430MOL0     O56629   4.590   4.039   9.571 -0.5592 -0.6352 -0.2507
  430MOL0     C56630   4.704   4.066   9.607  0.3448 -0.3351  0.1558
  430MOL0     O56631   4.733   4.130   9.723  0.1451 -0.4538  0.7480
  430MOL0     C56632   4.636   4.136   9.819 -0.1534 -0.2625 -0.0400
  430MOL0     C56633   4.642   4.062   9.934 -0.1786 -0.1925 -0.6288
  430MOL0     C56634   4.533   4.074  10.029 -0.4730  0.3165  0.2857
  430MOL0     C56635   4.416   4.156  10.011 -0.4032 -0.3456 -0.9550
  430MOL0     O56636   4.312   4.160  10.102  0.0353 -0.5448 -0.3678
  430MOL0     C56637   4.312   4.107  10.229 -0.6167  0.0477 -0.8990
  430MOL0     C56638   4.203   4.161  10.332 -1.0863  0.0059  1.0018
  430MOL0     C56639   4.235   4.307  10.379  0.9757  0.0202  0.4537
  430MOL0     C56640   4.178   4.402  10.281  0.0629  0.0576  0.0877
  430MOL0     C56641   4.067   4.487  10.351  0.3837  0.0555 -0.5059
  430MOL0     C56642   4.104   4.573  10.471 -0.4937 -0.6546 -0.4548
  430MOL0     C56643   4.186   4.699  10.432  0.5472  0.0495 -0.0111
  430MOL0     C56644   4.163   4.811  10.533  0.8314 -0.4571 -0.1272
  430MOL0     N56645   4.020   4.863  10.540 -0.5106  0.1772 -0.7396
  430MOL0     C56646   3.929   4.898  10.437 -0.1688 -0.1856 -0.2360
  430MOL0     C56647   3.816   4.949  10.493  0.5471 -0.0955  0.5749
  430MOL0     C56648   3.685   5.008  10.429  0.1254 -0.8258  0.6306
  430MOL0     C56649   3.685   5.166  10.405  0.9979  0.4274 -0.6548
  430MOL0     C56650   3.560   5.205  10.318  0.3062 -0.5030 -0.1189
  430MOL0     C56651   3.561   5.348  10.250 -1.5552 -0.0197  0.2892
  430MOL0     O56652   3.465   5.367  10.138 -0.7158  0.2282  0.7115
  430MOL0     C56653   3.516   5.389  10.009 -0.6456  0.2283  0.3829
  430MOL0     C56654   3.630   5.326   9.958 -0.5071  1.3962  0.5516
  430MOL0     C56655   3.674   5.340   9.831 -0.8262  0.3496 -0.2573
  430MOL0     C56656   3.607   5.430   9.740  0.5537  0.7122  0.0804
  430MOL0     C56657   3.659   5.456   9.606  0.5939  0.1287  0.6140
  430MOL0     O56658   3.776   5.391   9.568 -0.1800  0.1697 -0.1718
  430MOL0     C56659   3.855   5.441   9.459 -0.0896  0.1120 -0.1577
  430MOL0     C56660   3.817   5.522   9.345  0.6386  0.8342 -0.2486
  430MOL0     C56661   3.910   5.537   9.236 -0.3867  0.9660 -0.0812
  430MOL0     C56662   4.041   5.478   9.247 -0.4060  0.1504  0.8482
  430MOL0     O56663   4.120   5.493   9.133 -0.0368 -0.2965 -0.5817
  430MOL0     C56664   4.242   5.569   9.155  0.8259 -0.3665  0.6064
  430MOL0     C56665   4.194   5.718   9.172  0.3419  0.3653 -0.6637
  430MOL0     C56666   4.320   5.804   9.182  0.2876  0.2566  0.1753
  430MOL0     C56667   4.285   5.949   9.205 -0.6911  0.5047  0.0690
  430MOL0     C56668   4.410   6.032   9.214 -0.1130  1.2133 -0.8733
  430MOL0     C56669   4.439   6.063   9.372 -0.2423 -1.5115 -0.3288
  430MOL0     C56670   4.558   6.164   9.373  0.1259 -0.2007  0.1909
  430MOL0     C56671   4.646   6.155   9.502  1.6148 -0.1934 -0.6641
  430MOL0    Cl56672   4.536   6.189   9.640  0.0952  0.3077 -0.0108
  430MOL0     C56673   4.079   5.404   9.354 -0.5105  0.7153  0.3870
  430MOL0     C56674   3.991   5.387   9.458 -0.1637 -0.0487 -0.5419
  430MOL0     O56675   3.606   5.545   9.545 -0.5032 -0.3749 -0.8540
  430MOL0     C56676   3.493   5.494   9.789  0.9080 -0.9139  0.0876
  430MOL0     C56677   3.444   5.464   9.916 -0.1078  0.6809 -1.0990
  430MOL0     N56678   3.830   4.931  10.629 -0.6153 -0.6876 -0.4506
  430MOL0     N56679   3.948   4.887  10.654 -0.1295 -0.0555  1.0677
  430MOL0     C56680   4.419   4.226   9.894  0.9315 -0.3045  0.5586
  430MOL0     C56681   4.521   4.212   9.802 -0.0951 -0.2410  0.5463
  430MOL0     C56682   4.810   4.022   9.520  0.4848  0.3974  0.9789
  430MOL0     C56683   4.778   3.976   9.385 -0.1349  0.6874 -0.7035
  430MOL0     C56684   4.882   3.968   9.301  0.1002  0.1160  0.2037
  430MOL0     C56685   5.011   4.015   9.325 -0.9175 -0.7110  0.0217
  430MOL0     O56686   5.113   4.005   9.222  0.1928 -0.0114 -0.2822
  430MOL0     C56687   5.219   4.099   9.210 -0.6010  0.2223 -0.3835
  430MOL0     C56688   5.333   4.034   9.123  0.7899 -0.7010 -0.0863
  430MOL0     C56689   5.466   4.120   9.112 -0.0163  0.6842  1.1698
  430MOL0     C56690   5.523   4.177   9.246  0.8226 -0.2731 -0.8946
  430MOL0     C56691   5.543   4.066   9.344  0.0832  0.4159  0.3852
  430MOL0     C56692   5.555   3.960   9.400 -0.3083 -0.5270  0.6025
  430MOL0     C56693   5.041   4.085   9.449  0.5526  0.7358  0.1628
  430MOL0     C56694   4.935   4.088   9.543 -0.8020  0.8131  0.7521
  430MOL0     H56695   4.717   3.985   9.944 -0.2790 -0.7319 -3.3849
  430MOL0     H56696   4.545   4.009  10.116 -2.2246  1.5420  1.5159
  430MOL0     H56697   4.412   4.130  10.270 -1.5109 -0.2189  1.6290
  430MOL0     H56698   4.301   3.998  10.223 -3.0469  0.0695  1.1961
  430MOL0     H56699   4.212   4.095  10.419 -1.4318 -4.5926 -2.0766
  430MOL0     H56700   4.100   4.152  10.294 -1.1898 -0.0809  1.2985
  430MOL0     H56701   4.337   4.320  10.414  1.3482 -0.7423 -0.3107
  430MOL0     H56702   4.179   4.316  10.473  1.8838 -0.2535  1.0311
  430MOL0     H56703   4.250   4.472  10.237  2.0237 -1.0877  1.3272
  430MOL0     H56704   4.125   4.351  10.200 -3.5419 -1.8941  3.3421
  430MOL0     H56705   3.994   4.411  10.377 -0.1358  1.2949  1.9265
  430MOL0     H56706   4.022   4.559  10.282 -0.6023  1.2949  1.3849
  430MOL0     H56707   4.162   4.513  10.542 -2.5480 -0.9359  1.0557
  430MOL0     H56708   4.015   4.604  10.526 -1.0132  0.7049 -1.9693
  430MOL0     H56709   4.290   4.667  10.444  0.1775 -1.4196 -0.5538
  430MOL0     H56710   4.171   4.734  10.329 -2.3547 -0.0056  0.3161
  430MOL0     H56711   4.230   4.893  10.505  2.2611 -1.8084 -0.8157
  430MOL0     H56712   4.201   4.784  10.631  2.9210 -0.5153 -0.9109
  430MOL0     H56713   3.930   4.886  10.329  2.3597 -1.4539 -0.1597
  430MOL0     H56714   3.605   4.993  10.502  1.2060 -0.6065  1.9041
  430MOL0     H56715   3.656   4.966  10.332 -3.1663 -1.8530  1.9086
  430MOL0     H56716   3.776   5.186  10.347  1.4426 -0.4755 -0.3002
  430MOL0     H56717   3.680   5.213  10.504  0.5805 -1.4200  0.2473
  430MOL0     H56718   3.558   5.134  10.234 -1.8238 -1.1720  0.4340
  430MOL0     H56719   3.468   5.189  10.375  1.6107 -1.3238  1.8730
  430MOL0     H56720   3.664   5.355  10.214 -0.9507  0.4223  2.0177
  430MOL0     H56721   3.547   5.429  10.322 -0.3685  0.1250  0.3769
  430MOL0     H56722   3.663   5.255  10.034 -1.9517  1.0844  0.9106
  430MOL0     H56723   3.764   5.293   9.792 -0.6932 -1.3182  1.8793
  430MOL0     H56724   3.722   5.574   9.336  0.3517  0.4344  0.3592
  430MOL0     H56725   3.889   5.599   9.150  1.4378  2.2022  0.2920
  430MOL0     H56726   4.303   5.562   9.065  0.0945 -4.6886  0.2370
  430MOL0     H56727   4.279   5.520   9.246  0.8362 -4.5942 -1.4594
  430MOL0     H56728   4.136   5.721   9.265 -0.3858  2.2796 -1.1336
  430MOL0     H56729   4.132   5.738   9.084  1.5177 -0.8934 -1.8017
  430MOL0     H56730   4.367   5.806   9.083  2.0543  0.2092  0.9731
  430MOL0     H56731   4.391   5.761   9.254 -1.5371 -1.1751  1.2071
  430MOL0     H56732   4.224   5.993   9.125 -2.5161  0.9884  1.6525
  430MOL0     H56733   4.227   5.956   9.297 -1.6261  1.9545 -0.5909
  430MOL0     H56734   4.382   6.131   9.177 -0.6340  1.1901 -0.5606
  430MOL0     H56735   4.494   5.989   9.159  0.1811 -1.7335  1.6091
  430MOL0     H56736   4.465   5.969   9.421  0.7603 -0.5744  1.0053
  430MOL0     H56737   4.362   6.117   9.428 -1.6997 -2.2378 -1.5614
  430MOL0     H56738   4.630   6.146   9.292  3.6001  0.4004  2.9231
  430MOL0     H56739   4.528   6.270   9.371  2.0415  0.3711 -0.0714
  430MOL0     H56740   4.728   6.226   9.487  1.6006 -0.4931 -2.3973
  430MOL0     H56741   4.689   6.054   9.509  0.2244 -0.9211 -2.0038
  430MOL0     H56742   4.179   5.363   9.346 -2.0880 -3.2877 -1.3626
  430MOL0     H56743   4.028   5.331   9.543  1.0141 -0.9865 -1.6402
  430MOL0     H56744   3.426   5.556   9.729  0.1708 -0.7912  1.0156
  430MOL0     H56745   3.362   5.522   9.958  0.7856  1.3709 -0.2500
  430MOL0     H56746   4.331   4.278   9.856  1.3121  0.1882  0.3359
  430MOL0     H56747   4.507   4.273   9.714 -0.2103  1.9985  2.0387
  430MOL0     H56748   4.680   3.936   9.361  0.6067 -0.9703 -1.1135
  430MOL0     H56749   4.875   3.931   9.199  1.4189  0.2104  0.0618
  430MOL0     H56750   5.259   4.117   9.310  0.4235 -1.6959 -0.4044
  430MOL0     H56751   5.179   4.192   9.168 -2.7846 -1.0476 -1.3031
  430MOL0     H56752   5.352   3.946   9.184  1.8734  0.4963  1.3793
  430MOL0     H56753   5.288   4.025   9.023 -0.9683  3.1237  0.1399
  430MOL0     H56754   5.437   4.207   9.054  1.1867  0.6088  0.4062
  430MOL0     H56755   5.532   4.057   9.050 -3.4157 -1.0798 -0.9531
  430MOL0     H56756   5.619   4.223   9.221  0.2882  1.8917  0.7716
  430MOL0     H56757   5.461   4.261   9.279 -1.6285 -2.7158  1.2103
  430MOL0     H56758   5.587   3.865   9.438 -0.5123 -0.9207 -0.1869
  430MOL0     H56759   5.137   4.131   9.467  1.0890 -1.3902  3.4239
  430MOL0     H56760   4.958   4.132   9.640  1.8663 -1.2457  1.1852
  431MOL0     O56761   7.625   7.820   5.168  0.2542 -0.7420 -0.1891
  431MOL0     C56762   7.540   7.911   5.155  0.2297  0.0338  1.0926
  431MOL0     O56763   7.543   8.038   5.200 -0.4466 -0.2616 -0.7946
  431MOL0     C56764   7.640   8.086   5.281 -0.1943 -1.8136 -0.4783
  431MOL0     C56765   7.776   8.084   5.249 -0.5939 -0.2123  0.4983
  431MOL0     C56766   7.869   8.146   5.337  0.1356  0.3466  0.0070
  431MOL0     C56767   7.832   8.206   5.452  0.5674 -1.0437  0.2575
  431MOL0     O56768   7.934   8.244   5.537 -0.2382  0.4521  0.0796
  431MOL0     C56769   7.929   8.183   5.668 -1.3683  0.0324  0.3203
  431MOL0     C56770   8.023   8.262   5.771  0.9531 -0.4470  0.2670
  431MOL0     C56771   8.041   8.178   5.900 -0.2719  0.2644  0.9012
  431MOL0     C56772   8.149   8.249   5.980 -0.0872 -0.1570  0.5889
  431MOL0     C56773   8.162   8.186   6.117 -0.2038  0.5210  0.2349
  431MOL0     C56774   8.257   8.266   6.205 -0.1706  0.2304  0.2274
  431MOL0     C56775   8.223   8.418   6.213 -0.3685  0.1896 -0.2096
  431MOL0     C56776   8.270   8.483   6.343 -0.3542  1.0561 -0.0929
  431MOL0     N56777   8.219   8.410   6.457  0.3908 -0.0473 -0.5687
  431MOL0     C56778   8.113   8.464   6.529 -0.8286  0.1957 -0.4442
  431MOL0     C56779   8.139   8.418   6.661  0.0649 -0.9266  0.1592
  431MOL0     C56780   8.092   8.451   6.793 -0.1203  0.1469 -0.3104
  431MOL0     C56781   8.035   8.588   6.803 -0.6041  0.6222  0.2901
  431MOL0     C56782   7.987   8.636   6.943  1.4273 -0.0915  0.9112
  431MOL0     C56783   8.107   8.666   7.043  1.9142 -0.3562 -0.4728
  431MOL0     O56784   8.194   8.759   6.981 -0.4134  0.5206 -0.7186
  431MOL0     C56785   8.323   8.756   7.026 -0.1464 -0.0326 -0.6214
  431MOL0     C56786   8.357   8.834   7.145 -0.2866 -0.9353  0.0595
  431MOL0     C56787   8.492   8.838   7.181 -0.1938  0.2222  0.0357
  431MOL0     C56788   8.589   8.787   7.096  0.3681 -0.7044 -0.1333
  431MOL0     C56789   8.733   8.802   7.126  0.4906 -0.3010 -0.5544
  431MOL0     O56790   8.760   8.898   7.220 -0.6833  0.7386  0.7523
  431MOL0     C56791   8.889   8.910   7.249 -0.6956 -0.0955  0.7015
  431MOL0     C56792   8.955   8.808   7.327  0.6986  0.6111 -0.8711
  431MOL0     C56793   9.093   8.818   7.354  0.1316 -0.3903 -0.5584
  431MOL0     C56794   9.169   8.922   7.304  0.8169  0.2895 -0.3028
  431MOL0     O56795   9.302   8.921   7.350  0.3675  0.0051  0.5523
  431MOL0     C56796   9.381   9.038   7.304  0.4611  0.0050 -0.2369
  431MOL0     C56797   9.523   9.025   7.336 -0.4027 -0.1838  0.2652
  431MOL0     C56798   9.620   9.107   7.244  0.4884  0.6597 -1.0252
  431MOL0     C56799   9.632   9.043   7.100  0.5566  0.9069 -0.2025
  431MOL0     C56800   9.744   9.097   7.012 -0.8679 -0.3961  0.0445
  431MOL0     C56801   9.891   9.037   7.042  0.2145 -0.1364 -0.1480
  431MOL0     C56802  10.002   9.103   6.961  0.6500  0.2406 -0.3733
  431MOL0     C56803  10.100   8.987   6.912 -0.1441 -0.6834 -0.0166
  431MOL0    Cl56804  10.020   8.864   6.808  0.2537 -0.4820 -0.1768
  431MOL0     C56805   9.101   9.008   7.214 -0.1688  0.1150  0.1965
  431MOL0     C56806   8.961   9.005   7.188 -0.8489  0.0557 -0.6843
  431MOL0     O56807   8.813   8.725   7.068 -0.3878 -0.2074  0.3690
  431MOL0     C56808   8.553   8.706   6.981  0.4070  0.4478 -0.6743
  431MOL0     C56809   8.419   8.692   6.949  0.2563 -0.4850 -0.3007
  431MOL0     N56810   8.253   8.342   6.660 -0.4749 -0.2601  0.4723
  431MOL0     N56811   8.295   8.332   6.536  0.3007 -0.0015  0.6461
  431MOL0     C56812   7.697   8.201   5.486  0.1628  0.2152 -0.3571
  431MOL0     C56813   7.605   8.151   5.405 -0.4520 -0.4556  0.2658
  431MOL0     C56814   7.427   7.884   5.066 -0.1206  0.1437 -0.7051
  431MOL0     C56815   7.406   7.769   4.992 -0.8770  0.1130  0.5206
  431MOL0     C56816   7.298   7.750   4.913 -0.3494  1.2709  0.2428
  431MOL0     C56817   7.197   7.845   4.900 -0.1135  0.2355  0.2464
  431MOL0     O56818   7.089   7.819   4.822  0.1743  0.3543  0.7631
  431MOL0     C56819   6.966   7.804   4.880  0.1004 -0.3107  0.2260
  431MOL0     C56820   6.869   7.714   4.800  0.3384  0.6788 -0.1094
  431MOL0     C56821   6.872   7.764   4.652 -0.8811 -0.3448 -0.2521
  431MOL0     C56822   6.793   7.679   4.559 -0.4691  0.8721 -0.6150
  431MOL0     C56823   6.767   7.765   4.443 -0.1339  0.9058  0.3277
  431MOL0     C56824   6.756   7.848   4.350  0.6517  0.7507 -0.9745
  431MOL0     C56825   7.211   7.964   4.959 -0.2741 -0.8576  0.3039
  431MOL0     C56826   7.331   7.985   5.047  0.3953 -1.0313  0.0997
  431MOL0     H56827   7.799   8.050   5.149 -0.0535  0.5215  0.3696
  431MOL0     H56828   7.973   8.131   5.309 -0.5669 -2.2527 -1.6894
  431MOL0     H56829   7.985   8.090   5.651  1.8195  1.7197  0.7461
  431MOL0     H56830   7.833   8.162   5.715 -2.1623  0.2491 -1.1358
  431MOL0     H56831   7.995   8.368   5.774 -0.2437 -0.5394 -2.9330
  431MOL0     H56832   8.120   8.271   5.721  1.0433 -0.8873  0.3579
  431MOL0     H56833   8.057   8.074   5.869 -3.3336  0.3600 -1.4547
  431MOL0     H56834   7.951   8.199   5.958 -1.6526  1.5022 -1.5175
  431MOL0     H56835   8.244   8.250   5.926  0.5329  1.2984  1.6475
  431MOL0     H56836   8.120   8.354   5.987  0.7401  0.5499 -3.7174
  431MOL0     H56837   8.193   8.082   6.105 -0.0600  0.4155  1.4031
  431MOL0     H56838   8.062   8.185   6.161 -0.0792 -1.1293  0.5331
  431MOL0     H56839   8.363   8.252   6.180 -0.4815 -0.9084 -0.5647
  431MOL0     H56840   8.238   8.216   6.300 -0.0943 -0.9174 -0.3352
  431MOL0     H56841   8.258   8.476   6.128 -2.6956 -0.4139 -1.6648
  431MOL0     H56842   8.116   8.441   6.202  0.1458  2.2628 -1.2643
  431MOL0     H56843   8.231   8.583   6.362  0.9060  1.0231  3.4802
  431MOL0     H56844   8.379   8.488   6.332 -0.0764 -2.5073 -0.1485
  431MOL0     H56845   8.041   8.541   6.505 -0.6937  0.8740  1.1770
  431MOL0     H56846   8.182   8.451   6.856  3.4495 -0.1283 -4.8924
  431MOL0     H56847   8.018   8.374   6.819  0.9037 -1.4207 -1.7991
  431MOL0     H56848   7.943   8.589   6.742 -0.9299 -1.8429  0.6515
  431MOL0     H56849   8.108   8.652   6.753 -0.1725  2.3568  2.9825
  431MOL0     H56850   7.922   8.724   6.946 -0.0154 -1.1291  1.4733
  431MOL0     H56851   7.921   8.559   6.983  1.9891 -0.9470  0.2403
  431MOL0     H56852   8.158   8.573   7.072  0.2145 -1.7659 -1.8153
  431MOL0     H56853   8.069   8.716   7.132 -1.2868  1.3952 -2.6202
  431MOL0     H56854   8.283   8.881   7.209  1.7288  0.8004  1.2345
  431MOL0     H56855   8.522   8.886   7.274 -1.5094 -0.2091  0.7111
  431MOL0     H56856   8.892   8.724   7.355 -1.5389 -0.0292 -6.4726
  431MOL0     H56857   9.160   8.762   7.418 -0.9482  0.2066  1.1717
  431MOL0     H56858   9.343   9.131   7.348  0.5605 -0.4522  0.8427
  431MOL0     H56859   9.391   9.047   7.196  0.2700 -3.0511 -0.5840
  431MOL0     H56860   9.554   8.921   7.322  1.4367  0.5289 -1.4428
  431MOL0     H56861   9.540   9.048   7.442 -0.8140  0.1290  0.2661
  431MOL0     H56862   9.724   9.112   7.277  0.6590  0.9466 -1.5880
  431MOL0     H56863   9.588   9.211   7.243  1.1453  0.8648 -0.7803
  431MOL0     H56864   9.660   8.937   7.107  4.1722  1.6605 -1.2473
  431MOL0     H56865   9.537   9.044   7.045  1.3144 -0.6123 -1.6374
  431MOL0     H56866   9.744   9.205   7.027  0.5352 -0.3093 -0.4078
  431MOL0     H56867   9.714   9.072   6.910 -2.9978  3.0871 -0.3672
  431MOL0     H56868   9.884   8.928   7.029 -1.5878 -0.2445  1.3628
  431MOL0     H56869   9.910   9.060   7.147 -0.8924  2.8002 -0.4984
  431MOL0     H56870   9.956   9.161   6.881 -1.9722 -4.4671 -2.7462
  431MOL0     H56871  10.052   9.176   7.025  0.1508  0.5336 -0.3143
  431MOL0     H56872  10.140   8.926   6.994 -0.3934  0.5319  1.0410
  431MOL0     H56873  10.186   9.025   6.857  1.9042 -1.0680  2.7243
  431MOL0     H56874   9.157   9.093   7.177  1.6881 -0.7058  0.9839
  431MOL0     H56875   8.920   9.087   7.131 -4.4631 -0.5815  0.7091
  431MOL0     H56876   8.626   8.652   6.922 -1.1455 -2.2384 -0.2942
  431MOL0     H56877   8.389   8.640   6.859 -2.2254 -1.4008  0.9495
  431MOL0     H56878   7.650   8.238   5.576 -0.8771  0.6419 -1.0587
  431MOL0     H56879   7.499   8.138   5.424 -1.1927 -0.2989 -3.1390
  431MOL0     H56880   7.470   7.682   5.009 -0.8161  0.5039  2.5253
  431MOL0     H56881   7.292   7.657   4.857 -1.6784 -0.4053  2.9296
  431MOL0     H56882   6.921   7.904   4.884  0.3520 -0.2232  0.9134
  431MOL0     H56883   6.976   7.769   4.983  1.5870 -1.4333 -0.2654
  431MOL0     H56884   6.906   7.612   4.812 -1.6324 -0.2546 -1.3817
  431MOL0     H56885   6.766   7.724   4.837 -0.3591  3.4498 -2.4302
  431MOL0     H56886   6.977   7.764   4.621 -0.4993 -1.6120  0.9480
  431MOL0     H56887   6.838   7.868   4.653  2.0850  0.7262 -0.3277
  431MOL0     H56888   6.834   7.582   4.532 -1.7832 -0.5540  2.0754
  431MOL0     H56889   6.696   7.667   4.609  0.6968  2.0593  2.1403
  431MOL0     H56890   6.753   7.913   4.264 -1.1636  1.6200 -0.3021
  431MOL0     H56891   7.138   8.038   4.930  0.8892 -0.1541 -0.9336
  431MOL0     H56892   7.331   8.080   5.100  0.5989 -0.6529 -0.5639
  432MOL0     O56893  10.107   7.221   9.035 -0.2181  0.2227  0.2770
  432MOL0     C56894  10.103   7.317   8.951  0.4637  0.4408 -0.3398
  432MOL0     O56895  10.208   7.396   8.921 -0.6669  0.5790 -0.6497
  432MOL0     C56896  10.317   7.410   8.998 -0.5264  0.7869 -0.6709
  432MOL0     C56897  10.320   7.399   9.145  0.3400 -0.1041  0.3499
  432MOL0     C56898  10.443   7.430   9.209 -0.8575  0.2428 -0.1722
  432MOL0     C56899  10.555   7.473   9.134  1.4845  0.1569 -0.2644
  432MOL0     O56900  10.666   7.487   9.209 -0.3496  0.2010 -0.1344
  432MOL0     C56901  10.752   7.595   9.162 -0.1434 -0.6256 -0.5181
  432MOL0     C56902  10.874   7.635   9.246  0.1115 -1.0702 -0.2134
  432MOL0     C56903  10.969   7.512   9.260  0.0646  0.0236  0.0308
  432MOL0     C56904  11.055   7.516   9.389 -0.3087  1.0677 -0.0747
  432MOL0     C56905  11.158   7.396   9.394 -0.4552 -1.1993 -0.0537
  432MOL0     C56906  11.228   7.401   9.530 -0.7176  0.3903 -0.0858
  432MOL0     C56907  11.361   7.320   9.516  0.1418 -0.0061  0.5540
  432MOL0     C56908  11.420   7.304   9.653 -0.6648 -0.0746 -0.0312
  432MOL0     N56909  11.550   7.238   9.640  0.4420  0.0090 -0.5165
  432MOL0     C56910  11.671   7.300   9.643 -0.1831 -0.1113 -0.3394
  432MOL0     C56911  11.760   7.193   9.645 -0.4398  0.1051  0.6952
  432MOL0     C56912  11.909   7.191   9.695 -0.1903  0.6758 -0.8629
  432MOL0     C56913  11.922   7.182   9.843  0.0803  0.7794 -0.1796
  432MOL0     C56914  11.855   7.053   9.897 -0.7267 -0.6972  0.2107
  432MOL0     C56915  11.851   7.046  10.047  0.1590  0.2683 -0.4072
  432MOL0     O56916  11.836   7.174  10.120 -0.0571 -0.0363  0.1932
  432MOL0     C56917  11.719   7.240  10.101 -0.0653  0.3407  0.5929
  432MOL0     C56918  11.593   7.179  10.131 -0.0555 -0.0379 -0.3794
  432MOL0     C56919  11.473   7.239  10.101  0.5329  0.0358 -1.6344
  432MOL0     C56920  11.463   7.367  10.033 -1.4469 -0.3383  0.1230
  432MOL0     C56921  11.338   7.423   9.990  0.0092  0.5736 -0.9695
  432MOL0     O56922  11.235   7.339   9.963 -0.6683 -0.1706 -0.3783
  432MOL0     C56923  11.126   7.368   9.885  0.1760  0.1228 -0.2361
  432MOL0     C56924  11.051   7.254   9.863 -0.2763 -1.0277  0.3381
  432MOL0     C56925  10.946   7.271   9.774 -0.9288 -0.4649 -1.0060
  432MOL0     C56926  10.901   7.400   9.730  0.2654  1.2330  0.0489
  432MOL0     O56927  10.805   7.410   9.638  0.3700 -0.2601 -0.6108
  432MOL0     C56928  10.678   7.382   9.706  0.4303  0.6543  0.0062
  432MOL0     C56929  10.562   7.378   9.607  0.1609 -0.4247  0.1856
  432MOL0     C56930  10.431   7.326   9.664 -0.1703 -0.4698  0.2902
  432MOL0     C56931  10.325   7.346   9.569 -0.6973  0.2932 -0.2597
  432MOL0     C56932  10.191   7.298   9.611 -0.1381  0.6751 -0.3544
  432MOL0     C56933  10.128   7.385   9.731  0.5632 -0.9794 -0.1126
  432MOL0     C56934  10.103   7.532   9.701 -0.0787 -0.3679  0.3491
  432MOL0     C56935  10.018   7.606   9.806  0.6017  0.4242  1.2550
  432MOL0    Cl56936  10.068   7.596   9.969  0.0183  0.3416  0.3887
  432MOL0     C56937  10.974   7.515   9.771  0.3519 -0.1505 -0.9110
  432MOL0     C56938  11.083   7.501   9.847 -0.6865  0.5410 -1.0033
  432MOL0     O56939  11.329   7.543   9.995  0.5196 -0.1061 -0.3854
  432MOL0     C56940  11.584   7.438  10.031  0.4415 -0.7561 -1.0712
  432MOL0     C56941  11.707   7.374  10.058  0.1192 -1.0077 -0.5169
  432MOL0     N56942  11.695   7.079   9.607 -0.7108  0.9063  0.4792
  432MOL0     N56943  11.568   7.106   9.608  0.6270 -0.1857  0.3958
  432MOL0     C56944  10.547   7.490   8.998  1.2666  0.2458  1.0150
  432MOL0     C56945  10.432   7.462   8.929  0.0644 -0.7566  0.0503
  432MOL0     C56946   9.969   7.339   8.882 -0.2208  0.1074 -0.3140
  432MOL0     C56947   9.968   7.417   8.767  0.3533  0.5517  0.2301
  432MOL0     C56948   9.844   7.434   8.707 -0.0618 -0.1137 -0.5331
  432MOL0     C56949   9.722   7.383   8.750  0.6172  0.0210  0.0187
  432MOL0     O56950   9.617   7.391   8.664 -0.4272 -0.1416  0.5783
  432MOL0     C56951   9.488   7.395   8.722 -0.1481 -0.5848 -0.2324
  432MOL0     C56952   9.450   7.539   8.785  0.0912 -0.1426 -0.6746
  432MOL0     C56953   9.441   7.651   8.682 -0.8564  1.5555 -0.7340
  432MOL0     C56954   9.473   7.785   8.755  0.4631 -0.6643  0.2165
  432MOL0     C56955   9.426   7.899   8.666 -0.5870 -0.0816 -0.0135
  432MOL0     C56956   9.395   7.985   8.594 -0.1024 -0.2779  0.5016
  432MOL0     C56957   9.724   7.298   8.865  0.2327  0.9577 -0.4844
  432MOL0     C56958   9.853   7.279   8.922  0.0388  0.0846  0.1625
  432MOL0     H56959  10.237   7.355   9.199  0.3804  0.4843  0.9032
  432MOL0     H56960  10.454   7.418   9.316 -0.9731 -1.2666 -0.3039
  432MOL0     H56961  10.693   7.684   9.139 -1.1661 -1.5546 -1.6365
  432MOL0     H56962  10.795   7.562   9.067 -4.8602 -1.8581 -2.5137
  432MOL0     H56963  10.843   7.675   9.343  1.5756  0.3738 -0.2876
  432MOL0     H56964  10.924   7.705   9.178 -0.0745 -3.1616 -2.6713
  432MOL0     H56965  11.034   7.499   9.173 -2.3305  0.5722 -1.9426
  432MOL0     H56966  10.907   7.423   9.269  1.4628 -0.7680  3.2028
  432MOL0     H56967  11.121   7.602   9.377  1.4068 -0.5864 -5.8297
  432MOL0     H56968  10.987   7.524   9.474 -1.3350 -1.1391 -0.6177
  432MOL0     H56969  11.228   7.415   9.312 -2.0339 -0.4315 -1.2865
  432MOL0     H56970  11.122   7.294   9.379  0.7616 -2.1644  2.8927
  432MOL0     H56971  11.178   7.346   9.611  0.4068 -0.8795 -0.2267
  432MOL0     H56972  11.253   7.502   9.562 -0.4530  0.2842  0.0374
  432MOL0     H56973  11.345   7.224   9.466 -0.4609 -0.3617  1.4172
  432MOL0     H56974  11.432   7.380   9.457 -1.4646  2.3870  0.9502
  432MOL0     H56975  11.364   7.241   9.723 -2.5292  4.0118  2.5068
  432MOL0     H56976  11.438   7.399   9.705  7.8310 -0.5854 -0.5281
  432MOL0     H56977  11.694   7.401   9.673  0.6438 -0.5547  0.5895
  432MOL0     H56978  11.954   7.285   9.662  2.4686 -0.2474 -0.0772
  432MOL0     H56979  11.958   7.105   9.648  1.3103  0.5578  0.8140
  432MOL0     H56980  11.880   7.277   9.877  1.1828  1.4590 -0.6252
  432MOL0     H56981  12.029   7.166   9.863  0.6131  2.1104 -1.7309
  432MOL0     H56982  11.749   7.048   9.871 -1.1865  1.6531  1.4160
  432MOL0     H56983  11.903   6.963   9.856  1.5996 -1.2980  3.8379
  432MOL0     H56984  11.941   6.994  10.083 -0.6896 -1.8029 -1.1463
  432MOL0     H56985  11.771   6.979  10.080 -0.3225  1.7660  1.6738
  432MOL0     H56986  11.589   7.084  10.183 -1.2701 -1.2865 -2.6176
  432MOL0     H56987  11.392   7.184  10.150  1.8028  2.1797  3.5799
  432MOL0     H56988  11.081   7.158   9.902 -0.1987 -0.3046  2.1703
  432MOL0     H56989  10.894   7.184   9.735 -0.5813 -1.3836  0.4988
  432MOL0     H56990  10.646   7.461   9.775 -2.4190  0.0652 -0.5433
  432MOL0     H56991  10.692   7.287   9.758  3.5248  0.8523 -0.2504
  432MOL0     H56992  10.584   7.323   9.515 -2.0360 -3.5872  1.3973
  432MOL0     H56993  10.552   7.483   9.578  1.0770 -0.3440  0.1247
  432MOL0     H56994  10.398   7.385   9.750  0.8390 -0.9177  1.0107
  432MOL0     H56995  10.424   7.224   9.704  0.3838 -1.0282 -0.9761
  432MOL0     H56996  10.327   7.452   9.540  1.1568 -0.1608 -2.0683
  432MOL0     H56997  10.351   7.283   9.483 -0.5474 -1.7805  1.2367
  432MOL0     H56998  10.198   7.193   9.642  0.6422  1.4249  2.2818
  432MOL0     H56999  10.124   7.301   9.525  1.2299 -3.8978 -1.9161
  432MOL0     H57000  10.191   7.386   9.820  0.6879  1.5293 -0.1584
  432MOL0     H57001  10.027   7.346   9.748 -0.2237  1.0515  0.1464
  432MOL0     H57002  10.199   7.583   9.691 -1.7510  2.7278 -1.5936
  432MOL0     H57003  10.049   7.540   9.606  1.5888 -3.1600 -0.9563
  432MOL0     H57004   9.913   7.576   9.810  0.0823  1.8401 -0.3897
  432MOL0     H57005  10.014   7.713   9.781  1.1807  0.1814  0.0331
  432MOL0     H57006  10.948   7.608   9.722  2.7140 -1.3679 -4.9279
  432MOL0     H57007  11.121   7.595   9.885 -3.1341  1.4647 -0.7107
  432MOL0     H57008  11.590   7.542  10.001  4.5531  0.5682  3.1047
  432MOL0     H57009  11.804   7.420  10.043  0.1592 -0.0546  2.0884
  432MOL0     H57010  10.640   7.519   8.951  0.1664  4.6538  1.1693
  432MOL0     H57011  10.434   7.476   8.822  0.3327 -3.9282 -0.4629
  432MOL0     H57012  10.059   7.465   8.730  2.1298 -1.6954  1.4085
  432MOL0     H57013   9.840   7.483   8.610  0.7316  0.0920 -0.4686
  432MOL0     H57014   9.461   7.314   8.790  2.1591  1.5083  3.5407
  432MOL0     H57015   9.417   7.382   8.639 -0.2182  2.9342 -0.9046
  432MOL0     H57016   9.352   7.534   8.833 -0.8591 -1.7822 -2.6476
  432MOL0     H57017   9.528   7.565   8.857 -1.7308  0.7944  1.0796
  432MOL0     H57018   9.336   7.646   8.655 -1.7448  1.5462  2.3196
  432MOL0     H57019   9.502   7.612   8.600 -2.0603 -1.7088 -0.2479
  432MOL0     H57020   9.408   7.791   8.842 -0.1012  3.7312 -0.3158
  432MOL0     H57021   9.574   7.796   8.795  1.6671 -0.9165 -2.4837
  432MOL0     H57022   9.373   8.068   8.529  2.9368  1.3911  1.3804
  432MOL0     H57023   9.637   7.237   8.887 -0.8782  2.5137 -0.4185
  432MOL0     H57024   9.852   7.206   9.003  0.8033  1.0237  1.0424
  433MOL0     O57025   0.612   6.570   4.474 -0.0116 -0.1804 -0.2582
  433MOL0     C57026   0.593   6.549   4.358  0.3521 -0.5611  0.8189
  433MOL0     O57027   0.678   6.577   4.252 -0.1027  0.3788  0.2395
  433MOL0     C57028   0.807   6.633   4.257  0.2293  1.0064 -0.6329
  433MOL0     C57029   0.857   6.700   4.363  0.0321  0.8526 -0.6128
  433MOL0     C57030   0.997   6.730   4.382  0.2243 -0.4662  0.4888
  433MOL0     C57031   1.079   6.714   4.273  0.2585 -0.8972  0.3971
  433MOL0     O57032   1.217   6.728   4.271 -0.2667 -0.3092 -0.0691
  433MOL0     C57033   1.294   6.758   4.394 -0.2999  0.2748 -0.1040
  433MOL0     C57034   1.441   6.776   4.363 -0.4479  1.1554  0.3656
  433MOL0     C57035   1.459   6.880   4.263  0.4663 -0.0080  0.1069
  433MOL0     C57036   1.455   6.835   4.114  0.3990  0.5389  0.0901
  433MOL0     C57037   1.359   6.915   4.028  0.0844 -0.2374 -0.2131
  433MOL0     C57038   1.373   6.886   3.884 -0.6310 -0.6237  0.1252
  433MOL0     C57039   1.294   7.000   3.812 -0.2517  0.0780  0.4127
  433MOL0     C57040   1.207   6.948   3.697  0.0832 -0.5626 -0.6795
  433MOL0     N57041   1.089   6.870   3.740  0.0158 -0.2926  0.7128
  433MOL0     C57042   0.957   6.906   3.709 -0.5275  0.8844 -0.6770
  433MOL0     C57043   0.890   6.792   3.758  1.0223 -0.7412 -0.1235
  433MOL0     C57044   0.741   6.764   3.735  0.5094  0.8264  0.6701
  433MOL0     C57045   0.693   6.619   3.707 -0.3264 -0.5697 -0.1073
  433MOL0     C57046   0.550   6.594   3.655  0.8856 -1.2110  0.2559
  433MOL0     C57047   0.508   6.456   3.612 -0.0361  0.8200  0.6714
  433MOL0     O57048   0.365   6.454   3.604  0.1920 -1.5454  0.3082
  433MOL0     C57049   0.289   6.359   3.551  0.0381  0.2068  0.0498
  433MOL0     C57050   0.156   6.365   3.576  0.4221 -0.3270  0.1482
  433MOL0     C57051   0.054   6.288   3.523  0.8754  1.1375 -0.6484
  433MOL0     C57052   0.096   6.174   3.445  0.2117  0.4979 -1.2793
  433MOL0     C57053  -0.006   6.068   3.421 -0.3553 -0.2323  0.1393
  433MOL0     O57054  -0.138   6.095   3.454  0.2344  0.2153 -0.2448
  433MOL0     C57055  -0.240   6.005   3.421 -0.3228 -0.6158 -0.2025
  433MOL0     C57056  -0.285   5.931   3.534 -0.3854  0.4276  0.2496
  433MOL0     C57057  -0.385   5.839   3.514  0.0698  0.2307  0.3346
  433MOL0     C57058  -0.446   5.820   3.396 -0.2807 -0.6664  0.4096
  433MOL0     O57059  -0.558   5.737   3.389 -0.6044 -0.4682  0.1952
  433MOL0     C57060  -0.578   5.679   3.265  0.4356 -0.1654  0.5353
  433MOL0     C57061  -0.669   5.557   3.279  0.3528 -0.4076 -0.2119
  433MOL0     C57062  -0.609   5.449   3.374  0.0588 -0.9435 -0.4266
  433MOL0     C57063  -0.455   5.419   3.379  1.0254 -0.3717 -0.1488
  433MOL0     C57064  -0.420   5.276   3.425  0.7980 -0.1607  0.6712
  433MOL0     C57065  -0.274   5.236   3.372 -0.2432 -0.4804 -0.9615
  433MOL0     C57066  -0.147   5.312   3.426 -0.4575 -0.0096 -0.0290
  433MOL0     C57067  -0.016   5.243   3.384 -0.3661  0.7523 -0.4456
  433MOL0    Cl57068   0.013   5.278   3.213 -0.1424 -0.1392 -0.1613
  433MOL0     C57069  -0.398   5.898   3.289 -0.0792  0.0755  0.0366
  433MOL0     C57070  -0.293   5.990   3.298 -0.1397  0.0422 -0.4565
  433MOL0     O57071   0.035   5.965   3.369  0.8541  0.3904 -0.5966
  433MOL0     C57072   0.235   6.154   3.432 -0.3776  1.2223  0.2644
  433MOL0     C57073   0.328   6.252   3.475 -0.0674  0.6952  0.1901
  433MOL0     N57074   0.967   6.715   3.829 -0.8436  0.1219 -0.2545
  433MOL0     N57075   1.087   6.762   3.818 -0.2992  0.0598 -0.0136
  433MOL0     C57076   1.030   6.661   4.157  1.0869 -0.5209  0.1029
  433MOL0     C57077   0.894   6.612   4.155  0.0117 -0.0209  0.1937
  433MOL0     C57078   0.469   6.481   4.338 -0.6306  0.2641  0.2138
  433MOL0     C57079   0.387   6.438   4.441 -0.3003 -0.4697  0.5251
  433MOL0     C57080   0.257   6.397   4.422  1.4234 -0.3749  0.1951
  433MOL0     C57081   0.207   6.389   4.295 -0.0336  0.3235  0.2367
  433MOL0     O57082   0.087   6.328   4.257 -0.1499 -0.5567 -0.3055
  433MOL0     C57083  -0.020   6.421   4.288  1.0245  0.7612 -0.7560
  433MOL0     C57084  -0.154   6.386   4.225  0.6497 -0.0498 -0.1042
  433MOL0     C57085  -0.250   6.496   4.253  0.6285 -1.1813  0.4355
  433MOL0     C57086  -0.384   6.481   4.173  0.4919  0.7151  0.5336
  433MOL0     C57087  -0.430   6.340   4.152 -0.2422  1.0884 -0.2098
  433MOL0     C57088  -0.451   6.224   4.138 -0.8768  0.4284 -0.1204
  433MOL0     C57089   0.283   6.430   4.187 -0.5522 -0.2998 -0.1251
  433MOL0     C57090   0.415   6.480   4.208 -0.1926  1.8260 -0.1222
  433MOL0     H57091   0.791   6.742   4.439  0.7804  0.7065  0.1387
  433MOL0     H57092   1.032   6.761   4.480  2.4881 -3.3514  0.7183
  433MOL0     H57093   1.269   6.686   4.472 -1.7214  0.9248  0.0659
  433MOL0     H57094   1.261   6.856   4.427 -1.0352  0.8781 -2.4461
  433MOL0     H57095   1.492   6.685   4.330  0.5859  1.2528  1.6331
  433MOL0     H57096   1.491   6.809   4.455  0.7376 -1.6360  0.8245
  433MOL0     H57097   1.558   6.921   4.286  0.0647  0.7749  0.4567
  433MOL0     H57098   1.378   6.952   4.277 -0.1081 -0.6893  0.3109
  433MOL0     H57099   1.556   6.846   4.075  0.5882  0.2231  0.4915
  433MOL0     H57100   1.437   6.728   4.100  0.7349  0.1651  2.1884
  433MOL0     H57101   1.393   7.018   4.041  0.4683 -0.6125  2.2252
  433MOL0     H57102   1.257   6.902   4.065 -0.1728  1.9628 -0.0269
  433MOL0     H57103   1.327   6.791   3.857 -1.9449  0.1988 -0.6730
  433MOL0     H57104   1.476   6.891   3.849 -0.6936  2.4554  0.0817
  433MOL0     H57105   1.217   7.038   3.880  0.7868  3.2863 -0.0500
  433MOL0     H57106   1.352   7.079   3.764 -0.5767  0.4511  0.6207
  433MOL0     H57107   1.269   6.893   3.625 -2.3479 -2.4411 -1.4702
  433MOL0     H57108   1.174   7.040   3.647 -0.0588 -2.0563 -3.5544
  433MOL0     H57109   0.912   6.986   3.650  2.0760  1.0143 -2.6903
  433MOL0     H57110   0.719   6.812   3.639 -3.6913 -4.4319 -1.5322
  433MOL0     H57111   0.686   6.818   3.813  1.7096  0.9685  1.4534
  433MOL0     H57112   0.695   6.564   3.801 -2.4723 -1.7247 -0.6860
  433MOL0     H57113   0.762   6.564   3.643  1.1513  0.4618  0.5391
  433MOL0     H57114   0.477   6.624   3.730  0.4130 -2.3890  0.2838
  433MOL0     H57115   0.546   6.651   3.561  1.2822 -0.8433  0.4569
  433MOL0     H57116   0.531   6.391   3.697  0.0033  1.0263  0.8194
  433MOL0     H57117   0.553   6.423   3.518 -0.1569  2.4433  0.0185
  433MOL0     H57118   0.108   6.450   3.623  3.4313  2.9810 -2.2128
  433MOL0     H57119  -0.053   6.289   3.542  1.1209  3.5296  0.9737
  433MOL0     H57120  -0.228   5.941   3.625  1.5056  1.4757 -0.9932
  433MOL0     H57121  -0.432   5.785   3.596 -0.0975 -0.5440 -0.2572
  433MOL0     H57122  -0.486   5.662   3.208 -2.7770 -2.0841 -4.8622
  433MOL0     H57123  -0.633   5.747   3.200  0.3989 -2.6372 -2.2671
  433MOL0     H57124  -0.682   5.518   3.178  0.0745  1.4833 -0.9482
  433MOL0     H57125  -0.763   5.599   3.316  1.5406  1.0354  1.3402
  433MOL0     H57126  -0.652   5.350   3.357 -0.2509 -0.6727 -1.2477
  433MOL0     H57127  -0.644   5.482   3.473 -1.6898  1.9824 -1.8867
  433MOL0     H57128  -0.403   5.440   3.285  4.0481 -0.0258  1.4484
  433MOL0     H57129  -0.418   5.488   3.456  0.4251  0.3174 -0.4650
  433MOL0     H57130  -0.489   5.208   3.373  1.5132 -1.5562  1.4790
  433MOL0     H57131  -0.444   5.263   3.531 -3.2946  1.6093  0.1822
  433MOL0     H57132  -0.263   5.239   3.263  3.0234  0.6398 -0.7085
  433MOL0     H57133  -0.270   5.133   3.409  2.8132 -0.9330 -2.2938
  433MOL0     H57134  -0.139   5.417   3.394  0.5298 -0.3288 -0.8913
  433MOL0     H57135  -0.167   5.312   3.534 -0.8490 -0.1116 -0.1007
  433MOL0     H57136  -0.007   5.136   3.406 -0.3303  1.0602  1.1640
  433MOL0     H57137   0.066   5.282   3.445 -1.1604  1.7857 -0.0135
  433MOL0     H57138  -0.436   5.888   3.188 -1.5677  0.1120  0.5568
  433MOL0     H57139  -0.259   6.049   3.214  1.1624  0.2227  0.1691
  433MOL0     H57140   0.276   6.072   3.374 -3.0517 -1.7589  2.3468
  433MOL0     H57141   0.435   6.237   3.471 -0.0921 -0.8074  2.7987
  433MOL0     H57142   1.094   6.644   4.071 -0.2084 -0.5584 -0.8840
  433MOL0     H57143   0.855   6.566   4.065  3.9613 -0.7365 -1.3177
  433MOL0     H57144   0.412   6.448   4.546 -0.7984 -1.4506  0.7473
  433MOL0     H57145   0.206   6.369   4.513  0.9945  1.6120  0.6209
  433MOL0     H57146   0.009   6.519   4.249 -1.7216  2.5232  1.2708
  433MOL0     H57147  -0.033   6.447   4.394  0.0058  0.8840 -0.9054
  433MOL0     H57148  -0.134   6.353   4.123 -0.8625  0.1884 -0.4941
  433MOL0     H57149  -0.185   6.290   4.268 -1.9345 -0.2491 -2.1881
  433MOL0     H57150  -0.222   6.599   4.233 -0.9197 -0.9173 -0.4949
  433MOL0     H57151  -0.272   6.488   4.360 -1.2219 -1.2699  0.0863
  433MOL0     H57152  -0.463   6.547   4.211  0.3547  1.0320 -0.2706
  433MOL0     H57153  -0.365   6.522   4.073  0.8665  2.3246  1.2391
  433MOL0     H57154  -0.483   6.123   4.120 -2.8693  1.2133 -1.3140
  433MOL0     H57155   0.234   6.421   4.091 -0.2629  1.5234 -0.4757
  433MOL0     H57156   0.470   6.519   4.124 -0.2529 -0.8995 -1.5014
  434MOL0     O57157   9.403   9.168   4.070  0.0046 -0.0201  0.3500
  434MOL0     C57158   9.404   9.217   4.181 -0.5794  0.1686  0.2851
  434MOL0     O57159   9.325   9.319   4.224  0.4498 -0.1655  0.5910
  434MOL0     C57160   9.266   9.403   4.126 -0.6346  0.1051 -0.2883
  434MOL0     C57161   9.321   9.529   4.090  0.1049  0.3886 -0.3093
  434MOL0     C57162   9.271   9.617   3.996 -0.7859 -0.3012  0.4233
  434MOL0     C57163   9.164   9.564   3.921 -0.2052  0.2763  0.3966
  434MOL0     O57164   9.120   9.657   3.829 -0.0558 -0.0017  0.6495
  434MOL0     C57165   9.016   9.617   3.732  0.1605  0.4114  0.1266
  434MOL0     C57166   8.862   9.637   3.773 -0.6974  0.3933  0.4123
  434MOL0     C57167   8.816   9.787   3.762 -0.1378 -0.0297 -0.3540
  434MOL0     C57168   8.671   9.806   3.770 -0.1330  0.3445 -0.3624
  434MOL0     C57169   8.606   9.937   3.731  0.0090 -0.7621 -0.0507
  434MOL0     C57170   8.456   9.957   3.762 -0.4624 -0.8364 -0.0877
  434MOL0     C57171   8.400  10.088   3.713  0.4390  0.5274 -1.0565
  434MOL0     C57172   8.416  10.117   3.562  0.8838  0.9036 -0.4019
  434MOL0     N57173   8.317  10.213   3.515  0.8574 -0.6297  0.3971
  434MOL0     C57174   8.344  10.348   3.503 -0.3405  1.3080  0.5498
  434MOL0     C57175   8.225  10.404   3.477  1.2043  0.3354  0.5060
  434MOL0     C57176   8.210  10.554   3.453 -0.2872 -0.5506 -1.5262
  434MOL0     C57177   8.214  10.643   3.577 -0.5355  0.1482 -0.7883
  434MOL0     C57178   8.173  10.788   3.549  0.4759  0.3851 -0.1132
  434MOL0     C57179   8.138  10.866   3.671  0.0247 -1.0340  0.6875
  434MOL0     O57180   8.008  10.822   3.712  0.0738  0.1102 -0.6641
  434MOL0     C57181   7.927  10.920   3.765  0.1297 -0.2998 -0.1907
  434MOL0     C57182   7.787  10.903   3.752 -0.4543 -0.3553  1.1522
  434MOL0     C57183   7.702  11.004   3.794  0.1664 -0.3580 -0.1657
  434MOL0     C57184   7.747  11.117   3.861  0.1333  1.0961 -0.7505
  434MOL0     C57185   7.651  11.229   3.903 -0.6280 -0.0242  0.5470
  434MOL0     O57186   7.711  11.312   3.995 -0.8325 -0.0788 -0.0198
  434MOL0     C57187   7.653  11.423   4.025  0.6940  0.6457  0.1400
  434MOL0     C57188   7.547  11.495   3.954 -0.7316  0.8002  0.8427
  434MOL0     C57189   7.498  11.602   4.019  0.5979  0.2385 -0.1551
  434MOL0     C57190   7.525  11.645   4.146  0.3579  0.0463 -0.6252
  434MOL0     O57191   7.454  11.740   4.205  1.1716  0.3411  0.1607
  434MOL0     C57192   7.469  11.806   4.338 -0.5411  0.2876  0.9268
  434MOL0     C57193   7.602  11.863   4.376  0.3107  0.6104  0.4254
  434MOL0     C57194   7.644  11.977   4.294  1.0661 -0.2794  0.4163
  434MOL0     C57195   7.791  12.013   4.312 -0.2096 -0.2313  0.2491
  434MOL0     C57196   7.819  12.160   4.251 -1.4587 -0.4501 -0.6937
  434MOL0     C57197   7.810  12.158   4.093  0.0219 -0.5668  0.5785
  434MOL0     C57198   7.837  12.293   4.040 -0.5148  0.2906 -0.6774
  434MOL0     C57199   7.820  12.299   3.893  0.0008 -0.1837 -0.2499
  434MOL0    Cl57200   7.652  12.265   3.829  0.0732 -0.3990  0.5139
  434MOL0     C57201   7.633  11.581   4.216  0.3964 -1.0692 -0.4229
  434MOL0     C57202   7.700  11.473   4.152  0.9683  0.2362 -0.0193
  434MOL0     O57203   7.535  11.235   3.857  0.3858  0.4546 -0.3680
  434MOL0     C57204   7.882  11.122   3.896 -0.0080  0.3897  0.6844
  434MOL0     C57205   7.968  11.032   3.835 -0.2945  1.2271  0.0466
  434MOL0     N57206   8.132  10.299   3.465  0.9129 -0.0836  0.2286
  434MOL0     N57207   8.187  10.185   3.497 -0.3503 -1.1220 -0.2148
  434MOL0     C57208   9.101   9.446   3.956 -0.0421 -0.0943 -0.1809
  434MOL0     C57209   9.152   9.367   4.057  0.2774 -0.0433 -0.2461
  434MOL0     C57210   9.503   9.165   4.278  0.7861 -0.2850  0.2925
  434MOL0     C57211   9.465   9.173   4.418  0.1457  0.0070  0.5588
  434MOL0     C57212   9.552   9.124   4.518  0.9662  0.4482  0.2557
  434MOL0     C57213   9.662   9.048   4.480  0.4345  0.5296  0.1944
  434MOL0     O57214   9.747   8.984   4.566  0.0490  0.2529 -0.4632
  434MOL0     C57215   9.744   9.017   4.701  1.2128 -0.5002  0.0771
  434MOL0     C57216   9.857   8.939   4.769  0.0573  0.4829 -0.1882
  434MOL0     C57217   9.885   8.984   4.912 -0.3892 -0.3544  0.5638
  434MOL0     C57218   9.966   8.884   4.979 -0.0075  0.5501 -0.1595
  434MOL0     C57219   9.997   8.917   5.113 -0.6345 -0.1175 -0.2204
  434MOL0     C57220  10.007   8.947   5.230 -0.6603 -0.6851  1.0610
  434MOL0     C57221   9.696   9.035   4.346  0.5120  0.1232  0.0564
  434MOL0     C57222   9.618   9.101   4.245  1.0266  0.6165  0.7011
  434MOL0     H57223   9.407   9.569   4.142 -0.6289  1.7084 -0.0772
  434MOL0     H57224   9.314   9.716   3.984  3.2760 -2.1162 -2.4477
  434MOL0     H57225   9.029   9.515   3.693 -1.7032 -0.2283  1.0686
  434MOL0     H57226   9.037   9.669   3.638  0.1534  1.1733  0.5409
  434MOL0     H57227   8.847   9.590   3.871 -0.2613 -0.8065 -0.0764
  434MOL0     H57228   8.803   9.578   3.702  3.4004 -1.9023 -1.4643
  434MOL0     H57229   8.853   9.828   3.667 -1.5216  1.9982 -0.0922
  434MOL0     H57230   8.861   9.852   3.837 -1.2473 -0.2712  0.5416
  434MOL0     H57231   8.632   9.730   3.701 -0.9671  2.0814 -1.8777
  434MOL0     H57232   8.635   9.787   3.871  0.5839 -1.6143 -0.4225
  434MOL0     H57233   8.620   9.945   3.623  0.1576 -2.1538 -0.1547
  434MOL0     H57234   8.646  10.025   3.782  0.1436  0.6436 -2.4132
  434MOL0     H57235   8.435   9.952   3.869 -0.1496  0.1852  0.0360
  434MOL0     H57236   8.399   9.884   3.703 -1.5945  2.2210 -3.1326
  434MOL0     H57237   8.293  10.087   3.735  0.7357  2.2904  0.8170
  434MOL0     H57238   8.442  10.172   3.770  1.9443 -1.0397  0.2621
  434MOL0     H57239   8.410  10.023   3.507 -0.2983  1.4504 -1.2474
  434MOL0     H57240   8.514  10.164   3.549  0.8709  0.5818 -1.7226
  434MOL0     H57241   8.443  10.394   3.504  0.2270  0.2332 -0.9866
  434MOL0     H57242   8.123  10.572   3.389  1.5590  0.4632 -3.8889
  434MOL0     H57243   8.299  10.585   3.398 -0.4637 -0.8123 -1.9657
  434MOL0     H57244   8.313  10.638   3.622  0.8178 -1.9309 -3.6888
  434MOL0     H57245   8.137  10.602   3.642 -1.8581  2.6900 -0.6232
  434MOL0     H57246   8.257  10.841   3.504  0.1321  0.3482 -0.8189
  434MOL0     H57247   8.095  10.789   3.473  1.3366 -0.4525 -1.0408
  434MOL0     H57248   8.117  10.965   3.629 -0.5100 -1.6664 -0.5868
  434MOL0     H57249   8.204  10.870   3.758  0.5304  4.2105  0.3754
  434MOL0     H57250   7.745  10.816   3.703  0.6728  0.0693 -0.6676
  434MOL0     H57251   7.597  10.986   3.770 -0.0770  1.3849 -0.5314
  434MOL0     H57252   7.527  11.479   3.849  3.3582 -2.8996  0.3185
  434MOL0     H57253   7.415  11.647   3.966  1.4599  1.5749 -0.4103
  434MOL0     H57254   7.452  11.729   4.414  3.6646 -0.1744  1.6266
  434MOL0     H57255   7.399  11.890   4.343 -0.6686  0.6036 -3.0377
  434MOL0     H57256   7.675  11.783   4.370 -0.6080 -0.1089 -2.6699
  434MOL0     H57257   7.606  11.893   4.482  1.2693  0.3184  0.4803
  434MOL0     H57258   7.588  12.066   4.327 -0.5629 -1.8051  2.0096
  434MOL0     H57259   7.611  11.959   4.191  0.4635 -0.3982  0.6241
  434MOL0     H57260   7.806  12.021   4.420 -3.9530  0.0129  0.8634
  434MOL0     H57261   7.854  11.934   4.270  2.4462  1.2184  1.2662
  434MOL0     H57262   7.918  12.195   4.278 -1.8081 -1.1772  1.7284
  434MOL0     H57263   7.745  12.232   4.286  1.0534  1.7417  0.4443
  434MOL0     H57264   7.705  12.137   4.072 -1.4702  4.0809  2.1351
  434MOL0     H57265   7.883  12.084   4.058  1.6452  1.5736 -0.8959
  434MOL0     H57266   7.777  12.376   4.080  0.3822  0.3623  0.5905
  434MOL0     H57267   7.942  12.315   4.061 -0.5102 -0.3111 -0.0336
  434MOL0     H57268   7.898  12.233   3.854  1.4877  2.1426 -1.4250
  434MOL0     H57269   7.839  12.401   3.859 -0.5263 -0.0964 -0.2834
  434MOL0     H57270   7.675  11.608   4.312 -0.9426 -1.1434  0.2037
  434MOL0     H57271   7.788  11.422   4.190  0.2364  0.9329  2.8153
  434MOL0     H57272   7.937  11.193   3.958 -0.3985  2.0064 -0.7618
  434MOL0     H57273   8.073  11.052   3.852 -0.6795  2.1633  1.5046
  434MOL0     H57274   9.007   9.425   3.906 -0.7757  3.6650 -0.6625
  434MOL0     H57275   9.090   9.280   4.076 -0.9558  0.6997 -0.6977
  434MOL0     H57276   9.373   9.211   4.461 -0.5316  0.3658 -1.1265
  434MOL0     H57277   9.517   9.120   4.621  0.3911  0.2982  0.0590
  434MOL0     H57278   9.652   8.978   4.746  1.1711  0.4933  0.8821
  434MOL0     H57279   9.748   9.126   4.712  0.5093 -0.6329  2.0239
  434MOL0     H57280   9.833   8.833   4.761  0.7063  0.3254 -0.1091
  434MOL0     H57281   9.949   8.948   4.709 -0.7209 -2.9130 -2.1695
  434MOL0     H57282   9.795   8.999   4.971  0.7404 -1.6410  2.7172
  434MOL0     H57283   9.936   9.080   4.921  0.3793 -0.7073  0.1218
  434MOL0     H57284   9.914   8.788   4.974 -1.7530  1.4776 -0.9394
  434MOL0     H57285  10.061   8.854   4.933 -0.4140 -3.9419  1.4016
  434MOL0     H57286  10.018   8.993   5.325  0.6713  0.4655  0.3830
  434MOL0     H57287   9.782   8.988   4.297  0.1712 -1.2516  0.7154
  434MOL0     H57288   9.650   9.096   4.141  0.8051  1.1731  0.6030
  435MOL0     O57289   0.063  10.458   7.788  0.3332 -0.0936  0.0896
  435MOL0     C57290   0.006  10.349   7.768  0.1086 -0.3281 -0.4426
  435MOL0     O57291   0.004  10.251   7.863 -0.3196 -0.3363  0.6361
  435MOL0     C57292   0.042  10.262   8.000  0.5327 -0.7874  0.3178
  435MOL0     C57293   0.076  10.154   8.075 -0.4172  0.4811  0.6759
  435MOL0     C57294   0.109  10.155   8.211 -0.3622  0.3199 -0.0510
  435MOL0     C57295   0.099  10.281   8.278 -0.6015 -0.0747 -0.0882
  435MOL0     O57296   0.126  10.297   8.410  0.4360 -0.7562  0.2079
  435MOL0     C57297   0.248  10.240   8.460 -0.6858 -0.5268 -0.7391
  435MOL0     C57298   0.271  10.274   8.604 -0.1063 -0.5432 -0.6826
  435MOL0     C57299   0.378  10.375   8.644  0.3861 -0.2252  0.4843
  435MOL0     C57300   0.513  10.354   8.577  0.1167  0.1874 -1.4321
  435MOL0     C57301   0.624  10.434   8.645 -0.2015  0.2756 -0.0485
  435MOL0     C57302   0.755  10.434   8.572  0.5108  0.0183  0.0977
  435MOL0     C57303   0.860  10.533   8.618  0.1306  0.2422  0.0024
  435MOL0     C57304   0.981  10.529   8.525 -0.0209  0.7963  0.3221
  435MOL0     N57305   1.048  10.397   8.537 -0.1097  1.2592 -0.2363
  435MOL0     C57306   1.021  10.278   8.472 -0.2354  0.0871  0.5104
  435MOL0     C57307   1.110  10.175   8.507 -0.3075  0.4327  0.0679
  435MOL0     C57308   1.102  10.034   8.457  0.6388 -0.1910 -0.4011
  435MOL0     C57309   0.965   9.992   8.402  0.6451 -0.1088 -0.1117
  435MOL0     C57310   0.903   9.869   8.473  0.7222  1.2059  0.3915
  435MOL0     C57311   0.837   9.771   8.377  0.6497 -0.5215  0.0237
  435MOL0     O57312   0.920   9.735   8.259  0.3691 -0.8082  0.2729
  435MOL0     C57313   0.871   9.638   8.167  0.2356 -0.2168 -0.3249
  435MOL0     C57314   0.739   9.575   8.179  0.7070 -1.1405 -0.4972
  435MOL0     C57315   0.697   9.487   8.083  0.2531 -0.7748  0.2635
  435MOL0     C57316   0.776   9.446   7.979  0.0822 -0.1793  0.0132
  435MOL0     C57317   0.732   9.359   7.867  0.0093  0.3444 -0.7341
  435MOL0     O57318   0.603   9.325   7.868 -0.4809 -0.3982 -0.0504
  435MOL0     C57319   0.544   9.236   7.774  0.2957 -0.2820 -0.4515
  435MOL0     C57320   0.584   9.216   7.640 -0.9796  0.2043 -0.8798
  435MOL0     C57321   0.513   9.129   7.556 -0.3226 -1.4534 -0.3982
  435MOL0     C57322   0.399   9.061   7.614 -1.0262  0.2248  0.2193
  435MOL0     O57323   0.320   8.992   7.528 -0.1504  0.0562  0.8636
  435MOL0     C57324   0.280   8.863   7.586 -0.3630  0.4411  0.7675
  435MOL0     C57325   0.270   8.755   7.483  0.4265  0.0845  0.6741
  435MOL0     C57326   0.177   8.799   7.378  1.5210 -0.4745  0.6813
  435MOL0     C57327   0.054   8.705   7.344  0.4350 -0.0218 -0.9367
  435MOL0     C57328   0.100   8.584   7.257  0.5346  0.9486  0.7078
  435MOL0     C57329  -0.016   8.496   7.211  0.1847  0.3085  0.1213
  435MOL0     C57330  -0.101   8.566   7.102  0.3848  0.0585  0.2390
  435MOL0     C57331  -0.191   8.471   7.017  0.2754 -0.5401 -0.2656
  435MOL0    Cl57332  -0.328   8.566   6.942 -0.1511  0.1774  0.5716
  435MOL0     C57333   0.375   9.074   7.746 -1.6329  0.1760 -0.4753
  435MOL0     C57334   0.450   9.160   7.828  0.6997  0.9058  0.3451
  435MOL0     O57335   0.823   9.319   7.790  0.0380  0.0837  1.0409
  435MOL0     C57336   0.914   9.488   7.974  0.9963  0.1192  0.1952
  435MOL0     C57337   0.952   9.589   8.062  0.2395 -0.8929  0.1484
  435MOL0     N57338   1.184  10.231   8.611 -1.0642  0.1872  0.6251
  435MOL0     N57339   1.147  10.363   8.625  0.8298 -0.5446  0.5029
  435MOL0     C57340   0.042  10.390   8.208 -0.3574  0.8778 -0.2581
  435MOL0     C57341   0.021  10.382   8.070  0.0168  0.1862  0.3662
  435MOL0     C57342  -0.073  10.321   7.646  0.0542 -0.6234  0.8499
  435MOL0     C57343  -0.118  10.434   7.572  0.8452  0.1820  0.2361
  435MOL0     C57344  -0.220  10.408   7.474 -0.2958  0.7925  0.9586
  435MOL0     C57345  -0.277  10.279   7.450 -0.1052  1.2571 -0.7038
  435MOL0     O57346  -0.375  10.273   7.356  0.0388 -0.4640 -0.3103
  435MOL0     C57347  -0.431  10.149   7.323  0.5770  0.2419  0.3057
  435MOL0     C57348  -0.570  10.171   7.274 -0.8003  0.2856 -0.3102
  435MOL0     C57349  -0.633  10.037   7.250  0.2459  1.6119 -0.4904
  435MOL0     C57350  -0.682  10.025   7.110 -0.0400 -0.4770  0.7047
  435MOL0     C57351  -0.567   9.988   7.023 -0.4102 -1.0688 -0.1453
  435MOL0     C57352  -0.460   9.969   6.962 -0.5211 -0.1543 -0.8210
  435MOL0     C57353  -0.217  10.171   7.516  0.0363 -0.7179  0.3510
  435MOL0     C57354  -0.119  10.192   7.617 -0.7610  0.5687 -1.0854
  435MOL0     H57355   0.087  10.062   8.019 -0.0105  1.8398 -1.5889
  435MOL0     H57356   0.133  10.068   8.272  4.9215  1.2471 -0.4063
  435MOL0     H57357   0.334  10.272   8.400 -1.1895  0.5029 -0.9349
  435MOL0     H57358   0.243  10.132   8.445 -0.6672 -0.7937  0.9502
  435MOL0     H57359   0.276  10.184   8.666 -5.2077 -0.0948  0.8735
  435MOL0     H57360   0.178  10.324   8.633  0.3925  0.3119 -0.5199
  435MOL0     H57361   0.398  10.375   8.752  1.0864  1.4148  0.3814
  435MOL0     H57362   0.330  10.470   8.619 -2.3669 -1.8009 -0.7135
  435MOL0     H57363   0.569  10.261   8.590 -0.0275  0.5532  4.1433
  435MOL0     H57364   0.504  10.372   8.469  0.9409  1.4738 -1.3135
  435MOL0     H57365   0.637  10.414   8.751 -3.8773 -3.9955 -0.0853
  435MOL0     H57366   0.593  10.539   8.645  0.4550  0.4734  0.8573
  435MOL0     H57367   0.728  10.460   8.469  0.2943  0.7722  0.3336
  435MOL0     H57368   0.791  10.332   8.585 -0.1414 -0.1052  1.0278
  435MOL0     H57369   0.823  10.636   8.608 -2.3815 -0.6992 -1.4638
  435MOL0     H57370   0.902  10.514   8.717 -0.3239 -1.8150 -0.1549
  435MOL0     H57371   1.045  10.614   8.551 -1.7460  1.5706  2.2953
  435MOL0     H57372   0.953  10.552   8.421  1.0719  2.6276  0.3800
  435MOL0     H57373   0.931  10.277   8.412  0.0656  0.5897  0.0377
  435MOL0     H57374   1.127   9.980   8.549 -3.3583  2.6562  2.7081
  435MOL0     H57375   1.183  10.017   8.384  1.2798  2.2492 -0.3700
  435MOL0     H57376   0.978   9.975   8.295  0.2858 -0.8102 -0.0504
  435MOL0     H57377   0.893  10.072   8.418 -0.1643 -0.6132 -1.0964
  435MOL0     H57378   0.984   9.819   8.527  1.6358  1.8269 -0.3783
  435MOL0     H57379   0.815   9.903   8.529  0.8661  1.5194  0.4297
  435MOL0     H57380   0.745   9.814   8.336  1.2334 -1.6056 -2.6456
  435MOL0     H57381   0.807   9.679   8.428 -2.1834 -1.6130 -3.2323
  435MOL0     H57382   0.670   9.597   8.260 -0.3074  1.3607 -1.9247
  435MOL0     H57383   0.595   9.450   8.086 -1.1836  2.8150  0.7826
  435MOL0     H57384   0.664   9.266   7.587 -0.8305 -1.3229 -2.1899
  435MOL0     H57385   0.532   9.130   7.449  0.7681 -1.2989 -0.2121
  435MOL0     H57386   0.187   8.877   7.641 -1.1716 -2.3482  0.2797
  435MOL0     H57387   0.352   8.822   7.658  0.3226 -0.7314 -0.5395
  435MOL0     H57388   0.241   8.666   7.541  0.8257 -1.0183 -0.7569
  435MOL0     H57389   0.368   8.735   7.440  0.8359 -0.8032  1.9660
  435MOL0     H57390   0.237   8.824   7.290  1.0874 -1.1224  0.1992
  435MOL0     H57391   0.135   8.893   7.414  0.6961 -1.1326  1.4790
  435MOL0     H57392   0.019   8.674   7.443  0.4598  0.9235 -0.6220
  435MOL0     H57393  -0.022   8.773   7.305  1.9232  2.7686  0.7009
  435MOL0     H57394   0.173   8.526   7.315 -1.7094 -0.2584  2.4886
  435MOL0     H57395   0.150   8.608   7.163 -1.7478 -0.7550 -1.0873
  435MOL0     H57396  -0.085   8.455   7.286 -2.8196  0.4287 -2.3816
  435MOL0     H57397   0.040   8.407   7.181  0.6914  0.6863 -0.0734
  435MOL0     H57398  -0.179   8.622   7.154 -3.3289 -0.6404 -4.0042
  435MOL0     H57399  -0.041   8.637   7.043 -0.2726  0.8252  0.4714
  435MOL0     H57400  -0.223   8.385   7.077 -0.0142  1.1270  2.0870
  435MOL0     H57401  -0.123   8.426   6.944 -0.8592 -1.1320 -0.9800
  435MOL0     H57402   0.296   9.028   7.805 -0.3556 -1.0874  0.3136
  435MOL0     H57403   0.425   9.168   7.933 -1.8617 -3.3987  0.3144
  435MOL0     H57404   0.988   9.452   7.903  1.6972 -3.5953  2.5542
  435MOL0     H57405   1.052   9.628   8.049  0.1151 -1.0832 -1.7076
  435MOL0     H57406   0.044  10.482   8.266  0.7430 -2.0450  5.0165
  435MOL0     H57407  -0.010  10.471   8.015  0.4718 -1.3735 -2.6340
  435MOL0     H57408  -0.102  10.538   7.600  2.9143  0.6779 -2.3294
  435MOL0     H57409  -0.261  10.491   7.418 -2.4050 -1.8232 -1.6797
  435MOL0     H57410  -0.433  10.076   7.404  1.6351  2.8869  2.8944
  435MOL0     H57411  -0.379  10.107   7.236  1.7185  1.2580  0.4721
  435MOL0     H57412  -0.614  10.223   7.359 -0.4145  0.8832 -0.4747
  435MOL0     H57413  -0.579  10.231   7.183 -2.0808  1.1073  0.3252
  435MOL0     H57414  -0.713  10.027   7.324  1.5196  2.0950  0.9806
  435MOL0     H57415  -0.570   9.951   7.269 -2.1430 -0.2638 -0.5286
  435MOL0     H57416  -0.743   9.934   7.109  1.4383 -1.5100  0.9833
  435MOL0     H57417  -0.739  10.112   7.077  3.1716  1.4654 -0.1760
  435MOL0     H57418  -0.360   9.970   6.924 -0.1986  3.4346 -0.2069
  435MOL0     H57419  -0.240  10.070   7.483 -0.5305 -0.3828 -0.2936
  435MOL0     H57420  -0.106  10.113   7.690  0.4716 -1.2139 -3.0913
  436MOL0     O57421   0.809   7.718   2.815  0.3592 -0.5709  0.7312
  436MOL0     C57422   0.820   7.834   2.783 -0.5610  0.2261 -0.4714
  436MOL0     O57423   0.914   7.875   2.702 -0.2271 -0.5230  0.5334
  436MOL0     C57424   1.000   7.803   2.624 -0.5466 -0.0252  0.3333
  436MOL0     C57425   0.981   7.676   2.584 -0.2801  0.5552  0.1554
  436MOL0     C57426   1.063   7.617   2.490 -1.1576 -0.6789 -0.0880
  436MOL0     C57427   1.167   7.692   2.421 -0.5808 -0.9161 -0.0011
  436MOL0     O57428   1.248   7.628   2.328 -0.5189  1.1332 -0.0404
  436MOL0     C57429   1.205   7.515   2.252  0.4828 -0.7586  0.9241
  436MOL0     C57430   1.165   7.570   2.112  0.2108  0.2740 -0.5495
  436MOL0     C57431   1.298   7.590   2.022 -0.0900  0.6684  0.1095
  436MOL0     C57432   1.247   7.639   1.892  0.5945 -0.4636  0.4234
  436MOL0     C57433   1.374   7.661   1.800 -0.2199 -0.1668 -1.0311
  436MOL0     C57434   1.454   7.532   1.777 -0.1480  0.2110 -0.3923
  436MOL0     C57435   1.554   7.555   1.663 -1.1301 -0.0179 -0.8348
  436MOL0     C57436   1.657   7.443   1.633 -0.3593  0.0148 -0.7713
  436MOL0     N57437   1.732   7.471   1.503  0.6654 -0.2390 -0.4136
  436MOL0     C57438   1.733   7.378   1.406 -0.9720 -0.3071  1.2510
  436MOL0     C57439   1.776   7.449   1.296  0.2394  0.0198  0.0127
  436MOL0     C57440   1.799   7.385   1.160  0.9637 -0.5015  0.9348
  436MOL0     C57441   1.697   7.431   1.049  0.4127  1.3341  0.0238
  436MOL0     C57442   1.545   7.413   1.079  1.0503  0.7567 -0.3057
  436MOL0     C57443   1.516   7.258   1.053  0.1734  0.4388  0.3045
  436MOL0     O57444   1.375   7.241   1.032  0.5763  0.0045  0.3242
  436MOL0     C57445   1.313   7.146   0.961  0.8145 -0.6992  0.2288
  436MOL0     C57446   1.373   7.020   0.923  0.1223  0.5603 -0.0584
  436MOL0     C57447   1.294   6.937   0.839 -0.1839  0.3254 -1.2737
  436MOL0     C57448   1.167   6.968   0.791  0.3433 -0.6946  0.0500
  436MOL0     C57449   1.079   6.879   0.712  0.7479  1.3308  0.0325
  436MOL0     O57450   0.945   6.911   0.685  0.3050  0.2430 -0.6238
  436MOL0     C57451   0.885   6.822   0.598  0.1141  0.1413  0.3927
  436MOL0     C57452   0.829   6.700   0.628 -0.0830 -0.3040 -0.6122
  436MOL0     C57453   0.790   6.616   0.523  0.0971 -0.2642  0.4734
  436MOL0     C57454   0.810   6.660   0.392 -0.4177  0.4548  0.5472
  436MOL0     O57455   0.789   6.564   0.293 -0.4977 -0.0482  0.5978
  436MOL0     C57456   0.765   6.615   0.160  0.6733  0.6201 -0.0936
  436MOL0     C57457   0.686   6.516   0.071  0.8447 -0.4283 -0.0509
  436MOL0     C57458   0.723   6.371   0.100  0.1627  0.3374 -0.0990
  436MOL0     C57459   0.650   6.275   0.009  0.7203 -0.3064 -0.5932
  436MOL0     C57460   0.664   6.133   0.066 -0.6401 -0.5051  0.6453
  436MOL0     C57461   0.584   6.031  -0.022  0.1339 -0.5738 -0.2835
  436MOL0     C57462   0.643   5.883  -0.028 -0.0203 -0.8024  0.3650
  436MOL0     C57463   0.537   5.798  -0.088 -0.6025  0.3807  0.2108
  436MOL0    Cl57464   0.635   5.650  -0.139 -0.1279  0.2812  0.4988
  436MOL0     C57465   0.873   6.778   0.366 -0.2903  0.1139 -0.3812
  436MOL0     C57466   0.893   6.874   0.463 -0.2310 -0.1266  0.8086
  436MOL0     O57467   1.139   6.782   0.672  0.7186  0.2751  0.6247
  436MOL0     C57468   1.113   7.089   0.836  0.6637  0.5092  0.7254
  436MOL0     C57469   1.183   7.184   0.908  0.3932  0.2807  0.3323
  436MOL0     N57470   1.817   7.571   1.341 -0.2363 -0.0116  0.2423
  436MOL0     N57471   1.785   7.592   1.461  0.4714 -0.2648 -0.0355
  436MOL0     C57472   1.180   7.830   2.457 -1.2852 -0.0771 -0.4543
  436MOL0     C57473   1.095   7.882   2.559 -0.5869 -0.2051  1.3450
  436MOL0     C57474   0.767   7.937   2.885  0.1853  0.1726 -0.6471
  436MOL0     C57475   0.758   8.072   2.844  0.0014  0.6403 -0.3833
  436MOL0     C57476   0.701   8.167   2.928  0.1698  0.4794 -0.1381
  436MOL0     C57477   0.670   8.127   3.063 -0.4257 -0.4471 -0.0774
  436MOL0     O57478   0.636   8.208   3.161 -0.8029 -0.3783 -0.0344
  436MOL0     C57479   0.650   8.350   3.138 -0.0598  0.7204  0.3988
  436MOL0     C57480   0.607   8.426   3.256  0.1056  0.0667 -0.5953
  436MOL0     C57481   0.710   8.397   3.376 -0.2251  0.2488  0.6236
  436MOL0     C57482   0.664   8.482   3.493 -0.3762 -0.8291  0.0672
  436MOL0     C57483   0.783   8.499   3.589  0.1170 -0.3261  0.2665
  436MOL0     C57484   0.879   8.520   3.659  0.5880  0.7824  1.8611
  436MOL0     C57485   0.678   7.990   3.100  0.7598  0.2225  0.1849
  436MOL0     C57486   0.719   7.898   3.011 -0.3023 -0.0021  0.3900
  436MOL0     H57487   0.904   7.613   2.628 -0.5499  1.8994  1.7517
  436MOL0     H57488   1.043   7.512   2.474  1.0235 -1.0920 -0.3239
  436MOL0     H57489   1.121   7.460   2.295  0.4087  1.2700  3.6162
  436MOL0     H57490   1.285   7.440   2.252 -2.3230 -4.0039  1.6260
  436MOL0     H57491   1.101   7.657   2.122 -2.2549 -1.0290 -3.3083
  436MOL0     H57492   1.098   7.499   2.061  1.8861 -2.3754  0.7057
  436MOL0     H57493   1.345   7.491   2.015  0.4557  0.6139  3.0430
  436MOL0     H57494   1.368   7.665   2.060 -0.3742  3.4155 -4.1593
  436MOL0     H57495   1.187   7.565   1.837 -0.4330  0.5307  0.1674
  436MOL0     H57496   1.188   7.729   1.911 -1.1358 -1.8380  2.0876
  436MOL0     H57497   1.438   7.738   1.843 -1.5896  1.3539 -1.6079
  436MOL0     H57498   1.352   7.701   1.701  1.4845 -2.3073 -2.3792
  436MOL0     H57499   1.388   7.447   1.755 -1.1725  1.3008 -1.7472
  436MOL0     H57500   1.514   7.505   1.865  1.1886 -1.6900 -1.7980
  436MOL0     H57501   1.493   7.576   1.575 -2.8774 -2.7762 -0.3891
  436MOL0     H57502   1.612   7.643   1.693  2.7520 -2.4069 -0.6659
  436MOL0     H57503   1.609   7.345   1.622 -2.8016  1.0475  0.0436
  436MOL0     H57504   1.729   7.456   1.715 -1.3307  2.6205 -0.2321
  436MOL0     H57505   1.701   7.274   1.412  0.4879 -0.9331 -0.8130
  436MOL0     H57506   1.799   7.277   1.170 -2.2695 -0.5640  1.2377
  436MOL0     H57507   1.902   7.400   1.127  0.4873  1.9453  0.3283
  436MOL0     H57508   1.725   7.382   0.955  0.0049  1.5030 -0.1883
  436MOL0     H57509   1.713   7.538   1.028 -1.8042  1.9866  1.3364
  436MOL0     H57510   1.511   7.439   1.180 -1.3945  3.5463 -1.6565
  436MOL0     H57511   1.481   7.468   1.010  0.2057  1.2554  0.8340
  436MOL0     H57512   1.562   7.193   1.127  1.5159 -0.5340 -1.3031
  436MOL0     H57513   1.562   7.230   0.957 -1.6458  0.6520 -0.6659
  436MOL0     H57514   1.474   6.988   0.944 -0.4188 -0.7414  0.7396
  436MOL0     H57515   1.347   6.844   0.821 -1.9640 -1.4389  1.7572
  436MOL0     H57516   0.813   6.668   0.731  0.4825  1.6643  0.1227
  436MOL0     H57517   0.770   6.510   0.532  2.2222 -0.7637 -0.0883
  436MOL0     H57518   0.866   6.624   0.120  1.7424  0.1225  2.3269
  436MOL0     H57519   0.727   6.717   0.158  1.0844  0.8290 -3.4494
  436MOL0     H57520   0.696   6.532  -0.037  1.8677  0.6208  0.1932
  436MOL0     H57521   0.580   6.538   0.091  1.1097 -0.0194  0.9504
  436MOL0     H57522   0.702   6.357   0.207 -0.9536 -0.7070 -0.4324
  436MOL0     H57523   0.831   6.354   0.097  0.1368 -2.8787  5.1578
  436MOL0     H57524   0.547   6.309  -0.004  0.4551 -1.8691 -3.0055
  436MOL0     H57525   0.699   6.271  -0.089  0.1834 -1.5352 -0.8281
  436MOL0     H57526   0.631   6.122   0.170  2.9367 -0.7095  1.8708
  436MOL0     H57527   0.770   6.110   0.080 -1.1477 -1.0820  4.9260
  436MOL0     H57528   0.574   6.074  -0.122 -1.3229  0.3229  0.2124
  436MOL0     H57529   0.480   6.016   0.009 -0.4311 -1.0523 -2.2754
  436MOL0     H57530   0.735   5.882  -0.087  1.6900  2.0273  2.6668
  436MOL0     H57531   0.660   5.850   0.075 -0.4201  0.1325  0.7431
  436MOL0     H57532   0.484   5.843  -0.172  1.7558  1.4083 -0.8026
  436MOL0     H57533   0.469   5.777  -0.005 -1.8663  4.0785  0.3054
  436MOL0     H57534   0.895   6.810   0.265  1.5094  1.0709  0.2863
  436MOL0     H57535   0.912   6.975   0.429 -4.9590  1.4891  2.1964
  436MOL0     H57536   1.019   7.105   0.785  2.5692 -1.6861 -4.0031
  436MOL0     H57537   1.124   7.275   0.917  0.7716  0.7337 -1.4473
  436MOL0     H57538   1.258   7.887   2.408 -0.4724 -1.0622 -0.3436
  436MOL0     H57539   1.100   7.991   2.558  0.4964 -0.1020 -2.9052
  436MOL0     H57540   0.795   8.102   2.747  1.0199 -2.9406 -1.2471
  436MOL0     H57541   0.702   8.270   2.894  0.1321  0.6623  0.4109
  436MOL0     H57542   0.591   8.381   3.051 -2.1064  2.6221  2.3220
  436MOL0     H57543   0.754   8.368   3.107  0.9124 -3.2582  0.8434
  436MOL0     H57544   0.608   8.533   3.231 -1.3054  0.7066  1.7339
  436MOL0     H57545   0.507   8.396   3.290 -0.1877 -0.7227 -2.0816
  436MOL0     H57546   0.810   8.425   3.341 -0.3573 -0.8711 -0.7437
  436MOL0     H57547   0.728   8.293   3.405  0.4776 -0.4239 -1.9941
  436MOL0     H57548   0.638   8.582   3.457  0.1399 -0.3261  1.0470
  436MOL0     H57549   0.575   8.442   3.542 -2.3515 -0.5208 -3.0295
  436MOL0     H57550   0.974   8.551   3.697  2.3747  2.7242 -3.3947
  436MOL0     H57551   0.647   7.948   3.195 -0.4504  1.2336  0.2617
  436MOL0     H57552   0.724   7.793   3.035 -1.9123 -0.8868 -2.6205
  437MOL0     O57553   2.638   7.099   7.705 -0.1745 -0.0898 -0.3765
  437MOL0     C57554   2.652   7.051   7.821  0.9747 -0.2567  0.1856
  437MOL0     O57555   2.606   6.934   7.867  0.1506 -1.0571 -0.3904
  437MOL0     C57556   2.547   6.844   7.784  0.0818  0.5088  1.2118
  437MOL0     C57557   2.421   6.876   7.726 -1.7317 -0.8495  0.0749
  437MOL0     C57558   2.348   6.772   7.662 -0.0032  0.0258 -1.1848
  437MOL0     C57559   2.389   6.639   7.673  1.6596 -0.1606  0.2247
  437MOL0     O57560   2.318   6.543   7.612  0.5055 -0.4372  0.4521
  437MOL0     C57561   2.298   6.423   7.695  0.2406  1.2628  0.3365
  437MOL0     C57562   2.188   6.334   7.637  0.8360  0.2687 -0.3412
  437MOL0     C57563   2.140   6.239   7.744  0.7513 -0.8587  0.1814
  437MOL0     C57564   2.238   6.131   7.767  0.2343 -0.1755 -0.0644
  437MOL0     C57565   2.201   6.013   7.850 -0.0287 -0.0251 -0.5926
  437MOL0     C57566   2.108   5.910   7.778 -0.8109 -0.1167 -0.1906
  437MOL0     C57567   2.020   5.843   7.880  0.2680  0.0030  0.1953
  437MOL0     C57568   1.945   5.727   7.807 -0.8459  0.0396  0.6098
  437MOL0     N57569   1.877   5.777   7.684  0.3091 -0.1439  0.3240
  437MOL0     C57570   1.793   5.888   7.672 -0.1602  0.3073  0.0510
  437MOL0     C57571   1.763   5.890   7.545  0.0756  0.1200  0.6699
  437MOL0     C57572   1.680   5.988   7.477  0.4282 -0.2755 -0.8871
  437MOL0     C57573   1.645   5.963   7.335  0.3077 -0.2194 -0.5568
  437MOL0     C57574   1.525   5.859   7.325  0.2308  0.3456 -0.7233
  437MOL0     C57575   1.486   5.833   7.178 -0.6169 -0.2065  0.0602
  437MOL0     O57576   1.600   5.760   7.118 -0.1660 -0.8120  0.6821
  437MOL0     C57577   1.569   5.719   6.992  0.2081  0.1362 -0.2569
  437MOL0     C57578   1.510   5.596   6.962 -0.0711 -0.7122 -0.2318
  437MOL0     C57579   1.480   5.556   6.834  0.3359  0.1436 -0.2771
  437MOL0     C57580   1.505   5.629   6.723  1.2219 -0.6939  1.3173
  437MOL0     C57581   1.460   5.586   6.590  0.4597  0.2702 -1.1770
  437MOL0     O57582   1.414   5.452   6.597  0.1575 -0.5477  0.5642
  437MOL0     C57583   1.362   5.394   6.487  0.2009 -0.0912  0.0568
  437MOL0     C57584   1.261   5.454   6.407  0.0421  0.4719 -0.3592
  437MOL0     C57585   1.199   5.391   6.303  0.4448  1.1275  0.1239
  437MOL0     C57586   1.241   5.265   6.264 -0.1605 -0.2197 -0.8831
  437MOL0     O57587   1.170   5.203   6.166 -0.2189  0.7954  0.0844
  437MOL0     C57588   1.186   5.060   6.150 -0.0502 -0.7160  0.0078
  437MOL0     C57589   1.086   4.989   6.044 -0.8539 -0.1183 -0.0829
  437MOL0     C57590   1.097   4.839   6.016 -0.0540 -0.0906 -0.0968
  437MOL0     C57591   1.073   4.771   6.147 -0.3204  1.1161 -0.0884
  437MOL0     C57592   1.065   4.617   6.140 -0.0132  0.0381 -0.5260
  437MOL0     C57593   0.994   4.553   6.264  1.4016 -0.2829 -0.8380
  437MOL0     C57594   0.948   4.400   6.237  0.7676 -1.0488  0.0784
  437MOL0     C57595   0.805   4.410   6.202  0.6152  0.2900  1.5245
  437MOL0    Cl57596   0.717   4.448   6.349 -0.1156 -0.4111 -0.3463
  437MOL0     C57597   1.338   5.201   6.341 -0.0012  0.3313 -0.0155
  437MOL0     C57598   1.393   5.259   6.455 -0.0305 -1.0822 -0.0598
  437MOL0     O57599   1.451   5.656   6.493 -0.4046 -0.6970 -0.1729
  437MOL0     C57600   1.570   5.747   6.739 -0.6990 -0.5737 -0.4433
  437MOL0     C57601   1.597   5.794   6.871 -0.3582  0.4439 -0.3244
  437MOL0     N57602   1.826   5.784   7.482  0.5786 -0.1924 -0.0557
  437MOL0     N57603   1.890   5.708   7.565  0.0739  0.1867 -0.2707
  437MOL0     C57604   2.506   6.605   7.751 -0.0324  1.0402  0.3989
  437MOL0     C57605   2.583   6.712   7.806  0.2623 -0.2270  0.0602
  437MOL0     C57606   2.730   7.134   7.911 -0.2921 -0.1542  0.0864
  437MOL0     C57607   2.833   7.215   7.870  0.6931 -0.2240 -0.3829
  437MOL0     C57608   2.911   7.297   7.959 -0.1878  1.1123  0.7273
  437MOL0     C57609   2.881   7.284   8.101  0.2603 -0.0522  1.2982
  437MOL0     O57610   2.957   7.367   8.174 -0.2151  0.2100 -0.4026
  437MOL0     C57611   2.887   7.476   8.235  0.2608 -0.5400 -0.6381
  437MOL0     C57612   2.986   7.556   8.323 -0.6068  0.3301 -0.5116
  437MOL0     C57613   3.045   7.667   8.240  1.3680  0.3394  0.0413
  437MOL0     C57614   2.952   7.785   8.235  0.3998  0.3652  0.8304
  437MOL0     C57615   3.018   7.901   8.180 -0.0832 -1.3309 -0.2588
  437MOL0     C57616   3.096   7.994   8.154  0.4860  0.3810 -0.2687
  437MOL0     C57617   2.774   7.208   8.152  0.6742  0.6380 -0.0488
  437MOL0     C57618   2.702   7.134   8.054 -0.5357 -0.3211  0.2921
  437MOL0     H57619   2.389   6.979   7.724 -2.2810 -1.0110 -2.1498
  437MOL0     H57620   2.261   6.819   7.617 -0.2936 -0.1830 -0.8466
  437MOL0     H57621   2.266   6.441   7.798 -0.7634  0.9786  0.0813
  437MOL0     H57622   2.386   6.358   7.693 -1.6831 -1.6884  2.7016
  437MOL0     H57623   2.220   6.271   7.554 -1.4973 -0.1718 -0.9680
  437MOL0     H57624   2.094   6.386   7.615  1.2161  1.2636  0.2947
  437MOL0     H57625   2.048   6.194   7.705 -0.1103  0.6364  0.3740
  437MOL0     H57626   2.116   6.291   7.837 -1.0290 -0.7191 -0.3177
  437MOL0     H57627   2.276   6.102   7.668  0.1988  1.4357 -0.5734
  437MOL0     H57628   2.317   6.174   7.830 -1.4466 -0.5940  2.4888
  437MOL0     H57629   2.157   6.055   7.941 -1.4699  0.0241 -1.2901
  437MOL0     H57630   2.292   5.960   7.882  1.7806  2.2743 -1.6525
  437MOL0     H57631   2.172   5.840   7.724  1.5195  0.5656  1.5593
  437MOL0     H57632   2.040   5.964   7.711 -1.0332  1.7349  1.4601
  437MOL0     H57633   2.084   5.801   7.957 -0.2853 -1.6757 -0.2298
  437MOL0     H57634   1.935   5.899   7.921 -2.7827 -1.4216 -3.5961
  437MOL0     H57635   1.876   5.691   7.884  0.2808 -1.1168  1.1065
  437MOL0     H57636   2.025   5.659   7.778  1.1030  1.7199  1.7952
  437MOL0     H57637   1.744   5.944   7.751 -1.1312  0.7960 -0.8828
  437MOL0     H57638   1.744   6.077   7.476 -1.6816  1.3396 -0.2883
  437MOL0     H57639   1.589   6.007   7.535 -0.3191  1.4133 -2.5099
  437MOL0     H57640   1.736   5.926   7.287 -0.2011 -1.7825 -0.3557
  437MOL0     H57641   1.615   6.055   7.284  2.7475  1.3938  0.7002
  437MOL0     H57642   1.546   5.767   7.381 -0.9216  1.3368  1.4365
  437MOL0     H57643   1.443   5.915   7.370  2.1359  1.3851  1.6913
  437MOL0     H57644   1.470   5.930   7.130 -0.5281  1.7442  3.6135
  437MOL0     H57645   1.393   5.774   7.177 -0.2488 -0.8045  0.3150
  437MOL0     H57646   1.513   5.528   7.046  1.1090  0.9655  1.1882
  437MOL0     H57647   1.423   5.465   6.818 -1.3225  0.9877  0.5455
  437MOL0     H57648   1.235   5.557   6.430  0.5429  0.8601 -1.4311
  437MOL0     H57649   1.117   5.441   6.254 -2.6848 -4.3263 -1.0290
  437MOL0     H57650   1.180   5.016   6.250 -2.2814  2.7876  1.5834
  437MOL0     H57651   1.284   5.041   6.104 -0.7773  0.4809 -2.1959
  437MOL0     H57652   1.108   5.026   5.944 -0.5505  0.0789  0.0552
  437MOL0     H57653   0.986   5.024   6.069 -1.4206 -1.3457 -0.5494
  437MOL0     H57654   1.192   4.814   5.970 -0.5133  0.3148 -1.2904
  437MOL0     H57655   1.012   4.813   5.952 -0.5820  0.6855  0.2728
  437MOL0     H57656   1.140   4.808   6.224  0.1946  1.8215 -0.8566
  437MOL0     H57657   0.973   4.797   6.182 -2.0939 -4.2019 -0.1862
  437MOL0     H57658   1.166   4.579   6.130 -0.8437 -4.4406  4.0206
  437MOL0     H57659   1.006   4.589   6.052 -1.2466  1.7198 -0.3034
  437MOL0     H57660   0.915   4.617   6.305 -1.3352 -1.2966 -4.0175
  437MOL0     H57661   1.073   4.551   6.339  0.5975 -0.5502  0.0175
  437MOL0     H57662   0.997   4.354   6.151 -4.5225 -1.4118 -3.1806
  437MOL0     H57663   0.951   4.340   6.328 -2.2668  1.3330  1.9942
  437MOL0     H57664   0.769   4.323   6.148 -0.5461  1.3388  0.5430
  437MOL0     H57665   0.795   4.493   6.132  1.4758 -0.2009  0.7949
  437MOL0     H57666   1.385   5.106   6.320  0.0947  0.3737  0.0071
  437MOL0     H57667   1.459   5.200   6.517  2.3612  4.3445  3.2238
  437MOL0     H57668   1.593   5.813   6.656 -0.0193  2.6992  2.1331
  437MOL0     H57669   1.662   5.879   6.886  2.2828 -0.5709 -4.5201
  437MOL0     H57670   2.538   6.504   7.773 -1.2859  0.9536  2.0607
  437MOL0     H57671   2.674   6.699   7.864 -0.2869 -2.4146  0.5110
  437MOL0     H57672   2.844   7.227   7.762 -1.7526  1.3672 -0.5071
  437MOL0     H57673   2.990   7.360   7.919  1.8796 -1.8742 -0.3111
  437MOL0     H57674   2.808   7.444   8.304  2.2240 -2.2712  0.9372
  437MOL0     H57675   2.830   7.543   8.170 -0.8032  2.0247  2.6231
  437MOL0     H57676   2.947   7.591   8.419 -0.9603  0.8586 -0.8384
  437MOL0     H57677   3.061   7.479   8.344 -0.5051 -0.0269 -2.0596
  437MOL0     H57678   3.071   7.625   8.142 -1.5651 -1.5650 -0.0544
  437MOL0     H57679   3.138   7.705   8.282  2.9998 -0.0846 -2.9029
  437MOL0     H57680   2.865   7.772   8.170 -0.7253  1.3865  2.0607
  437MOL0     H57681   2.924   7.809   8.338  1.8785  0.4607  1.2310
  437MOL0     H57682   3.153   8.083   8.135  0.5599  0.0680 -1.6095
  437MOL0     H57683   2.773   7.202   8.260  2.1448  2.7666  0.1421
  437MOL0     H57684   2.630   7.062   8.093  1.8146 -2.1494  1.5299
  438MOL0     O57685   2.826  11.225   6.189 -0.7494  0.3656  0.7369
  438MOL0     C57686   2.711  11.188   6.213 -0.2092  0.9400 -0.1087
  438MOL0     O57687   2.640  11.181   6.332 -0.8105 -0.2822  0.5899
  438MOL0     C57688   2.703  11.192   6.454 -0.1258 -0.4988  0.1618
  438MOL0     C57689   2.634  11.142   6.567  0.1552 -0.0838  0.4272
  438MOL0     C57690   2.699  11.152   6.696 -0.1775  0.5430 -0.5518
  438MOL0     C57691   2.814  11.206   6.712 -0.2328  0.1797  0.0639
  438MOL0     O57692   2.861  11.229   6.841 -0.5745 -1.0178 -0.4117
  438MOL0     C57693   2.972  11.142   6.862 -0.6016  0.1614 -0.9021
  438MOL0     C57694   3.060  11.158   6.984 -0.1528  0.3718 -0.0926
  438MOL0     C57695   3.144  11.289   6.974  1.4050  0.9491  0.5899
  438MOL0     C57696   3.259  11.302   7.075  0.1586  0.4099 -1.3631
  438MOL0     C57697   3.367  11.407   7.022 -0.6274  0.2759  0.4863
  438MOL0     C57698   3.478  11.429   7.126 -0.3155 -0.4227  0.7830
  438MOL0     C57699   3.600  11.337   7.092 -0.0339 -0.6037  0.1273
  438MOL0     C57700   3.715  11.365   7.190 -0.8666 -0.5805 -1.3024
  438MOL0     N57701   3.771  11.495   7.156  0.5420 -0.9063  0.3072
  438MOL0     C57702   3.812  11.534   7.028 -0.3335 -0.2917 -0.3504
  438MOL0     C57703   3.850  11.663   7.054  0.3110  0.0931  0.6077
  438MOL0     C57704   3.940  11.734   6.958  0.3867 -0.2237 -0.1087
  438MOL0     C57705   3.870  11.841   6.865 -0.2156 -0.7260  0.7902
  438MOL0     C57706   3.973  11.945   6.805  0.1084 -0.2606 -0.3430
  438MOL0     C57707   4.015  12.044   6.910  0.9719  0.0184  0.5939
  438MOL0     O57708   4.044  12.164   6.837 -0.4577  0.1681  0.2573
  438MOL0     C57709   4.161  12.227   6.861  0.1180  0.1688  0.4017
  438MOL0     C57710   4.220  12.235   6.989 -0.8386 -0.3881  0.6165
  438MOL0     C57711   4.323  12.320   7.014 -0.0371  0.0584  1.2282
  438MOL0     C57712   4.385  12.389   6.907  0.4978  0.2988 -0.3066
  438MOL0     C57713   4.508  12.459   6.920 -0.1899 -0.5521 -0.0030
  438MOL0     O57714   4.573  12.502   6.804  0.2120  0.2125 -0.3010
  438MOL0     C57715   4.666  12.603   6.813  0.8974  0.4574 -0.2255
  438MOL0     C57716   4.689  12.704   6.909 -0.6436 -0.4779  0.5707
  438MOL0     C57717   4.789  12.795   6.893 -0.0849  0.2048 -0.3733
  438MOL0     C57718   4.879  12.796   6.790  0.5528  1.0204 -0.0700
  438MOL0     O57719   4.988  12.877   6.774  0.1773 -0.1899  0.3188
  438MOL0     C57720   5.043  12.947   6.888  0.3054  0.2556 -0.7216
  438MOL0     C57721   5.191  12.965   6.851  0.3010  0.8045 -0.2266
  438MOL0     C57722   5.252  13.041   6.970  0.7526  0.5725 -0.2230
  438MOL0     C57723   5.398  13.087   6.944  0.6091 -0.2681  0.7027
  438MOL0     C57724   5.505  12.981   6.933 -0.9015  0.1865 -0.0020
  438MOL0     C57725   5.496  12.871   7.037 -0.2154 -0.1534 -0.8151
  438MOL0     C57726   5.507  12.917   7.192 -1.0453 -0.9849 -0.2545
  438MOL0     C57727   5.590  12.810   7.274 -0.7192 -0.5114 -0.1728
  438MOL0    Cl57728   5.763  12.839   7.219 -0.1662 -0.5458 -0.2500
  438MOL0     C57729   4.869  12.699   6.697 -0.4315 -0.1762 -0.3620
  438MOL0     C57730   4.763  12.608   6.697 -0.1078  0.6864  0.5399
  438MOL0     O57731   4.544  12.494   7.032 -0.0510 -0.1197  0.1308
  438MOL0     C57732   4.329  12.387   6.778  0.1292  0.2419 -0.5169
  438MOL0     C57733   4.218  12.305   6.760 -0.0327 -0.7294  0.9643
  438MOL0     N57734   3.812  11.705   7.179  0.2587  0.2146  0.8519
  438MOL0     N57735   3.783  11.598   7.240 -0.3575 -0.0054 -0.6678
  438MOL0     C57736   2.872  11.268   6.602  0.6465 -1.2862  0.6482
  438MOL0     C57737   2.818  11.271   6.475 -0.7452  0.0689 -0.6605
  438MOL0     C57738   2.637  11.130   6.097  0.1277 -0.3293 -0.0106
  438MOL0     C57739   2.503  11.091   6.122  0.4689  0.2527  0.5184
  438MOL0     C57740   2.423  11.020   6.025 -0.7730 -1.4608  0.0376
  438MOL0     C57741   2.480  11.001   5.893 -0.8860 -0.0054 -0.5210
  438MOL0     O57742   2.407  10.926   5.807  0.2824  0.1761  1.0508
  438MOL0     C57743   2.439  10.948   5.661 -0.0542 -0.1338  0.0005
  438MOL0     C57744   2.332  10.883   5.579  0.2485 -0.8237  0.9687
  438MOL0     C57745   2.330  10.944   5.439  0.0399 -0.3770  0.6488
  438MOL0     C57746   2.259  10.853   5.338  1.1179 -0.5543  0.9827
  438MOL0     C57747   2.113  10.853   5.351 -0.1601 -0.1832  0.3761
  438MOL0     C57748   1.993  10.844   5.356 -0.4845  0.0934 -0.0503
  438MOL0     C57749   2.614  11.060   5.868  0.3054  0.6051  0.2414
  438MOL0     C57750   2.688  11.130   5.967 -1.1395  0.5284  0.2965
  438MOL0     H57751   2.539  11.091   6.555 -1.7271  2.9301  1.5488
  438MOL0     H57752   2.650  11.101   6.778 -0.8341  1.7069 -0.1976
  438MOL0     H57753   3.042  11.129   6.779  1.5558 -2.1656  1.0866
  438MOL0     H57754   2.939  11.038   6.868  2.2996 -0.8597 -0.8759
  438MOL0     H57755   3.137  11.082   6.970  0.4315  1.4669 -3.6283
  438MOL0     H57756   2.999  11.158   7.075 -1.4150 -1.2951 -0.8999
  438MOL0     H57757   3.078  11.372   7.002  1.5352  1.7645 -1.3364
  438MOL0     H57758   3.172  11.300   6.869 -0.1857  1.5931  0.1937
  438MOL0     H57759   3.225  11.337   7.173 -1.3906  3.5883 -2.8849
  438MOL0     H57760   3.305  11.203   7.065  1.9217  1.1712 -1.2252
  438MOL0     H57761   3.315  11.503   7.027 -0.5590  0.2551  1.7729
  438MOL0     H57762   3.396  11.390   6.918  1.6049  0.2676  1.0594
  438MOL0     H57763   3.447  11.400   7.226 -2.5886  1.7312  0.8209
  438MOL0     H57764   3.502  11.536   7.131 -1.9316  0.1056 -1.1085
  438MOL0     H57765   3.565  11.234   7.109  0.1566 -0.7351 -0.2648
  438MOL0     H57766   3.641  11.335   6.990  1.9976  1.6930  0.8084
  438MOL0     H57767   3.792  11.295   7.154  0.2401  1.0660 -2.2848
  438MOL0     H57768   3.676  11.361   7.292 -3.3063 -1.4057 -2.1931
  438MOL0     H57769   3.825  11.481   6.934  0.8569  2.3646 -1.7984
  438MOL0     H57770   3.979  11.663   6.884 -0.6973  0.1745 -1.0850
  438MOL0     H57771   4.025  11.783   7.008 -0.0966  0.5562 -0.0371
  438MOL0     H57772   3.797  11.888   6.931 -0.6071  0.7052 -0.6160
  438MOL0     H57773   3.806  11.794   6.790  0.5762  1.0614 -1.1137
  438MOL0     H57774   4.058  11.892   6.761  1.3096  0.7080  0.7238
  438MOL0     H57775   3.917  12.003   6.731 -0.1346 -0.1836 -0.1018
  438MOL0     H57776   4.097  11.999   6.967 -0.0627 -0.8221  1.4533
  438MOL0     H57777   3.930  12.066   6.975 -0.4474 -0.0542 -1.1511
  438MOL0     H57778   4.182  12.177   7.073 -1.4130 -2.2819 -0.8648
  438MOL0     H57779   4.356  12.319   7.117  0.1369 -3.0113  1.2501
  438MOL0     H57780   4.639  12.705   7.005  0.4385 -0.9447  1.1620
  438MOL0     H57781   4.812  12.879   6.958 -0.9790  1.4545 -1.6188
  438MOL0     H57782   5.024  12.880   6.972 -4.1030  0.7290 -1.1409
  438MOL0     H57783   4.996  13.044   6.902  2.7056  1.4416 -0.3094
  438MOL0     H57784   5.185  13.028   6.762 -1.6988 -1.1007 -1.5387
  438MOL0     H57785   5.249  12.876   6.827 -0.2176  0.4096 -0.0314
  438MOL0     H57786   5.251  12.981   7.062 -2.1119 -1.8321 -1.6421
  438MOL0     H57787   5.194  13.133   6.984  1.0648  0.5226  1.5911
  438MOL0     H57788   5.389  13.135   6.846 -0.0621 -2.9449 -0.6347
  438MOL0     H57789   5.430  13.166   7.012  0.4494 -0.9696  1.6108
  438MOL0     H57790   5.602  13.030   6.942  0.1022 -1.8491  1.0194
  438MOL0     H57791   5.488  12.929   6.838 -1.3941  2.1878 -1.0664
  438MOL0     H57792   5.569  12.791   7.022  2.4179  1.6568  1.3467
  438MOL0     H57793   5.398  12.826   7.016 -1.5002  2.3396 -0.6363
  438MOL0     H57794   5.571  13.005   7.186 -1.8035 -0.3230  0.9612
  438MOL0     H57795   5.419  12.940   7.252 -0.6176 -1.3911  0.5334
  438MOL0     H57796   5.556  12.709   7.248 -0.0514 -0.6634 -0.4905
  438MOL0     H57797   5.591  12.825   7.383  1.7527  1.9340 -0.4253
  438MOL0     H57798   4.928  12.694   6.606  2.0704 -2.2833  1.2554
  438MOL0     H57799   4.748  12.532   6.620  0.1024  0.9415  0.2456
  438MOL0     H57800   4.375  12.437   6.693 -0.2081  0.7308 -0.4149
  438MOL0     H57801   4.203  12.289   6.653 -1.0180  2.2127  0.5854
  438MOL0     H57802   2.967  11.319   6.604 -0.8394  1.8582 -0.8251
  438MOL0     H57803   2.874  11.322   6.397  1.0921 -0.8447  0.0020
  438MOL0     H57804   2.454  11.109   6.217 -2.9455  2.5636 -1.4492
  438MOL0     H57805   2.330  10.973   6.053 -0.5047 -1.8702  0.2591
  438MOL0     H57806   2.537  10.908   5.632 -0.2140 -0.1398 -0.5431
  438MOL0     H57807   2.456  11.053   5.633 -1.0944 -0.8796 -4.0223
  438MOL0     H57808   2.343  10.774   5.581  0.8964 -0.7505  1.7436
  438MOL0     H57809   2.232  10.900   5.621  0.0016  2.9088 -0.7479
  438MOL0     H57810   2.430  10.953   5.394  0.0541 -2.1957  0.2322
  438MOL0     H57811   2.272  11.036   5.447  0.6090 -0.1510  3.2243
  438MOL0     H57812   2.284  10.860   5.231 -0.1192 -0.3326  0.6906
  438MOL0     H57813   2.286  10.751   5.366  1.1281 -0.4653  1.3012
  438MOL0     H57814   1.888  10.859   5.366  0.0603  3.7302  2.6023
  438MOL0     H57815   2.654  11.070   5.767 -1.5699  2.7239 -0.3778
  438MOL0     H57816   2.780  11.172   5.930 -0.0408 -2.3619 -0.4905
  439MOL0     O57817   9.898  10.258   6.952 -0.0694 -0.6303 -0.1470
  439MOL0     C57818  10.012  10.228   6.981 -0.5001  0.6011  0.2222
  439MOL0     O57819  10.103  10.270   7.077  0.2703  0.9766 -0.1048
  439MOL0     C57820  10.062  10.374   7.159  0.7571  0.6250  0.2214
  439MOL0     C57821  10.004  10.336   7.279 -0.7817 -0.4221  0.7216
  439MOL0     C57822   9.963  10.432   7.371 -0.2993 -0.5956 -0.5643
  439MOL0     C57823   9.986  10.565   7.346 -0.2762  0.2860  0.6521
  439MOL0     O57824   9.944  10.659   7.442  0.3297 -0.9081  0.6554
  439MOL0     C57825  10.052  10.724   7.507  0.0695 -0.1049  0.8104
  439MOL0     C57826  10.001  10.810   7.634 -0.8053  0.8992  0.0704
  439MOL0     C57827  10.113  10.910   7.675  0.2799 -0.7726 -1.1261
  439MOL0     C57828  10.051  11.002   7.781  1.2711 -0.9383 -0.0381
  439MOL0     C57829  10.165  11.079   7.849  0.8875  0.6530 -0.1931
  439MOL0     C57830  10.254  11.181   7.777 -1.0621 -0.3907  0.8426
  439MOL0     C57831  10.187  11.314   7.743 -0.0364  0.1833  0.0649
  439MOL0     C57832  10.279  11.409   7.666 -0.1748 -0.2018  0.3441
  439MOL0     N57833  10.355  11.490   7.757 -0.0031  0.0949  0.8847
  439MOL0     C57834  10.374  11.623   7.758 -0.2256 -0.0292 -0.2346
  439MOL0     C57835  10.463  11.651   7.854 -0.0260  0.5155  0.5023
  439MOL0     C57836  10.513  11.782   7.892 -0.4687 -0.4976 -0.3531
  439MOL0     C57837  10.498  11.890   7.792  0.4731  0.3121  0.2070
  439MOL0     C57838  10.363  11.967   7.801  0.4077 -0.3183  0.3572
  439MOL0     C57839  10.351  12.053   7.679  0.7671 -0.0946 -0.9669
  439MOL0     O57840  10.211  12.107   7.667 -0.7902  1.1790  0.5645
  439MOL0     C57841  10.148  12.054   7.562  0.5053 -0.3673  0.3579
  439MOL0     C57842  10.145  11.920   7.514 -0.9466 -0.0369 -0.3362
  439MOL0     C57843  10.072  11.870   7.406  0.1322 -0.3046  0.7991
  439MOL0     C57844   9.974  11.958   7.349 -0.7685  0.3605 -0.2777
  439MOL0     C57845   9.908  11.911   7.220  0.7102  0.8004 -0.6184
  439MOL0     O57846   9.812  11.987   7.182  0.0524  0.4147  0.2584
  439MOL0     C57847   9.744  11.950   7.064 -0.4259  0.4641  0.2505
  439MOL0     C57848   9.748  12.024   6.944 -0.1836 -0.2606  0.5266
  439MOL0     C57849   9.653  11.987   6.846  0.1203 -0.6848  0.1430
  439MOL0     C57850   9.560  11.880   6.863  0.4150 -0.2357 -0.6680
  439MOL0     O57851   9.472  11.827   6.772  0.2484  0.3648 -1.0822
  439MOL0     C57852   9.510  11.833   6.629 -0.6700  0.2913 -1.0672
  439MOL0     C57853   9.642  11.768   6.577  0.3556 -0.5962 -0.6618
  439MOL0     C57854   9.669  11.767   6.431  1.2070  0.0842  0.0654
  439MOL0     C57855   9.599  11.651   6.361  0.0017 -0.5041 -0.7875
  439MOL0     C57856   9.679  11.520   6.372  0.3531  0.5513 -0.2320
  439MOL0     C57857   9.612  11.404   6.302  0.0863 -0.5362 -0.7385
  439MOL0     C57858   9.686  11.274   6.343 -0.7829  0.2491 -0.1489
  439MOL0     C57859   9.619  11.150   6.274  0.9515 -0.1026 -0.2854
  439MOL0    Cl57860   9.451  11.110   6.312  0.0065 -0.1988 -0.2178
  439MOL0     C57861   9.567  11.807   6.979 -0.5140 -0.2229 -0.2367
  439MOL0     C57862   9.659  11.839   7.078  0.3268  0.6901  0.4045
  439MOL0     O57863   9.945  11.800   7.176 -0.2724  0.6630  0.1476
  439MOL0     C57864   9.962  12.088   7.391 -0.6836  0.4911  0.2967
  439MOL0     C57865  10.051  12.131   7.501  0.0939 -0.6559  0.5078
  439MOL0     N57866  10.500  11.529   7.913 -0.0665  0.3073  1.0013
  439MOL0     N57867  10.433  11.432   7.852 -0.5379  0.4580 -0.6961
  439MOL0     C57868  10.035  10.604   7.216  0.2563  0.2266 -0.6006
  439MOL0     C57869  10.075  10.504   7.129  0.9422  0.0465  0.3261
  439MOL0     C57870  10.063  10.131   6.884  0.1457 -0.0496 -0.2069
  439MOL0     C57871  10.197  10.121   6.861  0.8576 -0.7842 -0.2106
  439MOL0     C57872  10.242  10.053   6.750 -0.8857 -0.0529  0.8557
  439MOL0     C57873  10.164   9.966   6.671 -0.0164  1.0773 -0.4448
  439MOL0     O57874  10.201   9.896   6.558 -0.1719  0.1336 -1.4127
  439MOL0     C57875  10.316   9.945   6.492 -0.7162 -1.0870  0.3943
  439MOL0     C57876  10.359   9.855   6.370 -0.2746 -0.5716 -0.7102
  439MOL0     C57877  10.252   9.868   6.248 -0.3709 -0.1738 -0.9015
  439MOL0     C57878  10.266   9.749   6.143 -0.1374  0.0234  0.1060
  439MOL0     C57879  10.397   9.745   6.078 -0.1176 -0.7041 -0.0749
  439MOL0     C57880  10.512   9.713   6.055  0.6256 -0.8264 -0.2083
  439MOL0     C57881  10.028   9.978   6.697 -0.6092  0.3094 -0.6650
  439MOL0     C57882   9.977  10.061   6.795  0.6561  0.7151  0.1644
  439MOL0     H57883   9.979  10.232   7.297 -2.1521 -0.9188 -3.1030
  439MOL0     H57884   9.917  10.405   7.465  0.1715  1.4101  0.2988
  439MOL0     H57885  10.086  10.794   7.430 -0.5001  0.4800  1.0872
  439MOL0     H57886  10.133  10.656   7.534  0.9748  0.1874 -1.0030
  439MOL0     H57887   9.978  10.736   7.711  2.5862 -0.1035  0.2485
  439MOL0     H57888   9.909  10.864   7.609  1.3374  6.5918  2.7891
  439MOL0     H57889  10.131  10.971   7.586 -1.2284  0.4508 -0.6366
  439MOL0     H57890  10.210  10.870   7.704  0.6299 -0.3630 -1.7120
  439MOL0     H57891   9.984  11.076   7.738  3.8665  1.6316  0.0420
  439MOL0     H57892  10.010  10.937   7.859  2.1744 -0.2460  1.0364
  439MOL0     H57893  10.229  11.015   7.911  1.7535  1.3164 -0.3849
  439MOL0     H57894  10.107  11.143   7.916  0.8670 -0.8013  1.2365
  439MOL0     H57895  10.295  11.138   7.685 -1.1873 -0.0391  0.6214
  439MOL0     H57896  10.350  11.202   7.824 -0.4152  2.8036 -1.5608
  439MOL0     H57897  10.093  11.294   7.690 -1.2073  1.2050  1.6687
  439MOL0     H57898  10.166  11.373   7.832 -1.7356  0.9934 -0.8212
  439MOL0     H57899  10.224  11.471   7.595  0.0596  0.9985  1.1890
  439MOL0     H57900  10.346  11.361   7.593  2.6627  4.0589 -0.1941
  439MOL0     H57901  10.329  11.704   7.700 -0.0950  1.9683  2.2958
  439MOL0     H57902  10.620  11.773   7.911 -0.4275 -0.7399 -0.6790
  439MOL0     H57903  10.459  11.805   7.984  0.5462 -4.7857  1.5530
  439MOL0     H57904  10.521  11.855   7.691 -1.8591  1.7697 -0.9250
  439MOL0     H57905  10.571  11.970   7.808  2.4944 -1.2086 -0.9763
  439MOL0     H57906  10.280  11.896   7.787  0.2070  0.2286 -1.4325
  439MOL0     H57907  10.361  12.028   7.892 -0.3893  2.0829 -1.1844
  439MOL0     H57908  10.379  11.990   7.594  1.1122 -2.5679  0.8788
  439MOL0     H57909  10.417  12.140   7.681  1.4710 -0.6452  0.8526
  439MOL0     H57910  10.213  11.842   7.549 -0.9028  0.0527 -0.2203
  439MOL0     H57911  10.071  11.768   7.367  1.9531 -0.4677  1.0958
  439MOL0     H57912   9.807  12.114   6.929 -1.5007  0.3222 -1.6973
  439MOL0     H57913   9.655  12.031   6.747  0.1530  0.6940  0.7359
  439MOL0     H57914   9.505  11.939   6.603  3.0881  0.9700  0.3704
  439MOL0     H57915   9.428  11.774   6.588  0.5877 -1.3480 -1.3190
  439MOL0     H57916   9.646  11.665   6.611 -0.2996 -0.2843  0.4137
  439MOL0     H57917   9.722  11.830   6.619 -0.2328 -1.2784  1.6127
  439MOL0     H57918   9.776  11.754   6.416  1.6421  0.1865  2.6604
  439MOL0     H57919   9.639  11.855   6.374 -1.3108 -1.1627 -0.6827
  439MOL0     H57920   9.499  11.642   6.404  0.7563  1.4407  1.6182
  439MOL0     H57921   9.589  11.681   6.257 -1.2452 -0.4365 -0.6619
  439MOL0     H57922   9.673  11.496   6.478 -1.1716  1.1538 -0.1543
  439MOL0     H57923   9.782  11.535   6.336  1.2220  0.0358  1.8980
  439MOL0     H57924   9.594  11.408   6.194 -1.7834 -0.1363 -0.4424
  439MOL0     H57925   9.513  11.398   6.349  0.8644  1.6891  1.4425
  439MOL0     H57926   9.790  11.290   6.313  0.4211 -1.5573  2.6486
  439MOL0     H57927   9.689  11.272   6.452  1.0590  1.8110 -0.1159
  439MOL0     H57928   9.683  11.068   6.306 -0.9349 -1.8685 -0.7872
  439MOL0     H57929   9.626  11.157   6.165 -0.2879 -4.6525 -0.8853
  439MOL0     H57930   9.495  11.727   6.989  0.7950 -1.3884  0.1203
  439MOL0     H57931   9.668  11.768   7.160  0.0770  2.1587  1.7541
  439MOL0     H57932   9.888  12.159   7.358 -0.5541  1.1868  1.4613
  439MOL0     H57933  10.018  12.225   7.545  3.8339  0.9981  0.1010
  439MOL0     H57934  10.056  10.707   7.187  2.2094  0.5426  1.6277
  439MOL0     H57935  10.121  10.531   7.035 -0.5320  0.5219 -0.2947
  439MOL0     H57936  10.261  10.184   6.922  0.8346 -2.7195  1.9211
  439MOL0     H57937  10.347  10.064   6.725 -0.6348 -2.6425  0.4204
  439MOL0     H57938  10.404   9.944   6.556  1.4803 -0.6590 -2.3908
  439MOL0     H57939  10.301  10.049   6.460 -4.0412 -1.6392 -0.2619
  439MOL0     H57940  10.453   9.898   6.332  0.9048  2.0090  4.3381
  439MOL0     H57941  10.367   9.749   6.399 -0.6049 -0.0106  1.5717
  439MOL0     H57942  10.236   9.971   6.217  0.1902  0.6209  1.3167
  439MOL0     H57943  10.159   9.845   6.301  0.1838 -0.2822  0.0482
  439MOL0     H57944  10.251   9.652   6.191 -1.0525  1.0376  2.0173
  439MOL0     H57945  10.188   9.766   6.069 -0.4301  0.2563  0.4622
  439MOL0     H57946  10.614   9.710   6.023  0.5108  0.3284 -0.7598
  439MOL0     H57947   9.964   9.929   6.625 -1.0023  1.6637 -1.2761
  439MOL0     H57948   9.869  10.072   6.801  0.6303  1.5129 -1.3934
  440MOL0     O57949   1.292   8.726   7.383 -0.6600 -0.3030 -0.6038
  440MOL0     C57950   1.174   8.726   7.405  0.4793 -0.5146  0.3215
  440MOL0     O57951   1.126   8.669   7.516  0.1878 -0.3553 -0.1944
  440MOL0     C57952   1.201   8.634   7.627 -0.0570  0.0416 -0.3960
  440MOL0     C57953   1.338   8.670   7.659  0.2664  0.8241 -0.4769
  440MOL0     C57954   1.394   8.650   7.785 -0.8185  0.2098 -0.1138
  440MOL0     C57955   1.334   8.588   7.886  0.6828  0.4377  0.5672
  440MOL0     O57956   1.403   8.543   8.004  0.2393 -0.1747 -0.0713
  440MOL0     C57957   1.331   8.460   8.095 -0.0694  0.4563 -0.1432
  440MOL0     C57958   1.430   8.437   8.206  0.8459 -0.5928 -0.2032
  440MOL0     C57959   1.540   8.345   8.158 -0.4816  0.2243  0.3386
  440MOL0     C57960   1.656   8.315   8.255 -0.5006 -0.3551  0.6614
  440MOL0     C57961   1.765   8.209   8.227 -0.9165 -0.6082 -0.2023
  440MOL0     C57962   1.853   8.182   8.353  0.7535 -0.3695  0.8719
  440MOL0     C57963   1.784   8.133   8.483  0.2255  0.4459  0.5471
  440MOL0     C57964   1.784   7.975   8.494  0.5904  0.7516  0.1037
  440MOL0     N57965   1.692   7.914   8.399 -0.8294 -0.4993  0.2307
  440MOL0     C57966   1.566   7.967   8.364 -0.0734  0.4435  0.6867
  440MOL0     C57967   1.521   7.869   8.283  0.1245  0.4292 -0.4498
  440MOL0     C57968   1.402   7.893   8.201  0.2724  0.1105  1.0328
  440MOL0     C57969   1.439   7.951   8.056  0.6106 -0.4347  1.7331
  440MOL0     C57970   1.319   7.972   7.970  1.0460  0.2426  0.9075
  440MOL0     C57971   1.219   8.065   8.025  0.0629 -0.0916  0.1711
  440MOL0     O57972   1.124   8.125   7.931 -0.3002  0.7694  0.8867
  440MOL0     C57973   1.022   8.050   7.879  1.0170 -0.0606  0.5401
  440MOL0     C57974   1.008   8.049   7.740  0.1587  0.4703  0.0986
  440MOL0     C57975   0.920   7.959   7.679  0.1368 -0.7563 -0.6371
  440MOL0     C57976   0.844   7.874   7.754 -0.9917  0.6369 -0.8649
  440MOL0     C57977   0.745   7.790   7.682  0.5914 -0.0707 -0.4093
  440MOL0     O57978   0.729   7.811   7.549 -0.6315 -0.4104 -0.1471
  440MOL0     C57979   0.640   7.722   7.493  0.5181 -0.2094  0.2614
  440MOL0     C57980   0.504   7.763   7.481  0.7872  0.8662 -1.0051
  440MOL0     C57981   0.412   7.675   7.423 -0.3547  0.6764 -0.2175
  440MOL0     C57982   0.449   7.550   7.368  0.3772 -0.4003 -0.0972
  440MOL0     O57983   0.345   7.477   7.318  0.7077 -0.0228  0.8540
  440MOL0     C57984   0.386   7.364   7.247  0.7335 -0.5430  0.0404
  440MOL0     C57985   0.254   7.306   7.207  0.4036 -0.6972  0.0118
  440MOL0     C57986   0.286   7.184   7.118 -0.4850  0.0150  0.1751
  440MOL0     C57987   0.151   7.108   7.101  0.4290  0.3083 -0.6583
  440MOL0     C57988   0.166   6.970   7.026 -0.1458 -0.5622 -0.0821
  440MOL0     C57989   0.042   6.884   7.057  0.4989 -0.4436  1.0569
  440MOL0     C57990   0.025   6.768   6.953  0.3049  0.0500 -0.7898
  440MOL0     C57991  -0.007   6.804   6.809 -0.0922  0.4532 -0.1482
  440MOL0    Cl57992  -0.055   6.654   6.710 -0.7066  0.0296  0.2550
  440MOL0     C57993   0.584   7.513   7.381  0.9762 -0.2236  0.7851
  440MOL0     C57994   0.675   7.596   7.442  0.3971 -0.1693  0.0312
  440MOL0     O57995   0.668   7.728   7.757  0.1968  0.2878  0.9439
  440MOL0     C57996   0.854   7.871   7.890 -0.0429  0.2222 -0.0783
  440MOL0     C57997   0.936   7.961   7.948 -0.6836  0.4970 -0.6094
  440MOL0     N57998   1.611   7.761   8.266 -1.1570 -0.5573  0.0863
  440MOL0     N57999   1.710   7.783   8.340  0.0507  0.0160  0.2295
  440MOL0     C58000   1.194   8.556   7.861 -0.3658 -0.4989 -1.0832
  440MOL0     C58001   1.140   8.568   7.731  0.2662 -0.2980 -0.8422
  440MOL0     C58002   1.077   8.757   7.296 -0.3625 -0.4342 -0.0232
  440MOL0     C58003   0.941   8.728   7.330  0.3451  1.1785  0.5823
  440MOL0     C58004   0.836   8.766   7.248  0.1022 -1.4823  0.0693
  440MOL0     C58005   0.873   8.821   7.123  0.9333  0.3406  0.3336
  440MOL0     O58006   0.778   8.854   7.031 -0.0042 -0.0950  0.0780
  440MOL0     C58007   0.638   8.848   7.044  0.4815 -0.6462 -0.6838
  440MOL0     C58008   0.556   8.856   6.912  0.4478  0.0274  0.0739
  440MOL0     C58009   0.635   8.789   6.800 -0.9298  0.0217 -0.2449
  440MOL0     C58010   0.693   8.650   6.831  0.7320  0.1269 -0.9674
  440MOL0     C58011   0.580   8.551   6.833 -0.3200 -0.4384  0.2365
  440MOL0     C58012   0.515   8.455   6.859  0.7173  0.7215  0.6629
  440MOL0     C58013   1.008   8.837   7.085 -0.1367 -0.7476  0.2154
  440MOL0     C58014   1.115   8.815   7.172  0.2641  0.7545 -0.2676
  440MOL0     H58015   1.397   8.728   7.588 -0.2197 -1.6723 -3.1595
  440MOL0     H58016   1.481   8.704   7.818 -0.7273 -1.4784  2.7554
  440MOL0     H58017   1.285   8.376   8.042  2.9508  0.9400 -3.9524
  440MOL0     H58018   1.253   8.523   8.139 -1.2030 -0.4792 -0.7570
  440MOL0     H58019   1.379   8.402   8.296 -1.1297 -0.4215 -1.1980
  440MOL0     H58020   1.464   8.537   8.238  0.0381 -0.2208 -0.4797
  440MOL0     H58021   1.565   8.338   8.052  0.2229 -2.0209  0.6028
  440MOL0     H58022   1.487   8.250   8.154 -0.2331  0.1358 -1.8070
  440MOL0     H58023   1.709   8.410   8.254  1.0817 -1.1434 -2.3851
  440MOL0     H58024   1.622   8.299   8.358  1.7317  0.2149  1.5501
  440MOL0     H58025   1.828   8.244   8.144  1.4508 -1.1651  1.2449
  440MOL0     H58026   1.729   8.108   8.206  0.4880 -1.2194  0.1417
  440MOL0     H58027   1.914   8.272   8.365  0.1107  0.2170 -0.1461
  440MOL0     H58028   1.929   8.110   8.318  1.4737  1.5858 -1.8968
  440MOL0     H58029   1.832   8.167   8.575  0.3595 -1.9774  1.4628
  440MOL0     H58030   1.684   8.177   8.489  0.2445  0.4455  0.9151
  440MOL0     H58031   1.764   7.938   8.595  0.4495 -0.1870 -0.2650
  440MOL0     H58032   1.884   7.937   8.472  0.1289  0.6037 -1.8950
  440MOL0     H58033   1.523   8.063   8.388  0.7108  1.7209 -2.5356
  440MOL0     H58034   1.351   7.977   8.250  1.2200  1.8436 -0.7785
  440MOL0     H58035   1.338   7.804   8.199 -0.0580  0.3184  1.8361
  440MOL0     H58036   1.501   7.878   8.003 -0.6674 -1.8700  2.1549
  440MOL0     H58037   1.493   8.046   8.048 -1.9802  1.0065 -0.3808
  440MOL0     H58038   1.343   8.022   7.875 -1.2505  0.8584  0.6070
  440MOL0     H58039   1.280   7.873   7.943 -2.3094  0.8573  2.8919
  440MOL0     H58040   1.272   8.147   8.073  0.5653  0.8086 -1.7964
  440MOL0     H58041   1.162   8.003   8.095  2.2414 -3.6851 -0.9502
  440MOL0     H58042   1.058   8.110   7.665 -0.6549  0.5813 -0.3584
  440MOL0     H58043   0.911   7.948   7.572  3.4235  0.6253 -1.1649
  440MOL0     H58044   0.477   7.862   7.516  0.7351  0.9791 -1.3664
  440MOL0     H58045   0.306   7.699   7.419 -1.3523 -3.1879 -0.5571
  440MOL0     H58046   0.443   7.292   7.306 -1.4634 -2.1944  0.2728
  440MOL0     H58047   0.450   7.384   7.160 -0.0824 -1.4233 -0.7873
  440MOL0     H58048   0.189   7.380   7.160  0.6001 -0.8361 -0.4781
  440MOL0     H58049   0.199   7.278   7.298 -1.3933 -1.7603 -1.3417
  440MOL0     H58050   0.362   7.125   7.169  1.1363  0.7657 -1.2617
  440MOL0     H58051   0.332   7.219   7.025 -2.4206  0.3804 -0.6903
  440MOL0     H58052   0.137   7.069   7.202  0.7907  1.2600 -0.2281
  440MOL0     H58053   0.070   7.174   7.068  0.7219  1.2313  0.4059
  440MOL0     H58054   0.254   6.928   7.076  0.0804  1.5347  1.4200
  440MOL0     H58055   0.197   6.989   6.923  3.3924  2.2191  1.2640
  440MOL0     H58056  -0.044   6.951   7.065 -0.5797 -1.6500 -0.0253
  440MOL0     H58057   0.038   6.836   7.155 -3.7023 -0.2059  1.1708
  440MOL0     H58058   0.105   6.695   6.971  0.3571  0.4229  0.5577
  440MOL0     H58059  -0.063   6.716   6.991  1.6997 -0.4704  1.9572
  440MOL0     H58060   0.080   6.841   6.755  1.0142  0.6393  1.6867
  440MOL0     H58061  -0.079   6.886   6.813 -0.1198  0.3706  1.8513
  440MOL0     H58062   0.620   7.415   7.350  0.3249 -0.0063 -0.7528
  440MOL0     H58063   0.782   7.579   7.449  0.5756 -0.8644 -3.0574
  440MOL0     H58064   0.803   7.796   7.950  1.2642 -1.0134 -0.4682
  440MOL0     H58065   0.953   7.944   8.054 -1.5427 -1.7206 -0.7931
  440MOL0     H58066   1.132   8.522   7.943  0.6753  0.0056 -0.0584
  440MOL0     H58067   1.040   8.527   7.722 -0.1733  0.1273  1.5807
  440MOL0     H58068   0.913   8.703   7.432 -2.1966  1.5371  0.0430
  440MOL0     H58069   0.728   8.769   7.264 -0.5253  1.1218 -3.4111
  440MOL0     H58070   0.609   8.935   7.104  1.3149  1.1140 -2.6910
  440MOL0     H58071   0.607   8.752   7.087 -0.5314  0.7691  2.0064
  440MOL0     H58072   0.465   8.798   6.933  0.3546 -1.0259 -2.7343
  440MOL0     H58073   0.516   8.956   6.888 -1.7803 -0.9682 -0.6724
  440MOL0     H58074   0.711   8.864   6.777 -1.0675  1.6090  3.6429
  440MOL0     H58075   0.582   8.775   6.705  0.0099 -1.0864 -0.6315
  440MOL0     H58076   0.760   8.622   6.749 -1.3963 -1.4512 -2.2744
  440MOL0     H58077   0.751   8.634   6.923  0.5110 -1.3690 -1.0557
  440MOL0     H58078   0.434   8.385   6.865 -2.2004  3.4964 -2.1060
  440MOL0     H58079   1.028   8.867   6.983  0.0738 -0.5765  0.3050
  440MOL0     H58080   1.216   8.821   7.132  0.4302 -5.1034 -1.6421
  441MOL0     O58081   5.934   5.679   8.646 -0.0948 -0.1100  0.6746
  441MOL0     C58082   5.874   5.734   8.741  0.3996  0.4652 -0.2699
  441MOL0     O58083   5.862   5.863   8.769  0.0259 -0.1449  0.4999
  441MOL0     C58084   5.931   5.959   8.685  0.0044 -0.7146 -0.1375
  441MOL0     C58085   6.065   5.991   8.725 -0.1268 -0.4810 -0.0737
  441MOL0     C58086   6.133   6.065   8.627  0.2658 -0.3222 -0.1872
  441MOL0     C58087   6.080   6.109   8.498  0.0186 -0.4178 -0.1946
  441MOL0     O58088   6.138   6.193   8.408 -0.3898  0.2521 -0.0433
  441MOL0     C58089   6.189   6.135   8.291 -0.9059 -0.0799 -0.3849
  441MOL0     C58090   6.330   6.081   8.307 -0.1533  0.0736 -0.5021
  441MOL0     C58091   6.404   6.023   8.177 -0.3429 -0.3026  0.1141
  441MOL0     C58092   6.548   5.971   8.206  0.1905 -0.3036  0.7121
  441MOL0     C58093   6.620   5.946   8.069  0.2438  0.2446 -0.4814
  441MOL0     C58094   6.757   5.880   8.099 -0.1433  0.5050  0.0538
  441MOL0     C58095   6.809   5.809   7.973  0.7817  0.0904  0.0404
  441MOL0     C58096   6.830   5.904   7.861 -0.3220 -0.0964  0.3234
  441MOL0     N58097   6.887   5.841   7.746  0.5021  0.1318  0.1672
  441MOL0     C58098   6.828   5.844   7.616 -1.2028 -0.0539 -0.1983
  441MOL0     C58099   6.924   5.783   7.539 -0.5042  0.1345 -0.5771
  441MOL0     C58100   6.917   5.768   7.394 -0.4171  0.4299 -0.2687
  441MOL0     C58101   6.860   5.626   7.369  0.1372 -0.4275  0.3655
  441MOL0     C58102   6.855   5.609   7.213 -0.2133  0.6896  0.1519
  441MOL0     C58103   6.745   5.680   7.127 -0.5095 -0.1174  0.8581
  441MOL0     O58104   6.766   5.650   6.989  0.0269 -0.1217 -0.3643
  441MOL0     C58105   6.669   5.672   6.900 -0.6790 -0.3179 -0.9907
  441MOL0     C58106   6.552   5.751   6.918  0.2764 -0.3075  0.2585
  441MOL0     C58107   6.474   5.785   6.809  0.3456 -0.0768 -0.9956
  441MOL0     C58108   6.483   5.710   6.687 -0.0475  0.5884  0.4593
  441MOL0     C58109   6.407   5.739   6.570  0.7125  0.4298  0.5771
  441MOL0     O58110   6.326   5.844   6.584  0.8949  0.6050  0.7864
  441MOL0     C58111   6.233   5.861   6.479  0.5424 -0.6801  0.2886
  441MOL0     C58112   6.121   5.785   6.471  1.0449 -1.0038 -0.8121
  441MOL0     C58113   6.040   5.791   6.359 -0.0522 -0.0974  0.1822
  441MOL0     C58114   6.075   5.867   6.243 -0.1776 -0.2982 -0.4847
  441MOL0     O58115   5.988   5.884   6.141 -0.4756  0.1148 -0.5280
  441MOL0     C58116   5.848   5.838   6.139 -1.0726  0.0368  0.1895
  441MOL0     C58117   5.834   5.703   6.056 -0.3549  0.6206 -0.0582
  441MOL0     C58118   5.694   5.691   6.001 -0.7178  0.1852 -0.6976
  441MOL0     C58119   5.650   5.544   5.980  0.6543  0.3526  0.0167
  441MOL0     C58120   5.655   5.445   6.101  0.4264 -0.0764  0.2459
  441MOL0     C58121   5.611   5.304   6.073  1.1644  0.7163 -0.0280
  441MOL0     C58122   5.606   5.222   6.210 -0.5938  0.5013  0.0397
  441MOL0     C58123   5.481   5.133   6.221  0.3699 -0.3558  0.1790
  441MOL0    Cl58124   5.491   5.000   6.101  0.1982 -0.6349  0.1983
  441MOL0     C58125   6.196   5.944   6.247 -0.1081  0.1508  0.1642
  441MOL0     C58126   6.265   5.947   6.371  0.3968  0.0761  0.6517
  441MOL0     O58127   6.404   5.658   6.477 -0.0749  0.7976  0.0976
  441MOL0     C58128   6.597   5.622   6.675  1.9628  0.2594 -1.2512
  441MOL0     C58129   6.690   5.597   6.783  0.5150 -0.4326 -0.2768
  441MOL0     N58130   7.032   5.746   7.614 -0.1613  0.9973  0.4182
  441MOL0     N58131   7.006   5.774   7.734  0.7397 -0.3324 -0.8429
  441MOL0     C58132   5.944   6.079   8.477 -0.1921 -0.9980 -0.3874
  441MOL0     C58133   5.873   5.999   8.566 -0.4759 -0.1852  0.9344
  441MOL0     C58134   5.807   5.635   8.833 -0.6125 -0.3724 -0.5691
  441MOL0     C58135   5.738   5.521   8.790 -0.3895  0.2444 -0.2278
  441MOL0     C58136   5.678   5.436   8.882  0.6212 -0.5595 -1.1194
  441MOL0     C58137   5.674   5.462   9.025 -0.7169 -0.4744  0.4783
  441MOL0     O58138   5.582   5.391   9.096 -0.1787  0.1221 -0.2171
  441MOL0     C58139   5.595   5.382   9.236 -0.5816 -0.0445  0.3132
  441MOL0     C58140   5.715   5.295   9.276 -0.3747  0.8005 -0.1945
  441MOL0     C58141   5.832   5.368   9.340  0.3063 -0.9610 -0.4153
  441MOL0     C58142   5.797   5.415   9.480  1.6148 -0.1243 -0.1734
  441MOL0     C58143   5.834   5.556   9.489 -0.3574 -0.3953 -0.6706
  441MOL0     C58144   5.861   5.676   9.501 -0.4464 -0.0275  0.3946
  441MOL0     C58145   5.741   5.578   9.067  0.3222  0.0038 -0.8593
  441MOL0     C58146   5.811   5.662   8.967  0.1629  0.0291 -0.4014
  441MOL0     H58147   6.107   5.956   8.819  0.1074 -0.5392 -0.1988
  441MOL0     H58148   6.233   6.095   8.658  0.1923  1.5742 -1.5965
  441MOL0     H58149   6.188   6.217   8.220 -1.4019  1.2314  1.0732
  441MOL0     H58150   6.128   6.054   8.250  3.4390 -3.4464 -0.9812
  441MOL0     H58151   6.330   5.997   8.377 -3.3214  0.3012 -0.1074
  441MOL0     H58152   6.391   6.161   8.348 -1.5775  0.5170  0.8306
  441MOL0     H58153   6.419   6.110   8.112 -1.1958 -1.0605 -1.1401
  441MOL0     H58154   6.344   5.945   8.131  0.7427 -0.2070 -1.5805
  441MOL0     H58155   6.603   6.042   8.269 -2.0841  0.4229  2.0034
  441MOL0     H58156   6.527   5.873   8.249  0.2965 -0.8096 -0.3501
  441MOL0     H58157   6.649   6.047   8.038  1.2206  1.3328  3.3665
  441MOL0     H58158   6.561   5.878   8.007  0.1023 -2.2364  2.1692
  441MOL0     H58159   6.760   5.802   8.176  2.1285 -0.2196 -0.6894
  441MOL0     H58160   6.830   5.958   8.120  0.6791 -0.3610  0.4742
  441MOL0     H58161   6.903   5.764   8.009 -0.9276 -3.1916  0.8304
  441MOL0     H58162   6.748   5.722   7.947 -0.3258  0.3668  1.6007
  441MOL0     H58163   6.904   5.979   7.890 -0.0781  0.2201 -1.0585
  441MOL0     H58164   6.730   5.945   7.841 -1.1445 -1.2708  1.7381
  441MOL0     H58165   6.730   5.882   7.592 -1.7756  0.3218  2.4664
  441MOL0     H58166   7.011   5.764   7.339 -1.0693  0.8853 -1.4432
  441MOL0     H58167   6.854   5.842   7.345 -4.7104 -2.1853  0.7482
  441MOL0     H58168   6.762   5.626   7.416  1.0132  0.8477  2.3364
  441MOL0     H58169   6.928   5.554   7.417  4.6167  3.7150  1.1264
  441MOL0     H58170   6.952   5.646   7.177 -0.9484  0.2433 -2.4920
  441MOL0     H58171   6.847   5.502   7.193 -1.2176  0.9887 -1.2482
  441MOL0     H58172   6.734   5.787   7.143 -3.1453 -0.3793  1.2453
  441MOL0     H58173   6.651   5.637   7.162 -1.9770  0.8655 -1.6420
  441MOL0     H58174   6.532   5.801   7.012  1.0587  0.5638 -0.0256
  441MOL0     H58175   6.402   5.866   6.818  0.3120 -0.1686 -0.3658
  441MOL0     H58176   6.103   5.729   6.561  6.3837  2.0346  2.7072
  441MOL0     H58177   5.949   5.731   6.365 -0.8394  1.0001 -0.3958
  441MOL0     H58178   5.795   5.918   6.086 -2.1845 -0.2893  0.7705
  441MOL0     H58179   5.812   5.844   6.242  1.6397  2.9176  1.1548
  441MOL0     H58180   5.857   5.611   6.111 -1.3811  1.9093  2.7003
  441MOL0     H58181   5.902   5.725   5.973  0.7502  6.7907  1.9155
  441MOL0     H58182   5.696   5.748   5.908  2.4104 -1.2932 -1.6753
  441MOL0     H58183   5.628   5.731   6.079  0.9145  2.4661 -0.4079
  441MOL0     H58184   5.546   5.573   5.959  0.7442  2.1905  1.8041
  441MOL0     H58185   5.691   5.494   5.891 -0.2979 -1.1339  0.3678
  441MOL0     H58186   5.590   5.487   6.179 -2.0189 -1.4431 -0.9168
  441MOL0     H58187   5.757   5.427   6.136  1.2913 -1.3342 -2.6541
  441MOL0     H58188   5.681   5.248   6.010  1.5613 -0.1664  1.1699
  441MOL0     H58189   5.519   5.307   6.013  1.1573 -0.0621 -0.0644
  441MOL0     H58190   5.697   5.162   6.210 -0.0536  1.1315  3.2546
  441MOL0     H58191   5.602   5.293   6.293  3.7316 -0.4203  1.2840
  441MOL0     H58192   5.389   5.191   6.223  1.1620  0.9813 -0.5109
  441MOL0     H58193   5.488   5.082   6.318  0.4399  0.0180  0.3740
  441MOL0     H58194   6.229   5.998   6.159  0.2640 -0.9596 -0.4011
  441MOL0     H58195   6.346   6.020   6.373 -0.4014  1.0183 -0.4526
  441MOL0     H58196   6.629   5.585   6.579  2.3555 -1.3505 -0.5386
  441MOL0     H58197   6.780   5.536   6.776  0.4738 -0.8063  1.7388
  441MOL0     H58198   5.900   6.107   8.381 -2.4589 -1.0995  0.5557
  441MOL0     H58199   5.772   5.972   8.534 -0.9954  0.9831  1.5535
  441MOL0     H58200   5.730   5.503   8.683 -3.1794  0.7125 -0.1894
  441MOL0     H58201   5.621   5.352   8.843 -0.4383  0.9590 -3.0312
  441MOL0     H58202   5.508   5.338   9.286  1.5312 -3.6134  1.2275
  441MOL0     H58203   5.612   5.481   9.277 -1.6826  1.4274 -2.5151
  441MOL0     H58204   5.676   5.215   9.340  1.4554 -0.0279 -0.0373
  441MOL0     H58205   5.751   5.239   9.190 -1.5193 -2.0442  1.0530
  441MOL0     H58206   5.854   5.452   9.274 -0.8836  0.5706  1.0540
  441MOL0     H58207   5.915   5.296   9.341  0.4997 -0.7476  1.4314
  441MOL0     H58208   5.695   5.394   9.514  1.7693  1.9566  1.8169
  441MOL0     H58209   5.848   5.368   9.565  0.8153  1.2127  1.0893
  441MOL0     H58210   5.872   5.779   9.530  0.3964 -0.4240  1.5167
  441MOL0     H58211   5.731   5.613   9.169 -0.8361  2.0890 -1.6022
  441MOL0     H58212   5.855   5.753   9.007  1.9584 -1.4428  1.1578
  442MOL0     O58213   0.062   8.918   7.888 -0.6062  0.2110 -0.8982
  442MOL0     C58214  -0.057   8.924   7.865 -0.8950 -0.6649 -1.0629
  442MOL0     O58215  -0.115   9.034   7.809  0.0988  0.9223  0.4864
  442MOL0     C58216  -0.039   9.139   7.766 -0.4765 -0.3315 -0.4703
  442MOL0     C58217  -0.006   9.240   7.859 -0.1245  0.4298  0.2590
  442MOL0     C58218   0.076   9.348   7.831 -0.2186 -0.3406  0.3506
  442MOL0     C58219   0.132   9.358   7.707  0.7630  0.6738 -0.9529
  442MOL0     O58220   0.212   9.461   7.690 -0.5815  0.8834  0.8515
  442MOL0     C58221   0.274   9.493   7.568  0.1897 -0.2531 -0.3059
  442MOL0     C58222   0.379   9.604   7.573  0.5403  0.3178 -0.0450
  442MOL0     C58223   0.466   9.613   7.699  0.0790  0.1388 -0.5013
  442MOL0     C58224   0.540   9.749   7.717  0.3290  0.0208  0.4504
  442MOL0     C58225   0.646   9.730   7.821 -0.1875 -0.3516  0.2293
  442MOL0     C58226   0.766   9.830   7.801  0.1201  0.0148 -0.2052
  442MOL0     C58227   0.745   9.953   7.872  0.0856  0.0217 -0.0571
  442MOL0     C58228   0.776   9.939   8.021 -0.6684  0.3449  0.6531
  442MOL0     N58229   0.742  10.065   8.095  0.2560 -1.1367 -0.8243
  442MOL0     C58230   0.735  10.188   8.045  1.3625 -0.4432  0.6373
  442MOL0     C58231   0.674  10.261   8.138 -0.1158 -0.6567  0.0450
  442MOL0     C58232   0.636  10.401   8.127 -0.2727 -0.0455 -0.0852
  442MOL0     C58233   0.499  10.446   8.179 -0.3586  0.5461  0.6144
  442MOL0     C58234   0.391  10.469   8.073  0.0974 -0.3257 -0.3873
  442MOL0     C58235   0.350  10.344   7.980  0.7753 -0.6087 -0.1881
  442MOL0     O58236   0.457  10.309   7.887 -0.5679  0.1455 -0.2882
  442MOL0     C58237   0.440  10.214   7.784  0.1212  0.2116  0.1677
  442MOL0     C58238   0.315  10.157   7.758  0.1407 -0.5933 -0.3001
  442MOL0     C58239   0.290  10.074   7.643 -0.1298 -0.7340  0.4736
  442MOL0     C58240   0.399  10.063   7.546  0.5929 -0.3056  0.5789
  442MOL0     C58241   0.373   9.981   7.420  0.1815 -0.5652  0.2049
  442MOL0     O58242   0.479   9.982   7.330 -0.5206 -0.0143 -0.4079
  442MOL0     C58243   0.488   9.901   7.211  0.6048 -1.2071 -0.4557
  442MOL0     C58244   0.464   9.968   7.092 -0.2231 -0.9935 -1.0503
  442MOL0     C58245   0.485   9.909   6.967  0.1886 -0.2628 -0.0310
  442MOL0     C58246   0.521   9.780   6.957 -0.4467 -0.2774  0.8343
  442MOL0     O58247   0.559   9.735   6.830 -0.5390 -0.2720  0.2792
  442MOL0     C58248   0.579   9.592   6.812 -0.2566 -0.1583 -0.3587
  442MOL0     C58249   0.613   9.569   6.661  0.7368 -0.3062  0.0936
  442MOL0     C58250   0.640   9.424   6.637 -0.2800 -0.2707  0.5253
  442MOL0     C58251   0.728   9.411   6.514 -0.1802 -0.0983 -0.5141
  442MOL0     C58252   0.759   9.259   6.487 -0.0827  0.0910 -0.5133
  442MOL0     C58253   0.645   9.148   6.498 -0.8936 -0.9735  0.1121
  442MOL0     C58254   0.541   9.175   6.386 -0.2868 -0.4211  0.8349
  442MOL0     C58255   0.435   9.057   6.387  0.5987  0.4617 -0.3384
  442MOL0    Cl58256   0.495   8.924   6.280  0.4471  0.2275 -0.6402
  442MOL0     C58257   0.528   9.701   7.077  0.4875  0.4284  0.6780
  442MOL0     C58258   0.518   9.770   7.200 -0.3289  0.3662 -0.3115
  442MOL0     O58259   0.263   9.923   7.402 -1.0517 -0.4577 -0.8583
  442MOL0     C58260   0.523  10.124   7.574 -0.1055 -0.2329 -0.0900
  442MOL0     C58261   0.545  10.189   7.689  0.0465  0.2525  1.2082
  442MOL0     N58262   0.663  10.189   8.255  0.2959  0.2501  0.3435
  442MOL0     N58263   0.692  10.070   8.225  0.9178  0.2329  1.0291
  442MOL0     C58264   0.097   9.256   7.615 -1.1773 -0.4242 -0.6312
  442MOL0     C58265   0.007   9.155   7.637  0.0854  0.2476  0.6892
  442MOL0     C58266  -0.141   8.812   7.905  0.1154  0.1103 -0.9150
  442MOL0     C58267  -0.089   8.686   7.941 -0.4975 -0.3993  0.5062
  442MOL0     C58268  -0.174   8.584   7.979 -0.2181 -0.0282 -0.4301
  442MOL0     C58269  -0.314   8.608   7.988 -0.5606 -0.1109  0.5088
  442MOL0     O58270  -0.412   8.527   8.026 -0.2804 -1.0480  0.0765
  442MOL0     C58271  -0.374   8.407   8.089  0.2402  0.5199 -0.7886
  442MOL0     C58272  -0.298   8.419   8.219  0.1892  1.2779  0.1817
  442MOL0     C58273  -0.358   8.497   8.327 -0.7952 -0.9345 -0.0552
  442MOL0     C58274  -0.299   8.650   8.334  0.3101  0.0172  0.6242
  442MOL0     C58275  -0.373   8.734   8.427  0.2290 -0.7064 -0.3404
  442MOL0     C58276  -0.440   8.824   8.480  0.9842 -0.1483 -0.2037
  442MOL0     C58277  -0.362   8.723   7.945 -0.4613 -0.2018 -0.1898
  442MOL0     C58278  -0.277   8.830   7.903  0.5587  0.8468 -0.2234
  442MOL0     H58279  -0.035   9.227   7.963  0.5741  1.5400  0.6033
  442MOL0     H58280   0.101   9.424   7.904  0.0542  0.1926 -0.2914
  442MOL0     H58281   0.198   9.505   7.491  0.3959  0.6049 -0.3869
  442MOL0     H58282   0.341   9.413   7.536  0.9144  0.5601 -0.8657
  442MOL0     H58283   0.316   9.692   7.586 -3.3923 -1.7651 -2.7831
  442MOL0     H58284   0.430   9.594   7.476  1.4785 -1.5080  0.5815
  442MOL0     H58285   0.538   9.530   7.697 -0.1305 -0.1788  1.9597
  442MOL0     H58286   0.407   9.598   7.790 -2.4156  0.7759 -1.9190
  442MOL0     H58287   0.577   9.781   7.619 -0.0357  0.1965  0.3668
  442MOL0     H58288   0.468   9.827   7.743 -1.1442 -1.0632 -0.2565
  442MOL0     H58289   0.687   9.631   7.799  1.3005 -0.8008  4.2221
  442MOL0     H58290   0.603   9.737   7.921  2.6906  3.5833  1.4391
  442MOL0     H58291   0.776   9.848   7.693  2.5462  1.4154  0.1737
  442MOL0     H58292   0.867   9.801   7.831 -0.3077  1.1539  2.6367
  442MOL0     H58293   0.813  10.025   7.825 -0.2872  0.0761 -0.5269
  442MOL0     H58294   0.647   9.998   7.854 -0.5706  1.1552  4.9537
  442MOL0     H58295   0.883   9.922   8.037 -0.1833  1.8229 -0.6853
  442MOL0     H58296   0.721   9.865   8.079  1.4377  0.8359  3.5098
  442MOL0     H58297   0.752  10.220   7.943  1.6003 -1.3993  0.3643
  442MOL0     H58298   0.653  10.438   8.026  1.1241  1.4698  0.6568
  442MOL0     H58299   0.713  10.453   8.185 -0.7874  1.9175 -1.0906
  442MOL0     H58300   0.526  10.537   8.232  0.1527  0.3363  0.7220
  442MOL0     H58301   0.461  10.374   8.252  1.1696 -1.9139 -0.8783
  442MOL0     H58302   0.300  10.507   8.119 -0.7668  0.9252 -2.9378
  442MOL0     H58303   0.437  10.541   8.005  2.3756  0.7903  2.1282
  442MOL0     H58304   0.264  10.379   7.923  0.4142  1.8321  1.6613
  442MOL0     H58305   0.310  10.260   8.037  0.7641 -2.2430 -2.4803
  442MOL0     H58306   0.231  10.169   7.826  0.9890 -3.0858  1.3170
  442MOL0     H58307   0.189  10.034   7.635  0.0098 -1.1005  0.5225
  442MOL0     H58308   0.422  10.068   7.098  1.5283 -0.2695 -0.3205
  442MOL0     H58309   0.479   9.979   6.884  0.8737 -0.7652 -0.5146
  442MOL0     H58310   0.493   9.532   6.841 -1.1096  1.1931 -0.0235
  442MOL0     H58311   0.672   9.568   6.865  0.3001  1.8617 -0.3339
  442MOL0     H58312   0.711   9.618   6.658  1.4265 -1.6676 -0.9623
  442MOL0     H58313   0.550   9.614   6.584  1.3568  0.3922 -0.0091
  442MOL0     H58314   0.545   9.374   6.613 -0.9899  1.1421  0.2902
  442MOL0     H58315   0.692   9.373   6.718  1.6120 -0.1851 -0.5876
  442MOL0     H58316   0.681   9.453   6.424  0.3168 -0.3600 -0.9007
  442MOL0     H58317   0.824   9.462   6.527  0.4496 -1.8022  2.3737
  442MOL0     H58318   0.836   9.238   6.561  1.0679 -0.5309 -1.8459
  442MOL0     H58319   0.805   9.256   6.388  0.4712  4.5291 -0.6027
  442MOL0     H58320   0.597   9.146   6.596 -1.6653  1.2820 -0.1695
  442MOL0     H58321   0.690   9.050   6.481 -0.0878 -1.0680  2.4992
  442MOL0     H58322   0.494   9.269   6.415  1.8483  1.0632 -0.1952
  442MOL0     H58323   0.578   9.171   6.283  1.8180  0.1112  1.5091
  442MOL0     H58324   0.342   9.089   6.340  0.2244 -1.3774 -0.9095
  442MOL0     H58325   0.403   9.029   6.488  1.0378  2.4884  0.4226
  442MOL0     H58326   0.555   9.596   7.084 -0.4874  0.0460 -0.7698
  442MOL0     H58327   0.521   9.704   7.286 -0.2369  2.4117  1.3430
  442MOL0     H58328   0.596  10.098   7.498 -2.8502 -3.9407 -1.7826
  442MOL0     H58329   0.639  10.237   7.713 -0.3487  0.8889  1.5282
  442MOL0     H58330   0.144   9.253   7.517  1.7100 -1.2331  0.6526
  442MOL0     H58331  -0.012   9.084   7.558 -0.0576  1.1698 -0.1284
  442MOL0     H58332   0.017   8.668   7.923  0.1125  0.5631  2.7292
  442MOL0     H58333  -0.129   8.490   8.010 -1.1637 -0.7390 -1.1518
  442MOL0     H58334  -0.319   8.342   8.021 -0.0456 -2.3053  1.5196
  442MOL0     H58335  -0.468   8.357   8.115  0.7253  1.3055  3.1247
  442MOL0     H58336  -0.294   8.317   8.259  0.3465  0.5526 -1.5844
  442MOL0     H58337  -0.191   8.442   8.220  0.7995 -1.2677  0.5163
  442MOL0     H58338  -0.336   8.446   8.421  0.3740 -1.2591 -0.4897
  442MOL0     H58339  -0.468   8.494   8.324 -0.8980 -0.9957  2.1323
  442MOL0     H58340  -0.194   8.643   8.363  0.1249 -1.7569  0.9639
  442MOL0     H58341  -0.304   8.681   8.229  0.0531  0.1828  0.6829
  442MOL0     H58342  -0.500   8.908   8.508 -2.6156 -1.9892 -1.6680
  442MOL0     H58343  -0.469   8.738   7.955 -0.5801  0.6016 -2.2939
  442MOL0     H58344  -0.319   8.916   7.851 -1.7017 -1.6833 -2.9714
  443MOL0     O58345   8.538   6.622  11.323  0.1102 -0.2008 -0.2078
  443MOL0     C58346   8.616   6.622  11.227  1.1721 -0.0350 -0.3601
  443MOL0     O58347   8.622   6.536  11.117  0.3240  0.7961  0.2336
  443MOL0     C58348   8.506   6.457  11.087 -0.1927 -0.5080 -0.6594
  443MOL0     C58349   8.524   6.346  11.004  0.8834 -0.1837  0.4874
  443MOL0     C58350   8.406   6.268  10.952 -0.8084 -0.3189  0.7344
  443MOL0     C58351   8.281   6.305  11.002  0.4112 -0.1811 -0.2495
  443MOL0     O58352   8.170   6.238  10.951  0.4748  0.4906  0.0009
  443MOL0     C58353   8.097   6.292  10.842 -0.5350 -1.0926 -0.6859
  443MOL0     C58354   8.007   6.192  10.776 -0.4313 -0.3687 -0.2231
  443MOL0     C58355   8.085   6.094  10.686 -0.7560  0.5819  0.1014
  443MOL0     C58356   7.982   6.030  10.595  0.3306  0.1069  0.3462
  443MOL0     C58357   8.058   5.942  10.496 -0.1481 -0.3835  1.2608
  443MOL0     C58358   7.950   5.846  10.430 -0.0919 -0.3383 -0.4396
  443MOL0     C58359   7.998   5.777  10.298 -1.0482 -0.9486  0.1023
  443MOL0     C58360   7.928   5.834  10.177  0.8895 -0.0683 -0.6151
  443MOL0     N58361   7.948   5.759  10.051 -0.3371 -0.3161 -0.1788
  443MOL0     C58362   8.076   5.723  10.009 -1.0359 -0.0888 -0.0439
  443MOL0     C58363   8.067   5.668   9.885  0.5752  0.4027 -0.9975
  443MOL0     C58364   8.179   5.600   9.807  0.3252 -0.2734  0.6220
  443MOL0     C58365   8.151   5.447   9.787  0.1620  0.2842 -0.3060
  443MOL0     C58366   8.277   5.388   9.725  0.1203  0.4921  0.2694
  443MOL0     C58367   8.278   5.231   9.721  0.3817 -0.3523  1.0430
  443MOL0     O58368   8.411   5.186   9.692  0.2919 -0.7085 -0.5502
  443MOL0     C58369   8.508   5.207   9.782 -1.1861 -0.2284  0.5718
  443MOL0     C58370   8.640   5.234   9.741 -0.3297  0.1197  0.0235
  443MOL0     C58371   8.749   5.251   9.838  0.0369  1.0447  0.3801
  443MOL0     C58372   8.727   5.217   9.967  0.1794 -1.2279 -0.6890
  443MOL0     C58373   8.832   5.217  10.069  0.2206  0.0459  1.5689
  443MOL0     O58374   8.941   5.282  10.020  0.8638  0.1790 -0.6743
  443MOL0     C58375   9.070   5.266  10.075  0.9073  0.6585  0.8716
  443MOL0     C58376   9.152   5.374  10.088  0.0609 -0.0747 -0.5124
  443MOL0     C58377   9.286   5.361  10.135  0.7496 -0.4691  0.6751
  443MOL0     C58378   9.335   5.243  10.181  0.8100 -0.1536  1.3684
  443MOL0     O58379   9.461   5.211  10.220 -0.1300 -0.6596  0.4207
  443MOL0     C58380   9.553   5.326  10.257 -0.0159  1.4010  1.1507
  443MOL0     C58381   9.637   5.280  10.373 -0.2665  0.5439  0.1044
  443MOL0     C58382   9.777   5.339  10.390  0.0556  0.0404  0.3506
  443MOL0     C58383   9.837   5.312  10.528  0.6095  1.1259 -0.3588
  443MOL0     C58384   9.966   5.400  10.534  0.1664 -0.7162  0.0395
  443MOL0     C58385  10.048   5.373  10.657  0.6017 -0.1155 -0.2282
  443MOL0     C58386   9.974   5.407  10.789  0.4481  0.2757  0.8881
  443MOL0     C58387  10.017   5.329  10.907 -0.7310  0.1845 -0.2701
  443MOL0    Cl58388   9.927   5.362  11.056 -0.3125 -0.2867  0.0514
  443MOL0     C58389   9.257   5.136  10.142  0.3709  0.8905 -0.1007
  443MOL0     C58390   9.121   5.141  10.092 -0.2629  0.8149 -0.1146
  443MOL0     O58391   8.832   5.139  10.161 -0.8479  0.6305 -0.7058
  443MOL0     C58392   8.600   5.173  10.005 -0.3513 -0.0321 -0.0217
  443MOL0     C58393   8.495   5.162   9.913 -0.5542  0.3771 -0.2431
  443MOL0     N58394   7.934   5.691   9.848  0.3671 -0.3802 -0.3618
  443MOL0     N58395   7.863   5.740   9.943 -0.8596 -0.0505 -0.7781
  443MOL0     C58396   8.267   6.426  11.076  0.5713  0.2074  0.0603
  443MOL0     C58397   8.379   6.503  11.117 -0.5507  0.9362 -0.7260
  443MOL0     C58398   8.704   6.735  11.234 -0.2531  0.0893 -0.5901
  443MOL0     C58399   8.712   6.819  11.347  0.0928 -0.8530 -0.2763
  443MOL0     C58400   8.822   6.908  11.359 -0.4732  0.5754 -0.0254
  443MOL0     C58401   8.917   6.922  11.258  0.1099  0.4669  0.6683
  443MOL0     O58402   9.006   7.023  11.279  0.1475  0.2736  0.1864
  443MOL0     C58403   9.145   6.981  11.298  1.4342 -0.7098  0.0341
  443MOL0     C58404   9.218   7.110  11.276  0.4214 -0.1334  0.1165
  443MOL0     C58405   9.366   7.095  11.316 -0.0535 -0.0483  1.0088
  443MOL0     C58406   9.466   7.202  11.270 -0.2074  0.7140 -0.2083
  443MOL0     C58407   9.608   7.162  11.258 -0.4466 -0.5944  0.3254
  443MOL0     C58408   9.725   7.126  11.246 -0.9391 -0.0236 -0.0011
  443MOL0     C58409   8.905   6.846  11.140 -0.4995  0.3758 -1.0784
  443MOL0     C58410   8.797   6.754  11.130  0.6460 -0.7814 -0.6085
  443MOL0     H58411   8.615   6.315  10.955  0.5715 -0.7473  0.2545
  443MOL0     H58412   8.413   6.179  10.891 -0.1938 -0.5186  1.0859
  443MOL0     H58413   8.166   6.341  10.772  2.6126 -1.2900  2.0222
  443MOL0     H58414   8.030   6.368  10.882 -2.0928 -2.5275 -0.4827
  443MOL0     H58415   7.928   6.244  10.720  0.1681  1.0180  0.1715
  443MOL0     H58416   7.964   6.139  10.862 -0.2131 -0.6118 -0.2642
  443MOL0     H58417   8.147   6.032  10.752 -0.7658  0.2946 -0.1568
  443MOL0     H58418   8.143   6.147  10.610 -2.7360 -0.1519 -2.0311
  443MOL0     H58419   7.909   5.976  10.656  0.8567  0.0358  0.9229
  443MOL0     H58420   7.927   6.106  10.539 -0.1056 -1.3670 -1.3216
  443MOL0     H58421   8.142   5.882  10.533  4.2714  1.6675 -4.0141
  443MOL0     H58422   8.105   6.002  10.418  0.7648 -1.7841  0.6915
  443MOL0     H58423   7.852   5.896  10.427 -0.1284 -0.4391 -1.1868
  443MOL0     H58424   7.940   5.761  10.498  4.6224  0.8654  2.1489
  443MOL0     H58425   8.107   5.787  10.301 -1.2640  2.7267  0.5895
  443MOL0     H58426   7.983   5.669  10.286 -0.2870 -1.0118 -0.3671
  443MOL0     H58427   7.965   5.936  10.168  2.8665 -0.7809 -1.1694
  443MOL0     H58428   7.819   5.837  10.181  0.9015 -0.2707 -0.0337
  443MOL0     H58429   8.157   5.729  10.081 -1.2065  1.9752  0.0225
  443MOL0     H58430   8.276   5.610   9.858 -0.0893 -0.7948  1.5414
  443MOL0     H58431   8.190   5.652   9.712  2.8773 -1.5237  0.1270
  443MOL0     H58432   8.051   5.441   9.743 -0.8255  0.4966  1.7794
  443MOL0     H58433   8.145   5.410   9.889  3.4810 -0.9939 -0.4683
  443MOL0     H58434   8.294   5.421   9.622  1.1321  0.1746  0.3186
  443MOL0     H58435   8.362   5.421   9.786 -0.0365  0.7316  0.3608
  443MOL0     H58436   8.218   5.181   9.644 -0.7174 -4.0017  3.9938
  443MOL0     H58437   8.231   5.206   9.816 -0.6990 -0.8758  0.3982
  443MOL0     H58438   8.657   5.248   9.635 -0.5898  3.8298  0.3297
  443MOL0     H58439   8.844   5.281   9.796  1.4880 -2.0602  1.1668
  443MOL0     H58440   9.127   5.470  10.044  0.1246  0.5855  0.8469
  443MOL0     H58441   9.355   5.443  10.118 -0.2216  1.5151  5.0555
  443MOL0     H58442   9.493   5.413  10.284  1.0208  1.8966  1.9401
  443MOL0     H58443   9.603   5.352  10.164  0.9312 -1.1717  0.8538
  443MOL0     H58444   9.647   5.171  10.363  1.4591  0.7479 -0.7349
  443MOL0     H58445   9.575   5.295  10.461  0.5457  2.2990  0.4213
  443MOL0     H58446   9.776   5.446  10.365  0.1233  0.9082  3.6586
  443MOL0     H58447   9.843   5.280  10.325  0.1235 -2.1702  2.2867
  443MOL0     H58448   9.765   5.332  10.607 -1.4186 -3.1132 -0.8641
  443MOL0     H58449   9.854   5.204  10.536 -2.6931  0.3603 -1.8441
  443MOL0     H58450   9.934   5.505  10.529  0.9393 -0.5336 -1.5703
  443MOL0     H58451  10.037   5.380  10.454 -0.4714  1.3234 -1.1203
  443MOL0     H58452  10.131   5.444  10.648  0.4058  0.2727  0.8872
  443MOL0     H58453  10.090   5.272  10.652  0.6901 -0.0447 -1.0623
  443MOL0     H58454   9.979   5.510  10.826 -2.9850  0.8294  0.1698
  443MOL0     H58455   9.867   5.387  10.777  0.5370  0.5487 -0.5719
  443MOL0     H58456  10.124   5.335  10.928 -1.0172 -1.6644  2.2873
  443MOL0     H58457  10.018   5.222  10.882 -0.5239 -0.1664  1.1317
  443MOL0     H58458   9.295   5.034  10.146 -1.9293  0.0004  1.5807
  443MOL0     H58459   9.077   5.043  10.073  1.9985 -0.2122 -0.4740
  443MOL0     H58460   8.583   5.154  10.111  2.2730  2.2108  0.9171
  443MOL0     H58461   8.408   5.108   9.950  1.0411 -1.7767  0.6385
  443MOL0     H58462   8.167   6.469  11.082  0.0554 -0.9084 -0.1725
  443MOL0     H58463   8.354   6.596  11.166  1.9653  0.5791  1.4457
  443MOL0     H58464   8.636   6.804  11.423  0.5036 -0.7088  0.1719
  443MOL0     H58465   8.824   6.976  11.444 -3.4969 -0.2938  0.8485
  443MOL0     H58466   9.166   6.911  11.218  1.0878 -0.2720 -0.4457
  443MOL0     H58467   9.164   6.936  11.396 -1.2226 -4.9566 -1.1338
  443MOL0     H58468   9.208   7.137  11.170  0.1522 -3.2629 -0.7487
  443MOL0     H58469   9.173   7.184  11.343 -0.2361 -0.0911 -0.3593
  443MOL0     H58470   9.414   7.003  11.282  4.0296  1.3362  2.3841
  443MOL0     H58471   9.370   7.097  11.425 -0.3314  0.8071  1.0112
  443MOL0     H58472   9.444   7.230  11.166  1.1298  2.4335 -0.0728
  443MOL0     H58473   9.453   7.295  11.326 -1.8118  1.5732 -1.8876
  443MOL0     H58474   9.825   7.097  11.220 -1.2130 -0.7666 -0.2402
  443MOL0     H58475   8.982   6.872  11.069  1.3652  2.8684  1.6220
  443MOL0     H58476   8.784   6.707  11.033 -1.6462  0.7834 -1.1342
  444MOL0     O58477   3.190   4.831   4.411 -0.0679  0.8936 -0.4027
  444MOL0     C58478   3.269   4.783   4.492  0.2273 -0.1731  0.1728
  444MOL0     O58479   3.399   4.758   4.460 -0.0362  0.4167 -0.5026
  444MOL0     C58480   3.448   4.820   4.354 -0.5773 -0.0912  0.5435
  444MOL0     C58481   3.462   4.743   4.236  0.1624 -0.3303  0.0105
  444MOL0     C58482   3.519   4.806   4.126  0.7669 -0.5829  0.4621
  444MOL0     C58483   3.568   4.949   4.134  0.3609  0.3760  0.1090
  444MOL0     O58484   3.617   5.017   4.026 -0.5659 -0.1858 -0.1968
  444MOL0     C58485   3.675   4.947   3.923  0.2428  0.0671  0.1908
  444MOL0     C58486   3.713   5.049   3.821  0.4974  0.2327  0.7539
  444MOL0     C58487   3.805   4.991   3.716 -0.4149  1.3386 -0.0307
  444MOL0     C58488   3.816   5.074   3.595 -0.8919  0.1159 -0.8088
  444MOL0     C58489   3.905   5.191   3.626 -0.5351  0.1167 -0.7780
  444MOL0     C58490   3.953   5.275   3.506 -0.1526  0.1122  1.3558
  444MOL0     C58491   3.821   5.323   3.429 -0.5428 -0.1510 -0.5728
  444MOL0     C58492   3.856   5.429   3.319  0.2864 -0.1258  0.4936
  444MOL0     N58493   3.768   5.405   3.210 -0.0074 -1.2425  0.3457
  444MOL0     C58494   3.637   5.437   3.221 -1.0023 -0.1912 -0.0584
  444MOL0     C58495   3.593   5.393   3.095 -0.0068  0.1182  0.0573
  444MOL0     C58496   3.452   5.396   3.053 -0.4832  0.5609  0.6645
  444MOL0     C58497   3.356   5.444   3.152 -1.4292 -0.2798  0.5442
  444MOL0     C58498   3.209   5.436   3.106 -0.3841 -0.2831  0.0003
  444MOL0     C58499   3.169   5.455   2.957  0.3780 -0.3176 -0.0400
  444MOL0     O58500   3.026   5.511   2.958 -0.2978 -0.0745 -0.3598
  444MOL0     C58501   2.925   5.428   2.979 -0.2146 -0.0895 -0.4229
  444MOL0     C58502   2.923   5.289   2.989  0.2140 -0.2319  0.3391
  444MOL0     C58503   2.809   5.210   2.965  0.0288 -0.9426 -0.4179
  444MOL0     C58504   2.687   5.284   2.943 -0.4649  0.1689  0.0184
  444MOL0     C58505   2.564   5.218   2.899 -0.0538  0.6511 -0.3317
  444MOL0     O58506   2.556   5.074   2.888 -0.8904 -0.4874  0.3229
  444MOL0     C58507   2.429   5.032   2.849  0.3827  0.5598 -0.3488
  444MOL0     C58508   2.424   4.973   2.724  1.1240  0.0990 -0.5657
  444MOL0     C58509   2.296   4.927   2.673  0.5431  0.1872 -0.2342
  444MOL0     C58510   2.186   4.943   2.750 -0.1304  0.3438 -0.4134
  444MOL0     O58511   2.073   4.913   2.682 -0.1254 -0.2884  0.5261
  444MOL0     C58512   1.943   4.939   2.743 -0.5196  0.8558 -0.2533
  444MOL0     C58513   1.911   5.089   2.737 -0.4958 -0.6472  0.0152
  444MOL0     C58514   1.891   5.140   2.588  0.5330 -0.1901 -0.0952
  444MOL0     C58515   1.762   5.081   2.527 -0.1270 -0.2847 -0.0631
  444MOL0     C58516   1.704   5.163   2.406  0.4435  0.1704  0.2194
  444MOL0     C58517   1.615   5.076   2.318 -0.4245 -0.5253  0.2018
  444MOL0     C58518   1.633   5.125   2.175  0.5340 -0.8529  0.2429
  444MOL0     C58519   1.514   5.095   2.089  0.3050  0.9089 -0.6093
  444MOL0    Cl58520   1.513   4.914   2.061 -0.6179 -0.2787 -0.1564
  444MOL0     C58521   2.188   5.016   2.877  0.1207  0.2188 -0.3978
  444MOL0     C58522   2.314   5.051   2.932 -0.4212 -0.7114  1.0061
  444MOL0     O58523   2.471   5.293   2.891 -0.4306  0.1115  0.3721
  444MOL0     C58524   2.690   5.425   2.944  0.3384 -0.5861  0.5187
  444MOL0     C58525   2.807   5.494   2.970 -0.5743 -0.8135  0.3860
  444MOL0     N58526   3.699   5.347   3.023 -0.4397  0.2537 -0.3599
  444MOL0     N58527   3.805   5.357   3.088  0.5321  0.7130 -0.9045
  444MOL0     C58528   3.551   5.010   4.255 -0.6840 -0.5936 -0.4213
  444MOL0     C58529   3.482   4.950   4.360 -0.2363  0.0825 -0.6249
  444MOL0     C58530   3.212   4.719   4.615  0.0338  1.0858 -0.3114
  444MOL0     C58531   3.291   4.660   4.719 -0.2486  0.2152  1.2080
  444MOL0     C58532   3.234   4.583   4.811 -0.3691  0.2353  0.0641
  444MOL0     C58533   3.095   4.572   4.825  0.4627 -0.3082  0.1294
  444MOL0     O58534   3.029   4.508   4.929 -0.5847  0.1918 -0.4508
  444MOL0     C58535   3.108   4.434   5.022  0.0775 -0.6646  0.9428
  444MOL0     C58536   3.016   4.374   5.123 -0.0706 -0.7514 -0.8593
  444MOL0     C58537   3.090   4.281   5.215  1.0066  0.1192  0.0403
  444MOL0     C58538   2.995   4.210   5.319  0.0011  0.1573  0.5740
  444MOL0     C58539   2.910   4.113   5.253  0.7501 -0.2025  0.5655
  444MOL0     C58540   2.843   4.038   5.174  0.3549 -0.6998 -0.1728
  444MOL0     C58541   3.007   4.618   4.724 -0.2545 -0.2735  0.5851
  444MOL0     C58542   3.070   4.699   4.623 -0.8170  0.5931  0.7298
  444MOL0     H58543   3.427   4.641   4.228  0.1321 -0.2103 -1.7189
  444MOL0     H58544   3.535   4.746   4.037  2.9789 -0.3910  0.6737
  444MOL0     H58545   3.604   4.875   3.881 -0.4000 -0.0608  1.4410
  444MOL0     H58546   3.749   4.883   3.972  0.6663  0.0275 -0.4978
  444MOL0     H58547   3.762   5.133   3.872  2.4909  0.8856 -1.9529
  444MOL0     H58548   3.624   5.087   3.770 -0.2244 -0.0759  1.7478
  444MOL0     H58549   3.774   4.892   3.680 -0.5897  1.0499  0.8798
  444MOL0     H58550   3.906   4.980   3.757 -0.3790  2.1048  0.1093
  444MOL0     H58551   3.863   5.013   3.517  0.2781 -0.9784  0.6988
  444MOL0     H58552   3.721   5.116   3.561  0.2136  3.2125 -0.3241
  444MOL0     H58553   3.999   5.156   3.669 -0.0923 -1.1987 -2.6844
  444MOL0     H58554   3.856   5.259   3.695 -1.9301  0.9790 -2.5313
  444MOL0     H58555   4.020   5.218   3.440  1.0251  2.5225  0.3427
  444MOL0     H58556   4.015   5.357   3.542 -0.2106  1.6403 -1.6496
  444MOL0     H58557   3.762   5.242   3.386  0.5269 -1.0212 -0.4461
  444MOL0     H58558   3.752   5.384   3.488 -1.0009 -0.7022 -0.5325
  444MOL0     H58559   3.957   5.413   3.282  0.5124  0.4202  0.8569
  444MOL0     H58560   3.861   5.535   3.349 -1.9192 -0.0536  0.8360
  444MOL0     H58561   3.595   5.477   3.313  1.4218 -2.6166  2.3013
  444MOL0     H58562   3.427   5.297   3.014 -0.3611  0.0789  1.7768
  444MOL0     H58563   3.458   5.462   2.966  1.3103 -1.9385 -1.2926
  444MOL0     H58564   3.384   5.550   3.144  3.6422 -1.4938 -2.2736
  444MOL0     H58565   3.382   5.401   3.249  2.6353  4.4415  1.9931
  444MOL0     H58566   3.174   5.337   3.137 -1.0425 -0.2611 -0.6458
  444MOL0     H58567   3.152   5.508   3.164  0.3480  0.9066 -0.7210
  444MOL0     H58568   3.185   5.365   2.897  2.5001  0.1135 -0.2239
  444MOL0     H58569   3.242   5.520   2.907  1.2737 -1.1122  0.2050
  444MOL0     H58570   3.011   5.230   3.009  0.5095 -0.3741 -1.2311
  444MOL0     H58571   2.805   5.102   2.973 -0.5997 -0.9162 -0.3345
  444MOL0     H58572   2.513   4.953   2.666  1.4677  0.3141 -0.1089
  444MOL0     H58573   2.288   4.896   2.569  3.0289  0.3260 -0.5197
  444MOL0     H58574   1.935   4.898   2.844  1.8750 -4.2135 -1.8044
  444MOL0     H58575   1.869   4.877   2.691 -3.2757  2.4614  1.5025
  444MOL0     H58576   2.001   5.134   2.780 -1.8925 -0.9374  3.6214
  444MOL0     H58577   1.821   5.107   2.797 -0.3073 -1.0308  0.4201
  444MOL0     H58578   1.979   5.122   2.526  1.0105 -3.9549  1.4363
  444MOL0     H58579   1.879   5.248   2.601 -1.0069 -0.2009 -1.1025
  444MOL0     H58580   1.787   4.980   2.494  1.9999 -0.0429  0.6409
  444MOL0     H58581   1.684   5.070   2.603  1.1734 -4.6544  0.9488
  444MOL0     H58582   1.800   5.190   2.361  1.5033 -2.1122  0.9125
  444MOL0     H58583   1.643   5.242   2.451 -0.5925 -0.4636 -0.0381
  444MOL0     H58584   1.509   5.093   2.342 -1.3982 -0.5252 -3.5411
  444MOL0     H58585   1.636   4.970   2.329 -1.2263 -0.6088  1.1411
  444MOL0     H58586   1.643   5.233   2.176 -0.3758 -0.5877 -3.4020
  444MOL0     H58587   1.715   5.081   2.117  0.1812 -0.4114 -0.6162
  444MOL0     H58588   1.521   5.144   1.992  0.0975 -2.8787 -2.7350
  444MOL0     H58589   1.421   5.125   2.139  0.2375  3.2922 -2.0608
  444MOL0     H58590   2.094   5.028   2.930  0.9250 -0.5873  1.2589
  444MOL0     H58591   2.330   5.087   3.034 -0.9669 -1.7978  1.4882
  444MOL0     H58592   2.601   5.481   2.918  1.3917  1.7971  1.7461
  444MOL0     H58593   2.811   5.602   2.958 -2.8726 -0.6133  0.9008
  444MOL0     H58594   3.580   5.113   4.270 -1.6023 -0.5492  1.3267
  444MOL0     H58595   3.470   5.005   4.453  2.2416  2.2643 -1.4554
  444MOL0     H58596   3.399   4.664   4.728 -0.1979 -1.1860  1.5093
  444MOL0     H58597   3.297   4.543   4.891  2.0741 -2.4781 -2.9566
  444MOL0     H58598   3.176   4.501   5.075 -0.6221 -0.0340  1.0729
  444MOL0     H58599   3.162   4.355   4.970  2.4747  0.8351  1.0387
  444MOL0     H58600   2.961   4.456   5.170  3.6050  0.9689  0.8698
  444MOL0     H58601   2.936   4.322   5.070 -1.4496 -1.0244  1.3663
  444MOL0     H58602   3.153   4.350   5.271 -3.0609  4.0371  0.3913
  444MOL0     H58603   3.136   4.200   5.157  0.4571 -2.1307  2.5416
  444MOL0     H58604   3.050   4.171   5.406  2.1460  0.7834 -0.4365
  444MOL0     H58605   2.945   4.301   5.353 -2.7901 -1.3354  0.8461
  444MOL0     H58606   2.788   3.987   5.098  0.4533 -1.2786  0.1420
  444MOL0     H58607   2.899   4.613   4.728 -0.5776  3.3391  0.0249
  444MOL0     H58608   3.007   4.736   4.543  1.5678  4.2340  0.2761
  445MOL0     O58609  10.469   7.036   3.594 -0.3711  0.4974  0.3070
  445MOL0     C58610  10.432   7.016   3.715  0.6066  0.1312  0.2176
  445MOL0     O58611  10.371   6.897   3.763 -0.3834  0.0806  0.0148
  445MOL0     C58612  10.296   6.839   3.668  0.9933  0.1593 -0.9070
  445MOL0     C58613  10.333   6.707   3.648  0.7153 -0.3414  0.2186
  445MOL0     C58614  10.261   6.634   3.558  0.1329 -0.2542  0.3854
  445MOL0     C58615  10.151   6.692   3.486 -0.2765 -0.8886 -0.5387
  445MOL0     O58616  10.064   6.647   3.395  0.2570  0.0324  0.2040
  445MOL0     C58617  10.036   6.496   3.407  0.6659 -0.1094  0.0890
  445MOL0     C58618   9.905   6.450   3.338  0.6520 -0.2850 -0.1005
  445MOL0     C58619   9.892   6.300   3.352 -0.5018 -0.4432 -0.7739
  445MOL0     C58620   9.753   6.242   3.320 -0.5522 -0.1535  0.2337
  445MOL0     C58621   9.773   6.094   3.313 -0.1566  0.6019  0.4825
  445MOL0     C58622   9.629   6.033   3.318  0.5053 -0.2865 -1.1061
  445MOL0     C58623   9.622   5.901   3.257  1.0081 -2.1404 -0.5473
  445MOL0     C58624   9.471   5.852   3.236 -1.4194  0.7834  0.7556
  445MOL0     N58625   9.399   5.828   3.355 -0.7486 -0.4007 -0.2452
  445MOL0     C58626   9.275   5.864   3.382  0.5481  1.0755 -0.6202
  445MOL0     C58627   9.253   5.828   3.508  0.2352 -0.0648  0.1484
  445MOL0     C58628   9.122   5.880   3.585 -0.7682  0.1550  0.0126
  445MOL0     C58629   8.999   5.789   3.559  0.3619 -0.4883 -0.0190
  445MOL0     C58630   8.899   5.801   3.675  0.6376 -0.5384  0.0926
  445MOL0     C58631   8.766   5.713   3.666 -0.2765  0.2385  0.3096
  445MOL0     O58632   8.664   5.779   3.588  0.2876 -0.7804  0.0252
  445MOL0     C58633   8.557   5.690   3.551  0.1884  0.0613 -0.7432
  445MOL0     C58634   8.456   5.653   3.638  0.3889 -0.3540  0.1965
  445MOL0     C58635   8.335   5.594   3.602  0.6594 -0.6021  0.3810
  445MOL0     C58636   8.317   5.553   3.466  0.6574  0.0187 -1.7869
  445MOL0     C58637   8.197   5.480   3.425  0.4677  0.2110  0.4580
  445MOL0     O58638   8.214   5.423   3.302  0.2000  0.2334 -0.1375
  445MOL0     C58639   8.119   5.345   3.261  0.5725  0.3600  0.0178
  445MOL0     C58640   8.144   5.216   3.293  0.7819  0.6559  0.6879
  445MOL0     C58641   8.047   5.115   3.246 -0.6202 -0.2496 -0.5329
  445MOL0     C58642   7.936   5.150   3.166 -0.3049 -0.4331 -0.0073
  445MOL0     O58643   7.863   5.048   3.107  0.3331  0.1405 -0.2063
  445MOL0     C58644   7.722   5.064   3.101  0.6833  0.4759  0.6003
  445MOL0     C58645   7.645   4.924   3.108 -0.9662  0.6496 -0.0496
  445MOL0     C58646   7.666   4.861   3.248 -1.1916  0.0814 -1.1005
  445MOL0     C58647   7.565   4.746   3.270 -1.0025 -0.3169 -0.3284
  445MOL0     C58648   7.561   4.703   3.415 -0.3337  1.0262 -0.4128
  445MOL0     C58649   7.665   4.583   3.446  0.0445  0.1488  1.3363
  445MOL0     C58650   7.643   4.522   3.586  0.7351  0.7756  1.3089
  445MOL0     C58651   7.694   4.602   3.706  0.0584  1.2635  0.2344
  445MOL0    Cl58652   7.874   4.590   3.716 -0.0702 -0.0598 -0.1515
  445MOL0     C58653   7.916   5.288   3.142 -0.3679 -0.0514 -0.2231
  445MOL0     C58654   8.007   5.387   3.191  0.1379  0.0895 -0.0410
  445MOL0     O58655   8.094   5.494   3.486  0.4330  0.4677 -0.6632
  445MOL0     C58656   8.418   5.600   3.383  0.7504 -0.3644  1.0227
  445MOL0     C58657   8.535   5.669   3.420 -0.1806  0.3717  0.3174
  445MOL0     N58658   9.363   5.769   3.562 -0.2602 -0.0899  0.1752
  445MOL0     N58659   9.451   5.768   3.466  0.1559 -0.2581  1.0405
  445MOL0     C58660  10.126   6.827   3.512  0.9062 -0.0453 -0.0530
  445MOL0     C58661  10.198   6.905   3.597  0.4427 -0.6463 -0.6558
  445MOL0     C58662  10.455   7.126   3.804 -0.5451 -0.8831  0.7906
  445MOL0     C58663  10.377   7.148   3.918 -0.8874 -0.7967  1.2992
  445MOL0     C58664  10.404   7.253   4.007 -0.6512 -0.0674  0.4774
  445MOL0     C58665  10.505   7.341   3.975 -0.4809 -0.4840 -0.2399
  445MOL0     O58666  10.535   7.445   4.057  0.5924 -0.3909 -0.3592
  445MOL0     C58667  10.454   7.476   4.172  0.1631 -0.0129 -0.4625
  445MOL0     C58668  10.505   7.429   4.304  0.7682  0.7826 -0.7004
  445MOL0     C58669  10.655   7.478   4.325 -1.2491 -0.1610 -0.1356
  445MOL0     C58670  10.709   7.424   4.457 -0.1101 -0.4165 -0.4945
  445MOL0     C58671  10.774   7.294   4.445  0.1982  0.3015 -0.0324
  445MOL0     C58672  10.865   7.119   4.425 -0.7235 -0.5402  0.1542
  445MOL0     C58673  10.584   7.325   3.862 -0.0597  1.0557  0.6104
  445MOL0     C58674  10.561   7.216   3.782  0.0218  0.9673 -0.9938
  445MOL0     H58675  10.424   6.670   3.693 -0.6607 -2.0576  1.7356
  445MOL0     H58676  10.285   6.530   3.540  0.0904 -0.0684 -0.8307
  445MOL0     H58677  10.025   6.478   3.514  1.8334  0.2559  0.2888
  445MOL0     H58678  10.117   6.437   3.363 -0.2911  0.0957 -2.1086
  445MOL0     H58679   9.901   6.469   3.230 -1.6676  1.6864  0.2460
  445MOL0     H58680   9.810   6.495   3.367  0.0386 -0.9338 -1.0542
  445MOL0     H58681   9.922   6.277   3.455  2.4539  0.3067 -1.3894
  445MOL0     H58682   9.961   6.254   3.280  1.4044 -0.3936  0.9363
  445MOL0     H58683   9.669   6.279   3.380  1.0289  2.1727  1.1915
  445MOL0     H58684   9.718   6.278   3.223 -1.7868 -3.4676 -0.6820
  445MOL0     H58685   9.838   6.066   3.396  3.8234  1.3912 -2.0962
  445MOL0     H58686   9.818   6.057   3.220 -0.3530  0.7368  0.3322
  445MOL0     H58687   9.551   6.101   3.284  0.2303  1.7132  2.8566
  445MOL0     H58688   9.578   6.019   3.414  0.3520 -2.9503 -1.5203
  445MOL0     H58689   9.657   5.904   3.153  0.3130 -0.3226 -0.7532
  445MOL0     H58690   9.689   5.825   3.299  2.2105 -0.9478 -0.2655
  445MOL0     H58691   9.467   5.769   3.165 -2.0704  1.6363 -0.2320
  445MOL0     H58692   9.416   5.924   3.175  2.1104 -0.5583 -4.6834
  445MOL0     H58693   9.196   5.899   3.316 -3.1802 -0.6939  2.4361
  445MOL0     H58694   9.102   5.986   3.567 -2.4187 -0.5866 -3.5535
  445MOL0     H58695   9.159   5.861   3.686 -1.8815 -1.5747  0.1345
  445MOL0     H58696   9.035   5.687   3.547  1.0050 -0.6120  2.4078
  445MOL0     H58697   8.963   5.811   3.458 -0.3648  1.2327  0.5698
  445MOL0     H58698   8.955   5.763   3.761 -2.4900 -1.5867  1.8215
  445MOL0     H58699   8.869   5.905   3.688  0.3845 -0.4360 -1.1525
  445MOL0     H58700   8.736   5.692   3.769 -3.0190 -3.1288 -0.9710
  445MOL0     H58701   8.788   5.613   3.627  1.3399  2.0106 -3.9557
  445MOL0     H58702   8.470   5.689   3.739 -0.4918 -0.2023  0.2754
  445MOL0     H58703   8.256   5.578   3.674 -3.5590 -0.3987 -3.6959
  445MOL0     H58704   8.231   5.181   3.348  1.0103  0.2285  0.0757
  445MOL0     H58705   8.064   5.010   3.268  3.9514  0.4141 -0.0204
  445MOL0     H58706   7.688   5.121   3.014 -1.5397 -0.8110  0.5427
  445MOL0     H58707   7.685   5.116   3.190 -0.5824  0.4524  0.1096
  445MOL0     H58708   7.688   4.858   3.032 -1.5026 -1.0795  1.0851
  445MOL0     H58709   7.537   4.933   3.091 -1.7272 -0.5332  3.3502
  445MOL0     H58710   7.643   4.939   3.322  0.9749  1.2053 -1.5404
  445MOL0     H58711   7.766   4.828   3.278 -1.6091  1.4351  2.2784
  445MOL0     H58712   7.466   4.787   3.250 -0.8510  0.1753 -0.0729
  445MOL0     H58713   7.590   4.662   3.203  1.4806 -1.1381  1.4667
  445MOL0     H58714   7.459   4.665   3.429  0.0319 -1.2138 -2.9045
  445MOL0     H58715   7.581   4.784   3.486  1.0052 -0.7136  1.3030
  445MOL0     H58716   7.768   4.616   3.426 -0.2327 -0.0820 -0.6574
  445MOL0     H58717   7.664   4.504   3.371 -0.9213  0.1711  1.3123
  445MOL0     H58718   7.535   4.504   3.591  0.9327 -0.7158  0.4725
  445MOL0     H58719   7.694   4.426   3.594  2.3361  1.4351 -0.3256
  445MOL0     H58720   7.650   4.553   3.793 -0.7090 -2.9484 -2.2639
  445MOL0     H58721   7.646   4.700   3.700 -0.7516  0.7906 -1.8972
  445MOL0     H58722   7.823   5.321   3.096  0.2271  2.7388  0.3753
  445MOL0     H58723   7.981   5.490   3.171 -0.9106 -0.3020 -0.8205
  445MOL0     H58724   8.395   5.567   3.282  2.4742 -1.7612  1.0403
  445MOL0     H58725   8.596   5.700   3.335  0.8912 -2.7179 -0.1815
  445MOL0     H58726  10.044   6.879   3.464  1.5104 -1.7978 -3.3092
  445MOL0     H58727  10.169   7.006   3.626 -1.4317 -1.5512  0.7834
  445MOL0     H58728  10.284   7.095   3.936 -2.8304  1.0672 -2.2449
  445MOL0     H58729  10.353   7.263   4.102 -2.0929  1.9604 -0.4414
  445MOL0     H58730  10.350   7.447   4.158 -0.1727 -0.7826  2.9207
  445MOL0     H58731  10.458   7.585   4.175 -1.3060  0.1670 -2.5692
  445MOL0     H58732  10.441   7.458   4.388 -3.5655  4.6112 -4.7172
  445MOL0     H58733  10.514   7.321   4.293  1.3845  0.8265 -0.6450
  445MOL0     H58734  10.658   7.585   4.349  0.0439 -0.4877  1.2610
  445MOL0     H58735  10.716   7.459   4.236 -0.5685  1.6090 -0.0905
  445MOL0     H58736  10.790   7.487   4.496 -2.9138  2.0162  1.8785
  445MOL0     H58737  10.634   7.438   4.536 -2.2605  2.8435 -2.8338
  445MOL0     H58738  10.909   7.022   4.423  0.7481 -0.1034  3.7294
  445MOL0     H58739  10.648   7.397   3.810  0.5697 -0.0865 -0.2485
  445MOL0     H58740  10.613   7.205   3.687  0.4824  2.4197 -0.9383
  446MOL0     O58741   1.040   8.682   2.786  0.0942  0.0379 -0.4974
  446MOL0     C58742   1.087   8.783   2.732 -0.0922  0.4793  0.4687
  446MOL0     O58743   1.020   8.871   2.654  0.2341  0.0193  0.8443
  446MOL0     C58744   0.892   8.863   2.655  0.6830 -0.7911 -0.2102
  446MOL0     C58745   0.811   8.972   2.710  0.7989  0.1209  0.2493
  446MOL0     C58746   0.662   8.961   2.709 -0.0570  0.0167 -0.4750
  446MOL0     C58747   0.595   8.846   2.661  1.0370 -0.0116  0.0357
  446MOL0     O58748   0.459   8.825   2.669 -0.1299 -0.8793  0.5704
  446MOL0     C58749   0.364   8.932   2.658  0.2902 -0.6352 -0.2507
  446MOL0     C58750   0.351   9.000   2.521 -0.3140 -0.1324  0.0017
  446MOL0     C58751   0.207   8.993   2.464  0.3119 -0.3566 -0.5179
  446MOL0     C58752   0.129   9.113   2.532  0.5799 -1.0310  0.4394
  446MOL0     C58753  -0.005   9.130   2.476 -0.1196  0.5259  1.1757
  446MOL0     C58754  -0.111   9.015   2.485 -0.5701  0.9451 -0.2067
  446MOL0     C58755  -0.143   8.995   2.621 -0.5537 -0.3370 -0.4848
  446MOL0     C58756  -0.254   8.908   2.635 -0.2949 -0.1936 -0.1228
  446MOL0     N58757  -0.282   8.883   2.783  1.4995  0.3191  0.2907
  446MOL0     C58758  -0.187   8.857   2.891  0.0558 -0.4327  0.4408
  446MOL0     C58759  -0.259   8.819   2.993 -0.4898 -0.2084 -0.0588
  446MOL0     C58760  -0.200   8.772   3.125  1.0108  0.0267  0.4299
  446MOL0     C58761  -0.148   8.621   3.101 -0.2974 -1.8733  0.5114
  446MOL0     C58762  -0.251   8.512   3.125 -0.5481 -1.0782 -0.3178
  446MOL0     C58763  -0.281   8.481   3.273  0.5732 -0.2098 -0.4924
  446MOL0     O58764  -0.182   8.408   3.353  0.5796 -1.2261 -0.0188
  446MOL0     C58765  -0.077   8.485   3.409 -0.5208  1.0962 -0.2800
  446MOL0     C58766   0.024   8.408   3.470  0.7911 -0.4679  0.4896
  446MOL0     C58767   0.137   8.470   3.509 -0.8658 -0.3449  0.5763
  446MOL0     C58768   0.158   8.607   3.501  0.0235  0.2877 -0.1550
  446MOL0     C58769   0.285   8.673   3.541  0.3188  0.0404 -0.4951
  446MOL0     O58770   0.293   8.808   3.564 -0.5710  0.7238 -0.3755
  446MOL0     C58771   0.408   8.863   3.617  0.3517  0.4730 -0.9210
  446MOL0     C58772   0.473   8.808   3.724  0.3099  0.5675  0.1134
  446MOL0     C58773   0.587   8.881   3.788  0.5531  0.5383  0.4618
  446MOL0     C58774   0.637   8.997   3.728 -0.1419  0.1387 -0.3156
  446MOL0     O58775   0.732   9.077   3.792  0.0655 -0.3008  0.4789
  446MOL0     C58776   0.824   8.998   3.870  0.0408 -0.9873  0.7630
  446MOL0     C58777   0.961   9.068   3.901 -0.2755 -1.8343  0.2363
  446MOL0     C58778   1.069   9.012   3.816 -0.2273  0.3353  0.3501
  446MOL0     C58779   1.209   9.068   3.860 -0.3918  0.3950 -0.3068
  446MOL0     C58780   1.311   9.004   3.770  0.3671 -0.1991  0.0234
  446MOL0     C58781   1.455   9.059   3.799 -0.0316 -0.2480 -0.0859
  446MOL0     C58782   1.569   8.987   3.732  0.5392 -0.4179  0.1259
  446MOL0     C58783   1.593   8.994   3.582  1.4456  0.0870 -0.7913
  446MOL0    Cl58784   1.771   8.943   3.560  0.4533 -0.3236 -0.2099
  446MOL0     C58785   0.566   9.045   3.616 -0.0167  0.3555  0.6235
  446MOL0     C58786   0.456   8.976   3.554 -0.2291 -0.5348  0.2458
  446MOL0     O58787   0.381   8.595   3.527  0.0325  0.0030  0.1536
  446MOL0     C58788   0.048   8.684   3.462 -1.0055  0.0821  0.5166
  446MOL0     C58789  -0.063   8.621   3.409 -0.8458  0.1172  0.9443
  446MOL0     N58790  -0.393   8.819   2.954 -0.1811 -0.9912 -0.2755
  446MOL0     N58791  -0.409   8.855   2.830  0.0857  0.6582 -0.1079
  446MOL0     C58792   0.676   8.750   2.609  0.8123 -0.2508 -0.1976
  446MOL0     C58793   0.818   8.757   2.600 -0.1497  0.4419  1.1379
  446MOL0     C58794   1.238   8.789   2.722 -1.0912 -0.4302 -0.0720
  446MOL0     C58795   1.325   8.691   2.782  0.5460 -0.5931 -0.5477
  446MOL0     C58796   1.463   8.698   2.745  0.3729  0.2046  0.6038
  446MOL0     C58797   1.516   8.800   2.672  0.2062  0.7185  0.2600
  446MOL0     O58798   1.660   8.799   2.669  0.2223 -0.2922  0.3284
  446MOL0     C58799   1.728   8.919   2.646 -1.3475 -0.1438 -0.1191
  446MOL0     C58800   1.870   8.893   2.603 -0.3300  0.6096 -0.0389
  446MOL0     C58801   1.960   9.023   2.596 -0.0303  0.6096 -0.1258
  446MOL0     C58802   2.106   8.989   2.562  0.5997  0.6910  0.4466
  446MOL0     C58803   2.196   9.107   2.568  0.5354  0.1751 -0.1778
  446MOL0     C58804   2.286   9.179   2.571 -0.0306 -0.1709  0.8815
  446MOL0     C58805   1.427   8.897   2.622  0.1232 -0.1560  0.4784
  446MOL0     C58806   1.292   8.889   2.642  0.3224  0.3037  0.9094
  446MOL0     H58807   0.856   9.063   2.749  1.2140  0.1160 -0.2096
  446MOL0     H58808   0.607   9.043   2.754  0.2715 -1.5060  3.0188
  446MOL0     H58809   0.378   9.009   2.734  0.2288  0.7920 -1.6395
  446MOL0     H58810   0.272   8.877   2.681  0.5696 -1.8761 -1.8488
  446MOL0     H58811   0.406   8.948   2.441 -1.7088  0.5243 -1.4480
  446MOL0     H58812   0.390   9.100   2.541  1.4815 -1.1771  2.1757
  446MOL0     H58813   0.162   8.896   2.483 -0.5988  0.2259  0.4047
  446MOL0     H58814   0.213   9.015   2.357 -2.1138 -0.2630 -0.6758
  446MOL0     H58815   0.114   9.095   2.639 -0.9246  0.3434  0.4881
  446MOL0     H58816   0.191   9.203   2.518  1.4298 -1.9535 -2.2316
  446MOL0     H58817   0.011   9.157   2.371 -0.0216  2.6164  1.6926
  446MOL0     H58818  -0.045   9.219   2.524  2.3185  0.1336  4.2793
  446MOL0     H58819  -0.072   8.923   2.441 -1.1887  0.5424  0.0750
  446MOL0     H58820  -0.198   9.051   2.429 -1.4493  0.4315  0.7873
  446MOL0     H58821  -0.054   8.952   2.669  0.1423 -0.0569 -1.5150
  446MOL0     H58822  -0.166   9.090   2.670 -2.6382 -0.6444 -0.7600
  446MOL0     H58823  -0.213   8.827   2.575  0.7154  0.4812 -0.3757
  446MOL0     H58824  -0.347   8.931   2.583  0.2629 -0.9479 -1.4903
  446MOL0     H58825  -0.079   8.861   2.894  0.1586 -1.9755 -0.3415
  446MOL0     H58826  -0.276   8.781   3.203  1.5290  1.3517  0.8045
  446MOL0     H58827  -0.118   8.837   3.155  3.9019 -3.3998  0.6980
  446MOL0     H58828  -0.054   8.602   3.154  0.0723 -0.3127  0.4669
  446MOL0     H58829  -0.128   8.614   2.994  0.0026  2.5672  0.0888
  446MOL0     H58830  -0.344   8.534   3.071 -0.7440 -2.7254 -0.7276
  446MOL0     H58831  -0.211   8.417   3.087 -1.1526 -1.6257  0.3687
  446MOL0     H58832  -0.363   8.409   3.273  0.1771  0.1706  1.5323
  446MOL0     H58833  -0.305   8.578   3.317 -0.3728 -0.7075  0.1303
  446MOL0     H58834   0.003   8.301   3.464  0.7626 -0.4835  0.8408
  446MOL0     H58835   0.222   8.413   3.546 -0.1972  0.2887  0.0589
  446MOL0     H58836   0.439   8.712   3.761  1.0232 -0.3609 -1.5395
  446MOL0     H58837   0.645   8.832   3.866  0.7064  0.8171  0.5249
  446MOL0     H58838   0.850   8.894   3.846 -0.3316 -1.6917  3.1003
  446MOL0     H58839   0.773   9.009   3.967  0.4684  0.8301  0.8069
  446MOL0     H58840   0.982   9.065   4.008  1.0996  5.1785  0.6141
  446MOL0     H58841   0.950   9.175   3.881 -2.6662 -1.5363  2.4962
  446MOL0     H58842   1.049   9.035   3.711 -0.0158  1.8672  0.6249
  446MOL0     H58843   1.071   8.902   3.824 -0.6034  0.2823 -0.2198
  446MOL0     H58844   1.207   9.177   3.857 -3.5176  0.4262 -1.3875
  446MOL0     H58845   1.232   9.033   3.961  1.3842 -1.5670 -1.3143
  446MOL0     H58846   1.291   9.035   3.668 -0.3269  1.8891  0.7489
  446MOL0     H58847   1.302   8.895   3.772 -1.4103 -0.1063 -1.1459
  446MOL0     H58848   1.472   9.052   3.907  2.8961  1.2302 -0.3549
  446MOL0     H58849   1.462   9.164   3.770 -1.0215  0.4941  2.1417
  446MOL0     H58850   1.666   9.009   3.777  1.4801 -1.5984 -1.2325
  446MOL0     H58851   1.547   8.881   3.747 -1.6042  0.3207  3.3666
  446MOL0     H58852   1.575   9.098   3.554 -1.3511  0.5012  1.9901
  446MOL0     H58853   1.522   8.927   3.533 -0.3526  1.3604 -0.0441
  446MOL0     H58854   0.600   9.138   3.571  1.4919  0.3743  1.7250
  446MOL0     H58855   0.405   9.031   3.476 -2.4121 -2.5416  0.1344
  446MOL0     H58856   0.060   8.792   3.469  1.5067  0.0038 -1.4191
  446MOL0     H58857  -0.143   8.676   3.360  0.1607  0.5378 -0.3041
  446MOL0     H58858   0.628   8.661   2.572 -0.1468 -1.6996  3.9500
  446MOL0     H58859   0.876   8.682   2.547  0.7893  1.2070  1.0381
  446MOL0     H58860   1.286   8.610   2.842 -1.1802  1.7060  1.5907
  446MOL0     H58861   1.530   8.623   2.787 -0.5399 -0.2217  1.3532
  446MOL0     H58862   1.749   8.970   2.741  2.6754  2.3254 -2.0781
  446MOL0     H58863   1.690   8.994   2.575 -0.3961  3.4181  2.8022
  446MOL0     H58864   1.917   8.827   2.677  1.8095  1.3150 -0.7090
  446MOL0     H58865   1.872   8.845   2.505  2.0318 -0.3825  0.4500
  446MOL0     H58866   1.945   9.072   2.693  0.8733 -3.9558  2.5759
  446MOL0     H58867   1.927   9.085   2.511 -0.6837 -0.9964 -1.1032
  446MOL0     H58868   2.143   8.914   2.632 -3.9419 -2.2073  0.1769
  446MOL0     H58869   2.114   8.950   2.461  2.5724  1.1204  0.4005
  446MOL0     H58870   2.373   9.237   2.546 -0.3853  0.5335  1.2485
  446MOL0     H58871   1.472   8.971   2.557  0.7197 -1.0761 -0.1975
  446MOL0     H58872   1.227   8.963   2.598  0.1976  0.8801  2.0189
  447MOL0     O58873   7.815   8.577  10.596 -0.0895 -0.4370  0.1884
  447MOL0     C58874   7.818   8.455  10.619  0.6932 -0.4907 -0.0718
  447MOL0     O58875   7.927   8.370  10.610 -0.3674 -0.3234 -0.5250
  447MOL0     C58876   8.041   8.428  10.566 -1.3624 -0.5187  0.3141
  447MOL0     C58877   8.134   8.493  10.649 -0.5868 -0.1722 -0.0209
  447MOL0     C58878   8.254   8.545  10.601 -0.9989  0.3807  0.0039
  447MOL0     C58879   8.291   8.528  10.461  1.0380 -1.0035  0.9495
  447MOL0     O58880   8.398   8.573  10.407 -0.9918 -0.0220  0.4136
  447MOL0     C58881   8.497   8.644  10.487  1.0794 -0.0575  0.4115
  447MOL0     C58882   8.611   8.680  10.396 -0.0174 -0.1125 -1.2691
  447MOL0     C58883   8.739   8.705  10.473  0.2386 -0.3460  0.0732
  447MOL0     C58884   8.861   8.736  10.383  0.6141  0.0792  0.9145
  447MOL0     C58885   8.914   8.884  10.359  0.1998  0.8169  0.5436
  447MOL0     C58886   8.956   8.952  10.489 -0.1114  0.0455  0.3499
  447MOL0     C58887   8.988   9.101  10.479 -0.2469  0.3237  0.0076
  447MOL0     C58888   9.127   9.102  10.406 -0.2238  0.0783 -0.6530
  447MOL0     N58889   9.239   9.155  10.503 -0.3479 -0.1751  0.3818
  447MOL0     C58890   9.280   9.080  10.605  0.7753  0.4166  0.0469
  447MOL0     C58891   9.378   9.146  10.670  0.8812  1.0594 -0.7115
  447MOL0     C58892   9.441   9.092  10.787  0.4668 -0.6787 -0.6097
  447MOL0     C58893   9.427   8.940  10.801 -0.5384 -0.0861  1.1160
  447MOL0     C58894   9.482   8.886  10.935 -0.1791 -0.1718  0.0611
  447MOL0     C58895   9.452   8.744  10.959 -0.3736 -0.1064  0.1018
  447MOL0     O58896   9.318   8.730  11.013 -0.5109 -0.0965 -0.2756
  447MOL0     C58897   9.268   8.605  11.033  0.3657 -0.4307  0.1677
  447MOL0     C58898   9.338   8.485  10.998  0.5405  0.9858  1.2878
  447MOL0     C58899   9.264   8.364  11.012 -1.2270  0.2845 -0.1469
  447MOL0     C58900   9.138   8.358  11.078 -0.1776 -0.3587  0.8088
  447MOL0     C58901   9.073   8.224  11.100  0.1824  0.4137 -0.1352
  447MOL0     O58902   8.971   8.220  11.189 -0.0104  0.3942 -1.2542
  447MOL0     C58903   8.916   8.103  11.246  0.0208 -0.1328 -0.1353
  447MOL0     C58904   8.859   8.103  11.376 -0.2102  0.7981 -0.3257
  447MOL0     C58905   8.783   7.993  11.419 -0.1951  0.1717  0.0064
  447MOL0     C58906   8.754   7.883  11.337  0.2714  0.7914  1.3194
  447MOL0     O58907   8.687   7.774  11.374  0.3220  0.2287 -0.7398
  447MOL0     C58908   8.556   7.792  11.437 -0.0701  0.3245  0.3821
  447MOL0     C58909   8.547   7.689  11.546 -0.1173 -0.5369 -0.1029
  447MOL0     C58910   8.436   7.726  11.643 -0.2355 -0.3223 -0.4261
  447MOL0     C58911   8.421   7.631  11.757 -0.3230 -0.1065  0.3151
  447MOL0     C58912   8.311   7.647  11.855  0.3441 -0.3911 -0.4762
  447MOL0     C58913   8.320   7.542  11.977  0.2909  0.2588 -0.1241
  447MOL0     C58914   8.189   7.516  12.053 -0.2265  0.4444  0.4107
  447MOL0     C58915   8.213   7.409  12.152 -0.2917 -0.0172  1.4948
  447MOL0    Cl58916   8.087   7.396  12.281 -0.5014 -0.3917 -0.3485
  447MOL0     C58917   8.823   7.878  11.211  0.0303  1.0435 -0.1327
  447MOL0     C58918   8.897   7.984  11.167 -0.1016  0.4380  0.1725
  447MOL0     O58919   9.129   8.128  11.057 -0.7310  0.8095  0.1157
  447MOL0     C58920   9.075   8.478  11.116 -0.0772  0.3993 -0.1404
  447MOL0     C58921   9.146   8.600  11.089  0.3963  0.2743  0.3703
  447MOL0     N58922   9.405   9.259  10.590  0.4202  0.2140  0.5383
  447MOL0     N58923   9.319   9.264  10.494 -0.0844  0.3977 -0.3903
  447MOL0     C58924   8.199   8.469  10.382  0.5580  0.9321  0.0447
  447MOL0     C58925   8.073   8.422  10.424 -0.8737  0.0703  0.4699
  447MOL0     C58926   7.685   8.409  10.665  0.4448  1.8874  0.2577
  447MOL0     C58927   7.674   8.281  10.720 -0.3553  0.2504  0.6771
  447MOL0     C58928   7.547   8.226  10.756 -0.4711 -0.0556 -0.0627
  447MOL0     C58929   7.432   8.302  10.740 -0.0708 -0.1802 -0.2405
  447MOL0     O58930   7.308   8.271  10.782  0.6695 -1.0187 -0.1933
  447MOL0     C58931   7.297   8.156  10.867  0.1683 -0.0583  0.5614
  447MOL0     C58932   7.148   8.134  10.919 -0.2743  0.4625 -0.6205
  447MOL0     C58933   7.109   8.224  11.039  0.4203  0.3734  0.2639
  447MOL0     C58934   6.953   8.230  11.019 -0.5616 -0.5468 -0.4871
  447MOL0     C58935   6.908   8.122  11.114  0.0900 -0.4470  1.0792
  447MOL0     C58936   6.856   8.044  11.181  0.4355  0.1272  0.0111
  447MOL0     C58937   7.444   8.429  10.673 -0.6857 -0.6597  0.0122
  447MOL0     C58938   7.565   8.476  10.641 -0.4450 -0.3318 -0.0048
  447MOL0     H58939   8.108   8.511  10.752  1.3293  1.1393  0.2804
  447MOL0     H58940   8.312   8.597  10.677  3.2685  0.4717 -2.9460
  447MOL0     H58941   8.539   8.593  10.574 -1.2800 -0.3408  1.4378
  447MOL0     H58942   8.455   8.735  10.532 -2.0706 -1.9238  1.4896
  447MOL0     H58943   8.582   8.769  10.340  0.1522 -0.6926 -2.3098
  447MOL0     H58944   8.632   8.603  10.321  2.9111  0.1926 -0.9089
  447MOL0     H58945   8.770   8.613  10.525 -1.7898 -1.1448 -0.0723
  447MOL0     H58946   8.729   8.785  10.547 -2.4542 -0.7505  0.2430
  447MOL0     H58947   8.946   8.686  10.429  0.0891  0.2164  2.0764
  447MOL0     H58948   8.841   8.688  10.286 -1.0662 -0.5411  1.5269
  447MOL0     H58949   8.834   8.947  10.319  0.7591  0.2970 -1.5598
  447MOL0     H58950   8.994   8.867  10.286 -1.3596  0.3994 -1.1586
  447MOL0     H58951   9.041   8.899  10.531  1.1309  2.1968  0.6803
  447MOL0     H58952   8.874   8.946  10.562 -0.1434  1.0973  0.4137
  447MOL0     H58953   8.911   9.158  10.426  0.2531 -0.3520 -1.4945
  447MOL0     H58954   8.990   9.160  10.571  2.0008  0.5961 -0.1566
  447MOL0     H58955   9.123   9.174  10.324  0.1664  0.7029 -0.1333
  447MOL0     H58956   9.161   9.006  10.367 -0.8655 -1.2289  1.7784
  447MOL0     H58957   9.245   8.982  10.635  2.1195  0.4128  1.7729
  447MOL0     H58958   9.402   9.155  10.867 -1.8332 -3.1424  0.3347
  447MOL0     H58959   9.548   9.113  10.774  0.3413 -0.3706 -1.1750
  447MOL0     H58960   9.483   8.890  10.721 -3.0177 -1.1052 -0.0921
  447MOL0     H58961   9.320   8.916  10.801 -0.0274 -2.9372  3.3000
  447MOL0     H58962   9.590   8.883  10.923 -0.2545 -0.4662 -0.5930
  447MOL0     H58963   9.448   8.956  11.013  0.5990 -0.3727  0.5893
  447MOL0     H58964   9.522   8.704  11.034 -0.0624 -0.9520 -0.6260
  447MOL0     H58965   9.461   8.700  10.860 -1.2382 -2.5658  1.0383
  447MOL0     H58966   9.436   8.478  10.950 -0.7064 -3.0167 -1.2110
  447MOL0     H58967   9.315   8.270  10.995 -0.8206  0.1362  1.6833
  447MOL0     H58968   8.882   8.189  11.439  3.1876 -1.3555  1.6878
  447MOL0     H58969   8.739   8.011  11.516 -0.2594 -3.1665  0.7052
  447MOL0     H58970   8.483   7.753  11.365 -0.4191  2.1800 -0.3189
  447MOL0     H58971   8.541   7.887  11.488 -0.6847 -0.4516  1.6937
  447MOL0     H58972   8.637   7.687  11.608 -0.2581 -1.8365  0.0865
  447MOL0     H58973   8.541   7.592  11.498  1.4455  0.0732 -1.6229
  447MOL0     H58974   8.340   7.741  11.593 -0.7384 -0.3428  0.4977
  447MOL0     H58975   8.445   7.827  11.683 -2.4225 -0.2456 -0.0166
  447MOL0     H58976   8.399   7.536  11.710  0.4719  0.0054 -0.3112
  447MOL0     H58977   8.513   7.612  11.814 -1.2928 -1.6037  1.4582
  447MOL0     H58978   8.219   7.635  11.797  0.4154 -1.4817 -0.3776
  447MOL0     H58979   8.309   7.743  11.909  3.0649 -1.7010  2.2554
  447MOL0     H58980   8.397   7.582  12.044  1.2089  3.2088 -2.6863
  447MOL0     H58981   8.361   7.448  11.939  1.8174  0.8169  0.0650
  447MOL0     H58982   8.160   7.601  12.115  1.4607 -0.0713  2.0021
  447MOL0     H58983   8.100   7.481  11.999  0.0090 -3.9521  2.4321
  447MOL0     H58984   8.307   7.433  12.204  0.5719  0.0025 -0.0246
  447MOL0     H58985   8.211   7.312  12.101 -0.8538  0.7311  0.0512
  447MOL0     H58986   8.811   7.790  11.149 -1.7463  0.2875  1.2181
  447MOL0     H58987   8.943   7.977  11.069 -1.3673  3.2865 -0.7543
  447MOL0     H58988   8.979   8.467  11.167  0.6232 -0.6719  1.0067
  447MOL0     H58989   9.094   8.695  11.094 -1.2212  0.0620 -5.4154
  447MOL0     H58990   8.231   8.435  10.283 -0.5492 -4.2175  1.1417
  447MOL0     H58991   8.012   8.367  10.354 -0.5147  2.1988 -1.6510
  447MOL0     H58992   7.771   8.239  10.745 -0.4550 -0.0302  0.6055
  447MOL0     H58993   7.551   8.126  10.798 -1.0391  0.2042  0.6232
  447MOL0     H58994   7.359   8.153  10.957  3.5042 -3.2297 -1.5205
  447MOL0     H58995   7.328   8.066  10.812 -3.2977 -1.7453  1.0779
  447MOL0     H58996   7.081   8.135  10.833 -2.6323 -1.0319  1.0665
  447MOL0     H58997   7.149   8.029  10.949 -2.6524  0.0694 -1.7068
  447MOL0     H58998   7.150   8.323  11.020  0.0486  0.2002 -1.5507
  447MOL0     H58999   7.134   8.191  11.141 -2.0432  2.3870  1.6494
  447MOL0     H59000   6.926   8.333  11.046  0.7003 -0.3941  0.2952
  447MOL0     H59001   6.914   8.213  10.918  2.1930  0.5384 -1.8451
  447MOL0     H59002   6.809   7.986  11.257  0.7583 -0.5451 -0.2953
  447MOL0     H59003   7.349   8.480  10.657 -2.3089 -3.4941 -0.0518
  447MOL0     H59004   7.567   8.568  10.582 -0.6594  0.1949  0.7989
  448MOL0     O59005   6.230   9.119   2.063  0.0171 -0.4914 -0.3778
  448MOL0     C59006   6.271   9.131   2.176  0.1917  0.2596  1.4765
  448MOL0     O59007   6.301   9.027   2.259 -0.2903  0.1253 -0.6208
  448MOL0     C59008   6.257   8.896   2.237 -0.2687 -0.7023  0.8595
  448MOL0     C59009   6.136   8.868   2.188 -0.4483 -0.7654  0.4287
  448MOL0     C59010   6.104   8.732   2.164  0.5072 -0.0143  0.8411
  448MOL0     C59011   6.198   8.625   2.185  0.0628 -0.0178 -0.9656
  448MOL0     O59012   6.192   8.492   2.148 -1.0387  0.0210 -0.2151
  448MOL0     C59013   6.092   8.446   2.061  0.2444  0.2204 -0.2823
  448MOL0     C59014   6.092   8.295   2.050  0.3681 -0.1093 -0.3798
  448MOL0     C59015   6.222   8.221   2.025 -0.1391 -0.3178 -0.0254
  448MOL0     C59016   6.206   8.069   1.986 -0.6738 -0.1433 -0.1997
  448MOL0     C59017   6.346   7.991   1.990  0.4939 -0.1613 -0.0435
  448MOL0     C59018   6.315   7.838   1.956 -0.0444 -0.4319 -0.7788
  448MOL0     C59019   6.307   7.799   1.812  0.7443  0.6267 -0.2839
  448MOL0     C59020   6.406   7.689   1.769  0.1232 -0.4957  0.5637
  448MOL0     N59021   6.544   7.724   1.773  0.2246  0.4772  0.0596
  448MOL0     C59022   6.625   7.720   1.884 -0.3022 -0.6031 -0.4178
  448MOL0     C59023   6.753   7.754   1.856 -0.1367  0.2557 -0.3906
  448MOL0     C59024   6.859   7.762   1.956 -0.0731  0.3507  0.3175
  448MOL0     C59025   6.964   7.870   1.927 -0.5409 -0.2100  0.1564
  448MOL0     C59026   6.901   8.007   1.912 -0.5746 -0.1953 -0.6612
  448MOL0     C59027   7.002   8.122   1.918 -0.0781  0.6423 -0.0722
  448MOL0     O59028   7.108   8.100   1.830 -0.1455  0.5031  0.1472
  448MOL0     C59029   7.214   8.182   1.852 -0.7504  0.5954  0.0834
  448MOL0     C59030   7.222   8.295   1.938  0.1070 -0.1968 -0.6161
  448MOL0     C59031   7.333   8.373   1.928 -0.3196  0.4079 -0.0606
  448MOL0     C59032   7.435   8.351   1.845 -0.1531  0.7141  0.4136
  448MOL0     C59033   7.543   8.453   1.833  0.5795  0.3976 -0.3183
  448MOL0     O59034   7.554   8.535   1.943 -0.2944  0.0837 -0.3100
  448MOL0     C59035   7.634   8.648   1.940  0.1397 -0.0835  0.2926
  448MOL0     C59036   7.692   8.687   2.059 -0.3526  0.1358  0.5382
  448MOL0     C59037   7.788   8.786   2.056 -0.3806  0.6936 -0.1234
  448MOL0     C59038   7.821   8.852   1.948  0.2775 -0.7154  1.0133
  448MOL0     O59039   7.898   8.952   1.970 -0.0030 -1.1403  0.0547
  448MOL0     C59040   7.857   9.089   1.928  0.6975  0.4913  0.2683
  448MOL0     C59041   7.987   9.180   1.949 -0.0914  0.2843 -0.0692
  448MOL0     C59042   7.999   9.298   1.848 -0.9798  0.1987 -0.9211
  448MOL0     C59043   8.068   9.409   1.920  0.1739  0.4112  0.4270
  448MOL0     C59044   8.225   9.394   1.922  0.1161  0.1288 -0.4099
  448MOL0     C59045   8.294   9.363   1.796 -0.7273  0.5112  0.5085
  448MOL0     C59046   8.252   9.439   1.661 -0.1389 -0.6304  0.1533
  448MOL0     C59047   8.298   9.587   1.659  0.9667 -0.5747 -0.7720
  448MOL0    Cl59048   8.483   9.598   1.662  0.4516  0.4050  0.0373
  448MOL0     C59049   7.753   8.825   1.825 -0.1782  0.4444 -0.5682
  448MOL0     C59050   7.654   8.725   1.827 -0.7731  0.6977 -1.2191
  448MOL0     O59051   7.618   8.441   1.737  0.6458  0.2690  0.4455
  448MOL0     C59052   7.435   8.241   1.764  0.1620  0.4241 -0.3315
  448MOL0     C59053   7.325   8.157   1.772 -0.2615 -1.3657 -0.1002
  448MOL0     N59054   6.753   7.773   1.719 -0.6387  0.2268  0.6504
  448MOL0     N59055   6.626   7.765   1.680 -1.3868  0.3326 -0.2230
  448MOL0     C59056   6.319   8.666   2.234  1.0765  0.1727 -0.0120
  448MOL0     C59057   6.352   8.798   2.260 -0.4250 -0.3118  0.6875
  448MOL0     C59058   6.291   9.272   2.205 -0.9592  0.0623 -0.2245
  448MOL0     C59059   6.337   9.318   2.330 -0.4620  0.4978  0.7237
  448MOL0     C59060   6.369   9.453   2.357  0.5354 -0.0367 -0.6345
  448MOL0     C59061   6.355   9.551   2.263  0.1324 -0.3755 -0.6728
  448MOL0     O59062   6.410   9.676   2.292 -0.1580  0.7683  0.5909
  448MOL0     C59063   6.373   9.794   2.222  0.6747  0.3791 -0.2108
  448MOL0     C59064   6.438   9.919   2.284 -0.0270 -0.3959 -0.4698
  448MOL0     C59065   6.422  10.041   2.206 -0.0360  0.0436 -0.3223
  448MOL0     C59066   6.449  10.165   2.294 -0.8532 -0.6813  0.0434
  448MOL0     C59067   6.478  10.270   2.200 -0.7574 -0.8581 -0.5762
  448MOL0     C59068   6.504  10.380   2.146  0.0710  0.8884 -1.0487
  448MOL0     C59069   6.304   9.511   2.138  0.0709  0.7393 -0.6735
  448MOL0     C59070   6.266   9.377   2.105 -0.1601  0.1597  0.8550
  448MOL0     H59071   6.054   8.935   2.167 -0.4748 -0.0626  2.5376
  448MOL0     H59072   5.999   8.723   2.139  0.8863  2.0546 -2.0843
  448MOL0     H59073   6.100   8.486   1.959 -2.1987 -1.3410 -1.1978
  448MOL0     H59074   5.997   8.489   2.095 -0.0707  1.1138 -2.1615
  448MOL0     H59075   6.024   8.273   1.967 -1.8467 -0.8002  1.5037
  448MOL0     H59076   6.039   8.255   2.137 -0.0474 -0.9262 -0.9964
  448MOL0     H59077   6.294   8.217   2.108  2.4101 -3.0863 -2.1622
  448MOL0     H59078   6.275   8.279   1.949 -2.6964  2.1772 -0.0443
  448MOL0     H59079   6.131   8.009   2.039  0.5727 -2.6136 -1.1010
  448MOL0     H59080   6.160   8.065   1.887 -1.5222  2.1803  0.0490
  448MOL0     H59081   6.382   7.995   2.093  2.7168 -2.9971 -0.5938
  448MOL0     H59082   6.426   8.034   1.930  1.1176 -2.6625 -1.1406
  448MOL0     H59083   6.215   7.819   1.998 -0.6220  1.2378 -1.3258
  448MOL0     H59084   6.390   7.777   2.007 -0.7207 -0.1180  0.6557
  448MOL0     H59085   6.207   7.759   1.789  2.2756 -3.1131 -1.1430
  448MOL0     H59086   6.320   7.891   1.756 -2.1124  0.8143 -0.8189
  448MOL0     H59087   6.371   7.641   1.677  0.2722 -2.4852  1.5049
  448MOL0     H59088   6.397   7.608   1.842  2.1056 -2.2789 -1.0416
  448MOL0     H59089   6.591   7.696   1.984  3.1189 -2.8451  0.3821
  448MOL0     H59090   6.905   7.663   1.952 -2.0661 -0.6229 -2.7304
  448MOL0     H59091   6.836   7.769   2.063  5.2784 -1.5089  1.9124
  448MOL0     H59092   7.028   7.840   1.843  0.3124  2.7085 -0.3428
  448MOL0     H59093   7.025   7.881   2.017 -1.9351 -0.1894  1.1307
  448MOL0     H59094   6.852   8.017   1.814  1.8793 -0.5915 -2.0113
  448MOL0     H59095   6.817   8.010   1.982 -0.6232 -0.6745 -0.6937
  448MOL0     H59096   7.031   8.134   2.022 -0.6297 -1.0615  0.3092
  448MOL0     H59097   6.951   8.215   1.890  0.9263  1.8332  1.9135
  448MOL0     H59098   7.145   8.335   2.004  0.3571 -3.0019  1.5442
  448MOL0     H59099   7.333   8.467   1.983 -1.1812  0.2827  0.1627
  448MOL0     H59100   7.673   8.626   2.147 -0.5076  0.7914  0.9610
  448MOL0     H59101   7.838   8.822   2.145 -1.9704  1.5718  0.4577
  448MOL0     H59102   7.764   9.112   1.981 -0.4309  1.3001 -1.9298
  448MOL0     H59103   7.827   9.092   1.823 -3.6293 -2.9192  1.1034
  448MOL0     H59104   8.075   9.117   1.928 -2.0905 -2.5748 -0.5191
  448MOL0     H59105   7.988   9.204   2.056  0.0422 -5.1820  1.4514
  448MOL0     H59106   7.902   9.337   1.818 -0.8492  0.1032 -1.4809
  448MOL0     H59107   8.051   9.265   1.758 -0.9918 -1.8015 -0.2498
  448MOL0     H59108   8.029   9.495   1.865 -0.5321 -0.7058 -0.8810
  448MOL0     H59109   8.040   9.404   2.025  0.2340 -1.9679  0.3815
  448MOL0     H59110   8.247   9.308   1.986  1.3904 -2.8820 -4.4463
  448MOL0     H59111   8.271   9.479   1.972 -0.8350  0.9538 -0.8989
  448MOL0     H59112   8.271   9.256   1.790 -1.4197  0.6916 -0.1414
  448MOL0     H59113   8.403   9.367   1.809 -0.9781  0.3910  3.3856
  448MOL0     H59114   8.294   9.388   1.573 -1.1231 -1.5629  0.2128
  448MOL0     H59115   8.145   9.441   1.641 -0.0839 -1.0421 -0.2171
  448MOL0     H59116   8.260   9.648   1.741 -0.5450  0.3663 -2.1333
  448MOL0     H59117   8.259   9.637   1.570 -2.7554  0.5227  1.2490
  448MOL0     H59118   7.760   8.884   1.734 -1.4047 -0.2564 -1.1443
  448MOL0     H59119   7.591   8.712   1.740 -1.5824 -2.0493 -0.3132
  448MOL0     H59120   7.527   8.224   1.709  1.5560  1.0169  1.6955
  448MOL0     H59121   7.336   8.066   1.713  1.2143 -0.6744 -0.9692
  448MOL0     H59122   6.391   8.588   2.257 -0.4248 -1.6923 -1.2863
  448MOL0     H59123   6.454   8.824   2.287 -0.8878  3.0590 -0.4020
  448MOL0     H59124   6.349   9.245   2.409 -0.9026  1.2406  1.4961
  448MOL0     H59125   6.433   9.482   2.439  1.9714  2.0868 -2.3764
  448MOL0     H59126   6.265   9.807   2.227  0.6007  3.6402 -4.4937
  448MOL0     H59127   6.403   9.787   2.116  1.3595  3.1495 -0.2810
  448MOL0     H59128   6.398   9.931   2.385  1.2451 -4.7232  0.7745
  448MOL0     H59129   6.544   9.893   2.295  0.7286  1.2748 -2.8922
  448MOL0     H59130   6.319  10.052   2.171 -1.0010 -0.7897  2.0401
  448MOL0     H59131   6.499  10.045   2.129  0.6366 -2.9820  0.0535
  448MOL0     H59132   6.356  10.186   2.347 -2.4855 -2.6320 -1.9088
  448MOL0     H59133   6.538  10.175   2.358 -2.6421  2.4360  2.2869
  448MOL0     H59134   6.535  10.474   2.106  3.5192  1.9015  3.1257
  448MOL0     H59135   6.305   9.579   2.054  2.3874  0.6982 -0.7446
  448MOL0     H59136   6.227   9.363   2.004 -1.4818  2.2582  1.0174
  449MOL0     O59137   1.860   5.452   1.309 -0.2054  0.5228 -0.1826
  449MOL0     C59138   1.867   5.343   1.263  1.1580  0.5268  1.1969
  449MOL0     O59139   1.802   5.300   1.152  0.5720  0.2364 -0.6699
  449MOL0     C59140   1.730   5.371   1.063 -0.3247 -1.0341  1.7155
  449MOL0     C59141   1.700   5.306   0.939 -0.2209  0.1279  0.0281
  449MOL0     C59142   1.638   5.379   0.834  0.2819  0.3461  0.3425
  449MOL0     C59143   1.613   5.514   0.836 -0.2793 -0.6953 -1.1552
  449MOL0     O59144   1.563   5.585   0.731 -0.5993  0.0308  0.7402
  449MOL0     C59145   1.645   5.650   0.641  0.0028 -0.8549  0.0363
  449MOL0     C59146   1.560   5.765   0.585  0.3893 -0.3805 -0.4127
  449MOL0     C59147   1.625   5.894   0.532 -0.2851 -0.1176 -0.2742
  449MOL0     C59148   1.754   5.865   0.443  0.0135 -0.1004 -0.9427
  449MOL0     C59149   1.810   6.007   0.397  0.6295 -1.4728  0.2545
  449MOL0     C59150   1.717   6.069   0.295 -1.4858  0.2153 -0.7880
  449MOL0     C59151   1.780   6.175   0.211 -0.3538  0.0687 -1.2229
  449MOL0     C59152   1.687   6.250   0.117 -0.0033  0.9954  0.1243
  449MOL0     N59153   1.637   6.146   0.016 -0.8251 -0.0261 -1.0458
  449MOL0     C59154   1.710   6.082  -0.077  0.0918 -0.4346 -0.0017
  449MOL0     C59155   1.638   5.992  -0.136  0.1198  0.2678 -0.2944
  449MOL0     C59156   1.686   5.898  -0.239  0.1536  0.0452 -0.0837
  449MOL0     C59157   1.577   5.853  -0.328  0.7407  0.3715 -1.2551
  449MOL0     C59158   1.623   5.783  -0.451 -0.4052 -0.0358 -0.5270
  449MOL0     C59159   1.524   5.665  -0.481  0.3206 -0.2657  0.0632
  449MOL0     O59160   1.545   5.611  -0.602 -0.7753  0.5437  0.8470
  449MOL0     C59161   1.444   5.536  -0.671 -0.3067 -0.3829 -0.3853
  449MOL0     C59162   1.320   5.504  -0.619 -1.4392 -0.4317 -0.1361
  449MOL0     C59163   1.229   5.435  -0.695 -0.0378 -0.7681 -0.6127
  449MOL0     C59164   1.258   5.394  -0.825  0.0443 -0.0852  0.7137
  449MOL0     C59165   1.160   5.313  -0.909 -0.1068 -0.2129  0.3968
  449MOL0     O59166   1.201   5.249  -1.026  0.2284  0.6738  0.0759
  449MOL0     C59167   1.144   5.132  -1.059 -0.0854  1.1046  0.1556
  449MOL0     C59168   1.080   5.042  -0.973  0.5849 -0.8546  0.0435
  449MOL0     C59169   1.016   4.934  -1.020 -0.1261 -0.2600 -0.5780
  449MOL0     C59170   1.033   4.901  -1.153  0.6163  1.2800  0.4621
  449MOL0     O59171   0.950   4.800  -1.204 -0.7348  0.0989 -0.1865
  449MOL0     C59172   0.912   4.689  -1.113  0.6839  1.1092 -0.2747
  449MOL0     C59173   0.829   4.581  -1.195 -0.1433  0.0262 -0.1145
  449MOL0     C59174   0.797   4.453  -1.116  0.6888  0.8999 -0.2158
  449MOL0     C59175   0.705   4.360  -1.205 -0.0673  0.3111 -0.4412
  449MOL0     C59176   0.713   4.212  -1.153  0.8029 -0.1541 -0.3365
  449MOL0     C59177   0.600   4.131  -1.221  0.4117 -1.2946  0.6055
  449MOL0     C59178   0.584   3.991  -1.160  0.3199 -0.0302 -0.4987
  449MOL0     C59179   0.480   3.988  -1.048  1.1854 -0.2012 -0.2736
  449MOL0    Cl59180   0.319   4.034  -1.122  0.2428 -0.4408  0.4089
  449MOL0     C59181   1.117   4.976  -1.243  1.3371  0.2391  0.5519
  449MOL0     C59182   1.175   5.090  -1.185  0.5711 -0.9639 -0.3206
  449MOL0     O59183   1.046   5.300  -0.862 -0.0696 -0.6195 -0.2936
  449MOL0     C59184   1.394   5.410  -0.879  0.2382 -0.0611  0.4701
  449MOL0     C59185   1.484   5.485  -0.799  0.8724  0.3749 -0.4126
  449MOL0     N59186   1.509   6.000  -0.079 -0.7963 -0.4530  1.0540
  449MOL0     N59187   1.515   6.091   0.004 -0.5056 -0.4959 -0.9357
  449MOL0     C59188   1.635   5.579   0.959 -0.1430  0.0593  0.0407
  449MOL0     C59189   1.693   5.507   1.073 -0.3131  0.1985 -1.1533
  449MOL0     C59190   1.929   5.244   1.350 -0.0799 -0.9314  0.5940
  449MOL0     C59191   1.985   5.281   1.476 -0.4315  0.4562  0.2521
  449MOL0     C59192   2.055   5.187   1.554  0.0364 -0.9828 -0.4537
  449MOL0     C59193   2.056   5.052   1.518 -0.0551  1.4897 -0.4195
  449MOL0     O59194   2.094   4.959   1.615  0.3155 -0.8336 -0.6456
  449MOL0     C59195   2.107   4.819   1.575  0.0101  0.4735 -0.0418
  449MOL0     C59196   2.227   4.753   1.652  0.2554  0.5110 -0.4066
  449MOL0     C59197   2.351   4.848   1.665  0.0612 -0.5838  0.3012
  449MOL0     C59198   2.485   4.769   1.706  0.0684  0.8503 -0.4913
  449MOL0     C59199   2.558   4.715   1.591 -0.7221 -0.5253 -0.7733
  449MOL0     C59200   2.596   4.665   1.493 -0.9028 -0.7114  0.7752
  449MOL0     C59201   1.980   5.006   1.408 -0.3403 -0.3619  0.4713
  449MOL0     C59202   1.922   5.108   1.323 -1.1242  0.1776 -0.0404
  449MOL0     H59203   1.726   5.201   0.925  0.8093 -0.1434  3.1724
  449MOL0     H59204   1.617   5.327   0.741  0.1640 -3.7220  2.4239
  449MOL0     H59205   1.696   5.584   0.570 -1.1032 -2.2327  0.4511
  449MOL0     H59206   1.723   5.703   0.697  0.6576  1.2941 -2.7120
  449MOL0     H59207   1.493   5.794   0.667  1.3163  0.9976 -0.1137
  449MOL0     H59208   1.501   5.716   0.508 -2.3320  0.4386  1.0324
  449MOL0     H59209   1.661   5.960   0.610 -0.6273  0.0428 -0.2508
  449MOL0     H59210   1.546   5.950   0.482 -1.7991 -2.8726 -1.1976
  449MOL0     H59211   1.840   5.824   0.496 -1.5205  1.4096  3.1467
  449MOL0     H59212   1.719   5.804   0.360 -2.0266  2.0135 -1.7830
  449MOL0     H59213   1.911   5.999   0.356 -0.3153 -1.5875 -2.2727
  449MOL0     H59214   1.807   6.078   0.479  2.9335 -1.1196  0.0868
  449MOL0     H59215   1.629   6.106   0.350 -1.3107 -1.6119  0.8341
  449MOL0     H59216   1.688   5.990   0.225  3.6156 -0.2323 -2.8490
  449MOL0     H59217   1.828   6.251   0.273 -2.7692  2.9430 -2.6397
  449MOL0     H59218   1.857   6.127   0.150  0.1978 -0.2688 -0.2816
  449MOL0     H59219   1.737   6.340   0.081 -1.2902  2.7150  2.3678
  449MOL0     H59220   1.600   6.277   0.177  1.3157  0.9891  2.1418
  449MOL0     H59221   1.814   6.099  -0.105 -0.0395  1.0297  0.3631
  449MOL0     H59222   1.730   5.810  -0.191 -0.4871 -0.3816 -0.2619
  449MOL0     H59223   1.767   5.951  -0.289  0.2420 -0.6836 -0.7364
  449MOL0     H59224   1.511   5.935  -0.358  0.5801  1.3490  1.5014
  449MOL0     H59225   1.515   5.783  -0.272 -1.5581  0.3031 -3.7312
  449MOL0     H59226   1.626   5.856  -0.531  0.2848  3.0055  2.0796
  449MOL0     H59227   1.724   5.744  -0.439 -0.5911 -1.2097 -2.4149
  449MOL0     H59228   1.423   5.704  -0.471  0.5384 -0.0060  1.5379
  449MOL0     H59229   1.534   5.600  -0.393  1.1119  2.3944  2.0735
  449MOL0     H59230   1.304   5.521  -0.513  1.3787 -3.0284  0.8854
  449MOL0     H59231   1.132   5.421  -0.648  1.5985 -1.5054  2.8950
  449MOL0     H59232   1.081   5.071  -0.868  0.1302  1.8742 -0.6270
  449MOL0     H59233   0.954   4.868  -0.959 -2.1009  1.1671 -0.9639
  449MOL0     H59234   0.837   4.715  -1.037  1.7268 -2.0364  2.0560
  449MOL0     H59235   1.004   4.639  -1.080 -0.6835 -0.3462  1.6127
  449MOL0     H59236   0.888   4.554  -1.283 -0.8133 -2.2800  0.0896
  449MOL0     H59237   0.739   4.627  -1.236 -1.0592 -0.3444  1.4233
  449MOL0     H59238   0.751   4.470  -1.018  0.0457  0.4476 -0.4289
  449MOL0     H59239   0.894   4.411  -1.086  0.4547  1.9293  2.1464
  449MOL0     H59240   0.602   4.396  -1.207  0.5793  2.4638  1.6055
  449MOL0     H59241   0.739   4.359  -1.309  2.3631  0.4276  0.2974
  449MOL0     H59242   0.681   4.194  -1.050 -0.5851  1.0191 -0.5338
  449MOL0     H59243   0.816   4.176  -1.165  1.7843  2.6717 -1.2876
  449MOL0     H59244   0.632   4.117  -1.324 -2.0613  1.7583 -0.7510
  449MOL0     H59245   0.506   4.182  -1.245 -0.7103 -2.6202  1.9322
  449MOL0     H59246   0.538   3.935  -1.242  0.9900  1.8802 -2.2651
  449MOL0     H59247   0.679   3.948  -1.126  1.6631  3.2263  0.2508
  449MOL0     H59248   0.501   4.070  -0.980  0.0946 -0.8359  0.8715
  449MOL0     H59249   0.453   3.890  -1.006 -0.7749  0.5813  0.4093
  449MOL0     H59250   1.129   4.949  -1.347  0.3089  1.9007 -0.0343
  449MOL0     H59251   1.235   5.156  -1.247  1.3826 -2.4623 -1.1900
  449MOL0     H59252   1.419   5.368  -0.976  0.0149 -2.4094  1.3662
  449MOL0     H59253   1.591   5.494  -0.812  1.4826 -2.4456  1.8746
  449MOL0     H59254   1.635   5.687   0.955  0.4396  0.2431  2.8699
  449MOL0     H59255   1.721   5.561   1.163 -0.4114 -0.3897 -0.7654
  449MOL0     H59256   1.977   5.383   1.512 -2.3912  0.9282 -1.3128
  449MOL0     H59257   2.102   5.217   1.647  0.3888  2.6821 -1.6653
  449MOL0     H59258   2.118   4.800   1.468 -1.5237 -2.0633  0.1994
  449MOL0     H59259   2.015   4.763   1.593  1.6531 -1.5810  2.7424
  449MOL0     H59260   2.196   4.709   1.747  0.2645 -0.9262 -1.0462
  449MOL0     H59261   2.253   4.654   1.615 -1.8416 -0.7961  1.3713
  449MOL0     H59262   2.325   4.929   1.734  0.9443  0.9823 -1.1013
  449MOL0     H59263   2.376   4.893   1.568 -2.9468 -0.6306 -0.5986
  449MOL0     H59264   2.564   4.822   1.759  1.0768 -0.0113 -1.1040
  449MOL0     H59265   2.456   4.695   1.781 -1.9767  0.2288 -1.7956
  449MOL0     H59266   2.648   4.629   1.406  4.4936  2.3576  2.2623
  449MOL0     H59267   1.960   4.904   1.378  1.5120 -0.8492  0.7112
  449MOL0     H59268   1.887   5.071   1.227  1.6745 -2.7742 -0.0905
  450MOL0     O59269   3.516   8.017   2.832  0.7767  0.0216  0.3508
  450MOL0     C59270   3.457   8.112   2.775  0.4537  0.9109  0.0510
  450MOL0     O59271   3.517   8.211   2.701  0.1265 -0.4354 -0.3277
  450MOL0     C59272   3.640   8.185   2.647  1.0394 -0.3017 -0.5488
  450MOL0     C59273   3.704   8.303   2.629  0.3183  0.3988  0.8156
  450MOL0     C59274   3.808   8.304   2.540  0.0714 -0.6303 -0.3185
  450MOL0     C59275   3.844   8.193   2.470 -0.4311  1.0383  0.0847
  450MOL0     O59276   3.964   8.193   2.393 -0.5683 -0.1943 -0.2688
  450MOL0     C59277   3.972   8.117   2.266  0.3349 -0.7971 -0.7516
  450MOL0     C59278   4.112   8.115   2.201 -0.3045 -0.3938  0.4262
  450MOL0     C59279   4.109   8.041   2.068 -0.0874  0.3219  1.2919
  450MOL0     C59280   4.014   8.102   1.966 -0.9580  0.7815  0.4346
  450MOL0     C59281   4.037   8.040   1.836 -0.0875 -0.4402  0.3279
  450MOL0     C59282   4.166   8.088   1.773 -0.2895  0.4596  0.3043
  450MOL0     C59283   4.173   8.038   1.635  0.6611 -0.0784 -0.3078
  450MOL0     C59284   4.152   7.879   1.620  0.7010 -0.4163  0.1168
  450MOL0     N59285   4.230   7.833   1.511 -0.1358  0.4445  0.6393
  450MOL0     C59286   4.186   7.827   1.381 -0.2921 -0.3729 -0.7808
  450MOL0     C59287   4.302   7.814   1.312  0.0254 -0.4740  0.1127
  450MOL0     C59288   4.322   7.817   1.163  0.3394 -0.3351 -0.2117
  450MOL0     C59289   4.376   7.955   1.119 -0.5371 -1.2976 -0.0265
  450MOL0     C59290   4.395   7.963   0.972  0.5833 -0.7154  0.4960
  450MOL0     C59291   4.486   8.081   0.931 -0.7550  0.3483 -1.0937
  450MOL0     O59292   4.512   8.090   0.794 -0.5982  0.0991  0.0637
  450MOL0     C59293   4.574   8.202   0.743  0.0803 -0.5829  0.3814
  450MOL0     C59294   4.590   8.229   0.607  0.5052  0.7445  0.5618
  450MOL0     C59295   4.656   8.336   0.552 -0.1756 -0.8102 -0.3104
  450MOL0     C59296   4.713   8.432   0.636  0.1520 -0.3197 -0.4491
  450MOL0     C59297   4.760   8.557   0.578  0.2035  0.5807 -0.2765
  450MOL0     O59298   4.777   8.661   0.665  0.9400 -0.5644 -0.1696
  450MOL0     C59299   4.828   8.780   0.610 -0.1051  0.0280  0.2988
  450MOL0     C59300   4.758   8.884   0.557 -1.8705  0.8203 -0.2146
  450MOL0     C59301   4.826   9.003   0.528  0.3857  0.3905 -1.1060
  450MOL0     C59302   4.961   9.016   0.540  0.4163 -0.4087 -0.9898
  450MOL0     O59303   5.013   9.139   0.545  0.1030 -0.2467  0.3990
  450MOL0     C59304   5.125   9.179   0.470 -0.2496  0.6244  0.5222
  450MOL0     C59305   5.085   9.258   0.344  0.5598 -0.1317 -0.1224
  450MOL0     C59306   5.042   9.168   0.231 -0.2516  0.3160  1.0494
  450MOL0     C59307   4.967   9.239   0.119  0.1617 -0.6971  0.6579
  450MOL0     C59308   4.904   9.140   0.017 -1.1634 -0.7228 -0.4766
  450MOL0     C59309   4.852   9.238  -0.110 -0.1755  0.0766 -0.5655
  450MOL0     C59310   4.743   9.164  -0.194 -0.5184 -0.4277  0.8526
  450MOL0     C59311   4.691   9.253  -0.315 -0.3507  0.5359 -0.6778
  450MOL0    Cl59312   4.817   9.319  -0.425  0.3708 -0.8704 -0.1959
  450MOL0     C59313   5.034   8.906   0.591 -0.4207 -0.6968  0.3740
  450MOL0     C59314   4.968   8.791   0.621 -0.1648 -0.4290  0.0598
  450MOL0     O59315   4.788   8.558   0.461 -0.0572  0.2097  0.1256
  450MOL0     C59316   4.705   8.412   0.773 -0.5772  0.5418  0.5299
  450MOL0     C59317   4.639   8.293   0.827 -0.0111 -0.2377 -0.4919
  450MOL0     N59318   4.399   7.798   1.407  0.2518  0.0250 -0.6206
  450MOL0     N59319   4.363   7.814   1.528 -0.1561  0.2975  0.8358
  450MOL0     C59320   3.777   8.074   2.486  1.8181 -0.6789 -0.6540
  450MOL0     C59321   3.670   8.075   2.580 -0.5950 -0.4093 -0.2986
  450MOL0     C59322   3.307   8.118   2.757 -0.0459  0.3786 -0.7229
  450MOL0     C59323   3.247   8.183   2.650  0.7545 -0.4032 -0.0817
  450MOL0     C59324   3.108   8.192   2.642  0.9821 -0.5161  0.1517
  450MOL0     C59325   3.028   8.111   2.725 -0.1193  0.2485 -0.1770
  450MOL0     O59326   2.893   8.096   2.719  0.3734  0.3356  0.0443
  450MOL0     C59327   2.808   8.206   2.681  0.6379  0.1479  0.0474
  450MOL0     C59328   2.797   8.296   2.810  0.1767 -0.0965  0.5403
  450MOL0     C59329   2.853   8.434   2.789 -0.7035 -0.3279  0.9238
  450MOL0     C59330   2.776   8.550   2.860 -0.3409  0.3293  0.8028
  450MOL0     C59331   2.644   8.568   2.806 -0.0468 -0.4566 -0.5515
  450MOL0     C59332   2.535   8.591   2.770  0.0785  0.4516  0.1371
  450MOL0     C59333   3.087   8.053   2.837 -0.9058  0.4494 -0.7791
  450MOL0     C59334   3.224   8.045   2.848  0.1989 -0.4033 -0.6793
  450MOL0     H59335   3.670   8.389   2.686 -0.6140  0.6010 -0.0321
  450MOL0     H59336   3.867   8.393   2.518 -0.1618  0.1450  1.9491
  450MOL0     H59337   3.902   8.170   2.201  3.3609  1.6967 -2.2255
  450MOL0     H59338   3.947   8.013   2.289  1.3675 -1.0957 -0.9244
  450MOL0     H59339   4.180   8.061   2.268 -0.9905 -1.9164 -0.0454
  450MOL0     H59340   4.150   8.217   2.192 -1.5973  0.1182  0.5156
  450MOL0     H59341   4.100   7.933   2.082  0.1260 -0.0339 -0.9195
  450MOL0     H59342   4.213   8.058   2.038 -0.4844 -1.6983 -1.7734
  450MOL0     H59343   3.912   8.084   2.001 -1.0876  0.3708 -0.1478
  450MOL0     H59344   4.030   8.210   1.959  4.7575  0.2200  0.7238
  450MOL0     H59345   3.960   8.089   1.777  0.2450  1.2077  1.1908
  450MOL0     H59346   4.021   7.933   1.827 -0.2094 -0.4921  1.1243
  450MOL0     H59347   4.256   8.055   1.824 -0.2898  0.7148  0.4680
  450MOL0     H59348   4.165   8.197   1.765  0.5131  0.3594 -2.7226
  450MOL0     H59349   4.092   8.089   1.581 -3.1780 -4.1488  1.0459
  450MOL0     H59350   4.267   8.074   1.592 -0.8300  3.2749 -1.1004
  450MOL0     H59351   4.049   7.855   1.592  1.0154 -3.0433  1.0365
  450MOL0     H59352   4.184   7.835   1.715  3.2744  2.4710  0.7543
  450MOL0     H59353   4.089   7.831   1.334 -0.6474 -0.5842 -0.0672
  450MOL0     H59354   4.230   7.788   1.110  2.3522 -1.9008 -3.1373
  450MOL0     H59355   4.393   7.736   1.143  1.5370  1.0599 -1.8120
  450MOL0     H59356   4.471   7.968   1.171  1.5062 -2.2509 -3.2706
  450MOL0     H59357   4.308   8.035   1.153  0.5701  0.5681 -1.9513
  450MOL0     H59358   4.439   7.867   0.946 -0.0659 -0.3823 -2.2254
  450MOL0     H59359   4.307   7.964   0.907  1.6493 -1.7973 -1.0358
  450MOL0     H59360   4.574   8.074   0.995 -3.0581 -0.2459  2.2546
  450MOL0     H59361   4.429   8.170   0.962 -0.8062 -0.6407  2.0258
  450MOL0     H59362   4.541   8.162   0.537  0.1598  1.4605  0.1096
  450MOL0     H59363   4.660   8.351   0.444  1.8579 -0.6758 -0.2598
  450MOL0     H59364   4.650   8.871   0.563 -1.7562  0.0845  0.3150
  450MOL0     H59365   4.757   9.087   0.521 -1.3574 -1.0219 -1.6168
  450MOL0     H59366   5.194   9.095   0.456  1.0338  0.4907  5.5813
  450MOL0     H59367   5.187   9.238   0.539 -0.1648  0.1742  0.8383
  450MOL0     H59368   5.157   9.330   0.304 -0.3229 -0.6760 -2.9107
  450MOL0     H59369   5.007   9.321   0.388  0.4629  0.6372 -1.3781
  450MOL0     H59370   4.982   9.089   0.277 -1.3375  0.6031  0.1671
  450MOL0     H59371   5.131   9.114   0.198  0.8195  0.9472  2.7961
  450MOL0     H59372   4.881   9.296   0.155 -2.9690 -4.2484 -0.5226
  450MOL0     H59373   5.018   9.316   0.060  1.1333 -1.1534  0.8927
  450MOL0     H59374   4.819   9.089   0.063 -2.8563 -1.3506 -3.9778
  450MOL0     H59375   4.979   9.064  -0.010 -0.8288 -0.0163 -1.5807
  450MOL0     H59376   4.933   9.271  -0.176 -0.4294  0.7804 -0.5274
  450MOL0     H59377   4.805   9.328  -0.072  1.9748 -0.2659  3.4048
  450MOL0     H59378   4.800   9.079  -0.233 -0.0528  0.2529  0.0175
  450MOL0     H59379   4.668   9.130  -0.122  0.4445  1.2241  2.7197
  450MOL0     H59380   4.644   9.336  -0.261  3.0437  1.3342  1.3262
  450MOL0     H59381   4.611   9.199  -0.368 -1.5599 -0.5887  2.0891
  450MOL0     H59382   5.141   8.913   0.605 -0.1762  0.5672 -1.6501
  450MOL0     H59383   5.022   8.704   0.654  0.1058 -0.2834  0.0067
  450MOL0     H59384   4.762   8.478   0.837 -0.3926 -0.4239  1.3820
  450MOL0     H59385   4.642   8.289   0.935  0.2079  3.1047 -0.2891
  450MOL0     H59386   3.803   7.978   2.442  1.2043 -1.8441  1.3690
  450MOL0     H59387   3.595   8.001   2.604 -1.3499  1.0706  2.2675
  450MOL0     H59388   3.303   8.227   2.567 -1.0429 -0.2069 -1.2523
  450MOL0     H59389   3.067   8.248   2.558  1.1762  0.4246  0.6716
  450MOL0     H59390   2.711   8.171   2.647  0.3129  2.0886 -1.1667
  450MOL0     H59391   2.864   8.258   2.602 -0.9835  0.8264 -0.6905
  450MOL0     H59392   2.692   8.309   2.836 -0.6594 -0.0094 -2.4848
  450MOL0     H59393   2.841   8.245   2.896  2.0530  0.7446  0.1369
  450MOL0     H59394   2.870   8.459   2.683  3.3873 -0.2530  1.4445
  450MOL0     H59395   2.954   8.428   2.828  0.5237  1.6050 -1.6539
  450MOL0     H59396   2.777   8.546   2.970 -0.9042  1.7340  0.8878
  450MOL0     H59397   2.831   8.643   2.841 -0.4367  0.0866 -0.7864
  450MOL0     H59398   2.440   8.625   2.736 -0.6934  1.0612  2.6927
  450MOL0     H59399   3.026   8.012   2.917 -1.7577  3.7060  0.3853
  450MOL0     H59400   3.273   8.003   2.935  3.2679  1.4401 -1.3794
  451MOL0     O59401   4.982   4.912   1.154 -0.0721 -0.4688 -0.7934
  451MOL0     C59402   5.055   4.970   1.069  0.3835 -0.1190 -0.4356
  451MOL0     O59403   5.004   4.987   0.942 -0.3402 -0.6239 -0.4387
  451MOL0     C59404   4.871   4.955   0.915 -0.3793 -0.4163 -0.7269
  451MOL0     C59405   4.843   4.902   0.792  0.4993 -0.6706 -0.3331
  451MOL0     C59406   4.710   4.874   0.752 -0.7796  0.4896 -0.1101
  451MOL0     C59407   4.602   4.919   0.832  0.8222 -0.5142  0.5056
  451MOL0     O59408   4.471   4.906   0.792 -0.1638  0.1543  0.2602
  451MOL0     C59409   4.445   4.924   0.654 -0.7693 -0.1694 -0.9968
  451MOL0     C59410   4.316   5.000   0.648  0.1957 -0.1958 -0.1664
  451MOL0     C59411   4.276   5.081   0.521 -0.2967 -0.3998  0.1146
  451MOL0     C59412   4.161   5.177   0.561  0.2064 -0.6525 -0.7868
  451MOL0     C59413   4.111   5.253   0.443  0.0138 -0.5252  0.0598
  451MOL0     C59414   4.029   5.182   0.339  0.1045  0.8307 -0.7720
  451MOL0     C59415   3.956   5.067   0.388 -1.5111  0.7449 -0.7263
  451MOL0     C59416   3.863   4.999   0.285 -0.1822 -0.0905 -0.2042
  451MOL0     N59417   3.801   4.872   0.333  0.2405 -1.1456  0.5429
  451MOL0     C59418   3.667   4.845   0.311  0.2690  0.2697  0.6173
  451MOL0     C59419   3.645   4.721   0.365 -0.3443 -1.1712 -0.2091
  451MOL0     C59420   3.522   4.640   0.351 -0.2328 -0.2503  0.4759
  451MOL0     C59421   3.509   4.560   0.216 -0.2644 -0.3461  0.4715
  451MOL0     C59422   3.615   4.449   0.230 -0.3204  0.3610  0.4921
  451MOL0     C59423   3.612   4.342   0.112  0.6631  0.1633 -0.6089
  451MOL0     O59424   3.484   4.270   0.116 -0.1852  0.5910 -0.2701
  451MOL0     C59425   3.480   4.147   0.049 -0.8634 -0.7985 -0.6781
  451MOL0     C59426   3.589   4.088  -0.019  1.5137 -0.3241  0.5298
  451MOL0     C59427   3.570   3.957  -0.072  0.1313  0.0197  0.0190
  451MOL0     C59428   3.452   3.885  -0.061  0.0208  0.2822 -0.6532
  451MOL0     C59429   3.424   3.747  -0.115 -0.1456 -0.9669 -0.1141
  451MOL0     O59430   3.529   3.686  -0.171 -0.9351 -0.4227 -0.1145
  451MOL0     C59431   3.499   3.579  -0.254 -0.6359  0.3430  0.1442
  451MOL0     C59432   3.595   3.479  -0.250 -0.1419  0.6609  0.5048
  451MOL0     C59433   3.582   3.355  -0.319  0.5570 -1.2376  0.5052
  451MOL0     C59434   3.473   3.337  -0.414  0.0039 -0.6086 -0.9488
  451MOL0     O59435   3.480   3.218  -0.476 -0.6445  0.8568  0.2050
  451MOL0     C59436   3.433   3.201  -0.615  0.5628 -1.1963  0.5512
  451MOL0     C59437   3.440   3.056  -0.649  0.4644 -0.2806 -0.3626
  451MOL0     C59438   3.354   3.031  -0.768  0.8081 -0.9909  0.6826
  451MOL0     C59439   3.339   2.885  -0.818 -0.4772 -0.1057  0.4900
  451MOL0     C59440   3.280   2.869  -0.961  0.4293  0.5683  0.2991
  451MOL0     C59441   3.119   2.878  -0.962  0.0310 -0.1899 -0.0853
  451MOL0     C59442   3.061   2.869  -1.106 -0.3140 -0.2259  0.1406
  451MOL0     C59443   2.901   2.845  -1.117 -0.5673  0.0639  0.2974
  451MOL0    Cl59444   2.843   2.909  -1.281 -0.7368  0.0024 -0.3460
  451MOL0     C59445   3.371   3.441  -0.421  0.0089 -0.2130  0.5543
  451MOL0     C59446   3.389   3.559  -0.340  0.1480 -0.3168  0.0361
  451MOL0     O59447   3.313   3.701  -0.097  0.1592 -0.3327 -0.2632
  451MOL0     C59448   3.351   3.945   0.013 -1.1929 -0.2216  0.5670
  451MOL0     C59449   3.365   4.076   0.064  0.8755 -0.0567  0.5270
  451MOL0     N59450   3.769   4.690   0.418 -1.5209  1.0291 -0.8121
  451MOL0     N59451   3.858   4.779   0.403 -0.3660  0.1464 -0.7233
  451MOL0     C59452   4.626   4.978   0.958  0.1543  0.9806  1.2341
  451MOL0     C59453   4.766   4.985   0.995 -0.4991  0.0360  0.1581
  451MOL0     C59454   5.206   4.984   1.086  0.3230  0.5986 -0.2010
  451MOL0     C59455   5.257   4.972   1.215  1.0557 -0.6697 -0.3278
  451MOL0     C59456   5.392   4.997   1.231 -0.2141  0.3422 -0.0696
  451MOL0     C59457   5.472   5.048   1.133  0.8903 -0.3778  0.0644
  451MOL0     O59458   5.604   5.061   1.155 -0.0435 -0.1512 -0.0343
  451MOL0     C59459   5.646   5.184   1.212  0.6484  0.1058  0.2338
  451MOL0     C59460   5.718   5.269   1.105  0.0674  0.5580  0.0802
  451MOL0     C59461   5.871   5.268   1.124 -0.0033  0.9034  0.0882
  451MOL0     C59462   5.928   5.121   1.124 -0.4812 -0.2993  0.7658
  451MOL0     C59463   6.073   5.105   1.117 -0.7758  0.4330  0.2383
  451MOL0     C59464   6.195   5.083   1.115 -0.4233 -0.2770 -0.9008
  451MOL0     C59465   5.422   5.069   1.006  0.0025 -0.6882 -0.9974
  451MOL0     C59466   5.291   5.030   0.982  0.1539 -0.5281  0.6557
  451MOL0     H59467   4.908   4.859   0.717 -3.0620 -1.2236 -3.3907
  451MOL0     H59468   4.684   4.856   0.648 -2.5146 -0.8502  0.5072
  451MOL0     H59469   4.456   4.830   0.599  2.8698  0.1757 -1.1028
  451MOL0     H59470   4.520   4.984   0.600 -1.0198  0.1590 -0.9829
  451MOL0     H59471   4.302   5.057   0.740  1.2735  0.9178 -0.6699
  451MOL0     H59472   4.228   4.937   0.663 -0.6146  1.2786  1.7508
  451MOL0     H59473   4.249   5.024   0.432  0.8555  0.7936 -1.0390
  451MOL0     H59474   4.361   5.147   0.504  0.4486 -1.2282  0.5468
  451MOL0     H59475   4.079   5.119   0.604 -1.3026  2.3968  0.7444
  451MOL0     H59476   4.193   5.239   0.645 -0.3337  2.5610 -2.7703
  451MOL0     H59477   4.197   5.300   0.394 -2.1369  2.7267 -0.9167
  451MOL0     H59478   4.048   5.332   0.483  1.5366  0.3253  0.8647
  451MOL0     H59479   4.096   5.144   0.262  0.7380 -0.9403  0.5688
  451MOL0     H59480   3.967   5.257   0.290  2.4654  3.9803  0.7440
  451MOL0     H59481   4.025   4.989   0.422 -2.5380 -0.0602 -0.4212
  451MOL0     H59482   3.904   5.091   0.481  1.6594 -1.2668  1.7746
  451MOL0     H59483   3.921   4.991   0.192  0.0612  1.3541 -0.2015
  451MOL0     H59484   3.783   5.072   0.267  1.2245  1.1070 -2.0342
  451MOL0     H59485   3.597   4.902   0.250  0.7573  2.7372  2.2409
  451MOL0     H59486   3.432   4.700   0.369  1.7136  2.6871  1.1888
  451MOL0     H59487   3.522   4.570   0.434 -0.7881 -1.7437 -0.7360
  451MOL0     H59488   3.529   4.631   0.135  3.5185 -3.1074 -1.3201
  451MOL0     H59489   3.413   4.509   0.212  1.6547 -4.2904 -0.9933
  451MOL0     H59490   3.713   4.491   0.205 -1.0038  0.0048 -3.5062
  451MOL0     H59491   3.635   4.395   0.323  4.2757  0.3505 -0.2570
  451MOL0     H59492   3.693   4.271   0.133 -0.2218 -0.8608 -0.5791
  451MOL0     H59493   3.623   4.395   0.017  1.2837  1.0923 -0.0324
  451MOL0     H59494   3.682   4.138  -0.041 -0.4574  3.4724 -0.1275
  451MOL0     H59495   3.660   3.903  -0.102  1.7889  0.3238  3.8952
  451MOL0     H59496   3.690   3.497  -0.201  0.6862  0.2629 -0.8937
  451MOL0     H59497   3.668   3.290  -0.314  1.4566 -0.1935 -0.7232
  451MOL0     H59498   3.502   3.254  -0.680 -1.6999 -0.7032 -1.6262
  451MOL0     H59499   3.326   3.227  -0.615  0.8359 -0.0051  0.6306
  451MOL0     H59500   3.410   2.993  -0.565  0.5015 -0.2361 -0.3147
  451MOL0     H59501   3.541   3.014  -0.661  0.1684 -1.9963  2.3671
  451MOL0     H59502   3.405   3.096  -0.841 -1.0764  0.5545  0.6657
  451MOL0     H59503   3.256   3.079  -0.760  0.0149 -2.4762  0.2918
  451MOL0     H59504   3.442   2.852  -0.832 -0.1595  0.6981  0.8709
  451MOL0     H59505   3.276   2.832  -0.747 -2.0673 -1.2982 -1.6784
  451MOL0     H59506   3.309   2.778  -1.013 -1.6759  0.1572 -0.2804
  451MOL0     H59507   3.326   2.949  -1.021 -2.2159  2.3766  0.4691
  451MOL0     H59508   3.088   2.976  -0.926 -1.8732  0.5681 -3.3053
  451MOL0     H59509   3.080   2.804  -0.892  0.2371 -0.5101 -0.3000
  451MOL0     H59510   3.094   2.951  -1.170  1.3603 -1.6574 -0.9261
  451MOL0     H59511   3.108   2.785  -1.158 -0.6972 -0.6213  0.4150
  451MOL0     H59512   2.848   2.898  -1.037 -1.9943 -0.1047 -0.4942
  451MOL0     H59513   2.884   2.739  -1.096  2.5801 -0.5329  0.2219
  451MOL0     H59514   3.303   3.434  -0.504  1.4546  2.6859 -1.0196
  451MOL0     H59515   3.311   3.634  -0.344 -0.3897 -0.7898  1.1978
  451MOL0     H59516   3.258   3.897   0.042 -0.4935 -2.8879 -1.2735
  451MOL0     H59517   3.283   4.127   0.114 -1.4769 -2.3512 -0.7515
  451MOL0     H59518   4.546   5.024   1.014 -2.6561  0.2347 -1.8508
  451MOL0     H59519   4.772   5.014   1.099  2.7578 -1.2273  0.4169
  451MOL0     H59520   5.196   4.955   1.303  4.2172  1.8389  2.6011
  451MOL0     H59521   5.429   4.969   1.330  2.8802 -5.1885 -2.3120
  451MOL0     H59522   5.711   5.159   1.297  1.2864 -0.7549 -0.4861
  451MOL0     H59523   5.558   5.238   1.247  0.2372  1.7091 -2.9334
  451MOL0     H59524   5.675   5.243   1.008  1.5304 -0.3653 -0.3591
  451MOL0     H59525   5.687   5.372   1.126 -1.0185  0.1132  0.7249
  451MOL0     H59526   5.892   5.323   1.216 -0.5893  0.8832  0.2373
  451MOL0     H59527   5.920   5.311   1.036  1.1554 -1.6152 -0.5814
  451MOL0     H59528   5.890   5.074   1.214 -1.5145  2.1822  1.7276
  451MOL0     H59529   5.890   5.073   1.033  1.0238  0.0838 -0.1170
  451MOL0     H59530   6.292   5.045   1.092  0.4014  2.8376 -3.3213
  451MOL0     H59531   5.489   5.112   0.932  0.6299  0.1054 -0.0020
  451MOL0     H59532   5.246   5.045   0.885 -2.7480 -0.0797  1.9731
  452MOL0     O59533   7.195   7.507   3.368  0.7749  0.0796 -0.4052
  452MOL0     C59534   7.208   7.423   3.459  0.0551 -0.3169 -0.9369
  452MOL0     O59535   7.153   7.299   3.470 -0.7199  0.2463 -0.1889
  452MOL0     C59536   7.087   7.239   3.369  0.4232 -0.5629  0.6519
  452MOL0     C59537   7.131   7.229   3.228  0.2250  0.6305  0.2830
  452MOL0     C59538   7.051   7.151   3.138 -0.3545  0.3263 -0.0686
  452MOL0     C59539   6.946   7.078   3.184  0.7833  1.2845 -0.6099
  452MOL0     O59540   6.876   6.999   3.099  0.1194 -0.2747  0.4374
  452MOL0     C59541   6.809   7.080   2.995  0.1133  0.6248  0.0916
  452MOL0     C59542   6.768   6.988   2.875 -0.1339  1.2238  0.3350
  452MOL0     C59543   6.894   6.956   2.802 -0.2205  0.8399  0.8070
  452MOL0     C59544   6.880   6.842   2.697 -0.2511 -0.3375  1.4677
  452MOL0     C59545   6.836   6.711   2.758  1.0680 -0.1402 -0.1662
  452MOL0     C59546   6.878   6.592   2.671  0.7783  0.1310  0.4202
  452MOL0     C59547   6.774   6.542   2.570 -0.1481  0.3129 -0.8360
  452MOL0     C59548   6.729   6.641   2.458  0.5224 -0.3790 -0.3713
  452MOL0     N59549   6.839   6.664   2.363  0.5785  0.0997 -0.1440
  452MOL0     C59550   6.885   6.559   2.288  0.2237  0.3321 -0.8032
  452MOL0     C59551   7.010   6.597   2.255  0.0638  0.1878 -1.2119
  452MOL0     C59552   7.102   6.507   2.183 -0.6580 -0.3466  0.0465
  452MOL0     C59553   7.206   6.432   2.268 -0.5500  0.3788 -0.2424
  452MOL0     C59554   7.284   6.526   2.363 -1.1453 -0.1487 -0.1124
  452MOL0     C59555   7.409   6.467   2.413  0.4351 -0.2859 -0.3776
  452MOL0     O59556   7.445   6.527   2.537 -0.5789  0.4034  0.7059
  452MOL0     C59557   7.529   6.630   2.557  1.1298 -0.1587 -0.2106
  452MOL0     C59558   7.587   6.650   2.682 -0.0700 -0.0743 -0.1883
  452MOL0     C59559   7.677   6.747   2.717  0.4164  0.2254  0.1781
  452MOL0     C59560   7.705   6.840   2.625 -0.5947  0.0843 -0.8613
  452MOL0     C59561   7.811   6.940   2.647 -0.0889 -0.4466  0.1786
  452MOL0     O59562   7.876   6.942   2.767 -0.5059  0.1774  0.1022
  452MOL0     C59563   8.012   6.982   2.779 -0.0578 -1.0432 -0.7312
  452MOL0     C59564   8.037   7.053   2.895  0.5080 -0.5181 -0.5045
  452MOL0     C59565   8.163   7.105   2.920  0.0798  0.1896 -0.2905
  452MOL0     C59566   8.266   7.084   2.831  0.0201 -0.6200  0.0493
  452MOL0     O59567   8.393   7.139   2.844 -0.3540  0.0069 -0.2529
  452MOL0     C59568   8.428   7.278   2.843 -1.0008 -0.6489 -0.2616
  452MOL0     C59569   8.417   7.342   2.981  0.6651 -0.1434 -0.3527
  452MOL0     C59570   8.536   7.431   3.022 -0.3276  0.1764  0.3738
  452MOL0     C59571   8.497   7.505   3.159  0.9068  0.5505 -0.4970
  452MOL0     C59572   8.629   7.568   3.225 -0.6425  0.1018  0.7285
  452MOL0     C59573   8.740   7.475   3.281  0.9469 -0.2649  0.3396
  452MOL0     C59574   8.759   7.483   3.438 -0.3469 -0.1640 -0.3449
  452MOL0     C59575   8.909   7.460   3.466 -0.3383  0.2398 -1.0006
  452MOL0    Cl59576   9.025   7.579   3.398  0.1825  0.0330  0.6290
  452MOL0     C59577   8.245   6.998   2.720  0.8521  0.0461  0.5718
  452MOL0     C59578   8.116   6.960   2.688  0.4493 -1.1412  0.1180
  452MOL0     O59579   7.847   7.011   2.553  0.1363 -0.1214 -0.0032
  452MOL0     C59580   7.643   6.831   2.492  0.7098 -0.6195 -1.1271
  452MOL0     C59581   7.551   6.725   2.457 -0.1460 -1.1824  0.1228
  452MOL0     N59582   7.038   6.718   2.313 -0.1437  0.6734  0.7947
  452MOL0     N59583   6.933   6.761   2.375  0.0510 -0.3829 -0.7957
  452MOL0     C59584   6.906   7.084   3.323  0.0446 -0.8861 -0.0145
  452MOL0     C59585   6.970   7.163   3.415 -0.3784 -0.0005  0.4757
  452MOL0     C59586   7.299   7.470   3.569  0.2267  0.2322  0.1346
  452MOL0     C59587   7.280   7.417   3.696  0.2437  0.7487  0.0115
  452MOL0     C59588   7.353   7.462   3.809  0.5954 -0.4065  0.5826
  452MOL0     C59589   7.465   7.541   3.784 -0.6730  0.0622 -0.1990
  452MOL0     O59590   7.554   7.577   3.879 -0.9001  0.2777  0.5025
  452MOL0     C59591   7.563   7.505   4.003 -0.8625  0.1421 -0.8275
  452MOL0     C59592   7.700   7.519   4.075  0.1055 -0.3108 -0.1837
  452MOL0     C59593   7.707   7.655   4.142  0.3552 -0.5351 -0.0854
  452MOL0     C59594   7.653   7.655   4.282  0.8341 -0.0125 -0.7497
  452MOL0     C59595   7.612   7.795   4.307 -1.0804 -0.2230  0.4773
  452MOL0     C59596   7.580   7.904   4.342  0.2937  0.0369 -0.3846
  452MOL0     C59597   7.494   7.590   3.655  0.0347  0.0415 -1.2635
  452MOL0     C59598   7.403   7.561   3.553  0.5194  0.2796 -0.8872
  452MOL0     H59599   7.226   7.269   3.195  1.3216 -1.1124  1.1239
  452MOL0     H59600   7.081   7.139   3.034  2.3921  0.2955  0.6470
  452MOL0     H59601   6.886   7.148   2.957  3.3251 -2.6627  0.1998
  452MOL0     H59602   6.719   7.124   3.040  0.3796 -1.2046  2.6556
  452MOL0     H59603   6.690   7.025   2.808  0.8723 -1.7711 -2.8009
  452MOL0     H59604   6.722   6.895   2.910  1.0261  0.5229  0.0540
  452MOL0     H59605   6.969   6.911   2.867 -1.4013 -4.0588 -0.8109
  452MOL0     H59606   6.926   7.038   2.737 -0.9164 -0.1058 -0.8127
  452MOL0     H59607   6.815   6.888   2.622  0.8656 -0.4082  0.4245
  452MOL0     H59608   6.978   6.830   2.650 -0.1333  1.2832  1.2345
  452MOL0     H59609   6.732   6.709   2.792  1.8354  0.7402  2.4938
  452MOL0     H59610   6.888   6.706   2.854 -0.2261  0.8801  0.6067
  452MOL0     H59611   6.896   6.507   2.738 -1.9609 -0.5755  0.3523
  452MOL0     H59612   6.972   6.603   2.616  0.7294  2.4498  0.7311
  452MOL0     H59613   6.803   6.448   2.522 -0.7512 -1.5606  2.1781
  452MOL0     H59614   6.690   6.503   2.628  1.1012 -3.9223 -1.4838
  452MOL0     H59615   6.701   6.738   2.501  0.0948 -0.4754 -0.4327
  452MOL0     H59616   6.644   6.606   2.399  1.4518 -1.8254 -0.8771
  452MOL0     H59617   6.835   6.465   2.263 -2.1318  1.1512  0.4637
  452MOL0     H59618   7.164   6.568   2.116  1.6762 -0.3899  2.0206
  452MOL0     H59619   7.056   6.424   2.128  0.1021 -0.5244 -0.3409
  452MOL0     H59620   7.272   6.375   2.202  2.5933  1.0409  2.0624
  452MOL0     H59621   7.149   6.372   2.339 -0.6987  1.0564  0.2108
  452MOL0     H59622   7.302   6.614   2.300  0.0475 -0.7854 -0.6939
  452MOL0     H59623   7.222   6.553   2.448 -0.9405 -1.6217  0.5228
  452MOL0     H59624   7.490   6.469   2.340  1.6298  3.1588  0.8717
  452MOL0     H59625   7.394   6.359   2.424 -2.8639 -0.1220 -2.0050
  452MOL0     H59626   7.548   6.583   2.759  2.0782 -3.0805 -1.4963
  452MOL0     H59627   7.719   6.754   2.817 -1.1751 -2.4649  1.1602
  452MOL0     H59628   7.952   7.059   2.963  1.2474  1.9998  0.2898
  452MOL0     H59629   8.165   7.180   2.999 -0.4817 -0.7468  0.6259
  452MOL0     H59630   8.385   7.336   2.760 -1.3705 -1.5019 -0.6772
  452MOL0     H59631   8.536   7.289   2.829 -0.8454  0.1267  1.3927
  452MOL0     H59632   8.400   7.271   3.063  1.7600 -0.4422 -0.3668
  452MOL0     H59633   8.330   7.409   2.985 -2.0153 -3.4071  0.0237
  452MOL0     H59634   8.560   7.504   2.943  2.8206 -0.6506  0.4658
  452MOL0     H59635   8.617   7.360   3.037  0.0378  0.3479 -0.6730
  452MOL0     H59636   8.426   7.588   3.147 -0.5522 -0.8645 -2.2387
  452MOL0     H59637   8.441   7.440   3.227 -1.8050  3.5046  0.3665
  452MOL0     H59638   8.597   7.654   3.285 -0.2382  0.5991  0.2466
  452MOL0     H59639   8.688   7.612   3.144 -0.9918 -3.0323 -1.4089
  452MOL0     H59640   8.834   7.502   3.232  1.2634 -2.6088 -0.4736
  452MOL0     H59641   8.717   7.369   3.265 -2.0748  0.0708  1.8336
  452MOL0     H59642   8.739   7.580   3.486 -1.2781 -1.8121  2.8882
  452MOL0     H59643   8.700   7.410   3.493  0.9895  1.7557  4.1642
  452MOL0     H59644   8.951   7.364   3.435  1.4931 -0.0801  2.0927
  452MOL0     H59645   8.914   7.457   3.575 -0.9668  0.9913 -0.9462
  452MOL0     H59646   8.327   6.997   2.648  1.9584 -0.5090  1.8017
  452MOL0     H59647   8.105   6.905   2.594  5.2426 -0.9961 -0.7837
  452MOL0     H59648   7.662   6.899   2.409 -2.9294 -0.1055 -1.6877
  452MOL0     H59649   7.515   6.704   2.357 -0.2850  2.0422 -0.6092
  452MOL0     H59650   6.825   7.018   3.354  2.0334 -2.9887  0.9760
  452MOL0     H59651   6.955   7.166   3.522  2.3024  0.2971  0.9250
  452MOL0     H59652   7.201   7.343   3.712  0.6210  0.9927  4.0287
  452MOL0     H59653   7.328   7.417   3.905 -3.2047 -0.0288 -0.0766
  452MOL0     H59654   7.554   7.399   3.975  1.0554  0.0142 -1.1306
  452MOL0     H59655   7.487   7.530   4.077  0.7252 -2.5881  1.9877
  452MOL0     H59656   7.722   7.449   4.156  1.3002  2.6515  2.2545
  452MOL0     H59657   7.775   7.516   3.996 -0.7949  0.1392 -1.0772
  452MOL0     H59658   7.659   7.727   4.076 -2.3205 -2.8416 -0.8761
  452MOL0     H59659   7.812   7.684   4.156  0.6528 -1.4234 -0.3983
  452MOL0     H59660   7.572   7.582   4.287  2.5062 -1.8948 -0.0521
  452MOL0     H59661   7.733   7.644   4.356  2.1604  3.3549 -1.4999
  452MOL0     H59662   7.549   8.005   4.358  0.3980  0.6409 -3.3264
  452MOL0     H59663   7.584   7.650   3.644 -1.4592  3.1445  1.5844
  452MOL0     H59664   7.423   7.605   3.455  1.6888  1.5224 -0.1326
  453MOL0     O59665   9.656   8.690   7.681  0.0339  0.1435  0.4019
  453MOL0     C59666   9.692   8.627   7.781 -0.3947 -0.2802 -0.2046
  453MOL0     O59667   9.615   8.586   7.880  0.5275  0.6201 -0.0285
  453MOL0     C59668   9.481   8.613   7.882  0.4780  1.5466  0.2826
  453MOL0     C59669   9.438   8.630   8.007 -0.1090  0.9358  0.1777
  453MOL0     C59670   9.307   8.666   8.019  0.5613  0.3892  0.2322
  453MOL0     C59671   9.218   8.699   7.908 -0.2876  0.6111 -0.1575
  453MOL0     O59672   9.093   8.734   7.930 -0.2823 -1.0691 -0.0232
  453MOL0     C59673   9.054   8.864   7.891  0.1456  0.6212  0.5172
  453MOL0     C59674   8.990   8.884   7.755 -0.4094 -0.5923  0.7682
  453MOL0     C59675   8.863   8.804   7.707 -0.5438 -1.3051  1.1579
  453MOL0     C59676   8.744   8.836   7.794 -0.0875  0.8520  0.8516
  453MOL0     C59677   8.624   8.812   7.724  0.5145 -0.1597  1.2096
  453MOL0     C59678   8.503   8.823   7.824 -1.0356  0.8176  0.5206
  453MOL0     C59679   8.365   8.849   7.762 -0.4208 -0.1273 -0.4503
  453MOL0     C59680   8.341   8.752   7.651 -0.4354  0.4662  0.1107
  453MOL0     N59681   8.213   8.781   7.585  0.5189  0.2333  0.2830
  453MOL0     C59682   8.094   8.739   7.632  0.7805  1.1113 -1.1250
  453MOL0     C59683   7.995   8.770   7.545 -0.6188  0.1781  0.6793
  453MOL0     C59684   7.845   8.746   7.548  0.6021  1.0348 -0.6117
  453MOL0     C59685   7.799   8.595   7.585  0.2427 -0.5700 -0.9535
  453MOL0     C59686   7.816   8.564   7.736 -0.2628  0.5432 -0.4581
  453MOL0     C59687   7.732   8.647   7.828 -0.4867  0.3310  0.0148
  453MOL0     O59688   7.588   8.634   7.802  0.7011  0.4008 -0.2221
  453MOL0     C59689   7.505   8.656   7.905  0.6392  0.3719 -0.5682
  453MOL0     C59690   7.375   8.602   7.888 -0.1763  0.3444  0.0054
  453MOL0     C59691   7.273   8.631   7.985 -0.1406  0.3424  0.4034
  453MOL0     C59692   7.307   8.702   8.102  0.9715  0.2174 -0.3142
  453MOL0     C59693   7.202   8.721   8.211 -1.2000 -0.3022 -1.0306
  453MOL0     O59694   7.256   8.738   8.342  0.4392 -0.0055  0.2162
  453MOL0     C59695   7.190   8.767   8.462  0.3566 -0.5539  0.1221
  453MOL0     C59696   7.254   8.772   8.587 -0.2285 -0.3187 -0.0222
  453MOL0     C59697   7.196   8.813   8.702 -0.5131 -0.0246  0.6331
  453MOL0     C59698   7.059   8.849   8.693 -0.6007  0.2071  0.6367
  453MOL0     O59699   6.984   8.874   8.804 -0.4627 -0.5553 -0.3190
  453MOL0     C59700   7.054   8.917   8.924  0.7632  0.5153  0.6418
  453MOL0     C59701   7.044   8.813   9.040 -0.7527 -0.5820 -0.7433
  453MOL0     C59702   6.899   8.780   9.079 -0.0156  1.1628  0.4038
  453MOL0     C59703   6.896   8.680   9.191 -0.7612  0.6625 -0.2412
  453MOL0     C59704   6.776   8.639   9.256  1.7833 -1.0312  0.3651
  453MOL0     C59705   6.800   8.531   9.370 -0.0119 -0.8585  0.7379
  453MOL0     C59706   6.877   8.402   9.312  0.7951 -0.4128  0.5293
  453MOL0     C59707   6.813   8.348   9.183 -0.3433  0.6863  0.4170
  453MOL0    Cl59708   6.869   8.180   9.136 -0.2273  0.1407  0.5915
  453MOL0     C59709   6.990   8.855   8.571 -0.5480  0.5161  0.0293
  453MOL0     C59710   7.053   8.810   8.458  0.2163  0.2548  0.7012
  453MOL0     O59711   7.087   8.704   8.181  0.3388  0.2926  0.1622
  453MOL0     C59712   7.439   8.753   8.126 -0.0925  1.1152 -0.7309
  453MOL0     C59713   7.538   8.727   8.030 -0.2496 -0.7155  0.0553
  453MOL0     N59714   8.063   8.837   7.442 -0.2055 -0.4038  0.1978
  453MOL0     N59715   8.193   8.839   7.464  0.6409  0.6431 -0.4541
  453MOL0     C59716   9.272   8.673   7.785  1.3061 -0.9195  0.6468
  453MOL0     C59717   9.400   8.623   7.770 -0.3383  0.3520 -0.8849
  453MOL0     C59718   9.834   8.624   7.802  0.1625  0.3747 -0.8548
  453MOL0     C59719   9.882   8.529   7.895 -0.1981 -0.0502 -0.0060
  453MOL0     C59720  10.025   8.520   7.920  0.0279 -0.1327 -0.0063
  453MOL0     C59721  10.110   8.599   7.845 -1.3574 -0.4417 -0.1432
  453MOL0     O59722  10.247   8.586   7.866  0.0723  0.7172  0.1974
  453MOL0     C59723  10.292   8.484   7.948  0.2740 -0.3216 -0.6090
  453MOL0     C59724  10.439   8.458   7.952  0.0491  0.6054 -0.4000
  453MOL0     C59725  10.505   8.552   8.047 -0.7594 -0.5938  0.0310
  453MOL0     C59726  10.662   8.564   8.031 -0.0362 -0.4797 -0.2180
  453MOL0     C59727  10.708   8.668   8.133  0.1259 -0.7912  0.4135
  453MOL0     C59728  10.737   8.744   8.221  0.1448 -0.3149 -0.8122
  453MOL0     C59729  10.065   8.705   7.765  0.4218  0.3002  0.8633
  453MOL0     C59730   9.928   8.707   7.738  0.5746 -0.5066  0.4122
  453MOL0     H59731   9.509   8.616   8.088  1.4317 -0.1609 -1.3137
  453MOL0     H59732   9.262   8.682   8.117  0.3191 -0.0432  0.1954
  453MOL0     H59733   9.140   8.931   7.897  3.1194 -2.8106  0.2546
  453MOL0     H59734   8.972   8.898   7.955  0.1402 -1.5686  1.8033
  453MOL0     H59735   9.076   8.868   7.689 -0.9912  0.9529 -0.4413
  453MOL0     H59736   8.966   8.990   7.740  0.9402 -0.2919  0.6371
  453MOL0     H59737   8.886   8.698   7.725  3.0115 -0.5831  1.5988
  453MOL0     H59738   8.835   8.816   7.602  1.0565  0.6472  0.8938
  453MOL0     H59739   8.758   8.774   7.883 -1.1848 -1.8810 -0.7573
  453MOL0     H59740   8.753   8.939   7.832  0.8542 -0.7532  5.5860
  453MOL0     H59741   8.634   8.712   7.681  2.9037 -0.1307  1.5897
  453MOL0     H59742   8.611   8.881   7.641 -1.7743 -0.8917  0.8946
  453MOL0     H59743   8.527   8.904   7.893 -0.3557  2.3686 -1.4463
  453MOL0     H59744   8.515   8.735   7.888  1.9223 -1.5304 -2.8662
  453MOL0     H59745   8.280   8.846   7.832 -0.0966 -1.6169 -0.0806
  453MOL0     H59746   8.368   8.954   7.734  0.5882  0.1735  0.6865
  453MOL0     H59747   8.342   8.649   7.690 -1.2866 -0.3231 -1.8146
  453MOL0     H59748   8.406   8.751   7.563  0.0783 -5.4799  0.1494
  453MOL0     H59749   8.096   8.676   7.720  1.5474  2.1612 -0.3617
  453MOL0     H59750   7.806   8.773   7.450  0.6446 -0.6906 -1.1433
  453MOL0     H59751   7.803   8.813   7.624 -2.0204 -3.3323  2.3452
  453MOL0     H59752   7.831   8.515   7.517 -1.2395  0.9134 -3.5350
  453MOL0     H59753   7.690   8.586   7.574 -0.2410  0.2194  2.2724
  453MOL0     H59754   7.815   8.456   7.753  0.6688  0.5471 -0.3086
  453MOL0     H59755   7.920   8.578   7.767 -1.0030  2.1361  1.5302
  453MOL0     H59756   7.772   8.748   7.815  2.0251 -0.9081 -3.4183
  453MOL0     H59757   7.761   8.614   7.928  0.8110 -1.6747 -0.9654
  453MOL0     H59758   7.364   8.550   7.793  0.6666 -3.7591  1.9255
  453MOL0     H59759   7.178   8.586   7.960  0.9350 -2.1357  0.5043
  453MOL0     H59760   7.362   8.758   8.592  0.3203  3.2506  3.0123
  453MOL0     H59761   7.262   8.817   8.789  1.0751 -2.6696 -0.3304
  453MOL0     H59762   6.997   9.008   8.944  0.5187  0.2750  1.0723
  453MOL0     H59763   7.157   8.950   8.911  0.9532  0.1312  1.1554
  453MOL0     H59764   7.092   8.877   9.115 -1.9441 -1.7312  1.0870
  453MOL0     H59765   7.105   8.724   9.022  4.8546  2.4000  1.1320
  453MOL0     H59766   6.854   8.730   8.993  1.8329 -1.0914  0.6409
  453MOL0     H59767   6.838   8.871   9.088 -2.2977 -0.2918  0.4110
  453MOL0     H59768   6.946   8.593   9.149 -0.8903  1.3724 -1.9185
  453MOL0     H59769   6.963   8.725   9.265 -2.6052  1.7176  0.8675
  453MOL0     H59770   6.713   8.601   9.175 -1.3950  0.9280  1.7176
  453MOL0     H59771   6.728   8.724   9.307  3.2512  0.0412  0.0156
  453MOL0     H59772   6.703   8.497   9.407 -1.9539  0.7324 -2.4677
  453MOL0     H59773   6.865   8.579   9.443  1.1143  0.4344 -1.0223
  453MOL0     H59774   6.981   8.415   9.282 -0.1332 -0.8429 -3.3641
  453MOL0     H59775   6.863   8.316   9.378  1.1640 -0.2849  0.7747
  453MOL0     H59776   6.827   8.417   9.099 -0.5004  1.4420  1.0050
  453MOL0     H59777   6.707   8.325   9.195  0.1641 -1.6991  0.9513
  453MOL0     H59778   6.895   8.908   8.570  0.0589  1.7146  1.6005
  453MOL0     H59779   6.994   8.807   8.367  0.4122 -0.9598  0.5903
  453MOL0     H59780   7.455   8.814   8.214  2.5003  0.3291 -0.5928
  453MOL0     H59781   7.639   8.765   8.044 -0.6557  0.3957  0.0969
  453MOL0     H59782   9.203   8.679   7.701 -0.8231 -1.8190  2.2241
  453MOL0     H59783   9.443   8.585   7.678  1.8319  1.8982 -0.5866
  453MOL0     H59784   9.814   8.469   7.954 -2.1180  1.6835 -0.3500
  453MOL0     H59785  10.049   8.448   7.998  1.1491  1.6550  1.3885
  453MOL0     H59786  10.247   8.391   7.912  1.1395 -0.9972  0.0165
  453MOL0     H59787  10.244   8.500   8.046 -0.6364  0.1810 -1.1181
  453MOL0     H59788  10.457   8.358   7.993  3.0118  0.2485 -2.2944
  453MOL0     H59789  10.489   8.465   7.855 -0.9496 -2.7577 -1.2855
  453MOL0     H59790  10.475   8.524   8.148 -0.8913  1.9083  0.7646
  453MOL0     H59791  10.468   8.653   8.026 -0.6321 -0.3304  1.0394
  453MOL0     H59792  10.716   8.476   8.067 -1.3632 -0.1136  2.9256
  453MOL0     H59793  10.678   8.591   7.926 -2.5249 -1.3393 -0.8804
  453MOL0     H59794  10.754   8.820   8.295 -0.8897  0.3956 -1.2845
  453MOL0     H59795  10.134   8.766   7.708 -0.7813  0.6974 -0.1877
  453MOL0     H59796   9.887   8.779   7.669  3.4059 -1.0222 -2.0165
  454MOL0     O59797   2.460   8.080   7.134 -0.0451 -0.4828 -0.0171
  454MOL0     C59798   2.574   8.040   7.164 -0.5852 -0.4948  0.1502
  454MOL0     O59799   2.625   7.914   7.173 -0.3119  0.4972  0.5066
  454MOL0     C59800   2.543   7.803   7.140 -0.4613  0.4374 -0.5457
  454MOL0     C59801   2.581   7.718   7.034 -0.1020  0.4315 -1.4531
  454MOL0     C59802   2.497   7.608   7.005 -0.5490 -1.1836  0.4880
  454MOL0     C59803   2.373   7.586   7.068  0.5307  0.7831 -0.7369
  454MOL0     O59804   2.299   7.474   7.038  1.1755 -0.7006 -0.5488
  454MOL0     C59805   2.168   7.503   7.007  0.8083  0.3696  0.2605
  454MOL0     C59806   2.125   7.446   6.874  0.6532 -0.0484 -0.2034
  454MOL0     C59807   2.157   7.304   6.847 -0.4555  0.9075 -0.5044
  454MOL0     C59808   2.140   7.256   6.700 -0.0915 -0.1665 -0.6636
  454MOL0     C59809   2.230   7.328   6.606 -0.0109 -0.4496  0.7177
  454MOL0     C59810   2.369   7.272   6.631  0.4406 -0.8540  0.5311
  454MOL0     C59811   2.458   7.346   6.728 -0.4288  0.8399 -0.1588
  454MOL0     C59812   2.601   7.300   6.714  0.2096  0.6354 -0.1018
  454MOL0     N59813   2.687   7.387   6.784 -0.1559  0.4968  0.0837
  454MOL0     C59814   2.744   7.360   6.910 -0.6308 -0.7369 -0.2164
  454MOL0     C59815   2.822   7.465   6.943  0.4514 -0.2352  0.6718
  454MOL0     C59816   2.905   7.480   7.069 -0.2072  0.3209  0.2053
  454MOL0     C59817   2.931   7.628   7.119  0.3994  0.8242 -0.2712
  454MOL0     C59818   3.048   7.637   7.208 -0.2092 -0.1606  0.0450
  454MOL0     C59819   3.078   7.781   7.267  0.1201  0.2670 -0.5449
  454MOL0     O59820   3.112   7.871   7.158  0.2192  0.4508  0.4515
  454MOL0     C59821   3.198   7.975   7.192  0.8591 -0.0769 -0.6337
  454MOL0     C59822   3.205   8.025   7.319  0.5893 -0.3222 -0.7045
  454MOL0     C59823   3.280   8.132   7.352 -0.1032  0.0087 -0.2161
  454MOL0     C59824   3.367   8.190   7.254  0.2005 -0.5239  0.7398
  454MOL0     C59825   3.467   8.287   7.298  0.3651 -0.8171 -0.4620
  454MOL0     O59826   3.584   8.313   7.218 -0.8811  0.2272  0.9794
  454MOL0     C59827   3.682   8.402   7.260 -0.0925  0.1477  0.2158
  454MOL0     C59828   3.716   8.520   7.185  1.5715 -0.0480 -0.3921
  454MOL0     C59829   3.830   8.596   7.231  0.0301 -0.7671  0.9896
  454MOL0     C59830   3.905   8.553   7.338 -0.2505 -0.0991  0.0708
  454MOL0     O59831   4.017   8.626   7.386 -0.0392 -0.7690 -0.7165
  454MOL0     C59832   4.079   8.727   7.313 -0.3523  0.2759  0.7890
  454MOL0     C59833   4.204   8.778   7.388  0.0438  0.9809 -0.0248
  454MOL0     C59834   4.211   8.928   7.388 -0.1102 -0.1566 -0.3722
  454MOL0     C59835   4.135   8.981   7.514 -0.4603 -0.0374  0.2000
  454MOL0     C59836   4.116   9.128   7.521  0.0152 -0.6391 -0.4774
  454MOL0     C59837   4.251   9.206   7.473  0.1216  0.4556  0.0882
  454MOL0     C59838   4.239   9.346   7.532 -0.7272 -1.2090  0.0860
  454MOL0     C59839   4.119   9.424   7.470 -0.4969  0.0360  0.3223
  454MOL0    Cl59840   4.139   9.598   7.506 -0.4805  0.2147  0.0548
  454MOL0     C59841   3.865   8.436   7.403 -0.4585 -0.7290  0.0017
  454MOL0     C59842   3.746   8.365   7.380  0.5034 -0.0901 -0.5164
  454MOL0     O59843   3.434   8.355   7.398 -0.4728 -0.6071 -0.2801
  454MOL0     C59844   3.354   8.146   7.121 -0.0231 -0.4799 -0.2084
  454MOL0     C59845   3.272   8.037   7.089  0.2993  0.1375 -0.0058
  454MOL0     N59846   2.828   7.552   6.831  0.5254  0.0944  0.5104
  454MOL0     N59847   2.756   7.497   6.733  1.1320 -0.0283  0.3339
  454MOL0     C59848   2.345   7.664   7.185  0.3119  0.5793  0.3845
  454MOL0     C59849   2.424   7.772   7.219 -0.4358  0.0747  0.7970
  454MOL0     C59850   2.683   8.142   7.159  0.1079 -1.2520 -0.3726
  454MOL0     C59851   2.801   8.125   7.224 -0.5027 -0.5716  0.7028
  454MOL0     C59852   2.899   8.222   7.235  0.5251  1.1345  1.0495
  454MOL0     C59853   2.875   8.356   7.190  0.2559  0.0265  0.5702
  454MOL0     O59854   2.969   8.446   7.225 -0.3479 -0.1858 -0.5323
  454MOL0     C59855   2.949   8.586   7.227 -0.1336  0.3956  0.1910
  454MOL0     C59856   2.942   8.628   7.380 -0.4201 -0.7108  0.3551
  454MOL0     C59857   3.069   8.575   7.451  0.7668  0.7735 -0.3470
  454MOL0     C59858   3.083   8.622   7.599 -0.3984 -0.9786 -0.0912
  454MOL0     C59859   2.969   8.561   7.666 -0.1791  0.3860 -0.4810
  454MOL0     C59860   2.899   8.499   7.731 -0.4259  0.4417  0.5603
  454MOL0     C59861   2.760   8.368   7.110  0.2980  0.3128  0.0533
  454MOL0     C59862   2.660   8.273   7.104 -0.0045 -0.3441  0.1042
  454MOL0     H59863   2.668   7.720   6.970 -0.1539  3.7347 -1.6047
  454MOL0     H59864   2.535   7.538   6.931  0.0235 -2.1404  1.6570
  454MOL0     H59865   2.157   7.610   6.987  0.8741  0.3566  0.1563
  454MOL0     H59866   2.096   7.468   7.081 -0.5929  1.1707 -0.6709
  454MOL0     H59867   2.143   7.513   6.789 -3.7580 -0.3950 -1.6122
  454MOL0     H59868   2.016   7.444   6.882  0.6554 -1.8667 -0.3354
  454MOL0     H59869   2.090   7.237   6.902  1.2307  0.2271  0.8402
  454MOL0     H59870   2.253   7.276   6.893 -0.8304 -0.6157 -0.5816
  454MOL0     H59871   2.166   7.150   6.694  1.0423  0.1340 -1.3090
  454MOL0     H59872   2.040   7.285   6.664 -0.4838 -1.8680 -1.0354
  454MOL0     H59873   2.224   7.437   6.602  1.9013 -0.3571 -1.1181
  454MOL0     H59874   2.195   7.305   6.505 -0.7714  0.3028  0.7943
  454MOL0     H59875   2.425   7.297   6.540  0.1295  1.8928  1.0013
  454MOL0     H59876   2.383   7.167   6.655  1.0234 -0.7780  0.5493
  454MOL0     H59877   2.460   7.455   6.718  2.1955  0.8952  0.4078
  454MOL0     H59878   2.423   7.320   6.829 -0.1123 -5.3839 -1.2360
  454MOL0     H59879   2.628   7.285   6.609 -1.8903 -1.6229 -0.4192
  454MOL0     H59880   2.622   7.200   6.755  0.5265  0.9447  0.5037
  454MOL0     H59881   2.714   7.286   6.983  0.9235 -0.3465  0.8728
  454MOL0     H59882   3.007   7.453   7.043 -0.5898  0.2686 -1.3227
  454MOL0     H59883   2.863   7.422   7.152 -0.2183  2.9109  2.1362
  454MOL0     H59884   2.847   7.691   7.150  0.3807  0.1557  1.0944
  454MOL0     H59885   2.962   7.682   7.028 -2.1533  2.5238 -0.2350
  454MOL0     H59886   3.024   7.574   7.295 -2.4253  2.3594  1.4106
  454MOL0     H59887   3.133   7.592   7.156  1.6420  1.9677  1.0577
  454MOL0     H59888   3.167   7.791   7.330  1.6759  2.0126 -2.8438
  454MOL0     H59889   2.988   7.819   7.318  0.4539  0.5695 -0.1708
  454MOL0     H59890   3.141   7.990   7.399  1.4214 -3.7740 -1.3925
  454MOL0     H59891   3.284   8.173   7.453  2.8909 -1.6956  0.4543
  454MOL0     H59892   3.667   8.547   7.092  1.9227 -1.7806 -1.1288
  454MOL0     H59893   3.861   8.679   7.168 -1.9283 -1.3492 -0.8626
  454MOL0     H59894   4.009   8.804   7.281  2.5736  1.8128 -2.6763
  454MOL0     H59895   4.115   8.693   7.216  0.3593  1.9350  0.4375
  454MOL0     H59896   4.295   8.737   7.343  0.2518 -1.4042  2.3283
  454MOL0     H59897   4.197   8.735   7.488  1.0987 -0.0254 -0.3552
  454MOL0     H59898   4.157   8.956   7.297 -3.2400 -1.6207  0.8905
  454MOL0     H59899   4.305   8.982   7.372 -2.6942  4.1617 -3.2061
  454MOL0     H59900   4.044   8.921   7.517 -0.3656 -0.2114 -0.3840
  454MOL0     H59901   4.191   8.969   7.607 -0.8239  1.8549  0.7209
  454MOL0     H59902   4.078   9.142   7.623 -1.2646 -0.4601 -0.9622
  454MOL0     H59903   4.029   9.154   7.461  0.4132 -0.1828 -0.8625
  454MOL0     H59904   4.270   9.211   7.366 -1.2758  0.0150 -0.2048
  454MOL0     H59905   4.342   9.164   7.517 -1.0771 -1.1026  1.2245
  454MOL0     H59906   4.229   9.340   7.641  0.0034  1.9625  0.4069
  454MOL0     H59907   4.331   9.396   7.502 -2.1799  0.0858 -2.5850
  454MOL0     H59908   4.021   9.400   7.512 -1.0091 -0.7103 -1.2364
  454MOL0     H59909   4.120   9.414   7.361 -0.2365 -0.0337  0.3281
  454MOL0     H59910   3.930   8.410   7.487 -2.0550  0.1522  1.5756
  454MOL0     H59911   3.714   8.278   7.436 -1.9366  2.1950  1.9255
  454MOL0     H59912   3.410   8.189   7.038  2.6255 -1.4845  0.9437
  454MOL0     H59913   3.262   8.003   6.986 -0.3938  0.5576 -0.0816
  454MOL0     H59914   2.258   7.652   7.249  0.3427  0.4572  0.4034
  454MOL0     H59915   2.397   7.844   7.295  2.5355 -0.9662  3.0371
  454MOL0     H59916   2.825   8.040   7.288 -1.0099 -0.2753  1.2893
  454MOL0     H59917   2.994   8.187   7.274  1.7480 -0.8163 -3.0810
  454MOL0     H59918   2.855   8.610   7.176 -0.5609 -1.5139  0.0151
  454MOL0     H59919   3.024   8.648   7.178  1.2082 -1.2452  0.0800
  454MOL0     H59920   2.952   8.736   7.386 -5.5086  0.0936 -0.8952
  454MOL0     H59921   2.849   8.600   7.431  0.1136  0.4278  2.0087
  454MOL0     H59922   3.159   8.603   7.396  0.4727 -1.2680 -1.9505
  454MOL0     H59923   3.075   8.466   7.452  2.0653  0.7807  2.2341
  454MOL0     H59924   3.177   8.609   7.655  0.4233  1.9325 -0.6094
  454MOL0     H59925   3.071   8.731   7.595  0.3115 -0.6424  3.4630
  454MOL0     H59926   2.851   8.427   7.795 -1.9612  1.5216  0.6928
  454MOL0     H59927   2.731   8.459   7.058  1.9372  1.3396  0.8382
  454MOL0     H59928   2.563   8.293   7.060 -1.6067 -1.8081  2.6535
  455MOL0     O59929  10.307   6.038   7.652 -0.0677  0.5261 -0.2535
  455MOL0     C59930  10.229   6.089   7.735  0.1115  0.4371 -0.3114
  455MOL0     O59931  10.195   6.032   7.855 -0.4823  0.2516  0.0193
  455MOL0     C59932  10.270   5.922   7.902  0.5497 -0.3230  0.0138
  455MOL0     C59933  10.404   5.910   7.898 -0.2256  0.2529 -0.1222
  455MOL0     C59934  10.467   5.805   7.954 -0.3210  0.3585  0.1039
  455MOL0     C59935  10.401   5.706   8.013 -0.0158  0.2486 -1.2143
  455MOL0     O59936  10.478   5.608   8.063  0.1643  0.8002  0.0234
  455MOL0     C59937  10.424   5.473   8.097  0.0271  0.4720  0.0762
  455MOL0     C59938  10.549   5.383   8.135  0.8665  0.8477  0.0354
  455MOL0     C59939  10.490   5.243   8.139 -0.3246  0.5238  0.5048
  455MOL0     C59940  10.612   5.145   8.149  0.3424  0.0361  0.0341
  455MOL0     C59941  10.559   5.008   8.148  1.8229 -0.2640  0.3678
  455MOL0     C59942  10.663   4.901   8.133 -0.8183  0.4103 -0.6968
  455MOL0     C59943  10.595   4.764   8.121 -0.4459  0.3157 -0.1136
  455MOL0     C59944  10.566   4.731   8.276  0.2903  0.8752  0.0037
  455MOL0     N59945  10.505   4.601   8.275  0.2490 -0.7943 -0.4375
  455MOL0     C59946  10.577   4.493   8.234  0.6639 -0.1181  1.4827
  455MOL0     C59947  10.483   4.394   8.229 -0.9472 -0.3288 -0.4471
  455MOL0     C59948  10.523   4.251   8.185 -1.3972  0.0938  0.4169
  455MOL0     C59949  10.502   4.214   8.036 -0.5846 -0.0214 -0.0557
  455MOL0     C59950  10.559   4.082   7.998 -0.3135  0.2065 -0.2762
  455MOL0     C59951  10.534   4.036   7.852 -0.0747  0.4710  0.3696
  455MOL0     O59952  10.599   3.907   7.822  0.3256 -0.4217 -0.6598
  455MOL0     C59953  10.585   3.847   7.707  0.0653  0.3013  0.3934
  455MOL0     C59954  10.511   3.890   7.601  0.7110 -0.1506  0.5013
  455MOL0     C59955  10.491   3.817   7.480  0.2055  0.1013  0.0107
  455MOL0     C59956  10.574   3.699   7.465  0.5985  0.1878  0.1544
  455MOL0     C59957  10.577   3.626   7.337  0.7212  0.1141  0.0175
  455MOL0     O59958  10.649   3.508   7.331  0.0062 -0.8145 -0.2955
  455MOL0     C59959  10.672   3.454   7.209  0.2216 -0.0933  0.2057
  455MOL0     C59960  10.718   3.514   7.090 -0.8044 -0.5623  0.8485
  455MOL0     C59961  10.734   3.440   6.971 -0.0406  0.4752 -0.4598
  455MOL0     C59962  10.704   3.302   6.969  0.4160 -0.0897  0.0620
  455MOL0     O59963  10.743   3.218   6.865 -0.0152  0.1010 -0.3654
  455MOL0     C59964  10.779   3.262   6.733  1.0337 -0.2263  0.7218
  455MOL0     C59965  10.743   3.156   6.628  0.2111  0.2028 -0.0177
  455MOL0     C59966  10.595   3.129   6.606  0.7106  0.0297 -0.3471
  455MOL0     C59967  10.548   3.025   6.499  0.5394  0.0943 -0.6713
  455MOL0     C59968  10.395   3.019   6.500 -1.0522 -0.6075 -0.3589
  455MOL0     C59969  10.351   2.893   6.425 -0.0709 -0.0639 -0.7744
  455MOL0     C59970  10.208   2.876   6.455 -0.2162 -0.3058 -0.5646
  455MOL0     C59971  10.128   2.848   6.324  0.0388 -0.3118 -0.0175
  455MOL0    Cl59972   9.967   2.790   6.375 -0.4529 -0.0568  0.3112
  455MOL0     C59973  10.671   3.240   7.092  0.7827  0.0330  0.1091
  455MOL0     C59974  10.643   3.312   7.210 -1.2676 -0.5639  0.4186
  455MOL0     O59975  10.510   3.667   7.238 -0.0136 -0.0704 -0.0632
  455MOL0     C59976  10.644   3.653   7.576 -0.6740  0.7023  0.3495
  455MOL0     C59977  10.657   3.733   7.694 -0.3623  1.2764 -0.5239
  455MOL0     N59978  10.367   4.442   8.284  1.0246  0.4837  0.5486
  455MOL0     N59979  10.376   4.566   8.314  0.0174 -0.9305  0.5246
  455MOL0     C59980  10.262   5.707   8.025  0.1274 -0.2947 -0.5731
  455MOL0     C59981  10.194   5.825   7.978 -0.1364 -0.5293  0.4374
  455MOL0     C59982  10.177   6.226   7.715 -1.1123  0.7394  0.2656
  455MOL0     C59983  10.256   6.321   7.645 -0.2263  0.5518 -0.1345
  455MOL0     C59984  10.200   6.445   7.621 -0.6601 -1.0082 -0.7099
  455MOL0     C59985  10.082   6.491   7.682  0.8149  0.9338  0.9700
  455MOL0     O59986  10.024   6.609   7.650  1.0575 -0.2832  0.5356
  455MOL0     C59987   9.917   6.665   7.736 -0.3269  0.4387 -0.3579
  455MOL0     C59988   9.786   6.624   7.662 -0.1900 -0.1894  0.2057
  455MOL0     C59989   9.662   6.607   7.751  0.1231  0.2140 -0.3124
  455MOL0     C59990   9.652   6.731   7.844 -0.3389  0.9993 -0.3629
  455MOL0     C59991   9.644   6.862   7.783 -0.1341  0.4477 -0.0549
  455MOL0     C59992   9.654   6.965   7.727 -0.2002 -0.0779 -0.3039
  455MOL0     C59993  10.012   6.397   7.755 -1.0486  0.0035  0.1047
  455MOL0     C59994  10.060   6.268   7.780 -0.0130  0.8929 -0.3803
  455MOL0     H59995  10.458   5.987   7.844 -3.5336  1.8030 -1.4399
  455MOL0     H59996  10.575   5.794   7.951 -0.0365  1.6732  2.5725
  455MOL0     H59997  10.373   5.437   8.007  1.7890 -1.8824 -0.0613
  455MOL0     H59998  10.354   5.480   8.181  1.3697  0.6674  1.2041
  455MOL0     H59999  10.602   5.398   8.230  5.5831 -0.1356 -2.1381
  455MOL0     H60000  10.624   5.394   8.057  2.2021  0.4615  1.2242
  455MOL0     H60001  10.427   5.235   8.049 -1.0471 -1.0566  1.1110
  455MOL0     H60002  10.441   5.229   8.235 -0.1331  0.0846  0.5416
  455MOL0     H60003  10.672   5.163   8.059  0.3122  1.5738  0.2873
  455MOL0     H60004  10.670   5.168   8.239  0.5444  0.0714 -0.1048
  455MOL0     H60005  10.487   5.000   8.066  1.9062 -1.6482  0.3962
  455MOL0     H60006  10.518   4.995   8.248  3.6132 -1.1897  1.0321
  455MOL0     H60007  10.728   4.904   8.221 -1.4299 -3.4088  0.0586
  455MOL0     H60008  10.732   4.913   8.049 -2.5838  1.0339 -2.1385
  455MOL0     H60009  10.497   4.772   8.073  1.0451  0.8812 -3.2976
  455MOL0     H60010  10.656   4.694   8.063  1.6250  1.2160  0.8815
  455MOL0     H60011  10.490   4.801   8.312 -1.7626 -0.0670 -2.2190
  455MOL0     H60012  10.647   4.734   8.349 -2.4152  2.8071  3.2564
  455MOL0     H60013  10.675   4.493   8.186 -0.5351 -2.0297 -1.2072
  455MOL0     H60014  10.459   4.183   8.242  0.9676 -0.7510  2.1824
  455MOL0     H60015  10.629   4.252   8.211 -1.1342  1.2862 -0.6272
  455MOL0     H60016  10.540   4.294   7.972 -1.4970 -0.4827 -1.2007
  455MOL0     H60017  10.393   4.220   8.026 -0.3823  4.5427 -1.6994
  455MOL0     H60018  10.665   4.083   8.023 -0.4803  3.8854  0.8834
  455MOL0     H60019  10.520   4.003   8.063 -1.7221 -0.9212 -2.3713
  455MOL0     H60020  10.548   4.114   7.777  0.5612  1.5069  1.5184
  455MOL0     H60021  10.426   4.021   7.848  0.1943 -1.3989 -2.2253
  455MOL0     H60022  10.455   3.981   7.619  0.2616 -0.8320  3.0539
  455MOL0     H60023  10.434   3.860   7.398  2.7022 -0.7860 -2.3467
  455MOL0     H60024  10.724   3.622   7.078  0.5004 -0.9476 -4.0939
  455MOL0     H60025  10.765   3.490   6.879  2.1792 -0.5970 -0.3358
  455MOL0     H60026  10.885   3.288   6.724  0.5653  2.1583  1.4182
  455MOL0     H60027  10.716   3.348   6.711  1.6386  1.3975  4.5185
  455MOL0     H60028  10.784   3.057   6.650 -1.9287 -1.1158 -1.5819
  455MOL0     H60029  10.781   3.199   6.534  2.2093  1.5040  1.2964
  455MOL0     H60030  10.554   3.221   6.565 -2.5299 -1.7881 -1.5441
  455MOL0     H60031  10.546   3.110   6.702 -2.3125 -1.6842 -2.0489
  455MOL0     H60032  10.575   3.045   6.395 -2.1203 -0.2230 -1.4954
  455MOL0     H60033  10.594   2.927   6.513  0.2394  0.1567  0.9441
  455MOL0     H60034  10.353   3.108   6.453  2.1412  1.1712 -0.1336
  455MOL0     H60035  10.352   3.025   6.600 -0.1200  1.4840 -0.0400
  455MOL0     H60036  10.409   2.812   6.471  2.0677  2.4705  1.3383
  455MOL0     H60037  10.362   2.898   6.316 -0.0702  0.0929 -0.7672
  455MOL0     H60038  10.196   2.789   6.520  2.5313  0.2111  0.7954
  455MOL0     H60039  10.175   2.966   6.507  0.9042 -1.4992  2.4027
  455MOL0     H60040  10.185   2.766   6.279  2.3004 -0.1566  2.3453
  455MOL0     H60041  10.129   2.940   6.265  0.8117  0.1468  0.7025
  455MOL0     H60042  10.664   3.132   7.095  1.9034 -0.0396  2.6848
  455MOL0     H60043  10.623   3.261   7.304 -1.4603 -0.7803  0.2597
  455MOL0     H60044  10.713   3.569   7.575  2.2360  2.9097 -0.1240
  455MOL0     H60045  10.710   3.693   7.781 -3.1332 -1.7262 -0.0165
  455MOL0     H60046  10.209   5.628   8.078 -3.1804  3.2804  2.0524
  455MOL0     H60047  10.089   5.832   8.003 -0.6155  0.7376 -1.6987
  455MOL0     H60048  10.350   6.287   7.603 -1.5012 -0.2192 -2.5335
  455MOL0     H60049  10.262   6.521   7.576 -3.0558  1.8440  0.5128
  455MOL0     H60050   9.914   6.773   7.755 -4.1683  0.1011  2.1398
  455MOL0     H60051   9.914   6.620   7.836  3.3915  0.5403 -0.0871
  455MOL0     H60052   9.777   6.700   7.583 -0.5604  1.9605  2.1919
  455MOL0     H60053   9.792   6.522   7.623  0.8813 -0.6283  1.4240
  455MOL0     H60054   9.680   6.528   7.824  1.9818  0.1491 -0.7857
  455MOL0     H60055   9.567   6.583   7.704  1.3979 -1.1561 -2.3344
  455MOL0     H60056   9.569   6.720   7.914  1.1548  1.4167  1.5521
  455MOL0     H60057   9.736   6.739   7.914  0.0196  1.2802 -0.8139
  455MOL0     H60058   9.672   7.050   7.665 -2.1707  1.1914  0.7714
  455MOL0     H60059   9.925   6.421   7.815  0.9393  1.0202  2.8283
  455MOL0     H60060  10.002   6.215   7.855 -0.6747  4.8125  2.1542
  456MOL0     O60061   9.472   5.802   2.900 -0.3148  0.4337  0.5183
  456MOL0     C60062   9.554   5.868   2.844 -1.0692  0.0194  0.0928
  456MOL0     O60063   9.673   5.817   2.798 -0.1066  0.7856  0.0716
  456MOL0     C60064   9.700   5.685   2.804 -0.1718 -0.1860  0.0546
  456MOL0     C60065   9.694   5.591   2.911  0.6288  0.3623  0.3370
  456MOL0     C60066   9.724   5.453   2.895  0.4250  0.5631  0.3039
  456MOL0     C60067   9.759   5.398   2.773 -1.0147  0.1758 -0.5094
  456MOL0     O60068   9.811   5.268   2.765  0.6302 -0.4655 -0.2263
  456MOL0     C60069   9.907   5.225   2.861  0.6007 -0.1637  0.2101
  456MOL0     C60070  10.046   5.295   2.846  0.1206 -0.4765 -0.5649
  456MOL0     C60071  10.058   5.438   2.895 -0.4012 -0.8080  0.4915
  456MOL0     C60072  10.204   5.491   2.887 -0.5315 -0.6453 -0.6641
  456MOL0     C60073  10.225   5.630   2.941 -0.6084  0.8010  0.6080
  456MOL0     C60074  10.155   5.755   2.882  0.4884  0.1331 -0.1319
  456MOL0     C60075  10.216   5.780   2.742 -0.0561 -0.9221  0.6316
  456MOL0     C60076  10.153   5.914   2.679 -0.9611  0.3757  0.9472
  456MOL0     N60077  10.228   5.949   2.554  0.4321 -0.2961 -0.2240
  456MOL0     C60078  10.337   6.029   2.544  1.1051 -0.2871 -0.4988
  456MOL0     C60079  10.358   6.034   2.407  0.4158 -0.4057  0.9494
  456MOL0     C60080  10.470   6.113   2.345  0.0135 -0.3556  0.2391
  456MOL0     C60081  10.604   6.032   2.356  0.1960 -0.0629  0.5319
  456MOL0     C60082  10.707   6.079   2.253 -0.7256  0.1143  0.3569
  456MOL0     C60083  10.806   6.194   2.302  0.6201  0.5860  0.4419
  456MOL0     O60084  10.789   6.238   2.435 -1.1304  0.4630 -0.8118
  456MOL0     C60085  10.848   6.358   2.460  1.2158  1.0389  0.2951
  456MOL0     C60086  10.971   6.374   2.511 -0.5869  0.3216  0.3157
  456MOL0     C60087  11.035   6.491   2.537 -0.0811 -0.1363  0.3081
  456MOL0     C60088  10.957   6.612   2.526  0.2485  0.9372 -0.0956
  456MOL0     C60089  11.021   6.732   2.563  0.0382 -0.4000 -0.0819
  456MOL0     O60090  11.156   6.744   2.563  0.7770  0.5196 -0.1836
  456MOL0     C60091  11.211   6.866   2.600  0.2700 -0.2451 -0.0775
  456MOL0     C60092  11.273   6.946   2.498  0.3169 -0.4116 -0.5589
  456MOL0     C60093  11.325   7.071   2.518 -0.1682 -0.2737  0.2573
  456MOL0     C60094  11.324   7.118   2.651 -0.0803 -0.2474  0.3882
  456MOL0     O60095  11.381   7.242   2.670 -0.4099  0.0617 -0.3082
  456MOL0     C60096  11.302   7.351   2.731  0.4017 -0.3184  0.1383
  456MOL0     C60097  11.349   7.490   2.676 -0.1289  0.7047 -0.5204
  456MOL0     C60098  11.285   7.605   2.749  0.6364 -0.0842  0.3636
  456MOL0     C60099  11.341   7.618   2.894 -0.2369  0.0877  0.3942
  456MOL0     C60100  11.241   7.695   2.993 -0.3620  0.2991 -0.4430
  456MOL0     C60101  11.318   7.757   3.112 -0.0735  0.2985  0.4271
  456MOL0     C60102  11.213   7.835   3.186  0.4514  0.0999  1.0790
  456MOL0     C60103  11.259   7.923   3.296 -0.1455  1.0548  0.2579
  456MOL0    Cl60104  11.409   8.006   3.258 -0.1253 -0.0599 -0.3661
  456MOL0     C60105  11.262   7.043   2.763  0.5314 -0.7100 -0.8851
  456MOL0     C60106  11.201   6.920   2.734  0.7612  0.4544 -0.2312
  456MOL0     O60107  10.939   6.821   2.588 -0.7862 -0.1120  0.0049
  456MOL0     C60108  10.830   6.608   2.468  0.3064  0.0260 -0.1121
  456MOL0     C60109  10.767   6.473   2.451 -0.0332  0.8361  0.0999
  456MOL0     N60110  10.248   5.976   2.343 -0.0243  0.0952  0.2644
  456MOL0     N60111  10.184   5.909   2.431  0.6384 -0.5421 -0.2121
  456MOL0     C60112   9.745   5.489   2.661  0.1746  0.1699  0.2949
  456MOL0     C60113   9.712   5.622   2.671  0.3041  0.3161 -0.5578
  456MOL0     C60114   9.531   6.015   2.821 -0.7784 -0.1792  0.0407
  456MOL0     C60115   9.412   6.080   2.866 -0.2174  0.5099 -1.4369
  456MOL0     C60116   9.397   6.214   2.840 -0.4313  0.4879 -0.4946
  456MOL0     C60117   9.487   6.290   2.764 -0.2610 -0.2355  1.0657
  456MOL0     O60118   9.462   6.426   2.725  0.2240 -0.4491 -0.2311
  456MOL0     C60119   9.330   6.483   2.728  0.8021 -0.1797 -0.2224
  456MOL0     C60120   9.336   6.638   2.725  0.1466  0.8276  0.4663
  456MOL0     C60121   9.197   6.698   2.711  0.5705  0.8064  0.0971
  456MOL0     C60122   9.123   6.673   2.570 -0.0891 -0.2875 -0.3499
  456MOL0     C60123   9.206   6.730   2.463  0.5177 -0.4531 -0.7656
  456MOL0     C60124   9.298   6.784   2.401  0.5262  0.7528 -0.7591
  456MOL0     C60125   9.599   6.221   2.720 -0.8281 -0.1674  0.3208
  456MOL0     C60126   9.620   6.081   2.740  0.3356  0.7014  0.8530
  456MOL0     H60127   9.677   5.638   3.008  4.1065  0.3710  1.0605
  456MOL0     H60128   9.736   5.405   2.992 -2.4507 -3.4103 -1.0632
  456MOL0     H60129   9.922   5.117   2.850 -2.4237 -0.5115 -1.4757
  456MOL0     H60130   9.865   5.226   2.962 -0.7820 -1.3557 -0.3201
  456MOL0     H60131  10.070   5.294   2.740  1.4433  0.8880 -0.3023
  456MOL0     H60132  10.121   5.226   2.887 -0.1147 -0.3693  0.0605
  456MOL0     H60133   9.992   5.450   2.981 -1.1722 -1.9265  0.0794
  456MOL0     H60134  10.015   5.499   2.815 -1.3568  1.0902  2.3385
  456MOL0     H60135  10.264   5.422   2.947  0.3065  1.3352  0.8786
  456MOL0     H60136  10.248   5.483   2.787  1.5297  0.3285  0.1263
  456MOL0     H60137  10.335   5.638   2.943 -0.6552  1.4370  1.2230
  456MOL0     H60138  10.212   5.638   3.050  2.7824 -0.5666  1.2667
  456MOL0     H60139  10.181   5.845   2.938  0.2846  2.3921 -3.3755
  456MOL0     H60140  10.048   5.733   2.881 -0.2966  3.0591  2.5559
  456MOL0     H60141  10.323   5.792   2.761 -0.3265  0.5530  1.4483
  456MOL0     H60142  10.201   5.710   2.660  2.1281  1.6575 -2.1587
  456MOL0     H60143  10.152   5.994   2.753 -0.6214 -0.3529  1.7476
  456MOL0     H60144  10.046   5.893   2.673 -0.7377 -0.8861  1.1403
  456MOL0     H60145  10.384   6.076   2.630 -2.6128  0.9760  1.0427
  456MOL0     H60146  10.493   6.200   2.408  2.1786 -0.8059  0.1507
  456MOL0     H60147  10.444   6.144   2.244  2.3195  3.0904  0.5006
  456MOL0     H60148  10.580   5.929   2.329  0.6176  0.2730 -1.2745
  456MOL0     H60149  10.650   6.025   2.455  1.8192  0.3766 -0.1504
  456MOL0     H60150  10.781   6.001   2.233 -0.3405  0.3074  1.0045
  456MOL0     H60151  10.657   6.114   2.162 -1.0730 -3.6652 -1.0797
  456MOL0     H60152  10.791   6.277   2.232 -0.7381  0.8678  1.0383
  456MOL0     H60153  10.911   6.170   2.282  1.1611  3.5584 -0.8605
  456MOL0     H60154  11.037   6.291   2.536  0.4956  1.3097  0.8145
  456MOL0     H60155  11.140   6.491   2.562  0.0703  3.3870  0.1292
  456MOL0     H60156  11.282   6.896   2.402  2.2743 -1.2439  0.0232
  456MOL0     H60157  11.385   7.132   2.451  1.8468 -0.0295  2.1487
  456MOL0     H60158  11.322   7.358   2.838  1.3478  1.7432 -0.1307
  456MOL0     H60159  11.194   7.337   2.721  0.2002  0.5441  0.9651
  456MOL0     H60160  11.314   7.499   2.572  2.0021  0.9236 -1.2633
  456MOL0     H60161  11.457   7.505   2.685 -0.3548  1.0800  2.1323
  456MOL0     H60162  11.176   7.594   2.751  0.9521 -5.4906  0.7952
  456MOL0     H60163  11.304   7.706   2.710  0.3923 -0.9656 -2.1924
  456MOL0     H60164  11.357   7.523   2.945 -2.7495 -0.9862 -0.6368
  456MOL0     H60165  11.441   7.660   2.903  0.2069 -1.2080  1.8661
  456MOL0     H60166  11.156   7.631   3.020  0.4122 -0.9458 -0.8819
  456MOL0     H60167  11.209   7.786   2.941  4.2138  2.1347 -0.5295
  456MOL0     H60168  11.400   7.820   3.075  1.1456 -0.7401  1.2770
  456MOL0     H60169  11.362   7.683   3.180 -2.9381 -2.0453 -0.0810
  456MOL0     H60170  11.150   7.896   3.121  1.0454  0.4890  0.8600
  456MOL0     H60171  11.129   7.771   3.216  0.3660  0.6664  2.0904
  456MOL0     H60172  11.276   7.858   3.382 -0.2455 -1.3257 -1.4422
  456MOL0     H60173  11.172   7.980   3.330  0.5953  0.8389  2.7144
  456MOL0     H60174  11.240   7.080   2.863 -2.0931  1.5968 -2.2041
  456MOL0     H60175  11.142   6.871   2.811 -3.1411  0.1678 -3.0910
  456MOL0     H60176  10.772   6.699   2.459 -2.2881 -1.3226  1.7142
  456MOL0     H60177  10.670   6.460   2.404 -0.4645  0.7648  0.9885
  456MOL0     H60178   9.763   5.446   2.563 -3.1453 -2.6148  0.7292
  456MOL0     H60179   9.708   5.686   2.583  1.4874  1.5499  0.2371
  456MOL0     H60180   9.340   6.012   2.911  0.5106 -1.5914 -3.2493
  456MOL0     H60181   9.296   6.251   2.852  0.0709  1.7356  0.0377
  456MOL0     H60182   9.284   6.445   2.819  1.1544 -1.3495 -0.5153
  456MOL0     H60183   9.292   6.447   2.632  0.5190 -1.7829  0.4601
  456MOL0     H60184   9.386   6.671   2.816  1.5715 -0.3542  0.1442
  456MOL0     H60185   9.398   6.658   2.637 -0.8081  0.5773 -0.2976
  456MOL0     H60186   9.202   6.807   2.717 -3.5643  1.1113  0.8088
  456MOL0     H60187   9.127   6.661   2.786  0.6754 -0.2357 -0.3046
  456MOL0     H60188   9.100   6.568   2.551 -0.8661  0.2461 -2.6604
  456MOL0     H60189   9.028   6.728   2.574  1.7191  3.0371  0.6663
  456MOL0     H60190   9.366   6.850   2.351  1.2014  2.5917  2.3110
  456MOL0     H60191   9.664   6.279   2.655 -3.0417  1.4738 -0.5443
  456MOL0     H60192   9.695   6.025   2.684 -0.2243 -0.4136  1.1783
  457MOL0     O60193   5.111   5.645   4.863  0.0565  0.7790 -0.0522
  457MOL0     C60194   5.101   5.636   4.987 -0.4566 -0.7907  0.2024
  457MOL0     O60195   5.026   5.721   5.068  0.3063  0.3389  0.0061
  457MOL0     C60196   5.020   5.852   5.052 -1.0109 -1.0801 -0.1832
  457MOL0     C60197   5.109   5.949   4.990 -0.2339  0.0275  0.9139
  457MOL0     C60198   5.078   6.084   4.984  0.8824 -1.3716 -0.1140
  457MOL0     C60199   4.959   6.134   5.040  1.0247  0.1976 -0.0935
  457MOL0     O60200   4.940   6.267   5.031 -0.0894  0.0382  0.2938
  457MOL0     C60201   4.810   6.326   5.041 -0.6062 -0.6134  0.1068
  457MOL0     C60202   4.827   6.440   4.934 -0.3011 -0.2084  0.1449
  457MOL0     C60203   4.696   6.508   4.897  1.0001  0.3022  0.4505
  457MOL0     C60204   4.710   6.628   4.795  0.6987 -0.2380  0.6851
  457MOL0     C60205   4.581   6.699   4.778  0.2708 -0.1413  0.1476
  457MOL0     C60206   4.586   6.780   4.645 -0.2721  0.1148 -0.9749
  457MOL0     C60207   4.709   6.881   4.642 -0.1606 -0.2748  0.0665
  457MOL0     C60208   4.839   6.846   4.560 -0.0927  0.1453 -0.1905
  457MOL0     N60209   4.936   6.952   4.554  1.0937  0.0293 -0.3531
  457MOL0     C60210   5.014   6.974   4.452 -1.8337  1.5635  0.1337
  457MOL0     C60211   5.094   7.075   4.495  0.2763  0.2196 -0.1093
  457MOL0     C60212   5.204   7.132   4.407 -0.3601  0.1425 -0.6648
  457MOL0     C60213   5.189   7.277   4.353  0.0924  0.2974 -0.1192
  457MOL0     C60214   5.093   7.277   4.233  0.2137  1.2487 -0.5699
  457MOL0     C60215   5.065   7.407   4.180 -0.2625  0.7467 -0.0135
  457MOL0     O60216   5.012   7.387   4.045 -0.7659 -0.8799  0.0827
  457MOL0     C60217   4.878   7.376   4.026 -0.3488 -0.5814 -0.7707
  457MOL0     C60218   4.782   7.376   4.128 -0.4016 -0.0575 -0.3369
  457MOL0     C60219   4.643   7.348   4.106 -0.9700  0.0581  0.3736
  457MOL0     C60220   4.595   7.323   3.971  0.4491 -0.2812  1.3180
  457MOL0     C60221   4.455   7.302   3.946 -0.7060  0.2816 -0.7013
  457MOL0     O60222   4.376   7.282   4.056 -1.8321 -0.8445  0.4244
  457MOL0     C60223   4.244   7.275   4.047 -0.0426 -1.0095 -0.0717
  457MOL0     C60224   4.179   7.165   3.982  0.5443 -0.2909  0.0007
  457MOL0     C60225   4.036   7.162   3.979 -0.7673  0.5421 -0.7631
  457MOL0     C60226   3.965   7.275   4.038 -0.1938  0.1306  0.3500
  457MOL0     O60227   3.832   7.281   4.045 -0.0862 -0.3798  0.4244
  457MOL0     C60228   3.759   7.154   4.032  0.6702 -0.6692  0.4942
  457MOL0     C60229   3.645   7.160   4.119 -0.2653 -0.2024  0.1654
  457MOL0     C60230   3.681   7.183   4.265 -0.0321  0.2592 -0.1170
  457MOL0     C60231   3.571   7.148   4.351  0.7179 -0.5830 -0.3183
  457MOL0     C60232   3.554   7.219   4.482  0.0736  0.2918 -0.6326
  457MOL0     C60233   3.675   7.201   4.581 -0.6188 -0.2188  0.2450
  457MOL0     C60234   3.695   7.055   4.630  0.0445  0.6590 -0.0044
  457MOL0     C60235   3.811   7.027   4.710  0.1868  0.1485 -0.7278
  457MOL0    Cl60236   3.857   7.123   4.856  0.2805 -0.1117  0.4368
  457MOL0     C60237   4.035   7.386   4.095  0.3812 -0.3064 -0.7948
  457MOL0     C60238   4.172   7.385   4.098  0.3443  1.1317 -0.1206
  457MOL0     O60239   4.420   7.297   3.828  0.0762 -0.5302  0.2663
  457MOL0     C60240   4.691   7.325   3.867  0.3888  0.3590  0.5503
  457MOL0     C60241   4.830   7.357   3.891  0.1371 -0.6669  0.2384
  457MOL0     N60242   5.058   7.106   4.623  1.2719 -0.3390  0.3727
  457MOL0     N60243   4.949   7.033   4.660  0.1709 -0.7141  0.6798
  457MOL0     C60244   4.870   6.043   5.102 -1.0294 -0.0730 -0.2539
  457MOL0     C60245   4.909   5.907   5.113  0.1171  0.0290 -1.2368
  457MOL0     C60246   5.148   5.521   5.056  1.3429  0.8029 -0.4078
  457MOL0     C60247   5.227   5.432   4.979  0.6295  0.0358  0.1954
  457MOL0     C60248   5.295   5.322   5.032 -0.2489  0.2442 -0.0702
  457MOL0     C60249   5.275   5.280   5.166  0.0765  0.7438 -0.1687
  457MOL0     O60250   5.349   5.170   5.215  0.3294 -0.2088  0.3868
  457MOL0     C60251   5.408   5.194   5.345 -0.2253  0.2405 -0.0355
  457MOL0     C60252   5.523   5.090   5.384  0.2822 -0.6694 -0.5320
  457MOL0     C60253   5.628   5.093   5.273 -0.0363 -0.6244 -0.0598
  457MOL0     C60254   5.767   5.048   5.318  0.0593 -0.6196 -0.7248
  457MOL0     C60255   5.844   4.986   5.217 -0.0104 -0.2265 -0.5311
  457MOL0     C60256   5.904   4.925   5.130 -0.2873  0.1085  0.3074
  457MOL0     C60257   5.186   5.359   5.241  0.1398 -1.0529  0.5609
  457MOL0     C60258   5.122   5.484   5.195  0.3659  0.4641  0.1934
  457MOL0     H60259   5.206   5.916   4.952 -0.8681 -0.2703 -0.5371
  457MOL0     H60260   5.158   6.153   4.957 -2.6656  2.0439 -2.9446
  457MOL0     H60261   4.794   6.374   5.138 -0.7856 -1.3716  0.4622
  457MOL0     H60262   4.732   6.252   5.021  1.6612 -3.8871  2.3389
  457MOL0     H60263   4.882   6.404   4.846  1.3716  1.5255  0.4145
  457MOL0     H60264   4.901   6.514   4.966  0.3162 -0.1956 -1.2169
  457MOL0     H60265   4.663   6.539   4.997  0.2784 -0.5070  0.4748
  457MOL0     H60266   4.625   6.433   4.862  0.2897  0.2975  1.8323
  457MOL0     H60267   4.779   6.702   4.834 -4.1191  3.8450  2.6101
  457MOL0     H60268   4.751   6.596   4.698  1.4843  5.5130 -1.2329
  457MOL0     H60269   4.562   6.769   4.860  0.0500  0.3502 -0.3173
  457MOL0     H60270   4.502   6.624   4.767  1.2271 -0.8076 -3.1159
  457MOL0     H60271   4.491   6.834   4.651  0.1136  0.6749  2.6334
  457MOL0     H60272   4.588   6.732   4.547 -0.2333  0.6316 -1.2339
  457MOL0     H60273   4.669   6.958   4.576 -1.7987 -0.5277  0.7442
  457MOL0     H60274   4.736   6.928   4.736  2.2675  2.1775 -1.6875
  457MOL0     H60275   4.808   6.830   4.456 -0.9537  2.7266 -0.3874
  457MOL0     H60276   4.890   6.756   4.597  0.7371 -0.3049 -2.2666
  457MOL0     H60277   5.018   6.938   4.349 -1.3419  1.3664  0.2158
  457MOL0     H60278   5.220   7.072   4.317  4.3109  0.8041 -0.4930
  457MOL0     H60279   5.298   7.115   4.459 -0.0080 -3.9665 -2.2607
  457MOL0     H60280   5.290   7.312   4.328  0.3896 -1.6984 -2.0516
  457MOL0     H60281   5.148   7.334   4.437 -1.3597 -0.3913 -0.3195
  457MOL0     H60282   5.139   7.212   4.158  0.1716  2.0881 -1.3294
  457MOL0     H60283   5.004   7.216   4.252  1.9048 -2.1041 -2.4106
  457MOL0     H60284   5.158   7.464   4.189  0.2012 -0.2226  1.9681
  457MOL0     H60285   4.992   7.462   4.240 -0.3890  1.5586 -0.8917
  457MOL0     H60286   4.796   7.393   4.234 -3.4938 -1.6498  0.4469
  457MOL0     H60287   4.571   7.347   4.188 -0.8049  0.0703  0.5203
  457MOL0     H60288   4.241   7.085   3.943 -0.4166 -1.7453  1.3689
  457MOL0     H60289   3.981   7.083   3.930  0.3337  0.1054 -1.3296
  457MOL0     H60290   3.821   7.070   4.066 -1.2247 -1.6687  1.6965
  457MOL0     H60291   3.737   7.137   3.926 -0.6803 -2.4653  1.0164
  457MOL0     H60292   3.604   7.059   4.119  2.3931 -1.3664  0.4467
  457MOL0     H60293   3.578   7.234   4.074  0.4376 -1.3477 -3.1174
  457MOL0     H60294   3.706   7.289   4.275 -1.2840  0.4861  0.8302
  457MOL0     H60295   3.774   7.141   4.304 -0.3738 -1.3304 -0.9433
  457MOL0     H60296   3.482   7.180   4.296  0.9007 -1.9924 -1.5152
  457MOL0     H60297   3.568   7.042   4.379  2.4373 -0.7191 -0.5471
  457MOL0     H60298   3.463   7.181   4.530  2.8887  0.1028  5.3491
  457MOL0     H60299   3.541   7.326   4.461 -2.6579  0.0875 -0.3072
  457MOL0     H60300   3.651   7.262   4.669 -0.5750 -1.4339  1.1346
  457MOL0     H60301   3.767   7.226   4.528  0.0816 -2.4056  0.3078
  457MOL0     H60302   3.603   7.032   4.685  0.7946 -1.3287  0.5197
  457MOL0     H60303   3.690   6.989   4.543 -2.9000 -0.7861  1.1212
  457MOL0     H60304   3.889   7.035   4.633  0.4147 -2.9699 -0.9658
  457MOL0     H60305   3.802   6.923   4.743 -0.4621 -0.1405 -1.7566
  457MOL0     H60306   3.982   7.473   4.134 -1.6881 -1.1528 -1.6087
  457MOL0     H60307   4.221   7.474   4.134 -0.5197  2.2990 -1.6760
  457MOL0     H60308   4.662   7.308   3.764  0.1668 -0.5525  0.7563
  457MOL0     H60309   4.903   7.361   3.811  2.9017  1.6045  2.6442
  457MOL0     H60310   4.774   6.075   5.143  0.3634  0.5453  2.7589
  457MOL0     H60311   4.836   5.841   5.159  1.4415 -2.0879 -2.0546
  457MOL0     H60312   5.241   5.438   4.871  0.3354 -4.3167 -0.2474
  457MOL0     H60313   5.349   5.259   4.962 -1.0379  2.7432 -3.1156
  457MOL0     H60314   5.329   5.177   5.418 -0.3543 -2.3724 -0.6703
  457MOL0     H60315   5.442   5.297   5.351  1.1748 -0.2834  1.8913
  457MOL0     H60316   5.572   5.105   5.481  0.0660 -0.3639 -0.4705
  457MOL0     H60317   5.475   4.991   5.387  0.6742 -0.9100 -1.7567
  457MOL0     H60318   5.636   5.195   5.233 -0.8978 -0.8549 -0.8735
  457MOL0     H60319   5.588   5.033   5.191 -4.4996  1.9005 -0.0722
  457MOL0     H60320   5.820   5.141   5.341  2.6658 -2.0565 -0.4105
  457MOL0     H60321   5.754   4.986   5.407 -3.8883  1.5059  0.3787
  457MOL0     H60322   5.952   4.884   5.043 -1.2881  4.5645 -2.6646
  457MOL0     H60323   5.179   5.332   5.345 -1.0807  0.0131  0.7809
  457MOL0     H60324   5.049   5.545   5.247  1.0757  1.4111  0.1046
  458MOL0     O60325   0.352   2.732   3.800 -0.0517 -0.0306  0.5574
  458MOL0     C60326   0.276   2.821   3.770 -0.1716  0.2132 -0.2726
  458MOL0     O60327   0.268   2.955   3.820  0.8421 -0.3070 -0.9563
  458MOL0     C60328   0.334   2.975   3.941  0.1067 -0.4338  0.1925
  458MOL0     C60329   0.293   2.910   4.051 -0.4236 -0.9164 -0.0475
  458MOL0     C60330   0.376   2.919   4.169 -1.2999 -0.8027 -0.8728
  458MOL0     C60331   0.497   2.999   4.174 -0.0238 -0.0737  0.7156
  458MOL0     O60332   0.594   3.001   4.278 -0.4536 -0.3820  0.3080
  458MOL0     C60333   0.571   2.898   4.378  0.5909 -0.2938  0.1044
  458MOL0     C60334   0.680   2.925   4.489 -0.2183 -1.0185 -0.1455
  458MOL0     C60335   0.822   2.890   4.457  0.1654  0.2043 -0.3909
  458MOL0     C60336   0.921   2.893   4.580 -0.0062 -0.3473 -0.2986
  458MOL0     C60337   1.067   2.875   4.554  0.2950 -0.6376 -0.5045
  458MOL0     C60338   1.085   2.731   4.507 -0.7674  0.3732 -0.3512
  458MOL0     C60339   1.231   2.692   4.529 -0.5501  1.0471  0.3549
  458MOL0     C60340   1.257   2.538   4.512 -0.6542 -0.3850  0.5678
  458MOL0     N60341   1.254   2.514   4.372  0.8480 -0.7905  0.7464
  458MOL0     C60342   1.344   2.526   4.270  1.4139 -0.2526  0.5089
  458MOL0     C60343   1.281   2.487   4.162  1.0269 -0.0655  0.0323
  458MOL0     C60344   1.352   2.482   4.029 -0.4078 -0.4001  0.0176
  458MOL0     C60345   1.401   2.340   4.034 -0.0734  0.4431 -0.4284
  458MOL0     C60346   1.510   2.304   3.933  0.4177 -0.2681 -0.3763
  458MOL0     C60347   1.465   2.335   3.793  0.3824  0.1973  0.7042
  458MOL0     O60348   1.544   2.260   3.699  0.1571 -0.5807 -0.1753
  458MOL0     C60349   1.669   2.314   3.672  0.9832  0.7681 -0.2892
  458MOL0     C60350   1.765   2.225   3.662 -1.0276  0.0193  0.8609
  458MOL0     C60351   1.899   2.277   3.637  0.5377  0.0982 -0.0702
  458MOL0     C60352   1.922   2.409   3.616 -0.3240  0.2039  0.7566
  458MOL0     C60353   2.059   2.448   3.587 -0.4936 -0.1694 -1.0099
  458MOL0     O60354   2.081   2.576   3.628 -0.0668  0.0410  0.0111
  458MOL0     C60355   2.201   2.617   3.676  0.1355  0.8470 -0.7018
  458MOL0     C60356   2.235   2.598   3.815 -0.2549 -0.9542 -0.4455
  458MOL0     C60357   2.347   2.654   3.870  0.7345  0.6030  0.5916
  458MOL0     C60358   2.436   2.725   3.796 -0.3048 -0.0421  0.7027
  458MOL0     O60359   2.558   2.751   3.858  0.7692  0.7957 -0.2995
  458MOL0     C60360   2.632   2.627   3.887 -0.2836  0.1103 -0.8661
  458MOL0     C60361   2.772   2.649   3.944  0.5521  0.0446 -0.9852
  458MOL0     C60362   2.747   2.751   4.061  0.6709 -0.3966 -1.7283
  458MOL0     C60363   2.878   2.809   4.110 -0.2162 -0.0551 -0.1105
  458MOL0     C60364   2.864   2.919   4.218 -0.4652  0.9774  0.3901
  458MOL0     C60365   3.008   2.968   4.243  0.5939 -0.5229 -0.1998
  458MOL0     C60366   3.010   3.061   4.360 -0.2046  0.3634  0.0380
  458MOL0     C60367   3.140   3.138   4.383  0.6613 -0.0240  0.3388
  458MOL0    Cl60368   3.151   3.230   4.530 -0.7323 -0.2107 -0.0261
  458MOL0     C60369   2.403   2.750   3.663  0.8500  0.1108 -0.5040
  458MOL0     C60370   2.291   2.692   3.607 -0.3124 -0.3695  0.2128
  458MOL0     O60371   2.143   2.368   3.551 -0.3629  0.5715  1.0999
  458MOL0     C60372   1.820   2.500   3.620 -0.0741  0.2698  0.5767
  458MOL0     C60373   1.696   2.454   3.647 -0.0872  0.2145 -0.0502
  458MOL0     N60374   1.150   2.452   4.195 -0.0696  0.2263  0.5431
  458MOL0     N60375   1.130   2.470   4.328 -0.8571  0.3987 -0.1136
  458MOL0     C60376   0.523   3.072   4.060  0.2527  0.4161  0.5499
  458MOL0     C60377   0.446   3.058   3.946  0.1412 -0.1052 -0.7283
  458MOL0     C60378   0.177   2.800   3.658  0.6676  0.0079 -0.1884
  458MOL0     C60379   0.078   2.892   3.631 -0.6438  0.7794  0.2167
  458MOL0     C60380  -0.016   2.878   3.523 -1.2697  0.1310 -1.3269
  458MOL0     C60381  -0.011   2.771   3.439  0.9507  0.6323 -0.3402
  458MOL0     O60382  -0.095   2.754   3.330 -0.9716 -0.2803  0.0673
  458MOL0     C60383  -0.189   2.853   3.303  0.1248 -0.2618  0.4436
  458MOL0     C60384  -0.278   2.796   3.191  0.2415 -0.0610 -0.7118
  458MOL0     C60385  -0.359   2.666   3.243  0.1716  0.3927  0.6274
  458MOL0     C60386  -0.459   2.694   3.350 -0.0028 -0.4443 -0.2057
  458MOL0     C60387  -0.564   2.784   3.315 -0.0513 -0.9336 -0.6739
  458MOL0     C60388  -0.658   2.843   3.260 -0.3700  1.0918  0.4298
  458MOL0     C60389   0.089   2.680   3.460 -0.5923  0.5798  1.0904
  458MOL0     C60390   0.184   2.692   3.567 -1.0784  0.0727  0.2153
  458MOL0     H60391   0.195   2.864   4.057 -2.1398  2.5982  2.0042
  458MOL0     H60392   0.357   2.847   4.248 -2.1523 -1.4004 -1.6024
  458MOL0     H60393   0.582   2.799   4.332 -1.0102  0.4300 -2.0216
  458MOL0     H60394   0.473   2.897   4.426  0.2438  2.7476 -0.3498
  458MOL0     H60395   0.637   2.867   4.571  2.4993  0.8956  2.8600
  458MOL0     H60396   0.671   3.029   4.522  2.6190 -0.9639  0.7546
  458MOL0     H60397   0.860   2.950   4.374 -1.4800  0.1104 -1.2519
  458MOL0     H60398   0.828   2.784   4.429  5.0489 -0.7970  3.0058
  458MOL0     H60399   0.917   2.996   4.615  1.5626 -0.3122 -0.1596
  458MOL0     H60400   0.881   2.826   4.656  0.0027 -2.1875 -1.8333
  458MOL0     H60401   1.130   2.900   4.640  1.2745 -0.6247 -1.2017
  458MOL0     H60402   1.085   2.949   4.475  0.3489 -1.6755 -1.4816
  458MOL0     H60403   1.054   2.699   4.407 -0.9408 -2.9240  0.6305
  458MOL0     H60404   1.035   2.654   4.567  3.9177 -2.8385  0.0193
  458MOL0     H60405   1.302   2.748   4.468  2.2675 -1.0871  1.4839
  458MOL0     H60406   1.246   2.702   4.637 -4.5059  2.4054  0.9642
  458MOL0     H60407   1.178   2.477   4.556 -1.0143  0.0702  0.5548
  458MOL0     H60408   1.350   2.503   4.559 -0.7221 -0.4505  0.6539
  458MOL0     H60409   1.444   2.569   4.278  0.4746  2.0284  0.8007
  458MOL0     H60410   1.434   2.554   4.025 -1.9380  1.3755 -0.2106
  458MOL0     H60411   1.281   2.494   3.946 -1.8731  3.4377  1.6102
  458MOL0     H60412   1.309   2.283   4.018 -1.8706  2.5080  1.7760
  458MOL0     H60413   1.450   2.301   4.124 -3.7039 -1.5034  0.9304
  458MOL0     H60414   1.591   2.375   3.954 -2.1047  3.4254 -2.0655
  458MOL0     H60415   1.547   2.202   3.944  1.5844  0.1795  0.0572
  458MOL0     H60416   1.458   2.443   3.772  0.5648 -0.0442 -0.7662
  458MOL0     H60417   1.364   2.295   3.780  0.7522 -0.2674 -1.0188
  458MOL0     H60418   1.740   2.121   3.685  0.0383 -0.2506  0.8502
  458MOL0     H60419   1.979   2.204   3.624  0.7638  0.2746  0.3142
  458MOL0     H60420   2.163   2.537   3.870  0.2716 -0.9012  0.3118
  458MOL0     H60421   2.364   2.630   3.975  0.3331 -0.9877  0.3179
  458MOL0     H60422   2.652   2.569   3.796 -4.0650  0.6648 -2.2432
  458MOL0     H60423   2.579   2.577   3.969  0.5701  3.2039  1.7908
  458MOL0     H60424   2.822   2.707   3.866 -3.1655  4.4176 -0.5577
  458MOL0     H60425   2.827   2.557   3.967  1.9113  0.4591 -2.4339
  458MOL0     H60426   2.702   2.703   4.148  2.9579  0.0834 -0.1800
  458MOL0     H60427   2.685   2.839   4.043 -1.8763 -1.1543  2.0614
  458MOL0     H60428   2.928   2.723   4.156 -0.3001 -0.1756 -0.2422
  458MOL0     H60429   2.929   2.854   4.025  1.2833  1.6990  1.6387
  458MOL0     H60430   2.830   2.870   4.310  3.8276 -0.1313  1.6084
  458MOL0     H60431   2.805   3.002   4.179 -0.8143 -1.2236 -4.4484
  458MOL0     H60432   3.052   3.025   4.161 -0.4140  1.5189  0.6149
  458MOL0     H60433   3.064   2.875   4.258  3.4515  1.0601 -0.5697
  458MOL0     H60434   2.931   3.132   4.334  1.4981  2.4908  0.3985
  458MOL0     H60435   2.979   3.012   4.453  0.0600  1.9179  0.9843
  458MOL0     H60436   3.142   3.198   4.292 -0.1508  0.0757  0.3739
  458MOL0     H60437   3.226   3.071   4.377 -0.8941 -2.1914  0.6259
  458MOL0     H60438   2.472   2.797   3.593  2.1700 -3.4301 -1.7698
  458MOL0     H60439   2.268   2.712   3.503  2.1044 -0.3541 -0.3829
  458MOL0     H60440   1.828   2.605   3.595 -0.2625 -0.2003 -1.6131
  458MOL0     H60441   1.615   2.527   3.654  1.3243  2.1690 -2.5247
  458MOL0     H60442   0.616   3.127   4.054 -1.6123  4.0259  1.7840
  458MOL0     H60443   0.480   3.118   3.862  3.2045  0.2419  0.6146
  458MOL0     H60444   0.061   2.981   3.689 -2.3663  2.7290 -2.9798
  458MOL0     H60445  -0.096   2.951   3.512 -0.4939  0.8235 -2.7497
  458MOL0     H60446  -0.134   2.935   3.256 -0.7958 -0.0339 -0.2702
  458MOL0     H60447  -0.232   2.893   3.395 -0.6327  1.8517 -0.7534
  458MOL0     H60448  -0.357   2.870   3.176  1.5319  1.5092  0.0002
  458MOL0     H60449  -0.231   2.773   3.095  1.2294 -0.2794 -0.1896
  458MOL0     H60450  -0.285   2.597   3.285 -0.2529 -0.3611  0.1450
  458MOL0     H60451  -0.405   2.623   3.154 -0.5276  1.1628  0.6121
  458MOL0     H60452  -0.499   2.605   3.400  0.2820  0.0723  0.9861
  458MOL0     H60453  -0.403   2.739   3.432 -1.2315  0.8031 -0.0044
  458MOL0     H60454  -0.743   2.890   3.215 -0.3716  1.0986  0.4401
  458MOL0     H60455   0.097   2.597   3.391 -0.7337  0.9892  0.5697
  458MOL0     H60456   0.269   2.624   3.571 -2.6124 -2.0689 -1.5211
  459MOL0     O60457   1.049   0.651   4.783 -0.2481  0.7812  0.0339
  459MOL0     C60458   1.140   0.605   4.850  1.2297 -0.2794 -0.3993
  459MOL0     O60459   1.253   0.539   4.807  0.5296  1.0183  0.0677
  459MOL0     C60460   1.285   0.570   4.675 -0.8227 -0.7960  0.1547
  459MOL0     C60461   1.270   0.475   4.565  0.1520 -0.4358 -0.6061
  459MOL0     C60462   1.293   0.511   4.431  0.2381 -0.2790 -0.3404
  459MOL0     C60463   1.330   0.646   4.401  0.7914  0.1842 -0.4865
  459MOL0     O60464   1.367   0.677   4.278 -1.0915 -0.7611  0.1177
  459MOL0     C60465   1.304   0.779   4.195  0.3407 -1.1828 -0.2305
  459MOL0     C60466   1.361   0.771   4.048  0.0364 -0.1486  0.6863
  459MOL0     C60467   1.273   0.847   3.947 -0.6423  0.3559 -0.2632
  459MOL0     C60468   1.227   0.994   3.980 -0.5452  0.0815 -0.1976
  459MOL0     C60469   1.325   1.102   4.042  0.2872 -0.0353  0.2864
  459MOL0     C60470   1.406   1.190   3.951  0.8892  0.2420 -0.5186
  459MOL0     C60471   1.482   1.291   4.019  0.7778  0.2082 -0.1164
  459MOL0     C60472   1.552   1.395   3.922 -0.6774  0.0776  1.1229
  459MOL0     N60473   1.456   1.473   3.840 -0.1491  0.4034  0.0693
  459MOL0     C60474   1.443   1.503   3.706 -0.6658  0.3369  0.5118
  459MOL0     C60475   1.332   1.571   3.687  0.8910  1.0856 -0.3985
  459MOL0     C60476   1.273   1.642   3.566 -1.0126 -0.5944  0.0838
  459MOL0     C60477   1.295   1.794   3.568 -0.0693 -0.5767 -0.0617
  459MOL0     C60478   1.442   1.830   3.555 -0.5104  0.1046 -0.3482
  459MOL0     C60479   1.474   1.977   3.550 -0.7413  0.4140  0.1108
  459MOL0     O60480   1.438   2.019   3.416 -0.5698 -0.0945  0.2197
  459MOL0     C60481   1.368   2.132   3.409 -0.4041 -0.2792  0.4830
  459MOL0     C60482   1.408   2.226   3.316 -0.1011  0.5148  0.4989
  459MOL0     C60483   1.333   2.337   3.278  0.0847 -0.6983  0.7857
  459MOL0     C60484   1.210   2.362   3.333 -0.9872  0.3894  0.8763
  459MOL0     C60485   1.129   2.464   3.264 -0.1588  0.6374  0.1819
  459MOL0     O60486   1.181   2.558   3.168 -0.5101  0.9481  0.3634
  459MOL0     C60487   1.118   2.677   3.166 -0.0657 -0.1079 -0.2964
  459MOL0     C60488   1.116   2.749   3.047  1.4019 -0.3457 -0.9074
  459MOL0     C60489   1.054   2.875   3.046 -0.7730  1.1152 -0.2565
  459MOL0     C60490   1.005   2.934   3.156  0.0837 -0.3699 -0.4143
  459MOL0     O60491   0.963   3.063   3.137 -0.3143 -0.4608 -0.4685
  459MOL0     C60492   0.869   3.119   3.226 -0.0253 -0.8238  0.0857
  459MOL0     C60493   0.802   3.241   3.160 -0.0077  0.4730 -0.1785
  459MOL0     C60494   0.659   3.252   3.225 -0.9245  0.3714 -1.2918
  459MOL0     C60495   0.664   3.294   3.368 -0.7356  0.3082 -0.2142
  459MOL0     C60496   0.718   3.439   3.384 -0.7544 -0.2456  0.3369
  459MOL0     C60497   0.739   3.490   3.533 -0.2334 -0.1374 -0.4086
  459MOL0     C60498   0.826   3.615   3.542  0.4126  0.3283  0.2163
  459MOL0     C60499   0.974   3.583   3.540 -0.7484 -0.3849 -0.3306
  459MOL0    Cl60500   1.059   3.736   3.537  0.4015  0.0156  0.5450
  459MOL0     C60501   1.009   2.868   3.279  1.0857  0.6382 -0.0370
  459MOL0     C60502   1.060   2.734   3.287 -0.2756  0.3151 -0.0534
  459MOL0     O60503   1.008   2.440   3.283  0.3924  0.0438 -0.1743
  459MOL0     C60504   1.166   2.271   3.433 -0.3245 -0.6555  0.2795
  459MOL0     C60505   1.244   2.154   3.465 -1.0702  0.2954 -0.4650
  459MOL0     N60506   1.280   1.594   3.812  0.7661  1.2426 -0.8666
  459MOL0     N60507   1.350   1.533   3.898  0.2851 -1.0871 -0.0435
  459MOL0     C60508   1.346   0.743   4.503 -1.2279  0.8543  0.0027
  459MOL0     C60509   1.329   0.702   4.640 -0.9202  0.4197 -0.0026
  459MOL0     C60510   1.085   0.573   4.988  0.3109 -0.2421  0.7223
  459MOL0     C60511   0.974   0.639   5.040  1.2678  0.5963  0.1599
  459MOL0     C60512   0.922   0.602   5.167 -0.0401 -0.4963  0.3695
  459MOL0     C60513   0.982   0.503   5.244 -0.7942  0.3044  0.3578
  459MOL0     O60514   0.948   0.482   5.370 -0.2723 -0.8418  0.1112
  459MOL0     C60515   0.877   0.362   5.413  0.2491 -1.4326  0.4650
  459MOL0     C60516   0.940   0.230   5.392 -1.5796  0.4260 -0.5205
  459MOL0     C60517   0.838   0.110   5.415 -0.4995 -0.2031  0.0619
  459MOL0     C60518   0.839   0.059   5.559  0.3101  0.2391  0.0978
  459MOL0     C60519   0.770   0.151   5.652 -0.5824  0.0544  0.1396
  459MOL0     C60520   0.726   0.231   5.727  1.2027 -0.5609  0.3901
  459MOL0     C60521   1.098   0.447   5.196 -0.4062  0.4244  0.2041
  459MOL0     C60522   1.150   0.481   5.068  1.1948 -0.3556 -0.0060
  459MOL0     H60523   1.239   0.373   4.587  3.3450 -1.3389  0.2367
  459MOL0     H60524   1.276   0.433   4.357  1.0713  1.5601 -2.6054
  459MOL0     H60525   1.339   0.876   4.231  1.6253 -1.5922 -0.3236
  459MOL0     H60526   1.197   0.762   4.206  0.3569  0.0402  3.1526
  459MOL0     H60527   1.364   0.666   4.017 -0.2726  0.8127 -3.0461
  459MOL0     H60528   1.463   0.808   4.037 -0.0656 -0.6699 -4.0581
  459MOL0     H60529   1.183   0.788   3.933 -1.4249  2.0570 -3.2864
  459MOL0     H60530   1.335   0.848   3.857 -3.3312 -0.6529 -2.2656
  459MOL0     H60531   1.189   1.032   3.885 -2.2504 -1.0798 -0.0428
  459MOL0     H60532   1.134   0.986   4.039 -0.9203 -0.8599 -0.8925
  459MOL0     H60533   1.396   1.047   4.104  0.9950 -1.3747 -1.6026
  459MOL0     H60534   1.270   1.171   4.107 -0.6214 -0.7477  0.2921
  459MOL0     H60535   1.335   1.233   3.881 -1.4600 -3.0005 -0.3698
  459MOL0     H60536   1.475   1.124   3.897  1.4989  0.9735 -0.6422
  459MOL0     H60537   1.411   1.357   4.070  1.5289  0.4489  0.6452
  459MOL0     H60538   1.548   1.239   4.088 -1.0014 -0.2234  1.3498
  459MOL0     H60539   1.627   1.333   3.871  0.4496  1.9776  0.3588
  459MOL0     H60540   1.606   1.460   3.992  0.1596 -0.6976  1.2283
  459MOL0     H60541   1.529   1.481   3.643 -0.4521 -0.1986  0.9821
  459MOL0     H60542   1.168   1.616   3.553 -0.7477 -2.0449  0.7080
  459MOL0     H60543   1.323   1.605   3.476 -0.6510 -0.7246  0.3346
  459MOL0     H60544   1.253   1.837   3.659  0.0787  0.3953 -0.4432
  459MOL0     H60545   1.231   1.823   3.484 -2.9752 -2.3760  1.3571
  459MOL0     H60546   1.495   1.784   3.639  0.3143  0.2840 -0.7618
  459MOL0     H60547   1.476   1.788   3.460  2.6980  2.5024 -0.4371
  459MOL0     H60548   1.579   1.995   3.575  0.3508 -0.8368 -3.0118
  459MOL0     H60549   1.412   2.016   3.631  0.4326  2.9459 -0.1209
  459MOL0     H60550   1.501   2.221   3.260 -0.0538 -0.4231  0.6402
  459MOL0     H60551   1.353   2.406   3.197 -1.4090  2.4937  2.9540
  459MOL0     H60552   1.161   2.692   2.967  0.7627  0.5254 -1.9119
  459MOL0     H60553   1.060   2.923   2.949 -1.0375  0.1768 -0.7588
  459MOL0     H60554   0.921   3.159   3.313 -1.1263  1.8668 -0.4127
  459MOL0     H60555   0.796   3.043   3.256  0.7198 -1.7959 -0.4569
  459MOL0     H60556   0.786   3.225   3.053 -0.1909  4.2054 -0.8414
  459MOL0     H60557   0.858   3.333   3.176  1.0966 -0.1506 -0.3748
  459MOL0     H60558   0.607   3.156   3.219  0.3664 -0.6725  2.0138
  459MOL0     H60559   0.599   3.322   3.167 -1.2958  1.2123  0.0783
  459MOL0     H60560   0.565   3.290   3.414 -1.4680  3.0628 -1.3212
  459MOL0     H60561   0.727   3.227   3.427 -1.5255 -2.5786 -2.4019
  459MOL0     H60562   0.658   3.501   3.318  0.3014 -0.5566 -0.9731
  459MOL0     H60563   0.816   3.443   3.335 -1.2208 -1.3794 -0.7477
  459MOL0     H60564   0.776   3.403   3.588 -0.3130 -0.9253 -1.5850
  459MOL0     H60565   0.646   3.520   3.584  0.3354 -1.7038  1.7189
  459MOL0     H60566   0.802   3.678   3.456  0.8864  1.3666  0.8211
  459MOL0     H60567   0.809   3.678   3.630  2.6333  2.2410 -0.6067
  459MOL0     H60568   1.004   3.526   3.452  0.0903  0.7235 -0.7899
  459MOL0     H60569   0.990   3.537   3.638 -2.0275  1.1962  0.6722
  459MOL0     H60570   0.978   2.911   3.374 -1.7208  0.9936 -1.0237
  459MOL0     H60571   1.041   2.687   3.383 -0.5234  1.0962  0.2870
  459MOL0     H60572   1.077   2.292   3.490  1.1097 -0.4924  2.5585
  459MOL0     H60573   1.202   2.076   3.529  0.6436 -1.3986 -1.3315
  459MOL0     H60574   1.391   0.841   4.488 -3.4544  2.2625  1.7855
  459MOL0     H60575   1.326   0.783   4.712 -1.8617  0.9118 -0.5643
  459MOL0     H60576   0.928   0.716   4.979  1.0475  0.0355 -0.3902
  459MOL0     H60577   0.830   0.638   5.210  1.1624  2.9714  0.3676
  459MOL0     H60578   0.779   0.371   5.367  0.8932 -1.7861 -1.0218
  459MOL0     H60579   0.863   0.374   5.521 -2.4059  0.4826  0.0206
  459MOL0     H60580   0.981   0.219   5.291 -0.3610 -1.1194  0.1021
  459MOL0     H60581   1.029   0.206   5.451  0.8320  0.4348 -3.8536
  459MOL0     H60582   0.855   0.026   5.347  0.2724 -3.1259  3.5078
  459MOL0     H60583   0.738   0.147   5.392  0.3800  2.5038  0.2856
  459MOL0     H60584   0.785  -0.036   5.555 -0.9647  0.9723 -0.8596
  459MOL0     H60585   0.941   0.041   5.595  0.7825 -1.4548 -1.8608
  459MOL0     H60586   0.683   0.299   5.798  1.0947 -1.8817  1.6519
  459MOL0     H60587   1.152   0.379   5.261  0.5798 -1.7735 -2.6945
  459MOL0     H60588   1.239   0.433   5.028  0.1066  0.2164 -3.5009
  460MOL0     O60589   4.356  10.965   8.133  0.2670 -0.6125 -0.1813
  460MOL0     C60590   4.296  10.903   8.045  0.0215 -0.2975 -0.3811
  460MOL0     O60591   4.182  10.935   7.977 -0.7414 -0.2944  0.8841
  460MOL0     C60592   4.145  11.071   7.983 -0.1521  0.2164 -0.3377
  460MOL0     C60593   4.221  11.181   7.935 -0.2097  1.0982 -0.2703
  460MOL0     C60594   4.160  11.302   7.932  0.2382  0.2455  0.0351
  460MOL0     C60595   4.034  11.329   7.994 -0.0109 -0.1988 -0.3118
  460MOL0     O60596   3.999  11.459   7.991  0.5253  0.1654  0.0093
  460MOL0     C60597   3.876  11.511   8.049 -0.6308 -0.0195  0.0658
  460MOL0     C60598   3.902  11.570   8.192 -0.4622  0.7326 -0.3005
  460MOL0     C60599   3.806  11.689   8.234  0.3905 -0.3513 -0.3187
  460MOL0     C60600   3.830  11.743   8.369  0.0075 -0.1307  0.1225
  460MOL0     C60601   3.774  11.883   8.393 -1.4640  0.3946  0.0205
  460MOL0     C60602   3.849  11.961   8.510 -0.1513 -0.0468  0.8751
  460MOL0     C60603   3.812  12.106   8.498 -0.1830 -0.6728 -0.8035
  460MOL0     C60604   3.652  12.125   8.516 -0.7694  0.3218  1.1244
  460MOL0     N60605   3.627  12.267   8.533 -0.8672  0.5627  0.5496
  460MOL0     C60606   3.575  12.341   8.640  0.3008  0.1258  0.7296
  460MOL0     C60607   3.564  12.466   8.589 -0.1753  0.4514 -0.4049
  460MOL0     C60608   3.527  12.593   8.657 -0.2392  0.7851  0.0531
  460MOL0     C60609   3.379  12.632   8.630  0.1511 -0.3884 -0.5034
  460MOL0     C60610   3.365  12.739   8.523 -0.3312  0.5523  0.5020
  460MOL0     C60611   3.245  12.834   8.533  0.2652 -0.7278  0.2441
  460MOL0     O60612   3.247  12.926   8.646 -0.5369 -0.1280 -0.9022
  460MOL0     C60613   3.154  13.024   8.655 -0.0063  0.0199 -0.4518
  460MOL0     C60614   3.086  13.074   8.543 -0.2061 -0.2231  0.2037
  460MOL0     C60615   3.012  13.191   8.548 -1.4748  0.3869  0.5045
  460MOL0     C60616   2.972  13.250   8.670 -0.3035  0.3568 -0.1179
  460MOL0     C60617   2.866  13.362   8.677 -0.6114 -0.3006 -0.4857
  460MOL0     O60618   2.840  13.400   8.802 -0.5075  0.3312 -0.1096
  460MOL0     C60619   2.735  13.483   8.820  0.1852  0.3601  0.0653
  460MOL0     C60620   2.605  13.430   8.840  0.4724 -0.5569 -0.1655
  460MOL0     C60621   2.502  13.522   8.878 -0.0324 -0.0734 -0.1970
  460MOL0     C60622   2.529  13.665   8.870  0.1209  0.2996  0.9567
  460MOL0     O60623   2.430  13.759   8.893 -0.6316  0.5061 -0.0467
  460MOL0     C60624   2.456  13.899   8.888 -0.1217 -0.4219 -0.4152
  460MOL0     C60625   2.363  13.984   8.971  0.3747 -0.1449 -0.6352
  460MOL0     C60626   2.219  13.980   8.922  0.6149 -0.3173  0.0314
  460MOL0     C60627   2.200  14.065   8.788  0.3440  0.6346 -1.1416
  460MOL0     C60628   2.063  14.145   8.782  0.0843  0.4397 -0.2618
  460MOL0     C60629   1.936  14.042   8.786  0.3290 -0.8967  0.6321
  460MOL0     C60630   1.811  14.109   8.837  0.4009  0.1031 -0.4883
  460MOL0     C60631   1.689  14.028   8.788 -1.0885  0.0921 -1.7801
  460MOL0    Cl60632   1.640  14.086   8.633 -0.2841 -0.0072  0.6084
  460MOL0     C60633   2.657  13.714   8.823 -0.3232  1.2267 -0.0086
  460MOL0     C60634   2.762  13.620   8.811  0.4958  0.1569  0.0864
  460MOL0     O60635   2.809  13.400   8.572 -0.5076 -0.1091 -0.5011
  460MOL0     C60636   3.044  13.214   8.792 -0.3002 -0.7382  0.7541
  460MOL0     C60637   3.133  13.095   8.781  0.3566  0.1819 -0.6470
  460MOL0     N60638   3.613  12.471   8.462 -0.6464 -0.4570  0.4168
  460MOL0     N60639   3.643  12.347   8.429  0.7632 -0.9450  0.0117
  460MOL0     C60640   3.969  11.225   8.050  0.4520 -0.2000  0.3864
  460MOL0     C60641   4.019  11.100   8.034  0.1516  0.0531 -0.0641
  460MOL0     C60642   4.352  10.767   8.001 -0.4239 -0.1096  0.0162
  460MOL0     C60643   4.267  10.679   7.940 -0.9093  0.1593 -0.4407
  460MOL0     C60644   4.320  10.544   7.911  0.2249 -0.0688  0.0235
  460MOL0     C60645   4.463  10.528   7.926 -0.3305  0.0465  0.1775
  460MOL0     O60646   4.518  10.410   7.887 -0.5170 -0.0732  0.8371
  460MOL0     C60647   4.647  10.415   7.810  0.5375 -0.6707  0.2220
  460MOL0     C60648   4.648  10.314   7.689  0.0696 -0.4238 -0.7315
  460MOL0     C60649   4.755  10.355   7.589 -0.8752 -0.8639  0.5000
  460MOL0     C60650   4.774  10.257   7.472 -0.0121  0.2894 -0.6623
  460MOL0     C60651   4.873  10.159   7.512  0.2326 -0.7711  0.1397
  460MOL0     C60652   4.948  10.077   7.548 -0.5731 -0.2407  0.2600
  460MOL0     C60653   4.545  10.633   7.976 -0.0328  0.1609  0.0878
  460MOL0     C60654   4.488  10.751   7.999  1.3932  0.1497 -0.8212
  460MOL0     H60655   4.322  11.175   7.895 -0.8208  1.4972 -1.9764
  460MOL0     H60656   4.208  11.395   7.906  2.0732 -0.4166  0.8641
  460MOL0     H60657   3.797  11.437   8.034 -0.4857 -0.4462  1.2648
  460MOL0     H60658   3.849  11.592   7.981  0.9454 -0.6407 -1.3874
  460MOL0     H60659   4.004  11.607   8.185  0.6516 -2.0169  0.1340
  460MOL0     H60660   3.915  11.497   8.272  1.4140  2.3520  0.9499
  460MOL0     H60661   3.706  11.646   8.246  1.0491 -2.0302 -0.4823
  460MOL0     H60662   3.817  11.773   8.166  2.7459  1.7137  2.3586
  460MOL0     H60663   3.818  11.667   8.447  1.0362  0.6255  1.0568
  460MOL0     H60664   3.937  11.764   8.374  0.3022 -1.5405 -0.0301
  460MOL0     H60665   3.667  11.880   8.417 -0.9339  1.4943  3.0439
  460MOL0     H60666   3.794  11.941   8.303 -2.3495 -2.5153 -2.2097
  460MOL0     H60667   3.955  11.944   8.491 -0.5435 -4.1988  1.5288
  460MOL0     H60668   3.830  11.924   8.611  2.8170  0.6252  1.7676
  460MOL0     H60669   3.864  12.161   8.577 -0.7673  2.8691 -2.6747
  460MOL0     H60670   3.853  12.141   8.403 -0.6344 -0.7159 -1.0147
  460MOL0     H60671   3.615  12.063   8.598  3.5967 -0.7524  2.5560
  460MOL0     H60672   3.610  12.103   8.418 -1.9007  2.0545  1.1732
  460MOL0     H60673   3.549  12.340   8.746 -0.7169 -1.7667  0.4975
  460MOL0     H60674   3.597  12.675   8.640 -0.5835  1.0511 -0.0818
  460MOL0     H60675   3.530  12.551   8.758  1.3127 -0.8387 -0.5882
  460MOL0     H60676   3.331  12.663   8.724 -3.3436 -3.1266 -1.1377
  460MOL0     H60677   3.332  12.535   8.610  0.2366 -0.8649  1.4277
  460MOL0     H60678   3.453  12.803   8.528 -0.0689  0.1484  1.3360
  460MOL0     H60679   3.357  12.690   8.425 -3.1473  1.2581  0.2796
  460MOL0     H60680   3.153  12.775   8.542 -1.3081  1.4955 -0.1799
  460MOL0     H60681   3.241  12.874   8.431 -3.0167 -1.0934  0.0919
  460MOL0     H60682   3.089  13.022   8.447 -2.6167 -2.3459  1.1532
  460MOL0     H60683   2.956  13.211   8.458 -1.4385 -1.9328 -0.1037
  460MOL0     H60684   2.574  13.326   8.831 -0.2699 -0.3279 -0.3030
  460MOL0     H60685   2.402  13.482   8.886  0.9809 -2.4161  2.2121
  460MOL0     H60686   2.457  13.932   8.784 -0.3948  2.4326  0.3922
  460MOL0     H60687   2.551  13.913   8.940  0.6862 -1.4815 -1.5593
  460MOL0     H60688   2.401  14.086   8.964 -1.8769  0.7630 -0.2929
  460MOL0     H60689   2.369  13.959   9.077 -2.1656 -1.9943 -0.8145
  460MOL0     H60690   2.159  14.030   8.999  0.9749 -1.3055  0.9930
  460MOL0     H60691   2.182  13.878   8.909  0.5868 -0.8154  3.1588
  460MOL0     H60692   2.281  14.138   8.799 -0.2900  0.9692  3.3809
  460MOL0     H60693   2.211  14.006   8.697  2.5775  1.0630 -1.2193
  460MOL0     H60694   2.070  14.214   8.697 -0.9338  1.1633  0.2334
  460MOL0     H60695   2.066  14.202   8.875  4.7662  0.5219 -0.1783
  460MOL0     H60696   1.955  13.955   8.849 -2.4437 -1.4795  0.7892
  460MOL0     H60697   1.935  14.006   8.682 -0.0165  2.2563 -0.5702
  460MOL0     H60698   1.803  14.108   8.946  1.4962 -2.5543 -0.3777
  460MOL0     H60699   1.801  14.216   8.817  1.5028  0.8546  2.5548
  460MOL0     H60700   1.607  14.046   8.858 -0.4165 -0.5707 -0.8010
  460MOL0     H60701   1.726  13.925   8.779  0.5000  0.6409 -1.8376
  460MOL0     H60702   2.668  13.818   8.794 -4.0230  3.5897  5.4608
  460MOL0     H60703   2.862  13.639   8.772  0.6447  3.2043  1.6923
  460MOL0     H60704   3.029  13.257   8.890 -0.3635  1.1473 -0.0410
  460MOL0     H60705   3.188  13.070   8.871  1.3321 -0.3902 -1.3887
  460MOL0     H60706   3.871  11.229   8.097 -0.6917 -2.7440 -1.5424
  460MOL0     H60707   3.967  11.009   8.064  1.6156 -1.0195 -0.6521
  460MOL0     H60708   4.162  10.698   7.919 -0.8998  0.9479  0.1709
  460MOL0     H60709   4.277  10.460   7.859  1.5317 -1.5056  1.1771
  460MOL0     H60710   4.742  10.396   7.861  2.6368  3.3809 -1.7327
  460MOL0     H60711   4.646  10.513   7.762 -0.9220  0.7676  2.9338
  460MOL0     H60712   4.682  10.222   7.738  1.1191  0.6533  0.6586
  460MOL0     H60713   4.556  10.291   7.635  1.0148 -2.7336 -1.4866
  460MOL0     H60714   4.849  10.373   7.642 -2.1711  4.9112  1.4398
  460MOL0     H60715   4.710  10.448   7.554  1.9512  1.1196  1.7421
  460MOL0     H60716   4.683  10.210   7.434 -0.4506  1.2048 -0.7581
  460MOL0     H60717   4.817  10.319   7.392 -0.8803  1.9463  0.1264
  460MOL0     H60718   4.996   9.986   7.579  2.9290  1.4060  0.2465
  460MOL0     H60719   4.653  10.623   7.975  0.3795  3.2161 -2.2515
  460MOL0     H60720   4.550  10.832   8.036  0.1099  0.5284  0.6381
  461MOL0     O60721   0.828   3.049   5.979 -0.1272  0.3075  0.2558
  461MOL0     C60722   0.943   3.023   5.932  0.3423 -0.1114 -0.0382
  461MOL0     O60723   0.972   2.984   5.805 -0.6804  0.2264  0.7779
  461MOL0     C60724   0.860   2.993   5.722  0.3684  0.1180 -0.6522
  461MOL0     C60725   0.820   2.893   5.629  0.9391  0.3264 -0.2627
  461MOL0     C60726   0.737   2.908   5.517  0.5856 -1.0242 -0.3630
  461MOL0     C60727   0.684   3.035   5.494 -1.0372 -0.1449 -1.1973
  461MOL0     O60728   0.595   3.056   5.399  0.8158  0.0278 -0.6556
  461MOL0     C60729   0.493   2.958   5.381 -0.5879  0.3270  0.4389
  461MOL0     C60730   0.376   3.032   5.320  0.2508  0.6529  0.9399
  461MOL0     C60731   0.389   3.073   5.176  0.6196  0.5968  1.6926
  461MOL0     C60732   0.251   3.090   5.105 -0.5524  0.3122 -0.3770
  461MOL0     C60733   0.266   3.038   4.956 -0.8654 -0.4182  0.0312
  461MOL0     C60734   0.262   2.885   4.943 -0.8041  0.3003  0.0279
  461MOL0     C60735   0.302   2.855   4.802  0.1584  0.3509 -0.1752
  461MOL0     C60736   0.306   2.702   4.784  0.1125 -0.6383 -0.2234
  461MOL0     N60737   0.327   2.665   4.644  0.1229 -0.8841 -0.3930
  461MOL0     C60738   0.327   2.541   4.601 -0.7082 -0.3687 -0.4295
  461MOL0     C60739   0.339   2.549   4.465  0.5168  0.7743 -0.7197
  461MOL0     C60740   0.325   2.439   4.363  0.0846  0.4862 -0.1774
  461MOL0     C60741   0.376   2.480   4.223 -0.1171  0.5043  0.5803
  461MOL0     C60742   0.370   2.383   4.110 -0.3125 -0.5540 -0.7378
  461MOL0     C60743   0.461   2.425   3.992 -0.0864 -0.1293  0.1568
  461MOL0     O60744   0.605   2.420   4.021 -0.1216  0.1409 -0.4673
  461MOL0     C60745   0.688   2.531   4.036  0.1112  0.1614  0.5065
  461MOL0     C60746   0.804   2.519   4.110 -1.3536  0.0124  1.0460
  461MOL0     C60747   0.878   2.637   4.140  0.4280  0.9626 -0.9146
  461MOL0     C60748   0.847   2.756   4.078  1.2234  0.5520 -0.2042
  461MOL0     C60749   0.943   2.867   4.087  0.1280 -0.4576 -0.5530
  461MOL0     O60750   1.055   2.856   4.150  0.3171 -0.6006  0.3863
  461MOL0     C60751   1.136   2.962   4.168  0.5153 -0.4784 -0.2069
  461MOL0     C60752   1.084   3.091   4.219  0.8684  0.7415  0.3551
  461MOL0     C60753   1.177   3.197   4.233  0.9428  0.0456  0.7329
  461MOL0     C60754   1.310   3.183   4.194  1.4501  0.3477  0.3257
  461MOL0     O60755   1.386   3.286   4.227  1.1145  0.2540  0.0322
  461MOL0     C60756   1.448   3.355   4.115  0.2987 -0.9765 -0.1247
  461MOL0     C60757   1.554   3.464   4.160 -0.1081 -0.5484 -0.8398
  461MOL0     C60758   1.483   3.590   4.211 -0.2670 -0.2206  1.5727
  461MOL0     C60759   1.584   3.691   4.283 -0.5651  0.0884  0.0383
  461MOL0     C60760   1.499   3.819   4.322 -0.4765 -0.4074  0.5454
  461MOL0     C60761   1.509   3.927   4.206 -0.2181  0.9494 -0.0295
  461MOL0     C60762   1.416   4.043   4.223 -0.1612 -0.6519  0.9108
  461MOL0     C60763   1.483   4.179   4.178  0.3063  0.2201  0.5298
  461MOL0    Cl60764   1.625   4.204   4.275  0.2617 -0.0417  0.2308
  461MOL0     C60765   1.360   3.066   4.135 -0.0466 -0.4069 -0.6389
  461MOL0     C60766   1.269   2.951   4.131 -0.2232 -0.0548 -0.4479
  461MOL0     O60767   0.903   2.966   4.023 -0.3157 -0.5362  0.9380
  461MOL0     C60768   0.728   2.770   4.000 -0.8110  0.9781  0.0759
  461MOL0     C60769   0.649   2.652   3.984 -0.7575  0.2348  0.7918
  461MOL0     N60770   0.331   2.683   4.438  0.4915 -0.3639 -0.0644
  461MOL0     N60771   0.307   2.746   4.545 -0.8717 -0.1228  0.5549
  461MOL0     C60772   0.724   3.143   5.579  0.1726  0.3728  0.4218
  461MOL0     C60773   0.806   3.123   5.689  0.3248 -0.3000 -0.0573
  461MOL0     C60774   1.059   3.010   6.026  0.1704 -0.0790 -0.5562
  461MOL0     C60775   1.035   3.007   6.165 -1.5991  0.7744 -0.2718
  461MOL0     C60776   1.152   2.993   6.248 -0.0128  0.3618 -0.2405
  461MOL0     C60777   1.280   2.995   6.195 -0.0241 -0.1381  0.8109
  461MOL0     O60778   1.399   2.984   6.265  0.4088 -0.4428  0.1128
  461MOL0     C60779   1.414   3.014   6.404  0.9169 -0.6275  0.1447
  461MOL0     C60780   1.557   2.996   6.464 -1.1163 -0.0921 -0.4644
  461MOL0     C60781   1.549   3.027   6.610 -0.2063  0.0783  0.1552
  461MOL0     C60782   1.677   3.027   6.693 -0.9990 -0.2909  0.0150
  461MOL0     C60783   1.637   3.007   6.832 -0.4249  0.3026  0.4984
  461MOL0     C60784   1.605   3.003   6.948  0.5369 -1.3322  0.0785
  461MOL0     C60785   1.305   2.998   6.055  0.0333 -0.0053 -0.2745
  461MOL0     C60786   1.194   3.015   5.974 -0.6424  0.8431 -0.4757
  461MOL0     H60787   0.872   2.798   5.638 -0.8140 -0.6128  0.2688
  461MOL0     H60788   0.733   2.826   5.447  2.4584  0.2576 -2.1132
  461MOL0     H60789   0.458   2.920   5.477 -0.6901  2.5105  1.2943
  461MOL0     H60790   0.521   2.872   5.318 -1.1334 -0.6030  1.4253
  461MOL0     H60791   0.346   3.107   5.393 -1.4192 -0.4684  1.4581
  461MOL0     H60792   0.293   2.961   5.321  2.0250 -1.5807  3.3153
  461MOL0     H60793   0.437   2.991   5.122 -0.2863  0.4569  1.0937
  461MOL0     H60794   0.456   3.159   5.162 -0.4035  1.2667  0.7145
  461MOL0     H60795   0.170   3.043   5.161 -1.4162  3.2366  1.0218
  461MOL0     H60796   0.233   3.198   5.107 -1.5884  0.2192 -1.9635
  461MOL0     H60797   0.364   3.071   4.920 -1.3480 -0.5053 -1.3864
  461MOL0     H60798   0.193   3.086   4.890 -1.0907 -1.5070 -0.5194
  461MOL0     H60799   0.161   2.850   4.965 -0.0770 -0.4028  2.5332
  461MOL0     H60800   0.327   2.850   5.024 -3.4700  0.7671  2.5337
  461MOL0     H60801   0.230   2.893   4.728 -0.0635 -1.8666 -1.1993
  461MOL0     H60802   0.395   2.904   4.773  0.5047  0.8609  1.6733
  461MOL0     H60803   0.222   2.647   4.828  0.2701 -0.8143 -0.1390
  461MOL0     H60804   0.398   2.653   4.817 -0.0528 -0.4210  0.5777
  461MOL0     H60805   0.327   2.453   4.664 -0.5690  1.1401  1.7681
  461MOL0     H60806   0.221   2.411   4.347  0.8066 -3.6112  1.0399
  461MOL0     H60807   0.386   2.354   4.395  0.3295 -0.4491 -2.8192
  461MOL0     H60808   0.483   2.505   4.225  0.2624  0.2093 -4.2068
  461MOL0     H60809   0.328   2.572   4.188  2.9062  2.1776  0.4945
  461MOL0     H60810   0.404   2.286   4.147  1.7655 -0.0930 -1.3150
  461MOL0     H60811   0.272   2.356   4.069 -0.1318 -3.3360  0.4316
  461MOL0     H60812   0.414   2.521   3.969 -1.5311 -0.5467  1.2574
  461MOL0     H60813   0.444   2.356   3.908  0.7514 -3.8101  2.7597
  461MOL0     H60814   0.840   2.424   4.147  0.7361  0.1797 -0.3644
  461MOL0     H60815   0.966   2.630   4.204  0.3326  3.6222 -0.3639
  461MOL0     H60816   0.978   3.096   4.242  0.5646  2.1745 -1.1928
  461MOL0     H60817   1.145   3.291   4.277 -0.9050  2.0205 -4.1283
  461MOL0     H60818   1.377   3.401   4.046  0.8889  0.8205  0.3973
  461MOL0     H60819   1.506   3.281   4.060  0.3415  0.6881 -2.4640
  461MOL0     H60820   1.628   3.493   4.085 -0.2333 -0.5853 -0.9764
  461MOL0     H60821   1.607   3.423   4.247  0.1483 -0.9183 -1.1678
  461MOL0     H60822   1.407   3.546   4.276 -0.2753 -1.7426  0.5647
  461MOL0     H60823   1.421   3.636   4.135 -1.9063 -2.2121  1.6272
  461MOL0     H60824   1.619   3.636   4.371 -0.0214  0.1081 -0.1626
  461MOL0     H60825   1.662   3.719   4.212  2.4010  0.3605  3.1638
  461MOL0     H60826   1.522   3.867   4.418 -4.7215 -1.0632  2.0902
  461MOL0     H60827   1.396   3.785   4.334 -0.5640  0.2163  1.7377
  461MOL0     H60828   1.493   3.874   4.112 -1.9492 -2.3712  1.9470
  461MOL0     H60829   1.615   3.955   4.204 -0.0373  0.2989  0.2540
  461MOL0     H60830   1.318   4.031   4.176  0.0678  2.6219 -0.7076
  461MOL0     H60831   1.396   4.053   4.330 -1.4355  1.7911  0.5142
  461MOL0     H60832   1.410   4.259   4.197 -1.8942 -1.4809 -0.3560
  461MOL0     H60833   1.509   4.181   4.071  0.0250  1.4301  0.4655
  461MOL0     H60834   1.465   3.055   4.109 -0.0276 -0.2654 -0.6190
  461MOL0     H60835   1.294   2.850   4.098  0.2889  0.4680 -1.7116
  461MOL0     H60836   0.710   2.855   3.936 -1.1124  0.9144  0.0768
  461MOL0     H60837   0.554   2.661   3.933 -0.9477 -2.4543  0.5192
  461MOL0     H60838   0.680   3.239   5.557 -0.5549  0.1117  0.7177
  461MOL0     H60839   0.843   3.208   5.745 -1.2337 -1.0238  2.2241
  461MOL0     H60840   0.932   3.021   6.194 -2.2155 -2.5950 -0.3954
  461MOL0     H60841   1.145   2.988   6.357 -0.1442  2.7991 -0.0921
  461MOL0     H60842   1.344   2.950   6.459 -1.8309  2.5961  0.7523
  461MOL0     H60843   1.385   3.117   6.430 -4.3595 -1.2512 -2.0849
  461MOL0     H60844   1.597   2.899   6.434  2.5672  0.5473  1.8340
  461MOL0     H60845   1.620   3.070   6.415 -2.2154  2.0318  1.1557
  461MOL0     H60846   1.479   2.951   6.643  0.2099 -0.0091  0.8541
  461MOL0     H60847   1.500   3.124   6.626 -0.4121 -0.0308  0.1938
  461MOL0     H60848   1.737   2.941   6.661 -0.6771 -0.7993  1.8762
  461MOL0     H60849   1.733   3.119   6.673 -0.6717 -0.9334 -2.4084
  461MOL0     H60850   1.562   3.008   7.046  0.0920 -0.5165 -0.1418
  461MOL0     H60851   1.407   2.982   6.022  0.2140 -2.5051  1.1891
  461MOL0     H60852   1.200   3.025   5.866 -0.2140 -2.0143 -0.7821
  462MOL0     O60853   5.938   5.523   4.571 -0.2808 -0.9600 -0.1321
  462MOL0     C60854   6.055   5.498   4.611  0.1343  0.2473  0.9341
  462MOL0     O60855   6.150   5.458   4.531 -1.5721  0.6359  0.1506
  462MOL0     C60856   6.121   5.387   4.415 -0.2569 -0.2465 -0.2672
  462MOL0     C60857   6.169   5.424   4.292 -0.8814 -0.6402  0.2233
  462MOL0     C60858   6.120   5.377   4.167 -0.3969  0.1275  0.1447
  462MOL0     C60859   6.024   5.266   4.170  0.6912 -0.3753 -1.2869
  462MOL0     O60860   5.967   5.226   4.044  0.2296 -0.1767 -0.1686
  462MOL0     C60861   5.923   5.089   4.037 -0.0770 -0.6053 -0.3581
  462MOL0     C60862   5.861   5.060   3.907 -0.8305 -0.4343  0.1077
  462MOL0     C60863   5.836   4.910   3.896 -0.2490  0.2273  0.1805
  462MOL0     C60864   5.780   4.884   3.757 -0.0403 -0.3489  0.5251
  462MOL0     C60865   5.729   4.741   3.742  0.1977  0.3537 -0.1385
  462MOL0     C60866   5.691   4.709   3.598  0.3999 -0.0719 -0.0539
  462MOL0     C60867   5.629   4.572   3.570 -0.0161 -0.3720 -0.5711
  462MOL0     C60868   5.513   4.538   3.663  0.8941 -0.0345 -1.1985
  462MOL0     N60869   5.438   4.413   3.638 -0.1949 -0.7123  0.7835
  462MOL0     C60870   5.459   4.283   3.685  0.2879  0.2921  0.8909
  462MOL0     C60871   5.386   4.198   3.600  0.0164 -0.7715 -0.1583
  462MOL0     C60872   5.380   4.045   3.600 -0.5915 -0.0894  0.5025
  462MOL0     C60873   5.512   3.995   3.665  0.2429 -0.5643  1.7686
  462MOL0     C60874   5.646   4.035   3.581  0.5970 -0.2466  0.0362
  462MOL0     C60875   5.768   3.986   3.663  0.1735 -0.1737 -0.0993
  462MOL0     O60876   5.775   4.058   3.791 -0.3259 -0.3779  0.2950
  462MOL0     C60877   5.852   4.022   3.889 -0.3795  0.3704 -0.5158
  462MOL0     C60878   5.905   3.899   3.902 -1.2184  0.6684 -0.4093
  462MOL0     C60879   5.978   3.860   4.014  0.8181  0.2376 -0.0546
  462MOL0     C60880   5.993   3.954   4.123 -0.7822 -0.3464 -0.6813
  462MOL0     C60881   6.064   3.907   4.238  0.7637  0.3020 -0.8961
  462MOL0     O60882   6.082   3.769   4.261 -0.7070 -0.2855 -0.1012
  462MOL0     C60883   6.172   3.724   4.351 -0.0687  0.3456  0.0834
  462MOL0     C60884   6.165   3.763   4.485  0.6716  0.8375 -0.4671
  462MOL0     C60885   6.267   3.732   4.575 -0.8966  0.9177 -0.3129
  462MOL0     C60886   6.377   3.645   4.528  0.1390 -0.5891  0.4774
  462MOL0     O60887   6.479   3.634   4.620  0.9369  0.0436  0.5583
  462MOL0     C60888   6.565   3.525   4.604 -0.0642 -0.8268 -0.4509
  462MOL0     C60889   6.663   3.507   4.724  0.8206  1.4055  0.5934
  462MOL0     C60890   6.786   3.599   4.716  0.6746  0.0851 -0.3656
  462MOL0     C60891   6.885   3.576   4.830 -0.3330  0.0108  0.0703
  462MOL0     C60892   7.020   3.657   4.812 -0.4398 -0.0902 -0.4896
  462MOL0     C60893   6.989   3.805   4.854 -0.0097  1.0532 -0.2399
  462MOL0     C60894   7.105   3.883   4.882 -0.3510  0.2874  0.0647
  462MOL0     C60895   7.151   3.879   5.029  0.4008  0.2991  0.5125
  462MOL0    Cl60896   7.081   4.019   5.112 -0.8340  0.6368 -0.0937
  462MOL0     C60897   6.374   3.600   4.395  0.1000 -1.0749 -0.3232
  462MOL0     C60898   6.276   3.638   4.306 -0.7419 -0.4418  0.2978
  462MOL0     O60899   6.101   4.001   4.304  0.4966  0.4686  0.9478
  462MOL0     C60900   5.949   4.091   4.105  0.0078 -0.0811  0.1270
  462MOL0     C60901   5.877   4.125   3.985 -0.0252  0.7282 -0.4762
  462MOL0     N60902   5.301   4.273   3.520 -0.6702 -0.8476  0.2808
  462MOL0     N60903   5.345   4.399   3.536  0.1176  0.3492  0.0878
  462MOL0     C60904   5.979   5.226   4.293 -0.6667  0.1741 -0.5440
  462MOL0     C60905   6.029   5.281   4.417  0.0292 -0.7840  0.2144
  462MOL0     C60906   6.098   5.542   4.743  0.9072  0.6185 -0.9982
  462MOL0     C60907   6.064   5.675   4.786  0.1357 -0.3777  0.9525
  462MOL0     C60908   6.109   5.714   4.912 -0.3325  0.1968  0.2982
  462MOL0     C60909   6.193   5.635   4.989 -0.2390 -0.4213  0.5514
  462MOL0     O60910   6.219   5.694   5.113 -0.1518 -0.5360  0.0031
  462MOL0     C60911   6.325   5.638   5.199  0.9872  0.7659 -0.0356
  462MOL0     C60912   6.275   5.656   5.351 -0.5810 -0.5431  0.0671
  462MOL0     C60913   6.225   5.801   5.373 -0.0013  0.4408 -0.5016
  462MOL0     C60914   6.347   5.899   5.339  0.0560  0.0062 -0.3031
  462MOL0     C60915   6.379   5.972   5.458 -0.2455 -0.0410  0.7210
  462MOL0     C60916   6.408   6.041   5.550 -0.5040 -0.3876  0.0012
  462MOL0     C60917   6.227   5.507   4.944  0.2398 -1.0392 -0.1791
  462MOL0     C60918   6.175   5.459   4.822  0.1621  0.5770  0.2114
  462MOL0     H60919   6.247   5.500   4.285 -0.2658 -1.3766 -1.4922
  462MOL0     H60920   6.166   5.417   4.077 -0.0180 -1.3343 -0.3440
  462MOL0     H60921   5.845   5.076   4.113  1.4112  1.9712  1.7991
  462MOL0     H60922   6.007   5.024   4.062  0.7662  1.1923  1.8846
  462MOL0     H60923   5.940   5.090   3.839  0.9867  1.0563  2.7033
  462MOL0     H60924   5.763   5.108   3.898  0.5255  2.8973  1.4349
  462MOL0     H60925   5.766   4.893   3.979 -2.3230  1.5703 -1.1976
  462MOL0     H60926   5.923   4.844   3.901 -0.1709  0.0684 -2.2455
  462MOL0     H60927   5.692   4.949   3.745 -0.9804 -1.5204  0.8402
  462MOL0     H60928   5.842   4.913   3.672 -1.7520 -1.5555 -1.2112
  462MOL0     H60929   5.638   4.733   3.802  1.7699 -1.5742  2.2059
  462MOL0     H60930   5.802   4.672   3.786  1.9425  0.9073 -2.0263
  462MOL0     H60931   5.775   4.733   3.533  0.1114  0.6983 -0.1491
  462MOL0     H60932   5.616   4.785   3.574 -0.2398 -0.7469 -0.2410
  462MOL0     H60933   5.594   4.562   3.467  2.4896  0.1147 -1.5385
  462MOL0     H60934   5.704   4.494   3.586  2.4036  1.7112 -1.0519
  462MOL0     H60935   5.450   4.625   3.685 -0.1556 -1.2740  1.0884
  462MOL0     H60936   5.558   4.535   3.762  0.8041  0.2787 -1.1445
  462MOL0     H60937   5.543   4.251   3.746 -0.5919 -1.2217  1.3574
  462MOL0     H60938   5.360   4.005   3.500 -2.8906 -0.4068  1.0484
  462MOL0     H60939   5.296   4.013   3.662  1.5792 -1.1462  3.0864
  462MOL0     H60940   5.503   3.887   3.681 -0.7767 -1.4154 -3.0226
  462MOL0     H60941   5.521   4.039   3.765 -1.7683 -0.4679  1.9491
  462MOL0     H60942   5.639   3.994   3.480  0.0029  1.1310 -0.5139
  462MOL0     H60943   5.659   4.142   3.559 -1.3095 -0.6512 -3.9511
  462MOL0     H60944   5.854   4.022   3.605  0.3180  1.8441  1.2529
  462MOL0     H60945   5.764   3.877   3.670  1.6277 -0.4510 -2.5206
  462MOL0     H60946   5.888   3.811   3.841  3.2483  1.7861 -3.8711
  462MOL0     H60947   6.007   3.756   4.024 -0.4934 -0.0479  1.0750
  462MOL0     H60948   6.099   3.842   4.522  2.6887  2.7245 -0.6850
  462MOL0     H60949   6.251   3.775   4.673 -2.7359 -1.4157  0.4958
  462MOL0     H60950   6.610   3.525   4.505 -1.3952 -3.4933 -1.1601
  462MOL0     H60951   6.504   3.434   4.599  0.9318 -1.5831  0.4792
  462MOL0     H60952   6.703   3.405   4.724 -2.3108  0.0074 -2.3500
  462MOL0     H60953   6.607   3.523   4.817 -1.1464 -1.7169  0.0675
  462MOL0     H60954   6.732   3.694   4.719  1.5641  0.6355 -1.3696
  462MOL0     H60955   6.820   3.579   4.614  0.6439 -2.1314  0.0175
  462MOL0     H60956   6.839   3.603   4.926  1.6783 -0.3529  1.1907
  462MOL0     H60957   6.919   3.473   4.841 -1.9527 -0.4141  1.5001
  462MOL0     H60958   7.064   3.648   4.712  0.6326 -0.6307  0.0070
  462MOL0     H60959   7.100   3.619   4.877 -1.4581 -0.5448  0.5308
  462MOL0     H60960   6.927   3.815   4.943  3.5718  0.5227  2.5460
  462MOL0     H60961   6.925   3.839   4.772 -1.8709  0.7160  1.0169
  462MOL0     H60962   7.196   3.847   4.832  2.0525  2.6346  2.4236
  462MOL0     H60963   7.091   3.987   4.852 -1.1028  0.1423 -0.0885
  462MOL0     H60964   7.260   3.881   5.027  0.4420  1.2922  1.8429
  462MOL0     H60965   7.120   3.784   5.072  1.1730 -0.7968 -1.2661
  462MOL0     H60966   6.450   3.534   4.354 -1.0328 -1.9170 -1.1097
  462MOL0     H60967   6.283   3.602   4.204  1.1648  1.1420 -0.1958
  462MOL0     H60968   5.980   4.172   4.170 -1.3466  0.6246 -0.0604
  462MOL0     H60969   5.858   4.230   3.968 -0.6938  0.3129 -2.5438
  462MOL0     H60970   5.911   5.142   4.292 -0.7870  0.2711 -1.7203
  462MOL0     H60971   5.983   5.243   4.508 -0.7447 -1.4450 -0.4330
  462MOL0     H60972   6.009   5.732   4.712 -1.4814 -2.0224  0.8167
  462MOL0     H60973   6.069   5.808   4.948 -2.6830  0.1336 -1.8622
  462MOL0     H60974   6.419   5.690   5.180  2.5721 -0.2631  4.0375
  462MOL0     H60975   6.330   5.529   5.201  1.8771  0.7258  4.2340
  462MOL0     H60976   6.200   5.580   5.373 -3.2434  1.9436  0.2734
  462MOL0     H60977   6.363   5.646   5.415  0.0376  0.1259 -0.6589
  462MOL0     H60978   6.207   5.815   5.480  3.2300 -0.0067  0.2077
  462MOL0     H60979   6.133   5.826   5.320 -1.5018  0.2868  1.8974
  462MOL0     H60980   6.435   5.833   5.333 -0.3255 -0.8128  2.1755
  462MOL0     H60981   6.345   5.948   5.241 -0.0440  0.1946 -0.2068
  462MOL0     H60982   6.463   6.111   5.609 -2.3660  0.4833  0.7982
  462MOL0     H60983   6.287   5.434   4.998 -2.4369 -1.6155  2.2649
  462MOL0     H60984   6.200   5.359   4.787  1.0395  0.5979  0.7638
  463MOL0     O60985   5.096   3.623   9.786 -0.0203  0.2950  0.2562
  463MOL0     C60986   5.115   3.611   9.905  0.7581  0.3809  0.2080
  463MOL0     O60987   5.194   3.691   9.984 -0.0210 -0.2009  0.3589
  463MOL0     C60988   5.236   3.803   9.921  0.9874  0.4873 -0.3408
  463MOL0     C60989   5.155   3.923   9.920 -0.3770 -0.1229  0.0065
  463MOL0     C60990   5.185   4.036   9.848  0.1390 -0.2479  1.0062
  463MOL0     C60991   5.304   4.035   9.767 -0.8632 -0.8154 -0.5938
  463MOL0     O60992   5.362   4.135   9.692 -0.0384 -0.2156 -0.1504
  463MOL0     C60993   5.309   4.270   9.712  0.2495 -0.8369  0.8118
  463MOL0     C60994   5.385   4.367   9.629  0.2923 -0.2434 -0.1847
  463MOL0     C60995   5.521   4.400   9.693 -0.9573 -0.1551  0.3110
  463MOL0     C60996   5.601   4.511   9.623 -0.6522  0.2622 -0.4905
  463MOL0     C60997   5.567   4.656   9.666 -0.9473  0.4520 -0.1653
  463MOL0     C60998   5.649   4.749   9.577  0.9298  0.0853 -0.0051
  463MOL0     C60999   5.629   4.896   9.618  0.3061 -0.3238  0.3781
  463MOL0     C61000   5.713   4.983   9.525 -1.1116  0.4538 -0.1111
  463MOL0     N61001   5.862   4.964   9.533  0.6789  0.3984 -0.0035
  463MOL0     C61002   5.946   4.946   9.418  0.3595 -1.2213  0.1091
  463MOL0     C61003   6.076   4.983   9.458  0.6357  0.2181  0.9576
  463MOL0     C61004   6.190   4.995   9.370 -0.4823 -0.2833  0.3576
  463MOL0     C61005   6.182   5.140   9.305 -0.9641  1.0098  1.3672
  463MOL0     C61006   6.304   5.187   9.231 -0.6902 -0.5985 -0.0567
  463MOL0     C61007   6.277   5.330   9.168  0.4030 -0.3239 -0.6182
  463MOL0     O61008   6.279   5.438   9.261 -0.2791 -1.0239 -2.0569
  463MOL0     C61009   6.213   5.558   9.230 -0.1305  0.8830 -0.9332
  463MOL0     C61010   6.200   5.646   9.341  0.7293 -0.6786  0.1865
  463MOL0     C61011   6.144   5.772   9.320 -0.1373 -0.0735 -0.5049
  463MOL0     C61012   6.105   5.822   9.193  0.5195  0.3092  0.2803
  463MOL0     C61013   6.062   5.956   9.167 -0.0045 -0.2264 -0.2150
  463MOL0     O61014   6.058   6.042   9.279 -0.0153  0.3234 -0.2913
  463MOL0     C61015   5.988   6.153   9.295  0.3817  0.1571 -0.7318
  463MOL0     C61016   6.051   6.252   9.369  0.2665  0.5585 -0.4303
  463MOL0     C61017   5.994   6.380   9.387  0.9430 -0.7643  0.5749
  463MOL0     C61018   5.860   6.399   9.338  0.2855 -0.6815  0.0398
  463MOL0     O61019   5.789   6.515   9.356 -0.1217 -0.4215 -0.6079
  463MOL0     C61020   5.848   6.630   9.295  0.4273 -0.1022  1.1228
  463MOL0     C61021   5.742   6.740   9.300  0.5772 -0.2362  0.7207
  463MOL0     C61022   5.801   6.878   9.250  0.7035  0.5920  0.1226
  463MOL0     C61023   5.693   6.987   9.270 -0.2827  0.5344  0.2882
  463MOL0     C61024   5.730   7.106   9.189 -0.4939  0.8888  0.2702
  463MOL0     C61025   5.627   7.218   9.204  0.4084  0.6800 -1.0203
  463MOL0     C61026   5.512   7.203   9.100  0.1144 -0.6922 -0.3805
  463MOL0     C61027   5.405   7.313   9.113 -0.8655  0.5674  0.8826
  463MOL0    Cl61028   5.281   7.344   8.989  0.6517 -0.2817  0.4025
  463MOL0     C61029   5.798   6.296   9.269 -0.4683 -0.5548  0.2177
  463MOL0     C61030   5.864   6.174   9.241  0.9606 -0.4830  0.2557
  463MOL0     O61031   6.013   5.979   9.058  0.3216 -0.6897 -0.5731
  463MOL0     C61032   6.132   5.735   9.077  0.1937  0.7353  0.7231
  463MOL0     C61033   6.185   5.604   9.105 -0.5561  0.2861  0.0479
  463MOL0     N61034   6.059   5.029   9.588 -0.5245  0.7762 -1.3094
  463MOL0     N61035   5.935   5.016   9.629  0.1072  0.0481 -0.3575
  463MOL0     C61036   5.385   3.922   9.759  0.6072 -1.0406 -0.1663
  463MOL0     C61037   5.347   3.806   9.839  0.1059  0.1187  0.1700
  463MOL0     C61038   5.061   3.494   9.975  0.6652 -0.1895  0.7368
  463MOL0     C61039   5.040   3.506  10.111 -0.1764  0.2284 -0.8459
  463MOL0     C61040   4.987   3.402  10.182 -1.2386  0.5520 -0.3265
  463MOL0     C61041   4.950   3.282  10.119 -0.0997 -1.0711 -0.7445
  463MOL0     O61042   4.901   3.176  10.196 -0.2687  0.5274  0.0373
  463MOL0     C61043   4.959   3.142  10.328  0.5977 -0.2668 -0.6331
  463MOL0     C61044   5.066   3.042  10.307 -0.4002  0.2408  0.5510
  463MOL0     C61045   5.031   2.901  10.246  0.3106 -0.0035 -0.4594
  463MOL0     C61046   4.930   2.811  10.318  0.4546  0.3791 -0.1130
  463MOL0     C61047   4.971   2.749  10.442  0.1155  0.2068 -0.1625
  463MOL0     C61048   5.013   2.700  10.546  0.1143  0.2434  1.1174
  463MOL0     C61049   4.965   3.276   9.981 -0.5005 -0.1406  1.1454
  463MOL0     C61050   5.011   3.385   9.904 -0.7209  0.4136  0.5903
  463MOL0     H61051   5.059   3.914   9.970 -1.2580 -1.0359 -1.7602
  463MOL0     H61052   5.118   4.121   9.834  1.4673  0.6681  0.0787
  463MOL0     H61053   5.308   4.286   9.820 -1.4921  0.2120  0.6858
  463MOL0     H61054   5.211   4.281   9.664  2.1091  0.1226 -3.2647
  463MOL0     H61055   5.331   4.462   9.637  0.4311 -0.2563  1.3408
  463MOL0     H61056   5.392   4.337   9.524 -0.2275  0.8942 -0.5636
  463MOL0     H61057   5.579   4.309   9.711  0.5772  0.7548  0.1452
  463MOL0     H61058   5.500   4.443   9.791  0.6007  1.3626  0.0146
  463MOL0     H61059   5.707   4.489   9.639  0.1362  3.6754 -0.2904
  463MOL0     H61060   5.587   4.503   9.515  1.8066  3.4117 -1.1830
  463MOL0     H61061   5.591   4.676   9.770  1.1733  0.0617 -0.5478
  463MOL0     H61062   5.458   4.658   9.659 -1.2390 -3.1156  1.2533
  463MOL0     H61063   5.623   4.735   9.472 -0.2823 -2.5586  0.5684
  463MOL0     H61064   5.754   4.730   9.597  0.3835  1.1830  5.4244
  463MOL0     H61065   5.521   4.907   9.609  0.3174 -0.4486  0.0526
  463MOL0     H61066   5.662   4.920   9.720 -2.4268  0.6865  1.0913
  463MOL0     H61067   5.692   5.084   9.562 -1.3839  0.3163  0.1112
  463MOL0     H61068   5.678   4.976   9.422 -1.1805 -3.3336  0.0415
  463MOL0     H61069   5.917   4.902   9.323 -2.0675 -0.6348  0.5342
  463MOL0     H61070   6.173   4.926   9.287 -1.4252  2.7806 -2.2135
  463MOL0     H61071   6.280   4.974   9.429 -1.7316 -0.2691  2.3684
  463MOL0     H61072   6.168   5.209   9.388 -0.9977  2.9146 -0.1383
  463MOL0     H61073   6.095   5.139   9.239  0.6583 -2.3604 -1.0072
  463MOL0     H61074   6.388   5.186   9.301 -1.5704  1.4597  1.0807
  463MOL0     H61075   6.335   5.122   9.148  4.0789  0.3283  0.7153
  463MOL0     H61076   6.186   5.314   9.109 -0.4232 -0.9228  0.7678
  463MOL0     H61077   6.363   5.352   9.104  1.1384 -1.2980  0.0184
  463MOL0     H61078   6.240   5.641   9.442  1.8272  1.1773 -0.1026
  463MOL0     H61079   6.151   5.849   9.396 -1.1683  1.2358 -1.6631
  463MOL0     H61080   6.146   6.226   9.416  0.9011  0.1009 -1.9099
  463MOL0     H61081   6.055   6.461   9.427 -1.0251  1.4486 -0.6055
  463MOL0     H61082   5.854   6.600   9.190  0.5892 -0.4284  1.2245
  463MOL0     H61083   5.947   6.660   9.330 -0.0709  2.0271  0.8686
  463MOL0     H61084   5.691   6.746   9.397 -2.2386  0.6193 -0.7078
  463MOL0     H61085   5.661   6.708   9.234  2.1354 -0.8372 -0.9613
  463MOL0     H61086   5.832   6.862   9.146 -2.0815 -1.5666 -0.5207
  463MOL0     H61087   5.892   6.904   9.304  3.2403 -3.7648 -1.5645
  463MOL0     H61088   5.600   6.955   9.223 -1.1288  3.6844 -0.3700
  463MOL0     H61089   5.678   7.018   9.374  0.8258  2.8080 -0.1533
  463MOL0     H61090   5.730   7.083   9.082  3.7701  1.1358  0.0344
  463MOL0     H61091   5.832   7.137   9.216  0.4799 -1.3225 -0.6010
  463MOL0     H61092   5.680   7.313   9.191  0.3946  0.5848 -1.8056
  463MOL0     H61093   5.594   7.218   9.309  1.9238  0.8973 -0.5253
  463MOL0     H61094   5.558   7.201   9.000 -1.1901  0.6536 -1.0425
  463MOL0     H61095   5.458   7.108   9.110 -0.8324  0.0638  2.6310
  463MOL0     H61096   5.442   7.414   9.133 -0.8562  0.8225 -0.3684
  463MOL0     H61097   5.352   7.294   9.207 -4.0456  0.9666 -0.6674
  463MOL0     H61098   5.697   6.322   9.241  0.4806  0.3463 -2.7293
  463MOL0     H61099   5.814   6.102   9.176  2.6283  1.7975 -3.9855
  463MOL0     H61100   6.109   5.767   8.976  1.1324  0.0331  0.2741
  463MOL0     H61101   6.207   5.541   9.019 -0.3843  1.0686 -0.4917
  463MOL0     H61102   5.478   3.922   9.703  0.1758  1.7686 -1.0303
  463MOL0     H61103   5.419   3.726   9.829 -0.5435 -0.4376 -0.1578
  463MOL0     H61104   5.059   3.599  10.165  1.0185 -1.3201  1.5699
  463MOL0     H61105   4.961   3.406  10.287  0.2782 -3.0559  0.3382
  463MOL0     H61106   4.885   3.110  10.402 -3.8536 -0.3262 -4.6032
  463MOL0     H61107   5.009   3.228  10.373 -1.5901  2.2527 -2.7294
  463MOL0     H61108   5.135   3.092  10.238  0.4642 -0.0127  1.2171
  463MOL0     H61109   5.136   3.037  10.391  1.3464  3.7367 -0.5114
  463MOL0     H61110   5.131   2.857  10.256  0.3946  0.5950  2.1514
  463MOL0     H61111   4.995   2.911  10.143 -0.3366  2.0022 -0.0855
  463MOL0     H61112   4.838   2.867  10.338 -0.1933 -0.6638 -0.0765
  463MOL0     H61113   4.897   2.739  10.243  2.3422  0.4374 -1.0469
  463MOL0     H61114   5.052   2.672  10.641  1.9568  3.3918  1.4485
  463MOL0     H61115   4.909   3.196   9.932 -0.7415 -0.2027  1.5218
  463MOL0     H61116   5.015   3.367   9.797  2.7757  2.6828  0.1999
  464MOL0     O61117   3.254  10.236   5.471  0.9444 -0.6380  0.1109
  464MOL0     C61118   3.344  10.156   5.487  0.1243 -0.6970  0.1013
  464MOL0     O61119   3.472  10.185   5.513  0.7210  0.1674 -0.3070
  464MOL0     C61120   3.508  10.312   5.543  0.1200  0.0642  0.1628
  464MOL0     C61121   3.533  10.351   5.672  0.5633 -1.1098 -1.0740
  464MOL0     C61122   3.596  10.475   5.684  0.3894 -1.3880 -0.0107
  464MOL0     C61123   3.636  10.553   5.576  0.5057 -0.7400 -0.2532
  464MOL0     O61124   3.713  10.663   5.602 -0.4900 -0.7068  0.5730
  464MOL0     C61125   3.737  10.753   5.497  0.6812  0.1819  0.0394
  464MOL0     C61126   3.824  10.860   5.563 -1.2677  0.4644  1.0604
  464MOL0     C61127   3.759  10.955   5.665  0.0334  0.0538  0.4876
  464MOL0     C61128   3.673  11.057   5.591  0.0179 -0.3870 -0.3542
  464MOL0     C61129   3.682  11.208   5.647 -0.1465 -0.2181 -0.0288
  464MOL0     C61130   3.812  11.276   5.626 -0.0979  0.1163 -0.0632
  464MOL0     C61131   3.829  11.429   5.667 -0.1669  0.5303  0.0280
  464MOL0     C61132   3.923  11.444   5.787 -0.3171 -0.1334  0.4705
  464MOL0     N61133   3.852  11.430   5.911  0.1417 -0.3471 -0.6240
  464MOL0     C61134   3.835  11.318   5.978 -0.1268 -0.6948  0.3992
  464MOL0     C61135   3.746  11.352   6.074 -0.4295 -0.0620 -0.0553
  464MOL0     C61136   3.665  11.258   6.151  0.5387  0.2870  0.0628
  464MOL0     C61137   3.525  11.245   6.083  0.1743  0.1585  0.6919
  464MOL0     C61138   3.532  11.127   5.985 -0.4822  0.0588 -1.0591
  464MOL0     C61139   3.480  10.987   6.043 -0.2042 -0.3038  0.6742
  464MOL0     O61140   3.565  10.938   6.145 -0.7751 -0.3369 -0.4913
  464MOL0     C61141   3.515  10.858   6.245 -0.3924  0.1472  0.2046
  464MOL0     C61142   3.403  10.773   6.227  0.3970  1.2206 -0.1327
  464MOL0     C61143   3.372  10.677   6.330  0.1151 -0.3434  1.1329
  464MOL0     C61144   3.451  10.679   6.445  0.1469  0.3487 -0.8777
  464MOL0     C61145   3.416  10.588   6.551  0.7649 -0.8357 -0.4083
  464MOL0     O61146   3.517  10.558   6.640 -0.9277 -0.3011  0.0550
  464MOL0     C61147   3.487  10.471   6.733  0.1122  0.5444 -0.9169
  464MOL0     C61148   3.511  10.331   6.717  0.2387  0.1508  0.1828
  464MOL0     C61149   3.472  10.240   6.815  0.6567  0.8391  0.2093
  464MOL0     C61150   3.407  10.276   6.934 -0.5748  0.0150 -0.2133
  464MOL0     O61151   3.349  10.178   7.017 -0.2799  0.0704  1.0042
  464MOL0     C61152   3.376  10.195   7.158 -0.1825 -0.7722 -0.4683
  464MOL0     C61153   3.324  10.084   7.246 -0.6822  0.3387  0.1245
  464MOL0     C61154   3.375  10.093   7.389  0.7096 -0.0993 -0.0992
  464MOL0     C61155   3.324   9.984   7.484 -0.3721  0.0884 -0.4949
  464MOL0     C61156   3.415   9.855   7.465  0.0657 -0.2349  0.7713
  464MOL0     C61157   3.565   9.872   7.475  0.3236 -0.7529 -0.0972
  464MOL0     C61158   3.642   9.743   7.476  0.8661  0.0014  0.1939
  464MOL0     C61159   3.608   9.652   7.588 -0.7000 -0.5285 -0.4384
  464MOL0    Cl61160   3.724   9.508   7.587 -0.2592 -0.4898 -0.0014
  464MOL0     C61161   3.384  10.410   6.954  0.0861 -0.3129 -0.5830
  464MOL0     C61162   3.440  10.507   6.863 -0.2334 -0.0732 -0.2394
  464MOL0     O61163   3.305  10.533   6.546 -0.5972  0.0074 -0.2602
  464MOL0     C61164   3.552  10.775   6.465 -0.2560  0.5718 -0.0755
  464MOL0     C61165   3.576  10.864   6.372  0.1341  0.2807 -0.7014
  464MOL0     N61166   3.730  11.486   6.078 -0.1206  0.8397  0.4375
  464MOL0     N61167   3.780  11.530   5.973 -0.2325  0.4390 -0.0097
  464MOL0     C61168   3.594  10.522   5.450  0.6342 -0.4550 -0.0621
  464MOL0     C61169   3.524  10.401   5.432 -0.1208  0.1393  0.2649
  464MOL0     C61170   3.309  10.016   5.479 -0.1882 -0.6064 -0.3394
  464MOL0     C61171   3.204   9.975   5.562  0.4476  1.0158 -0.2900
  464MOL0     C61172   3.144   9.848   5.558 -0.3885 -0.1242  0.1703
  464MOL0     C61173   3.209   9.751   5.482  0.4232 -0.3643 -0.2436
  464MOL0     O61174   3.157   9.626   5.443 -0.1986 -1.0802 -0.6984
  464MOL0     C61175   3.031   9.576   5.498 -1.0286 -0.2504 -0.5869
  464MOL0     C61176   3.002   9.448   5.434  0.2431 -0.1987  0.5229
  464MOL0     C61177   2.918   9.354   5.531 -0.0083  0.4701  0.5945
  464MOL0     C61178   2.891   9.214   5.477 -1.0220 -0.4556 -0.2838
  464MOL0     C61179   2.853   9.107   5.575 -0.7474 -0.6085  0.1998
  464MOL0     C61180   2.801   9.024   5.643  0.2674  0.0489  0.2974
  464MOL0     C61181   3.323   9.786   5.401 -0.8500  0.3503  0.2453
  464MOL0     C61182   3.377   9.915   5.409 -0.6001 -0.1201 -0.0247
  464MOL0     H61183   3.506  10.300   5.764  0.4170  1.5917  0.4939
  464MOL0     H61184   3.635  10.491   5.784  1.0763 -2.6059 -0.0573
  464MOL0     H61185   3.646  10.800   5.458  0.9245  3.1365  2.5870
  464MOL0     H61186   3.788  10.691   5.422  2.4915 -1.2433  2.2956
  464MOL0     H61187   3.872  10.917   5.483 -0.8350 -2.0336 -0.5496
  464MOL0     H61188   3.910  10.818   5.616 -1.6327  0.6449  1.8201
  464MOL0     H61189   3.835  11.001   5.730  0.4957 -0.0366  0.0210
  464MOL0     H61190   3.690  10.903   5.732  2.7252 -1.1211  2.5396
  464MOL0     H61191   3.714  11.064   5.489 -1.4183 -0.6654 -0.9746
  464MOL0     H61192   3.566  11.037   5.596 -1.4951  5.8796  0.6771
  464MOL0     H61193   3.658  11.217   5.754  1.4418  2.6794  0.2030
  464MOL0     H61194   3.612  11.268   5.589  0.5878  3.6111  2.6340
  464MOL0     H61195   3.820  11.274   5.517  3.7225 -0.5018  0.1186
  464MOL0     H61196   3.890  11.214   5.670 -2.6215 -2.5957  0.9395
  464MOL0     H61197   3.886  11.478   5.589  4.7908 -2.1763  1.4972
  464MOL0     H61198   3.731  11.476   5.683 -0.0198  0.4231  1.4062
  464MOL0     H61199   3.965  11.545   5.794 -0.0715 -0.0810 -1.3277
  464MOL0     H61200   4.011  11.381   5.776  0.3483  1.0868 -1.9501
  464MOL0     H61201   3.848  11.217   5.939  0.8572 -0.7873  0.9246
  464MOL0     H61202   3.651  11.307   6.248  0.1359  1.3647 -0.5286
  464MOL0     H61203   3.710  11.160   6.168 -0.4770  0.1444  2.3418
  464MOL0     H61204   3.515  11.344   6.039  1.5763 -0.6220 -1.5578
  464MOL0     H61205   3.458  11.220   6.166 -2.1122  1.6800 -0.6141
  464MOL0     H61206   3.463  11.154   5.904 -1.0877  1.0557 -0.2431
  464MOL0     H61207   3.630  11.110   5.940  1.8894 -0.7353  3.7641
  464MOL0     H61208   3.491  10.918   5.959 -2.2318 -0.9836  0.9148
  464MOL0     H61209   3.373  11.007   6.057 -1.0791  0.8830 -5.0286
  464MOL0     H61210   3.339  10.772   6.140 -3.2212 -0.7779  2.2680
  464MOL0     H61211   3.295  10.603   6.314  1.7799 -2.2110  1.3005
  464MOL0     H61212   3.552  10.276   6.633  1.2946  1.1450  0.0232
  464MOL0     H61213   3.472  10.134   6.789  0.7020  0.4487  1.6941
  464MOL0     H61214   3.345  10.293   7.194  1.6238 -0.0884 -0.6818
  464MOL0     H61215   3.484  10.198   7.172 -0.3488  3.1944  1.2931
  464MOL0     H61216   3.370   9.992   7.211  0.8146  0.9689  0.3671
  464MOL0     H61217   3.215  10.086   7.242 -0.8896 -0.4253  3.3000
  464MOL0     H61218   3.332  10.187   7.426 -3.6049 -1.7890 -0.3401
  464MOL0     H61219   3.485  10.091   7.392  0.6715 -1.1166  1.1021
  464MOL0     H61220   3.338  10.026   7.585 -0.1047 -1.5195  0.1613
  464MOL0     H61221   3.219   9.969   7.457  0.1355  1.1726 -3.4044
  464MOL0     H61222   3.390   9.809   7.370 -3.4439 -1.0078  1.9124
  464MOL0     H61223   3.389   9.778   7.538 -0.1846 -0.1050  0.8216
  464MOL0     H61224   3.581   9.931   7.565 -1.2641  1.5226 -1.2299
  464MOL0     H61225   3.608   9.929   7.392  1.9660  1.4436  2.1328
  464MOL0     H61226   3.640   9.689   7.380  1.9951  1.2778 -0.5807
  464MOL0     H61227   3.750   9.763   7.483  0.7754  0.5002  0.1880
  464MOL0     H61228   3.511   9.602   7.583  0.0680 -2.1092  0.0289
  464MOL0     H61229   3.619   9.705   7.683  0.8267 -2.0133  0.2566
  464MOL0     H61230   3.335  10.447   7.044 -0.5815 -2.9573  0.2300
  464MOL0     H61231   3.419  10.611   6.888  1.0856  0.2643 -0.4664
  464MOL0     H61232   3.610  10.790   6.556  0.5517 -0.8169 -0.3249
  464MOL0     H61233   3.652  10.941   6.388  1.6258 -0.3897 -3.7364
  464MOL0     H61234   3.617  10.585   5.364 -1.3817  0.5838  0.0916
  464MOL0     H61235   3.478  10.375   5.337  0.5953 -0.5914  0.1088
  464MOL0     H61236   3.152  10.050   5.621  2.2358  3.3618 -1.5450
  464MOL0     H61237   3.053   9.827   5.615  0.1058 -2.7007  0.1361
  464MOL0     H61238   2.950   9.649   5.485 -1.1095 -0.4253 -1.0558
  464MOL0     H61239   3.053   9.561   5.604  1.3275  3.5829 -0.3435
  464MOL0     H61240   2.954   9.463   5.336 -1.1470  1.3139  1.3805
  464MOL0     H61241   3.100   9.407   5.407  0.8486  0.8670  1.0340
  464MOL0     H61242   2.826   9.407   5.557  0.1970  0.6551  0.9540
  464MOL0     H61243   2.973   9.342   5.624 -0.0701  0.5690  0.6442
  464MOL0     H61244   2.805   9.213   5.409 -3.0552  1.2797  2.0778
  464MOL0     H61245   2.979   9.178   5.423  1.2003  4.4161 -0.4117
  464MOL0     H61246   2.772   8.941   5.706  1.5974  1.8632  3.5208
  464MOL0     H61247   3.379   9.719   5.336  0.1068  1.3863 -0.0144
  464MOL0     H61248   3.471   9.931   5.356 -1.4699 -1.2056 -1.9878
  465MOL0     O61249   7.943   2.510   5.024  0.7182  0.8117  0.1213
  465MOL0     C61250   7.894   2.563   5.122 -0.3754  0.7883 -0.6114
  465MOL0     O61251   7.969   2.629   5.228  1.0410 -0.6196  0.0118
  465MOL0     C61252   8.105   2.627   5.215  0.7180  0.5664 -0.1709
  465MOL0     C61253   8.181   2.719   5.139  0.8547  0.5886 -0.6727
  465MOL0     C61254   8.320   2.710   5.139 -0.4719 -0.2765 -0.4496
  465MOL0     C61255   8.391   2.611   5.199  0.5037 -0.3920 -0.8119
  465MOL0     O61256   8.520   2.582   5.188  0.3201 -0.6879 -0.4217
  465MOL0     C61257   8.558   2.541   5.060  0.2275  0.0679 -0.2268
  465MOL0     C61258   8.708   2.510   5.081  0.4100  0.2950  0.3086
  465MOL0     C61259   8.741   2.393   5.174 -0.6534  0.3928  0.4291
  465MOL0     C61260   8.704   2.255   5.119  0.3655 -0.5447  1.1176
  465MOL0     C61261   8.785   2.150   5.182 -0.0985  0.3293 -0.5154
  465MOL0     C61262   8.720   2.015   5.173 -0.1981 -0.3322 -0.0283
  465MOL0     C61263   8.786   1.914   5.253  0.0881 -0.7097 -1.1971
  465MOL0     C61264   8.684   1.800   5.255 -0.0437  0.6867  0.7702
  465MOL0     N61265   8.731   1.697   5.348 -0.1463  0.0291 -0.1683
  465MOL0     C61266   8.702   1.709   5.490  0.8657  0.0168 -0.2755
  465MOL0     C61267   8.728   1.583   5.534 -1.0669  0.6756 -0.4121
  465MOL0     C61268   8.743   1.543   5.675  0.2972  0.1703 -0.9645
  465MOL0     C61269   8.877   1.470   5.688 -0.2052 -0.5015  0.3367
  465MOL0     C61270   8.901   1.442   5.834  0.2950 -1.0994  0.1282
  465MOL0     C61271   9.015   1.356   5.865  0.5393  0.1914 -1.1019
  465MOL0     O61272   8.968   1.246   5.941 -0.2033 -0.8735  0.2900
  465MOL0     C61273   9.060   1.212   6.043 -0.2930  0.2076  0.2310
  465MOL0     C61274   9.179   1.148   6.022 -0.1825  0.3281 -0.2156
  465MOL0     C61275   9.248   1.100   6.140 -0.4926 -0.2033  1.1067
  465MOL0     C61276   9.202   1.132   6.273 -0.7684  0.2347 -0.5954
  465MOL0     C61277   9.284   1.087   6.387 -0.5532  0.9987  0.2948
  465MOL0     O61278   9.376   0.985   6.370 -0.4269  1.0029 -0.1747
  465MOL0     C61279   9.467   0.949   6.470  0.6471  0.6008 -0.6722
  465MOL0     C61280   9.589   0.903   6.416 -1.6097  0.2064  0.2659
  465MOL0     C61281   9.694   0.874   6.503  0.4608 -0.1753 -0.5632
  465MOL0     C61282   9.684   0.878   6.644  0.5430 -0.4467 -0.6273
  465MOL0     O61283   9.801   0.870   6.726 -0.7580 -0.4177 -0.8422
  465MOL0     C61284   9.780   0.899   6.864  0.2251  0.3104  0.2006
  465MOL0     C61285   9.911   0.886   6.936 -1.2964 -0.1983  0.5708
  465MOL0     C61286  10.003   1.006   6.904  0.2442 -0.1027  0.2437
  465MOL0     C61287  10.152   0.973   6.963  0.3164  0.6633 -0.3677
  465MOL0     C61288  10.249   1.092   6.963 -0.4608 -0.0473  0.1132
  465MOL0     C61289  10.390   1.060   7.025  0.3170  0.5359  1.3013
  465MOL0     C61290  10.506   1.126   6.960  0.0461 -0.2298 -0.1995
  465MOL0     C61291  10.631   1.144   7.053  0.1962  0.7418 -0.0610
  465MOL0    Cl61292  10.725   1.000   7.012 -0.2441 -0.2650  0.8791
  465MOL0     C61293   9.553   0.916   6.693 -0.2980 -0.0905  0.3959
  465MOL0     C61294   9.447   0.947   6.607  0.1640 -0.6635 -0.3000
  465MOL0     O61295   9.259   1.146   6.485 -0.5268 -0.6054 -1.1457
  465MOL0     C61296   9.084   1.194   6.289  1.1530  0.0405 -0.3177
  465MOL0     C61297   9.014   1.235   6.176 -1.2015 -0.5726 -0.8284
  465MOL0     N61298   8.757   1.504   5.420  0.1746 -0.2402 -0.1321
  465MOL0     N61299   8.755   1.573   5.313 -0.5205  0.0019 -0.4907
  465MOL0     C61300   8.316   2.511   5.276 -0.2465  0.5510  0.0662
  465MOL0     C61301   8.174   2.529   5.287 -0.0250  0.2229  0.5828
  465MOL0     C61302   7.743   2.547   5.126  0.3753  1.1911 -0.2266
  465MOL0     C61303   7.668   2.603   5.232  0.3481 -1.0935  0.2587
  465MOL0     C61304   7.536   2.568   5.248 -0.1183  0.3771  0.0683
  465MOL0     C61305   7.472   2.487   5.152 -0.3757 -0.1429 -0.0413
  465MOL0     O61306   7.340   2.458   5.177  0.2473  0.2889  0.6484
  465MOL0     C61307   7.254   2.399   5.070  0.8351 -0.5393  1.0647
  465MOL0     C61308   7.106   2.400   5.097  0.8072 -0.0584 -0.4136
  465MOL0     C61309   7.055   2.547   5.129 -0.4754  0.2028  0.1568
  465MOL0     C61310   7.034   2.574   5.275 -0.1051 -0.4505  0.2572
  465MOL0     C61311   6.995   2.709   5.291  0.0402  0.4029  0.2981
  465MOL0     C61312   6.956   2.823   5.310  0.5269  0.5087 -0.6908
  465MOL0     C61313   7.543   2.438   5.047 -0.0450  0.7032  0.2373
  465MOL0     C61314   7.678   2.465   5.035 -1.2553  0.1525 -0.2218
  465MOL0     H61315   8.137   2.783   5.063 -1.3479 -0.3702 -0.2782
  465MOL0     H61316   8.376   2.784   5.084  0.6244 -1.1639 -0.5801
  465MOL0     H61317   8.546   2.622   4.987  1.8156  0.3136 -0.2526
  465MOL0     H61318   8.512   2.450   5.022  2.2487  0.1084 -3.1733
  465MOL0     H61319   8.751   2.600   5.128  1.1116 -0.1892  0.6102
  465MOL0     H61320   8.747   2.491   4.981  0.4964  1.0647  0.1845
  465MOL0     H61321   8.683   2.407   5.265 -0.7642 -0.5255  0.5087
  465MOL0     H61322   8.848   2.407   5.194 -0.0193 -1.0739 -1.6043
  465MOL0     H61323   8.595   2.248   5.130  0.1166  0.3519 -0.5118
  465MOL0     H61324   8.730   2.258   5.013 -1.4497  1.0387  0.6436
  465MOL0     H61325   8.782   2.165   5.290 -1.1618 -1.6414 -0.2356
  465MOL0     H61326   8.884   2.145   5.134  0.5432  0.3160  0.7664
  465MOL0     H61327   8.725   1.984   5.068  4.0546 -0.4147  0.0203
  465MOL0     H61328   8.621   2.025   5.217  0.8180 -0.8941  2.5487
  465MOL0     H61329   8.884   1.874   5.225  1.7483  0.2249  2.7261
  465MOL0     H61330   8.802   1.947   5.355  0.4314 -1.1851 -1.0928
  465MOL0     H61331   8.682   1.755   5.156 -3.2024  0.5618  0.7781
  465MOL0     H61332   8.582   1.832   5.279 -0.8110 -0.3359 -1.0078
  465MOL0     H61333   8.682   1.796   5.552 -0.3881 -0.6243  0.2463
  465MOL0     H61334   8.662   1.473   5.698  0.7841 -0.9441 -2.4621
  465MOL0     H61335   8.741   1.639   5.727 -0.7717  0.1974 -1.0287
  465MOL0     H61336   8.959   1.529   5.646 -2.5245  1.7217 -1.3749
  465MOL0     H61337   8.855   1.372   5.644 -0.8455  0.1402 -0.8236
  465MOL0     H61338   8.918   1.534   5.891  3.2672  0.4238 -2.8313
  465MOL0     H61339   8.808   1.402   5.875 -0.3887 -0.7534 -1.0470
  465MOL0     H61340   9.094   1.405   5.923 -0.1815 -2.5422  2.5601
  465MOL0     H61341   9.065   1.317   5.776  5.8652  1.5979  0.8784
  465MOL0     H61342   9.226   1.129   5.926 -1.6689 -1.1046 -0.7161
  465MOL0     H61343   9.347   1.055   6.151  0.3880  1.8218  1.9967
  465MOL0     H61344   9.604   0.902   6.309 -0.0594 -0.5459  0.4574
  465MOL0     H61345   9.787   0.841   6.459 -0.1310 -4.2200  0.7738
  465MOL0     H61346   9.700   0.845   6.916  0.5247 -0.7031 -0.3560
  465MOL0     H61347   9.754   1.005   6.873  2.1393  0.6570  5.1075
  465MOL0     H61348   9.965   0.799   6.896 -1.6232  0.5470 -1.6512
  465MOL0     H61349   9.893   0.879   7.043 -4.4527  0.0233  0.1591
  465MOL0     H61350   9.970   1.101   6.946 -1.1471 -0.3621 -0.2077
  465MOL0     H61351  10.009   1.026   6.797 -1.1857 -0.2697  0.1098
  465MOL0     H61352  10.144   0.945   7.068 -0.8007 -3.1714 -1.3274
  465MOL0     H61353  10.201   0.886   6.919  1.0243  1.8558 -2.0683
  465MOL0     H61354  10.203   1.183   7.001  1.1178  1.3124 -1.1044
  465MOL0     H61355  10.269   1.111   6.857  1.9888 -0.3881  0.4537
  465MOL0     H61356  10.401   0.951   7.022  1.9089  0.7075 -0.1962
  465MOL0     H61357  10.392   1.092   7.130  0.8950  0.4095  1.3312
  465MOL0     H61358  10.511   1.093   6.856 -1.3188 -0.1586 -0.3092
  465MOL0     H61359  10.461   1.225   6.950 -1.5659 -0.5119  3.0732
  465MOL0     H61360  10.594   1.148   7.156 -0.5511 -1.7559 -0.1764
  465MOL0     H61361  10.687   1.238   7.048  0.7607  0.3372 -2.9300
  465MOL0     H61362   9.530   0.922   6.799 -1.5480 -3.3083  0.4399
  465MOL0     H61363   9.351   0.983   6.642  1.3112  2.4038 -0.0690
  465MOL0     H61364   9.039   1.225   6.382  0.3853 -0.3329 -0.5609
  465MOL0     H61365   8.915   1.280   6.184 -1.3497 -0.7221 -1.7314
  465MOL0     H61366   8.376   2.428   5.310  0.1346  0.1627 -1.5101
  465MOL0     H61367   8.109   2.465   5.347 -2.0726  1.4670 -0.2046
  465MOL0     H61368   7.717   2.669   5.303  0.8622  1.1599 -2.0304
  465MOL0     H61369   7.473   2.619   5.321 -0.6851 -0.6047  0.2840
  465MOL0     H61370   7.284   2.294   5.058  3.0312 -0.0528  1.7504
  465MOL0     H61371   7.274   2.455   4.977 -0.7750  2.9783  2.6533
  465MOL0     H61372   7.053   2.356   5.012 -0.1249 -1.4452  0.8338
  465MOL0     H61373   7.096   2.330   5.180  1.5288  0.9790  0.5812
  465MOL0     H61374   6.953   2.556   5.090 -0.6937 -1.9548  0.1115
  465MOL0     H61375   7.136   2.604   5.084  0.3424  0.1141  1.4479
  465MOL0     H61376   6.982   2.500   5.337  1.1290 -2.8954 -1.4688
  465MOL0     H61377   7.129   2.565   5.329 -0.0276  0.3998  0.2776
  465MOL0     H61378   6.932   2.925   5.334  0.7997  0.1501  1.2704
  465MOL0     H61379   7.490   2.385   4.969 -0.5784  3.6630 -1.5688
  465MOL0     H61380   7.718   2.423   4.943 -0.7111 -3.0981  1.3407
  466MOL0     O61381   5.185   2.423   3.735  1.1581 -0.6881 -0.0139
  466MOL0     C61382   5.216   2.475   3.629 -0.0847 -0.3521  0.2071
  466MOL0     O61383   5.328   2.475   3.556  0.1575 -0.1358  0.5829
  466MOL0     C61384   5.443   2.418   3.595 -0.1873 -0.1157 -0.8135
  466MOL0     C61385   5.495   2.423   3.727  0.2730 -0.8215 -0.8215
  466MOL0     C61386   5.614   2.364   3.756 -0.6407  0.0295 -0.3966
  466MOL0     C61387   5.694   2.295   3.668 -0.4543 -0.1681 -0.9504
  466MOL0     O61388   5.801   2.238   3.724  0.1587  0.6150 -0.0800
  466MOL0     C61389   5.929   2.269   3.663  0.7327 -0.4982  0.1984
  466MOL0     C61390   6.052   2.207   3.734  0.2078 -0.2197  0.2012
  466MOL0     C61391   6.078   2.258   3.875  0.8406 -0.2073  1.0315
  466MOL0     C61392   6.189   2.181   3.934  0.5302 -0.2386 -0.4504
  466MOL0     C61393   6.198   2.205   4.088 -1.0284  0.8214  0.5506
  466MOL0     C61394   6.335   2.180   4.140 -0.8675 -0.1759  0.1974
  466MOL0     C61395   6.397   2.047   4.096 -0.9029 -0.4575 -1.5436
  466MOL0     C61396   6.315   1.928   4.123  0.6698  0.3295 -1.3670
  466MOL0     N61397   6.400   1.819   4.068 -0.1584  0.0414 -0.4281
  466MOL0     C61398   6.389   1.758   3.951  0.5895  0.4210  0.1324
  466MOL0     C61399   6.471   1.651   3.962  0.5925 -0.5912 -0.1421
  466MOL0     C61400   6.481   1.549   3.855 -0.1952  0.1379 -0.7337
  466MOL0     C61401   6.364   1.539   3.761  0.5884  1.0547  0.3320
  466MOL0     C61402   6.408   1.464   3.630  1.1613 -0.6258  0.6264
  466MOL0     C61403   6.405   1.310   3.644  0.4691  0.3912  0.3565
  466MOL0     O61404   6.401   1.263   3.778  0.0899 -0.6058 -0.6984
  466MOL0     C61405   6.336   1.147   3.806 -0.2593  1.4142  0.1172
  466MOL0     C61406   6.290   1.046   3.721 -0.7136 -0.6371  0.1094
  466MOL0     C61407   6.228   0.934   3.770  0.4506  0.2751 -0.5184
  466MOL0     C61408   6.216   0.911   3.907 -0.4749  0.1269  0.0563
  466MOL0     C61409   6.168   0.781   3.957  0.8364 -0.5064 -0.8748
  466MOL0     O61410   6.175   0.763   4.092  0.2036  0.4155  0.4444
  466MOL0     C61411   6.204   0.635   4.134  0.1119 -0.9741  1.5846
  466MOL0     C61412   6.341   0.589   4.132 -0.5557 -0.2055 -0.4711
  466MOL0     C61413   6.377   0.480   4.212 -0.1021 -0.2002 -0.1352
  466MOL0     C61414   6.283   0.411   4.280 -0.0080  1.3502 -0.5614
  466MOL0     O61415   6.315   0.295   4.360 -0.4990 -0.3203 -0.1970
  466MOL0     C61416   6.426   0.206   4.341 -0.5555 -0.1774 -0.2876
  466MOL0     C61417   6.505   0.233   4.476 -0.1803 -0.4901 -0.1808
  466MOL0     C61418   6.486   0.134   4.586 -0.1356 -0.4465 -0.2570
  466MOL0     C61419   6.342   0.137   4.648 -0.3382  0.1783 -0.2723
  466MOL0     C61420   6.359   0.074   4.782 -0.4018 -0.3942 -0.5958
  466MOL0     C61421   6.226   0.100   4.859 -0.3695  0.7960  0.4283
  466MOL0     C61422   6.252   0.064   5.005 -0.3843 -0.6719 -0.9792
  466MOL0     C61423   6.125   0.025   5.091 -0.4922  0.3531 -0.5726
  466MOL0    Cl61424   6.020   0.175   5.117  0.5837  0.2281  0.3011
  466MOL0     C61425   6.154   0.446   4.272  0.4756 -0.1873  0.8897
  466MOL0     C61426   6.112   0.559   4.199  0.4631  0.1290  0.5607
  466MOL0     O61427   6.116   0.701   3.877  0.4350  0.1596 -0.2200
  466MOL0     C61428   6.265   1.003   3.992  0.5882  0.6323 -0.0386
  466MOL0     C61429   6.326   1.116   3.942 -1.0816  0.1871 -0.5840
  466MOL0     N61430   6.529   1.647   4.090  0.2555 -0.0044  0.9130
  466MOL0     N61431   6.485   1.747   4.151  0.1933 -0.3887 -0.7095
  466MOL0     C61432   5.642   2.292   3.535 -0.3229  0.8289 -0.2077
  466MOL0     C61433   5.519   2.364   3.493 -0.5742 -0.4989  0.3837
  466MOL0     C61434   5.103   2.552   3.564  0.0357  0.1935  0.5490
  466MOL0     C61435   5.110   2.599   3.433  1.1555  0.0998  0.6376
  466MOL0     C61436   5.001   2.667   3.373  0.1453  1.1559  0.2008
  466MOL0     C61437   4.882   2.692   3.444 -0.1611  0.1421  0.5842
  466MOL0     O61438   4.792   2.777   3.385 -0.3699  0.4666  0.5751
  466MOL0     C61439   4.704   2.861   3.451  0.4515  0.1590 -0.1475
  466MOL0     C61440   4.788   2.961   3.538  0.4944  0.1004  0.4062
  466MOL0     C61441   4.916   3.029   3.477  0.1099  0.4300  0.2319
  466MOL0     C61442   4.931   3.172   3.530 -0.5375 -0.5743  0.3596
  466MOL0     C61443   4.834   3.264   3.484 -0.8323 -0.5323 -0.7519
  466MOL0     C61444   4.747   3.349   3.459  0.5427 -0.1156 -0.5359
  466MOL0     C61445   4.871   2.634   3.562  1.0253 -0.5322  0.3443
  466MOL0     C61446   4.979   2.567   3.622  0.5006 -0.0768  0.0936
  466MOL0     H61447   5.445   2.484   3.802  1.6939 -3.3673  2.4121
  466MOL0     H61448   5.639   2.386   3.860 -1.0401 -0.3801 -0.2072
  466MOL0     H61449   5.943   2.377   3.667  4.4038 -0.7777 -0.9424
  466MOL0     H61450   5.931   2.265   3.554 -0.2345 -1.5790  0.2055
  466MOL0     H61451   6.135   2.223   3.665 -0.4857  0.5045 -0.4950
  466MOL0     H61452   6.037   2.099   3.726 -3.3057 -0.0870  2.4418
  466MOL0     H61453   5.987   2.241   3.933 -0.0546 -3.0596 -0.9661
  466MOL0     H61454   6.099   2.365   3.889  1.6584 -0.4736  1.9005
  466MOL0     H61455   6.201   2.075   3.911 -1.3804 -1.0885  1.9578
  466MOL0     H61456   6.273   2.239   3.895  0.4827 -0.5578 -1.0406
  466MOL0     H61457   6.121   2.147   4.141 -1.2616 -1.0722 -1.7113
  466MOL0     H61458   6.180   2.313   4.094  0.2368  1.1679 -1.0146
  466MOL0     H61459   6.322   2.178   4.249 -1.9287  2.6546  0.2023
  466MOL0     H61460   6.411   2.256   4.116 -2.2629  0.8897 -1.0492
  466MOL0     H61461   6.432   2.045   3.992  3.1245  0.1454 -0.3771
  466MOL0     H61462   6.481   2.038   4.166 -1.1962  2.8278 -0.5713
  466MOL0     H61463   6.213   1.937   4.086  0.0352  3.6002  0.7511
  466MOL0     H61464   6.298   1.921   4.231  1.5934  1.3884 -1.1380
  466MOL0     H61465   6.344   1.790   3.857  1.6962  1.3237 -0.1063
  466MOL0     H61466   6.523   1.458   3.898  3.7850  1.3347 -1.7110
  466MOL0     H61467   6.567   1.583   3.796  1.0348  4.1266  2.8214
  466MOL0     H61468   6.332   1.634   3.717 -2.8917 -1.5787 -3.7271
  466MOL0     H61469   6.282   1.490   3.814  1.2359 -1.5213 -0.9096
  466MOL0     H61470   6.340   1.495   3.550  2.1339 -1.0526 -0.4010
  466MOL0     H61471   6.508   1.497   3.600  1.0380 -1.8877 -1.4321
  466MOL0     H61472   6.491   1.259   3.599 -0.2172 -1.2067  0.8138
  466MOL0     H61473   6.316   1.278   3.589  0.5000  1.1885 -0.1907
  466MOL0     H61474   6.289   1.053   3.612  2.0311  1.5649  0.1122
  466MOL0     H61475   6.192   0.858   3.701  0.2476 -1.2744  1.2084
  466MOL0     H61476   6.417   0.642   4.076  2.6256 -2.4308  1.4175
  466MOL0     H61477   6.484   0.460   4.219  0.0274 -0.1339 -1.6691
  466MOL0     H61478   6.485   0.232   4.253 -1.0392 -1.2406 -0.9537
  466MOL0     H61479   6.384   0.107   4.317 -0.0293  0.1558 -2.7766
  466MOL0     H61480   6.471   0.328   4.520  0.1808  0.0260 -0.9959
  466MOL0     H61481   6.609   0.244   4.446  0.4498 -0.3705  1.9102
  466MOL0     H61482   6.574   0.170   4.639 -0.6516 -1.5379  1.4258
  466MOL0     H61483   6.523   0.034   4.561  2.9066 -0.2017  2.6949
  466MOL0     H61484   6.319   0.244   4.654 -0.1516  0.2344 -0.5565
  466MOL0     H61485   6.271   0.084   4.584  0.4284  0.3432 -1.2951
  466MOL0     H61486   6.433   0.130   4.841 -1.2763 -1.1758  1.3452
  466MOL0     H61487   6.381  -0.033   4.781  5.1474  0.4535 -1.5585
  466MOL0     H61488   6.152   0.032   4.816  3.6137 -1.4370 -3.9540
  466MOL0     H61489   6.192   0.201   4.837 -3.3126 -0.8836 -4.5887
  466MOL0     H61490   6.316  -0.025   5.012 -1.2706 -1.1854  4.1602
  466MOL0     H61491   6.307   0.145   5.053  0.9292 -0.9173 -2.0130
  466MOL0     H61492   6.146  -0.015   5.191  0.8370  1.4178 -0.4147
  466MOL0     H61493   6.079  -0.055   5.032 -1.0519  0.7414 -0.6707
  466MOL0     H61494   6.075   0.391   4.322 -0.2065 -1.2907 -1.2630
  466MOL0     H61495   6.014   0.602   4.216 -0.3079 -1.2845 -0.1881
  466MOL0     H61496   6.267   0.983   4.098 -1.3669 -1.3732 -0.3171
  466MOL0     H61497   6.365   1.186   4.015  0.0691 -1.5242  0.4827
  466MOL0     H61498   5.709   2.234   3.472 -0.8651  0.8648 -0.8158
  466MOL0     H61499   5.491   2.369   3.388  1.5165  2.5313 -0.1446
  466MOL0     H61500   5.200   2.577   3.376 -0.7399 -1.4590 -1.9798
  466MOL0     H61501   5.006   2.712   3.274 -1.0144  0.5333 -0.1533
  466MOL0     H61502   4.635   2.814   3.521  1.2515  0.0937  0.6227
  466MOL0     H61503   4.653   2.923   3.377  0.6968 -1.0941 -1.4121
  466MOL0     H61504   4.725   3.045   3.568  0.3338  0.3202 -0.5211
  466MOL0     H61505   4.813   2.914   3.634 -3.0987 -0.5039  1.1879
  466MOL0     H61506   4.904   3.033   3.369  1.1666  0.4688  0.1119
  466MOL0     H61507   5.011   2.979   3.495  0.7228  2.3375  3.1395
  466MOL0     H61508   4.923   3.178   3.639  1.7293  1.7455  0.4948
  466MOL0     H61509   5.021   3.217   3.488 -0.4317  1.6635  2.7053
  466MOL0     H61510   4.674   3.426   3.452  0.5451 -0.0103  0.4878
  466MOL0     H61511   4.770   2.647   3.600  0.5480  1.6899 -1.4389
  466MOL0     H61512   4.951   2.525   3.719  0.4554  0.2060  0.2036
  467MOL0     O61513   8.356   3.814   5.530 -0.0009 -0.0903  0.1188
  467MOL0     C61514   8.265   3.861   5.454  0.9433  0.0672 -0.2869
  467MOL0     O61515   8.170   3.955   5.501 -0.1490 -0.0123  0.3686
  467MOL0     C61516   8.164   4.010   5.624 -0.4002 -0.6933 -0.0609
  467MOL0     C61517   8.088   4.132   5.627 -0.1114  0.3540 -0.3437
  467MOL0     C61518   8.083   4.215   5.739 -0.4383  0.0254  0.1402
  467MOL0     C61519   8.133   4.165   5.857  0.9040  0.0741  0.5850
  467MOL0     O61520   8.121   4.239   5.974  0.9549  0.5338 -0.5729
  467MOL0     C61521   8.229   4.336   5.997 -1.1467 -0.6241 -0.1174
  467MOL0     C61522   8.204   4.414   6.129 -0.3415 -0.3832 -0.1120
  467MOL0     C61523   8.065   4.477   6.145  1.2297 -1.6415  1.0401
  467MOL0     C61524   8.056   4.618   6.201 -0.6055  0.1033 -0.1099
  467MOL0     C61525   7.918   4.673   6.205  0.1500  0.6412 -0.3466
  467MOL0     C61526   7.908   4.814   6.262  0.8320 -0.4283  0.5876
  467MOL0     C61527   7.919   4.819   6.417 -0.1783 -0.0715 -0.4935
  467MOL0     C61528   7.968   4.961   6.481  0.0664 -0.3535 -0.4938
  467MOL0     N61529   8.113   4.978   6.473  0.5925 -0.7259  0.8976
  467MOL0     C61530   8.179   5.055   6.388 -0.0145  0.5000  0.2608
  467MOL0     C61531   8.313   5.029   6.416 -0.0995  0.0840  0.0952
  467MOL0     C61532   8.429   5.098   6.358  0.2781  0.5002 -0.2871
  467MOL0     C61533   8.438   5.121   6.207 -0.1844  0.3440 -0.3765
  467MOL0     C61534   8.552   5.212   6.172  1.3962 -0.1850 -0.9125
  467MOL0     C61535   8.596   5.177   6.032 -0.1523 -0.0363 -0.3135
  467MOL0     O61536   8.488   5.176   5.944  0.0183  0.2555  0.3154
  467MOL0     C61537   8.472   5.060   5.877  0.5229  0.1695  0.4159
  467MOL0     C61538   8.349   4.985   5.887  0.5884  0.5105 -0.1141
  467MOL0     C61539   8.332   4.870   5.810  0.2634 -0.0940  0.6951
  467MOL0     C61540   8.431   4.816   5.723 -0.0185 -0.3749  0.6916
  467MOL0     C61541   8.401   4.689   5.637  0.5552 -1.2616  0.7467
  467MOL0     O61542   8.508   4.650   5.563  0.5003 -0.4542  0.5020
  467MOL0     C61543   8.517   4.530   5.496 -0.7693 -0.0972 -0.0211
  467MOL0     C61544   8.458   4.400   5.535 -0.1215 -0.4599  0.1316
  467MOL0     C61545   8.470   4.283   5.458 -0.3214  0.9146  0.1622
  467MOL0     C61546   8.538   4.296   5.330 -0.0494  0.2713 -0.7603
  467MOL0     O61547   8.550   4.177   5.256 -0.6826 -1.5666  0.0087
  467MOL0     C61548   8.620   4.187   5.130  0.4747 -0.4899  0.2413
  467MOL0     C61549   8.609   4.046   5.068  0.1478  0.4029  0.8394
  467MOL0     C61550   8.690   3.940   5.140  0.0745  0.5700 -0.1745
  467MOL0     C61551   8.811   3.900   5.058  0.7586  0.5605 -0.0460
  467MOL0     C61552   8.777   3.776   4.978 -0.2705  0.9673 -0.4170
  467MOL0     C61553   8.770   3.643   5.068  0.6784  0.3338  0.9184
  467MOL0     C61554   8.743   3.527   4.968  0.7867  0.4900 -0.0023
  467MOL0     C61555   8.704   3.402   5.056 -0.0122  0.0757  0.6900
  467MOL0    Cl61556   8.851   3.359   5.154  0.3610  0.1436  0.4029
  467MOL0     C61557   8.604   4.415   5.301  0.0523 -0.5130  0.5189
  467MOL0     C61558   8.590   4.528   5.380 -0.0350 -1.0928  0.6862
  467MOL0     O61559   8.293   4.634   5.647 -0.6063  0.4199  0.0234
  467MOL0     C61560   8.543   4.896   5.713 -1.2730  0.6718 -0.0757
  467MOL0     C61561   8.569   5.013   5.782  0.4718 -0.8994 -0.7588
  467MOL0     N61562   8.320   4.929   6.512  0.0382 -0.5893  0.1760
  467MOL0     N61563   8.198   4.903   6.542 -0.4649  0.5814 -0.3389
  467MOL0     C61564   8.195   4.045   5.859  0.8714  0.7622 -0.1344
  467MOL0     C61565   8.217   3.970   5.744 -0.8567 -0.0699 -0.0474
  467MOL0     C61566   8.258   3.804   5.313  0.5381  0.5069 -1.0219
  467MOL0     C61567   8.363   3.738   5.261 -0.8075  0.5527  0.8797
  467MOL0     C61568   8.346   3.695   5.127  1.2647 -0.2422  1.0128
  467MOL0     C61569   8.232   3.713   5.049 -0.4919  1.6843 -0.2523
  467MOL0     O61570   8.198   3.647   4.938  0.0008 -0.2326  0.4658
  467MOL0     C61571   8.302   3.552   4.893  0.1539 -0.8553 -0.3878
  467MOL0     C61572   8.240   3.496   4.774  0.9956  0.0466 -1.0042
  467MOL0     C61573   8.335   3.405   4.697  0.1357  0.3466 -0.5265
  467MOL0     C61574   8.305   3.433   4.549  0.0059 -0.6414  0.6108
  467MOL0     C61575   8.348   3.313   4.476  0.1200  0.6879  0.6511
  467MOL0     C61576   8.390   3.209   4.432  0.4061  0.7222 -0.0063
  467MOL0     C61577   8.136   3.790   5.109  0.6191 -0.2040  0.2719
  467MOL0     C61578   8.144   3.835   5.238 -0.4359 -0.0797  0.2440
  467MOL0     H61579   8.049   4.166   5.532 -1.1096 -3.4056 -1.4661
  467MOL0     H61580   8.027   4.307   5.750  2.4344  2.2458 -2.1155
  467MOL0     H61581   8.255   4.400   5.913 -1.5005 -1.2208 -0.6846
  467MOL0     H61582   8.322   4.280   6.010 -1.3873 -0.8317  0.7764
  467MOL0     H61583   8.284   4.486   6.149  1.2734 -2.1002 -0.1575
  467MOL0     H61584   8.211   4.347   6.215 -1.3767 -0.6184 -0.2051
  467MOL0     H61585   7.991   4.417   6.199  0.2963 -2.1533 -0.7222
  467MOL0     H61586   8.037   4.488   6.040 -1.1016  1.9136  1.8792
  467MOL0     H61587   8.077   4.622   6.308 -0.0792 -0.2741 -0.1940
  467MOL0     H61588   8.131   4.677   6.148 -0.3542 -1.1293 -1.1861
  467MOL0     H61589   7.862   4.595   6.258  1.4479 -0.6796 -0.8556
  467MOL0     H61590   7.876   4.682   6.104 -3.1582  0.8791  0.9145
  467MOL0     H61591   7.813   4.850   6.222  0.6382 -1.3478  0.1957
  467MOL0     H61592   7.998   4.854   6.214 -0.0102 -1.2940 -1.9151
  467MOL0     H61593   7.826   4.810   6.472 -0.8662 -1.2989 -1.8032
  467MOL0     H61594   7.984   4.740   6.456 -2.8811 -3.5904 -2.5760
  467MOL0     H61595   7.937   4.959   6.586  0.9470 -0.2068 -0.2214
  467MOL0     H61596   7.919   5.040   6.423 -2.0088 -1.4995 -0.3941
  467MOL0     H61597   8.130   5.124   6.320  0.1325 -2.8642 -3.6623
  467MOL0     H61598   8.518   5.048   6.399 -0.2827 -0.6342 -0.4003
  467MOL0     H61599   8.439   5.194   6.408  1.1122  0.8735 -1.1316
  467MOL0     H61600   8.342   5.164   6.176 -1.6065 -0.5983  2.3886
  467MOL0     H61601   8.440   5.022   6.160  1.3171  0.5718 -0.8375
  467MOL0     H61602   8.513   5.315   6.173 -0.9498 -1.0115 -0.0093
  467MOL0     H61603   8.639   5.201   6.237 -0.0329  1.1691  1.3639
  467MOL0     H61604   8.648   5.081   6.027 -1.6885 -0.9344  0.2267
  467MOL0     H61605   8.666   5.251   5.993 -0.3648 -0.4246 -1.4569
  467MOL0     H61606   8.266   5.037   5.935  2.9176  2.7150  1.7890
  467MOL0     H61607   8.243   4.808   5.803  1.5591 -1.9503 -0.5130
  467MOL0     H61608   8.401   4.403   5.627  1.4183  0.0803  1.1126
  467MOL0     H61609   8.425   4.190   5.489  0.2469  0.5000 -0.2383
  467MOL0     H61610   8.724   4.212   5.153  0.5681  0.4098 -1.0318
  467MOL0     H61611   8.575   4.260   5.062 -2.6493 -0.5693  2.0401
  467MOL0     H61612   8.647   4.053   4.966 -3.0936  2.3382 -0.3604
  467MOL0     H61613   8.506   4.010   5.073  0.2414  0.1742  1.2512
  467MOL0     H61614   8.630   3.860   5.183  0.6908  0.9683  1.4888
  467MOL0     H61615   8.734   4.000   5.220  3.6220 -1.1868 -0.6234
  467MOL0     H61616   8.848   3.976   4.988 -0.7611  0.0632 -1.4467
  467MOL0     H61617   8.893   3.874   5.126  1.5251 -1.1299 -1.5209
  467MOL0     H61618   8.853   3.770   4.900 -0.1142  0.4349 -0.2305
  467MOL0     H61619   8.683   3.789   4.923 -1.9745 -0.6671  1.9149
  467MOL0     H61620   8.690   3.643   5.143 -0.3371 -0.8388 -0.1014
  467MOL0     H61621   8.867   3.632   5.117  1.3377  1.4965 -0.0779
  467MOL0     H61622   8.665   3.554   4.897 -1.2879 -1.8759  1.2157
  467MOL0     H61623   8.830   3.489   4.913  2.4939 -1.8656  3.8334
  467MOL0     H61624   8.676   3.327   4.981  1.9029  0.2157 -0.2196
  467MOL0     H61625   8.614   3.439   5.107 -1.1691 -1.2734 -0.2986
  467MOL0     H61626   8.669   4.417   5.214  0.0722  0.8265  0.5411
  467MOL0     H61627   8.646   4.617   5.352 -2.6735  1.2257  2.2103
  467MOL0     H61628   8.620   4.855   5.648 -2.5820 -0.0947 -1.2098
  467MOL0     H61629   8.670   5.051   5.768  0.0208  0.8839  0.4550
  467MOL0     H61630   8.241   4.016   5.953 -1.9317 -4.3378  0.0176
  467MOL0     H61631   8.281   3.883   5.739 -0.7277  0.0631 -4.1794
  467MOL0     H61632   8.457   3.711   5.310  0.9585 -0.2883 -2.6751
  467MOL0     H61633   8.431   3.634   5.096  0.2631 -1.8448  1.3042
  467MOL0     H61634   8.327   3.466   4.957 -3.3295 -2.4677 -0.9654
  467MOL0     H61635   8.397   3.599   4.865  0.7342 -1.7359  0.0525
  467MOL0     H61636   8.155   3.438   4.813  0.8150 -0.6166 -2.3437
  467MOL0     H61637   8.202   3.582   4.719 -1.8261  0.7901  1.7822
  467MOL0     H61638   8.331   3.300   4.725  1.4187  0.5385  0.4983
  467MOL0     H61639   8.440   3.426   4.721 -0.7468  2.7183  1.6994
  467MOL0     H61640   8.200   3.429   4.519 -0.1054 -0.6628  0.9967
  467MOL0     H61641   8.362   3.522   4.520  0.0960 -0.5548  1.0486
  467MOL0     H61642   8.432   3.111   4.417 -2.2717 -0.2696 -1.7028
  467MOL0     H61643   8.045   3.785   5.050  1.0424 -0.3880 -0.3863
  467MOL0     H61644   8.068   3.897   5.286 -0.7302 -0.0118 -0.2947
  468MOL0     O61645   8.020   8.442   3.137 -0.2876 -0.0092 -0.0305
  468MOL0     C61646   7.902   8.436   3.163  0.3735  1.1035 -0.0789
  468MOL0     O61647   7.804   8.493   3.086 -0.2828  0.2581 -0.2089
  468MOL0     C61648   7.831   8.544   2.958  0.1570  0.3125 -0.7516
  468MOL0     C61649   7.902   8.460   2.869  0.6590  0.9502  0.2812
  468MOL0     C61650   7.937   8.510   2.741  0.0489  0.4772  0.7560
  468MOL0     C61651   7.895   8.635   2.700  0.5860  0.0765 -0.5256
  468MOL0     O61652   7.907   8.685   2.573 -0.1513 -0.1597 -0.3354
  468MOL0     C61653   8.032   8.739   2.542 -0.5103  0.3306 -0.4173
  468MOL0     C61654   8.014   8.876   2.485  0.0393 -0.3581  0.1801
  468MOL0     C61655   8.134   8.928   2.407  0.5785 -0.3909  0.4728
  468MOL0     C61656   8.110   8.894   2.252  0.0815 -0.5626 -0.3038
  468MOL0     C61657   8.227   8.952   2.166 -1.4796  0.1978  0.2218
  468MOL0     C61658   8.369   8.907   2.209  0.8441  0.6347  0.4173
  468MOL0     C61659   8.393   8.754   2.228 -0.0013 -0.3440 -0.5364
  468MOL0     C61660   8.529   8.709   2.299 -0.0336 -0.2567 -0.5661
  468MOL0     N61661   8.524   8.745   2.444 -0.5353  0.8585 -0.3540
  468MOL0     C61662   8.456   8.667   2.537  0.0337 -0.3184 -0.3642
  468MOL0     C61663   8.452   8.734   2.645  0.4890 -0.3480  0.1359
  468MOL0     C61664   8.374   8.696   2.764  0.5224 -0.4850 -1.1278
  468MOL0     C61665   8.462   8.722   2.886 -0.6287  0.3337 -0.3158
  468MOL0     C61666   8.530   8.587   2.904 -0.5534  0.1809 -0.4933
  468MOL0     C61667   8.600   8.606   3.043 -0.2473  0.1498  0.1691
  468MOL0     O61668   8.506   8.594   3.150 -0.1690 -0.0631  0.4639
  468MOL0     C61669   8.464   8.466   3.180  0.1229 -0.1177  0.1093
  468MOL0     C61670   8.554   8.378   3.234  0.3869  0.1510 -0.3790
  468MOL0     C61671   8.513   8.250   3.273 -0.0790  0.0988  0.1493
  468MOL0     C61672   8.389   8.201   3.229  0.3258 -0.1672  0.3551
  468MOL0     C61673   8.367   8.061   3.261 -0.0644 -0.2666  0.4991
  468MOL0     O61674   8.236   8.034   3.234  1.0157  0.7478 -0.3257
  468MOL0     C61675   8.188   7.925   3.318 -0.2098 -0.1305 -0.6672
  468MOL0     C61676   8.187   7.953   3.463  0.0624  0.3093  0.0760
  468MOL0     C61677   8.106   7.877   3.550  0.7210  0.7171  0.0170
  468MOL0     C61678   8.047   7.756   3.507  0.4114  0.0133 -0.3306
  468MOL0     O61679   7.967   7.681   3.587  0.4696  0.2364 -0.1204
  468MOL0     C61680   8.009   7.651   3.728  0.3518  0.0889  0.1868
  468MOL0     C61681   8.124   7.564   3.744 -0.1453  0.1022  0.3270
  468MOL0     C61682   8.181   7.553   3.895 -0.6335  0.4333  1.0024
  468MOL0     C61683   8.086   7.480   3.985 -0.1911  0.1282 -0.3976
  468MOL0     C61684   8.143   7.463   4.126  0.4892  0.1363 -0.0768
  468MOL0     C61685   8.027   7.405   4.222  0.1049 -0.0058  0.3195
  468MOL0     C61686   8.081   7.367   4.362 -0.2342  0.1403 -0.2466
  468MOL0     C61687   7.958   7.367   4.461 -0.9292  0.9748  0.2459
  468MOL0    Cl61688   7.990   7.249   4.590  0.2118 -0.0282 -0.5191
  468MOL0     C61689   8.065   7.727   3.364  0.3531 -0.1999 -0.3535
  468MOL0     C61690   8.131   7.810   3.270  0.3228  0.1589 -0.2780
  468MOL0     O61691   8.449   7.990   3.315 -0.4624  0.3260  0.1159
  468MOL0     C61692   8.304   8.287   3.150 -0.1219  0.0743 -0.2718
  468MOL0     C61693   8.345   8.422   3.128 -0.5524  0.4939  0.4416
  468MOL0     N61694   8.523   8.854   2.636 -0.2712  0.0744 -0.3684
  468MOL0     N61695   8.561   8.861   2.508  0.0201  0.1013 -0.6186
  468MOL0     C61696   7.824   8.723   2.797 -0.3951 -0.1372  0.3149
  468MOL0     C61697   7.807   8.678   2.925  0.1498  0.1596 -0.5899
  468MOL0     C61698   7.868   8.358   3.288 -0.2134 -0.4228 -0.2486
  468MOL0     C61699   7.967   8.343   3.393 -0.2061  0.5223 -0.1747
  468MOL0     C61700   7.921   8.298   3.522  0.6983 -0.4996  0.9952
  468MOL0     C61701   7.786   8.279   3.552 -0.8030  0.2090  0.4946
  468MOL0     O61702   7.735   8.236   3.676 -1.0524 -0.2822  0.3816
  468MOL0     C61703   7.809   8.139   3.740 -0.3731  0.2830 -0.1813
  468MOL0     C61704   7.768   8.137   3.891 -0.4532 -0.0781 -0.6720
  468MOL0     C61705   7.859   8.041   3.968 -0.3148  0.0102  0.8031
  468MOL0     C61706   7.804   7.995   4.107 -0.2777  0.8896  1.0615
  468MOL0     C61707   7.791   8.109   4.193  0.7261 -0.6081 -1.5195
  468MOL0     C61708   7.757   8.195   4.269 -0.0538 -0.6883 -0.0200
  468MOL0     C61709   7.693   8.305   3.454  0.7003 -0.9610 -0.0082
  468MOL0     C61710   7.735   8.338   3.322 -0.0253  0.1084  0.4311
  468MOL0     H61711   7.936   8.360   2.894 -2.9208 -1.5477 -3.4682
  468MOL0     H61712   7.978   8.447   2.663  1.4743  1.8505  0.3516
  468MOL0     H61713   8.081   8.669   2.475 -2.0525 -0.9981 -0.2229
  468MOL0     H61714   8.094   8.754   2.630  0.0881  2.5395 -1.1327
  468MOL0     H61715   7.997   8.939   2.572 -2.9076 -2.5609  1.3899
  468MOL0     H61716   7.928   8.882   2.417  0.0835  3.1546  0.2723
  468MOL0     H61717   8.227   8.873   2.426 -0.6728 -4.9295 -4.0964
  468MOL0     H61718   8.141   9.035   2.424  3.0619 -0.5057  0.4682
  468MOL0     H61719   8.098   8.786   2.240  1.9416 -0.9435  0.7935
  468MOL0     H61720   8.021   8.950   2.221  0.7976 -0.7630 -3.0316
  468MOL0     H61721   8.233   9.062   2.169  0.2586  0.1193  2.3706
  468MOL0     H61722   8.208   8.931   2.060 -0.1446 -1.2698  0.2382
  468MOL0     H61723   8.394   8.968   2.296 -0.2121  3.2070 -0.9428
  468MOL0     H61724   8.438   8.956   2.139  0.4095  1.1051  0.3046
  468MOL0     H61725   8.323   8.697   2.290 -0.0620 -0.8058 -1.0207
  468MOL0     H61726   8.394   8.703   2.131 -0.9453 -2.5423  0.5508
  468MOL0     H61727   8.612   8.764   2.253 -0.5285  1.6145  0.6642
  468MOL0     H61728   8.550   8.602   2.291 -1.3031 -0.4154 -2.4810
  468MOL0     H61729   8.397   8.576   2.526 -1.7350  0.8539 -1.1705
  468MOL0     H61730   8.333   8.594   2.765 -0.6246 -0.2228  3.9131
  468MOL0     H61731   8.291   8.764   2.786  3.1608  2.3117  0.9486
  468MOL0     H61732   8.402   8.738   2.976 -2.2300 -2.6965 -0.6914
  468MOL0     H61733   8.546   8.789   2.870  2.8276 -3.8394 -1.4447
  468MOL0     H61734   8.460   8.503   2.907  0.7163 -0.9217  2.5946
  468MOL0     H61735   8.604   8.577   2.824 -0.2551  2.1355 -0.5062
  468MOL0     H61736   8.647   8.704   3.053 -1.9120  0.9032  1.0092
  468MOL0     H61737   8.674   8.526   3.045 -1.2414 -0.8781 -1.5312
  468MOL0     H61738   8.656   8.411   3.253  0.5963 -0.7101  0.0796
  468MOL0     H61739   8.587   8.191   3.326  1.5026  0.8183 -1.1641
  468MOL0     H61740   8.215   8.052   3.499 -0.1792 -0.4036  2.4300
  468MOL0     H61741   8.100   7.913   3.653  2.2393  0.0380  0.3738
  468MOL0     H61742   7.925   7.596   3.774  0.9016 -1.7907 -0.9465
  468MOL0     H61743   8.039   7.743   3.780  1.3490 -0.4388  0.5797
  468MOL0     H61744   8.199   7.580   3.666  1.7707 -4.3192  0.9766
  468MOL0     H61745   8.104   7.462   3.709 -1.1300  0.4144 -0.0605
  468MOL0     H61746   8.218   7.649   3.932  3.4394  0.6494 -2.7880
  468MOL0     H61747   8.275   7.498   3.894 -0.8331  0.0948  0.1297
  468MOL0     H61748   7.993   7.538   3.983  1.0801  2.4241  1.7875
  468MOL0     H61749   8.063   7.380   3.946  1.7947  0.4247 -2.5731
  468MOL0     H61750   8.174   7.558   4.169 -0.7536  0.0766  1.0216
  468MOL0     H61751   8.224   7.389   4.130  0.8666  0.5557  0.1035
  468MOL0     H61752   7.998   7.315   4.167  0.2978 -1.2498  2.1683
  468MOL0     H61753   7.937   7.467   4.232 -0.0094 -0.4012  2.0048
  468MOL0     H61754   8.114   7.264   4.374  2.9864  1.2056  1.2193
  468MOL0     H61755   8.153   7.439   4.401 -1.5167  0.3943  1.7972
  468MOL0     H61756   7.869   7.320   4.419 -0.4470 -1.4907  1.8037
  468MOL0     H61757   7.935   7.472   4.480 -0.9202  1.3686 -1.7397
  468MOL0     H61758   8.011   7.639   3.330 -1.7098  1.3326 -1.3047
  468MOL0     H61759   8.156   7.768   3.173 -0.5281 -2.0671  0.4136
  468MOL0     H61760   8.204   8.260   3.117 -0.6752  0.1476  1.2420
  468MOL0     H61761   8.279   8.501   3.092 -0.6897  0.8703  1.4695
  468MOL0     H61762   7.773   8.814   2.769  0.7583  0.0827 -1.1768
  468MOL0     H61763   7.757   8.741   2.998  1.4123 -1.3428  1.6903
  468MOL0     H61764   8.073   8.358   3.373  0.2064 -4.2475 -3.1176
  468MOL0     H61765   7.983   8.284   3.610  1.2565  3.2526  1.3912
  468MOL0     H61766   7.918   8.136   3.734 -0.2845  1.4238  0.4823
  468MOL0     H61767   7.774   8.042   3.705 -0.1729 -0.3073  1.1600
  468MOL0     H61768   7.787   8.236   3.934 -1.6273  0.6141 -1.6715
  468MOL0     H61769   7.664   8.107   3.911  0.6554 -2.5448  2.2723
  468MOL0     H61770   7.957   8.088   3.985 -0.0660 -1.0034  2.4769
  468MOL0     H61771   7.886   7.957   3.902  0.3950 -1.0456  2.3664
  468MOL0     H61772   7.704   7.954   4.088 -1.2996  1.2695  4.9494
  468MOL0     H61773   7.874   7.924   4.154  2.1802  3.1276  1.0078
  468MOL0     H61774   7.713   8.269   4.333  0.9216  1.3902 -1.6193
  468MOL0     H61775   7.588   8.308   3.478 -0.1029  0.4765 -3.1731
  468MOL0     H61776   7.660   8.354   3.245 -0.7395 -0.2310  1.0586
  469MOL0     O61777   1.275   0.995  11.137  0.7310 -0.4173 -0.4805
  469MOL0     C61778   1.383   0.952  11.113  0.2133 -0.6596  0.6575
  469MOL0     O61779   1.433   0.921  10.988 -0.0256 -0.3875  0.5971
  469MOL0     C61780   1.363   0.940  10.872  1.0756  0.5101 -0.3916
  469MOL0     C61781   1.384   0.828  10.788  0.0932 -0.9322 -0.1413
  469MOL0     C61782   1.297   0.806  10.680 -0.5654  0.4669  0.1910
  469MOL0     C61783   1.195   0.894  10.649  0.0089  0.6520  0.3914
  469MOL0     O61784   1.118   0.855  10.542 -0.2280 -0.1707  0.1362
  469MOL0     C61785   1.179   0.788  10.432 -0.6283 -0.2292  0.0091
  469MOL0     C61786   1.078   0.808  10.314 -0.6511  0.2307  0.3265
  469MOL0     C61787   1.047   0.959  10.292  0.0815 -0.4310  0.9910
  469MOL0     C61788   0.967   0.977  10.165  0.3699 -0.6305  0.4995
  469MOL0     C61789   0.957   1.126  10.116 -0.2148 -0.2572  0.1030
  469MOL0     C61790   0.867   1.216  10.211 -1.3418 -0.0501  0.1659
  469MOL0     C61791   0.965   1.288  10.314 -0.2290  0.2175  0.2213
  469MOL0     C61792   0.898   1.395  10.404  0.4002  0.7084 -0.0038
  469MOL0     N61793   0.966   1.429  10.525 -0.6526 -0.2165  0.4502
  469MOL0     C61794   0.940   1.543  10.598 -1.4135  0.8775  0.2900
  469MOL0     C61795   1.010   1.518  10.713 -0.9398  0.3576  0.2601
  469MOL0     C61796   1.018   1.599  10.843 -0.9254  0.4919 -0.1473
  469MOL0     C61797   0.885   1.618  10.900  0.6493  0.4733 -0.5157
  469MOL0     C61798   0.898   1.712  11.022 -0.1597  0.0315  0.5736
  469MOL0     C61799   0.768   1.743  11.075 -0.0142  0.0299  0.6712
  469MOL0     O61800   0.779   1.844  11.179  0.4584 -0.4466 -0.7386
  469MOL0     C61801   0.828   1.799  11.298  0.4744  0.2872 -0.4739
  469MOL0     C61802   0.757   1.708  11.383  0.9122  0.1713  0.0099
  469MOL0     C61803   0.800   1.683  11.514  0.4641 -0.4490 -0.8337
  469MOL0     C61804   0.930   1.730  11.555  0.8457 -0.3850  0.0462
  469MOL0     C61805   0.989   1.689  11.684 -0.0710 -0.5639  0.3316
  469MOL0     O61806   1.110   1.744  11.720  0.0473 -0.0908  0.0685
  469MOL0     C61807   1.181   1.689  11.830 -0.6674  0.4730  0.8591
  469MOL0     C61808   1.318   1.679  11.807 -0.7207  0.9812  0.2347
  469MOL0     C61809   1.400   1.623  11.905  0.0901  1.0327  0.0832
  469MOL0     C61810   1.343   1.570  12.020  0.7584  0.1068 -0.3358
  469MOL0     O61811   1.411   1.493  12.110  0.0092  0.1715 -0.0005
  469MOL0     C61812   1.526   1.429  12.059 -0.9620 -0.1844 -0.1218
  469MOL0     C61813   1.576   1.338  12.167 -0.2188 -0.9589  1.3047
  469MOL0     C61814   1.726   1.302  12.154  0.5610 -0.2711  0.7107
  469MOL0     C61815   1.767   1.185  12.255  0.3234 -0.8496  0.4261
  469MOL0     C61816   1.904   1.132  12.226 -0.3398 -0.2561 -0.0317
  469MOL0     C61817   1.963   1.070  12.346  0.8526 -0.0367 -1.2299
  469MOL0     C61818   2.106   1.016  12.301  0.0989  0.2763 -0.3661
  469MOL0     C61819   2.182   0.954  12.422 -0.4885  0.7782 -0.4879
  469MOL0    Cl61820   2.360   0.947  12.405 -0.0693  0.3661 -0.5380
  469MOL0     C61821   1.205   1.581  12.039 -0.9648  0.7468  0.2010
  469MOL0     C61822   1.124   1.643  11.944 -0.0724  0.6541 -1.0552
  469MOL0     O61823   0.937   1.596  11.741  0.4223  1.2041  0.3283
  469MOL0     C61824   0.998   1.820  11.470  0.0235  1.0525  0.4291
  469MOL0     C61825   0.946   1.863  11.347  0.5526  0.1995  0.0356
  469MOL0     N61826   1.078   1.395  10.705  0.5405 -0.2587  0.0220
  469MOL0     N61827   1.043   1.347  10.596 -0.4907 -0.0643 -1.0927
  469MOL0     C61828   1.171   0.996  10.736  0.2422  0.1581  0.6945
  469MOL0     C61829   1.253   1.024  10.846 -0.5742 -0.3246  0.2782
  469MOL0     C61830   1.472   0.953  11.228  0.4951  0.5272  0.0162
  469MOL0     C61831   1.600   0.888  11.198 -0.6355  0.9501  0.1989
  469MOL0     C61832   1.690   0.877  11.298  0.0075 -0.1001 -0.4872
  469MOL0     C61833   1.672   0.921  11.431 -0.0621  0.1355 -0.3761
  469MOL0     O61834   1.767   0.915  11.534 -0.0020 -0.8537  0.1582
  469MOL0     C61835   1.884   0.844  11.506 -0.1437  0.1030 -0.8170
  469MOL0     C61836   1.976   0.916  11.425  0.0446 -0.2829 -0.2941
  469MOL0     C61837   2.118   0.896  11.474 -0.9496  0.2662  0.0973
  469MOL0     C61838   2.208   0.988  11.411 -0.7392 -0.8011 -0.7395
  469MOL0     C61839   2.212   1.117  11.489  0.3354  0.3378  1.2790
  469MOL0     C61840   2.204   1.215  11.552 -0.3075  0.1049 -1.0508
  469MOL0     C61841   1.548   0.980  11.460  0.5999  0.3275  0.3968
  469MOL0     C61842   1.451   0.997  11.359 -0.0470 -0.5988  0.0404
  469MOL0     H61843   1.454   0.748  10.811  0.4934 -1.2154 -2.1810
  469MOL0     H61844   1.300   0.715  10.621 -1.1668  0.3021  0.4057
  469MOL0     H61845   1.187   0.679  10.440 -3.8759 -0.5924 -0.3138
  469MOL0     H61846   1.276   0.830  10.405 -0.5883 -1.8925 -2.8396
  469MOL0     H61847   0.998   0.744  10.350  0.8811 -0.3315  2.9569
  469MOL0     H61848   1.122   0.769  10.221  0.1083 -0.1879  0.8542
  469MOL0     H61849   1.140   1.015  10.278 -2.5129  3.6743 -2.4233
  469MOL0     H61850   1.004   1.008  10.379 -0.0425 -0.2165  0.8108
  469MOL0     H61851   1.007   0.911  10.088 -0.4850  0.0129 -0.5303
  469MOL0     H61852   0.867   0.935  10.178 -0.3910 -0.6708 -4.1085
  469MOL0     H61853   0.934   1.120  10.009  0.8971 -2.4428 -0.0807
  469MOL0     H61854   1.057   1.170  10.117 -0.1189 -0.4800  1.0947
  469MOL0     H61855   0.796   1.154  10.267 -1.1188 -1.6393 -1.2364
  469MOL0     H61856   0.804   1.283  10.153 -3.6554 -0.7129  1.7686
  469MOL0     H61857   1.011   1.207  10.372  0.0133 -1.0638 -1.6806
  469MOL0     H61858   1.047   1.341  10.265 -0.9200  1.4744  0.3780
  469MOL0     H61859   0.803   1.360  10.443 -0.1643 -0.7815 -2.4777
  469MOL0     H61860   0.876   1.483  10.343 -2.5511  0.1567  0.1354
  469MOL0     H61861   0.887   1.630  10.562 -1.8879  0.9770  1.1871
  469MOL0     H61862   1.062   1.696  10.817 -1.4254  1.0197  0.8723
  469MOL0     H61863   1.086   1.549  10.912  1.3250  1.7702 -1.3246
  469MOL0     H61864   0.840   1.526  10.938  1.4590  0.7466  1.1889
  469MOL0     H61865   0.820   1.664  10.824 -1.2634  0.9067  1.2893
  469MOL0     H61866   0.953   1.661  11.101 -0.7063 -4.0929 -1.3967
  469MOL0     H61867   0.953   1.802  10.996  0.6397 -0.3739  0.8194
  469MOL0     H61868   0.709   1.655  11.104 -1.8168  1.0471  0.2339
  469MOL0     H61869   0.705   1.781  10.994 -0.8112 -0.9831  0.7898
  469MOL0     H61870   0.654   1.679  11.362  0.8710 -0.4746  1.0302
  469MOL0     H61871   0.740   1.627  11.585 -1.6065  0.7157 -1.5787
  469MOL0     H61872   1.370   1.717  11.720 -1.9691 -0.1876 -1.0789
  469MOL0     H61873   1.507   1.634  11.893 -0.3381  2.3428 -3.8378
  469MOL0     H61874   1.606   1.496  12.027 -2.4946  1.0499 -1.6350
  469MOL0     H61875   1.514   1.365  11.971  2.3856  0.0397 -0.8806
  469MOL0     H61876   1.511   1.255  12.140  2.1723 -2.6913  0.5479
  469MOL0     H61877   1.563   1.381  12.266 -1.5482 -1.6706  1.4502
  469MOL0     H61878   1.796   1.385  12.169  0.8101 -0.2056 -0.6389
  469MOL0     H61879   1.739   1.263  12.052 -2.2670 -0.8310  0.4859
  469MOL0     H61880   1.756   1.226  12.355 -4.0635 -2.4647  0.8064
  469MOL0     H61881   1.688   1.109  12.249 -0.6035  0.1947 -1.2186
  469MOL0     H61882   1.964   1.223  12.229 -0.0745 -0.4304  0.0000
  469MOL0     H61883   1.920   1.063  12.142 -6.0905 -0.1068 -1.6505
  469MOL0     H61884   1.899   0.993  12.391  2.5643 -0.0784  1.3037
  469MOL0     H61885   1.978   1.139  12.429 -1.5125  2.3657 -2.6364
  469MOL0     H61886   2.088   0.934  12.230 -1.3516 -0.0538  0.3551
  469MOL0     H61887   2.164   1.089  12.243 -1.8884  1.9010 -0.4039
  469MOL0     H61888   2.153   0.848  12.424 -1.7503  0.9856  4.3969
  469MOL0     H61889   2.161   0.996  12.520  0.3616  0.9905 -0.3896
  469MOL0     H61890   1.166   1.542  12.132  0.8411 -0.2944  0.5697
  469MOL0     H61891   1.017   1.654  11.958 -0.5928 -3.4127 -0.7029
  469MOL0     H61892   1.076   1.878  11.518 -1.1935  2.2128  1.0458
  469MOL0     H61893   0.980   1.953  11.295 -0.3655  2.7240  3.4448
  469MOL0     H61894   1.093   1.069  10.716  0.4674 -0.4111 -2.8566
  469MOL0     H61895   1.231   1.105  10.915  0.1671  2.7110 -2.7767
  469MOL0     H61896   1.621   0.830  11.109  0.4534 -2.0412  2.2388
  469MOL0     H61897   1.787   0.833  11.274  0.5505  1.2885 -0.9208
  469MOL0     H61898   1.855   0.753  11.453 -0.6003  0.3255 -0.9548
  469MOL0     H61899   1.938   0.811  11.595 -0.8297  1.0893 -0.0101
  469MOL0     H61900   1.976   0.904  11.316  1.0478 -1.3886 -0.1923
  469MOL0     H61901   1.958   1.024  11.437 -0.7534 -0.5482  1.0974
  469MOL0     H61902   2.150   0.795  11.445 -2.1106  0.4399 -2.0457
  469MOL0     H61903   2.133   0.903  11.582 -0.8454  1.4116  0.0128
  469MOL0     H61904   2.313   0.957  11.405  0.0713  0.7228  2.6943
  469MOL0     H61905   2.172   0.985  11.308 -1.1274  0.8979 -0.6770
  469MOL0     H61906   2.213   1.300  11.616  2.1649 -2.0949  1.8274
  469MOL0     H61907   1.532   1.012  11.563  1.3657  1.7053  0.1138
  469MOL0     H61908   1.358   1.041  11.395  0.4725 -0.2507  0.9933
  470MOL0     O61909   7.744   6.211   5.954  0.0912  0.2417  0.3543
  470MOL0     C61910   7.636   6.225   6.013 -0.4981  0.1324 -0.0426
  470MOL0     O61911   7.534   6.137   6.024 -0.0797  0.5263  0.3293
  470MOL0     C61912   7.534   6.023   5.948  0.2166  0.1699  1.0224
  470MOL0     C61913   7.566   6.015   5.810 -1.4049  0.1316  0.2392
  470MOL0     C61914   7.522   5.915   5.737  0.1981  0.2919  0.0892
  470MOL0     C61915   7.460   5.805   5.789  0.5848  0.6775 -0.6057
  470MOL0     O61916   7.441   5.700   5.703 -0.6140  0.3833  0.5904
  470MOL0     C61917   7.379   5.584   5.762 -0.4255 -0.3297  0.1200
  470MOL0     C61918   7.362   5.474   5.652  0.0275 -1.2246  0.3200
  470MOL0     C61919   7.276   5.498   5.521  0.9012 -0.5899  0.1388
  470MOL0     C61920   7.136   5.542   5.555  0.3557 -0.8654  0.3805
  470MOL0     C61921   7.043   5.560   5.438  0.3568  0.5979 -0.7824
  470MOL0     C61922   7.100   5.647   5.322 -0.3362 -0.5375 -0.1296
  470MOL0     C61923   7.135   5.789   5.359 -0.4279  0.5917 -1.1069
  470MOL0     C61924   7.177   5.869   5.236  0.0329 -1.0067 -0.1907
  470MOL0     N61925   7.223   6.001   5.274 -0.5509 -0.1892 -0.1050
  470MOL0     C61926   7.268   6.048   5.397 -0.3282 -0.4243  0.6419
  470MOL0     C61927   7.301   6.174   5.374  0.3468 -0.4102  0.1789
  470MOL0     C61928   7.364   6.275   5.468 -0.0568 -0.1503  0.1782
  470MOL0     C61929   7.492   6.329   5.408  0.2747  0.0932 -0.2263
  470MOL0     C61930   7.614   6.316   5.498  0.2363 -0.8761 -0.5026
  470MOL0     C61931   7.739   6.390   5.438 -0.7136 -0.1229 -0.3547
  470MOL0     O61932   7.728   6.533   5.457  0.8671  0.3107 -0.7708
  470MOL0     C61933   7.778   6.598   5.562 -0.4295 -0.6869 -0.5439
  470MOL0     C61934   7.692   6.630   5.676  0.2560  0.0697  0.6928
  470MOL0     C61935   7.753   6.715   5.771  0.0933 -0.0505 -0.0961
  470MOL0     C61936   7.887   6.763   5.763  0.6559  0.8054  1.0305
  470MOL0     C61937   7.935   6.856   5.876 -0.7476 -0.3000  0.3972
  470MOL0     O61938   7.847   6.934   5.939  0.3009  0.6756 -0.4163
  470MOL0     C61939   7.878   7.029   6.034 -0.3071  0.1142  0.4188
  470MOL0     C61940   7.806   7.148   6.038  0.3613  0.7724 -0.6772
  470MOL0     C61941   7.844   7.247   6.128 -0.1863  0.0797  0.6803
  470MOL0     C61942   7.943   7.222   6.230 -0.0037 -0.4238  0.8782
  470MOL0     O61943   7.974   7.326   6.311 -0.3893 -0.6865  0.0062
  470MOL0     C61944   8.006   7.305   6.448  0.1667 -0.0155  0.0110
  470MOL0     C61945   8.073   7.432   6.475 -0.3565 -0.7417  0.2889
  470MOL0     C61946   8.124   7.444   6.620 -0.0042  0.6773 -0.5096
  470MOL0     C61947   8.240   7.351   6.654 -0.9157  1.2513 -0.5455
  470MOL0     C61948   8.220   7.247   6.768  0.2417  0.9140  0.8361
  470MOL0     C61949   8.104   7.146   6.736  0.1728 -0.4333  0.5279
  470MOL0     C61950   8.099   7.036   6.842  0.0897  0.2471 -0.7198
  470MOL0     C61951   7.970   6.957   6.811 -0.2925 -0.6454 -0.2737
  470MOL0    Cl61952   7.830   7.050   6.860 -0.0769  0.0222 -0.5230
  470MOL0     C61953   8.012   7.103   6.227 -0.3958 -1.2193 -1.1462
  470MOL0     C61954   7.980   7.011   6.129 -0.6542 -0.8345 -0.2116
  470MOL0     O61955   8.060   6.859   5.897  0.4827 -0.3146 -0.2215
  470MOL0     C61956   7.971   6.729   5.663 -0.7420  0.4661 -0.5506
  470MOL0     C61957   7.911   6.648   5.564  0.6278  0.1767  0.8014
  470MOL0     N61958   7.270   6.201   5.238  1.0312 -0.5668  0.0338
  470MOL0     N61959   7.224   6.096   5.174  0.4251 -0.5275 -0.5739
  470MOL0     C61960   7.432   5.803   5.932  0.4797 -0.1919 -0.0723
  470MOL0     C61961   7.464   5.917   5.999  0.3261  0.7695  1.0293
  470MOL0     C61962   7.620   6.351   6.081 -0.4111 -0.0124  0.1721
  470MOL0     C61963   7.528   6.367   6.189 -0.6506 -0.3247  0.4552
  470MOL0     C61964   7.531   6.489   6.263 -0.0124  0.3940  1.2091
  470MOL0     C61965   7.610   6.600   6.216 -0.7348  0.1185  0.7130
  470MOL0     O61966   7.582   6.712   6.279  0.9695 -0.7787 -0.4784
  470MOL0     C61967   7.672   6.823   6.284 -0.7941 -0.4163 -0.6244
  470MOL0     C61968   7.618   6.916   6.391  0.8370 -1.9211  0.6101
  470MOL0     C61969   7.673   7.058   6.391 -0.6405 -0.2239 -1.0514
  470MOL0     C61970   7.634   7.128   6.526  0.3243 -0.4569  0.3858
  470MOL0     C61971   7.486   7.131   6.535  0.6359 -0.5338  0.5736
  470MOL0     C61972   7.366   7.138   6.546  0.3498 -2.3445 -0.7850
  470MOL0     C61973   7.698   6.580   6.104  0.1956 -0.0621  0.0728
  470MOL0     C61974   7.706   6.459   6.039  0.9004 -0.1383 -0.3521
  470MOL0     H61975   7.618   6.094   5.756 -1.9159  1.4647  1.6094
  470MOL0     H61976   7.548   5.912   5.632 -0.4830 -0.6604 -0.0696
  470MOL0     H61977   7.276   5.594   5.797  0.3797  1.3282  2.2167
  470MOL0     H61978   7.446   5.540   5.836  0.5251  2.3654  0.9766
  470MOL0     H61979   7.319   5.394   5.712  0.5145 -0.7764  1.2792
  470MOL0     H61980   7.465   5.447   5.628  1.6421  3.0248  1.5446
  470MOL0     H61981   7.257   5.400   5.477 -0.2404 -1.3212  2.1406
  470MOL0     H61982   7.324   5.571   5.455  0.5284  1.2566  1.8055
  470MOL0     H61983   7.097   5.468   5.626 -0.2622 -1.8722 -0.9768
  470MOL0     H61984   7.134   5.644   5.595 -2.4489 -0.6019 -0.2106
  470MOL0     H61985   6.944   5.600   5.461 -0.1351 -0.4568 -1.0215
  470MOL0     H61986   7.013   5.461   5.402 -1.0978 -0.2389  2.3760
  470MOL0     H61987   7.019   5.662   5.251  0.8839  3.2663 -0.9282
  470MOL0     H61988   7.184   5.599   5.271 -0.3906  0.8076 -1.5500
  470MOL0     H61989   7.056   5.848   5.406  1.7223  5.0137 -2.4822
  470MOL0     H61990   7.226   5.787   5.421  0.0342  0.3866 -1.7810
  470MOL0     H61991   7.107   5.865   5.153  1.8032  1.6295 -1.9651
  470MOL0     H61992   7.267   5.823   5.194  0.2211 -2.4027  1.6113
  470MOL0     H61993   7.305   6.001   5.489  2.6260  1.8974  0.7818
  470MOL0     H61994   7.380   6.227   5.566 -0.9688  0.5320  0.6724
  470MOL0     H61995   7.297   6.360   5.482 -3.1498 -2.4507  0.4002
  470MOL0     H61996   7.468   6.435   5.419 -2.6678 -0.6614  1.8531
  470MOL0     H61997   7.510   6.296   5.305  1.6604  2.2409 -0.7329
  470MOL0     H61998   7.590   6.353   5.598 -2.7579  0.1137 -1.4607
  470MOL0     H61999   7.639   6.211   5.512  0.1034 -0.7154  1.0793
  470MOL0     H62000   7.741   6.369   5.331 -0.7988  0.5336 -0.4908
  470MOL0     H62001   7.841   6.366   5.471  1.0339  3.0282 -2.9115
  470MOL0     H62002   7.589   6.596   5.681  0.4038 -0.6393 -0.7254
  470MOL0     H62003   7.703   6.727   5.867 -2.7148 -0.8622 -1.3527
  470MOL0     H62004   7.724   7.162   5.968 -0.9702  0.7743  0.8333
  470MOL0     H62005   7.783   7.335   6.142 -3.8022 -2.4939  3.2456
  470MOL0     H62006   8.067   7.214   6.455 -0.3082 -0.3788 -0.4414
  470MOL0     H62007   7.920   7.292   6.514 -0.1377  0.6681 -0.2389
  470MOL0     H62008   8.015   7.524   6.468  2.0658  1.1234  2.4365
  470MOL0     H62009   8.161   7.432   6.410 -2.3753 -1.4200 -2.6341
  470MOL0     H62010   8.045   7.420   6.691  0.7827 -2.0915 -0.4586
  470MOL0     H62011   8.150   7.550   6.630  1.2712  0.5931 -2.4461
  470MOL0     H62012   8.276   7.305   6.562 -0.2290  0.6456  0.0072
  470MOL0     H62013   8.320   7.414   6.695 -0.4268 -0.7636  1.7939
  470MOL0     H62014   8.191   7.300   6.859 -0.6102 -0.3890  1.3551
  470MOL0     H62015   8.308   7.183   6.778 -0.1874 -0.1080 -1.2804
  470MOL0     H62016   8.128   7.094   6.642  0.7857 -0.9508  0.9626
  470MOL0     H62017   8.015   7.210   6.731  1.9348  2.1280 -0.6439
  470MOL0     H62018   8.178   6.960   6.834  1.6484  1.0272  4.0314
  470MOL0     H62019   8.098   7.082   6.941 -1.8278  1.4075 -1.2320
  470MOL0     H62020   7.981   6.861   6.861  1.4621 -0.0224  0.6113
  470MOL0     H62021   7.965   6.945   6.702 -0.8662  2.7009 -0.7410
  470MOL0     H62022   8.091   7.081   6.298 -2.9356  0.0955  2.3622
  470MOL0     H62023   8.032   6.916   6.131  0.3408 -0.2898  0.6465
  470MOL0     H62024   8.074   6.763   5.657 -0.6005 -0.0289 -0.9852
  470MOL0     H62025   7.972   6.613   5.481 -0.4893  3.0224 -1.4045
  470MOL0     H62026   7.380   5.736   5.998 -1.3302  3.8886  3.1056
  470MOL0     H62027   7.431   5.926   6.103  1.1664 -0.9830  1.4747
  470MOL0     H62028   7.459   6.288   6.217  0.0931 -0.5437  1.7913
  470MOL0     H62029   7.465   6.516   6.345  1.8293 -0.1487  2.9625
  470MOL0     H62030   7.670   6.866   6.184 -4.7835 -0.1557 -0.5987
  470MOL0     H62031   7.770   6.799   6.325  0.2835  5.7149  1.4717
  470MOL0     H62032   7.511   6.935   6.381  1.0861  0.3929  1.6643
  470MOL0     H62033   7.615   6.861   6.485  1.1922  0.4861  2.0995
  470MOL0     H62034   7.630   7.116   6.308  1.0507  1.9801 -0.4842
  470MOL0     H62035   7.782   7.057   6.382 -0.6834 -2.4078 -2.1703
  470MOL0     H62036   7.675   7.072   6.611 -0.0499 -3.5350 -1.3094
  470MOL0     H62037   7.682   7.226   6.519 -0.7447  0.2021  1.7726
  470MOL0     H62038   7.261   7.139   6.570  0.4589 -0.4945 -0.2336
  470MOL0     H62039   7.759   6.663   6.071  0.1448 -0.0083  0.1143
  470MOL0     H62040   7.781   6.442   5.963 -0.6257 -0.4525 -1.8316
  471MOL0     O62041  10.257   0.758   3.651  0.2479  0.4109 -0.6176
  471MOL0     C62042  10.303   0.877   3.665  0.7664  0.1843 -0.2947
  471MOL0     O62043  10.340   0.951   3.559  0.6232 -0.2883 -0.4805
  471MOL0     C62044  10.283   0.931   3.436  0.4653  1.2725  0.0623
  471MOL0     C62045  10.219   1.034   3.372 -0.0511 -0.3766 -0.5251
  471MOL0     C62046  10.196   1.032   3.240 -0.6073  0.0617  0.0329
  471MOL0     C62047  10.230   0.923   3.167  0.7199  1.1389 -0.2233
  471MOL0     O62048  10.203   0.925   3.028  0.5097 -0.4248  0.2691
  471MOL0     C62049  10.232   0.816   2.940 -0.5924 -0.4136  0.3183
  471MOL0     C62050  10.176   0.828   2.805 -0.5607  1.0269 -0.4435
  471MOL0     C62051  10.217   0.948   2.715  0.9901  0.3526 -0.3263
  471MOL0     C62052  10.149   0.933   2.574 -0.8490 -0.2377  0.0176
  471MOL0     C62053  10.180   1.061   2.493 -0.0514 -0.6513  1.0862
  471MOL0     C62054  10.095   1.062   2.366 -0.7376  0.1246  0.2102
  471MOL0     C62055  10.128   1.165   2.249  0.8589  0.7542 -1.2235
  471MOL0     C62056  10.138   1.098   2.115  0.1307  0.2321  1.0846
  471MOL0     N62057  10.203   1.182   2.007  0.1241  0.2008  0.4297
  471MOL0     C62058  10.208   1.322   2.008 -0.0032  0.0960 -0.5290
  471MOL0     C62059  10.232   1.354   1.879  0.5927  0.3365 -0.6517
  471MOL0     C62060  10.253   1.496   1.833 -0.1075 -0.1517  0.1926
  471MOL0     C62061  10.247   1.497   1.682 -0.0309 -0.6834  0.5324
  471MOL0     C62062  10.106   1.474   1.617 -0.1067 -0.3667  0.2827
  471MOL0     C62063   9.997   1.571   1.654 -0.2702 -0.5390  0.1155
  471MOL0     O62064  10.030   1.713   1.627 -0.2266 -0.1152  0.4806
  471MOL0     C62065   9.980   1.795   1.723 -0.6670 -0.7307  0.1442
  471MOL0     C62066   9.845   1.827   1.722  0.2662 -0.6011  0.5405
  471MOL0     C62067   9.780   1.900   1.827 -0.0632 -0.3471 -0.2044
  471MOL0     C62068   9.849   1.939   1.936 -0.0428 -1.2449  0.6482
  471MOL0     C62069   9.785   2.017   2.048 -0.1074  0.6697  0.1441
  471MOL0     O62070   9.854   2.104   2.112 -0.1137  0.4464 -1.2509
  471MOL0     C62071   9.795   2.205   2.183  0.2933  0.3503  0.6474
  471MOL0     C62072   9.864   2.260   2.288 -0.5515 -0.5841  0.1380
  471MOL0     C62073   9.825   2.382   2.343 -0.3667 -0.1707  0.2330
  471MOL0     C62074   9.721   2.458   2.289  0.5354 -0.6183  0.3042
  471MOL0     O62075   9.692   2.579   2.347 -0.2668  0.5057 -0.1607
  471MOL0     C62076   9.556   2.626   2.347 -0.0286  0.3647 -0.6098
  471MOL0     C62077   9.549   2.723   2.468 -0.7531 -0.5284 -0.1546
  471MOL0     C62078   9.407   2.776   2.464 -0.0818  0.1772 -0.3659
  471MOL0     C62079   9.300   2.671   2.521  0.1124  0.8769 -0.9069
  471MOL0     C62080   9.172   2.744   2.558 -0.0236 -0.7249  0.0143
  471MOL0     C62081   9.065   2.639   2.608  0.8577 -0.6143 -0.1660
  471MOL0     C62082   8.935   2.716   2.654 -0.3411  0.1981 -0.3122
  471MOL0     C62083   8.854   2.664   2.773  0.3556  0.5572  0.8230
  471MOL0    Cl62084   8.963   2.659   2.913  0.2758 -0.5446  0.0110
  471MOL0     C62085   9.645   2.404   2.175 -0.0145  1.2373  0.0435
  471MOL0     C62086   9.685   2.274   2.130  0.9314  0.5136 -0.0544
  471MOL0     O62087   9.669   1.997   2.070 -0.1370 -0.0858  1.1241
  471MOL0     C62088   9.987   1.895   1.945 -0.1479 -1.5820 -0.1106
  471MOL0     C62089  10.051   1.835   1.838 -0.2885  1.5012 -0.0034
  471MOL0     N62090  10.246   1.234   1.800  0.1400 -0.5513 -0.5438
  471MOL0     N62091  10.229   1.136   1.878  0.7955 -0.0034 -0.8252
  471MOL0     C62092  10.295   0.815   3.222 -0.6260  0.4323  0.1034
  471MOL0     C62093  10.327   0.826   3.362 -0.0773  0.3764 -0.0626
  471MOL0     C62094  10.332   0.917   3.805 -0.0371 -1.0974  0.0455
  471MOL0     C62095  10.340   0.830   3.915  0.5077  0.5808  0.8251
  471MOL0     C62096  10.384   0.875   4.046 -1.0982  0.6135  0.7145
  471MOL0     C62097  10.391   1.012   4.072 -1.4741  0.4948  0.3036
  471MOL0     O62098  10.401   1.061   4.198 -0.0565 -0.1124  0.2390
  471MOL0     C62099  10.534   1.087   4.243  0.1915  0.2629 -0.5228
  471MOL0     C62100  10.609   1.200   4.160 -0.5984  0.3745 -0.0608
  471MOL0     C62101  10.741   1.235   4.227 -0.5366  0.5671  0.1216
  471MOL0     C62102  10.857   1.134   4.207  0.3013 -0.1656  0.4353
  471MOL0     C62103  10.872   1.116   4.067  0.5997  0.5808 -1.1874
  471MOL0     C62104  10.893   1.107   3.947 -0.3163 -0.3526 -0.4421
  471MOL0     C62105  10.371   1.093   3.962  0.4248 -0.0809 -0.3227
  471MOL0     C62106  10.346   1.053   3.831 -0.0930  0.5270  0.6391
  471MOL0     H62107  10.204   1.122   3.434  1.5373 -1.4135  1.4346
  471MOL0     H62108  10.163   1.120   3.185 -3.6322  0.1951  1.8275
  471MOL0     H62109  10.192   0.724   2.982  0.5998 -0.1446  2.1585
  471MOL0     H62110  10.341   0.819   2.936 -0.5810 -1.1700 -0.2810
  471MOL0     H62111  10.066   0.831   2.802 -0.7154 -1.4857 -3.4225
  471MOL0     H62112  10.218   0.739   2.756  2.4740  2.4640 -0.6394
  471MOL0     H62113  10.327   0.952   2.720  0.9017  1.7771  3.0527
  471MOL0     H62114  10.197   1.045   2.761  0.4610  1.1933 -2.2286
  471MOL0     H62115  10.193   0.847   2.523  1.5336  0.5835  0.5909
  471MOL0     H62116  10.041   0.926   2.592 -0.2677 -2.4583  3.8675
  471MOL0     H62117  10.288   1.060   2.472  0.0227 -0.8562  1.4733
  471MOL0     H62118  10.155   1.155   2.543 -3.0946 -1.3639  1.0661
  471MOL0     H62119   9.994   1.086   2.400 -0.3466  0.7210  0.9746
  471MOL0     H62120  10.096   0.962   2.319 -0.9448 -0.3412  1.1734
  471MOL0     H62121  10.049   1.240   2.241 -1.0934 -0.6696  2.3101
  471MOL0     H62122  10.226   1.207   2.271  1.0107  0.2541 -0.9107
  471MOL0     H62123  10.042   1.072   2.071  0.2681  0.1443  0.8344
  471MOL0     H62124  10.196   1.005   2.113  0.3607  0.2838 -3.1712
  471MOL0     H62125  10.201   1.385   2.096  3.3364  1.7725 -1.3020
  471MOL0     H62126  10.353   1.526   1.864  0.5835 -1.4737 -0.6773
  471MOL0     H62127  10.183   1.562   1.886  1.9884  2.7755 -0.4734
  471MOL0     H62128  10.311   1.416   1.646 -1.8192 -1.2245 -1.6011
  471MOL0     H62129  10.286   1.590   1.640 -3.4768  1.1649  1.0305
  471MOL0     H62130  10.105   1.474   1.508 -4.4567 -1.2544  0.1461
  471MOL0     H62131  10.085   1.370   1.644 -0.4189 -0.4001 -0.1036
  471MOL0     H62132   9.964   1.560   1.758 -1.1026 -2.7149 -0.3365
  471MOL0     H62133   9.919   1.544   1.583 -0.6958 -1.2342  0.8343
  471MOL0     H62134   9.786   1.804   1.634 -1.9289 -1.9146  2.2169
  471MOL0     H62135   9.679   1.935   1.806 -0.3109  0.2064  1.6857
  471MOL0     H62136   9.954   2.206   2.317 -0.9198 -1.0283  0.4685
  471MOL0     H62137   9.878   2.424   2.427 -1.8762 -1.4017  1.8664
  471MOL0     H62138   9.486   2.543   2.361 -3.6809  3.3420  0.3947
  471MOL0     H62139   9.543   2.675   2.250 -0.2413 -0.6508 -1.1115
  471MOL0     H62140   9.610   2.810   2.442 -2.2026  0.3124 -0.9050
  471MOL0     H62141   9.598   2.684   2.557  0.8277 -0.5653 -1.0070
  471MOL0     H62142   9.379   2.799   2.361 -0.8599  4.2321  0.5601
  471MOL0     H62143   9.397   2.874   2.512 -0.7352 -0.4257  0.7928
  471MOL0     H62144   9.285   2.605   2.435  1.2086  1.6926 -1.7607
  471MOL0     H62145   9.347   2.610   2.599 -0.8777  0.5050 -0.5871
  471MOL0     H62146   9.131   2.788   2.467 -1.2130 -0.6641  0.5552
  471MOL0     H62147   9.188   2.819   2.636 -1.9185  0.0032 -0.2316
  471MOL0     H62148   9.104   2.582   2.693 -0.4964  1.3613  1.9007
  471MOL0     H62149   9.043   2.578   2.521 -0.8474 -0.0358 -0.1792
  471MOL0     H62150   8.953   2.820   2.683 -0.6214  1.4201 -4.0394
  471MOL0     H62151   8.875   2.729   2.564  1.1065  1.4099 -1.1432
  471MOL0     H62152   8.830   2.559   2.755 -2.2067  1.4435 -1.7465
  471MOL0     H62153   8.758   2.708   2.802  1.8223  2.3306  3.3255
  471MOL0     H62154   9.559   2.447   2.125  0.1113  0.4062 -0.9278
  471MOL0     H62155   9.642   2.228   2.041  3.6769 -2.6397  0.0240
  471MOL0     H62156  10.039   1.911   2.038 -0.0591 -1.2798 -0.2128
  471MOL0     H62157  10.151   1.792   1.844 -0.6730  0.5448 -0.2567
  471MOL0     H62158  10.312   0.721   3.171 -3.3556 -1.1720  1.8829
  471MOL0     H62159  10.390   0.743   3.394 -0.8821 -0.2176  0.0142
  471MOL0     H62160  10.311   0.726   3.902 -2.8344  1.4264  0.6139
  471MOL0     H62161  10.391   0.791   4.114 -0.1650  0.3865  0.3464
  471MOL0     H62162  10.601   1.001   4.250  2.4887  2.0584  1.3318
  471MOL0     H62163  10.530   1.127   4.345  2.7068 -0.9368  0.1277
  471MOL0     H62164  10.626   1.180   4.054 -2.4653  2.6956 -0.8790
  471MOL0     H62165  10.548   1.291   4.160 -1.7664 -0.3668  0.6719
  471MOL0     H62166  10.724   1.250   4.334  2.4452  5.1915  0.2220
  471MOL0     H62167  10.777   1.331   4.187  1.4491  1.2906  3.2707
  471MOL0     H62168  10.952   1.171   4.248  1.5640 -4.0825  1.4760
  471MOL0     H62169  10.843   1.033   4.246  2.1126 -0.8487 -0.5464
  471MOL0     H62170  10.911   1.094   3.842 -0.8302 -3.8975 -0.1950
  471MOL0     H62171  10.374   1.196   3.995 -0.4625  0.1114 -0.8042
  471MOL0     H62172  10.338   1.125   3.750 -0.4367  1.1546  1.2136
  472MOL0     O62173   2.998   4.245   5.647 -0.0844  0.5498  0.1181
  472MOL0     C62174   2.922   4.294   5.727 -0.3670 -0.0853 -0.9511
  472MOL0     O62175   2.877   4.420   5.722 -0.6815  0.0469  0.2905
  472MOL0     C62176   2.913   4.505   5.619  1.0793 -0.0993  0.0184
  472MOL0     C62177   3.045   4.513   5.572 -0.7960  0.4952  0.1262
  472MOL0     C62178   3.080   4.611   5.482  0.3019  0.8001 -0.5197
  472MOL0     C62179   2.985   4.699   5.416 -0.4327  0.2536  0.2954
  472MOL0     O62180   3.038   4.773   5.307 -0.2695  0.0449  0.2525
  472MOL0     C62181   2.961   4.776   5.179 -0.5450  0.8120 -0.5821
  472MOL0     C62182   2.918   4.923   5.158  0.1790 -0.4476 -0.3125
  472MOL0     C62183   3.037   5.005   5.115 -0.1083  0.7522  0.2338
  472MOL0     C62184   3.021   5.158   5.123  0.3883 -0.4471 -0.5933
  472MOL0     C62185   2.902   5.217   5.037 -0.6213  0.1789 -0.9057
  472MOL0     C62186   2.917   5.368   5.021  0.4653  0.6086  0.0029
  472MOL0     C62187   2.987   5.391   4.895  0.1850  0.1573 -0.1538
  472MOL0     C62188   2.995   5.540   4.848  0.8639  0.6949  0.0179
  472MOL0     N62189   3.077   5.554   4.728 -0.3616  0.2604 -0.3381
  472MOL0     C62190   3.051   5.492   4.610  0.4761 -0.0650  0.6438
  472MOL0     C62191   3.163   5.527   4.546  0.3056  0.1021  0.0285
  472MOL0     C62192   3.176   5.496   4.399  0.1020  0.1479  0.3587
  472MOL0     C62193   3.254   5.366   4.369  0.0421  0.5735  0.2832
  472MOL0     C62194   3.176   5.254   4.311 -0.3838 -0.2350  0.0408
  472MOL0     C62195   3.105   5.175   4.415 -1.3612  0.6323 -0.2950
  472MOL0     O62196   2.984   5.227   4.463  1.0256 -0.2981 -0.0315
  472MOL0     C62197   2.907   5.150   4.554 -1.1128 -0.1543  0.2119
  472MOL0     C62198   2.761   5.157   4.553  0.6749 -0.0485  0.5644
  472MOL0     C62199   2.692   5.073   4.634  0.1760 -0.2538  0.6194
  472MOL0     C62200   2.755   4.983   4.728 -0.0200 -0.5324  0.0796
  472MOL0     C62201   2.665   4.906   4.812  0.9315  1.1181 -0.3472
  472MOL0     O62202   2.712   4.786   4.861 -0.1141 -0.0466 -0.4500
  472MOL0     C62203   2.647   4.718   4.958  0.5440  0.4224  0.3602
  472MOL0     C62204   2.585   4.767   5.073  0.3494  0.7007 -0.6879
  472MOL0     C62205   2.533   4.679   5.173 -0.2149  0.0603  0.6914
  472MOL0     C62206   2.542   4.535   5.151  0.1609 -0.1001  0.7317
  472MOL0     O62207   2.508   4.454   5.258  0.8267 -0.3996  0.9084
  472MOL0     C62208   2.581   4.336   5.262  0.5213  0.1392 -0.8870
  472MOL0     C62209   2.545   4.269   5.404  1.1995  0.2916 -0.1753
  472MOL0     C62210   2.633   4.140   5.438 -0.2697 -0.2191 -0.1072
  472MOL0     C62211   2.575   4.083   5.566  0.0905  0.5625 -0.1314
  472MOL0     C62212   2.645   3.952   5.604 -0.6506  0.1911 -0.1741
  472MOL0     C62213   2.607   3.871   5.728  0.0467 -0.2563 -0.7539
  472MOL0     C62214   2.673   3.728   5.730  0.8479 -0.9786 -0.2249
  472MOL0     C62215   2.631   3.655   5.861 -0.5950  0.4819 -0.6574
  472MOL0    Cl62216   2.736   3.514   5.859 -0.2516 -0.3916  0.0313
  472MOL0     C62217   2.588   4.487   5.024 -0.0630 -0.2785  0.5226
  472MOL0     C62218   2.639   4.580   4.931  0.0451  0.1201 -0.7704
  472MOL0     O62219   2.555   4.953   4.844 -0.1169 -0.0121  0.1710
  472MOL0     C62220   2.893   4.979   4.737  0.1663 -0.6897  0.5968
  472MOL0     C62221   2.969   5.067   4.658 -0.1585  0.3165 -0.0142
  472MOL0     N62222   3.263   5.591   4.618 -0.1749 -0.2055  0.6353
  472MOL0     N62223   3.205   5.608   4.726  0.3959  0.4735 -0.3325
  472MOL0     C62224   2.855   4.687   5.463  1.2953  0.3390  0.4698
  472MOL0     C62225   2.819   4.599   5.570  0.8197 -0.2455 -0.3870
  472MOL0     C62226   2.877   4.208   5.845  0.3993  0.6682 -0.4421
  472MOL0     C62227   2.764   4.228   5.920 -0.2312 -0.3594 -1.0038
  472MOL0     C62228   2.719   4.133   6.013  0.7869 -0.7806  0.2115
  472MOL0     C62229   2.782   4.011   6.030  0.4321  0.4822 -0.7692
  472MOL0     O62230   2.756   3.932   6.142  0.7765  0.0222 -0.6174
  472MOL0     C62231   2.796   3.991   6.265 -0.7418 -0.6709 -0.2610
  472MOL0     C62232   2.742   3.909   6.378 -0.0567  0.6925 -0.1144
  472MOL0     C62233   2.749   3.754   6.341 -1.0675 -1.0408  0.3389
  472MOL0     C62234   2.900   3.703   6.316  0.7858 -0.6656  0.4969
  472MOL0     C62235   2.911   3.566   6.258  1.0381  0.0543 -0.3145
  472MOL0     C62236   2.916   3.446   6.231 -0.8400 -0.4342  0.2383
  472MOL0     C62237   2.898   3.988   5.962  0.4503  0.5097  0.9308
  472MOL0     C62238   2.943   4.085   5.876 -0.7139  0.0539  0.3924
  472MOL0     H62239   3.120   4.441   5.603 -3.0714 -3.5106 -2.7010
  472MOL0     H62240   3.185   4.634   5.463  0.6717  0.5449  1.0835
  472MOL0     H62241   2.872   4.713   5.185 -0.5601  0.9717  2.8357
  472MOL0     H62242   3.007   4.735   5.089  0.3726 -1.8124  0.9785
  472MOL0     H62243   2.887   4.971   5.251  0.6011  3.1721 -1.8526
  472MOL0     H62244   2.834   4.933   5.088  0.4234  0.0794 -0.5454
  472MOL0     H62245   3.078   4.978   5.017  1.4985  0.6656  0.9002
  472MOL0     H62246   3.114   4.986   5.191 -0.0465  2.3384  0.6111
  472MOL0     H62247   3.000   5.176   5.229  1.6329  0.3687 -0.4634
  472MOL0     H62248   3.119   5.185   5.082  0.5160 -0.6963 -0.4587
  472MOL0     H62249   2.806   5.196   5.086  0.0082 -0.6274  0.0411
  472MOL0     H62250   2.897   5.166   4.941 -2.6475 -0.8774 -0.3158
  472MOL0     H62251   2.976   5.419   5.098  0.6814 -0.1975  0.3756
  472MOL0     H62252   2.820   5.418   5.008  1.4304  2.1925 -1.4240
  472MOL0     H62253   3.088   5.350   4.897  0.5342  1.0262  1.5325
  472MOL0     H62254   2.941   5.331   4.816  0.4491 -1.4477  0.8585
  472MOL0     H62255   3.044   5.595   4.929  4.5643 -1.3510 -0.6107
  472MOL0     H62256   2.892   5.573   4.831 -1.1587 -3.4249  2.5595
  472MOL0     H62257   2.959   5.450   4.571  1.1656 -1.3974  0.3901
  472MOL0     H62258   3.214   5.579   4.339  1.1116  0.7722  1.8173
  472MOL0     H62259   3.073   5.485   4.363  0.7183  0.1891 -1.5592
  472MOL0     H62260   3.280   5.325   4.467 -5.5260 -0.7965  1.5280
  472MOL0     H62261   3.351   5.385   4.322  2.4957  1.3061  5.0223
  472MOL0     H62262   3.125   5.281   4.218 -1.0869  0.6345  0.6566
  472MOL0     H62263   3.245   5.176   4.278 -1.4398 -1.0430 -0.3325
  472MOL0     H62264   3.174   5.155   4.496  0.1342 -1.1287 -1.9093
  472MOL0     H62265   3.090   5.076   4.372 -0.2802 -0.9169  2.6752
  472MOL0     H62266   2.715   5.231   4.488 -3.1224  1.3446  4.3256
  472MOL0     H62267   2.585   5.070   4.621  0.3008  2.0061 -1.5595
  472MOL0     H62268   2.603   4.872   5.097  0.0197  0.7698 -0.7383
  472MOL0     H62269   2.486   4.727   5.258 -0.3403 -1.8228  1.7245
  472MOL0     H62270   2.686   4.344   5.231 -0.6734  3.4695 -5.1958
  472MOL0     H62271   2.536   4.276   5.183 -3.5925 -0.5373  1.7009
  472MOL0     H62272   2.444   4.230   5.387  2.2701 -1.4457 -3.2654
  472MOL0     H62273   2.542   4.343   5.485  0.4119 -1.8084  1.8594
  472MOL0     H62274   2.735   4.166   5.468 -0.1254 -0.3553 -0.4813
  472MOL0     H62275   2.639   4.075   5.351  1.5792 -0.6718  0.3229
  472MOL0     H62276   2.590   4.149   5.652  1.2529 -1.8831  1.6679
  472MOL0     H62277   2.470   4.057   5.554  0.4877 -0.4263 -1.6764
  472MOL0     H62278   2.752   3.973   5.613 -1.0869  2.5242  0.4285
  472MOL0     H62279   2.638   3.885   5.518 -0.3839 -1.0646  0.7644
  472MOL0     H62280   2.498   3.859   5.730 -0.4926  3.3774 -1.0581
  472MOL0     H62281   2.618   3.938   5.814 -2.6086  1.6247 -1.7004
  472MOL0     H62282   2.628   3.668   5.650  0.6489  1.4879 -2.0936
  472MOL0     H62283   2.782   3.725   5.721  0.8516 -4.1322 -0.1293
  472MOL0     H62284   2.526   3.623   5.865  0.2464 -2.6309 -0.5411
  472MOL0     H62285   2.662   3.719   5.944 -0.7344 -1.4586  0.9648
  472MOL0     H62286   2.591   4.379   5.012  4.4525 -0.6795  2.9650
  472MOL0     H62287   2.691   4.547   4.841  0.3512 -1.5932 -0.0033
  472MOL0     H62288   2.950   4.914   4.803  1.0738  0.4264  0.9337
  472MOL0     H62289   3.072   5.055   4.688 -0.4802 -1.9308  0.4018
  472MOL0     H62290   2.770   4.747   5.432  1.3856  0.2057 -0.0593
  472MOL0     H62291   2.715   4.593   5.602 -0.0080  0.6889 -2.7344
  472MOL0     H62292   2.714   4.323   5.900 -0.3728 -0.7760 -2.8015
  472MOL0     H62293   2.632   4.161   6.071  0.5706  1.1521 -0.9453
  472MOL0     H62294   2.772   4.096   6.281  0.7564 -0.5036  1.1093
  472MOL0     H62295   2.905   3.994   6.270 -0.8040  0.4382  1.1826
  472MOL0     H62296   2.793   3.935   6.471  0.0442  0.0685  0.0063
  472MOL0     H62297   2.634   3.920   6.390 -0.4233 -2.2484  0.0366
  472MOL0     H62298   2.681   3.747   6.256  1.0277  3.2287 -2.0667
  472MOL0     H62299   2.716   3.683   6.417 -0.2714 -0.4929  1.2145
  472MOL0     H62300   2.953   3.771   6.249  0.1914  1.3767  1.9831
  472MOL0     H62301   2.944   3.710   6.416 -3.4739  0.2022  2.5765
  472MOL0     H62302   2.910   3.340   6.217  0.0846 -0.4882  0.1716
  472MOL0     H62303   2.962   3.905   5.991  1.9052 -0.1722 -3.4362
  472MOL0     H62304   3.042   4.081   5.833 -0.1530  0.7444  1.5696
  473MOL0     O62305   5.057   7.517   0.102  0.1995 -0.1642  0.2390
  473MOL0     C62306   4.931   7.515   0.106  1.0868  1.0567  0.0121
  473MOL0     O62307   4.847   7.549   0.001 -0.0431 -0.5481  0.0297
  473MOL0     C62308   4.913   7.574  -0.121  0.6220  0.3689  1.0311
  473MOL0     C62309   4.892   7.480  -0.229 -0.4807 -0.2655 -0.7581
  473MOL0     C62310   4.950   7.500  -0.351  0.3164 -0.0607 -0.0607
  473MOL0     C62311   5.038   7.608  -0.362 -0.6725 -0.5541 -0.2479
  473MOL0     O62312   5.113   7.630  -0.476  0.6607 -0.2939  0.3717
  473MOL0     C62313   5.143   7.518  -0.556 -0.8843  0.0868  0.8611
  473MOL0     C62314   5.257   7.550  -0.649  0.4120 -0.4062  0.6037
  473MOL0     C62315   5.265   7.435  -0.760  0.4548  0.4651 -0.2896
  473MOL0     C62316   5.396   7.423  -0.837  0.8391 -0.4258  0.4153
  473MOL0     C62317   5.373   7.326  -0.957 -0.3118 -0.4508 -0.5190
  473MOL0     C62318   5.361   7.186  -0.904  0.1770  1.5132  0.3467
  473MOL0     C62319   5.339   7.082  -1.012  0.1198  0.9502 -0.3765
  473MOL0     C62320   5.465   7.069  -1.098  0.5969  0.3513  0.0902
  473MOL0     N62321   5.459   6.957  -1.190 -0.0611  0.9851  0.2290
  473MOL0     C62322   5.463   6.820  -1.161  0.7076  0.8102  0.6460
  473MOL0     C62323   5.442   6.753  -1.271 -0.2293  0.8555 -0.6804
  473MOL0     C62324   5.448   6.607  -1.260 -0.3222  0.9097 -0.2169
  473MOL0     C62325   5.328   6.525  -1.315 -0.3079 -0.0625  0.1369
  473MOL0     C62326   5.220   6.496  -1.199  0.5246  1.0836 -0.1958
  473MOL0     C62327   5.078   6.485  -1.249  1.4360 -0.2312  0.9168
  473MOL0     O62328   5.017   6.359  -1.293 -0.5503  0.6393 -1.0469
  473MOL0     C62329   5.033   6.313  -1.418  0.4459  0.5216  0.4964
  473MOL0     C62330   4.998   6.180  -1.432  0.2059  0.9967  0.2196
  473MOL0     C62331   5.000   6.121  -1.558  0.7788 -0.0464  0.3362
  473MOL0     C62332   5.061   6.182  -1.669 -0.0825  0.2416 -0.3986
  473MOL0     C62333   5.086   6.104  -1.804  0.3668 -0.4840  0.9583
  473MOL0     O62334   5.139   6.193  -1.897  0.2114  0.6427  0.2897
  473MOL0     C62335   5.111   6.162  -2.032 -0.8733  0.1781  0.6967
  473MOL0     C62336   5.142   6.033  -2.093  0.7708 -0.2178  0.1179
  473MOL0     C62337   5.120   6.022  -2.224 -0.0064 -0.2042  0.6618
  473MOL0     C62338   5.066   6.124  -2.314 -0.4200  0.5308  0.2222
  473MOL0     O62339   5.042   6.101  -2.446 -0.6567 -0.3622 -0.3074
  473MOL0     C62340   4.959   6.184  -2.516  0.7319  0.3184 -0.7067
  473MOL0     C62341   4.975   6.172  -2.672 -0.2060  0.0145 -0.5836
  473MOL0     C62342   4.954   6.030  -2.715  0.4906  1.0205  0.5755
  473MOL0     C62343   5.000   6.001  -2.860  0.1229  0.0567  0.0840
  473MOL0     C62344   4.904   5.903  -2.923 -0.7279  0.4580  0.0656
  473MOL0     C62345   4.920   5.889  -3.072  0.1046  0.1149  0.4723
  473MOL0     C62346   4.795   5.822  -3.126 -0.1324 -0.0406  1.0024
  473MOL0     C62347   4.837   5.793  -3.270  1.0561 -0.4292  0.5342
  473MOL0    Cl62348   4.705   5.713  -3.357 -0.3325  0.1614  0.0384
  473MOL0     C62349   5.048   6.247  -2.248 -0.4807 -0.4963 -0.2310
  473MOL0     C62350   5.073   6.268  -2.107  0.1606  0.5603  0.8223
  473MOL0     O62351   5.043   5.991  -1.827 -0.7909  0.6547 -0.1853
  473MOL0     C62352   5.078   6.326  -1.660 -0.2553  0.5777 -0.2913
  473MOL0     C62353   5.065   6.388  -1.536 -0.9931  0.4255  0.0152
  473MOL0     N62354   5.434   6.847  -1.372 -0.3423 -0.0683 -0.2635
  473MOL0     N62355   5.447   6.968  -1.324 -0.4548 -0.1751  0.2301
  473MOL0     C62356   5.050   7.705  -0.258  0.1043  0.9931  0.4382
  473MOL0     C62357   4.980   7.688  -0.138 -1.0877 -0.4030  0.2430
  473MOL0     C62358   4.868   7.482   0.233  1.0570 -0.1466 -1.4325
  473MOL0     C62359   4.938   7.480   0.349 -0.9787  0.8515  0.3249
  473MOL0     C62360   4.872   7.451   0.471  0.4173 -0.1991 -0.0507
  473MOL0     C62361   4.736   7.426   0.477 -0.2024  0.2095 -0.4901
  473MOL0     O62362   4.668   7.400   0.596 -0.1999 -0.2739 -0.0738
  473MOL0     C62363   4.722   7.487   0.700  0.5769 -0.2057 -0.5551
  473MOL0     C62364   4.724   7.640   0.683 -1.4758  0.7109 -0.2549
  473MOL0     C62365   4.783   7.708   0.809 -0.3907  1.2840  0.5639
  473MOL0     C62366   4.780   7.852   0.794  0.5465 -0.0042  0.1232
  473MOL0     C62367   4.825   7.923   0.910  0.4932 -0.2348  0.0763
  473MOL0     C62368   4.851   7.998   1.002 -0.4222  0.4871  0.2497
  473MOL0     C62369   4.671   7.415   0.356 -0.6328  1.6144 -0.2690
  473MOL0     C62370   4.730   7.442   0.234  0.4199 -0.1584  0.8413
  473MOL0     H62371   4.826   7.395  -0.217 -2.0405  0.5291 -2.9858
  473MOL0     H62372   4.914   7.435  -0.430 -1.8389 -0.9300  1.5333
  473MOL0     H62373   5.065   7.491  -0.627 -0.7333  0.4044  0.5706
  473MOL0     H62374   5.169   7.428  -0.500  2.9159  0.2569 -0.3470
  473MOL0     H62375   5.338   7.569  -0.578  2.3192 -2.5566 -0.8361
  473MOL0     H62376   5.258   7.632  -0.722  2.4908 -1.6672 -0.9122
  473MOL0     H62377   5.189   7.462  -0.834  0.0473  0.8353  0.2593
  473MOL0     H62378   5.241   7.339  -0.714  0.6827  0.2181 -0.6783
  473MOL0     H62379   5.433   7.521  -0.870 -2.7776  1.5037  1.5222
  473MOL0     H62380   5.473   7.377  -0.775  1.5246  0.8318  0.5330
  473MOL0     H62381   5.472   7.327  -1.004 -0.9499  0.4039 -1.9078
  473MOL0     H62382   5.289   7.349  -1.023 -2.6159 -0.6333  2.1511
  473MOL0     H62383   5.278   7.169  -0.835 -1.4792  3.7844 -0.9533
  473MOL0     H62384   5.446   7.149  -0.845  0.0583 -0.4547 -0.6272
  473MOL0     H62385   5.326   6.986  -0.961 -0.0825  0.6083 -1.0660
  473MOL0     H62386   5.252   7.098  -1.075  0.6243 -1.1378 -1.6977
  473MOL0     H62387   5.550   7.052  -1.032  0.7766  1.2919  0.1107
  473MOL0     H62388   5.492   7.156  -1.159 -2.3571  0.8629 -0.6360
  473MOL0     H62389   5.475   6.773  -1.064  0.7509 -2.3047 -0.7593
  473MOL0     H62390   5.460   6.576  -1.156 -0.6689 -2.0569 -0.9768
  473MOL0     H62391   5.535   6.570  -1.314  0.7341 -0.4752  2.2437
  473MOL0     H62392   5.357   6.430  -1.361  1.7690  0.2308  0.7749
  473MOL0     H62393   5.274   6.584  -1.390  0.3943 -1.1412 -1.2627
  473MOL0     H62394   5.243   6.400  -1.151  0.2881  1.5279  0.8271
  473MOL0     H62395   5.229   6.581  -1.131 -1.0476 -0.5034  2.1498
  473MOL0     H62396   5.044   6.566  -1.314 -1.4031  0.9944  3.6888
  473MOL0     H62397   5.014   6.495  -1.161 -3.0682 -1.5214 -1.8865
  473MOL0     H62398   4.966   6.107  -1.357  2.8756  0.8720  1.3864
  473MOL0     H62399   4.963   6.019  -1.572  1.6010 -0.1274 -1.6122
  473MOL0     H62400   5.184   5.952  -2.034  0.9218  0.7829  1.4341
  473MOL0     H62401   5.147   5.924  -2.261  1.1177 -0.1731  1.3264
  473MOL0     H62402   4.965   6.291  -2.492  0.8038  0.2321 -0.3372
  473MOL0     H62403   4.857   6.158  -2.490  0.9734 -1.1533 -1.1277
  473MOL0     H62404   5.080   6.199  -2.687  0.1006 -0.6106  0.3608
  473MOL0     H62405   4.912   6.246  -2.722 -1.1979  0.2794  0.9991
  473MOL0     H62406   4.849   5.998  -2.708  0.3846  1.1286 -0.2913
  473MOL0     H62407   5.014   5.963  -2.653  0.0989  0.1138 -0.0036
  473MOL0     H62408   5.005   6.095  -2.917 -2.0239  0.3769  0.3247
  473MOL0     H62409   5.103   5.964  -2.857  1.1542  2.5869 -0.8937
  473MOL0     H62410   4.801   5.934  -2.906 -0.0785  3.9003 -1.2854
  473MOL0     H62411   4.927   5.803  -2.885  0.9268 -0.9973 -4.1346
  473MOL0     H62412   5.013   5.840  -3.103 -0.7930 -0.6004 -1.2223
  473MOL0     H62413   4.926   5.992  -3.107  2.3893 -0.4291 -0.9703
  473MOL0     H62414   4.768   5.727  -3.080 -2.2576  0.0627  0.1068
  473MOL0     H62415   4.711   5.891  -3.118  1.2759  1.7132  1.3333
  473MOL0     H62416   4.933   5.741  -3.274  0.9285 -0.6370 -0.0239
  473MOL0     H62417   4.849   5.891  -3.318 -0.5394 -0.5202 -0.1025
  473MOL0     H62418   5.039   6.344  -2.296 -0.5663 -0.3425  0.0889
  473MOL0     H62419   5.064   6.367  -2.063 -0.1589  1.6523 -1.5519
  473MOL0     H62420   5.108   6.385  -1.745 -0.3765  1.0195 -0.0267
  473MOL0     H62421   5.085   6.494  -1.541 -1.5897  0.5398 -0.0851
  473MOL0     H62422   5.115   7.789  -0.281  0.8455 -0.0333 -1.4446
  473MOL0     H62423   4.977   7.758  -0.055 -0.5879 -3.0472  2.6640
  473MOL0     H62424   5.042   7.507   0.335 -0.2954 -1.7421  0.0769
  473MOL0     H62425   4.943   7.465   0.551  0.7313  1.8676 -0.6458
  473MOL0     H62426   4.824   7.457   0.724  0.4225  0.0739  0.4956
  473MOL0     H62427   4.669   7.454   0.790  0.6124 -1.7892 -1.0828
  473MOL0     H62428   4.798   7.660   0.605  1.6935 -0.9089  2.0961
  473MOL0     H62429   4.630   7.688   0.655 -1.6499  1.7739  1.9698
  473MOL0     H62430   4.887   7.685   0.833 -0.4776  1.9943  1.6891
  473MOL0     H62431   4.720   7.696   0.898 -2.8979  2.1334 -0.9874
  473MOL0     H62432   4.843   7.884   0.711  1.2975  2.9156  1.6918
  473MOL0     H62433   4.677   7.879   0.770 -0.4048 -2.7310  0.7087
  473MOL0     H62434   4.881   8.057   1.087  2.0068 -2.7689  1.8499
  473MOL0     H62435   4.569   7.379   0.345 -0.3516 -0.8204  3.6285
  473MOL0     H62436   4.677   7.456   0.140 -0.6188 -0.8218  1.3138
  474MOL0     O62437   7.637   9.849   4.042 -0.5459 -0.0901 -0.5635
  474MOL0     C62438   7.550   9.813   4.123 -0.2937 -0.8106 -0.6140
  474MOL0     O62439   7.502   9.886   4.227  0.0525 -0.0664  0.0320
  474MOL0     C62440   7.573  10.001   4.254  1.0907  0.5085 -0.2236
  474MOL0     C62441   7.671  10.014   4.352 -0.5803 -1.1267 -0.9778
  474MOL0     C62442   7.740  10.137   4.378 -0.9123 -0.2952  0.0964
  474MOL0     C62443   7.716  10.245   4.301 -0.2597 -0.2677  0.5381
  474MOL0     O62444   7.779  10.367   4.296 -0.0909  0.3856  0.3547
  474MOL0     C62445   7.858  10.418   4.403 -0.7072  0.5794 -0.4397
  474MOL0     C62446   7.996  10.453   4.360  0.4564 -1.0299 -0.3194
  474MOL0     C62447   8.076  10.533   4.472  0.3165 -0.3748  0.0187
  474MOL0     C62448   8.082  10.470   4.610  0.3832 -0.5723 -2.0868
  474MOL0     C62449   8.165  10.337   4.624  0.5117 -0.2633  0.6517
  474MOL0     C62450   8.314  10.371   4.615 -0.3700 -0.7636  0.3290
  474MOL0     C62451   8.372  10.453   4.726 -0.6922 -0.8468 -0.5211
  474MOL0     C62452   8.530  10.457   4.728 -0.4260  0.3719 -0.0893
  474MOL0     N62453   8.585  10.528   4.843 -0.7020  0.4132  0.3834
  474MOL0     C62454   8.663  10.647   4.840  0.1521  0.2608 -0.8456
  474MOL0     C62455   8.709  10.655   4.965  1.5465 -0.5209 -0.4949
  474MOL0     C62456   8.792  10.781   5.006  0.0819  0.4408 -0.6743
  474MOL0     C62457   8.901  10.822   4.908 -0.1084 -0.3153 -0.5430
  474MOL0     C62458   8.958  10.961   4.943  0.0734  0.4617 -0.3497
  474MOL0     C62459   8.871  11.095   4.913  0.3029  0.0563 -0.6674
  474MOL0     O62460   8.901  11.121   4.776 -0.6667  0.2118 -0.2631
  474MOL0     C62461   8.836  11.218   4.704 -1.1745  0.7337 -0.6825
  474MOL0     C62462   8.853  11.355   4.733 -0.3557  0.6142  0.1977
  474MOL0     C62463   8.808  11.444   4.642 -0.1915 -0.2923 -0.4194
  474MOL0     C62464   8.739  11.404   4.525 -0.8414  0.4383 -0.1930
  474MOL0     C62465   8.684  11.505   4.438 -0.5322  0.0162  0.2217
  474MOL0     O62466   8.753  11.622   4.422  0.4189  0.1219  0.6305
  474MOL0     C62467   8.703  11.712   4.332 -0.3341 -0.3873  0.0793
  474MOL0     C62468   8.752  11.708   4.201  0.3678 -0.6856 -0.3683
  474MOL0     C62469   8.703  11.802   4.102 -0.7585  0.2338 -0.9761
  474MOL0     C62470   8.602  11.894   4.141 -0.0290  0.1482  0.1635
  474MOL0     O62471   8.539  11.984   4.057 -0.7678 -0.4632 -0.4942
  474MOL0     C62472   8.581  11.991   3.919  0.6562 -0.0137 -0.3759
  474MOL0     C62473   8.502  11.885   3.851  0.4599 -0.8132  0.6671
  474MOL0     C62474   8.499  11.921   3.701  0.0824 -0.9359  0.2364
  474MOL0     C62475   8.447  12.064   3.659 -0.6841  0.0909 -0.6710
  474MOL0     C62476   8.444  12.072   3.506  0.0050 -0.3410 -0.9929
  474MOL0     C62477   8.293  12.042   3.467 -0.3339 -0.7851 -0.8378
  474MOL0     C62478   8.298  12.051   3.314  0.5946 -0.2131 -0.5739
  474MOL0     C62479   8.157  12.078   3.260 -0.3758 -0.0716  1.0103
  474MOL0    Cl62480   8.149  12.082   3.082 -0.1657  0.0418  0.0952
  474MOL0     C62481   8.561  11.903   4.272  0.0425  0.7458  0.4688
  474MOL0     C62482   8.610  11.812   4.373 -0.7846 -0.2371 -0.6725
  474MOL0     O62483   8.598  11.461   4.362 -0.0779  0.3976 -0.7139
  474MOL0     C62484   8.724  11.272   4.496  0.9722  1.1338  0.0417
  474MOL0     C62485   8.775  11.175   4.585 -0.4061 -0.7869  0.1815
  474MOL0     N62486   8.657  10.555   5.040 -0.2767 -0.1518 -0.6202
  474MOL0     N62487   8.570  10.488   4.970  0.1515 -0.6054 -0.6349
  474MOL0     C62488   7.626  10.225   4.199 -0.0160 -0.1064 -0.7226
  474MOL0     C62489   7.547  10.113   4.182 -0.1121 -0.6412 -0.5172
  474MOL0     C62490   7.470   9.688   4.088  0.2043  0.2310  0.4762
  474MOL0     C62491   7.507   9.601   3.981 -0.3715 -0.5482  0.1930
  474MOL0     C62492   7.445   9.479   3.955  0.3643 -0.9189  0.5645
  474MOL0     C62493   7.335   9.429   4.032  0.5048  0.2733  0.1578
  474MOL0     O62494   7.280   9.311   4.009  0.6539  0.5481  0.3768
  474MOL0     C62495   7.138   9.281   4.045 -0.2743 -0.6782 -0.0690
  474MOL0     C62496   7.107   9.149   3.982 -0.0890 -0.0020 -0.1492
  474MOL0     C62497   6.952   9.102   4.008  0.2921  0.0096 -0.7921
  474MOL0     C62498   6.916   9.107   4.154 -0.3376  1.5802  0.2376
  474MOL0     C62499   7.010   9.010   4.226  0.7773  0.1766 -0.3517
  474MOL0     C62500   7.095   8.943   4.283  1.2370 -0.1847  0.3630
  474MOL0     C62501   7.280   9.528   4.120 -0.6658 -0.7279  0.0244
  474MOL0     C62502   7.351   9.637   4.159 -0.7585 -0.2961 -0.0875
  474MOL0     H62503   7.675   9.929   4.420 -0.7695  1.3398  2.3595
  474MOL0     H62504   7.808  10.132   4.463 -0.6285  0.3418 -0.0884
  474MOL0     H62505   7.857  10.349   4.488  1.0420  0.2173 -0.6842
  474MOL0     H62506   7.813  10.514   4.432 -2.9612 -0.1475 -1.3112
  474MOL0     H62507   7.986  10.514   4.270 -0.9932 -0.5101  0.1751
  474MOL0     H62508   8.046  10.363   4.325  2.9207  1.3571 -3.5256
  474MOL0     H62509   8.038  10.636   4.471  0.4200 -0.3340  0.1507
  474MOL0     H62510   8.179  10.553   4.440  0.2360 -0.2592 -0.1674
  474MOL0     H62511   8.121  10.544   4.680 -0.8247  2.4470 -4.3482
  474MOL0     H62512   7.989  10.430   4.651  2.0898 -3.0841 -0.3801
  474MOL0     H62513   8.150  10.269   4.540 -0.2349 -1.9013  2.0507
  474MOL0     H62514   8.151  10.277   4.714  1.5870 -0.7858  0.4915
  474MOL0     H62515   8.340  10.425   4.524  4.6221  0.0065  1.8757
  474MOL0     H62516   8.367  10.275   4.616  3.5962  1.2049  2.6862
  474MOL0     H62517   8.346  10.559   4.721  0.9587 -0.4565 -1.6847
  474MOL0     H62518   8.334  10.404   4.816 -2.0342 -1.0830 -1.1863
  474MOL0     H62519   8.562  10.512   4.638  2.3324 -2.3077 -0.9337
  474MOL0     H62520   8.573  10.356   4.727 -0.6878  0.2455 -1.7145
  474MOL0     H62521   8.684  10.713   4.757 -0.3559 -1.6402 -2.5698
  474MOL0     H62522   8.840  10.754   5.101 -2.6242 -1.4070  0.2722
  474MOL0     H62523   8.727  10.864   5.033 -0.8610 -0.5221  0.0880
  474MOL0     H62524   8.865  10.822   4.804 -0.1975  1.9070 -0.5607
  474MOL0     H62525   8.990  10.760   4.919  1.0129  1.6201  2.4807
  474MOL0     H62526   8.996  10.950   5.045  0.5388 -2.0741 -0.7353
  474MOL0     H62527   9.049  10.964   4.882 -0.8306  0.6264 -1.7400
  474MOL0     H62528   8.912  11.175   4.975  5.8866 -2.7487 -0.0789
  474MOL0     H62529   8.764  11.082   4.933  0.0992 -0.2125 -1.8879
  474MOL0     H62530   8.920  11.391   4.810  0.9643 -0.6343 -0.3017
  474MOL0     H62531   8.830  11.549   4.655  0.3055 -0.5076  0.5518
  474MOL0     H62532   8.828  11.634   4.175 -1.2767 -2.2640 -0.9164
  474MOL0     H62533   8.728  11.794   3.996 -2.7855 -5.9858 -1.3319
  474MOL0     H62534   8.688  11.976   3.904  0.6702 -0.8620  0.4459
  474MOL0     H62535   8.549  12.092   3.893 -1.7825 -1.2493 -2.4933
  474MOL0     H62536   8.402  11.906   3.889  0.3751 -1.2751  0.7024
  474MOL0     H62537   8.531  11.782   3.875  0.4257 -0.9272  0.2411
  474MOL0     H62538   8.439  11.849   3.645 -4.5067  3.6238 -1.4851
  474MOL0     H62539   8.600  11.912   3.662 -0.1478  0.7379 -0.9036
  474MOL0     H62540   8.348  12.079   3.703  0.4565  2.5034  1.3290
  474MOL0     H62541   8.511  12.147   3.691 -1.6892  0.4232  0.5948
  474MOL0     H62542   8.509  12.001   3.454  0.3884  0.5530 -1.7629
  474MOL0     H62543   8.475  12.174   3.480  1.8841 -0.9064 -1.0931
  474MOL0     H62544   8.216  12.105   3.513  0.8889 -2.2374  3.7702
  474MOL0     H62545   8.268  11.942   3.503 -0.7171 -0.3641  0.1294
  474MOL0     H62546   8.371  12.129   3.295 -0.3040  0.8847  0.3234
  474MOL0     H62547   8.340  11.959   3.272  0.4958  0.0284 -1.1966
  474MOL0     H62548   8.126  12.174   3.303  1.1270  2.2485 -2.6175
  474MOL0     H62549   8.081  12.003   3.285  0.2933 -1.4746 -0.9500
  474MOL0     H62550   8.495  11.982   4.306 -3.5882 -2.1238  0.7627
  474MOL0     H62551   8.600  11.821   4.481  0.7391  0.3356 -0.5585
  474MOL0     H62552   8.667  11.236   4.411  3.2246 -1.2539 -0.5519
  474MOL0     H62553   8.772  11.067   4.573  3.7031 -0.8242 -2.3391
  474MOL0     H62554   7.633  10.303   4.124 -0.5451  1.6735  0.9821
  474MOL0     H62555   7.468  10.115   4.108 -2.2099 -0.5029  1.5932
  474MOL0     H62556   7.594   9.633   3.925 -0.6382 -1.1640 -0.5850
  474MOL0     H62557   7.487   9.430   3.868  1.7930 -0.4138  0.9344
  474MOL0     H62558   7.075   9.362   4.008  2.0831  2.1153  1.5521
  474MOL0     H62559   7.128   9.271   4.154  1.9957 -0.1524  0.2500
  474MOL0     H62560   7.129   9.138   3.875  0.7451 -2.7417  0.2111
  474MOL0     H62561   7.170   9.071   4.026 -2.4141 -1.4952  0.7648
  474MOL0     H62562   6.948   9.002   3.965 -0.0761 -0.4953  0.3714
  474MOL0     H62563   6.887   9.164   3.945  4.1918  1.0352 -4.2277
  474MOL0     H62564   6.933   9.210   4.188  2.1795  2.0200 -1.9726
  474MOL0     H62565   6.811   9.085   4.174 -0.4721 -0.4066 -2.0832
  474MOL0     H62566   7.159   8.877   4.338  2.9615  0.6270 -0.5969
  474MOL0     H62567   7.190   9.512   4.179  0.4158 -0.0447  1.9485
  474MOL0     H62568   7.298   9.692   4.237 -1.7118 -1.7705  0.3510
  475MOL0     O62569   8.211   7.046   8.004  0.5117 -0.3879 -0.0918
  475MOL0     C62570   8.174   6.932   7.984 -0.1236  0.6721  0.6621
  475MOL0     O62571   8.054   6.904   7.945 -0.3549 -0.2393  0.5290
  475MOL0     C62572   7.950   6.973   8.003  0.3300 -0.2397  0.1427
  475MOL0     C62573   7.822   6.970   7.952 -0.6013 -0.1305  0.8317
  475MOL0     C62574   7.714   7.045   8.005  0.5737  0.2995 -0.3537
  475MOL0     C62575   7.736   7.133   8.123 -0.0191 -0.0735 -0.6472
  475MOL0     O62576   7.636   7.208   8.189  0.1727 -0.2544 -0.7175
  475MOL0     C62577   7.499   7.207   8.132  0.4020 -1.0296  0.2349
  475MOL0     C62578   7.397   7.280   8.233  0.0597 -0.7214 -0.1244
  475MOL0     C62579   7.362   7.191   8.349  0.0614 -0.5335 -0.3541
  475MOL0     C62580   7.215   7.228   8.423  0.6336  1.3177  0.4044
  475MOL0     C62581   7.223   7.158   8.567 -0.0117  0.0399 -0.3608
  475MOL0     C62582   7.121   7.224   8.669 -0.1860 -0.1529  0.1116
  475MOL0     C62583   7.132   7.164   8.815 -0.5263 -0.1137 -0.0236
  475MOL0     C62584   7.276   7.199   8.877 -0.2819  0.4737 -0.2138
  475MOL0     N62585   7.307   7.160   9.017 -0.2139  0.1354 -0.2086
  475MOL0     C62586   7.272   7.052   9.086 -0.6746 -0.0462  0.7888
  475MOL0     C62587   7.302   7.074   9.221 -0.0747  0.6848 -0.0194
  475MOL0     C62588   7.292   6.993   9.342  1.0285  0.4663 -0.3812
  475MOL0     C62589   7.188   7.045   9.448 -0.2256 -0.4767 -0.1752
  475MOL0     C62590   7.245   7.160   9.526  0.7192 -0.1313  0.6389
  475MOL0     C62591   7.147   7.209   9.641 -0.1868  0.0608 -0.3335
  475MOL0     O62592   7.027   7.250   9.581  1.1432 -0.4814 -0.3259
  475MOL0     C62593   6.930   7.299   9.669  0.6729 -0.4874 -0.5345
  475MOL0     C62594   6.830   7.368   9.609  0.4409  0.0699 -0.9546
  475MOL0     C62595   6.730   7.432   9.684  0.3618  0.1568 -0.3121
  475MOL0     C62596   6.742   7.446   9.823  0.6441  0.5655  0.1562
  475MOL0     C62597   6.654   7.533   9.906 -0.9478 -0.0708  0.2813
  475MOL0     O62598   6.696   7.556  10.036  0.7293  0.4259  0.2240
  475MOL0     C62599   6.645   7.656  10.116  0.3465  0.2481 -0.4275
  475MOL0     C62600   6.589   7.778  10.079 -0.9412 -0.3628 -0.3675
  475MOL0     C62601   6.527   7.862  10.174  0.2343  0.0267 -0.5266
  475MOL0     C62602   6.510   7.816  10.309  0.5035 -0.9356 -0.9900
  475MOL0     O62603   6.449   7.886  10.420 -0.7467  0.1192  0.0724
  475MOL0     C62604   6.354   7.984  10.385  0.2118 -0.8653  0.4324
  475MOL0     C62605   6.303   8.014  10.523  0.7558 -0.0668  0.5978
  475MOL0     C62606   6.196   8.134  10.534 -0.1458 -0.0348  0.0392
  475MOL0     C62607   6.132   8.158  10.668  0.1618  1.0179 -0.3116
  475MOL0     C62608   6.047   8.277  10.673  0.8070 -0.0858  0.6035
  475MOL0     C62609   5.933   8.277  10.782 -0.1408  0.6061 -0.4537
  475MOL0     C62610   5.968   8.256  10.932  0.8162  0.0104 -0.3055
  475MOL0     C62611   6.064   8.361  10.980 -0.2202 -0.2502  0.5582
  475MOL0    Cl62612   5.977   8.511  11.014  0.2078 -0.0907 -0.0140
  475MOL0     C62613   6.560   7.692  10.336 -0.5295  0.2081 -0.0968
  475MOL0     C62614   6.626   7.609  10.245 -0.2565 -0.3932 -0.7457
  475MOL0     O62615   6.544   7.566   9.861  0.7482  0.3268  0.0483
  475MOL0     C62616   6.848   7.378   9.881  0.2835  0.1783 -0.0745
  475MOL0     C62617   6.939   7.302   9.812  0.4985 -1.4225  0.9047
  475MOL0     N62618   7.355   7.202   9.228 -0.3784  0.1272 -0.6798
  475MOL0     N62619   7.362   7.250   9.109  0.8650 -0.2401 -1.4333
  475MOL0     C62620   7.854   7.113   8.197  0.6552  0.4792 -0.1169
  475MOL0     C62621   7.954   7.037   8.130 -0.7198  0.3019 -0.5426
  475MOL0     C62622   8.278   6.816   7.973 -0.0649 -0.7231  0.4001
  475MOL0     C62623   8.410   6.845   8.013 -0.6958 -1.0753  0.4958
  475MOL0     C62624   8.510   6.746   7.988  1.6402  0.5543  0.4465
  475MOL0     C62625   8.470   6.617   7.933  0.1257 -0.3862  0.4651
  475MOL0     O62626   8.567   6.519   7.904 -0.7272  0.4378  0.2256
  475MOL0     C62627   8.602   6.459   8.022 -0.3042  0.4944 -0.4884
  475MOL0     C62628   8.747   6.483   8.046  0.3561 -0.6405  0.6490
  475MOL0     C62629   8.800   6.411   8.172 -0.0291 -0.1078 -0.0753
  475MOL0     C62630   8.755   6.486   8.304 -0.8527 -0.7544 -0.1801
  475MOL0     C62631   8.836   6.412   8.415  0.9839  0.6652 -0.4765
  475MOL0     C62632   8.901   6.338   8.483  0.0382  0.0490 -0.2957
  475MOL0     C62633   8.330   6.588   7.905 -1.0886  0.3650 -0.6418
  475MOL0     C62634   8.238   6.686   7.928  0.1716  0.5713  0.6203
  475MOL0     H62635   7.804   6.924   7.855 -2.9196 -3.8741  2.8097
  475MOL0     H62636   7.627   7.049   7.941  1.3316  1.1502 -1.3756
  475MOL0     H62637   7.458   7.107   8.119 -2.5490 -0.2299  2.3868
  475MOL0     H62638   7.505   7.267   8.041 -0.1466  3.2800  2.7678
  475MOL0     H62639   7.296   7.291   8.191  0.8872  1.1959 -1.7860
  475MOL0     H62640   7.432   7.380   8.260 -0.5324  0.2592 -2.6269
  475MOL0     H62641   7.437   7.208   8.426 -2.2265  1.2498  1.6499
  475MOL0     H62642   7.363   7.086   8.318 -2.5338 -1.3557  1.8993
  475MOL0     H62643   7.207   7.336   8.436  0.0392  1.1679  1.3864
  475MOL0     H62644   7.126   7.186   8.375 -0.2804 -1.5814  4.1899
  475MOL0     H62645   7.327   7.163   8.601 -0.1785 -4.3529  1.5466
  475MOL0     H62646   7.190   7.054   8.574  1.1601 -0.2460  1.5925
  475MOL0     H62647   7.023   7.191   8.634  0.4708 -4.5764  1.7241
  475MOL0     H62648   7.129   7.332   8.682  3.6638 -0.2979 -0.0306
  475MOL0     H62649   7.058   7.216   8.876 -2.2379 -0.6177 -1.5605
  475MOL0     H62650   7.110   7.057   8.819  2.1719 -0.8569 -2.1821
  475MOL0     H62651   7.285   7.308   8.866  0.4531  0.3950 -0.4605
  475MOL0     H62652   7.358   7.161   8.816 -2.5245 -3.2208 -1.2203
  475MOL0     H62653   7.224   6.960   9.054 -0.2277  0.5802 -1.8666
  475MOL0     H62654   7.386   6.979   9.395 -1.0451 -0.7453  3.3063
  475MOL0     H62655   7.278   6.887   9.321  1.4392  0.2383  0.4681
  475MOL0     H62656   7.166   6.961   9.514 -0.3729  0.6698  1.2703
  475MOL0     H62657   7.095   7.067   9.394 -0.9229 -1.3125  0.6582
  475MOL0     H62658   7.337   7.124   9.573 -0.2255 -1.4947  1.5030
  475MOL0     H62659   7.262   7.248   9.463  2.5795 -1.2170 -0.4752
  475MOL0     H62660   7.182   7.287   9.709 -1.9402  0.5864  0.0097
  475MOL0     H62661   7.117   7.125   9.705 -1.9426  1.2815  0.5392
  475MOL0     H62662   6.833   7.366   9.501  3.1023 -1.0932 -0.9389
  475MOL0     H62663   6.648   7.494   9.649 -1.0069 -2.5112 -2.1460
  475MOL0     H62664   6.588   7.821   9.979  3.9690 -1.2724 -1.0231
  475MOL0     H62665   6.487   7.954  10.133 -4.0110 -2.2948 -2.2383
  475MOL0     H62666   6.269   7.950  10.325 -0.5570  0.7618  0.5375
  475MOL0     H62667   6.407   8.070  10.342 -0.5544 -1.2340 -1.3244
  475MOL0     H62668   6.383   8.027  10.596  2.1357 -0.9435 -0.7147
  475MOL0     H62669   6.262   7.918  10.556  2.5417 -0.7438  0.9391
  475MOL0     H62670   6.122   8.106  10.458  0.2280  0.4005 -0.4944
  475MOL0     H62671   6.239   8.223  10.485  1.1194 -1.7122 -2.1072
  475MOL0     H62672   6.076   8.069  10.696 -0.4639  0.0907 -3.9213
  475MOL0     H62673   6.206   8.162  10.748  1.5301 -2.2264 -1.2389
  475MOL0     H62674   6.002   8.274  10.573  1.5945 -4.1937  0.2034
  475MOL0     H62675   6.107   8.367  10.691  2.8007 -1.6573  2.2073
  475MOL0     H62676   5.861   8.200  10.753  0.6827 -0.3281 -0.0598
  475MOL0     H62677   5.873   8.369  10.776 -0.0965  0.5848 -1.4205
  475MOL0     H62678   5.881   8.260  10.998  2.1578 -0.0063  1.5437
  475MOL0     H62679   6.007   8.155  10.949 -1.4413 -0.7039  1.1400
  475MOL0     H62680   6.151   8.373  10.914 -0.2700 -1.1542  0.3123
  475MOL0     H62681   6.105   8.326  11.075  0.9284 -0.1127  0.1273
  475MOL0     H62682   6.569   7.681  10.444 -0.9118  2.0270  0.1433
  475MOL0     H62683   6.682   7.520  10.272  0.5704 -0.4969 -2.6946
  475MOL0     H62684   6.856   7.380   9.989  0.4631  1.6596 -0.0915
  475MOL0     H62685   7.013   7.239   9.860 -1.6718 -3.4780  1.7482
  475MOL0     H62686   7.867   7.157   8.296  1.1707 -0.3330  0.1861
  475MOL0     H62687   8.048   7.014   8.181  0.0032  1.4109 -1.3279
  475MOL0     H62688   8.438   6.944   8.048  1.3779 -1.6698  0.7110
  475MOL0     H62689   8.610   6.769   8.022  1.8515 -0.0340  0.2375
  475MOL0     H62690   8.572   6.355   8.004 -2.5550  0.7008  1.5352
  475MOL0     H62691   8.553   6.482   8.117  0.5832  1.6586 -0.2977
  475MOL0     H62692   8.809   6.464   7.958 -1.0908  1.3724 -0.9043
  475MOL0     H62693   8.761   6.591   8.055  4.0152 -0.7732 -1.5552
  475MOL0     H62694   8.909   6.404   8.172  0.2830  2.0289 -3.7386
  475MOL0     H62695   8.777   6.305   8.156  0.0546  0.1038 -1.7804
  475MOL0     H62696   8.792   6.588   8.292 -1.3034 -0.5418  0.1887
  475MOL0     H62697   8.646   6.492   8.313 -1.0790  1.1643 -3.1385
  475MOL0     H62698   8.968   6.263   8.519  2.8453  2.7590  0.6059
  475MOL0     H62699   8.308   6.489   7.868 -1.0520  0.3309 -0.5717
  475MOL0     H62700   8.134   6.674   7.900  1.0672 -0.8354 -2.5387
  476MOL0     O62701   7.660   5.160   0.883 -0.3002 -0.1204 -0.8762
  476MOL0     C62702   7.601   5.212   0.976 -0.8838  0.1994 -0.4686
  476MOL0     O62703   7.532   5.148   1.071  0.1861 -0.6638  0.6743
  476MOL0     C62704   7.494   5.025   1.040 -0.4645 -0.7087 -1.2225
  476MOL0     C62705   7.563   4.918   1.088  0.5439  0.2352 -0.0581
  476MOL0     C62706   7.520   4.784   1.083 -0.4600  0.2577  0.2431
  476MOL0     C62707   7.403   4.756   1.019 -0.0898  1.0502  0.4740
  476MOL0     O62708   7.340   4.638   0.990  0.5639  0.1521  0.0417
  476MOL0     C62709   7.388   4.524   1.070 -0.7699 -0.0126 -0.3631
  476MOL0     C62710   7.338   4.513   1.212 -0.4595  0.3481  1.0248
  476MOL0     C62711   7.413   4.404   1.288 -0.1094  1.2568 -0.1510
  476MOL0     C62712   7.377   4.261   1.241 -0.3876 -0.3548 -0.1429
  476MOL0     C62713   7.457   4.159   1.313 -0.4298  0.5419 -0.5980
  476MOL0     C62714   7.614   4.152   1.288  0.9635 -0.6046  1.2758
  476MOL0     C62715   7.662   4.036   1.372  0.3019  0.1489  0.1576
  476MOL0     C62716   7.812   4.020   1.365  0.1475  0.0457  0.2253
  476MOL0     N62717   7.902   4.141   1.378 -0.0583  0.3313 -0.2539
  476MOL0     C62718   7.896   4.259   1.453 -0.2519  0.4958  2.1016
  476MOL0     C62719   8.002   4.335   1.421 -0.1303 -0.1989  0.1281
  476MOL0     C62720   8.024   4.479   1.458 -0.2869 -0.7629 -0.3479
  476MOL0     C62721   8.170   4.528   1.458  0.5390  0.5563 -1.2447
  476MOL0     C62722   8.175   4.644   1.551 -0.8604  0.3939 -0.0959
  476MOL0     C62723   8.098   4.776   1.503  0.3520  0.1709 -1.0936
  476MOL0     O62724   8.143   4.899   1.566 -0.3459 -0.4782  0.6358
  476MOL0     C62725   8.159   4.887   1.704  0.5431 -0.1860  0.0849
  476MOL0     C62726   8.286   4.911   1.759 -0.2676  0.1704 -0.5008
  476MOL0     C62727   8.307   4.894   1.898  0.2305 -0.4566  0.1895
  476MOL0     C62728   8.196   4.859   1.980  1.0145  1.0097 -0.4505
  476MOL0     C62729   8.212   4.838   2.131 -0.4223 -0.6963 -0.7739
  476MOL0     O62730   8.333   4.888   2.182  0.5199  0.5191  0.0964
  476MOL0     C62731   8.349   4.890   2.313 -0.7947  0.9966 -0.7350
  476MOL0     C62732   8.359   5.015   2.377  0.6614 -0.0419  0.8124
  476MOL0     C62733   8.413   5.028   2.499 -0.7746 -0.0616 -0.4030
  476MOL0     C62734   8.415   4.919   2.585 -0.0624 -0.2101 -0.5852
  476MOL0     O62735   8.450   4.932   2.716 -0.0031  0.1798  0.0475
  476MOL0     C62736   8.380   5.035   2.802 -0.9163 -0.6608  0.3263
  476MOL0     C62737   8.463   5.056   2.918 -0.4589 -1.0199 -0.6954
  476MOL0     C62738   8.475   4.937   3.007 -0.0941 -0.0626 -0.3224
  476MOL0     C62739   8.577   4.982   3.113  0.1068  0.4765  1.9962
  476MOL0     C62740   8.580   4.880   3.230  0.3260  0.0965 -0.8798
  476MOL0     C62741   8.454   4.798   3.253 -0.5737  0.9963 -0.5381
  476MOL0     C62742   8.458   4.697   3.369 -1.6198 -0.6154  0.0248
  476MOL0     C62743   8.337   4.612   3.364 -0.3157  0.4549 -0.1858
  476MOL0    Cl62744   8.299   4.587   3.547 -0.7768  0.1064  0.3420
  476MOL0     C62745   8.388   4.800   2.533  0.1572  0.0512  0.4643
  476MOL0     C62746   8.360   4.784   2.395 -0.0978 -0.6951  0.5531
  476MOL0     O62747   8.112   4.800   2.202 -0.2656  0.0861  0.0188
  476MOL0     C62748   8.067   4.837   1.924 -0.6058 -1.0224 -0.1395
  476MOL0     C62749   8.044   4.853   1.782  1.1080 -0.6540  0.2668
  476MOL0     N62750   8.069   4.266   1.317 -0.6692  0.8224  0.9363
  476MOL0     N62751   8.011   4.149   1.299  0.9646  0.5631  0.0562
  476MOL0     C62752   7.331   4.866   0.968  1.0748 -0.7115 -0.0134
  476MOL0     C62753   7.377   5.001   0.977  0.6237 -0.6444  0.4959
  476MOL0     C62754   7.615   5.355   0.992  0.0397  0.2278 -0.2068
  476MOL0     C62755   7.609   5.441   0.881 -0.5392 -0.8211  0.2154
  476MOL0     C62756   7.623   5.580   0.899  1.0041 -0.0275  1.2402
  476MOL0     C62757   7.617   5.643   1.021 -0.1488  0.1998 -0.2740
  476MOL0     O62758   7.639   5.778   1.040  0.9633 -0.5295  0.0052
  476MOL0     C62759   7.759   5.820   0.972  0.1717 -1.4774  1.2207
  476MOL0     C62760   7.851   5.894   1.071 -0.1463 -0.5101 -0.4429
  476MOL0     C62761   7.866   5.829   1.201  1.2451  0.2410 -0.6034
  476MOL0     C62762   8.013   5.771   1.212  0.0996  0.0233  0.5529
  476MOL0     C62763   8.012   5.724   1.349 -0.4280  0.4564 -0.7147
  476MOL0     C62764   8.018   5.696   1.461  0.2827  0.2741 -0.1945
  476MOL0     C62765   7.607   5.558   1.131  1.4250  0.2003  1.5087
  476MOL0     C62766   7.602   5.420   1.121  0.6499 -0.5122 -0.8769
  476MOL0     H62767   7.656   4.946   1.136  1.8259 -0.3856 -2.0601
  476MOL0     H62768   7.585   4.705   1.118 -0.5681 -0.4149 -0.9953
  476MOL0     H62769   7.497   4.530   1.083 -1.1450  0.7170  3.5578
  476MOL0     H62770   7.356   4.436   1.014 -1.4190 -0.4787  0.7139
  476MOL0     H62771   7.229   4.501   1.202 -0.4839  1.1238  0.2097
  476MOL0     H62772   7.349   4.611   1.260 -0.5046  1.0721 -0.3826
  476MOL0     H62773   7.387   4.408   1.394  0.7437 -2.7373  0.3755
  476MOL0     H62774   7.520   4.425   1.275  0.0279 -0.2876 -2.0961
  476MOL0     H62775   7.269   4.243   1.252 -0.2939  0.1080  1.8647
  476MOL0     H62776   7.393   4.258   1.133  2.0572 -2.4265  0.2060
  476MOL0     H62777   7.416   4.063   1.281  1.3467  0.1174 -1.7869
  476MOL0     H62778   7.436   4.177   1.419  3.0401 -2.0745  0.7225
  476MOL0     H62779   7.665   4.243   1.322  0.1515  0.5787 -0.4963
  476MOL0     H62780   7.628   4.138   1.180 -3.3092 -1.0435  0.5905
  476MOL0     H62781   7.635   4.034   1.478  1.8684  0.2838  0.5865
  476MOL0     H62782   7.614   3.945   1.335  1.1815 -0.4717  0.4903
  476MOL0     H62783   7.833   3.973   1.268  1.7523  2.9720 -0.9804
  476MOL0     H62784   7.833   3.949   1.446 -2.7828  0.7235  1.7048
  476MOL0     H62785   7.822   4.292   1.524 -2.0538 -0.6905  0.8472
  476MOL0     H62786   7.980   4.499   1.556 -0.2541  1.8858 -0.7894
  476MOL0     H62787   7.955   4.518   1.383 -2.4342 -1.9673  0.9118
  476MOL0     H62788   8.215   4.541   1.359  4.2122 -1.7441 -0.0848
  476MOL0     H62789   8.231   4.452   1.506  1.0809  0.9421 -1.3162
  476MOL0     H62790   8.135   4.623   1.651  1.5251 -0.5235  0.7442
  476MOL0     H62791   8.283   4.666   1.558 -0.5498 -1.2770  0.8935
  476MOL0     H62792   7.991   4.753   1.510  0.5514 -0.1567  1.5765
  476MOL0     H62793   8.129   4.782   1.398  0.7169  0.5701 -0.9632
  476MOL0     H62794   8.365   4.953   1.697 -0.7141  2.4939  0.3958
  476MOL0     H62795   8.406   4.914   1.939  1.4378  0.3899 -2.8864
  476MOL0     H62796   8.362   5.101   2.312  1.9676  0.2065  1.1637
  476MOL0     H62797   8.459   5.123   2.523  1.1922 -0.5753 -1.8452
  476MOL0     H62798   8.279   5.007   2.832 -0.8417 -0.3901  0.8334
  476MOL0     H62799   8.377   5.127   2.742  1.3603 -1.0924 -0.5359
  476MOL0     H62800   8.427   5.147   2.967  2.3342 -0.0880 -0.1992
  476MOL0     H62801   8.566   5.072   2.886 -0.8000  2.3285 -0.5315
  476MOL0     H62802   8.520   4.855   2.951  1.3803 -1.0321  2.1110
  476MOL0     H62803   8.376   4.902   3.037  0.4096 -3.1093 -1.8943
  476MOL0     H62804   8.679   4.989   3.074 -0.4640 -0.1401  0.2923
  476MOL0     H62805   8.556   5.083   3.149 -1.0777  0.4423  1.4663
  476MOL0     H62806   8.600   4.929   3.325  1.8062 -1.8646 -0.0890
  476MOL0     H62807   8.661   4.812   3.199  1.0403 -0.4439  1.9122
  476MOL0     H62808   8.432   4.733   3.168 -1.4104 -0.4088  0.7006
  476MOL0     H62809   8.360   4.853   3.265 -0.7547  0.7587 -0.8709
  476MOL0     H62810   8.544   4.631   3.383 -1.7685 -0.6104  1.0240
  476MOL0     H62811   8.461   4.760   3.458  2.0062  2.4131 -1.9233
  476MOL0     H62812   8.346   4.514   3.316  1.0719 -0.0202  0.9894
  476MOL0     H62813   8.251   4.658   3.314 -2.4108 -0.2247  2.5508
  476MOL0     H62814   8.387   4.717   2.603 -1.2211  1.6996  2.5199
  476MOL0     H62815   8.354   4.690   2.342 -1.5814 -0.9229  1.0795
  476MOL0     H62816   7.981   4.795   1.976 -0.4219 -2.3183 -0.8239
  476MOL0     H62817   7.950   4.838   1.731  0.8054 -0.5325  0.7773
  476MOL0     H62818   7.240   4.855   0.911  1.1465 -0.8167 -0.1087
  476MOL0     H62819   7.310   5.077   0.939  2.7628  1.4242  0.6251
  476MOL0     H62820   7.608   5.409   0.778 -3.8000 -3.4545  0.8945
  476MOL0     H62821   7.648   5.634   0.808  0.1781 -2.6045 -0.6393
  476MOL0     H62822   7.737   5.890   0.892 -1.0904 -1.5289  1.4915
  476MOL0     H62823   7.824   5.745   0.925 -0.5075  0.1320 -2.6887
  476MOL0     H62824   7.948   5.915   1.026  0.8147 -0.4269  1.5263
  476MOL0     H62825   7.804   5.993   1.081 -0.9983 -0.7557 -1.8039
  476MOL0     H62826   7.782   5.760   1.216  0.7335  1.4960  3.4904
  476MOL0     H62827   7.858   5.901   1.283 -1.9623 -0.9877  0.3010
  476MOL0     H62828   8.016   5.677   1.156  1.1114  0.4784 -0.1981
  476MOL0     H62829   8.098   5.838   1.192  1.3768 -2.0070 -1.2031
  476MOL0     H62830   8.031   5.688   1.567 -0.7358  2.4076  0.1370
  476MOL0     H62831   7.589   5.615   1.222  2.5044  2.9509  0.0899
  476MOL0     H62832   7.578   5.373   1.215 -0.7023 -1.4289 -1.6536
  477MOL0     O62833   0.264   7.323   5.018 -0.4866  0.1224 -0.2960
  477MOL0     C62834   0.186   7.384   4.938 -0.0850  0.2274 -0.3646
  477MOL0     O62835   0.218   7.436   4.821 -0.7702 -0.3175 -0.2070
  477MOL0     C62836   0.343   7.440   4.772 -0.2071 -0.3359 -1.4129
  477MOL0     C62837   0.449   7.514   4.828  1.3404  0.9865  0.4170
  477MOL0     C62838   0.578   7.499   4.763  0.2357 -0.1484 -0.6804
  477MOL0     C62839   0.594   7.413   4.655 -0.6315 -0.4667  0.0054
  477MOL0     O62840   0.719   7.376   4.623  0.1457 -0.1755  0.6719
  477MOL0     C62841   0.765   7.414   4.492 -0.3958 -0.4295  0.6653
  477MOL0     C62842   0.820   7.557   4.485  0.0917  0.3245 -0.1747
  477MOL0     C62843   0.939   7.570   4.576  0.9712  0.0642  0.7043
  477MOL0     C62844   1.040   7.658   4.498 -0.1382 -0.0469  0.3680
  477MOL0     C62845   1.166   7.661   4.588 -0.5079  0.9388  0.2561
  477MOL0     C62846   1.278   7.749   4.530  0.1550  0.5851 -0.4439
  477MOL0     C62847   1.373   7.682   4.433 -0.3661  0.4255 -1.0646
  477MOL0     C62848   1.489   7.775   4.391  0.3200  0.1719 -1.1119
  477MOL0     N62849   1.600   7.765   4.489  0.0486  0.1385  0.3133
  477MOL0     C62850   1.603   7.810   4.621 -0.1033 -0.5319  0.2394
  477MOL0     C62851   1.689   7.728   4.686 -0.2325  0.1146  0.6383
  477MOL0     C62852   1.707   7.723   4.830  0.7206 -0.1261 -0.3539
  477MOL0     C62853   1.598   7.655   4.913 -0.7066 -0.7554 -0.5303
  477MOL0     C62854   1.626   7.518   4.947 -0.4655  0.2114  0.1492
  477MOL0     C62855   1.512   7.450   5.015  0.3355  0.2572 -0.8670
  477MOL0     O62856   1.551   7.336   5.098 -0.0416 -0.5463 -0.6655
  477MOL0     C62857   1.448   7.257   5.151 -0.2135  0.2177 -0.1907
  477MOL0     C62858   1.313   7.300   5.151  0.0750 -0.6555 -0.4404
  477MOL0     C62859   1.222   7.225   5.220  0.5110 -0.3661  0.3247
  477MOL0     C62860   1.259   7.107   5.287  0.0141  0.0757  0.4257
  477MOL0     C62861   1.155   7.023   5.336 -0.1779  0.5856  0.0127
  477MOL0     O62862   1.182   6.932   5.443 -1.0343  0.0537 -0.8661
  477MOL0     C62863   1.084   6.885   5.523  0.9491 -0.7345 -0.2662
  477MOL0     C62864   0.964   6.826   5.472  0.2025  0.6487  0.1803
  477MOL0     C62865   0.865   6.788   5.563  0.6984  0.9844 -0.8006
  477MOL0     C62866   0.873   6.778   5.698 -0.7119 -0.1332  0.0092
  477MOL0     O62867   0.771   6.725   5.763  0.6299  0.2783 -0.0582
  477MOL0     C62868   0.778   6.733   5.905 -0.0610  0.2040  0.7250
  477MOL0     C62869   0.645   6.742   5.974 -0.0307 -0.0129  0.0598
  477MOL0     C62870   0.589   6.602   5.982  0.4604 -0.6039  0.6954
  477MOL0     C62871   0.444   6.607   6.051  0.2451  0.5154 -0.0391
  477MOL0     C62872   0.360   6.480   6.019  0.0888 -0.6858 -0.4369
  477MOL0     C62873   0.234   6.482   6.108  0.9838 -0.3731 -0.3151
  477MOL0     C62874   0.234   6.494   6.255  0.0574 -0.2082 -0.4297
  477MOL0     C62875   0.294   6.367   6.310 -0.5864  1.5630 -0.3184
  477MOL0    Cl62876   0.215   6.310   6.456  0.3082 -0.4577 -0.1777
  477MOL0     C62877   0.996   6.814   5.750 -0.8349  0.0525  0.2096
  477MOL0     C62878   1.100   6.878   5.666 -0.2435 -0.1722  0.2345
  477MOL0     O62879   1.044   7.036   5.281  0.0096  0.1163  0.0900
  477MOL0     C62880   1.398   7.067   5.295 -0.5164 -0.3978 -1.1548
  477MOL0     C62881   1.494   7.143   5.223  0.0379  0.2155 -0.1285
  477MOL0     N62882   1.751   7.652   4.595 -0.2806 -0.1350  0.3350
  477MOL0     N62883   1.697   7.669   4.472  0.9202  0.6267  0.1005
  477MOL0     C62884   0.494   7.333   4.613 -1.3094  0.7710 -0.1797
  477MOL0     C62885   0.370   7.357   4.668 -0.3714 -0.0740  1.5093
  477MOL0     C62886   0.044   7.413   4.978  0.6858  0.5847  0.7764
  477MOL0     C62887   0.001   7.389   5.109  0.6081  0.4091 -0.1995
  477MOL0     C62888  -0.132   7.401   5.152 -0.1638 -0.2413 -0.8057
  477MOL0     C62889  -0.224   7.440   5.062 -0.7624 -0.7995  0.8600
  477MOL0     O62890  -0.358   7.447   5.082 -0.2755  0.5024  0.7315
  477MOL0     C62891  -0.420   7.361   5.185  0.2749 -0.2839  0.4764
  477MOL0     C62892  -0.415   7.210   5.149 -0.3129  0.6565 -0.4137
  477MOL0     C62893  -0.504   7.184   5.027  0.2932  0.5211 -0.5245
  477MOL0     C62894  -0.474   7.044   4.966 -0.1788 -0.2322  1.1526
  477MOL0     C62895  -0.336   7.035   4.922  0.3892 -0.1213 -0.2698
  477MOL0     C62896  -0.213   7.029   4.906 -0.2038  0.1519 -0.2964
  477MOL0     C62897  -0.182   7.471   4.931  0.2510 -0.2596  0.6122
  477MOL0     C62898  -0.042   7.477   4.886  0.5752  0.1288 -1.7509
  477MOL0     H62899   0.427   7.585   4.907  2.3082 -0.3272  1.9293
  477MOL0     H62900   0.664   7.549   4.807 -0.0914 -2.2258  2.7760
  477MOL0     H62901   0.686   7.406   4.416  0.2035  1.2785 -0.2009
  477MOL0     H62902   0.850   7.353   4.460  0.6540  1.8239 -1.1727
  477MOL0     H62903   0.744   7.629   4.518  0.6301  1.5994 -1.6451
  477MOL0     H62904   0.845   7.572   4.380  0.3054  0.5607 -0.0902
  477MOL0     H62905   0.981   7.470   4.589 -0.7924 -0.7260  0.5661
  477MOL0     H62906   0.911   7.600   4.677  1.6021 -2.1886  1.6062
  477MOL0     H62907   1.055   7.614   4.399  0.5942 -0.5682  0.7053
  477MOL0     H62908   1.000   7.759   4.495 -0.3853 -0.0739  1.8909
  477MOL0     H62909   1.204   7.559   4.599  1.7702  1.8235  1.2024
  477MOL0     H62910   1.139   7.684   4.691 -2.0167  2.1326 -0.3640
  477MOL0     H62911   1.327   7.788   4.619 -0.9285 -2.2634  1.5634
  477MOL0     H62912   1.228   7.832   4.478 -0.6021 -0.3860 -1.3218
  477MOL0     H62913   1.409   7.599   4.495 -3.1089  1.4982  2.3018
  477MOL0     H62914   1.328   7.642   4.341  0.3052 -2.1301 -0.3619
  477MOL0     H62915   1.447   7.875   4.378 -0.4117 -0.0660 -0.6280
  477MOL0     H62916   1.535   7.746   4.296  0.2491  1.9371 -1.7184
  477MOL0     H62917   1.545   7.888   4.668 -1.5542 -0.9264 -0.8357
  477MOL0     H62918   1.711   7.825   4.870  0.5831  0.5852 -2.1019
  477MOL0     H62919   1.806   7.685   4.857 -0.1415 -1.0111  1.7801
  477MOL0     H62920   1.514   7.655   4.843  0.0311 -0.3095 -1.4337
  477MOL0     H62921   1.558   7.711   4.998 -0.5451  0.4792 -1.2436
  477MOL0     H62922   1.650   7.465   4.854  1.0088 -0.9181  1.1382
  477MOL0     H62923   1.715   7.518   5.009 -0.1416  0.6696 -0.3077
  477MOL0     H62924   1.443   7.427   4.933  0.4220  0.6651 -1.0583
  477MOL0     H62925   1.464   7.521   5.083 -0.3402  0.0128 -1.0818
  477MOL0     H62926   1.271   7.389   5.105 -0.2713 -0.2004  0.7332
  477MOL0     H62927   1.121   7.264   5.225 -0.4912 -2.4152 -2.1964
  477MOL0     H62928   0.960   6.825   5.363 -1.2269 -4.3389  0.0545
  477MOL0     H62929   0.782   6.742   5.510 -0.0413 -0.7347  1.6816
  477MOL0     H62930   0.826   6.825   5.942  1.5929 -0.7227  0.9851
  477MOL0     H62931   0.846   6.659   5.946  1.6524  1.9537  1.2009
  477MOL0     H62932   0.582   6.806   5.912  0.2226 -1.8601 -2.2730
  477MOL0     H62933   0.645   6.783   6.075  0.3131 -0.6040  0.3080
  477MOL0     H62934   0.665   6.542   6.033  1.2157  0.2606  0.6040
  477MOL0     H62935   0.568   6.554   5.887 -1.1984 -0.8429  1.1399
  477MOL0     H62936   0.457   6.628   6.158 -0.5567  0.8404  0.0056
  477MOL0     H62937   0.403   6.699   6.006 -1.7610  0.5086  1.6069
  477MOL0     H62938   0.419   6.388   6.031 -0.1584 -1.4702 -4.0232
  477MOL0     H62939   0.331   6.480   5.913  0.5759 -0.2595 -0.5760
  477MOL0     H62940   0.178   6.397   6.069  0.1503 -0.2477  0.5769
  477MOL0     H62941   0.176   6.569   6.076  0.2166 -1.3624 -1.7248
  477MOL0     H62942   0.278   6.591   6.281  1.5069 -0.5571 -1.4860
  477MOL0     H62943   0.129   6.497   6.285 -0.2206 -1.1548 -1.2509
  477MOL0     H62944   0.402   6.374   6.324 -0.2933 -2.1379  0.3377
  477MOL0     H62945   0.284   6.294   6.230 -2.4231  2.0395 -0.5613
  477MOL0     H62946   1.026   6.824   5.854  0.6049 -2.0938  0.0489
  477MOL0     H62947   1.189   6.916   5.715 -1.7151  1.6121  1.6668
  477MOL0     H62948   1.433   6.980   5.348  1.3721  0.2904 -1.1996
  477MOL0     H62949   1.598   7.114   5.237 -0.0182  0.3846  0.6320
  477MOL0     H62950   0.518   7.268   4.529 -2.6963  0.8179 -0.6377
  477MOL0     H62951   0.292   7.293   4.627  0.0615  0.9866 -1.2254
  477MOL0     H62952   0.055   7.359   5.197 -0.5866 -1.5798 -0.0655
  477MOL0     H62953  -0.172   7.379   5.251 -2.4466  0.4591 -1.5122
  477MOL0     H62954  -0.524   7.396   5.193  0.1752  0.2043 -2.0777
  477MOL0     H62955  -0.369   7.388   5.278  0.2982 -0.8329  0.6226
  477MOL0     H62956  -0.311   7.179   5.130  0.0694  0.9796  1.0466
  477MOL0     H62957  -0.455   7.156   5.235  0.7351  0.8307  0.1981
  477MOL0     H62958  -0.498   7.261   4.951 -1.6593 -1.0315 -2.3709
  477MOL0     H62959  -0.607   7.177   5.064  0.7723  1.5428  1.1136
  477MOL0     H62960  -0.499   6.975   5.048 -4.2392 -0.4815 -0.0688
  477MOL0     H62961  -0.539   7.031   4.880 -0.8571 -1.3068  1.7957
  477MOL0     H62962  -0.114   6.988   4.899 -0.1843 -0.0951  1.1170
  477MOL0     H62963  -0.260   7.501   4.862  1.6003  0.1786 -0.7913
  477MOL0     H62964  -0.004   7.514   4.792  2.3211  0.2842 -1.0116
  478MOL0     O62965   7.467   2.701   4.819  0.5157  0.2406  0.3480
  478MOL0     C62966   7.360   2.734   4.853  0.2581  0.0369 -0.1128
  478MOL0     O62967   7.331   2.826   4.947  0.3544  0.0374  0.0821
  478MOL0     C62968   7.442   2.890   5.009  0.1025 -0.1068  0.1835
  478MOL0     C62969   7.457   2.870   5.144  0.9046  0.4339 -0.2556
  478MOL0     C62970   7.547   2.936   5.225  0.7347 -0.1610 -0.0906
  478MOL0     C62971   7.634   3.018   5.159  0.0724 -0.9886 -0.5487
  478MOL0     O62972   7.733   3.096   5.230  0.3683 -0.0610 -0.2056
  478MOL0     C62973   7.758   3.078   5.368  0.2307  0.0728  0.6933
  478MOL0     C62974   7.862   2.967   5.400  0.0193 -0.1511 -0.6606
  478MOL0     C62975   7.893   2.948   5.545 -0.0552 -0.1591  1.2658
  478MOL0     C62976   7.973   2.817   5.574 -0.2999 -0.0674 -0.1033
  478MOL0     C62977   8.058   2.837   5.700  0.5482  0.3604 -0.5810
  478MOL0     C62978   8.124   2.705   5.744 -0.4474 -0.0473 -0.2084
  478MOL0     C62979   8.029   2.621   5.820 -0.2312  0.3611  0.0883
  478MOL0     C62980   8.108   2.498   5.875 -0.9428  0.5545 -0.5382
  478MOL0     N62981   8.177   2.411   5.777 -0.9239 -0.6177 -0.0795
  478MOL0     C62982   8.314   2.416   5.747 -0.0711 -0.2780 -0.5329
  478MOL0     C62983   8.330   2.306   5.670  0.9828 -0.8668 -0.5625
  478MOL0     C62984   8.465   2.274   5.610  0.0891  0.1256 -0.2039
  478MOL0     C62985   8.560   2.208   5.706 -0.5811 -0.0765 -0.2613
  478MOL0     C62986   8.510   2.071   5.744 -0.0449  0.4564  0.5081
  478MOL0     C62987   8.623   1.990   5.831  0.5893 -0.3411  0.7000
  478MOL0     O62988   8.721   1.936   5.737  0.3021 -0.9732  0.9501
  478MOL0     C62989   8.834   1.879   5.794  0.0359 -0.1934  0.3728
  478MOL0     C62990   8.942   1.868   5.714 -0.9031 -0.0715  0.3923
  478MOL0     C62991   9.060   1.799   5.746 -0.8273 -0.1867 -1.2080
  478MOL0     C62992   9.081   1.760   5.880 -1.3001  0.4253 -0.4760
  478MOL0     C62993   9.212   1.702   5.927  0.1478 -0.1653  0.0140
  478MOL0     O62994   9.222   1.658   6.056 -0.0454  0.2580 -0.7664
  478MOL0     C62995   9.342   1.614   6.098 -0.4223  0.4689 -1.0056
  478MOL0     C62996   9.373   1.476   6.082 -0.2393 -0.2085 -0.0193
  478MOL0     C62997   9.488   1.417   6.145 -0.5507  0.0342  0.8119
  478MOL0     C62998   9.569   1.491   6.235 -0.9834 -0.7266 -0.1121
  478MOL0     O62999   9.694   1.445   6.282 -0.6541 -0.2926 -0.3406
  478MOL0     C63000   9.761   1.330   6.234  0.1233  0.9450  0.5733
  478MOL0     C63001   9.860   1.264   6.337  0.2291 -0.3121 -0.0772
  478MOL0     C63002   9.988   1.358   6.347  0.5956 -1.1934  0.7929
  478MOL0     C63003  10.093   1.276   6.420 -0.2948 -0.2222  0.5320
  478MOL0     C63004  10.225   1.354   6.439  0.2066  0.8309  0.5945
  478MOL0     C63005  10.344   1.253   6.416 -0.4376  0.5735  0.3302
  478MOL0     C63006  10.473   1.316   6.467  1.3263 -0.0635  0.0690
  478MOL0     C63007  10.518   1.435   6.382 -0.7437 -2.0823 -0.8453
  478MOL0    Cl63008  10.624   1.534   6.492  0.4451 -0.8195 -0.5629
  478MOL0     C63009   9.540   1.623   6.261  0.2792  0.0767 -0.0915
  478MOL0     C63010   9.434   1.686   6.186  0.0910  0.9772  0.9704
  478MOL0     O63011   9.306   1.701   5.852  0.1536  0.0143  1.5642
  478MOL0     C63012   8.977   1.768   5.967  0.2406 -0.7247  0.8908
  478MOL0     C63013   8.844   1.819   5.919  0.9435 -0.4286 -0.5360
  478MOL0     N63014   8.213   2.242   5.655 -0.3198 -1.0136 -0.1355
  478MOL0     N63015   8.122   2.306   5.713  0.4992 -0.5394  0.5321
  478MOL0     C63016   7.627   3.027   5.021 -0.6194  0.5957 -0.3817
  478MOL0     C63017   7.527   2.973   4.940  0.2521 -0.0906 -0.1495
  478MOL0     C63018   7.246   2.678   4.780  0.5487  0.3313  0.5046
  478MOL0     C63019   7.281   2.606   4.657 -1.7013 -0.8260  0.8647
  478MOL0     C63020   7.185   2.547   4.576  0.4589  0.2358  0.2701
  478MOL0     C63021   7.052   2.558   4.613  0.7933 -0.0155 -1.0657
  478MOL0     O63022   6.959   2.534   4.513 -0.7840 -0.9714 -0.0692
  478MOL0     C63023   6.818   2.528   4.529  0.7413 -0.4144  0.0989
  478MOL0     C63024   6.772   2.398   4.596 -0.4032  0.6238  0.4768
  478MOL0     C63025   6.805   2.273   4.505 -0.3019 -0.4804 -0.1951
  478MOL0     C63026   6.682   2.236   4.424 -0.2269 -0.0096  0.7251
  478MOL0     C63027   6.570   2.173   4.498  0.2595 -0.2173  0.3900
  478MOL0     C63028   6.466   2.116   4.525  0.3183  0.6182 -0.1478
  478MOL0     C63029   7.012   2.620   4.735  0.5369 -0.2401 -0.8109
  478MOL0     C63030   7.115   2.674   4.822  0.0632  1.0175  0.4772
  478MOL0     H63031   7.396   2.794   5.191 -0.3390  2.2644  1.2318
  478MOL0     H63032   7.557   2.918   5.332 -1.1237 -2.2187 -0.2014
  478MOL0     H63033   7.668   3.055   5.426  0.3840  1.2713  1.4498
  478MOL0     H63034   7.793   3.172   5.411 -0.5812  1.3371 -1.2938
  478MOL0     H63035   7.959   2.993   5.356 -1.1923  2.2487 -2.1372
  478MOL0     H63036   7.825   2.872   5.362 -0.8258 -1.1172  2.3365
  478MOL0     H63037   7.802   2.925   5.600 -0.5576 -3.1598 -0.6041
  478MOL0     H63038   7.928   3.047   5.575 -0.0804  0.4479 -0.6319
  478MOL0     H63039   7.903   2.734   5.588 -0.3124  0.0778  0.7353
  478MOL0     H63040   8.037   2.799   5.488  2.1314  1.6411  1.2490
  478MOL0     H63041   7.989   2.876   5.776 -0.9454 -1.6772 -0.8053
  478MOL0     H63042   8.133   2.915   5.686 -0.7578  2.0605  1.2862
  478MOL0     H63043   8.198   2.732   5.820 -1.9500  0.1646  1.2451
  478MOL0     H63044   8.172   2.664   5.655  0.3605 -0.5699  0.4499
  478MOL0     H63045   7.996   2.662   5.915  0.8345 -1.4746  1.3055
  478MOL0     H63046   7.950   2.588   5.752  0.4901 -2.0790  0.3507
  478MOL0     H63047   8.037   2.434   5.928  0.7174 -0.0385  1.1097
  478MOL0     H63048   8.191   2.535   5.936  2.1011 -2.2958 -2.6487
  478MOL0     H63049   8.395   2.485   5.769 -1.4452  1.5660 -0.9744
  478MOL0     H63050   8.504   2.366   5.565 -3.7288  1.9946 -0.1463
  478MOL0     H63051   8.439   2.202   5.531 -2.0444 -1.8644  2.1424
  478MOL0     H63052   8.581   2.269   5.795  0.0803  0.0263 -0.4786
  478MOL0     H63053   8.658   2.184   5.662 -0.5588  0.7961 -0.7157
  478MOL0     H63054   8.422   2.078   5.810 -0.5275 -0.6882  0.0242
  478MOL0     H63055   8.487   2.019   5.650  0.6122  0.9197  0.0891
  478MOL0     H63056   8.578   1.908   5.888  0.1722 -0.6857 -0.1120
  478MOL0     H63057   8.669   2.061   5.900 -0.8829  2.3910 -1.0020
  478MOL0     H63058   8.929   1.894   5.609  1.1835 -1.2767 -0.2316
  478MOL0     H63059   9.139   1.785   5.673 -3.2700  1.4624 -4.4273
  478MOL0     H63060   9.308   1.414   6.020 -2.1400  0.9635  0.7024
  478MOL0     H63061   9.517   1.318   6.111 -1.1545  0.9913 -2.9616
  478MOL0     H63062   9.808   1.363   6.141 -0.8640 -1.1111 -0.7298
  478MOL0     H63063   9.697   1.248   6.200  1.9632 -1.4575  2.4790
  478MOL0     H63064   9.887   1.162   6.309  0.5325 -1.0229  2.4757
  478MOL0     H63065   9.815   1.247   6.436  4.7948 -3.9385  1.6947
  478MOL0     H63066   9.963   1.455   6.392 -1.5071  1.4079 -4.9677
  478MOL0     H63067  10.013   1.398   6.248 -2.1778  1.6476  1.0664
  478MOL0     H63068  10.062   1.253   6.522 -0.2308 -0.6154  0.4636
  478MOL0     H63069  10.114   1.183   6.368 -0.3652 -0.6727  1.2873
  478MOL0     H63070  10.237   1.399   6.538  3.3904 -0.9873  1.1507
  478MOL0     H63071  10.232   1.434   6.363  4.0594  0.5718  0.4906
  478MOL0     H63072  10.359   1.244   6.308  1.9983 -1.1528  0.7314
  478MOL0     H63073  10.324   1.170   6.485  3.0962 -0.4894  0.2929
  478MOL0     H63074  10.468   1.356   6.568 -1.1449  0.5574 -0.2541
  478MOL0     H63075  10.539   1.228   6.464  1.0655 -0.2470 -0.4088
  478MOL0     H63076  10.440   1.492   6.331  0.6543 -1.0276 -1.9094
  478MOL0     H63077  10.590   1.416   6.301  0.7183  1.3825 -0.5467
  478MOL0     H63078   9.620   1.671   6.316  2.0735 -2.0390 -0.7306
  478MOL0     H63079   9.437   1.794   6.190  1.2219  0.9421  1.8872
  478MOL0     H63080   8.993   1.747   6.073 -0.0669 -2.2315  0.6600
  478MOL0     H63081   8.762   1.814   5.990  1.8950 -1.6677  0.5257
  478MOL0     H63082   7.696   3.095   4.974  1.8572 -1.0420  0.7033
  478MOL0     H63083   7.519   3.009   4.838  2.0112  0.3559 -0.1624
  478MOL0     H63084   7.385   2.593   4.630 -1.8749  1.8172 -1.5057
  478MOL0     H63085   7.215   2.497   4.484 -0.0286 -0.1520  0.3139
  478MOL0     H63086   6.773   2.539   4.430  1.6618  1.5945 -0.1558
  478MOL0     H63087   6.794   2.622   4.579  0.5793 -0.4660  0.1171
  478MOL0     H63088   6.828   2.396   4.690  3.0440  2.5884 -1.3480
  478MOL0     H63089   6.669   2.398   4.634  0.7838  2.1525  4.1234
  478MOL0     H63090   6.824   2.180   4.560 -4.1675 -0.3925  1.5925
  478MOL0     H63091   6.887   2.301   4.439 -0.1093  3.1678  1.3845
  478MOL0     H63092   6.642   2.328   4.381 -1.0462 -1.2638 -1.3898
  478MOL0     H63093   6.705   2.170   4.339 -1.7891  1.4820 -0.9506
  478MOL0     H63094   6.370   2.074   4.547  0.4875  0.2244 -0.1583
  478MOL0     H63095   6.909   2.639   4.766  1.4463 -0.6293  2.9471
  478MOL0     H63096   7.082   2.725   4.912  3.0409  1.0902  1.6084
  479MOL0     O63097   8.545   7.119   0.574 -0.0025  0.2034  0.4004
  479MOL0     C63098   8.431   7.074   0.554 -0.1070  0.5114 -0.2310
  479MOL0     O63099   8.366   7.072   0.433 -0.4583  0.5851 -0.8238
  479MOL0     C63100   8.429   7.122   0.330  1.0216 -0.2814 -0.8031
  479MOL0     C63101   8.406   7.055   0.209 -1.0136  0.0839 -0.6031
  479MOL0     C63102   8.478   7.092   0.092 -0.0280  0.1238  0.6040
  479MOL0     C63103   8.549   7.212   0.084  0.7600 -1.4705 -0.2067
  479MOL0     O63104   8.605   7.243  -0.041  0.2380 -0.1076  0.3776
  479MOL0     C63105   8.718   7.333  -0.040 -0.9859 -0.1114 -0.2838
  479MOL0     C63106   8.787   7.332  -0.174  0.0002  0.9685  0.5353
  479MOL0     C63107   8.894   7.441  -0.162  0.2558  0.0657  0.3171
  479MOL0     C63108   8.971   7.444  -0.293  0.2154  0.5899  0.4953
  479MOL0     C63109   9.060   7.564  -0.309 -0.9762 -0.0945 -0.3196
  479MOL0     C63110   9.199   7.534  -0.250  0.4433  1.7319 -0.1121
  479MOL0     C63111   9.293   7.644  -0.301  0.1706 -0.1122 -1.2506
  479MOL0     C63112   9.431   7.621  -0.254 -0.2747 -0.2091 -0.8017
  479MOL0     N63113   9.510   7.734  -0.312  0.5548  0.2536 -0.1204
  479MOL0     C63114   9.514   7.872  -0.267  0.7549  1.2776  1.0864
  479MOL0     C63115   9.629   7.919  -0.315  0.3812  0.3412  0.5799
  479MOL0     C63116   9.690   8.063  -0.279 -0.2466 -0.0081 -0.2026
  479MOL0     C63117   9.751   8.035  -0.144 -0.4725  0.6373 -0.1985
  479MOL0     C63118   9.654   8.053  -0.030 -0.2177  0.0195 -0.0724
  479MOL0     C63119   9.728   8.054   0.100 -1.2573  0.1424 -0.0064
  479MOL0     O63120   9.632   8.080   0.210  0.2472 -0.5802 -0.7039
  479MOL0     C63121   9.562   7.973   0.262  0.0436 -0.2405 -0.3826
  479MOL0     C63122   9.453   8.019   0.336 -0.3693  0.2735  1.1700
  479MOL0     C63123   9.358   7.937   0.402  0.1970  0.1757 -0.2925
  479MOL0     C63124   9.381   7.802   0.407  0.3490 -0.0916  0.7677
  479MOL0     C63125   9.296   7.720   0.484  0.2454 -0.0685 -0.1091
  479MOL0     O63126   9.202   7.783   0.564  0.4127  0.2004  0.2052
  479MOL0     C63127   9.089   7.723   0.612 -0.5690  0.0379 -0.8444
  479MOL0     C63128   9.049   7.597   0.595  0.3559 -0.3321  0.6113
  479MOL0     C63129   8.913   7.569   0.632 -0.4541  0.5244  0.2818
  479MOL0     C63130   8.835   7.643   0.713 -0.3115  0.0701  0.5010
  479MOL0     O63131   8.705   7.608   0.741 -0.2606  0.7515  0.0236
  479MOL0     C63132   8.687   7.554   0.884 -0.2263  0.2487  0.4498
  479MOL0     C63133   8.541   7.517   0.916 -0.9193 -1.1375 -0.4271
  479MOL0     C63134   8.519   7.502   1.076 -0.6089  0.2873 -0.0804
  479MOL0     C63135   8.378   7.507   1.114 -0.6681  0.9410 -0.0646
  479MOL0     C63136   8.361   7.515   1.270 -0.5994  0.5083 -0.1870
  479MOL0     C63137   8.221   7.484   1.305  0.0252  0.0379  0.1664
  479MOL0     C63138   8.201   7.531   1.455 -0.4076 -0.4591 -0.1911
  479MOL0     C63139   8.056   7.523   1.504  0.3803  0.0776 -0.7707
  479MOL0    Cl63140   8.037   7.365   1.579 -0.3201 -0.5192  0.3897
  479MOL0     C63141   8.879   7.766   0.745  0.1929 -0.0250 -0.3518
  479MOL0     C63142   9.007   7.807   0.698  0.1135 -0.0018  0.1976
  479MOL0     O63143   9.339   7.605   0.506 -0.4791  0.0797  0.2183
  479MOL0     C63144   9.489   7.750   0.330 -0.1255  0.6371  0.7554
  479MOL0     C63145   9.580   7.825   0.255 -0.5129  0.6014 -0.1182
  479MOL0     N63146   9.687   7.823  -0.401  0.2416  1.0582  0.4001
  479MOL0     N63147   9.617   7.711  -0.388 -0.1101 -0.1665 -0.0528
  479MOL0     C63148   8.557   7.289   0.205 -0.3602  0.2289 -0.1848
  479MOL0     C63149   8.504   7.244   0.327  0.2582  0.0390  1.0409
  479MOL0     C63150   8.382   7.008   0.675  1.1810 -1.3349 -0.1453
  479MOL0     C63151   8.247   6.956   0.667 -0.4695  0.0524 -0.0105
  479MOL0     C63152   8.178   6.915   0.779  0.2948 -0.0022 -0.0286
  479MOL0     C63153   8.231   6.901   0.899 -0.0994  0.0510 -0.9758
  479MOL0     O63154   8.144   6.860   1.007 -0.4983  0.2011 -0.1407
  479MOL0     C63155   8.185   6.784   1.124  0.2315 -0.0534  0.5450
  479MOL0     C63156   8.204   6.876   1.247 -0.2180 -0.1386  0.9668
  479MOL0     C63157   8.256   6.800   1.374  0.3296  0.5900  0.1586
  479MOL0     C63158   8.257   6.889   1.502 -0.6287  0.1810  0.1591
  479MOL0     C63159   8.126   6.905   1.561 -0.3069  0.8408  0.3608
  479MOL0     C63160   8.014   6.905   1.604 -0.7005 -0.0632  0.2631
  479MOL0     C63161   8.367   6.942   0.908 -0.7607  0.6202 -0.0329
  479MOL0     C63162   8.441   6.997   0.801  0.7507  0.0722 -0.0644
  479MOL0     H63163   8.343   6.967   0.208  1.8826 -2.1601  0.3499
  479MOL0     H63164   8.459   7.040  -0.002  1.2278  1.1233 -0.2334
  479MOL0     H63165   8.795   7.311   0.035 -0.7704  5.7763  1.7865
  479MOL0     H63166   8.695   7.437  -0.016  0.0926  0.1445 -0.2972
  479MOL0     H63167   8.712   7.362  -0.248 -0.9974 -2.5728 -0.0597
  479MOL0     H63168   8.831   7.237  -0.205  1.2050  2.4600 -2.8727
  479MOL0     H63169   8.954   7.424  -0.072  0.1757  0.3137  0.4193
  479MOL0     H63170   8.859   7.544  -0.147 -1.6845 -0.2909 -1.3734
  479MOL0     H63171   9.030   7.354  -0.314  3.0217  1.7126  2.9401
  479MOL0     H63172   8.892   7.452  -0.369 -0.3335 -1.6854  0.7609
  479MOL0     H63173   9.022   7.656  -0.263  2.2704  0.5871  1.2660
  479MOL0     H63174   9.081   7.586  -0.414  0.7014  1.8205  0.3600
  479MOL0     H63175   9.222   7.431  -0.278 -1.3191  0.7140  1.8922
  479MOL0     H63176   9.186   7.532  -0.141 -0.8438  0.9484 -0.2541
  479MOL0     H63177   9.290   7.633  -0.410 -2.5311  4.0027 -1.8402
  479MOL0     H63178   9.251   7.739  -0.264  0.4263  0.0491 -1.3729
  479MOL0     H63179   9.483   7.535  -0.296  2.0512 -0.8468  2.8998
  479MOL0     H63180   9.433   7.628  -0.145 -2.7685  2.2682 -0.8203
  479MOL0     H63181   9.447   7.919  -0.196 -2.3146 -2.6364  1.1544
  479MOL0     H63182   9.616   8.143  -0.284 -0.4732  0.3141  4.2860
  479MOL0     H63183   9.769   8.077  -0.353 -0.3815  1.7890 -0.0349
  479MOL0     H63184   9.837   8.099  -0.123 -0.4005  0.3600  0.3825
  479MOL0     H63185   9.794   7.935  -0.130 -1.4497  0.2538  0.1684
  479MOL0     H63186   9.598   8.145  -0.046  0.1697  0.0040 -1.7537
  479MOL0     H63187   9.588   7.967  -0.016 -0.5648  0.7497  3.9279
  479MOL0     H63188   9.798   8.137   0.112 -1.6893  0.4129  0.6673
  479MOL0     H63189   9.761   7.952   0.118 -2.2832 -0.1156  0.4739
  479MOL0     H63190   9.443   8.126   0.325 -1.5318  0.0658 -0.1237
  479MOL0     H63191   9.287   7.976   0.474  1.6219 -1.7638  2.3251
  479MOL0     H63192   9.108   7.530   0.534 -2.7925 -2.2684 -0.5307
  479MOL0     H63193   8.861   7.477   0.606 -1.4386 -0.2135  4.1480
  479MOL0     H63194   8.734   7.620   0.958 -1.1135  0.2298  1.0426
  479MOL0     H63195   8.751   7.466   0.886  0.6916  0.8527 -1.0539
  479MOL0     H63196   8.520   7.426   0.859  0.9043 -2.2419  0.5581
  479MOL0     H63197   8.476   7.602   0.891  1.1247  0.4612 -0.5739
  479MOL0     H63198   8.595   7.570   1.117  0.1964  2.1470 -4.1284
  479MOL0     H63199   8.555   7.406   1.114 -0.5351 -0.2367 -1.4360
  479MOL0     H63200   8.337   7.600   1.074  0.6462  1.1597 -0.9700
  479MOL0     H63201   8.320   7.426   1.069 -0.6257  0.8557  0.0338
  479MOL0     H63202   8.390   7.614   1.307  2.9636 -0.9973  1.5547
  479MOL0     H63203   8.435   7.450   1.318  4.3974  4.0087 -2.1985
  479MOL0     H63204   8.190   7.379   1.294 -0.9936  0.3473 -0.0737
  479MOL0     H63205   8.157   7.544   1.240 -0.9677  1.4183  2.2916
  479MOL0     H63206   8.264   7.475   1.525  1.3434  1.1029 -0.4486
  479MOL0     H63207   8.219   7.638   1.461  1.3196 -0.8061  2.6589
  479MOL0     H63208   7.979   7.526   1.426 -1.7653  3.2268  1.2456
  479MOL0     H63209   8.028   7.599   1.576 -1.8867 -0.6791 -0.7809
  479MOL0     H63210   8.816   7.823   0.813  1.4112 -0.5225  1.2658
  479MOL0     H63211   9.050   7.898   0.736  0.0863  0.0758  0.0448
  479MOL0     H63212   9.502   7.643   0.340  0.0086  0.6602  0.8278
  479MOL0     H63213   9.657   7.761   0.212  0.5554  0.2832  2.1257
  479MOL0     H63214   8.602   7.388   0.202 -2.6285  1.3334 -0.2875
  479MOL0     H63215   8.515   7.302   0.418 -0.2560  0.7141  0.6764
  479MOL0     H63216   8.180   6.972   0.583 -5.2121  1.5906  3.6129
  479MOL0     H63217   8.073   6.889   0.773  0.5710 -1.4804  0.9805
  479MOL0     H63218   8.276   6.728   1.101  0.3044 -0.3181  1.4505
  479MOL0     H63219   8.106   6.711   1.143 -0.1248  0.0904 -0.3349
  479MOL0     H63220   8.274   6.954   1.215 -0.3930 -0.1268  0.6008
  479MOL0     H63221   8.106   6.916   1.276 -0.3917 -0.6869  1.1514
  479MOL0     H63222   8.355   6.759   1.351 -0.3887 -1.4071  0.4007
  479MOL0     H63223   8.188   6.717   1.397  1.2296 -0.7978 -1.8443
  479MOL0     H63224   8.321   6.864   1.587  0.1520 -0.1238 -0.5084
  479MOL0     H63225   8.295   6.989   1.477  0.6658  0.0057  1.3462
  479MOL0     H63226   7.915   6.905   1.645  0.1542 -0.5362  2.4418
  479MOL0     H63227   8.404   6.927   1.009 -0.6116  0.4849 -0.1074
  479MOL0     H63228   8.541   7.032   0.823 -0.5458  2.9796  1.8652
  480MOL0     O63229  10.100   5.979   3.352  0.5457 -0.2157 -0.6759
  480MOL0     C63230  10.092   5.962   3.477 -0.1715 -0.0847 -0.1326
  480MOL0     O63231  10.019   5.862   3.532 -0.2574 -0.2505 -0.4023
  480MOL0     C63232   9.964   5.763   3.456 -0.3665  0.3407  0.2717
  480MOL0     C63233  10.031   5.692   3.353  1.0553  0.4379 -0.9578
  480MOL0     C63234   9.954   5.596   3.282  0.1213  1.5497 -0.2185
  480MOL0     C63235   9.827   5.567   3.330  0.2516 -0.3633 -0.8840
  480MOL0     O63236   9.767   5.453   3.270  0.4216  0.1137 -0.0418
  480MOL0     C63237   9.634   5.416   3.327  1.0678 -0.3958 -0.2654
  480MOL0     C63238   9.592   5.284   3.269 -0.1296 -0.0269  1.1378
  480MOL0     C63239   9.704   5.180   3.275 -0.7981 -0.7702 -0.6856
  480MOL0     C63240   9.654   5.031   3.264  0.0901  0.1820 -1.1420
  480MOL0     C63241   9.768   4.922   3.273 -0.0088 -0.7042 -0.8297
  480MOL0     C63242   9.874   4.919   3.168  0.7669  0.3305 -0.6558
  480MOL0     C63243   9.830   4.888   3.019  0.7977  1.1896 -0.0654
  480MOL0     C63244   9.781   4.737   3.004 -0.6133  0.4952  0.3609
  480MOL0     N63245   9.872   4.630   3.044 -0.0251  0.1422 -0.9901
  480MOL0     C63246   9.999   4.619   2.991  0.5324  0.4269 -0.2749
  480MOL0     C63247  10.061   4.517   3.071 -0.0466 -0.1257  1.3260
  480MOL0     C63248  10.188   4.451   3.042 -0.0023 -0.5480 -1.2337
  480MOL0     C63249  10.166   4.301   3.050  0.1725  0.2838 -0.2588
  480MOL0     C63250  10.305   4.248   3.052  0.1172 -0.5602  0.1268
  480MOL0     C63251  10.326   4.100   3.078  0.8668  0.4648 -0.1219
  480MOL0     O63252  10.248   4.046   3.180  0.4986 -0.2142 -0.4328
  480MOL0     C63253  10.305   3.966   3.281 -0.8478 -0.7739  0.4862
  480MOL0     C63254  10.239   3.970   3.398  0.7925  0.8433  0.1372
  480MOL0     C63255  10.276   3.890   3.506 -0.3435 -0.5503 -0.9406
  480MOL0     C63256  10.401   3.824   3.508 -0.8447 -0.0871  0.6899
  480MOL0     C63257  10.468   3.758   3.626 -0.2992 -0.4311 -0.2772
  480MOL0     O63258  10.606   3.737   3.645 -0.3171 -0.2160  0.9702
  480MOL0     C63259  10.642   3.673   3.755 -0.7305 -0.8035  0.2383
  480MOL0     C63260  10.622   3.714   3.885  1.3028 -0.8979  0.9076
  480MOL0     C63261  10.675   3.655   3.992  0.0207  1.0473 -1.0939
  480MOL0     C63262  10.745   3.526   3.977 -0.3602 -0.4570 -0.1579
  480MOL0     O63263  10.800   3.463   4.092 -0.1089 -0.7629 -0.2623
  480MOL0     C63264  10.869   3.332   4.068 -0.4716  0.5372 -0.6009
  480MOL0     C63265  10.935   3.314   4.196 -0.2598  0.1063  0.0082
  480MOL0     C63266  11.021   3.190   4.184  0.0801  0.3001  0.1769
  480MOL0     C63267  11.079   3.149   4.313  0.3650  0.8541 -0.2258
  480MOL0     C63268  11.190   3.040   4.279  0.7841  0.7336  0.1595
  480MOL0     C63269  11.298   3.029   4.380 -0.2700 -0.1585 -0.6423
  480MOL0     C63270  11.399   2.914   4.346  0.8152 -0.1901 -0.6816
  480MOL0     C63271  11.493   2.895   4.465  0.0406 -0.5081 -0.0439
  480MOL0    Cl63272  11.571   3.039   4.540  0.2946 -0.0258 -0.2792
  480MOL0     C63273  10.772   3.490   3.847 -0.1971  1.2052 -0.1135
  480MOL0     C63274  10.728   3.558   3.733 -0.2347 -0.9262  0.3672
  480MOL0     O63275  10.377   3.724   3.704  0.6044  0.3319 -0.4402
  480MOL0     C63276  10.466   3.817   3.381 -0.8062 -0.3369  0.0040
  480MOL0     C63277  10.418   3.881   3.268  0.7205 -0.6040  0.3846
  480MOL0     N63278   9.969   4.476   3.163  0.3570  0.2011  0.4510
  480MOL0     N63279   9.859   4.541   3.148 -0.0133 -0.0928  0.7420
  480MOL0     C63280   9.772   5.638   3.440 -0.4558 -0.6769 -0.5208
  480MOL0     C63281   9.832   5.739   3.497 -0.1438  0.7715  0.4859
  480MOL0     C63282  10.151   6.072   3.562 -0.6215  0.2570 -0.4789
  480MOL0     C63283  10.248   6.164   3.512 -0.4565 -0.7882  0.1843
  480MOL0     C63284  10.300   6.267   3.589  0.5900  0.4477 -0.5002
  480MOL0     C63285  10.246   6.280   3.712 -0.0558 -0.3044  0.1856
  480MOL0     O63286  10.292   6.400   3.770  0.4067  0.7904 -0.0861
  480MOL0     C63287  10.248   6.439   3.901 -0.6747 -0.1059 -1.7236
  480MOL0     C63288  10.114   6.512   3.891 -0.1880  0.0626 -0.1546
  480MOL0     C63289  10.100   6.600   4.016 -0.7017 -0.1124  0.2648
  480MOL0     C63290   9.998   6.715   4.013 -0.0403 -0.3598 -0.4077
  480MOL0     C63291   9.974   6.758   4.154  0.3922 -0.1127  1.3183
  480MOL0     C63292   9.949   6.792   4.269  0.2321  0.0986 -0.2124
  480MOL0     C63293  10.143   6.203   3.760  0.2038  0.7157 -0.0611
  480MOL0     C63294  10.100   6.091   3.692 -0.2157 -0.7587 -0.6901
  480MOL0     H63295  10.134   5.721   3.334  0.7457 -0.0042 -3.5801
  480MOL0     H63296   9.996   5.557   3.190 -0.8494 -1.0041  0.3392
  480MOL0     H63297   9.557   5.493   3.315  2.6246  1.0972 -1.1945
  480MOL0     H63298   9.645   5.395   3.434  0.7105 -0.1456 -0.1773
  480MOL0     H63299   9.573   5.305   3.163 -0.9566 -0.5775  1.1682
  480MOL0     H63300   9.503   5.233   3.305 -0.8491 -1.7684 -2.6196
  480MOL0     H63301   9.768   5.192   3.363  3.0855  2.3493 -3.5782
  480MOL0     H63302   9.778   5.204   3.199 -2.1329  1.3812 -1.3656
  480MOL0     H63303   9.601   5.000   3.354  3.4481 -1.1097  0.5456
  480MOL0     H63304   9.588   5.018   3.178 -0.3272  1.3266 -1.0161
  480MOL0     H63305   9.718   4.825   3.272  1.2442 -1.4130 -3.5391
  480MOL0     H63306   9.816   4.939   3.370 -0.4177 -1.7560 -0.4363
  480MOL0     H63307   9.942   4.835   3.184  0.6282  0.2617 -0.4177
  480MOL0     H63308   9.924   5.016   3.176 -0.1453  0.8978 -1.5103
  480MOL0     H63309   9.764   4.965   2.977  0.4788  1.2365  0.5038
  480MOL0     H63310   9.923   4.892   2.963  0.3891 -0.5268 -0.9268
  480MOL0     H63311   9.749   4.721   2.901  1.8044  1.8901 -0.7072
  480MOL0     H63312   9.690   4.728   3.064 -1.7935 -1.9490 -1.6371
  480MOL0     H63313  10.046   4.663   2.903  0.8563  1.3297  0.3384
  480MOL0     H63314  10.262   4.490   3.113 -1.7123 -0.1032  0.3643
  480MOL0     H63315  10.217   4.484   2.942 -1.7166  2.8234 -0.7748
  480MOL0     H63316  10.114   4.254   2.965  1.0791  1.2911 -1.3910
  480MOL0     H63317  10.101   4.270   3.133 -1.3237 -2.8458 -2.3667
  480MOL0     H63318  10.342   4.269   2.951  1.2954 -0.0608  0.6471
  480MOL0     H63319  10.365   4.296   3.129  2.4495 -1.1430 -1.2059
  480MOL0     H63320  10.432   4.076   3.094 -0.0503 -3.1088  1.6506
  480MOL0     H63321  10.295   4.048   2.987 -0.8234  1.8180 -0.3623
  480MOL0     H63322  10.154   4.037   3.404  0.9929  1.5306 -3.0038
  480MOL0     H63323  10.221   3.888   3.599  2.3969 -3.3909  0.8481
  480MOL0     H63324  10.565   3.806   3.890  4.8589  1.7162 -1.2589
  480MOL0     H63325  10.643   3.678   4.092 -0.9228 -1.5599 -0.7146
  480MOL0     H63326  10.938   3.332   3.983 -0.4739  2.0838 -0.6294
  480MOL0     H63327  10.792   3.255   4.062  0.2200 -0.4484  1.8668
  480MOL0     H63328  10.857   3.301   4.272 -1.7208 -0.1086 -1.4684
  480MOL0     H63329  10.991   3.403   4.224 -1.1353 -0.0539  2.5198
  480MOL0     H63330  11.099   3.212   4.111 -0.2136  1.1763  0.1165
  480MOL0     H63331  10.974   3.100   4.143  1.4652  0.3375 -1.6012
  480MOL0     H63332  11.125   3.237   4.360  0.5950  0.9977 -0.7166
  480MOL0     H63333  10.996   3.107   4.371 -0.4157  3.0622  0.3664
  480MOL0     H63334  11.243   3.067   4.187 -0.9829 -1.8190 -1.7278
  480MOL0     H63335  11.131   2.949   4.268  1.1490  0.7305 -2.1970
  480MOL0     H63336  11.246   3.002   4.472 -0.9025  1.5609 -0.4636
  480MOL0     H63337  11.357   3.119   4.400  0.2399 -0.8100  0.9245
  480MOL0     H63338  11.347   2.819   4.330  1.0549 -0.5008  0.3538
  480MOL0     H63339  11.455   2.939   4.255  1.8750  1.3688  0.3739
  480MOL0     H63340  11.567   2.828   4.420  0.3645  1.4354 -2.5732
  480MOL0     H63341  11.457   2.842   4.554 -0.1388  1.0177  0.8254
  480MOL0     H63342  10.831   3.398   3.845 -5.0698 -2.3449  1.6018
  480MOL0     H63343  10.748   3.517   3.635 -1.7484  0.2861 -0.4880
  480MOL0     H63344  10.560   3.768   3.361  0.2090  1.1819  0.9174
  480MOL0     H63345  10.459   3.855   3.172  2.3241 -0.2557  0.9496
  480MOL0     H63346   9.667   5.627   3.463 -1.4060  1.8566 -3.0944
  480MOL0     H63347   9.776   5.796   3.571 -2.5271  2.5880 -2.5030
  480MOL0     H63348  10.293   6.139   3.417 -1.8908 -0.6618 -0.5642
  480MOL0     H63349  10.372   6.339   3.552 -1.2780  1.7517 -1.8172
  480MOL0     H63350  10.329   6.502   3.936  0.8610 -2.8994  0.0512
  480MOL0     H63351  10.237   6.368   3.984 -0.3569  1.5050 -0.2570
  480MOL0     H63352  10.121   6.581   3.806 -0.4083  2.9644  2.0113
  480MOL0     H63353  10.022   6.454   3.894  0.3882 -0.8451  0.3855
  480MOL0     H63354  10.199   6.644   4.035 -0.4169 -0.3519 -0.6099
  480MOL0     H63355  10.077   6.530   4.096 -0.8966 -3.0488 -2.1975
  480MOL0     H63356  10.034   6.797   3.951 -3.3179  1.4013 -0.2065
  480MOL0     H63357   9.904   6.669   3.983 -0.3106  1.2506 -2.1931
  480MOL0     H63358   9.941   6.818   4.373 -2.2473  3.4406 -1.0700
  480MOL0     H63359  10.090   6.231   3.850  0.0434 -0.9265  0.3889
  480MOL0     H63360  10.019   6.039   3.743  1.7165 -1.9745  1.3136
  481MOL0     O63361   1.951   9.735   7.405 -1.1623  0.0628 -0.0778
  481MOL0     C63362   1.854   9.673   7.451  0.8244  0.6526  0.3432
  481MOL0     O63363   1.856   9.570   7.532 -0.8342  0.8317 -0.5037
  481MOL0     C63364   1.981   9.508   7.543 -0.4056 -0.0146  0.0711
  481MOL0     C63365   2.052   9.461   7.429 -0.6802 -0.0521 -0.4884
  481MOL0     C63366   2.175   9.386   7.431 -0.7059 -1.0294 -1.1725
  481MOL0     C63367   2.219   9.358   7.560  0.6396 -0.0024 -0.7008
  481MOL0     O63368   2.337   9.285   7.573 -0.1402 -0.4960  0.1690
  481MOL0     C63369   2.355   9.197   7.683  0.7046  0.2871 -0.4049
  481MOL0     C63370   2.497   9.142   7.683 -0.7110 -0.1728  0.4350
  481MOL0     C63371   2.598   9.246   7.739 -0.2871  0.2467 -0.6924
  481MOL0     C63372   2.643   9.363   7.656 -0.2019  1.7275  1.0102
  481MOL0     C63373   2.780   9.409   7.710 -0.3136 -0.5897  0.0213
  481MOL0     C63374   2.830   9.535   7.632  0.0901 -0.1741 -0.1085
  481MOL0     C63375   2.901   9.630   7.734 -0.0844  1.5527 -0.1546
  481MOL0     C63376   3.031   9.575   7.806  0.1148 -0.5230  0.6796
  481MOL0     N63377   3.119   9.518   7.704  1.3482  0.6861 -0.1962
  481MOL0     C63378   3.127   9.384   7.695  0.3742  1.2925  0.4356
  481MOL0     C63379   3.230   9.368   7.609 -0.3853 -0.5345  0.4337
  481MOL0     C63380   3.295   9.231   7.586  0.6816 -0.0500  0.2345
  481MOL0     C63381   3.395   9.183   7.699 -0.3130  0.1185 -0.1296
  481MOL0     C63382   3.335   9.157   7.833 -0.4105  0.2016  0.1653
  481MOL0     C63383   3.251   9.015   7.821 -0.5452 -0.1628  0.2812
  481MOL0     O63384   3.128   9.048   7.762 -0.4860 -0.4021 -0.1366
  481MOL0     C63385   3.026   8.960   7.787  0.5094  0.0515  0.8564
  481MOL0     C63386   3.002   8.887   7.904  0.3058  0.1198  0.2808
  481MOL0     C63387   2.884   8.822   7.929 -0.5784 -0.1026 -0.2896
  481MOL0     C63388   2.794   8.806   7.820 -0.1280  0.3153 -0.2057
  481MOL0     C63389   2.671   8.727   7.829 -0.4089 -0.6242  0.0478
  481MOL0     O63390   2.564   8.727   7.737  0.0176  0.4494 -0.1829
  481MOL0     C63391   2.442   8.684   7.778  0.1030 -0.0177 -0.0402
  481MOL0     C63392   2.343   8.780   7.808 -0.6492 -0.6682  1.0382
  481MOL0     C63393   2.212   8.761   7.839  0.4784  1.4759  0.3985
  481MOL0     C63394   2.167   8.626   7.838 -0.2810  0.6970 -0.5329
  481MOL0     O63395   2.034   8.584   7.856 -0.2212  0.2766 -1.2703
  481MOL0     C63396   1.942   8.676   7.918  0.1604 -0.1092 -0.5137
  481MOL0     C63397   1.838   8.618   8.003 -0.0191 -0.5147 -1.0937
  481MOL0     C63398   1.779   8.715   8.107  0.5138  0.1164  0.5509
  481MOL0     C63399   1.658   8.802   8.038 -0.6694  0.3065 -0.5563
  481MOL0     C63400   1.577   8.890   8.126 -0.4985  0.8623 -0.2441
  481MOL0     C63401   1.473   8.966   8.041 -0.3296  0.1777  0.6761
  481MOL0     C63402   1.363   9.051   8.117  0.0765  1.1570  0.2445
  481MOL0     C63403   1.243   8.963   8.152  1.3345  0.7124  0.3467
  481MOL0    Cl63404   1.157   8.925   7.990 -0.1250  0.2542 -0.3853
  481MOL0     C63405   2.266   8.524   7.819  0.1955  0.5733 -0.3605
  481MOL0     C63406   2.402   8.549   7.791 -0.2078  1.2043 -0.6334
  481MOL0     O63407   2.670   8.670   7.944  0.5511  0.1974  0.0954
  481MOL0     C63408   2.807   8.892   7.711 -1.1377 -0.4601 -0.6135
  481MOL0     C63409   2.917   8.975   7.696 -0.8087  0.3538  0.1498
  481MOL0     N63410   3.271   9.495   7.558 -0.6434  0.6823  0.0172
  481MOL0     N63411   3.201   9.583   7.622 -0.3301 -0.1921  0.6471
  481MOL0     C63412   2.152   9.405   7.676  0.1419 -0.0324  1.3239
  481MOL0     C63413   2.042   9.487   7.667  0.4069  0.5618  1.9517
  481MOL0     C63414   1.723   9.732   7.422 -0.9326 -0.4789 -0.7468
  481MOL0     C63415   1.700   9.873   7.421 -0.0243 -0.1435 -0.3195
  481MOL0     C63416   1.568   9.925   7.418  0.3958  0.4925 -0.4490
  481MOL0     C63417   1.455   9.840   7.425 -0.5212 -0.7658 -1.6053
  481MOL0     O63418   1.331   9.885   7.422 -0.7541 -0.0451 -0.8122
  481MOL0     C63419   1.267   9.923   7.547 -0.6685  0.2713  0.7160
  481MOL0     C63420   1.207   9.800   7.610 -0.5545  0.8588  0.3690
  481MOL0     C63421   1.080   9.750   7.545 -0.2900 -0.1415 -0.4946
  481MOL0     C63422   1.032   9.615   7.610 -0.5091 -0.5006 -0.5150
  481MOL0     C63423   0.917   9.560   7.545 -0.4872 -0.2495  0.7922
  481MOL0     C63424   0.814   9.522   7.490 -0.9580  0.3580 -0.6163
  481MOL0     C63425   1.473   9.707   7.412  0.3243 -0.3667  1.2054
  481MOL0     C63426   1.605   9.649   7.417 -0.0992  0.1088  0.2067
  481MOL0     H63427   2.015   9.500   7.334  3.1220 -0.2898 -2.2487
  481MOL0     H63428   2.216   9.350   7.337 -1.6358  1.8327 -2.8084
  481MOL0     H63429   2.281   9.117   7.668  1.3763 -0.1835 -1.3049
  481MOL0     H63430   2.346   9.236   7.785 -0.8144 -2.8348  0.8144
  481MOL0     H63431   2.521   9.109   7.582  1.1059 -1.9409  1.3801
  481MOL0     H63432   2.493   9.056   7.750 -0.5502 -2.6372 -2.4979
  481MOL0     H63433   2.685   9.192   7.777 -0.6627  0.4467  0.4990
  481MOL0     H63434   2.549   9.292   7.825  0.2381 -0.4880  0.0125
  481MOL0     H63435   2.644   9.337   7.549  3.6429 -2.1130  1.6915
  481MOL0     H63436   2.573   9.445   7.670 -3.4764 -1.1152  2.9328
  481MOL0     H63437   2.859   9.334   7.705  0.0226 -0.1650 -2.1111
  481MOL0     H63438   2.761   9.449   7.810 -1.5231  3.0440 -1.4636
  481MOL0     H63439   2.749   9.597   7.592  2.6958  3.5837 -0.0872
  481MOL0     H63440   2.897   9.496   7.555  2.1810  4.5403 -0.9951
  481MOL0     H63441   2.930   9.724   7.686  0.5405  1.9925  1.0488
  481MOL0     H63442   2.837   9.651   7.821 -1.5901 -1.9427 -0.2193
  481MOL0     H63443   3.014   9.498   7.881  1.3811  0.8133  2.4247
  481MOL0     H63444   3.082   9.662   7.849  0.7170  0.8949 -2.5480
  481MOL0     H63445   3.082   9.296   7.741  1.9208  1.0594  1.5820
  481MOL0     H63446   3.343   9.230   7.488 -1.9995 -4.3890 -1.3460
  481MOL0     H63447   3.216   9.156   7.578  1.2080 -0.4800 -1.2983
  481MOL0     H63448   3.470   9.262   7.703 -1.7372  1.8539 -3.5806
  481MOL0     H63449   3.448   9.097   7.658  0.8233 -0.2576  1.9631
  481MOL0     H63450   3.421   9.150   7.900  1.7419  4.7874 -1.6397
  481MOL0     H63451   3.282   9.244   7.873  0.2334  0.8382 -0.3285
  481MOL0     H63452   3.233   8.980   7.923  0.0368 -0.5710  0.2516
  481MOL0     H63453   3.304   8.928   7.781  0.0582  0.0067  0.7022
  481MOL0     H63454   3.071   8.873   7.987 -2.3584 -1.5002  2.3734
  481MOL0     H63455   2.875   8.783   8.029  0.2962 -1.4684 -0.7154
  481MOL0     H63456   2.381   8.881   7.798 -1.7622 -0.4368 -1.6673
  481MOL0     H63457   2.146   8.848   7.846  1.5710  2.3246  0.4797
  481MOL0     H63458   1.895   8.731   7.836 -0.6255  1.2912  0.8329
  481MOL0     H63459   1.986   8.760   7.974 -0.4940 -0.3081  0.3043
  481MOL0     H63460   1.892   8.540   8.058  4.8142  1.8358 -1.8805
  481MOL0     H63461   1.759   8.576   7.941 -0.8251 -0.5343 -0.0639
  481MOL0     H63462   1.858   8.776   8.152  1.9256 -1.0871 -0.2050
  481MOL0     H63463   1.736   8.652   8.185  1.9440 -0.3226  1.0082
  481MOL0     H63464   1.695   8.872   7.962  1.0922 -0.8970 -0.8543
  481MOL0     H63465   1.584   8.727   8.006 -1.3447  1.4918 -1.8714
  481MOL0     H63466   1.646   8.951   8.185  2.0630 -1.4951 -0.6261
  481MOL0     H63467   1.517   8.830   8.196  2.0543 -1.2448  0.2792
  481MOL0     H63468   1.417   8.895   7.980  0.8219 -0.2586  0.0953
  481MOL0     H63469   1.521   9.032   7.969 -0.3059 -0.1779  0.3596
  481MOL0     H63470   1.408   9.076   8.213  2.5566 -2.4960  0.2351
  481MOL0     H63471   1.336   9.139   8.057  0.6438 -0.4687 -2.6122
  481MOL0     H63472   1.160   9.014   8.202 -0.6292 -0.4308 -1.5522
  481MOL0     H63473   1.277   8.869   8.196  1.2970  0.6951  0.3372
  481MOL0     H63474   2.237   8.420   7.813  0.7647  0.2942  1.2169
  481MOL0     H63475   2.475   8.470   7.801  0.4819  2.0195  1.3111
  481MOL0     H63476   2.720   8.897   7.647  0.0352 -0.6781 -2.2742
  481MOL0     H63477   2.927   9.057   7.625  2.5350 -0.2989 -0.2917
  481MOL0     H63478   2.194   9.390   7.775  1.6048  1.6207  1.0015
  481MOL0     H63479   1.991   9.537   7.748 -0.2880  5.4339 -1.1115
  481MOL0     H63480   1.786   9.938   7.410  1.2333 -1.6095  0.5290
  481MOL0     H63481   1.573  10.030   7.393  1.1623  0.2482 -1.4002
  481MOL0     H63482   1.196  10.003   7.524 -0.5154  0.6285  1.4509
  481MOL0     H63483   1.341   9.976   7.608  2.3979  1.4657 -3.5522
  481MOL0     H63484   1.291   9.730   7.619 -1.4901 -0.2280  0.9383
  481MOL0     H63485   1.187   9.835   7.712  0.7249 -0.6462  1.1858
  481MOL0     H63486   1.105   9.731   7.441  4.8251  2.7724 -0.1267
  481MOL0     H63487   0.999   9.820   7.570  0.6700  1.1791 -0.9838
  481MOL0     H63488   1.112   9.544   7.589 -2.1823 -1.6545 -3.7241
  481MOL0     H63489   1.021   9.627   7.718 -0.5381 -0.3763 -0.5316
  481MOL0     H63490   0.714   9.503   7.456 -1.2226  2.8085 -1.3664
  481MOL0     H63491   1.390   9.638   7.399  1.2174 -1.2109 -0.3281
  481MOL0     H63492   1.619   9.542   7.418 -0.9561 -0.0112  0.7276
  482MOL0     O63493   0.812   5.941   4.756 -0.4680 -0.0441  0.0284
  482MOL0     C63494   0.935   5.921   4.738 -0.7212  0.4062 -0.3097
  482MOL0     O63495   1.005   5.955   4.625 -0.4852  0.5433 -0.2098
  482MOL0     C63496   0.946   5.985   4.510 -0.2237 -0.5818 -0.0928
  482MOL0     C63497   0.977   5.928   4.389 -0.5800  0.0762  1.1662
  482MOL0     C63498   0.930   5.979   4.264 -0.0170 -0.4147  0.8150
  482MOL0     C63499   0.851   6.091   4.266 -0.4085  0.7415 -0.2051
  482MOL0     O63500   0.785   6.128   4.151 -0.0578  0.3864  0.8778
  482MOL0     C63501   0.738   6.261   4.138  0.2016 -0.1285 -0.0775
  482MOL0     C63502   0.648   6.271   4.014  0.0301 -0.7763 -0.1290
  482MOL0     C63503   0.539   6.169   4.028  0.0245 -0.7924  0.0576
  482MOL0     C63504   0.462   6.155   3.895 -0.7274 -0.4792 -0.3969
  482MOL0     C63505   0.352   6.038   3.892 -0.3576  0.5516 -0.3033
  482MOL0     C63506   0.252   6.055   3.995  0.1449 -0.6409  0.3420
  482MOL0     C63507   0.134   5.958   3.996  0.1602  0.3886 -0.0354
  482MOL0     C63508   0.048   5.972   4.130 -0.2394  0.7260  0.2866
  482MOL0     N63509  -0.080   5.897   4.138  0.2611  0.2921  0.7818
  482MOL0     C63510  -0.121   5.783   4.056 -0.2008 -0.4793  0.2452
  482MOL0     C63511  -0.259   5.764   4.081 -0.0857 -0.9068  0.2489
  482MOL0     C63512  -0.327   5.641   4.033  0.8972  0.1486 -0.3996
  482MOL0     C63513  -0.376   5.556   4.156 -0.3572  0.3535 -0.2259
  482MOL0     C63514  -0.249   5.528   4.239  1.0952  0.5035 -0.1760
  482MOL0     C63515  -0.237   5.598   4.374 -0.0859  1.1921 -1.2584
  482MOL0     O63516  -0.116   5.546   4.433  0.1960  0.4906 -0.5195
  482MOL0     C63517  -0.103   5.557   4.569 -0.1203  0.0242  0.5951
  482MOL0     C63518   0.026   5.519   4.618 -0.0198 -1.0616  0.0938
  482MOL0     C63519   0.045   5.528   4.756 -0.2615 -0.0434  0.4999
  482MOL0     C63520  -0.053   5.574   4.847 -1.2794  0.4572 -0.3418
  482MOL0     C63521  -0.044   5.575   4.999 -0.5051 -0.5715 -0.0858
  482MOL0     O63522  -0.141   5.629   5.078  0.5310  0.3591 -0.4522
  482MOL0     C63523  -0.126   5.634   5.214 -0.2413 -0.8120 -1.1289
  482MOL0     C63524  -0.227   5.578   5.292 -0.8636  0.5188  0.9854
  482MOL0     C63525  -0.225   5.568   5.434  0.5975 -0.5054  0.4076
  482MOL0     C63526  -0.109   5.611   5.499 -0.0118 -0.0415 -0.7139
  482MOL0     O63527  -0.105   5.637   5.635  0.2471  1.3092  0.1738
  482MOL0     C63528  -0.204   5.580   5.727 -0.8275  0.1141 -0.3857
  482MOL0     C63529  -0.196   5.633   5.876 -1.0838  1.0295 -0.0410
  482MOL0     C63530  -0.319   5.614   5.955  0.7716 -0.3031 -0.7126
  482MOL0     C63531  -0.287   5.617   6.101 -0.0487  0.5737 -0.0905
  482MOL0     C63532  -0.396   5.568   6.186 -0.4562  0.1024 -0.0814
  482MOL0     C63533  -0.539   5.630   6.181 -0.5135  0.6638 -0.6189
  482MOL0     C63534  -0.546   5.786   6.205  0.5949 -0.1254  0.0584
  482MOL0     C63535  -0.691   5.838   6.221  0.1376  1.2687  0.3174
  482MOL0    Cl63536  -0.692   6.013   6.223 -0.1201  0.3310 -0.1134
  482MOL0     C63537  -0.005   5.672   5.421  0.2120 -0.8724  0.6209
  482MOL0     C63538  -0.002   5.677   5.281  0.6487 -0.2595  0.9284
  482MOL0     O63539   0.056   5.513   5.031  0.3098  0.4052 -0.0334
  482MOL0     C63540  -0.170   5.608   4.789  0.4493  0.3179  0.3056
  482MOL0     C63541  -0.195   5.602   4.652  0.0956 -0.9789  0.3075
  482MOL0     N63542  -0.299   5.869   4.167 -0.0769 -0.9486  0.0108
  482MOL0     N63543  -0.199   5.941   4.185 -0.2869 -0.0643  0.6427
  482MOL0     C63544   0.831   6.161   4.384  0.0005  0.0632  0.2764
  482MOL0     C63545   0.889   6.109   4.495 -1.1581  0.1178 -0.3102
  482MOL0     C63546   0.999   5.886   4.864 -0.6506  0.1889 -0.0779
  482MOL0     C63547   0.937   5.882   4.989 -0.6679 -0.4692 -1.1582
  482MOL0     C63548   1.008   5.863   5.115  0.8874 -0.2111  0.5837
  482MOL0     C63549   1.148   5.877   5.106  0.6939  0.2370 -0.4791
  482MOL0     O63550   1.227   5.869   5.220  0.3678  0.1693 -0.2658
  482MOL0     C63551   1.179   5.921   5.339 -0.2491  0.4927 -0.6006
  482MOL0     C63552   1.294   5.960   5.430 -0.6449  0.0723 -0.8016
  482MOL0     C63553   1.409   6.037   5.368 -0.0946  0.5836  0.4177
  482MOL0     C63554   1.462   6.160   5.431 -0.5467  0.4615 -0.5260
  482MOL0     C63555   1.534   6.133   5.559  0.4058 -0.2557  0.3902
  482MOL0     C63556   1.604   6.094   5.645 -0.5540 -0.2984  0.4459
  482MOL0     C63557   1.209   5.879   4.983 -0.1708  0.1842  0.2660
  482MOL0     C63558   1.137   5.880   4.863  0.4809  0.1248  0.2785
  482MOL0     H63559   1.046   5.845   4.376 -0.8090  0.2599 -1.8634
  482MOL0     H63560   0.933   5.940   4.163 -3.0165  4.0630 -1.3562
  482MOL0     H63561   0.819   6.333   4.145  1.9312 -1.6559 -2.7114
  482MOL0     H63562   0.664   6.292   4.213  0.7489  6.6507 -1.6506
  482MOL0     H63563   0.695   6.254   3.916  0.1609  4.9971 -1.4154
  482MOL0     H63564   0.599   6.368   4.003  2.6955  0.7030  0.1599
  482MOL0     H63565   0.466   6.190   4.106  0.6783 -3.3316  1.4871
  482MOL0     H63566   0.590   6.072   4.038 -3.6248 -3.1874 -2.0429
  482MOL0     H63567   0.417   6.254   3.882 -1.2223 -0.2200  2.6716
  482MOL0     H63568   0.536   6.143   3.815 -1.5694 -2.7459 -0.9191
  482MOL0     H63569   0.391   5.940   3.921 -1.0375  0.4163  0.2001
  482MOL0     H63570   0.307   6.023   3.793  0.4896  1.9930 -0.9448
  482MOL0     H63571   0.205   6.154   3.987  1.9157  0.3473  1.4452
  482MOL0     H63572   0.290   6.071   4.096  2.5509 -0.1670 -0.5642
  482MOL0     H63573   0.065   5.969   3.912  1.2676 -1.0315 -1.1826
  482MOL0     H63574   0.174   5.856   3.988 -2.3333 -0.6934  0.4617
  482MOL0     H63575   0.048   6.077   4.159  0.1858  0.2159  2.2518
  482MOL0     H63576   0.113   5.922   4.201 -0.1088  0.5540  0.0474
  482MOL0     H63577  -0.043   5.737   3.996  0.5324  0.8407  0.1521
  482MOL0     H63578  -0.256   5.591   3.967  3.3094  0.2865  1.9418
  482MOL0     H63579  -0.415   5.685   3.986  1.0716  2.0028  0.9130
  482MOL0     H63580  -0.416   5.459   4.123 -2.9576  1.2238  0.1287
  482MOL0     H63581  -0.450   5.613   4.213  4.4310  2.2415  5.0164
  482MOL0     H63582  -0.249   5.420   4.255 -2.2749  0.7365  2.6455
  482MOL0     H63583  -0.162   5.564   4.183 -0.3234  0.3297 -2.6552
  482MOL0     H63584  -0.325   5.569   4.433  0.4587  0.2623 -0.8804
  482MOL0     H63585  -0.229   5.707   4.372 -0.6132  1.4080  2.0928
  482MOL0     H63586   0.098   5.469   4.554 -1.1379 -0.9736 -1.2688
  482MOL0     H63587   0.141   5.486   4.786  0.6420 -2.4603 -4.6034
  482MOL0     H63588  -0.322   5.549   5.250 -0.9485 -0.2720  1.6829
  482MOL0     H63589  -0.315   5.528   5.481 -0.4880 -0.4016 -1.4891
  482MOL0     H63590  -0.199   5.471   5.731 -1.8395  0.0893  0.7124
  482MOL0     H63591  -0.294   5.620   5.678 -0.3364 -0.8337 -2.1273
  482MOL0     H63592  -0.177   5.740   5.891 -2.6068  0.9076  3.6904
  482MOL0     H63593  -0.113   5.579   5.923 -3.3005 -0.5815  2.2585
  482MOL0     H63594  -0.364   5.519   5.927 -2.0392  0.6069  0.3957
  482MOL0     H63595  -0.393   5.687   5.922 -0.3133 -2.4576 -3.3582
  482MOL0     H63596  -0.198   5.556   6.116 -0.4979 -0.0524  0.0931
  482MOL0     H63597  -0.268   5.721   6.127  3.4643 -0.0689  0.3230
  482MOL0     H63598  -0.355   5.575   6.287 -0.7246  0.3134  0.0141
  482MOL0     H63599  -0.412   5.467   6.149 -0.3545  0.8811 -2.4121
  482MOL0     H63600  -0.611   5.576   6.243  1.5424  0.6844  1.9401
  482MOL0     H63601  -0.572   5.625   6.076 -0.3019  2.0203 -0.7765
  482MOL0     H63602  -0.480   5.810   6.289  0.8330 -1.5047  0.2861
  482MOL0     H63603  -0.492   5.838   6.125 -0.3398  0.0459 -0.4850
  482MOL0     H63604  -0.731   5.781   6.305 -2.0257  2.1751 -0.0463
  482MOL0     H63605  -0.757   5.815   6.138  1.9636 -2.2807 -0.3687
  482MOL0     H63606   0.079   5.710   5.478  1.0764 -3.3510  1.1305
  482MOL0     H63607   0.088   5.720   5.239  1.0050  0.0357  1.9495
  482MOL0     H63608  -0.255   5.623   4.855  1.1341  0.7805  1.1136
  482MOL0     H63609  -0.299   5.623   4.626  0.5705  1.9290  0.5067
  482MOL0     H63610   0.773   6.252   4.396 -0.9113 -0.5947  0.9731
  482MOL0     H63611   0.873   6.152   4.594 -1.1727  0.6742 -0.5510
  482MOL0     H63612   0.830   5.892   5.001 -0.2536  2.5512  1.4812
  482MOL0     H63613   0.963   5.846   5.213 -1.5086  2.0263 -0.0019
  482MOL0     H63614   1.112   5.850   5.388  0.6971  0.2588  0.4255
  482MOL0     H63615   1.119   6.011   5.323 -1.1549  0.6777  2.9332
  482MOL0     H63616   1.248   6.037   5.493  1.5741  1.0031 -0.2168
  482MOL0     H63617   1.323   5.872   5.488 -1.0419 -0.4433 -1.3784
  482MOL0     H63618   1.389   6.079   5.269  3.0037  4.8577  1.3382
  482MOL0     H63619   1.489   5.965   5.352  0.4821  1.3504 -0.2275
  482MOL0     H63620   1.544   6.201   5.372  1.8640  1.4621  3.2027
  482MOL0     H63621   1.386   6.238   5.441  0.5807  1.3381  1.7734
  482MOL0     H63622   1.661   6.050   5.725  1.7024 -4.5238 -3.0429
  482MOL0     H63623   1.316   5.882   4.964  0.6601 -5.8631  1.9638
  482MOL0     H63624   1.182   5.910   4.769  0.5252  1.5852  0.7343
  483MOL0     O63625   1.394   8.847   1.719 -0.0285 -0.2240 -0.3885
  483MOL0     C63626   1.386   8.881   1.600  0.0205  0.5002  0.2288
  483MOL0     O63627   1.493   8.921   1.523  0.5900  0.7339 -0.5777
  483MOL0     C63628   1.615   8.914   1.576 -0.5200 -0.1423 -0.1448
  483MOL0     C63629   1.708   8.811   1.536  0.3578 -0.9811  0.0582
  483MOL0     C63630   1.844   8.828   1.585 -0.5456 -0.2562 -0.8080
  483MOL0     C63631   1.887   8.935   1.663 -0.2086  0.1452  0.4610
  483MOL0     O63632   2.012   8.942   1.707  0.1050 -0.9075  0.6124
  483MOL0     C63633   2.103   8.969   1.594 -0.2304  0.0306  1.2862
  483MOL0     C63634   2.214   9.064   1.625 -0.1438 -0.5790  0.0669
  483MOL0     C63635   2.165   9.209   1.666 -0.3750  0.3519 -2.3320
  483MOL0     C63636   2.114   9.293   1.563  0.1575 -0.6010 -0.1301
  483MOL0     C63637   2.049   9.425   1.597  0.4951 -0.0971 -0.5489
  483MOL0     C63638   2.159   9.533   1.637 -0.5272  0.9906  0.4693
  483MOL0     C63639   2.099   9.660   1.700  0.6681  1.7975 -0.3314
  483MOL0     C63640   2.181   9.708   1.815 -0.3978 -0.7742  0.3739
  483MOL0     N63641   2.296   9.785   1.761 -0.7002 -0.7993  0.2308
  483MOL0     C63642   2.286   9.915   1.721 -0.3833 -0.3333 -0.0977
  483MOL0     C63643   2.417   9.954   1.707 -0.2274  0.5503 -0.3418
  483MOL0     C63644   2.447  10.087   1.647  0.5284  0.3925  0.4607
  483MOL0     C63645   2.475  10.202   1.738 -0.2584  0.1910  0.4266
  483MOL0     C63646   2.613  10.207   1.793 -0.4159 -1.0151 -0.2506
  483MOL0     C63647   2.641  10.341   1.859 -0.5485 -0.0324 -0.0744
  483MOL0     O63648   2.546  10.356   1.969 -0.0675  0.1696 -0.3531
  483MOL0     C63649   2.529  10.484   2.017  1.5615 -0.4074 -0.2081
  483MOL0     C63650   2.557  10.603   1.948 -0.2284 -0.1933  0.0494
  483MOL0     C63651   2.546  10.727   2.005 -0.3356 -0.5788 -0.2419
  483MOL0     C63652   2.486  10.740   2.130 -0.2373  1.5301  0.0113
  483MOL0     C63653   2.474  10.870   2.204 -0.0789 -0.3210  0.1639
  483MOL0     O63654   2.531  10.984   2.160  0.0631 -0.8545 -0.0808
  483MOL0     C63655   2.557  11.082   2.249  0.3439  0.8629  0.7335
  483MOL0     C63656   2.460  11.153   2.321 -0.4136 -0.2397 -0.1701
  483MOL0     C63657   2.497  11.252   2.411 -0.0849 -0.4060  0.0221
  483MOL0     C63658   2.631  11.278   2.431 -1.0215  0.1263 -0.4518
  483MOL0     O63659   2.685  11.371   2.523 -0.0140 -0.5447 -0.0758
  483MOL0     C63660   2.772  11.471   2.451  0.1712  0.9968 -1.1614
  483MOL0     C63661   2.763  11.600   2.528 -1.1405  0.5795  0.9198
  483MOL0     C63662   2.829  11.713   2.458 -0.1742 -1.1654 -0.9605
  483MOL0     C63663   2.848  11.847   2.542 -0.4124  0.8936 -0.4917
  483MOL0     C63664   2.909  11.963   2.465 -0.2795 -0.0137  0.9773
  483MOL0     C63665   2.927  12.108   2.539  1.0998 -0.1456  0.6439
  483MOL0     C63666   2.966  12.228   2.448  0.9576 -0.2000  0.0196
  483MOL0     C63667   3.009  12.334   2.544 -0.2186  0.6793  0.1925
  483MOL0    Cl63668   3.173  12.280   2.608  0.0244 -0.3414  0.2554
  483MOL0     C63669   2.724  11.211   2.346 -0.8910 -0.1308  0.3813
  483MOL0     C63670   2.687  11.112   2.256  0.3925 -0.6336  0.6748
  483MOL0     O63671   2.425  10.854   2.314 -0.0108 -0.7408  0.4379
  483MOL0     C63672   2.440  10.623   2.196  0.0006  0.0114 -0.5931
  483MOL0     C63673   2.469  10.495   2.144  0.3143  0.0721 -0.5849
  483MOL0     N63674   2.500   9.839   1.728  0.0456 -0.3796  0.0743
  483MOL0     N63675   2.427   9.744   1.771 -0.0549  0.7143  0.3642
  483MOL0     C63676   1.790   9.025   1.695 -0.9910  0.1077 -0.4078
  483MOL0     C63677   1.654   9.019   1.652 -0.3036  1.2985  0.0995
  483MOL0     C63678   1.253   8.892   1.546 -1.2354 -1.6535  1.2419
  483MOL0     C63679   1.231   8.992   1.447 -0.0443  0.7407 -0.6185
  483MOL0     C63680   1.102   9.002   1.391  0.6586  0.4576 -0.5013
  483MOL0     C63681   1.000   8.944   1.453  1.0839  0.4635  0.4197
  483MOL0     O63682   0.883   8.966   1.398  0.2763  0.7607 -0.4343
  483MOL0     C63683   0.764   8.898   1.436  0.7675 -0.1510 -0.5531
  483MOL0     C63684   0.650   8.946   1.343 -0.0749 -0.0632  0.2145
  483MOL0     C63685   0.632   8.858   1.222  0.1852  0.3895 -0.7559
  483MOL0     C63686   0.517   8.930   1.148  0.2337 -0.7561 -0.9930
  483MOL0     C63687   0.466   8.850   1.044  0.6978 -0.4882  0.3310
  483MOL0     C63688   0.435   8.759   0.966 -0.8889  0.3178  0.3258
  483MOL0     C63689   1.018   8.852   1.559  0.6445 -0.9064 -0.1216
  483MOL0     C63690   1.148   8.822   1.602  0.2496 -0.1464 -1.0446
  483MOL0     H63691   1.674   8.724   1.482 -3.0129 -1.3351  2.4018
  483MOL0     H63692   1.919   8.754   1.560  2.0230  0.2950  4.0820
  483MOL0     H63693   2.054   8.999   1.501  0.8257  0.8397  0.9768
  483MOL0     H63694   2.162   8.879   1.573  0.1462  0.2655  1.3349
  483MOL0     H63695   2.280   9.079   1.539 -1.0707 -0.3088 -0.6193
  483MOL0     H63696   2.273   9.023   1.707  1.4225  1.0374 -0.2009
  483MOL0     H63697   2.255   9.254   1.709  0.6889 -4.6981  1.8650
  483MOL0     H63698   2.103   9.203   1.757 -1.3763  0.3959 -2.9965
  483MOL0     H63699   2.176   9.295   1.474 -0.8308  0.7903 -0.8228
  483MOL0     H63700   2.030   9.241   1.515 -0.7124 -0.3447  1.0514
  483MOL0     H63701   1.975   9.403   1.675 -0.3770 -2.2676 -1.9099
  483MOL0     H63702   1.990   9.467   1.515  0.0607  1.7306  0.6371
  483MOL0     H63703   2.235   9.549   1.560  0.9580 -3.1817  0.7811
  483MOL0     H63704   2.206   9.478   1.719  1.4110  0.5444 -0.8707
  483MOL0     H63705   2.090   9.738   1.623  0.5418  3.2036  1.0516
  483MOL0     H63706   2.002   9.634   1.742  0.5376 -1.3023 -2.2527
  483MOL0     H63707   2.228   9.624   1.867  2.8741  0.4669 -0.3266
  483MOL0     H63708   2.125   9.765   1.889 -2.2102 -2.3666  0.2967
  483MOL0     H63709   2.195   9.974   1.711  0.7894  1.3357 -1.8604
  483MOL0     H63710   2.361  10.121   1.588  2.2195  1.8106 -1.3065
  483MOL0     H63711   2.534  10.078   1.581  0.8276 -0.3449  0.9380
  483MOL0     H63712   2.417  10.193   1.831  3.6472  1.1928  3.2378
  483MOL0     H63713   2.465  10.300   1.691  0.6360  1.5968  2.9661
  483MOL0     H63714   2.630  10.129   1.868  0.1574 -0.7973 -0.1481
  483MOL0     H63715   2.689  10.205   1.714  1.2667  2.9897  1.0400
  483MOL0     H63716   2.641  10.423   1.788  0.9380  1.4449  1.5369
  483MOL0     H63717   2.742  10.342   1.900 -1.2903  1.7823  1.8680
  483MOL0     H63718   2.606  10.608   1.851  0.4283 -0.9909  0.3225
  483MOL0     H63719   2.580  10.812   1.946  2.1524 -1.7766 -0.6423
  483MOL0     H63720   2.357  11.122   2.301 -0.3743  0.5652 -1.7311
  483MOL0     H63721   2.418  11.307   2.461 -1.1524 -1.8573 -0.0129
  483MOL0     H63722   2.744  11.484   2.346 -3.4410  1.4648 -0.3035
  483MOL0     H63723   2.878  11.444   2.454  0.2054  1.2389  0.6059
  483MOL0     H63724   2.790  11.580   2.632 -4.2803 -4.7944  1.0919
  483MOL0     H63725   2.659  11.632   2.542 -0.4055  2.1480  3.4381
  483MOL0     H63726   2.777  11.735   2.364 -3.7623  0.2098  1.1488
  483MOL0     H63727   2.934  11.699   2.431  0.9513  1.5483  1.4294
  483MOL0     H63728   2.759  11.884   2.594 -0.4897  0.6551 -0.4525
  483MOL0     H63729   2.927  11.824   2.614  1.4831  1.5540 -2.2824
  483MOL0     H63730   2.846  11.984   2.378  1.0509 -0.5016 -0.1259
  483MOL0     H63731   3.009  11.935   2.433 -1.6511 -2.3230 -1.6411
  483MOL0     H63732   3.008  12.084   2.609  1.9715  0.3674 -0.1712
  483MOL0     H63733   2.842  12.130   2.604  2.9061  0.3536  2.9986
  483MOL0     H63734   3.043  12.189   2.381 -1.9583 -3.2771 -1.9117
  483MOL0     H63735   2.876  12.267   2.399  0.1583  1.9397  2.9172
  483MOL0     H63736   2.939  12.345   2.627  0.4821  1.6923  0.6680
  483MOL0     H63737   3.025  12.425   2.485  3.1172 -0.3939 -0.7911
  483MOL0     H63738   2.832  11.225   2.347 -1.0306  1.5065  3.1788
  483MOL0     H63739   2.767  11.060   2.204  2.3502 -0.3906  3.2517
  483MOL0     H63740   2.393  10.627   2.294 -0.7071  0.7740 -0.9527
  483MOL0     H63741   2.451  10.412   2.211  0.2724 -0.4234 -1.2103
  483MOL0     H63742   1.807   9.106   1.765  2.6743 -4.3566  4.7617
  483MOL0     H63743   1.582   9.093   1.688 -1.8747  0.0764 -0.4283
  483MOL0     H63744   1.314   9.050   1.408 -0.2835 -0.0457 -2.4324
  483MOL0     H63745   1.070   9.065   1.309 -0.1583  0.8582  0.1116
  483MOL0     H63746   0.740   8.935   1.536  0.2734  0.3565 -0.8592
  483MOL0     H63747   0.775   8.789   1.429 -0.5057 -0.2879 -0.7410
  483MOL0     H63748   0.552   8.946   1.392  0.5201  2.6860  1.5696
  483MOL0     H63749   0.664   9.050   1.312 -0.1565 -0.0280  0.2956
  483MOL0     H63750   0.603   8.761   1.262 -1.1282  0.7543 -0.7815
  483MOL0     H63751   0.723   8.856   1.161 -0.4447  2.6374 -1.8996
  483MOL0     H63752   0.431   8.946   1.214 -1.5232  0.7771 -3.4538
  483MOL0     H63753   0.558   9.020   1.102  0.6151 -1.2926 -1.7311
  483MOL0     H63754   0.399   8.677   0.908 -1.2177  0.3209  0.5210
  483MOL0     H63755   0.938   8.792   1.602 -0.2526 -0.4499 -1.1194
  483MOL0     H63756   1.171   8.750   1.679 -0.9207 -0.6146 -1.1144
  484MOL0     O63757   7.495  10.350   0.760  0.2349 -0.2984 -0.5553
  484MOL0     C63758   7.520  10.263   0.838 -0.3632  0.6863 -0.7455
  484MOL0     O63759   7.429  10.207   0.923 -0.0240  0.0709  0.4448
  484MOL0     C63760   7.295  10.255   0.928 -0.3096  0.0947 -0.2380
  484MOL0     C63761   7.197  10.156   0.907 -0.0628  0.1485  1.0699
  484MOL0     C63762   7.060  10.185   0.909  0.9809 -1.2233  0.2206
  484MOL0     C63763   7.019  10.317   0.946  0.4830  0.8004 -0.8927
  484MOL0     O63764   6.890  10.359   0.964 -0.3307  0.2808 -0.6369
  484MOL0     C63765   6.806  10.269   1.039  0.4237  0.1580 -0.1850
  484MOL0     C63766   6.671  10.324   1.089 -0.9153  1.1681 -0.2382
  484MOL0     C63767   6.580  10.342   0.970 -1.2126  0.0103 -0.7721
  484MOL0     C63768   6.458  10.417   1.004  0.2443 -0.4258 -0.6680
  484MOL0     C63769   6.371  10.464   0.876  0.2745 -1.1202 -0.8015
  484MOL0     C63770   6.234  10.514   0.927 -0.1092  0.3001  0.4304
  484MOL0     C63771   6.144  10.543   0.805 -0.3963 -0.1615  0.1345
  484MOL0     C63772   6.081  10.427   0.733 -0.1885 -0.4170 -0.0803
  484MOL0     N63773   5.952  10.472   0.672 -0.4514  1.1237  1.5933
  484MOL0     C63774   5.826  10.443   0.713 -0.5965 -0.2748  0.4465
  484MOL0     C63775   5.751  10.517   0.629  0.0571  0.4692  0.0516
  484MOL0     C63776   5.593  10.507   0.646 -0.5669 -0.4595  0.1643
  484MOL0     C63777   5.512  10.457   0.514 -0.4498 -0.5547 -0.0611
  484MOL0     C63778   5.362  10.449   0.548 -1.2868 -0.3317  0.0139
  484MOL0     C63779   5.283  10.585   0.560  0.1909  0.9501  0.4322
  484MOL0     O63780   5.260  10.655   0.439  1.1559  0.0628  0.4866
  484MOL0     C63781   5.149  10.634   0.366  0.4480 -0.4291  0.1637
  484MOL0     C63782   5.141  10.725   0.257 -0.3205 -0.4243  0.1592
  484MOL0     C63783   5.027  10.722   0.180 -0.0671  0.0203  0.5280
  484MOL0     C63784   4.936  10.615   0.196 -0.2830 -0.6068 -0.1737
  484MOL0     C63785   4.826  10.613   0.101  0.1015  0.4066 -0.8228
  484MOL0     O63786   4.829  10.697  -0.006  0.1665 -0.1537 -0.1097
  484MOL0     C63787   4.713  10.718  -0.080 -0.5112 -0.2876  0.3793
  484MOL0     C63788   4.580  10.708  -0.036 -0.6692  0.7568  1.5106
  484MOL0     C63789   4.467  10.759  -0.108  0.3875  0.2568  0.4894
  484MOL0     C63790   4.483  10.807  -0.235 -0.8123 -0.6359 -0.0754
  484MOL0     O63791   4.384  10.858  -0.320 -0.0275 -0.0429 -0.0880
  484MOL0     C63792   4.248  10.882  -0.268  0.5076 -0.1901 -0.1475
  484MOL0     C63793   4.195  10.962  -0.376  0.5056  0.0364 -0.2297
  484MOL0     C63794   4.159  10.888  -0.504  0.0396  0.8207 -0.0727
  484MOL0     C63795   4.170  10.956  -0.641  0.2214 -0.3077  0.2559
  484MOL0     C63796   4.135  10.856  -0.751 -1.0264  0.4001 -0.8298
  484MOL0     C63797   4.140  10.913  -0.893 -0.7711 -0.0327  0.0119
  484MOL0     C63798   4.146  10.796  -0.993 -0.7213 -0.6879 -0.1481
  484MOL0     C63799   4.160  10.844  -1.138  0.5312  0.2384 -0.0530
  484MOL0    Cl63800   4.303  10.956  -1.147  0.1234  0.4546  0.2350
  484MOL0     C63801   4.612  10.808  -0.285  0.8659  0.4186 -0.0463
  484MOL0     C63802   4.722  10.773  -0.208 -1.4136  0.6299 -1.4206
  484MOL0     O63803   4.733  10.538   0.138 -0.5805  0.5362 -0.5741
  484MOL0     C63804   4.957  10.521   0.300  0.2559  0.3856 -0.0538
  484MOL0     C63805   5.061  10.530   0.387 -0.1778  0.0442 -0.3760
  484MOL0     N63806   5.830  10.593   0.547 -0.2036 -0.0592 -0.0542
  484MOL0     N63807   5.946  10.561   0.567 -0.2057 -0.2353  0.2168
  484MOL0     C63808   7.117  10.408   0.971 -0.7009 -0.4857 -0.5048
  484MOL0     C63809   7.257  10.381   0.961 -0.0026  0.3127 -1.2567
  484MOL0     C63810   7.653  10.199   0.811  0.3866  0.8767  0.0553
  484MOL0     C63811   7.719  10.211   0.687  0.7243 -0.1576  1.3119
  484MOL0     C63812   7.845  10.141   0.677  0.6538 -0.1293 -0.0833
  484MOL0     C63813   7.902  10.064   0.774  0.2505  0.6776  0.0248
  484MOL0     O63814   8.021   9.993   0.757 -0.1789 -0.4873 -0.5777
  484MOL0     C63815   8.141  10.073   0.755  0.8771  0.0499 -0.1278
  484MOL0     C63816   8.173  10.142   0.884  0.1835 -1.0260 -0.4317
  484MOL0     C63817   8.293  10.232   0.847  0.0978  0.0581  0.0403
  484MOL0     C63818   8.351  10.314   0.955 -0.6816 -0.0899 -0.5887
  484MOL0     C63819   8.475  10.385   0.923  0.8533 -0.5617  0.1133
  484MOL0     C63820   8.567  10.461   0.894  0.0449  0.1940 -0.3545
  484MOL0     C63821   7.829  10.055   0.894  0.1617  0.1398 -0.3691
  484MOL0     C63822   7.701  10.112   0.908 -0.1222  0.0622  0.2445
  484MOL0     H63823   7.232  10.060   0.873 -2.2413  0.5576 -2.8511
  484MOL0     H63824   6.984  10.111   0.887 -1.0668  0.2766  1.7910
  484MOL0     H63825   6.850  10.239   1.134 -2.1212  2.9940  2.1345
  484MOL0     H63826   6.782  10.178   0.983 -0.1366 -3.8594  5.6677
  484MOL0     H63827   6.694  10.416   1.143  1.7077  1.2843 -1.3959
  484MOL0     H63828   6.639  10.241   1.154  2.7230  1.6844  2.5903
  484MOL0     H63829   6.553  10.242   0.935 -1.1463  0.3084 -1.6923
  484MOL0     H63830   6.627  10.399   0.890 -1.9932 -0.3793 -1.5213
  484MOL0     H63831   6.397  10.363   1.076 -0.2639  0.2899 -0.5599
  484MOL0     H63832   6.496  10.505   1.057  0.4675 -1.3931  0.8515
  484MOL0     H63833   6.361  10.379   0.809 -2.9749 -1.4581 -0.0531
  484MOL0     H63834   6.436  10.542   0.835  1.1402  0.6777  3.3974
  484MOL0     H63835   6.250  10.614   0.968  1.7315  0.5423 -0.7505
  484MOL0     H63836   6.184  10.439   0.989  2.7688 -1.0168  1.3036
  484MOL0     H63837   6.067  10.610   0.843  0.2017 -0.2063  1.4874
  484MOL0     H63838   6.203  10.601   0.733  0.9886  0.8532  1.9911
  484MOL0     H63839   6.062  10.347   0.804 -3.9591 -0.3295 -0.7940
  484MOL0     H63840   6.138  10.383   0.650  0.8048 -0.4478  0.5969
  484MOL0     H63841   5.801  10.384   0.800  3.0464 -0.1644  1.7325
  484MOL0     H63842   5.574  10.613   0.660  0.0090 -0.1230 -1.4182
  484MOL0     H63843   5.551  10.456   0.734 -3.5908  0.1352 -0.8199
  484MOL0     H63844   5.558  10.360   0.493 -0.9410 -1.2427  1.8000
  484MOL0     H63845   5.534  10.527   0.433  2.2922  0.4626  1.4228
  484MOL0     H63846   5.307  10.399   0.468  0.0028  1.1455 -1.8653
  484MOL0     H63847   5.350  10.394   0.642 -1.2432 -1.9120 -0.8783
  484MOL0     H63848   5.344  10.660   0.611 -0.3762  2.2283 -0.7058
  484MOL0     H63849   5.198  10.567   0.627  0.3445 -2.0446 -0.0437
  484MOL0     H63850   5.214  10.804   0.243  0.0019 -1.1817 -3.7787
  484MOL0     H63851   5.020  10.797   0.102 -4.9429  0.9879  1.5875
  484MOL0     H63852   4.560  10.668   0.062  0.3184 -0.3746  1.2690
  484MOL0     H63853   4.374  10.762  -0.051  2.4905  2.4805  4.2064
  484MOL0     H63854   4.233  10.930  -0.171 -0.0229  1.1505 -0.8703
  484MOL0     H63855   4.195  10.786  -0.272  0.7397 -0.2834 -1.4749
  484MOL0     H63856   4.264  11.041  -0.408  3.0312 -1.8841  0.2143
  484MOL0     H63857   4.113  11.022  -0.336  1.6960  0.1531  2.1868
  484MOL0     H63858   4.057  10.850  -0.489  1.4231 -2.8468  1.1455
  484MOL0     H63859   4.219  10.797  -0.508 -0.6066  0.3722  0.2390
  484MOL0     H63860   4.111  11.048  -0.641  3.0633  1.6944  1.9607
  484MOL0     H63861   4.275  10.986  -0.650 -0.0179  0.3910 -0.3901
  484MOL0     H63862   4.030  10.831  -0.737 -0.8577 -0.2342 -0.6811
  484MOL0     H63863   4.206  10.772  -0.752  0.5810  1.6632  0.5131
  484MOL0     H63864   4.227  10.979  -0.896 -2.6576  2.6687  0.7932
  484MOL0     H63865   4.058  10.984  -0.887  1.5317  2.8239 -0.1179
  484MOL0     H63866   4.233  10.732  -0.979 -0.3231 -0.5724 -1.8567
  484MOL0     H63867   4.063  10.726  -0.979 -0.9255 -0.1636  1.4703
  484MOL0     H63868   4.070  10.903  -1.160 -0.8260 -0.7034  2.5808
  484MOL0     H63869   4.144  10.768  -1.215 -3.7000  2.4088 -1.6483
  484MOL0     H63870   4.624  10.863  -0.378 -0.2885  4.6055  1.9976
  484MOL0     H63871   4.825  10.761  -0.240 -0.6064 -2.3598  1.6831
  484MOL0     H63872   4.888  10.438   0.315  1.6068 -0.5191  1.3947
  484MOL0     H63873   5.082  10.456   0.464  1.9183 -0.0819 -0.9992
  484MOL0     H63874   7.081  10.510   0.983  1.0036  0.0489  0.3792
  484MOL0     H63875   7.330  10.461   0.971 -1.1459  1.4937 -1.9491
  484MOL0     H63876   7.681  10.264   0.601  1.5487 -0.7990  0.5278
  484MOL0     H63877   7.914  10.152   0.593  1.1760 -2.6463 -0.0693
  484MOL0     H63878   8.128  10.153   0.681  1.6027  0.3601  0.0773
  484MOL0     H63879   8.221  10.007   0.723 -0.1032 -0.1431 -2.3468
  484MOL0     H63880   8.092  10.209   0.916 -2.5059 -3.6725 -1.3363
  484MOL0     H63881   8.194  10.073   0.966  0.1762  0.4976  0.9118
  484MOL0     H63882   8.282  10.284   0.751  3.0433  1.9027  0.5476
  484MOL0     H63883   8.372  10.160   0.823  1.0300  0.5373  1.5330
  484MOL0     H63884   8.269  10.380   0.985  2.5953  3.6657  1.0486
  484MOL0     H63885   8.372  10.244   1.036 -2.0688  0.4749  0.2955
  484MOL0     H63886   8.648  10.526   0.866 -0.3769  0.7147 -0.3732
  484MOL0     H63887   7.876  10.007   0.979  1.5871  1.7556 -0.1703
  484MOL0     H63888   7.638  10.095   0.995 -1.4451  1.9759 -0.2546
  485MOL0     O63889   3.509   3.064   0.696  0.7636  0.3707  0.1632
  485MOL0     C63890   3.411   3.012   0.642 -0.7252  0.2747  0.3514
  485MOL0     O63891   3.405   2.897   0.584  0.2384 -0.1677  0.3793
  485MOL0     C63892   3.484   2.788   0.610  0.4553 -1.0213  1.1032
  485MOL0     C63893   3.609   2.780   0.672  0.8728 -0.1839 -0.3224
  485MOL0     C63894   3.683   2.658   0.652  0.4001 -0.0523 -0.3562
  485MOL0     C63895   3.635   2.541   0.593 -0.3992 -0.2307 -0.3137
  485MOL0     O63896   3.715   2.429   0.603 -0.5028  0.5404 -0.0475
  485MOL0     C63897   3.634   2.306   0.624 -0.4700  0.0026 -0.2170
  485MOL0     C63898   3.715   2.196   0.710  0.0512 -0.6169  0.4734
  485MOL0     C63899   3.841   2.160   0.645 -0.2744 -1.1758  1.0366
  485MOL0     C63900   3.922   2.078   0.753  0.0358  0.7130 -0.2035
  485MOL0     C63901   4.066   2.060   0.713 -0.0119  0.1903  0.9843
  485MOL0     C63902   4.148   1.974   0.812 -0.9665  1.0636  0.1276
  485MOL0     C63903   4.093   1.833   0.845  1.0011 -0.6586  0.4610
  485MOL0     C63904   4.206   1.745   0.904 -0.6197  0.0917 -0.8345
  485MOL0     N63905   4.282   1.689   0.789  0.1060 -0.6859  0.1191
  485MOL0     C63906   4.414   1.709   0.758 -0.0683  1.1527 -0.6806
  485MOL0     C63907   4.436   1.652   0.638  0.2010  0.1301 -0.9806
  485MOL0     C63908   4.569   1.638   0.576  0.8657  0.1266  0.2021
  485MOL0     C63909   4.644   1.504   0.610 -0.4106 -0.5269 -0.0231
  485MOL0     C63910   4.583   1.369   0.560  0.1767  0.2945 -0.8101
  485MOL0     C63911   4.591   1.353   0.409  0.4867  1.1064 -1.0474
  485MOL0     O63912   4.684   1.241   0.393  0.1975 -0.4463 -0.4437
  485MOL0     C63913   4.634   1.113   0.371  0.3562  0.8833  0.1017
  485MOL0     C63914   4.515   1.065   0.309  0.7007  0.4871 -0.3459
  485MOL0     C63915   4.494   0.928   0.294  1.0767 -0.5240 -1.1298
  485MOL0     C63916   4.589   0.823   0.324 -1.5090 -0.1416  0.0008
  485MOL0     C63917   4.553   0.681   0.333 -0.1199 -0.0971 -0.0246
  485MOL0     O63918   4.651   0.601   0.390 -0.5768 -0.0294 -0.5467
  485MOL0     C63919   4.627   0.469   0.412  0.3604  0.8402  0.6555
  485MOL0     C63920   4.605   0.431   0.543 -0.1309 -0.3529 -0.0653
  485MOL0     C63921   4.585   0.298   0.581 -0.4129  0.4870  0.6792
  485MOL0     C63922   4.599   0.197   0.489 -0.6795  0.2548 -0.2391
  485MOL0     O63923   4.581   0.064   0.532  0.0419 -0.2020 -0.3464
  485MOL0     C63924   4.658  -0.037   0.462 -0.7470 -0.2267 -1.5779
  485MOL0     C63925   4.568  -0.163   0.461 -0.0119  0.7224  1.6038
  485MOL0     C63926   4.544  -0.231   0.599  0.0429 -0.7423 -0.2896
  485MOL0     C63927   4.459  -0.357   0.606  0.0260  0.6291 -0.2959
  485MOL0     C63928   4.434  -0.377   0.765 -0.2122 -0.0057  0.4231
  485MOL0     C63929   4.379  -0.517   0.786 -1.2292 -0.0555  0.4964
  485MOL0     C63930   4.370  -0.540   0.946  0.2182  0.2754 -0.2121
  485MOL0     C63931   4.339  -0.689   0.977  0.6902 -0.1520 -1.5069
  485MOL0    Cl63932   4.477  -0.793   0.916  0.5404 -0.2126 -0.3356
  485MOL0     C63933   4.629   0.232   0.350  0.1507 -0.0525 -0.3153
  485MOL0     C63934   4.631   0.365   0.320 -0.3317 -0.0213 -0.2321
  485MOL0     O63935   4.444   0.643   0.292  0.0707  0.4644  0.5280
  485MOL0     C63936   4.712   0.876   0.377  0.5540  0.7087 -1.1588
  485MOL0     C63937   4.730   1.012   0.403 -0.9632 -0.2001  1.3271
  485MOL0     N63938   4.314   1.610   0.592 -0.3283  0.4585  0.5389
  485MOL0     N63939   4.226   1.631   0.683  0.4346  0.3111 -0.0967
  485MOL0     C63940   3.505   2.544   0.529  0.2392 -0.6291 -0.1204
  485MOL0     C63941   3.436   2.674   0.539  0.1980  0.2387 -0.2430
  485MOL0     C63942   3.287   3.093   0.646 -0.9649  0.1810 -0.8981
  485MOL0     C63943   3.173   3.066   0.570 -1.0641 -0.2139  0.3641
  485MOL0     C63944   3.058   3.148   0.581  0.1410  0.4703  0.9636
  485MOL0     C63945   3.049   3.254   0.662 -0.0375 -0.0350 -0.0304
  485MOL0     O63946   2.922   3.315   0.678 -0.6199 -0.1415  0.2215
  485MOL0     C63947   2.902   3.408   0.787  0.2037 -0.2020 -0.5885
  485MOL0     C63948   2.760   3.453   0.772 -0.6393  0.1543 -0.3196
  485MOL0     C63949   2.721   3.548   0.889  0.5987 -0.1590  0.7300
  485MOL0     C63950   2.695   3.690   0.837  0.3065 -0.4744  0.6215
  485MOL0     C63951   2.587   3.697   0.736  0.3877 -1.4146 -0.4682
  485MOL0     C63952   2.506   3.715   0.649 -0.1587 -0.0865 -0.1829
  485MOL0     C63953   3.159   3.278   0.744  0.4784  0.1169 -0.0454
  485MOL0     C63954   3.271   3.195   0.741 -0.5037 -0.1790 -0.8861
  485MOL0     H63955   3.647   2.868   0.723 -3.8847  0.8030  2.0311
  485MOL0     H63956   3.787   2.638   0.678  0.5892 -0.1592 -1.1488
  485MOL0     H63957   3.590   2.270   0.530 -1.2476  2.9707 -1.1165
  485MOL0     H63958   3.547   2.340   0.681 -0.4300 -0.0010 -0.1542
  485MOL0     H63959   3.668   2.098   0.717  1.2988 -1.4093 -1.4012
  485MOL0     H63960   3.718   2.250   0.805 -0.0920  0.5115 -0.1442
  485MOL0     H63961   3.888   2.255   0.619 -3.9048  1.4848  3.3110
  485MOL0     H63962   3.819   2.104   0.553 -0.6805 -0.8926  0.9621
  485MOL0     H63963   3.923   2.139   0.844 -3.7987  0.5792  0.0889
  485MOL0     H63964   3.877   1.983   0.783  2.0003  0.1061  0.9731
  485MOL0     H63965   4.113   2.154   0.685 -0.2352 -0.5887 -2.4223
  485MOL0     H63966   4.055   1.998   0.623 -2.4027 -2.6699  3.0419
  485MOL0     H63967   4.156   2.036   0.901 -1.6689 -0.3770  1.2342
  485MOL0     H63968   4.253   1.963   0.784 -0.2368  3.7359  1.5273
  485MOL0     H63969   4.021   1.841   0.927  0.1855  0.8909 -0.3675
  485MOL0     H63970   4.039   1.796   0.758 -1.4688  3.3492  0.0805
  485MOL0     H63971   4.163   1.663   0.963 -0.9619 -0.6209 -2.0258
  485MOL0     H63972   4.254   1.811   0.976 -2.7112  0.4331  0.3507
  485MOL0     H63973   4.494   1.752   0.817  0.5305  0.0982 -0.7068
  485MOL0     H63974   4.631   1.721   0.608  0.0588  0.5717  0.6435
  485MOL0     H63975   4.562   1.647   0.467 -0.9297 -0.6073  0.2247
  485MOL0     H63976   4.639   1.500   0.720  0.7304 -0.0770  0.0503
  485MOL0     H63977   4.747   1.512   0.575 -0.9909 -1.2905 -2.0646
  485MOL0     H63978   4.650   1.295   0.605 -0.8398  0.0192  0.2722
  485MOL0     H63979   4.480   1.359   0.595  0.3187  2.6115  0.4623
  485MOL0     H63980   4.631   1.443   0.362  3.0597  1.1835  1.0555
  485MOL0     H63981   4.489   1.331   0.378 -0.5112  0.9139  2.0002
  485MOL0     H63982   4.444   1.137   0.269  0.0967 -0.0913 -0.3410
  485MOL0     H63983   4.401   0.893   0.251  1.3302 -1.6340 -0.8076
  485MOL0     H63984   4.594   0.505   0.622  0.8445 -1.6017  1.2886
  485MOL0     H63985   4.577   0.276   0.687  0.8797 -0.9616  0.5165
  485MOL0     H63986   4.739  -0.065   0.529 -3.2908  0.8980  2.2891
  485MOL0     H63987   4.696  -0.011   0.363  1.1703  1.2588 -0.5128
  485MOL0     H63988   4.625  -0.232   0.399 -1.7195  0.4904  0.2315
  485MOL0     H63989   4.476  -0.146   0.405 -0.5208 -1.6458  1.6211
  485MOL0     H63990   4.494  -0.159   0.663  3.4067  2.5877 -1.0471
  485MOL0     H63991   4.642  -0.258   0.640  0.9018  0.1232 -1.6999
  485MOL0     H63992   4.364  -0.332   0.557  0.0734  2.2132  0.3586
  485MOL0     H63993   4.500  -0.441   0.550  2.1860  1.7840 -0.5390
  485MOL0     H63994   4.373  -0.302   0.816  1.1420  0.6685  1.1087
  485MOL0     H63995   4.533  -0.367   0.811  0.4623  0.2647 -1.0405
  485MOL0     H63996   4.450  -0.589   0.743 -0.2104  1.5779 -0.6728
  485MOL0     H63997   4.280  -0.516   0.740 -1.2474  2.4445  0.4770
  485MOL0     H63998   4.455  -0.517   1.012  1.1417 -1.5331 -0.6953
  485MOL0     H63999   4.281  -0.486   0.978 -0.2652 -1.2389  1.0865
  485MOL0     H64000   4.250  -0.729   0.930 -0.8729 -1.7549  2.3964
  485MOL0     H64001   4.320  -0.708   1.083 -0.2345  0.5270 -1.5397
  485MOL0     H64002   4.634   0.161   0.268  0.1695  3.0321 -3.2172
  485MOL0     H64003   4.657   0.405   0.223 -1.3103  3.9562  0.9328
  485MOL0     H64004   4.785   0.804   0.413 -0.9176 -0.8873 -1.2102
  485MOL0     H64005   4.819   1.045   0.456  1.0423  1.4237 -2.6208
  485MOL0     H64006   3.467   2.468   0.462 -0.4490  1.3243 -2.0736
  485MOL0     H64007   3.341   2.697   0.493  0.7811  0.7272 -1.2442
  485MOL0     H64008   3.166   2.982   0.503  2.0186 -0.0766 -0.2696
  485MOL0     H64009   2.971   3.117   0.525  1.0247  1.0118 -0.8000
  485MOL0     H64010   2.966   3.497   0.786  1.0069 -0.7086  1.1468
  485MOL0     H64011   2.907   3.365   0.888 -1.3599 -0.8454 -0.7697
  485MOL0     H64012   2.753   3.502   0.674  3.8865  1.8526 -0.0660
  485MOL0     H64013   2.691   3.369   0.787  2.1351 -1.9173  2.1519
  485MOL0     H64014   2.804   3.559   0.959  2.4728  1.4277 -1.5870
  485MOL0     H64015   2.625   3.520   0.933  0.1490 -1.2611 -0.8690
  485MOL0     H64016   2.673   3.757   0.921  1.2732  0.8635 -0.1566
  485MOL0     H64017   2.791   3.727   0.800  0.2621 -1.5319 -0.5897
  485MOL0     H64018   2.436   3.721   0.568 -0.2852  0.2269 -0.0506
  485MOL0     H64019   3.163   3.354   0.821  1.2553  0.3526 -0.3156
  485MOL0     H64020   3.356   3.224   0.802 -0.6137  0.0664 -0.8505
  486MOL0     O64021   8.483   7.415   2.426 -0.1743 -0.1936 -0.4527
  486MOL0     C64022   8.548   7.348   2.510  1.0078  0.0634  0.5162
  486MOL0     O64023   8.545   7.210   2.520  0.1511 -0.4084 -0.5003
  486MOL0     C64024   8.498   7.132   2.419  0.2157 -1.0233  0.7974
  486MOL0     C64025   8.372   7.139   2.362 -0.9907 -0.4861  0.2211
  486MOL0     C64026   8.330   7.057   2.253 -0.5624 -0.6864 -0.3877
  486MOL0     C64027   8.416   6.951   2.211  0.7236  0.3399 -0.5410
  486MOL0     O64028   8.373   6.855   2.122  0.3625  0.6598 -0.0777
  486MOL0     C64029   8.268   6.903   2.031  0.2296 -0.0343 -0.0007
  486MOL0     C64030   8.258   6.826   1.897  1.4441  0.5455  0.9153
  486MOL0     C64031   8.185   6.690   1.892  0.8037  0.8106 -0.2626
  486MOL0     C64032   8.270   6.574   1.948  0.8544  0.1227  0.2142
  486MOL0     C64033   8.388   6.544   1.861  0.0888  0.7246  0.1230
  486MOL0     C64034   8.476   6.422   1.902  0.1632 -0.0027  1.0485
  486MOL0     C64035   8.601   6.419   1.818 -0.2129 -0.5401  0.5318
  486MOL0     C64036   8.710   6.329   1.889  0.6797 -0.3604  0.4808
  486MOL0     N64037   8.753   6.222   1.793  0.4072  0.4754 -0.5340
  486MOL0     C64038   8.660   6.137   1.734  0.5739 -0.0251  0.0566
  486MOL0     C64039   8.743   6.035   1.676 -0.9323 -0.1293 -0.8192
  486MOL0     C64040   8.713   5.925   1.580 -0.5978 -0.8440 -0.0353
  486MOL0     C64041   8.704   5.786   1.646  0.0113 -0.1742 -0.1055
  486MOL0     C64042   8.748   5.677   1.547  0.2341 -0.1239 -0.1739
  486MOL0     C64043   8.778   5.557   1.613  0.4576 -0.5089 -0.3402
  486MOL0     O64044   8.856   5.477   1.521 -0.2165  0.4785 -0.0756
  486MOL0     C64045   8.796   5.407   1.419 -0.8868  0.4525 -0.0914
  486MOL0     C64046   8.869   5.323   1.332  0.6896  1.0415 -0.9413
  486MOL0     C64047   8.796   5.243   1.240 -0.9779 -0.5945 -0.0747
  486MOL0     C64048   8.663   5.251   1.220 -0.4369 -0.5651 -0.1752
  486MOL0     C64049   8.581   5.178   1.121  0.7656  0.1898  0.1610
  486MOL0     O64050   8.651   5.142   1.010  0.0198  0.5275 -0.5697
  486MOL0     C64051   8.596   5.120   0.887  0.3800 -0.1924 -0.7297
  486MOL0     C64052   8.687   5.131   0.784 -0.1045 -0.8255  0.2668
  486MOL0     C64053   8.661   5.084   0.660 -0.0685 -0.1184  0.6847
  486MOL0     C64054   8.532   5.035   0.628  0.8739  0.7010  0.7595
  486MOL0     O64055   8.501   4.967   0.515  0.1448 -0.4775  0.1296
  486MOL0     C64056   8.609   4.935   0.420  0.2813 -0.5055  0.6049
  486MOL0     C64057   8.555   4.896   0.280  0.0351  0.2107  0.5123
  486MOL0     C64058   8.417   4.827   0.278 -0.3831 -0.3039 -0.1600
  486MOL0     C64059   8.402   4.706   0.377 -0.2400  0.5007  0.0392
  486MOL0     C64060   8.450   4.574   0.306 -0.8121 -0.0632  0.2727
  486MOL0     C64061   8.337   4.512   0.218  0.4050  0.0058 -0.6683
  486MOL0     C64062   8.393   4.394   0.129  0.3525  0.5742  0.9026
  486MOL0     C64063   8.485   4.453   0.014  0.4753  0.0517  0.1813
  486MOL0    Cl64064   8.411   4.579  -0.086  0.3364  0.2452  0.2852
  486MOL0     C64065   8.436   5.041   0.724 -0.1072 -0.0162 -0.5112
  486MOL0     C64066   8.470   5.079   0.851 -1.0990 -0.5940 -0.3202
  486MOL0     O64067   8.457   5.184   1.123  0.6407 -0.6718  0.1675
  486MOL0     C64068   8.595   5.344   1.303  0.0918  0.5692  0.5494
  486MOL0     C64069   8.659   5.409   1.404 -0.6660  0.1393  0.5569
  486MOL0     N64070   8.869   6.053   1.720  0.7659 -0.6534 -1.2922
  486MOL0     N64071   8.873   6.164   1.791  0.7721  0.3584 -0.1585
  486MOL0     C64072   8.548   6.948   2.271 -0.1109 -0.5832 -0.9713
  486MOL0     C64073   8.587   7.037   2.371 -0.8274 -0.1187 -0.0120
  486MOL0     C64074   8.642   7.423   2.594 -0.9116  0.0451  0.2939
  486MOL0     C64075   8.729   7.359   2.675  0.7310  0.8784  0.8042
  486MOL0     C64076   8.806   7.424   2.765 -1.2623 -0.0542 -0.0594
  486MOL0     C64077   8.801   7.567   2.774  0.2419  0.5723  0.1108
  486MOL0     O64078   8.873   7.614   2.882 -0.2368  0.7856  0.6795
  486MOL0     C64079   8.889   7.759   2.881 -0.3550 -0.4241 -0.3133
  486MOL0     C64080   8.990   7.803   2.985  0.0076  0.0471  0.6488
  486MOL0     C64081   8.943   7.779   3.134 -0.0343 -0.3793  0.1836
  486MOL0     C64082   8.822   7.876   3.176 -0.2919 -0.3702 -0.0332
  486MOL0     C64083   8.853   8.023   3.167 -1.3184 -0.0462 -0.0012
  486MOL0     C64084   8.886   8.144   3.171  0.4482 -0.3558 -0.1560
  486MOL0     C64085   8.720   7.636   2.679  0.2053  0.6192  0.6019
  486MOL0     C64086   8.639   7.564   2.589 -0.7937  0.4019  0.3916
  486MOL0     H64087   8.305   7.214   2.403  1.6536  0.9016  2.3490
  486MOL0     H64088   8.229   7.080   2.219 -1.3202 -3.3332 -0.1433
  486MOL0     H64089   8.273   7.010   2.006  0.3708  0.5246  2.1802
  486MOL0     H64090   8.180   6.880   2.091  1.6032 -2.4837  1.2195
  486MOL0     H64091   8.347   6.830   1.833  1.1014 -1.2268  0.2490
  486MOL0     H64092   8.192   6.892   1.840 -1.9968 -1.8367  1.7761
  486MOL0     H64093   8.128   6.668   1.801  2.5849  0.9597 -1.4806
  486MOL0     H64094   8.098   6.699   1.958  0.3396 -3.1513 -0.0871
  486MOL0     H64095   8.300   6.594   2.051  3.1494 -0.9251 -0.1908
  486MOL0     H64096   8.202   6.490   1.965  2.2444 -1.1380 -0.2068
  486MOL0     H64097   8.459   6.628   1.865  0.6238  0.2569  0.5955
  486MOL0     H64098   8.361   6.549   1.755 -0.7668  1.3474  0.3616
  486MOL0     H64099   8.409   6.339   1.874  0.3444 -0.0550  0.7771
  486MOL0     H64100   8.495   6.415   2.010  0.1809 -2.4740  0.9560
  486MOL0     H64101   8.585   6.404   1.711 -0.7476  2.2875  0.1375
  486MOL0     H64102   8.654   6.515   1.817 -0.5005 -0.3771  0.7159
  486MOL0     H64103   8.655   6.268   1.961  0.4388 -1.8068 -0.8689
  486MOL0     H64104   8.801   6.379   1.923  0.5090 -0.0484  0.4804
  486MOL0     H64105   8.552   6.148   1.730  0.1375 -3.5690 -0.7040
  486MOL0     H64106   8.791   5.934   1.504  1.1229  1.3356  1.8587
  486MOL0     H64107   8.614   5.941   1.535 -0.5249 -1.7796 -0.5641
  486MOL0     H64108   8.601   5.768   1.677 -0.1504  1.1651  0.1932
  486MOL0     H64109   8.783   5.783   1.721  2.5076  0.7234 -2.5215
  486MOL0     H64110   8.671   5.669   1.470 -1.1161  0.8405  1.0442
  486MOL0     H64111   8.848   5.704   1.509  2.7504 -5.5435  1.6182
  486MOL0     H64112   8.684   5.509   1.642  1.2255 -0.7039  2.0119
  486MOL0     H64113   8.833   5.576   1.705 -0.8926 -0.9757  0.6084
  486MOL0     H64114   8.976   5.310   1.316  0.4727 -1.6580 -0.7573
  486MOL0     H64115   8.850   5.175   1.175 -1.2495  1.7002 -2.9717
  486MOL0     H64116   8.786   5.169   0.805 -0.3406  0.7161 -1.2219
  486MOL0     H64117   8.741   5.098   0.589 -1.4177  0.2769 -0.8240
  486MOL0     H64118   8.647   4.841   0.463 -0.1908 -1.4276 -0.8955
  486MOL0     H64119   8.691   5.006   0.417 -0.2886  0.1585 -1.8950
  486MOL0     H64120   8.628   4.853   0.210  1.1144  1.0148  1.1026
  486MOL0     H64121   8.543   4.999   0.244 -0.5486  0.7372  2.1256
  486MOL0     H64122   8.387   4.810   0.174 -0.9097  0.4264 -0.1319
  486MOL0     H64123   8.349   4.900   0.325 -0.0119  0.6700 -1.0910
  486MOL0     H64124   8.438   4.732   0.477 -5.1063  3.3423  1.3680
  486MOL0     H64125   8.297   4.687   0.398 -0.1442 -0.3932 -0.2110
  486MOL0     H64126   8.495   4.504   0.377  1.5511  0.6757 -0.3761
  486MOL0     H64127   8.538   4.592   0.242 -2.0581 -0.9111 -1.7929
  486MOL0     H64128   8.287   4.589   0.160  0.4107  1.8713  1.6567
  486MOL0     H64129   8.275   4.462   0.293  1.8552 -0.5696  0.1916
  486MOL0     H64130   8.448   4.323   0.191  0.9070  1.9772  2.0791
  486MOL0     H64131   8.310   4.338   0.085  3.5860 -2.3184 -2.2089
  486MOL0     H64132   8.523   4.383  -0.062 -1.8871 -0.3178 -0.7330
  486MOL0     H64133   8.576   4.492   0.061  0.0099  0.0743  1.0766
  486MOL0     H64134   8.339   4.995   0.707 -0.2549 -0.0760  0.4514
  486MOL0     H64135   8.396   5.070   0.930 -0.5026 -1.1957  0.1814
  486MOL0     H64136   8.488   5.363   1.298  0.1236  0.4629 -0.8225
  486MOL0     H64137   8.579   5.466   1.451 -2.9677 -3.0327  0.8727
  486MOL0     H64138   8.606   6.863   2.236  0.6189 -0.8717  0.8068
  486MOL0     H64139   8.683   7.017   2.419 -1.0496 -1.7829 -0.2064
  486MOL0     H64140   8.737   7.252   2.659 -0.3586  1.1747 -2.3893
  486MOL0     H64141   8.873   7.366   2.827 -1.6477 -1.4499 -0.8974
  486MOL0     H64142   8.792   7.803   2.904 -0.8549 -1.7131  0.1086
  486MOL0     H64143   8.919   7.813   2.790 -1.9330 -0.0902 -0.6748
  486MOL0     H64144   9.083   7.753   2.955  1.0018  3.2526 -2.3570
  486MOL0     H64145   9.025   7.907   2.977 -2.3343  0.8208 -0.2925
  486MOL0     H64146   9.014   7.786   3.218 -0.0724  2.6368  0.0662
  486MOL0     H64147   8.901   7.678   3.144 -2.0421  0.4403  0.4471
  486MOL0     H64148   8.737   7.850   3.112 -2.1298 -1.9178  2.8006
  486MOL0     H64149   8.789   7.863   3.280 -0.1623  0.5584  0.1367
  486MOL0     H64150   8.924   8.243   3.183  3.5862 -1.3605 -0.6291
  486MOL0     H64151   8.697   7.740   2.695 -1.1846  0.4827 -0.3548
  486MOL0     H64152   8.562   7.614   2.531  0.3475  0.5052 -1.1140
  487MOL0     O64153   3.521   6.187   5.283 -0.3384  1.3680  0.3345
  487MOL0     C64154   3.491   6.157   5.167 -0.1706  1.0666  1.3057
  487MOL0     O64155   3.403   6.064   5.119  0.4260  0.5045 -0.3082
  487MOL0     C64156   3.314   5.992   5.194 -0.1323  1.1586 -0.1585
  487MOL0     C64157   3.291   5.983   5.331  0.6925 -0.2128 -0.4747
  487MOL0     C64158   3.189   5.903   5.381  0.3232  0.8180 -0.3691
  487MOL0     C64159   3.116   5.810   5.300  0.1800 -0.5692 -0.7344
  487MOL0     O64160   3.002   5.745   5.362  0.2697 -0.8517 -0.0903
  487MOL0     C64161   2.901   5.685   5.280 -0.1073 -0.3773  0.6884
  487MOL0     C64162   2.810   5.601   5.385 -0.8664 -0.3642  0.5230
  487MOL0     C64163   2.699   5.516   5.325 -0.1287  0.9023 -0.5149
  487MOL0     C64164   2.601   5.606   5.250  0.6377  0.9901  0.3201
  487MOL0     C64165   2.496   5.520   5.169  0.2762 -0.1172 -1.1117
  487MOL0     C64166   2.398   5.594   5.079 -0.4210 -0.4281 -0.0658
  487MOL0     C64167   2.459   5.634   4.945 -0.1895 -0.2425 -0.6181
  487MOL0     C64168   2.532   5.531   4.856  0.4614 -0.0758 -0.1774
  487MOL0     N64169   2.560   5.581   4.720  0.9435  0.9817 -0.9644
  487MOL0     C64170   2.624   5.698   4.685 -0.0822 -0.0437 -0.0654
  487MOL0     C64171   2.635   5.694   4.553  0.2147  0.2777  0.0220
  487MOL0     C64172   2.686   5.803   4.463 -0.3778  0.7614  0.5920
  487MOL0     C64173   2.610   5.803   4.328  0.0367 -0.0026 -0.1700
  487MOL0     C64174   2.684   5.704   4.232  1.5465 -0.8352 -0.8447
  487MOL0     C64175   2.619   5.714   4.090  0.2183  0.4460 -0.3581
  487MOL0     O64176   2.478   5.739   4.105 -0.2922 -0.4626  0.3188
  487MOL0     C64177   2.394   5.727   4.005  0.1791  0.6015 -0.0010
  487MOL0     C64178   2.296   5.645   4.036  0.6990 -0.0061  0.0357
  487MOL0     C64179   2.180   5.641   3.954  0.4862  0.4304 -0.8433
  487MOL0     C64180   2.175   5.714   3.834 -0.1568  0.5089 -0.6235
  487MOL0     C64181   2.051   5.716   3.743  0.3545  0.2610 -0.5440
  487MOL0     O64182   1.947   5.620   3.759 -0.2174 -0.2139 -0.2021
  487MOL0     C64183   1.848   5.612   3.667  0.3063  0.3828 -1.1088
  487MOL0     C64184   1.836   5.485   3.605  1.8305 -0.4784  0.4060
  487MOL0     C64185   1.728   5.455   3.530 -0.3721  0.3158 -1.0199
  487MOL0     C64186   1.617   5.531   3.522  0.1098  0.8278 -0.5082
  487MOL0     O64187   1.510   5.495   3.436  0.2174 -0.0194  0.4449
  487MOL0     C64188   1.444   5.591   3.349  1.1581  0.4872 -0.7786
  487MOL0     C64189   1.309   5.630   3.424 -0.2121 -0.6423 -0.8289
  487MOL0     C64190   1.186   5.545   3.379 -0.2719  1.6363  0.5318
  487MOL0     C64191   1.204   5.392   3.370 -0.5993  0.0052  0.1410
  487MOL0     C64192   1.075   5.315   3.384 -0.9308  1.0015  0.4472
  487MOL0     C64193   1.094   5.162   3.396  0.3388 -1.0439  0.7743
  487MOL0     C64194   1.132   5.093   3.268 -1.1598  0.2378 -0.1552
  487MOL0     C64195   1.229   4.972   3.291 -0.1267 -0.8260 -0.6350
  487MOL0    Cl64196   1.137   4.847   3.384  0.2700  0.5807 -0.1380
  487MOL0     C64197   1.625   5.654   3.583  0.0441 -0.2016  0.8732
  487MOL0     C64198   1.728   5.688   3.668 -0.8254 -0.1645 -0.5343
  487MOL0     O64199   2.059   5.790   3.648 -0.4582 -0.3758  0.1051
  487MOL0     C64200   2.287   5.792   3.807  0.2296  0.1958  0.1717
  487MOL0     C64201   2.391   5.811   3.895  1.1603  0.2719  0.6121
  487MOL0     N64202   2.577   5.572   4.509  0.1090 -0.4025 -0.8456
  487MOL0     N64203   2.528   5.505   4.609  0.4088 -0.2945  0.1453
  487MOL0     C64204   3.150   5.813   5.166  0.0104 -0.6785  0.3092
  487MOL0     C64205   3.242   5.903   5.111  0.0049 -0.3035 -0.2169
  487MOL0     C64206   3.576   6.215   5.053 -0.0050  0.0843  0.4863
  487MOL0     C64207   3.557   6.170   4.926 -0.1706  1.0058  0.4706
  487MOL0     C64208   3.651   6.207   4.834  0.2816  0.3935 -0.0571
  487MOL0     C64209   3.767   6.280   4.855 -0.9429  0.1124  1.7853
  487MOL0     O64210   3.865   6.285   4.761  0.2913 -0.6305 -0.0026
  487MOL0     C64211   3.967   6.182   4.783 -0.7076 -0.0230  0.3160
  487MOL0     C64212   3.919   6.045   4.730  0.3203  0.1058  0.5058
  487MOL0     C64213   3.933   6.029   4.572  0.4629 -0.3142 -0.1702
  487MOL0     C64214   3.894   5.886   4.529  0.5260 -0.3551  0.4910
  487MOL0     C64215   3.747   5.866   4.559  0.2821  0.6142  0.2156
  487MOL0     C64216   3.629   5.864   4.587  0.5249 -0.1177 -0.6977
  487MOL0     C64217   3.787   6.324   4.990 -0.4296 -0.8241 -0.2818
  487MOL0     C64218   3.685   6.299   5.082  0.3576 -0.5042 -0.2517
  487MOL0     H64219   3.342   6.055   5.396  1.4682  1.1750 -2.5290
  487MOL0     H64220   3.167   5.895   5.487 -0.3909  0.8250 -0.5123
  487MOL0     H64221   2.949   5.612   5.214  1.8082 -2.3564  4.0126
  487MOL0     H64222   2.839   5.763   5.236 -1.5130 -2.8140 -1.9832
  487MOL0     H64223   2.755   5.671   5.448  1.0272  2.3443 -0.6491
  487MOL0     H64224   2.882   5.533   5.433  0.2654  0.8274  0.5675
  487MOL0     H64225   2.650   5.462   5.407  2.1748  1.4535  1.3113
  487MOL0     H64226   2.757   5.450   5.260  0.6663  1.6058 -0.5208
  487MOL0     H64227   2.550   5.675   5.318  0.8143  3.3800 -1.8018
  487MOL0     H64228   2.651   5.671   5.177 -1.0618 -0.1536 -1.9833
  487MOL0     H64229   2.452   5.458   5.248  3.2862 -0.3944  0.4922
  487MOL0     H64230   2.553   5.464   5.094  1.2630  1.1607 -1.3615
  487MOL0     H64231   2.355   5.679   5.132  2.0399  0.1919  1.1031
  487MOL0     H64232   2.323   5.515   5.066 -0.7842  0.1977 -2.0599
  487MOL0     H64233   2.377   5.680   4.889 -0.5525 -1.8314 -1.4261
  487MOL0     H64234   2.538   5.707   4.966  0.9051 -1.3275 -0.8869
  487MOL0     H64235   2.474   5.438   4.856  0.8263 -0.5205 -4.5651
  487MOL0     H64236   2.626   5.509   4.907 -0.7903 -0.7793  1.9544
  487MOL0     H64237   2.660   5.784   4.741 -1.6798 -0.2207  1.3286
  487MOL0     H64238   2.795   5.798   4.464 -0.4011 -0.0030 -0.0319
  487MOL0     H64239   2.677   5.903   4.505  0.4656  2.2340 -2.4168
  487MOL0     H64240   2.610   5.903   4.284  0.4649 -0.3502 -0.9931
  487MOL0     H64241   2.505   5.780   4.346 -1.3602  1.0892 -5.2286
  487MOL0     H64242   2.787   5.740   4.223  2.3732 -3.3286 -2.3284
  487MOL0     H64243   2.673   5.600   4.263 -4.6160 -0.1813  0.4592
  487MOL0     H64244   2.624   5.622   4.032 -1.1274  2.1237 -3.3723
  487MOL0     H64245   2.672   5.784   4.025 -0.6560  2.5806  1.0883
  487MOL0     H64246   2.289   5.588   4.128  0.4129  2.2723  1.5171
  487MOL0     H64247   2.095   5.579   3.981  1.7250 -1.0444 -0.1700
  487MOL0     H64248   1.904   5.401   3.619 -1.4306 -4.4435 -4.0865
  487MOL0     H64249   1.721   5.362   3.474 -0.1081  0.0596 -0.6342
  487MOL0     H64250   1.433   5.544   3.251  0.6657 -0.1734 -0.4185
  487MOL0     H64251   1.514   5.675   3.344 -0.0829  1.8411  2.3232
  487MOL0     H64252   1.268   5.724   3.386 -2.6586 -0.6180  1.5978
  487MOL0     H64253   1.318   5.638   3.532 -0.5832 -0.8813 -0.7794
  487MOL0     H64254   1.158   5.567   3.276 -2.2248  0.3555  0.7404
  487MOL0     H64255   1.092   5.566   3.431 -0.2441  0.7952  0.9313
  487MOL0     H64256   1.253   5.352   3.281  0.4208 -2.8747  1.8451
  487MOL0     H64257   1.281   5.355   3.438  2.0668 -0.0213 -2.6700
  487MOL0     H64258   1.017   5.347   3.296  1.8653  2.8381 -0.8916
  487MOL0     H64259   1.012   5.338   3.470 -0.7921  1.3405  0.4632
  487MOL0     H64260   0.995   5.129   3.429 -1.3704  0.0708 -2.7604
  487MOL0     H64261   1.155   5.151   3.486 -1.4305  0.6413  2.2925
  487MOL0     H64262   1.038   5.055   3.227 -2.6848  3.3655  0.1265
  487MOL0     H64263   1.190   5.164   3.208  0.8175 -2.7013 -1.9807
  487MOL0     H64264   1.314   4.997   3.355  0.0563 -1.6344 -0.5532
  487MOL0     H64265   1.258   4.930   3.194  0.0652 -1.7836 -0.1857
  487MOL0     H64266   1.540   5.721   3.573 -0.9817 -1.1874  2.5561
  487MOL0     H64267   1.730   5.784   3.718  2.2328  1.1152 -2.7874
  487MOL0     H64268   2.282   5.858   3.721 -2.8461  3.9878  2.9210
  487MOL0     H64269   2.474   5.881   3.889  1.6812 -0.4547 -1.9883
  487MOL0     H64270   3.100   5.748   5.094 -2.6463 -0.6276  1.9404
  487MOL0     H64271   3.259   5.919   5.005 -1.7522  1.0434 -0.3469
  487MOL0     H64272   3.475   6.110   4.887  1.7240 -0.2925 -1.8167
  487MOL0     H64273   3.633   6.174   4.733  1.5584 -0.0705 -0.1429
  487MOL0     H64274   3.986   6.183   4.890  1.9667  4.1917  0.0092
  487MOL0     H64275   4.061   6.215   4.739 -0.5245 -2.1771 -1.0884
  487MOL0     H64276   3.984   5.964   4.763  1.0028 -1.0275 -3.1349
  487MOL0     H64277   3.817   6.028   4.766 -0.9003  2.3228 -1.5394
  487MOL0     H64278   4.030   6.064   4.537  1.5878 -3.1203 -0.1431
  487MOL0     H64279   3.855   6.099   4.541  1.5414  1.6961  1.4177
  487MOL0     H64280   3.908   5.866   4.423 -0.7960  0.5143  0.1352
  487MOL0     H64281   3.953   5.817   4.591  1.8807  0.4594  0.1427
  487MOL0     H64282   3.527   5.892   4.604  0.6224  1.4641 -2.4139
  487MOL0     H64283   3.876   6.373   5.029 -1.1576 -0.4793  0.9963
  487MOL0     H64284   3.687   6.340   5.183 -1.0882 -0.7030 -0.1167
  488MOL0     O64285   0.519   1.837   6.080  0.1175  0.1210  0.2257
  488MOL0     C64286   0.405   1.809   6.062  1.0509 -1.0153 -0.8459
  488MOL0     O64287   0.343   1.762   5.955 -0.1912 -0.3737  0.0410
  488MOL0     C64288   0.420   1.723   5.855 -1.0837  0.8559  0.9004
  488MOL0     C64289   0.465   1.804   5.749  0.0650 -0.1447 -0.6293
  488MOL0     C64290   0.557   1.752   5.662  0.4748  0.2449  1.4143
  488MOL0     C64291   0.593   1.620   5.658 -0.6788  0.4012 -0.4605
  488MOL0     O64292   0.690   1.565   5.569 -0.2364 -0.2449 -0.3001
  488MOL0     C64293   0.713   1.643   5.451  0.0427  0.2416  0.4036
  488MOL0     C64294   0.819   1.578   5.366  0.4132 -0.4212 -0.8948
  488MOL0     C64295   0.839   1.647   5.236 -0.1724  0.1101 -0.4311
  488MOL0     C64296   0.740   1.594   5.131  0.4391 -0.3404  0.2569
  488MOL0     C64297   0.744   1.679   5.007  0.5112 -0.3962 -0.5785
  488MOL0     C64298   0.697   1.612   4.879 -0.6518 -0.6723  0.2152
  488MOL0     C64299   0.659   1.703   4.767  0.1885 -0.1628  0.7570
  488MOL0     C64300   0.780   1.739   4.682 -0.2191 -0.5758 -0.8651
  488MOL0     N64301   0.743   1.835   4.576 -0.3043 -0.0589  0.1523
  488MOL0     C64302   0.713   1.972   4.588 -0.5955  0.3478 -0.0981
  488MOL0     C64303   0.687   2.024   4.464 -0.3383  0.8340  0.1925
  488MOL0     C64304   0.647   2.163   4.431 -0.8140  0.5000  0.0264
  488MOL0     C64305   0.752   2.244   4.359 -0.4127  0.1842 -0.4884
  488MOL0     C64306   0.858   2.292   4.446  0.1171  0.4474 -0.8183
  488MOL0     C64307   0.841   2.425   4.518 -0.4708  1.0444  0.7497
  488MOL0     O64308   0.791   2.401   4.646  0.7826 -0.1931 -0.6020
  488MOL0     C64309   0.789   2.516   4.725 -0.3305 -0.3719 -0.3886
  488MOL0     C64310   0.913   2.551   4.796  0.7668  0.5539  0.7391
  488MOL0     C64311   0.911   2.665   4.877  0.2571 -1.3038  0.2194
  488MOL0     C64312   0.795   2.745   4.883  0.2208  0.1865 -0.2065
  488MOL0     C64313   0.797   2.873   4.958  0.4838 -1.2668 -0.9190
  488MOL0     O64314   0.900   2.895   5.053  0.1029 -0.6977  0.4196
  488MOL0     C64315   0.923   3.029   5.090 -0.2989 -0.2000  0.3526
  488MOL0     C64316   0.956   3.133   4.997  0.0347 -0.1622 -0.2780
  488MOL0     C64317   0.953   3.268   5.035 -0.4073 -0.5200  0.2816
  488MOL0     C64318   0.951   3.302   5.170  0.2086  0.1099  0.1559
  488MOL0     O64319   0.955   3.434   5.213  0.1211 -0.0486 -0.3279
  488MOL0     C64320   0.859   3.521   5.170  0.1194 -0.1145  0.2034
  488MOL0     C64321   0.720   3.459   5.208 -0.4035  0.1173 -0.0186
  488MOL0     C64322   0.614   3.566   5.207  0.1180 -0.1210 -0.3686
  488MOL0     C64323   0.598   3.624   5.054 -0.6691  0.2937  1.1301
  488MOL0     C64324   0.565   3.771   5.050  0.0471  0.1018 -0.1985
  488MOL0     C64325   0.516   3.821   4.915 -0.8321 -1.2652 -0.1310
  488MOL0     C64326   0.500   3.975   4.909  0.4839 -0.0905 -0.1393
  488MOL0     C64327   0.534   4.023   4.775 -0.1621 -0.2104 -0.2470
  488MOL0    Cl64328   0.484   4.185   4.770 -0.7412  0.0051  0.1729
  488MOL0     C64329   0.941   3.196   5.266  0.2127 -0.1114  0.4981
  488MOL0     C64330   0.927   3.061   5.226 -0.6685  0.0688 -0.2028
  488MOL0     O64331   0.701   2.952   4.938 -0.7560 -0.0261  0.8761
  488MOL0     C64332   0.680   2.710   4.814  0.0286  0.5654 -0.3564
  488MOL0     C64333   0.674   2.596   4.741 -0.9989 -0.1888  0.8460
  488MOL0     N64334   0.688   1.919   4.380 -0.5324  0.2548 -0.3889
  488MOL0     N64335   0.721   1.813   4.441 -0.4298  0.2152  0.4279
  488MOL0     C64336   0.554   1.540   5.766 -0.2553  0.1384 -0.3097
  488MOL0     C64337   0.471   1.588   5.862  0.3117 -0.7395 -0.3067
  488MOL0     C64338   0.310   1.820   6.178 -0.1772 -0.6100 -0.1676
  488MOL0     C64339   0.194   1.733   6.198 -0.6746 -0.1506  0.6259
  488MOL0     C64340   0.114   1.745   6.312 -0.1513  0.1749 -0.1774
  488MOL0     C64341   0.152   1.835   6.413  0.0184  0.2213  0.5847
  488MOL0     O64342   0.063   1.832   6.519  0.2719 -0.2462  0.7019
  488MOL0     C64343   0.059   1.944   6.605  0.4467 -0.2624 -0.3419
  488MOL0     C64344  -0.067   1.923   6.692 -0.1509 -0.0470 -0.2711
  488MOL0     C64345  -0.198   1.916   6.612 -0.2034  0.4453  0.6511
  488MOL0     C64346  -0.314   1.950   6.702 -0.9654  0.9553  1.0217
  488MOL0     C64347  -0.315   1.848   6.800 -0.7017  0.8041 -0.7142
  488MOL0     C64348  -0.301   1.757   6.880 -0.3107  0.0618 -0.2698
  488MOL0     C64349   0.253   1.933   6.391 -0.0282 -0.2812  0.7562
  488MOL0     C64350   0.338   1.919   6.281 -0.2133 -0.5075 -0.4576
  488MOL0     H64351   0.445   1.910   5.741 -1.5965 -0.4781 -1.3113
  488MOL0     H64352   0.592   1.821   5.586 -1.4904 -1.8926 -1.6773
  488MOL0     H64353   0.753   1.739   5.485  2.4848 -1.5348  3.0253
  488MOL0     H64354   0.627   1.652   5.384  2.8582 -0.2677 -3.6415
  488MOL0     H64355   0.815   1.471   5.341 -0.7914  0.2691 -4.1348
  488MOL0     H64356   0.908   1.589   5.429 -1.9223  2.2939  2.2913
  488MOL0     H64357   0.942   1.633   5.200 -0.2017 -0.1554 -0.4155
  488MOL0     H64358   0.825   1.755   5.246 -4.3996 -0.2038 -1.2650
  488MOL0     H64359   0.750   1.486   5.114 -2.1287 -0.7794  1.0967
  488MOL0     H64360   0.637   1.605   5.165  0.7693  1.0462  0.8817
  488MOL0     H64361   0.845   1.720   4.993 -0.0185  1.1085 -0.1515
  488MOL0     H64362   0.681   1.764   5.035  1.9470  0.7072 -0.5819
  488MOL0     H64363   0.609   1.559   4.915  0.3884 -2.2421  0.5782
  488MOL0     H64364   0.773   1.543   4.841 -1.1655 -0.0764 -2.0446
  488MOL0     H64365   0.599   1.656   4.687  2.1510  2.2076 -2.3453
  488MOL0     H64366   0.596   1.787   4.798  0.7599  1.2060 -1.4927
  488MOL0     H64367   0.819   1.650   4.632 -0.8747 -1.3870  0.0249
  488MOL0     H64368   0.853   1.793   4.744 -3.1466  3.4883 -0.5660
  488MOL0     H64369   0.718   2.028   4.681  2.2738 -0.6364  0.4493
  488MOL0     H64370   0.618   2.226   4.515 -1.9665 -1.3888  1.1233
  488MOL0     H64371   0.555   2.151   4.373 -1.5575 -0.8267  1.4057
  488MOL0     H64372   0.701   2.323   4.304 -1.9887 -0.1905  0.3843
  488MOL0     H64373   0.803   2.186   4.281  1.6332  0.8020  0.3091
  488MOL0     H64374   0.880   2.212   4.516  1.2763  1.5226  0.0930
  488MOL0     H64375   0.951   2.303   4.388  3.5314 -0.1658  3.9276
  488MOL0     H64376   0.777   2.495   4.463  0.8711  1.9469  0.2710
  488MOL0     H64377   0.943   2.464   4.528  3.6230 -6.1683 -3.7435
  488MOL0     H64378   0.989   2.473   4.794 -0.9716 -1.1996 -0.2730
  488MOL0     H64379   1.001   2.703   4.924  0.6217 -3.5012  1.4094
  488MOL0     H64380   0.950   3.103   4.893 -0.4751 -1.5535  0.1198
  488MOL0     H64381   0.983   3.350   4.969  3.1701 -0.7170  1.4292
  488MOL0     H64382   0.874   3.538   5.063 -2.8229 -0.4692 -0.3440
  488MOL0     H64383   0.872   3.618   5.218  1.7329 -0.0071 -0.3960
  488MOL0     H64384   0.720   3.419   5.310 -1.7618  2.3493  0.9270
  488MOL0     H64385   0.698   3.374   5.142  0.1211  0.5736 -0.8011
  488MOL0     H64386   0.651   3.641   5.278  0.8055 -1.8735  1.1879
  488MOL0     H64387   0.516   3.526   5.237 -1.0875  0.8432 -2.7429
  488MOL0     H64388   0.687   3.604   4.994 -0.1605 -0.5901  2.1351
  488MOL0     H64389   0.523   3.561   5.004  1.9488 -3.3684  1.4258
  488MOL0     H64390   0.657   3.825   5.074  0.6837  0.9090 -3.8691
  488MOL0     H64391   0.484   3.795   5.120  0.5148  0.6822  0.1608
  488MOL0     H64392   0.424   3.767   4.894  0.1871 -3.6143  1.0842
  488MOL0     H64393   0.591   3.783   4.845  1.0450  2.1783 -0.2404
  488MOL0     H64394   0.394   3.991   4.930  0.8055  0.2003  1.3657
  488MOL0     H64395   0.572   4.013   4.981  1.2667 -1.6291 -0.0620
  488MOL0     H64396   0.477   3.973   4.696 -0.5504 -1.1251  0.5930
  488MOL0     H64397   0.642   4.020   4.757 -0.2777 -0.6440 -0.9095
  488MOL0     H64398   0.924   3.233   5.367 -1.5559  4.3260 -1.1453
  488MOL0     H64399   0.924   2.988   5.307 -0.8670  2.8758  2.5314
  488MOL0     H64400   0.594   2.775   4.809  0.8817  1.6225 -3.3633
  488MOL0     H64401   0.590   2.578   4.675 -0.6997  0.9106  0.1523
  488MOL0     H64402   0.611   1.448   5.773  0.0259  0.1913 -1.6468
  488MOL0     H64403   0.448   1.516   5.941 -1.0351 -2.3506 -2.0804
  488MOL0     H64404   0.183   1.658   6.120  0.5380  0.6271 -0.3217
  488MOL0     H64405   0.032   1.677   6.332  0.1379  0.3381  1.7814
  488MOL0     H64406   0.047   2.038   6.551 -1.4796  0.5009  1.2815
  488MOL0     H64407   0.149   1.948   6.666  1.6309  1.4593 -2.0817
  488MOL0     H64408  -0.055   1.840   6.762  0.3851  0.6635  0.4995
  488MOL0     H64409  -0.072   2.019   6.745  3.0239 -0.5299  1.1079
  488MOL0     H64410  -0.207   1.811   6.583 -0.2406  0.9393 -1.3050
  488MOL0     H64411  -0.188   1.981   6.524  1.3594 -1.1681 -0.4186
  488MOL0     H64412  -0.306   2.047   6.751  2.8423  1.5614 -0.4656
  488MOL0     H64413  -0.403   1.940   6.639  0.2344 -0.0874 -0.5773
  488MOL0     H64414  -0.284   1.677   6.949  1.1189  1.8928  1.6453
  488MOL0     H64415   0.269   2.014   6.461 -1.3661  2.4799 -1.9121
  488MOL0     H64416   0.427   1.981   6.272 -0.1225 -0.6270 -0.3785
  489MOL0     O64417   2.644   0.287   1.282 -0.0467  0.1151 -0.2254
  489MOL0     C64418   2.582   0.200   1.226  0.4736  0.1701  0.4085
  489MOL0     O64419   2.629   0.076   1.184 -0.5473  0.3606 -0.7424
  489MOL0     C64420   2.754   0.040   1.204 -0.0115  0.5434  0.2656
  489MOL0     C64421   2.769  -0.092   1.243  0.0390  0.0989  0.7500
  489MOL0     C64422   2.886  -0.161   1.261  0.0579 -0.1563 -0.7338
  489MOL0     C64423   3.008  -0.075   1.264 -0.3397  0.5182  0.4815
  489MOL0     O64424   3.135  -0.111   1.282 -0.3267  0.6733 -0.7446
  489MOL0     C64425   3.192  -0.240   1.229  0.2078 -0.3941  0.0179
  489MOL0     C64426   3.280  -0.305   1.341 -0.3289 -0.4012 -0.7208
  489MOL0     C64427   3.189  -0.329   1.463  0.3228  0.4074 -0.2018
  489MOL0     C64428   3.258  -0.414   1.564  0.8347  0.4786 -0.2160
  489MOL0     C64429   3.157  -0.429   1.681 -1.2421  0.2824 -0.6697
  489MOL0     C64430   3.207  -0.501   1.810  0.4040  0.1788  0.2349
  489MOL0     C64431   3.327  -0.439   1.875  0.6633 -0.0674 -0.8197
  489MOL0     C64432   3.315  -0.296   1.905  0.3384 -0.6005  0.6290
  489MOL0     N64433   3.376  -0.267   2.037  1.5529 -0.2667  0.1012
  489MOL0     C64434   3.506  -0.247   2.061  0.4567 -0.3092  1.0754
  489MOL0     C64435   3.517  -0.217   2.190 -1.1049  0.3255  0.6993
  489MOL0     C64436   3.648  -0.195   2.270 -0.0911  0.9973 -0.0940
  489MOL0     C64437   3.714  -0.325   2.322  0.8344 -0.8227  0.3645
  489MOL0     C64438   3.832  -0.365   2.236  0.2528  0.2816 -0.5613
  489MOL0     C64439   3.886  -0.502   2.279 -0.4273 -0.5078  0.8097
  489MOL0     O64440   3.979  -0.534   2.174  0.3319  0.1381 -0.8882
  489MOL0     C64441   4.109  -0.490   2.185 -0.9644 -0.0960  0.4475
  489MOL0     C64442   4.202  -0.564   2.111 -0.6747  0.2970 -0.3072
  489MOL0     C64443   4.337  -0.550   2.129  0.1404  1.2852 -0.1060
  489MOL0     C64444   4.383  -0.478   2.237  0.0184 -0.1073 -0.0822
  489MOL0     C64445   4.527  -0.468   2.257  0.3702  0.1670 -0.1336
  489MOL0     O64446   4.606  -0.556   2.183  0.7815  0.0141 -0.2420
  489MOL0     C64447   4.748  -0.546   2.173 -0.5076 -0.0776 -0.1049
  489MOL0     C64448   4.833  -0.482   2.269  0.3299 -0.1712  0.0350
  489MOL0     C64449   4.968  -0.475   2.247 -0.0933 -0.0333  0.3729
  489MOL0     C64450   5.024  -0.522   2.135  0.0569 -0.4277 -0.6486
  489MOL0     O64451   5.161  -0.498   2.132 -0.2154  0.1383 -0.6538
  489MOL0     C64452   5.230  -0.547   2.018 -0.0524 -0.4302  0.0749
  489MOL0     C64453   5.383  -0.521   2.027 -0.5515  0.3886  0.7806
  489MOL0     C64454   5.426  -0.381   2.056 -0.2794  0.1667  0.8594
  489MOL0     C64455   5.406  -0.346   2.207 -0.1305 -0.3550  0.4200
  489MOL0     C64456   5.496  -0.216   2.225  0.7226 -0.2718 -0.3878
  489MOL0     C64457   5.484  -0.149   2.360 -0.3481 -0.4088  0.1868
  489MOL0     C64458   5.570  -0.027   2.374  0.2773 -0.1747 -0.7095
  489MOL0     C64459   5.520   0.074   2.486  0.0858  0.7287 -1.0133
  489MOL0    Cl64460   5.347   0.112   2.467 -0.0394 -0.0791 -0.3626
  489MOL0     C64461   4.942  -0.594   2.046  0.3846 -0.5431  0.4835
  489MOL0     C64462   4.799  -0.607   2.066 -0.1816 -0.7582  0.7298
  489MOL0     O64463   4.568  -0.384   2.332 -0.2253  0.0126 -0.0541
  489MOL0     C64464   4.293  -0.404   2.321  0.1191 -0.8234 -0.4889
  489MOL0     C64465   4.158  -0.414   2.299  0.3751  0.8849  0.1132
  489MOL0     N64466   3.390  -0.211   2.245 -0.2004  0.1947  0.5111
  489MOL0     N64467   3.307  -0.236   2.145  0.9896  0.0643 -0.0100
  489MOL0     C64468   2.995   0.058   1.238  0.6638  0.3990 -0.0765
  489MOL0     C64469   2.872   0.116   1.196 -0.3788 -0.9577 -0.1105
  489MOL0     C64470   2.437   0.227   1.241 -0.4475  0.1183 -0.1588
  489MOL0     C64471   2.353   0.131   1.196 -0.7658  1.1713 -0.4277
  489MOL0     C64472   2.209   0.155   1.202 -0.7907  0.3053  0.0948
  489MOL0     C64473   2.158   0.268   1.267 -0.3129 -0.3003 -0.7437
  489MOL0     O64474   2.023   0.284   1.252 -0.3708 -0.4661 -0.5038
  489MOL0     C64475   1.973   0.410   1.289 -0.5783 -0.0582  0.4179
  489MOL0     C64476   1.821   0.393   1.287  0.2699  0.3261 -1.3490
  489MOL0     C64477   1.762   0.458   1.409 -0.2717  0.0512  0.0394
  489MOL0     C64478   1.616   0.413   1.435  0.0115 -0.4697 -0.6831
  489MOL0     C64479   1.522   0.426   1.313  0.1838  0.3556 -0.2818
  489MOL0     C64480   1.435   0.419   1.227 -0.6313  0.6827  0.7281
  489MOL0     C64481   2.253   0.346   1.331 -0.7203  0.4802  0.7198
  489MOL0     C64482   2.393   0.328   1.314  0.3722  0.5746 -0.2624
  489MOL0     H64483   2.680  -0.154   1.244 -0.8812  1.3555  0.0095
  489MOL0     H64484   2.888  -0.262   1.298 -2.2515  0.6874  2.0359
  489MOL0     H64485   3.244  -0.230   1.133  1.0222 -1.2701  0.3496
  489MOL0     H64486   3.104  -0.304   1.223  0.3122 -0.4190 -1.7095
  489MOL0     H64487   3.362  -0.239   1.373 -2.7378  1.6994  1.6177
  489MOL0     H64488   3.319  -0.403   1.311 -0.2090 -0.8038  0.6457
  489MOL0     H64489   3.096  -0.376   1.430  1.1374 -0.5748 -1.1948
  489MOL0     H64490   3.142  -0.247   1.518 -2.1535 -2.1750  1.8379
  489MOL0     H64491   3.282  -0.516   1.532 -1.0404  0.2386 -0.9881
  489MOL0     H64492   3.349  -0.363   1.597  1.3055  1.7718 -3.2141
  489MOL0     H64493   3.073  -0.490   1.648 -0.7225 -0.4222 -0.7240
  489MOL0     H64494   3.113  -0.332   1.705  1.3869  2.2272 -2.9825
  489MOL0     H64495   3.212  -0.607   1.786  1.1435  0.6401 -1.8128
  489MOL0     H64496   3.128  -0.484   1.884  0.8498  2.0624  0.3393
  489MOL0     H64497   3.340  -0.491   1.970  0.1113 -3.1149 -2.2804
  489MOL0     H64498   3.418  -0.470   1.823  1.8755 -1.5228  1.9333
  489MOL0     H64499   3.209  -0.277   1.928  0.4467 -1.0253  1.5733
  489MOL0     H64500   3.345  -0.238   1.818 -1.7777 -1.2227 -0.5967
  489MOL0     H64501   3.595  -0.253   2.000 -1.0574 -0.0069 -1.2962
  489MOL0     H64502   3.631  -0.117   2.345 -0.5699  1.4531 -0.6668
  489MOL0     H64503   3.726  -0.146   2.211  4.3881 -0.5610  3.8370
  489MOL0     H64504   3.663  -0.422   2.324  0.8938 -0.8669  3.0211
  489MOL0     H64505   3.745  -0.315   2.427 -3.3217 -1.1675  1.8105
  489MOL0     H64506   3.799  -0.371   2.132 -0.2181  0.2226 -0.4067
  489MOL0     H64507   3.917  -0.295   2.235 -0.3501  1.0965  1.2918
  489MOL0     H64508   3.812  -0.582   2.284  1.6098 -2.4765  0.7297
  489MOL0     H64509   3.928  -0.494   2.380 -3.1762 -1.5028  2.1394
  489MOL0     H64510   4.169  -0.623   2.026  0.3437 -0.5240 -0.1527
  489MOL0     H64511   4.398  -0.621   2.074 -0.4184  0.9374 -0.2877
  489MOL0     H64512   4.781  -0.448   2.358 -1.2903  0.4373 -1.1034
  489MOL0     H64513   5.026  -0.440   2.332 -0.5782  1.3007  0.1690
  489MOL0     H64514   5.197  -0.482   1.936 -2.0308  0.5158  1.5709
  489MOL0     H64515   5.214  -0.655   2.006 -2.9717  0.0189 -0.9228
  489MOL0     H64516   5.422  -0.563   1.934 -3.0052  2.4670 -1.3444
  489MOL0     H64517   5.416  -0.584   2.110  0.4124  0.7329  0.6742
  489MOL0     H64518   5.362  -0.319   1.993  0.2507 -1.9420 -1.9342
  489MOL0     H64519   5.531  -0.386   2.026 -0.7047 -0.6353 -0.5557
  489MOL0     H64520   5.304  -0.311   2.225  0.5181  2.4005 -0.7989
  489MOL0     H64521   5.433  -0.433   2.269  0.6820  1.0845  2.1795
  489MOL0     H64522   5.487  -0.140   2.147  0.0762 -0.7571 -0.7951
  489MOL0     H64523   5.595  -0.262   2.222  0.4039 -0.9965  0.0184
  489MOL0     H64524   5.526  -0.219   2.433  0.4299 -0.8341 -0.6399
  489MOL0     H64525   5.377  -0.128   2.365 -0.9643 -2.1601 -2.8983
  489MOL0     H64526   5.678  -0.048   2.373  0.4914  0.8797 -0.6505
  489MOL0     H64527   5.565   0.028   2.279 -0.2144  3.2632  1.1477
  489MOL0     H64528   5.589   0.159   2.490 -0.1376  0.8966 -0.7038
  489MOL0     H64529   5.540   0.020   2.579  0.8900 -0.2296 -1.7187
  489MOL0     H64530   4.980  -0.662   1.970  0.9945  0.1108  0.1858
  489MOL0     H64531   4.740  -0.666   1.996 -1.9287 -0.6721  2.0726
  489MOL0     H64532   4.324  -0.343   2.406  2.7169 -3.0097  0.2800
  489MOL0     H64533   4.092  -0.351   2.359  1.8558  0.9032  1.7994
  489MOL0     H64534   3.087   0.115   1.241  1.5230 -0.9853  0.3309
  489MOL0     H64535   2.863   0.222   1.177  1.1984 -0.2679  2.4711
  489MOL0     H64536   2.394   0.039   1.156  0.0563  0.8249  1.1223
  489MOL0     H64537   2.145   0.087   1.145 -0.5732  0.6647 -0.5944
  489MOL0     H64538   2.013   0.484   1.219 -0.8653  1.0302  1.3840
  489MOL0     H64539   2.013   0.431   1.389  1.0485  1.7425 -0.5516
  489MOL0     H64540   1.762   0.418   1.199  0.1315 -3.7518 -2.6038
  489MOL0     H64541   1.802   0.288   1.312 -2.7590  0.9793 -0.4550
  489MOL0     H64542   1.759   0.564   1.381  1.6068  0.0330 -0.3082
  489MOL0     H64543   1.818   0.436   1.500 -1.4178  2.3032  1.3874
  489MOL0     H64544   1.611   0.306   1.456  0.2048 -0.5756 -1.1728
  489MOL0     H64545   1.569   0.477   1.511 -2.6205 -2.2780 -0.6552
  489MOL0     H64546   1.359   0.398   1.155  1.5364 -0.8048 -1.3060
  489MOL0     H64547   2.220   0.416   1.407  1.4633  0.9694  1.2974
  489MOL0     H64548   2.453   0.396   1.373  0.9575 -1.9823  2.3204
  490MOL0     O64549   8.838   4.342   7.205  0.0511 -0.3057  0.6505
  490MOL0     C64550   8.743   4.292   7.269 -0.2757 -0.0981 -0.7722
  490MOL0     O64551   8.659   4.200   7.215  0.0554  0.0369 -0.0880
  490MOL0     C64552   8.631   4.187   7.082  0.6466 -0.2206  0.1505
  490MOL0     C64553   8.587   4.065   7.032 -0.2235 -0.0577  0.0180
  490MOL0     C64554   8.553   4.048   6.898  0.0562  0.2714 -0.0158
  490MOL0     C64555   8.563   4.152   6.806 -0.2801  0.0437 -0.0152
  490MOL0     O64556   8.540   4.136   6.675 -0.1356 -0.0193 -0.6814
  490MOL0     C64557   8.568   4.013   6.607  0.2043 -0.3342 -0.9713
  490MOL0     C64558   8.564   4.042   6.453  0.7238  0.4892  0.4549
  490MOL0     C64559   8.430   4.090   6.391 -0.5134 -1.1273  0.0261
  490MOL0     C64560   8.326   3.986   6.380 -0.7848 -0.3807 -1.2983
  490MOL0     C64561   8.210   4.022   6.292  0.8541  0.2113 -0.6614
  490MOL0     C64562   8.103   3.914   6.303 -0.0614 -0.0234 -0.8454
  490MOL0     C64563   8.003   3.918   6.192 -0.0523  0.4126 -0.1521
  490MOL0     C64564   7.914   4.043   6.178  0.2139  0.3045 -0.3875
  490MOL0     N64565   7.813   4.073   6.282 -0.0883 -0.3955 -0.2098
  490MOL0     C64566   7.689   4.015   6.296 -0.1966 -0.0596 -0.2199
  490MOL0     C64567   7.625   4.086   6.387  0.0522 -1.6397 -0.7214
  490MOL0     C64568   7.487   4.058   6.426  0.2620  0.2910  1.1622
  490MOL0     C64569   7.477   3.949   6.534 -0.1308  0.6352  0.4384
  490MOL0     C64570   7.342   3.962   6.618  0.0879 -0.2163 -0.3050
  490MOL0     C64571   7.222   3.936   6.525  0.2300 -0.0337 -0.0639
  490MOL0     O64572   7.101   3.911   6.602 -0.4243 -0.0737 -0.4436
  490MOL0     C64573   7.012   4.016   6.625 -0.1636  0.7805 -0.6967
  490MOL0     C64574   7.012   4.151   6.586  1.0358  0.9210  0.0204
  490MOL0     C64575   6.904   4.237   6.617  0.4554  0.4482 -0.5252
  490MOL0     C64576   6.791   4.188   6.671 -0.6275 -0.0188  0.2820
  490MOL0     C64577   6.674   4.274   6.678  0.5365 -0.0737 -0.1017
  490MOL0     O64578   6.571   4.230   6.761 -0.2740  0.7486  0.4282
  490MOL0     C64579   6.475   4.316   6.789  0.6555 -0.5946 -0.6369
  490MOL0     C64580   6.498   4.406   6.893 -0.5808 -0.3436 -0.7120
  490MOL0     C64581   6.402   4.496   6.934 -1.1417 -0.0534 -1.0468
  490MOL0     C64582   6.282   4.507   6.858 -0.7713 -0.2889 -0.9752
  490MOL0     O64583   6.208   4.612   6.898  0.4113 -0.6517 -0.6677
  490MOL0     C64584   6.170   4.705   6.790 -0.2239 -0.0757  0.2334
  490MOL0     C64585   6.077   4.822   6.840 -0.1139  0.1989  0.2617
  490MOL0     C64586   6.074   4.948   6.746  0.0405 -0.0145 -0.0112
  490MOL0     C64587   6.209   5.024   6.770 -0.3114 -0.5201  0.5931
  490MOL0     C64588   6.190   5.162   6.709 -0.3042  0.1527  0.1483
  490MOL0     C64589   6.265   5.191   6.575  0.8059  0.2197  0.1073
  490MOL0     C64590   6.239   5.329   6.511 -0.4796  0.9054 -1.0521
  490MOL0     C64591   6.089   5.341   6.478  0.2169  0.8984 -0.1192
  490MOL0    Cl64592   6.062   5.483   6.354  0.2130  0.1629 -0.1166
  490MOL0     C64593   6.257   4.426   6.742 -0.5573  1.0532 -0.2611
  490MOL0     C64594   6.353   4.325   6.714 -1.4926 -0.8646  0.3378
  490MOL0     O64595   6.686   4.392   6.638 -0.9624 -0.4152  0.0353
  490MOL0     C64596   6.791   4.056   6.720 -0.2962 -0.2327 -0.3819
  490MOL0     C64597   6.895   3.974   6.695  0.1651  0.7648  0.3835
  490MOL0     N64598   7.712   4.194   6.424  0.8532 -0.0960 -0.8798
  490MOL0     N64599   7.825   4.175   6.368  0.8064 -0.2289 -0.1982
  490MOL0     C64600   8.604   4.282   6.854 -0.2109 -0.3546 -0.4018
  490MOL0     C64601   8.638   4.295   6.992 -0.3232 -0.0448  0.3246
  490MOL0     C64602   8.724   4.316   7.413 -0.3119 -1.2003 -0.2002
  490MOL0     C64603   8.819   4.397   7.477 -0.5787  0.0524 -0.0663
  490MOL0     C64604   8.795   4.431   7.603  0.4584 -1.3370  0.6502
  490MOL0     C64605   8.675   4.392   7.674  0.0803  0.5663 -0.3599
  490MOL0     O64606   8.657   4.447   7.805  0.7568  0.6502  0.4726
  490MOL0     C64607   8.528   4.464   7.859 -0.2270 -0.2347  0.8304
  490MOL0     C64608   8.512   4.567   7.983 -0.0501  0.2000  0.7026
  490MOL0     C64609   8.562   4.707   7.934 -0.2577  0.8157  0.4094
  490MOL0     C64610   8.529   4.819   8.036  1.2647 -1.3119 -0.5952
  490MOL0     C64611   8.615   4.814   8.157  0.0424 -0.4251 -0.0337
  490MOL0     C64612   8.682   4.837   8.249 -0.1681  1.1320 -0.6480
  490MOL0     C64613   8.578   4.318   7.610  0.2856 -0.3252  1.3555
  490MOL0     C64614   8.610   4.267   7.483 -0.7600 -0.1223 -0.4184
  490MOL0     H64615   8.586   3.977   7.096  3.4663 -0.0592  0.3010
  490MOL0     H64616   8.515   3.951   6.867  1.2235 -1.2154  2.8109
  490MOL0     H64617   8.503   3.932   6.643  1.0141  0.9399  4.1039
  490MOL0     H64618   8.667   3.975   6.631  0.4002 -0.5640 -2.0852
  490MOL0     H64619   8.594   3.953   6.397  2.3888  1.6502 -0.5892
  490MOL0     H64620   8.639   4.121   6.440  0.0215  0.8791 -1.7728
  490MOL0     H64621   8.442   4.140   6.295 -0.8436  0.1061  0.5943
  490MOL0     H64622   8.386   4.168   6.454 -1.7111 -0.1611 -1.9241
  490MOL0     H64623   8.372   3.901   6.329 -1.4569 -0.3746 -1.9264
  490MOL0     H64624   8.297   3.964   6.483  1.9242  1.0353 -0.1230
  490MOL0     H64625   8.239   4.030   6.187  1.8112 -1.6399 -0.5819
  490MOL0     H64626   8.169   4.119   6.319 -2.2187 -0.9116 -0.9274
  490MOL0     H64627   8.062   3.911   6.405  2.0728 -1.3902  0.0414
  490MOL0     H64628   8.154   3.821   6.276 -0.5091  0.0458 -1.9908
  490MOL0     H64629   8.049   3.897   6.095 -1.0647 -0.4659 -0.4653
  490MOL0     H64630   7.943   3.829   6.211  3.1484 -2.1110 -1.0853
  490MOL0     H64631   7.851   4.029   6.089  1.5113  0.8291 -1.4356
  490MOL0     H64632   7.974   4.133   6.156  0.4635 -0.0903 -1.3599
  490MOL0     H64633   7.631   3.939   6.245  1.3035 -1.7969  0.5151
  490MOL0     H64634   7.426   4.036   6.338  3.8933  0.7279 -1.7087
  490MOL0     H64635   7.445   4.145   6.477 -1.9998 -0.9628  1.6287
  490MOL0     H64636   7.569   3.954   6.593  2.6646 -2.4097 -3.1274
  490MOL0     H64637   7.488   3.850   6.489  0.7737  0.6090  0.6904
  490MOL0     H64638   7.344   3.905   6.711 -3.2866 -1.2702 -0.7569
  490MOL0     H64639   7.320   4.061   6.658  0.8941  0.2260 -0.9124
  490MOL0     H64640   7.242   3.853   6.457  0.5873  1.8146 -2.3256
  490MOL0     H64641   7.214   4.035   6.479  2.2453  1.9159  3.3234
  490MOL0     H64642   7.100   4.185   6.531  1.1706 -2.3098 -2.0707
  490MOL0     H64643   6.909   4.338   6.579  0.8275  0.7725  0.3602
  490MOL0     H64644   6.594   4.406   6.943  0.9172  1.2195 -3.3998
  490MOL0     H64645   6.413   4.568   7.014  0.1773 -0.0791 -1.1742
  490MOL0     H64646   6.106   4.643   6.726  2.7275 -2.8635 -0.2843
  490MOL0     H64647   6.257   4.743   6.736 -1.1206 -0.7388 -1.7539
  490MOL0     H64648   6.117   4.853   6.937 -1.0644  1.2137  0.3533
  490MOL0     H64649   5.978   4.776   6.854 -0.1203 -0.8974 -2.7527
  490MOL0     H64650   5.987   5.004   6.782 -0.5888 -3.1202  4.0049
  490MOL0     H64651   6.060   4.918   6.642 -1.4150  0.5225  0.0066
  490MOL0     H64652   6.229   5.022   6.877  1.7111  1.3618  0.3366
  490MOL0     H64653   6.284   4.970   6.712 -1.2365 -1.4006  0.1966
  490MOL0     H64654   6.232   5.219   6.793  5.4772 -1.8409 -0.9230
  490MOL0     H64655   6.083   5.184   6.704 -0.7041 -0.7490  2.7415
  490MOL0     H64656   6.212   5.114   6.518 -2.4901  0.1985  2.8590
  490MOL0     H64657   6.373   5.176   6.580  0.6009 -1.6653  5.8607
  490MOL0     H64658   6.257   5.418   6.571 -2.3626  1.2887 -1.0077
  490MOL0     H64659   6.301   5.330   6.421  1.4481  0.2281  0.2078
  490MOL0     H64660   6.027   5.352   6.567  0.8328 -0.9348  0.5799
  490MOL0     H64661   6.062   5.249   6.425 -0.4249  0.7475  0.4515
  490MOL0     H64662   6.173   4.468   6.687 -1.7340 -0.0360  0.6471
  490MOL0     H64663   6.339   4.263   6.625 -1.7288 -1.1402  0.5662
  490MOL0     H64664   6.701   4.018   6.768 -0.7253 -0.3605 -1.2860
  490MOL0     H64665   6.887   3.872   6.731  0.5657  0.7161  0.3420
  490MOL0     H64666   8.612   4.374   6.797 -1.7480  0.7167  1.0185
  490MOL0     H64667   8.662   4.396   7.024 -0.1181  0.7776 -2.2094
  490MOL0     H64668   8.899   4.444   7.422 -1.2253  0.9824 -0.2448
  490MOL0     H64669   8.870   4.489   7.655  1.4840  0.8987 -2.9871
  490MOL0     H64670   8.498   4.364   7.891 -1.8619  0.8309  2.8767
  490MOL0     H64671   8.452   4.491   7.784  0.8348 -2.4866 -1.2015
  490MOL0     H64672   8.405   4.564   8.005 -0.2992  2.4001  0.0121
  490MOL0     H64673   8.563   4.535   8.075 -0.5929 -2.8852  0.0578
  490MOL0     H64674   8.524   4.730   7.834  1.2498 -0.9117 -0.6225
  490MOL0     H64675   8.670   4.711   7.923 -0.5274  2.4183 -2.3918
  490MOL0     H64676   8.543   4.912   7.980 -1.1818 -1.1671 -1.0492
  490MOL0     H64677   8.423   4.818   8.064  1.3208  0.5811 -0.2224
  490MOL0     H64678   8.738   4.877   8.331 -1.9964  3.8608 -0.5685
  490MOL0     H64679   8.475   4.306   7.645 -0.6746 -0.8600 -1.4036
  490MOL0     H64680   8.519   4.214   7.455 -1.8523  1.2795  0.3458
  491MOL0     O64681  11.331   4.125   9.340  0.0775  0.4153  0.4510
  491MOL0     C64682  11.253   4.206   9.302  0.4915 -0.1866 -0.3144
  491MOL0     O64683  11.159   4.277   9.385 -0.0338  0.0963 -0.1861
  491MOL0     C64684  11.142   4.255   9.523 -0.9191  0.6334  0.6454
  491MOL0     C64685  11.191   4.148   9.598 -0.6340  1.0056 -1.3105
  491MOL0     C64686  11.160   4.127   9.732 -0.0289 -1.0233 -0.0335
  491MOL0     C64687  11.090   4.228   9.805 -0.3207  0.0314  0.1755
  491MOL0     O64688  11.040   4.207   9.931  0.9063  0.2453 -0.2446
  491MOL0     C64689  11.040   4.071   9.978  0.1602 -0.4322  0.7504
  491MOL0     C64690  10.964   4.085  10.112  0.5768 -0.5204 -0.3112
  491MOL0     C64691  10.905   3.949  10.160  0.1120 -0.1044  0.3599
  491MOL0     C64692  10.801   3.973  10.266  0.0260  0.7802  0.5789
  491MOL0     C64693  10.798   3.848  10.353 -0.5869 -0.6818  0.1896
  491MOL0     C64694  10.904   3.849  10.458  0.1253  0.3786  0.0396
  491MOL0     C64695  10.865   3.746  10.563 -0.4271  0.3750 -0.6178
  491MOL0     C64696  10.972   3.744  10.677  0.0511  0.7704  0.3445
  491MOL0     N64697  10.932   3.649  10.781 -0.7434  0.5823  0.4071
  491MOL0     C64698  10.918   3.516  10.773  0.1243 -0.2877  0.5701
  491MOL0     C64699  10.869   3.474  10.893 -0.0602  1.0992  0.7302
  491MOL0     C64700  10.894   3.331  10.939 -0.0843  0.4090  0.0744
  491MOL0     C64701  10.800   3.220  10.883  0.4981 -1.1107  0.6206
  491MOL0     C64702  10.829   3.087  10.938 -0.2508  0.2524 -0.4557
  491MOL0     C64703  10.735   2.981  10.886 -0.3569 -0.0647  0.7274
  491MOL0     O64704  10.600   3.005  10.936  1.3468 -0.4881  0.0569
  491MOL0     C64705  10.499   2.914  10.901  0.1806  0.9048 -0.8668
  491MOL0     C64706  10.433   2.845  11.004 -0.0197 -0.0378 -0.7973
  491MOL0     C64707  10.346   2.745  10.967  0.4579  0.5908  0.2977
  491MOL0     C64708  10.317   2.708  10.832  0.4057  0.0712 -0.3191
  491MOL0     C64709  10.221   2.600  10.800 -0.3420  1.0411 -0.7868
  491MOL0     O64710  10.207   2.500  10.890  0.1444  0.6552  1.2402
  491MOL0     C64711  10.103   2.419  10.883  0.4447  1.1368  0.2886
  491MOL0     C64712  10.101   2.318  10.787 -0.4755  0.0502 -0.0400
  491MOL0     C64713   9.989   2.228  10.788 -0.4569  0.1834  0.8103
  491MOL0     C64714   9.877   2.252  10.875  0.5473 -0.9770  0.1579
  491MOL0     O64715   9.767   2.166  10.884 -1.2032 -0.0513 -1.0878
  491MOL0     C64716   9.766   2.035  10.822  1.0997  0.5191 -0.4688
  491MOL0     C64717   9.628   1.971  10.855  0.5297  0.5645  0.9117
  491MOL0     C64718   9.612   1.953  11.003  0.0242 -0.1085 -1.0522
  491MOL0     C64719   9.468   1.933  11.037 -0.9430 -0.3915  0.1895
  491MOL0     C64720   9.432   1.787  11.022  0.4831  0.5270  0.5442
  491MOL0     C64721   9.435   1.718  11.167 -0.2264  0.5060  0.4067
  491MOL0     C64722   9.438   1.561  11.170  0.0307  0.0221  0.0747
  491MOL0     C64723   9.398   1.516  11.310 -1.1842 -0.2234 -0.5684
  491MOL0    Cl64724   9.551   1.517  11.412  0.2590 -0.3601 -0.5005
  491MOL0     C64725   9.884   2.345  10.973 -0.8564 -0.4963  0.3090
  491MOL0     C64726   9.999   2.421  10.977 -0.3549  0.5425 -0.5478
  491MOL0     O64727  10.146   2.615  10.699 -0.2774 -0.3838 -0.1084
  491MOL0     C64728  10.386   2.781  10.734 -0.1936 -0.3603  0.8399
  491MOL0     C64729  10.472   2.882  10.765 -0.1489 -0.2930  0.2213
  491MOL0     N64730  10.877   3.586  10.976 -0.0210 -0.6134 -0.2195
  491MOL0     N64731  10.923   3.691  10.908  0.1592  0.1167  0.9250
  491MOL0     C64732  11.049   4.335   9.735 -1.0261 -0.1714  1.1597
  491MOL0     C64733  11.066   4.344   9.593 -1.0103 -0.1764  1.0015
  491MOL0     C64734  11.239   4.230   9.153  0.6132 -1.7376 -0.4626
  491MOL0     C64735  11.316   4.180   9.055 -1.2251 -0.1475  0.4363
  491MOL0     C64736  11.307   4.226   8.923  0.5495  0.0752  0.7229
  491MOL0     C64737  11.222   4.327   8.890 -0.0285 -0.1269 -0.5666
  491MOL0     O64738  11.216   4.382   8.761  0.5813  0.4263 -0.1085
  491MOL0     C64739  11.106   4.325   8.683 -0.1744 -0.5178  0.2407
  491MOL0     C64740  10.996   4.422   8.668 -0.2759  0.2718 -1.0551
  491MOL0     C64741  10.887   4.355   8.571  0.8089  0.3121  0.2030
  491MOL0     C64742  10.797   4.480   8.545 -0.3759 -0.2575 -0.1789
  491MOL0     C64743  10.847   4.576   8.442  0.7654 -0.5137 -0.0082
  491MOL0     C64744  10.890   4.634   8.349 -0.7625  1.2518 -0.1274
  491MOL0     C64745  11.150   4.387   8.991 -0.2524  0.7449  0.4320
  491MOL0     C64746  11.149   4.331   9.114  1.0267 -0.3240 -1.3031
  491MOL0     H64747  11.248   4.066   9.558  2.3589  2.2011  0.2048
  491MOL0     H64748  11.203   4.035   9.770 -0.9184 -1.2710  0.3974
  491MOL0     H64749  11.142   4.035   9.987  0.5190  0.4523  0.3344
  491MOL0     H64750  10.971   4.020   9.910 -2.4624  0.3061  2.7040
  491MOL0     H64751  10.873   4.144  10.098  0.9806 -0.2676 -2.1067
  491MOL0     H64752  11.019   4.130  10.195 -0.6474 -0.3015  0.4140
  491MOL0     H64753  10.996   3.898  10.195  2.0331  1.6003 -1.7947
  491MOL0     H64754  10.856   3.897  10.077 -1.1887  1.2716  0.2180
  491MOL0     H64755  10.827   4.062  10.325  0.3753  1.8058 -1.0477
  491MOL0     H64756  10.703   3.981  10.218  1.3230 -1.3137 -2.7199
  491MOL0     H64757  10.795   3.759  10.289 -1.6540 -0.5411  0.0284
  491MOL0     H64758  10.701   3.851  10.404  0.1676  1.7535  1.6466
  491MOL0     H64759  10.905   3.948  10.503 -0.1994  1.5821 -2.4335
  491MOL0     H64760  11.002   3.834  10.411 -1.9306  1.0182 -5.0821
  491MOL0     H64761  10.771   3.779  10.609 -1.2470 -3.8832  1.3205
  491MOL0     H64762  10.857   3.644  10.524 -0.9396  0.9503 -2.0740
  491MOL0     H64763  10.988   3.842  10.722  0.7114  0.9836 -0.3335
  491MOL0     H64764  11.067   3.697  10.648  0.6752  2.7217 -0.9392
  491MOL0     H64765  10.966   3.462  10.692  1.5288  0.7003  0.7099
  491MOL0     H64766  10.886   3.332  11.048  1.4303 -1.3299  0.2578
  491MOL0     H64767  10.994   3.297  10.908 -0.1295  0.6216 -0.3131
  491MOL0     H64768  10.819   3.233  10.776  1.0069  4.1247  1.0528
  491MOL0     H64769  10.697   3.242  10.912  0.7945  1.6305 -0.1339
  491MOL0     H64770  10.926   3.057  10.898 -1.7501 -0.5324 -3.8518
  491MOL0     H64771  10.835   3.088  11.048  2.9286  3.9201 -0.4670
  491MOL0     H64772  10.764   2.882  10.922  3.5814  0.6723  0.0140
  491MOL0     H64773  10.740   2.979  10.777 -0.8891 -2.1224  0.7027
  491MOL0     H64774  10.455   2.878  11.105 -0.3742 -1.8245 -0.0996
  491MOL0     H64775  10.305   2.684  11.047 -1.3345  0.9848 -0.2591
  491MOL0     H64776  10.187   2.305  10.722  1.4302  2.9825  1.6907
  491MOL0     H64777  10.000   2.139  10.726  1.4261 -2.2932  4.3164
  491MOL0     H64778   9.856   1.981  10.852  1.7774  1.5051 -0.6881
  491MOL0     H64779   9.773   2.049  10.714 -0.0007  1.6512 -0.4116
  491MOL0     H64780   9.610   1.886  10.788  3.2233 -1.0997  2.1342
  491MOL0     H64781   9.560   2.054  10.835 -1.3988 -0.4837  2.7259
  491MOL0     H64782   9.671   2.019  11.066  0.8446 -2.0986  0.3718
  491MOL0     H64783   9.656   1.860  11.039  0.2372 -0.3798 -1.9889
  491MOL0     H64784   9.443   1.967  11.138 -1.5510  0.8855 -0.3637
  491MOL0     H64785   9.404   1.989  10.967 -1.4532 -0.4349  0.6128
  491MOL0     H64786   9.492   1.741  10.943 -1.8470 -0.9798 -0.4411
  491MOL0     H64787   9.330   1.793  10.984 -0.4622  3.0969  3.1173
  491MOL0     H64788   9.347   1.750  11.223 -3.7090 -4.6705 -1.4228
  491MOL0     H64789   9.524   1.763  11.213  0.1553  0.9270 -0.7084
  491MOL0     H64790   9.370   1.508  11.102 -1.3185  0.5932  0.9157
  491MOL0     H64791   9.538   1.527  11.145 -1.5444 -4.5829 -1.0225
  491MOL0     H64792   9.349   1.419  11.310 -1.5452 -0.0476 -1.3790
  491MOL0     H64793   9.321   1.579  11.358 -1.1916 -1.6852  1.4658
  491MOL0     H64794   9.796   2.373  11.031 -2.5150  1.0496 -2.6874
  491MOL0     H64795  10.016   2.500  11.050 -1.6588  1.4082 -1.1289
  491MOL0     H64796  10.351   2.779  10.631  0.7946  0.6840  0.4605
  491MOL0     H64797  10.519   2.941  10.687 -2.6520  3.6280  1.4224
  491MOL0     H64798  10.984   4.403   9.789  1.9477  2.6562  1.4789
  491MOL0     H64799  11.028   4.431   9.541  1.2157 -0.3237 -1.0475
  491MOL0     H64800  11.383   4.096   9.068 -2.8723 -1.5213  0.3867
  491MOL0     H64801  11.365   4.178   8.844  2.5042  0.7220  1.6779
  491MOL0     H64802  11.060   4.236   8.725 -5.0475  1.7261  0.2950
  491MOL0     H64803  11.152   4.299   8.587  0.0184 -0.7078  0.3827
  491MOL0     H64804  10.954   4.443   8.767 -0.8681  3.0322 -1.8113
  491MOL0     H64805  11.028   4.515   8.622 -1.7077  1.2744 -0.0970
  491MOL0     H64806  10.837   4.281   8.635  0.0445  0.4002 -0.2845
  491MOL0     H64807  10.941   4.311   8.487  0.7465 -2.9990  1.7348
  491MOL0     H64808  10.708   4.428   8.509 -0.8168  0.0910  0.4039
  491MOL0     H64809  10.778   4.542   8.633 -0.2659  1.6380 -1.4046
  491MOL0     H64810  10.940   4.671   8.261 -1.7488 -1.9345 -2.2207
  491MOL0     H64811  11.094   4.480   8.980 -1.7367 -0.4117 -4.5227
  491MOL0     H64812  11.073   4.375   9.178  1.1373 -1.4926 -0.3366
  492MOL0     O64813   1.979   1.189  10.652 -0.0263 -0.1420  0.2739
  492MOL0     C64814   1.976   1.092  10.735 -0.9267  0.0201 -0.7793
  492MOL0     O64815   2.054   1.088  10.854 -0.3052 -0.4817  0.3789
  492MOL0     C64816   2.165   1.171  10.868 -0.0401  0.0549 -0.5000
  492MOL0     C64817   2.276   1.119  10.941  0.3040 -0.1460 -0.5975
  492MOL0     C64818   2.391   1.186  10.979 -0.0846  0.0293 -0.1896
  492MOL0     C64819   2.405   1.318  10.937  1.0342 -0.0601  0.1778
  492MOL0     O64820   2.498   1.393  11.002 -0.7275 -0.2959 -0.2244
  492MOL0     C64821   2.455   1.501  11.087 -0.2431 -1.2258 -0.2455
  492MOL0     C64822   2.433   1.463  11.234 -0.0976 -0.2518 -0.4033
  492MOL0     C64823   2.288   1.469  11.278  0.0357 -0.2457 -0.0939
  492MOL0     C64824   2.185   1.377  11.206  0.0680  0.8331  0.9173
  492MOL0     C64825   2.052   1.396  11.277  0.0633  1.1800 -1.3589
  492MOL0     C64826   1.947   1.298  11.214 -0.0364 -0.2969  1.3072
  492MOL0     C64827   1.813   1.297  11.288 -0.3572  0.2890  0.7858
  492MOL0     C64828   1.705   1.218  11.214  0.2117  0.4594  0.4922
  492MOL0     N64829   1.621   1.283  11.108 -0.8506 -0.5691 -1.0511
  492MOL0     C64830   1.603   1.232  10.978 -0.2673 -0.6868  0.3155
  492MOL0     C64831   1.509   1.310  10.921 -0.0133 -0.4877 -0.8339
  492MOL0     C64832   1.446   1.296  10.787  1.3091  0.2956 -0.8536
  492MOL0     C64833   1.524   1.372  10.680 -0.4233 -0.2550  0.0433
  492MOL0     C64834   1.490   1.336  10.525  0.1097  0.6018  0.4111
  492MOL0     C64835   1.347   1.271  10.503 -0.2232  0.5028 -0.8933
  492MOL0     O64836   1.307   1.281  10.371 -0.7674 -0.1203  0.1452
  492MOL0     C64837   1.375   1.209  10.276 -0.2783 -0.5039  0.6864
  492MOL0     C64838   1.425   1.082  10.299 -0.1445 -0.3916  0.5622
  492MOL0     C64839   1.499   1.012  10.200  1.0507 -0.6434  0.5982
  492MOL0     C64840   1.494   1.068  10.068  0.3961  0.1447  0.3303
  492MOL0     C64841   1.564   0.999   9.964 -1.1163  0.3217  0.7634
  492MOL0     O64842   1.674   0.914   9.997  0.0025 -0.3584  1.3636
  492MOL0     C64843   1.755   0.873   9.898 -0.6726  0.0432  0.2614
  492MOL0     C64844   1.845   0.962   9.830  0.5060  0.4662 -0.0245
  492MOL0     C64845   1.941   0.900   9.738 -0.2059  0.1080  0.9603
  492MOL0     C64846   1.939   0.767   9.707  0.6805  0.7362 -0.6884
  492MOL0     O64847   2.036   0.720   9.628 -0.0426  0.1807  0.2789
  492MOL0     C64848   2.150   0.671   9.698  0.7877  0.1240  0.6211
  492MOL0     C64849   2.185   0.533   9.643 -0.2998 -0.0158  0.1024
  492MOL0     C64850   2.223   0.528   9.493  0.2476 -0.6600 -0.3970
  492MOL0     C64851   2.304   0.398   9.468 -0.1262 -0.1057  0.2210
  492MOL0     C64852   2.289   0.361   9.320 -0.3123  0.4028 -0.1434
  492MOL0     C64853   2.329   0.213   9.301 -0.1543  0.1739  0.1419
  492MOL0     C64854   2.471   0.180   9.336 -0.2055  0.2059  0.6524
  492MOL0     C64855   2.583   0.283   9.288 -0.8518 -0.0452 -0.6237
  492MOL0    Cl64856   2.667   0.221   9.143  0.2669  0.6388  0.5119
  492MOL0     C64857   1.856   0.680   9.775 -0.0541  0.0811  0.0503
  492MOL0     C64858   1.760   0.738   9.858 -0.1145  0.6005  0.7343
  492MOL0     O64859   1.517   1.014   9.854  0.0108  0.2695  0.6361
  492MOL0     C64860   1.441   1.199  10.042 -1.0025  0.8416 -1.1877
  492MOL0     C64861   1.391   1.269  10.152  0.0964 -0.3541  0.4899
  492MOL0     N64862   1.465   1.406  11.012 -0.0189 -0.0695 -0.0216
  492MOL0     N64863   1.537   1.395  11.123 -0.3477  0.5479  0.0433
  492MOL0     C64864   2.303   1.379  10.862  0.5934 -0.5769  0.0908
  492MOL0     C64865   2.176   1.309  10.828  0.0182 -0.1152  0.0497
  492MOL0     C64866   1.885   0.979  10.702  0.2926  0.7030  0.8911
  492MOL0     C64867   1.819   0.961  10.580 -0.6780 -0.3811  0.6656
  492MOL0     C64868   1.730   0.859  10.554 -0.3979 -0.5573  0.3916
  492MOL0     C64869   1.696   0.770  10.653  0.1208 -0.0075  0.6015
  492MOL0     O64870   1.619   0.660  10.635 -0.3523  0.7782  1.0822
  492MOL0     C64871   1.633   0.590  10.513  0.2475 -0.2393  0.6336
  492MOL0     C64872   1.504   0.591  10.433 -1.5551  0.0844 -0.2702
  492MOL0     C64873   1.505   0.504  10.305  0.3778  0.0821 -0.0654
  492MOL0     C64874   1.550   0.573  10.166  0.6463 -0.0076  0.9798
  492MOL0     C64875   1.440   0.664  10.118 -0.1577 -0.3692 -0.4888
  492MOL0     C64876   1.360   0.744  10.076  0.5611  0.5771 -0.0865
  492MOL0     C64877   1.747   0.789  10.780 -0.2728 -0.0607 -1.4407
  492MOL0     C64878   1.839   0.892  10.807  0.3453 -0.0280  0.1546
  492MOL0     H64879   2.268   1.012  10.955  3.9348 -1.0189 -3.6017
  492MOL0     H64880   2.465   1.155  11.052  2.6736  1.3390 -2.2492
  492MOL0     H64881   2.367   1.559  11.058  0.4883  1.9158  3.0996
  492MOL0     H64882   2.533   1.578  11.084 -1.9149  0.7122  2.0284
  492MOL0     H64883   2.493   1.526  11.300  0.7816 -0.0563 -1.3654
  492MOL0     H64884   2.463   1.358  11.239 -0.4804 -0.5309 -2.7088
  492MOL0     H64885   2.265   1.576  11.276  0.4339 -0.0619  2.1723
  492MOL0     H64886   2.279   1.430  11.380  3.4289 -0.0508  0.3673
  492MOL0     H64887   2.167   1.406  11.102 -2.4256 -1.5565  0.5713
  492MOL0     H64888   2.221   1.274  11.213  1.1567  0.9160 -2.2427
  492MOL0     H64889   2.005   1.493  11.260 -5.4600 -1.2037 -2.0882
  492MOL0     H64890   2.067   1.381  11.384  1.3500  2.8148 -1.2750
  492MOL0     H64891   1.979   1.193  11.216 -1.3342 -0.6935  2.3177
  492MOL0     H64892   1.926   1.319  11.108  0.5652 -2.8021  0.6096
  492MOL0     H64893   1.828   1.263  11.391  0.8317  2.3559  1.3562
  492MOL0     H64894   1.772   1.397  11.309  1.4460  0.5061  3.9136
  492MOL0     H64895   1.637   1.183  11.292 -0.0359 -0.0531  0.0547
  492MOL0     H64896   1.750   1.126  11.175 -0.1556  0.7313 -0.6196
  492MOL0     H64897   1.627   1.138  10.929 -5.3431 -0.4534 -3.3738
  492MOL0     H64898   1.341   1.325  10.800  0.5173 -2.8116  0.5515
  492MOL0     H64899   1.456   1.191  10.759  2.2273 -0.3840  1.6840
  492MOL0     H64900   1.632   1.358  10.691 -0.4414  0.4434  1.4369
  492MOL0     H64901   1.507   1.479  10.693  1.6042 -0.0044  1.0239
  492MOL0     H64902   1.489   1.430  10.469  1.4312  1.8925  2.4458
  492MOL0     H64903   1.577   1.281  10.487  1.1049  3.3313 -1.5294
  492MOL0     H64904   1.286   1.344  10.557  0.9513  0.5103  0.4978
  492MOL0     H64905   1.341   1.167  10.537  1.8427  0.3179 -1.0082
  492MOL0     H64906   1.434   1.039  10.398  0.0400 -0.5877  0.4606
  492MOL0     H64907   1.539   0.912  10.218  0.8413 -0.5224  1.8171
  492MOL0     H64908   1.844   1.067   9.856  2.0099  0.2860  0.8914
  492MOL0     H64909   2.020   0.960   9.695  0.2884 -0.0775  1.5870
  492MOL0     H64910   2.115   0.647   9.798 -1.3108  2.0432  0.4194
  492MOL0     H64911   2.240   0.735   9.693  0.2759  0.7838 -0.5767
  492MOL0     H64912   2.104   0.463   9.664 -1.9367  0.7907 -2.9030
  492MOL0     H64913   2.266   0.489   9.702 -1.6261 -2.4803  0.2176
  492MOL0     H64914   2.281   0.620   9.478 -3.3580  1.3622 -3.8949
  492MOL0     H64915   2.146   0.539   9.417  0.6339 -0.7347 -0.8036
  492MOL0     H64916   2.408   0.414   9.500 -0.5617 -0.1730  1.7352
  492MOL0     H64917   2.270   0.311   9.525 -0.0762  0.1897  0.7031
  492MOL0     H64918   2.348   0.420   9.249 -1.1932  0.0879 -1.1697
  492MOL0     H64919   2.185   0.373   9.288 -0.4621 -2.0106 -0.7197
  492MOL0     H64920   2.310   0.182   9.198 -4.7191  1.7709  0.2597
  492MOL0     H64921   2.260   0.150   9.359 -1.5335  0.5257 -1.0485
  492MOL0     H64922   2.473   0.186   9.445  2.5212  4.1881  0.5984
  492MOL0     H64923   2.499   0.078   9.306 -1.2517  0.3868 -1.0664
  492MOL0     H64924   2.652   0.274   9.373 -0.6243 -2.9403 -1.0175
  492MOL0     H64925   2.551   0.386   9.271 -1.2984  0.0855  0.8367
  492MOL0     H64926   1.857   0.572   9.761 -1.8547 -0.0976  1.0087
  492MOL0     H64927   1.693   0.676   9.917 -2.0178  2.2012  0.3382
  492MOL0     H64928   1.439   1.241   9.942  0.3720  0.5275 -1.3704
  492MOL0     H64929   1.350   1.370  10.144  2.2262  0.5953  0.7519
  492MOL0     H64930   2.295   1.485  10.842 -4.0377 -1.0227 -1.6512
  492MOL0     H64931   2.099   1.365  10.774 -1.5674 -0.3460  1.9491
  492MOL0     H64932   1.843   1.025  10.495  0.3239 -2.3908 -0.6220
  492MOL0     H64933   1.688   0.852  10.454 -3.4848 -0.1550  1.5499
  492MOL0     H64934   1.665   0.487  10.534  2.2856  0.3218  0.4053
  492MOL0     H64935   1.719   0.612  10.450  0.4891 -2.6735 -0.0037
  492MOL0     H64936   1.448   0.538  10.510  0.3635 -4.1147 -1.4654
  492MOL0     H64937   1.473   0.694  10.417 -2.6117 -0.4891 -2.3704
  492MOL0     H64938   1.405   0.463  10.288  0.1965  0.9310 -1.1581
  492MOL0     H64939   1.570   0.417  10.319 -0.5473 -0.4954  0.7053
  492MOL0     H64940   1.641   0.634  10.170  1.0400 -0.6512  2.3657
  492MOL0     H64941   1.559   0.497  10.088 -1.3706 -2.0606  2.6029
  492MOL0     H64942   1.281   0.806  10.037 -1.4846 -0.8246  1.6305
  492MOL0     H64943   1.729   0.709  10.851 -1.3626 -0.3615 -2.0282
  492MOL0     H64944   1.891   0.886  10.903  2.3024 -1.8351 -0.9360
  493MOL0     O64945   3.816   5.071   7.231 -0.3779 -0.1468  0.0943
  493MOL0     C64946   3.911   5.116   7.297 -0.1656 -0.3953 -0.3695
  493MOL0     O64947   4.037   5.159   7.245 -0.8476 -0.2755  0.3261
  493MOL0     C64948   4.059   5.138   7.109 -0.2856 -0.6376 -0.4997
  493MOL0     C64949   4.030   5.018   7.045 -0.8227 -0.0926  0.1697
  493MOL0     C64950   4.048   5.007   6.904 -0.5094 -0.2592 -0.5497
  493MOL0     C64951   4.108   5.112   6.831  0.7689 -0.4612  0.9531
  493MOL0     O64952   4.138   5.088   6.702  0.0568 -0.6992  0.5006
  493MOL0     C64953   4.104   5.204   6.614 -0.1332 -0.4079 -0.3297
  493MOL0     C64954   4.069   5.175   6.468 -0.0450  0.1389 -0.3965
  493MOL0     C64955   3.964   5.063   6.454  1.2143  0.2951 -0.3001
  493MOL0     C64956   3.912   5.036   6.316  1.0627  0.1058 -0.2148
  493MOL0     C64957   3.801   4.924   6.294  0.3850  0.3278  0.3821
  493MOL0     C64958   3.666   4.952   6.361  0.5197  0.0848 -0.6008
  493MOL0     C64959   3.549   4.855   6.342  1.1363  0.9142 -0.0174
  493MOL0     C64960   3.471   4.856   6.210  0.4196 -0.7075  0.6868
  493MOL0     N64961   3.545   4.807   6.109 -0.0799  0.0283  0.4857
  493MOL0     C64962   3.573   4.674   6.091 -0.2189  0.6637 -0.4609
  493MOL0     C64963   3.622   4.665   5.963  0.7266  0.4140 -0.5938
  493MOL0     C64964   3.694   4.546   5.895 -0.1422  0.4090 -0.1404
  493MOL0     C64965   3.839   4.516   5.942  0.4799  0.1056  0.3733
  493MOL0     C64966   3.942   4.630   5.911  0.4733  0.8268  0.4205
  493MOL0     C64967   3.996   4.609   5.767  0.3699  0.7550 -0.5376
  493MOL0     O64968   4.094   4.703   5.727 -0.4541  0.1749 -0.2148
  493MOL0     C64969   4.224   4.661   5.708  0.3649  0.7246  0.2596
  493MOL0     C64970   4.286   4.551   5.767 -0.2602 -0.3907 -0.7257
  493MOL0     C64971   4.425   4.531   5.753  0.9613 -0.0983  0.3543
  493MOL0     C64972   4.505   4.613   5.671  1.1111 -0.1667 -0.4071
  493MOL0     C64973   4.657   4.576   5.658  0.6816  0.0077  0.4796
  493MOL0     O64974   4.705   4.471   5.732 -0.4163 -0.1201  0.1552
  493MOL0     C64975   4.816   4.408   5.678  0.8079  0.4046 -0.3287
  493MOL0     C64976   4.833   4.374   5.534  0.6808  0.1396  0.6188
  493MOL0     C64977   4.949   4.302   5.494  0.3056 -0.3055 -0.4174
  493MOL0     C64978   5.048   4.269   5.582  0.3868  0.7809  0.2019
  493MOL0     O64979   5.159   4.197   5.563  0.5162  1.0660  0.2519
  493MOL0     C64980   5.175   4.134   5.438 -0.3046 -0.5187  0.2407
  493MOL0     C64981   5.292   4.045   5.438  0.6380 -0.4025 -0.7614
  493MOL0     C64982   5.287   3.915   5.518  0.3488 -0.5318 -0.1204
  493MOL0     C64983   5.431   3.848   5.522 -0.2307  0.6800  0.3197
  493MOL0     C64984   5.537   3.907   5.606  0.1705 -0.4596  0.1280
  493MOL0     C64985   5.650   3.804   5.603  0.3450  0.0479 -0.1134
  493MOL0     C64986   5.757   3.831   5.715 -1.7820 -0.2273 -0.3456
  493MOL0     C64987   5.869   3.721   5.697  0.6783  0.1288 -0.2602
  493MOL0    Cl64988   5.806   3.579   5.785  0.3113 -0.5200 -0.1572
  493MOL0     C64989   5.030   4.310   5.720  0.1133 -0.1252  0.0032
  493MOL0     C64990   4.926   4.379   5.766 -0.1313 -0.1204 -0.0934
  493MOL0     O64991   4.717   4.652   5.588 -0.0284  0.0089 -0.0856
  493MOL0     C64992   4.442   4.714   5.592  0.9161 -1.5475  0.6439
  493MOL0     C64993   4.306   4.741   5.616  0.8838 -0.0213 -0.1532
  493MOL0     N64994   3.619   4.796   5.907 -0.4821 -0.3157  0.4544
  493MOL0     N64995   3.581   4.876   5.999  0.4220  0.6177  0.1731
  493MOL0     C64996   4.119   5.237   6.895  0.5071 -0.0670 -2.6468
  493MOL0     C64997   4.110   5.242   7.034 -0.2193  0.3030 -0.0947
  493MOL0     C64998   3.901   5.145   7.444 -0.0630  0.1864 -1.2311
  493MOL0     C64999   4.022   5.108   7.513 -0.8563  0.7287 -1.1643
  493MOL0     C65000   4.021   5.118   7.661 -0.6161 -0.3384  0.3066
  493MOL0     C65001   3.915   5.176   7.730  0.6666  0.2259  1.0986
  493MOL0     O65002   3.917   5.204   7.867 -1.1920 -0.2069 -0.0614
  493MOL0     C65003   4.012   5.142   7.950 -0.0165  0.6685  1.0622
  493MOL0     C65004   4.019   5.230   8.077 -0.7425  0.1851  0.1920
  493MOL0     C65005   4.082   5.138   8.186  0.0669 -0.8452  0.2398
  493MOL0     C65006   3.977   5.063   8.263 -1.1789 -0.3624  0.1093
  493MOL0     C65007   4.041   4.952   8.331 -0.0370 -0.2432  0.9779
  493MOL0     C65008   4.073   4.855   8.395 -0.4339 -0.4575  0.2235
  493MOL0     C65009   3.808   5.217   7.657  0.1320 -0.7188  0.2637
  493MOL0     C65010   3.791   5.203   7.510 -0.9114  0.4485 -0.5175
  493MOL0     H65011   3.997   4.931   7.102  1.0538 -1.5974 -0.8905
  493MOL0     H65012   4.033   4.911   6.855  0.4106 -0.2087 -0.9499
  493MOL0     H65013   4.182   5.281   6.617 -0.4724  0.1515 -3.2502
  493MOL0     H65014   4.018   5.251   6.661 -0.1774  0.0690 -0.8713
  493MOL0     H65015   4.156   5.124   6.427 -1.3105  0.7111 -4.2169
  493MOL0     H65016   4.044   5.266   6.413  0.5890 -0.5259 -1.8384
  493MOL0     H65017   3.888   5.085   6.530  0.7472  0.8486 -0.9136
  493MOL0     H65018   4.016   4.970   6.479  0.0175 -1.2087 -2.9190
  493MOL0     H65019   3.867   5.123   6.266  1.4075  1.1881  1.2899
  493MOL0     H65020   4.007   5.022   6.265  0.9271 -0.3684 -0.3360
  493MOL0     H65021   3.847   4.826   6.316  5.7064  2.0935 -1.2388
  493MOL0     H65022   3.784   4.921   6.186  0.7324  0.1836  0.3273
  493MOL0     H65023   3.646   5.055   6.332  0.8549  0.3014 -0.0900
  493MOL0     H65024   3.700   4.940   6.465 -3.3735 -2.8701  0.5951
  493MOL0     H65025   3.594   4.760   6.372  0.6076  1.1311  1.5444
  493MOL0     H65026   3.481   4.880   6.424 -0.5677  1.1543 -1.4445
  493MOL0     H65027   3.443   4.957   6.180 -2.9472 -1.9381 -0.8357
  493MOL0     H65028   3.377   4.799   6.220 -1.6109  1.6103 -2.8213
  493MOL0     H65029   3.568   4.597   6.167  2.1908 -1.4015 -2.2165
  493MOL0     H65030   3.699   4.561   5.787  1.2905 -0.9478 -0.2846
  493MOL0     H65031   3.626   4.460   5.899 -0.7462  0.5549 -3.8267
  493MOL0     H65032   3.872   4.418   5.906  1.7260 -0.4264  2.7375
  493MOL0     H65033   3.842   4.504   6.051  2.8412 -2.4393  0.1478
  493MOL0     H65034   3.906   4.733   5.906 -2.1230  0.1258  2.3367
  493MOL0     H65035   4.029   4.622   5.976  0.3739 -1.3207  0.3588
  493MOL0     H65036   3.916   4.615   5.693  1.6677  0.2529 -2.0509
  493MOL0     H65037   4.018   4.503   5.747 -3.9229 -0.3398 -0.4191
  493MOL0     H65038   4.231   4.497   5.843  0.6194  2.0859  1.8281
  493MOL0     H65039   4.459   4.437   5.795 -2.0652 -1.4419  0.0660
  493MOL0     H65040   4.757   4.386   5.458 -0.0471 -2.1722  0.9073
  493MOL0     H65041   4.952   4.275   5.389  1.4628 -2.3336  0.0858
  493MOL0     H65042   5.184   4.204   5.354 -1.8091 -3.1086 -2.2693
  493MOL0     H65043   5.091   4.067   5.416  1.4048 -2.4596 -0.6305
  493MOL0     H65044   5.387   4.099   5.441  1.2439 -1.3788 -1.6433
  493MOL0     H65045   5.312   4.022   5.333  2.9195 -0.1941 -0.4256
  493MOL0     H65046   5.214   3.857   5.460  0.1180  2.3814 -3.0288
  493MOL0     H65047   5.245   3.928   5.619  0.9772  2.4989 -0.1608
  493MOL0     H65048   5.417   3.743   5.548  1.4310  1.1101  3.5092
  493MOL0     H65049   5.470   3.853   5.420 -2.2126 -0.2629 -0.5335
  493MOL0     H65050   5.504   3.908   5.711 -2.9106 -2.0090 -0.6871
  493MOL0     H65051   5.570   4.003   5.567 -0.4668  0.5292  1.8725
  493MOL0     H65052   5.710   3.815   5.512 -0.0216 -0.4725 -0.4226
  493MOL0     H65053   5.601   3.709   5.623 -3.7678  1.3871 -2.5811
  493MOL0     H65054   5.797   3.933   5.719  1.3422 -1.3448  3.5179
  493MOL0     H65055   5.722   3.812   5.817  3.0371 -0.6362  1.4808
  493MOL0     H65056   5.960   3.761   5.743  2.1428 -1.0625 -1.9841
  493MOL0     H65057   5.882   3.697   5.591 -0.9700 -1.9527 -0.0622
  493MOL0     H65058   5.112   4.296   5.790 -1.0022 -2.1518  1.0131
  493MOL0     H65059   4.933   4.407   5.871 -1.6159  0.7974 -0.2150
  493MOL0     H65060   4.497   4.785   5.531 -2.1713  1.0124  0.5964
  493MOL0     H65061   4.261   4.828   5.569 -1.3393 -0.7046  0.5883
  493MOL0     H65062   4.157   5.329   6.851  0.3675  1.4042  0.0713
  493MOL0     H65063   4.132   5.335   7.083 -1.4863  1.9095 -2.3726
  493MOL0     H65064   4.101   5.062   7.456 -0.3546  1.9072 -1.4511
  493MOL0     H65065   4.109   5.080   7.712 -0.9901 -0.1342  1.1092
  493MOL0     H65066   4.112   5.127   7.908 -0.0243 -1.9483  1.8131
  493MOL0     H65067   3.981   5.040   7.973  0.6774  0.3181  0.4906
  493MOL0     H65068   4.090   5.312   8.062  0.3092  0.7485  5.9790
  493MOL0     H65069   3.928   5.269   8.122 -1.1478 -1.3345  0.7370
  493MOL0     H65070   4.140   5.199   8.255 -1.5746  1.2612 -0.1426
  493MOL0     H65071   4.159   5.071   8.146  3.1901  2.7601 -0.4071
  493MOL0     H65072   3.931   5.133   8.333  0.3060 -0.0804  0.8552
  493MOL0     H65073   3.903   5.019   8.195 -1.0102 -0.0942 -0.2515
  493MOL0     H65074   4.095   4.766   8.451  1.2112 -0.7564 -0.8080
  493MOL0     H65075   3.723   5.259   7.710  2.0135  0.7877  2.2738
  493MOL0     H65076   3.696   5.220   7.459 -0.7250 -4.2594 -3.0420
  494MOL0     O65077   2.200  11.324   1.856 -0.4819 -0.0347 -0.4940
  494MOL0     C65078   2.256  11.246   1.929 -0.6184  0.6960 -0.6517
  494MOL0     O65079   2.318  11.274   2.051 -0.3701 -0.3302 -0.0644
  494MOL0     C65080   2.347  11.404   2.092  0.1105  0.1494 -0.2498
  494MOL0     C65081   2.247  11.487   2.144  0.5163  0.7203  0.2727
  494MOL0     C65082   2.274  11.618   2.183  0.6775  0.1496 -0.7709
  494MOL0     C65083   2.407  11.661   2.177  0.1485 -0.5770  0.3410
  494MOL0     O65084   2.438  11.776   2.240 -0.0017 -0.1678 -0.5506
  494MOL0     C65085   2.459  11.894   2.168  0.2634 -0.3649  0.1571
  494MOL0     C65086   2.606  11.914   2.119 -0.2197  0.1232 -0.0106
  494MOL0     C65087   2.646  12.055   2.051  0.0626 -0.3943  0.2413
  494MOL0     C65088   2.806  12.068   2.051 -0.5173  0.2495  0.2513
  494MOL0     C65089   2.851  12.183   1.965 -0.6765  0.0798  0.2885
  494MOL0     C65090   2.913  12.132   1.831  0.6236  0.1031 -0.3181
  494MOL0     C65091   3.057  12.060   1.832 -0.2454  0.4640 -0.3938
  494MOL0     C65092   3.172  12.156   1.844  0.0699  0.1131  0.2275
  494MOL0     N65093   3.175  12.235   1.724  0.4443  0.3104  2.2098
  494MOL0     C65094   3.250  12.199   1.618  0.2485 -0.1029 -0.7145
  494MOL0     C65095   3.218  12.275   1.516 -0.3393  1.4800  0.5119
  494MOL0     C65096   3.283  12.255   1.379  1.0373 -1.1664  0.0680
  494MOL0     C65097   3.434  12.241   1.371  0.1964 -0.8651 -0.2645
  494MOL0     C65098   3.510  12.365   1.410  0.9073 -0.2037  0.7781
  494MOL0     C65099   3.663  12.361   1.412 -0.7234  0.1231 -0.5643
  494MOL0     O65100   3.721  12.489   1.377 -0.2357  0.2028 -0.6272
  494MOL0     C65101   3.797  12.556   1.470 -0.4175  0.3714  1.8461
  494MOL0     C65102   3.918  12.624   1.433  0.7941  0.6761 -0.0349
  494MOL0     C65103   3.989  12.705   1.525 -0.3298  0.4690  0.7731
  494MOL0     C65104   3.939  12.725   1.651  0.3876 -0.0227 -0.0516
  494MOL0     C65105   3.997  12.831   1.743  0.6538  0.0006  0.4843
  494MOL0     O65106   3.938  12.848   1.863  0.6594  0.2886 -0.2967
  494MOL0     C65107   3.987  12.941   1.950 -0.0455  0.2646  0.0898
  494MOL0     C65108   3.904  13.036   2.012  0.3743 -0.3087  0.0063
  494MOL0     C65109   3.947  13.131   2.108  0.1743  0.0672 -0.0571
  494MOL0     C65110   4.081  13.138   2.141 -0.2144  0.7431 -0.7170
  494MOL0     O65111   4.130  13.226   2.234 -0.9232 -0.6647 -0.0774
  494MOL0     C65112   4.048  13.303   2.324 -0.0556 -0.6314  1.0223
  494MOL0     C65113   3.983  13.422   2.252 -0.2094  1.2567  0.0385
  494MOL0     C65114   4.022  13.535   2.349 -0.6114 -0.1486 -0.2545
  494MOL0     C65115   3.969  13.670   2.310  0.0620 -0.5539  0.6789
  494MOL0     C65116   4.008  13.713   2.162  0.7790 -0.0349 -0.2312
  494MOL0     C65117   3.936  13.839   2.119  0.5678  0.4605  0.4809
  494MOL0     C65118   4.013  13.969   2.166 -0.2359  0.4398  0.1753
  494MOL0     C65119   3.933  14.094   2.200  0.3891 -0.5259 -0.7062
  494MOL0    Cl65120   3.820  14.062   2.346 -0.1652  0.1656 -0.2451
  494MOL0     C65121   4.159  13.037   2.082 -0.6065 -0.4483 -1.1157
  494MOL0     C65122   4.124  12.943   1.986 -0.0677 -0.3048 -0.8159
  494MOL0     O65123   4.089  12.896   1.695 -0.0825  0.4579  0.7652
  494MOL0     C65124   3.820  12.662   1.685 -0.4302  0.3953  0.6886
  494MOL0     C65125   3.745  12.577   1.599 -0.5270 -0.3920  0.0394
  494MOL0     N65126   3.133  12.377   1.557  0.4650  0.6603 -0.1927
  494MOL0     N65127   3.121  12.357   1.690  0.4060 -0.0117  0.2667
  494MOL0     C65128   2.503  11.571   2.134 -0.3955 -1.4979  1.2094
  494MOL0     C65129   2.475  11.447   2.079  0.7791 -0.7144 -0.0914
  494MOL0     C65130   2.240  11.102   1.890 -0.0714  0.2495 -0.7820
  494MOL0     C65131   2.230  11.061   1.757  0.9479 -0.0364 -0.0442
  494MOL0     C65132   2.228  10.931   1.719  0.9551 -0.0838  0.3099
  494MOL0     C65133   2.200  10.828   1.812 -0.3941  1.2796  0.2206
  494MOL0     O65134   2.191  10.693   1.763  0.4703 -0.1850 -0.9392
  494MOL0     C65135   2.191  10.586   1.863 -1.0419 -0.1339 -0.8951
  494MOL0     C65136   2.181  10.452   1.801  0.7554 -0.5633 -0.1777
  494MOL0     C65137   2.053  10.450   1.714 -1.0865  0.6211 -0.4377
  494MOL0     C65138   2.041  10.327   1.632 -0.1551  0.6357 -0.5488
  494MOL0     C65139   1.900  10.302   1.591  0.5504 -0.8042 -0.2682
  494MOL0     C65140   1.783  10.286   1.559  0.6138 -0.0900  0.0086
  494MOL0     C65141   2.204  10.863   1.951 -0.4331  0.3329  0.5275
  494MOL0     C65142   2.227  10.999   1.986 -0.1890  0.7539 -0.0323
  494MOL0     H65143   2.150  11.437   2.147  0.1868  0.9488 -2.8837
  494MOL0     H65144   2.191  11.669   2.229  1.1954 -1.0857  1.7007
  494MOL0     H65145   2.438  11.969   2.245  2.9041  1.5091 -0.8016
  494MOL0     H65146   2.397  11.904   2.078  0.5522 -1.4821 -0.1806
  494MOL0     H65147   2.640  11.833   2.053  1.3771 -0.6474  1.6660
  494MOL0     H65148   2.673  11.892   2.203  2.3031 -2.7251 -2.5146
  494MOL0     H65149   2.588  12.138   2.094 -1.8275 -0.6221 -1.7012
  494MOL0     H65150   2.607  12.049   1.949 -2.6204 -2.5818  1.2418
  494MOL0     H65151   2.842  12.085   2.153 -0.1973  1.0837  0.0093
  494MOL0     H65152   2.845  11.971   2.018 -2.9686 -0.7076 -0.0420
  494MOL0     H65153   2.934  12.232   2.016  0.3367 -2.5498  1.3255
  494MOL0     H65154   2.769  12.252   1.944 -0.1188  1.2963  1.9130
  494MOL0     H65155   2.905  12.192   1.740  2.1184  0.0165 -0.5416
  494MOL0     H65156   2.843  12.052   1.809  2.3749 -1.1084 -1.7858
  494MOL0     H65157   3.058  11.989   1.914 -1.3746  0.3511 -0.4560
  494MOL0     H65158   3.065  12.000   1.741 -1.0083  1.8299 -1.4061
  494MOL0     H65159   3.264  12.098   1.844 -0.6468 -1.1166 -1.5897
  494MOL0     H65160   3.159  12.209   1.938 -0.9017  0.5966 -0.1573
  494MOL0     H65161   3.300  12.103   1.608 -1.8099 -1.5361  1.5324
  494MOL0     H65162   3.254  12.342   1.319 -2.1433 -1.4139  1.0756
  494MOL0     H65163   3.225  12.174   1.333 -1.5746 -0.8280  2.5206
  494MOL0     H65164   3.449  12.233   1.263 -0.2396  2.9051 -0.7459
  494MOL0     H65165   3.477  12.153   1.418  3.6401 -0.4065 -2.2388
  494MOL0     H65166   3.474  12.446   1.345  2.5816  1.8445  2.2636
  494MOL0     H65167   3.489  12.398   1.512 -0.1107 -0.2930  0.6117
  494MOL0     H65168   3.704  12.280   1.352  1.0863  0.8695 -0.4178
  494MOL0     H65169   3.703  12.343   1.513 -0.7125  1.4520 -0.3096
  494MOL0     H65170   3.944  12.609   1.329  0.8275 -0.1525  0.0832
  494MOL0     H65171   4.080  12.764   1.514 -1.9210  2.6183 -2.6936
  494MOL0     H65172   3.799  13.032   1.984  1.1383 -2.1559 -3.1037
  494MOL0     H65173   3.874  13.193   2.159 -0.1222  0.2325 -0.6750
  494MOL0     H65174   4.114  13.323   2.410  0.2084 -1.2710  0.9738
  494MOL0     H65175   3.984  13.235   2.381 -0.4384 -0.9964  0.1654
  494MOL0     H65176   3.876  13.407   2.234  0.2801 -0.1851 -2.0505
  494MOL0     H65177   4.027  13.437   2.153 -1.9635  3.3317 -0.4964
  494MOL0     H65178   4.131  13.539   2.356 -0.6653 -0.1089  0.6498
  494MOL0     H65179   3.982  13.516   2.449 -0.4953 -0.3329 -0.2420
  494MOL0     H65180   3.861  13.655   2.321 -0.2879  3.1444  5.1278
  494MOL0     H65181   3.985  13.747   2.386 -0.5452 -0.3830  0.6402
  494MOL0     H65182   3.972  13.635   2.094 -0.9943  1.8893 -1.6524
  494MOL0     H65183   4.114  13.722   2.138  0.6343  1.1338 -0.5060
  494MOL0     H65184   3.830  13.840   2.146 -0.1915 -1.1444 -2.0347
  494MOL0     H65185   3.947  13.839   2.010  0.0234 -0.9751  0.4164
  494MOL0     H65186   4.058  13.952   2.265 -2.6309 -1.0083  1.1085
  494MOL0     H65187   4.095  13.979   2.094 -1.2489 -1.4601 -1.3200
  494MOL0     H65188   3.868  14.116   2.114  0.5631  0.8027 -0.5221
  494MOL0     H65189   3.989  14.187   2.212  0.1202 -0.5744  1.2842
  494MOL0     H65190   4.265  13.040   2.105 -0.5458 -0.0310 -1.4508
  494MOL0     H65191   4.201  12.874   1.952 -1.5061 -2.0147 -0.7619
  494MOL0     H65192   3.790  12.677   1.788  0.1853  0.2958  0.8875
  494MOL0     H65193   3.670  12.512   1.643  0.5236 -2.1002 -0.6047
  494MOL0     H65194   2.607  11.601   2.145 -0.1601 -1.6782 -0.2192
  494MOL0     H65195   2.568  11.393   2.065  1.8564  0.7931  0.9043
  494MOL0     H65196   2.221  11.131   1.675  2.1471 -1.3808 -1.3942
  494MOL0     H65197   2.233  10.908   1.613  3.5451 -1.9094  0.7208
  494MOL0     H65198   2.102  10.592   1.928 -1.1478  0.5763 -1.0988
  494MOL0     H65199   2.281  10.601   1.923 -1.7383  4.0554 -0.6081
  494MOL0     H65200   2.277  10.438   1.750  1.6072  1.0631  0.9034
  494MOL0     H65201   2.179  10.368   1.872  2.1687 -0.0039  0.5632
  494MOL0     H65202   2.050  10.540   1.652 -2.2467  0.6751 -0.3279
  494MOL0     H65203   1.967  10.455   1.781 -0.1226 -3.2393  1.3990
  494MOL0     H65204   2.106  10.335   1.544 -0.7747  1.4176 -0.9484
  494MOL0     H65205   2.071  10.243   1.695 -1.3228  0.0649 -0.7451
  494MOL0     H65206   1.686  10.287   1.514  0.2488  0.9342  0.7631
  494MOL0     H65207   2.173  10.797   2.031 -0.5884  0.1894  0.3484
  494MOL0     H65208   2.229  11.029   2.090  1.2593 -1.6312  0.7029
  495MOL0     O65209   7.001   2.233   0.148  0.0093 -0.0777  0.7041
  495MOL0     C65210   7.122   2.230   0.179 -0.7060  0.3007 -0.1246
  495MOL0     O65211   7.208   2.339   0.191  0.6767  0.2149 -0.1551
  495MOL0     C65212   7.182   2.468   0.139  0.4042  0.2313  0.1629
  495MOL0     C65213   7.070   2.488   0.045 -0.8878  0.0570  0.1434
  495MOL0     C65214   7.020   2.617   0.026  0.5600 -0.6768 -0.7564
  495MOL0     C65215   7.103   2.723   0.075  0.3120  0.0840  0.6225
  495MOL0     O65216   7.084   2.855   0.038  0.3016  0.3659 -0.3523
  495MOL0     C65217   7.017   2.892  -0.089  1.0314  0.5243 -0.8012
  495MOL0     C65218   7.113   2.860  -0.200  0.2900  0.0452  0.3276
  495MOL0     C65219   7.091   2.939  -0.333  0.2679  0.7430  0.4626
  495MOL0     C65220   7.139   3.080  -0.335 -0.9521 -0.0009 -0.1970
  495MOL0     C65221   7.118   3.143  -0.474  0.3320  1.2912 -0.5633
  495MOL0     C65222   6.960   3.152  -0.486 -0.1017 -0.8155 -0.2473
  495MOL0     C65223   6.929   3.287  -0.562  0.3897  0.8533  0.3627
  495MOL0     C65224   6.773   3.303  -0.560  0.4356 -0.3077  0.4693
  495MOL0     N65225   6.736   3.443  -0.548 -0.2001 -0.9828  0.7636
  495MOL0     C65226   6.731   3.538  -0.649  0.0536  1.2457 -0.0838
  495MOL0     C65227   6.741   3.656  -0.586  0.5756  1.1435  1.0233
  495MOL0     C65228   6.758   3.800  -0.630  0.8393 -0.3296 -0.1033
  495MOL0     C65229   6.901   3.852  -0.637 -0.4483  0.1849 -0.8927
  495MOL0     C65230   6.910   3.976  -0.731 -0.9466  0.6460  0.5949
  495MOL0     C65231   6.919   3.940  -0.886  0.7811  0.2466 -0.9490
  495MOL0     O65232   6.835   4.036  -0.953  0.3551 -0.5279 -0.3313
  495MOL0     C65233   6.826   4.012  -1.089  0.3750  0.7872 -0.2446
  495MOL0     C65234   6.942   3.976  -1.172 -0.2484 -0.4136 -0.5571
  495MOL0     C65235   6.926   3.927  -1.297 -0.3820 -0.3556  0.8248
  495MOL0     C65236   6.793   3.932  -1.355 -0.2512  0.2607 -0.7195
  495MOL0     C65237   6.782   3.897  -1.502 -0.0162  0.6267 -0.2168
  495MOL0     O65238   6.892   3.847  -1.563  0.1988  0.4426  0.7717
  495MOL0     C65239   6.885   3.795  -1.688  0.4257 -0.9256  0.7880
  495MOL0     C65240   6.926   3.663  -1.688  0.8173  0.4190 -0.1888
  495MOL0     C65241   6.927   3.585  -1.815 -0.3653 -0.0390 -0.4215
  495MOL0     C65242   6.908   3.652  -1.932  0.4047  0.2238 -0.1869
  495MOL0     O65243   6.921   3.572  -2.039 -0.9306  0.0136  0.7429
  495MOL0     C65244   7.002   3.614  -2.152  0.6617 -0.8211  0.4513
  495MOL0     C65245   6.970   3.517  -2.275 -0.1179 -0.6381 -0.6684
  495MOL0     C65246   7.082   3.541  -2.385  0.1702 -0.3559 -0.1023
  495MOL0     C65247   7.076   3.421  -2.483 -0.1756  0.7275 -0.2577
  495MOL0     C65248   7.196   3.390  -2.565  0.2726  0.4159  0.1082
  495MOL0     C65249   7.234   3.479  -2.675 -0.1853 -0.7383  0.8249
  495MOL0     C65250   7.372   3.448  -2.740  0.3141  0.3162 -0.9540
  495MOL0     C65251   7.343   3.360  -2.857 -0.0965  1.0758  1.1035
  495MOL0    Cl65252   7.485   3.275  -2.927 -0.2952 -0.6426 -0.4279
  495MOL0     C65253   6.875   3.787  -1.927  0.5290 -0.3065 -0.0539
  495MOL0     C65254   6.859   3.856  -1.806  1.2681 -0.4756  0.1522
  495MOL0     O65255   6.674   3.901  -1.552 -0.7605 -0.4252  0.0226
  495MOL0     C65256   6.682   3.978  -1.278 -0.0554  0.4032 -0.3534
  495MOL0     C65257   6.699   4.018  -1.147  0.5494  0.0508  0.6469
  495MOL0     N65258   6.738   3.632  -0.449 -0.5464 -0.6202  0.2633
  495MOL0     N65259   6.735   3.507  -0.425  0.3607  0.2014  0.7839
  495MOL0     C65260   7.217   2.707   0.156  0.2603  0.0049  0.9678
  495MOL0     C65261   7.254   2.578   0.181  0.1460 -0.1987 -0.1246
  495MOL0     C65262   7.167   2.101   0.221  1.1147  1.0637 -0.5383
  495MOL0     C65263   7.071   2.020   0.289  0.0909 -0.7979  1.1808
  495MOL0     C65264   7.101   1.886   0.300 -0.1330  0.2962 -0.0826
  495MOL0     C65265   7.217   1.827   0.246  0.6143 -0.2088 -0.6411
  495MOL0     O65266   7.225   1.691   0.246 -1.1968 -0.2552  0.0787
  495MOL0     C65267   7.144   1.623   0.144  0.0684 -0.8168 -0.1969
  495MOL0     C65268   7.070   1.498   0.187 -0.2831 -1.2537 -0.3041
  495MOL0     C65269   6.955   1.516   0.292  1.0125  0.5012  0.4459
  495MOL0     C65270   6.908   1.374   0.320  0.9758 -0.0375 -0.2742
  495MOL0     C65271   7.004   1.282   0.380 -0.3335  0.1626 -0.8281
  495MOL0     C65272   7.063   1.189   0.425 -0.3395 -0.0802 -0.2770
  495MOL0     C65273   7.314   1.906   0.192 -0.3084  0.9105  0.1551
  495MOL0     C65274   7.295   2.042   0.187 -0.3109  0.2856 -0.3138
  495MOL0     H65275   7.013   2.411  -0.007  1.0991 -1.9476  0.7977
  495MOL0     H65276   6.928   2.632  -0.029 -0.7868 -0.1651  1.4930
  495MOL0     H65277   7.015   3.001  -0.097  2.0549  0.6209  0.0429
  495MOL0     H65278   6.918   2.854  -0.116  0.3294  1.8126 -0.1318
  495MOL0     H65279   7.106   2.753  -0.221  2.5247 -0.7279  2.9814
  495MOL0     H65280   7.218   2.873  -0.172  1.2460 -3.1572 -1.2519
  495MOL0     H65281   6.986   2.941  -0.363  0.4191 -1.0361 -0.3519
  495MOL0     H65282   7.148   2.894  -0.415 -0.2837 -1.0373  1.0111
  495MOL0     H65283   7.103   3.144  -0.254 -0.1527  0.0088  0.1649
  495MOL0     H65284   7.248   3.072  -0.335 -0.9822 -1.2502 -2.4960
  495MOL0     H65285   7.163   3.081  -0.552  2.2720  2.6530 -0.6023
  495MOL0     H65286   7.165   3.241  -0.479  0.6332  1.2432  0.8921
  495MOL0     H65287   6.907   3.157  -0.391  0.5910 -2.1062  0.2319
  495MOL0     H65288   6.927   3.065  -0.545  0.8788 -0.7662 -0.9032
  495MOL0     H65289   6.979   3.367  -0.506  0.7374  0.1705  1.0481
  495MOL0     H65290   6.962   3.293  -0.666 -0.7455 -0.2785 -0.0858
  495MOL0     H65291   6.730   3.246  -0.478  1.7132 -4.5685 -1.5051
  495MOL0     H65292   6.727   3.285  -0.658 -0.5007  2.1859  0.3833
  495MOL0     H65293   6.752   3.518  -0.754 -0.6811  0.4327 -0.0866
  495MOL0     H65294   6.715   3.874  -0.562  0.6629 -0.1698 -0.3898
  495MOL0     H65295   6.713   3.815  -0.728 -0.6237  3.1661  0.9572
  495MOL0     H65296   6.971   3.770  -0.654 -2.4741 -1.9190  0.4865
  495MOL0     H65297   6.926   3.869  -0.532  3.2331 -2.4548 -1.1463
  495MOL0     H65298   6.840   4.055  -0.703 -1.6352 -0.1157  1.0792
  495MOL0     H65299   7.003   4.028  -0.709 -1.3419  0.8930  1.7602
  495MOL0     H65300   6.867   3.844  -0.895  1.4449 -0.3345  0.8670
  495MOL0     H65301   7.014   3.928  -0.938  0.4157 -1.0855 -1.3406
  495MOL0     H65302   7.042   3.983  -1.130 -1.5938  1.9898  2.6443
  495MOL0     H65303   7.015   3.908  -1.356 -1.1507  3.0301 -1.8042
  495MOL0     H65304   6.935   3.611  -1.593 -1.5425  3.8487  2.1494
  495MOL0     H65305   6.952   3.480  -1.819  1.5961  0.3736  0.2224
  495MOL0     H65306   7.107   3.629  -2.126  1.1998  0.4173 -2.0941
  495MOL0     H65307   6.962   3.711  -2.185 -1.1253 -1.0231  1.8461
  495MOL0     H65308   6.871   3.529  -2.320 -0.8002 -0.6776  0.7504
  495MOL0     H65309   6.969   3.411  -2.250  0.5242 -0.9309 -1.8110
  495MOL0     H65310   7.176   3.548  -2.330 -0.0613  2.2721  0.1192
  495MOL0     H65311   7.074   3.633  -2.444 -0.0081 -0.1441  0.2456
  495MOL0     H65312   7.065   3.331  -2.423 -1.0203  0.9652 -0.0504
  495MOL0     H65313   6.988   3.419  -2.548  0.0619  0.1911 -0.5793
  495MOL0     H65314   7.182   3.289  -2.604 -1.1204 -0.3398  2.3606
  495MOL0     H65315   7.281   3.403  -2.496  2.1776 -1.7477 -1.6567
  495MOL0     H65316   7.241   3.579  -2.632  1.0385  0.1823 -1.3309
  495MOL0     H65317   7.158   3.465  -2.752 -1.1992 -0.1560  1.6968
  495MOL0     H65318   7.421   3.540  -2.771  1.7130 -0.4820 -1.1893
  495MOL0     H65319   7.426   3.388  -2.666 -0.9649 -0.5178 -0.6684
  495MOL0     H65320   7.301   3.415  -2.942  0.7938  1.0176  0.6207
  495MOL0     H65321   7.269   3.283  -2.832 -1.2266  1.8654  0.3173
  495MOL0     H65322   6.860   3.837  -2.022  0.0664  1.8439  1.0995
  495MOL0     H65323   6.826   3.959  -1.811 -1.3279 -1.2730 -0.6472
  495MOL0     H65324   6.583   3.992  -1.321 -1.3159 -0.6486  2.0513
  495MOL0     H65325   6.611   4.064  -1.102 -0.6921 -0.3914 -1.2132
  495MOL0     H65326   7.274   2.792   0.192  0.9082 -0.4037  0.9168
  495MOL0     H65327   7.332   2.560   0.254 -0.7761  0.6728  1.1196
  495MOL0     H65328   6.979   2.072   0.315  1.1455  0.4183  2.6188
  495MOL0     H65329   7.036   1.814   0.348  2.1460 -0.4092  2.1734
  495MOL0     H65330   7.207   1.598   0.058  0.2761 -1.6100  0.1809
  495MOL0     H65331   7.065   1.693   0.114  1.4426 -0.0452 -2.2628
  495MOL0     H65332   7.012   1.461   0.102 -4.3506 -0.3803  1.8243
  495MOL0     H65333   7.136   1.417   0.219 -1.2093 -2.3495 -1.0502
  495MOL0     H65334   6.879   1.592   0.270  4.2322  4.5158  1.9638
  495MOL0     H65335   6.995   1.553   0.387 -0.7832  2.0763  0.6408
  495MOL0     H65336   6.821   1.376   0.386  0.8696  4.8914 -0.2302
  495MOL0     H65337   6.876   1.321   0.229 -1.2050 -0.2653  0.5577
  495MOL0     H65338   7.125   1.107   0.457 -0.7788  0.1200  1.1581
  495MOL0     H65339   7.401   1.858   0.148 -0.0932 -0.3954  1.9259
  495MOL0     H65340   7.379   2.101   0.154 -0.1820  0.1911 -0.1546
  496MOL0     O65341   0.694   1.529   2.954 -0.8289  1.0398  0.5671
  496MOL0     C65342   0.721   1.444   3.045  1.2519  0.2729 -0.7142
  496MOL0     O65343   0.730   1.312   3.029 -0.6008 -1.0863  0.0103
  496MOL0     C65344   0.645   1.260   2.933  0.5395 -0.0211  0.5950
  496MOL0     C65345   0.530   1.191   2.962  0.4068 -0.2333  0.4170
  496MOL0     C65346   0.451   1.138   2.851  0.0108 -0.3200 -0.8291
  496MOL0     C65347   0.500   1.135   2.720 -0.4310 -0.8998  0.2391
  496MOL0     O65348   0.426   1.073   2.616 -0.3889  0.1362 -0.1713
  496MOL0     C65349   0.497   1.031   2.503 -0.3706 -0.1982  0.8370
  496MOL0     C65350   0.427   0.944   2.405  0.8095  0.7180  0.1766
  496MOL0     C65351   0.397   0.800   2.470  0.7881  0.1772  0.3826
  496MOL0     C65352   0.273   0.727   2.420  0.6769  0.5197  0.1183
  496MOL0     C65353   0.255   0.590   2.483 -0.3242 -0.7966 -0.2569
  496MOL0     C65354   0.115   0.533   2.491  0.5189  0.6585 -0.7354
  496MOL0     C65355   0.122   0.380   2.522  0.6444 -0.3973  0.9912
  496MOL0     C65356   0.226   0.342   2.632  0.3803 -0.6180  0.0767
  496MOL0     N65357   0.180   0.204   2.688  0.3415  0.5444  0.2985
  496MOL0     C65358   0.204   0.086   2.631  0.6341  0.8110  0.2647
  496MOL0     C65359   0.149  -0.001   2.715 -0.0375  0.4416  0.0096
  496MOL0     C65360   0.146  -0.153   2.692 -0.0501  0.5500 -0.0533
  496MOL0     C65361   0.219  -0.215   2.811 -0.4688  0.3275 -0.5059
  496MOL0     C65362   0.371  -0.216   2.779  0.2391 -0.1093 -0.3978
  496MOL0     C65363   0.448  -0.286   2.894 -1.1886 -0.2316  0.7266
  496MOL0     O65364   0.590  -0.306   2.864  0.0003 -0.4822  0.2073
  496MOL0     C65365   0.639  -0.420   2.926 -1.3612  0.4705  0.0829
  496MOL0     C65366   0.663  -0.418   3.062  1.1764 -0.1162  0.3440
  496MOL0     C65367   0.705  -0.533   3.122  0.5940  0.3799 -0.2785
  496MOL0     C65368   0.751  -0.646   3.052 -0.9055 -1.1009  0.3937
  496MOL0     C65369   0.825  -0.754   3.134  0.4795 -0.4371 -0.0571
  496MOL0     O65370   0.871  -0.859   3.054  0.1005  0.0930 -0.8144
  496MOL0     C65371   0.958  -0.946   3.114 -1.1033 -0.6884 -0.0984
  496MOL0     C65372   0.938  -1.088   3.101  1.2260 -0.2689  0.1230
  496MOL0     C65373   1.016  -1.177   3.170 -0.9147  0.6658  0.4474
  496MOL0     C65374   1.117  -1.140   3.251 -0.0678  0.3569 -0.1246
  496MOL0     O65375   1.208  -1.225   3.308  0.5326  0.6676  0.7482
  496MOL0     C65376   1.191  -1.370   3.282 -0.4440  0.3037  0.3031
  496MOL0     C65377   1.250  -1.392   3.142 -0.2192  0.3708  0.2211
  496MOL0     C65378   1.401  -1.428   3.119  1.2272  0.4383  0.0200
  496MOL0     C65379   1.482  -1.294   3.116  0.2314 -0.8652  0.6325
  496MOL0     C65380   1.636  -1.300   3.123  0.0914  0.4183 -0.5665
  496MOL0     C65381   1.701  -1.180   3.185  0.4163 -0.0401 -0.0109
  496MOL0     C65382   1.832  -1.143   3.109  0.3556  0.4236 -0.9562
  496MOL0     C65383   1.946  -1.239   3.117  0.1280 -0.2842 -0.2470
  496MOL0    Cl65384   1.925  -1.365   2.980  0.4327  0.3135  0.2914
  496MOL0     C65385   1.157  -1.003   3.249 -0.4552 -0.2281 -0.4034
  496MOL0     C65386   1.075  -0.903   3.182 -0.2256 -0.1959 -0.6089
  496MOL0     O65387   0.861  -0.728   3.254  0.0426  0.8124 -0.3155
  496MOL0     C65388   0.736  -0.641   2.915  0.5204  0.2195  0.8915
  496MOL0     C65389   0.674  -0.533   2.855 -0.2857  0.5389  0.5393
  496MOL0     N65390   0.097   0.060   2.833 -0.5173 -0.1652  0.1159
  496MOL0     N65391   0.117   0.190   2.801  1.3873  0.5732  0.3137
  496MOL0     C65392   0.624   1.204   2.700  1.1979  0.5132 -0.2629
  496MOL0     C65393   0.694   1.271   2.807  0.3501  0.4802  0.2984
  496MOL0     C65394   0.738   1.486   3.184 -0.6211  0.0012 -0.5375
  496MOL0     C65395   0.819   1.413   3.268  0.8647 -0.5802  0.2129
  496MOL0     C65396   0.838   1.472   3.392  0.4363 -0.0441 -0.4236
  496MOL0     C65397   0.783   1.590   3.440  0.3721 -0.0746 -0.1916
  496MOL0     O65398   0.812   1.629   3.569  0.5444  0.3132 -0.6029
  496MOL0     C65399   0.745   1.738   3.636  0.2732 -0.2077  0.4413
  496MOL0     C65400   0.817   1.788   3.760 -0.1603 -0.0176 -0.6999
  496MOL0     C65401   0.958   1.847   3.724 -0.3149  0.2102  0.1767
  496MOL0     C65402   1.044   1.873   3.855  1.1536  0.1501  0.4187
  496MOL0     C65403   0.969   1.967   3.945  0.4999  0.2232 -0.4697
  496MOL0     C65404   0.899   2.030   4.019  1.8152  0.3805 -0.8872
  496MOL0     C65405   0.689   1.654   3.358 -0.4880  1.0031 -0.4297
  496MOL0     C65406   0.674   1.605   3.225  0.0535 -0.8292  0.3024
  496MOL0     H65407   0.500   1.181   3.066 -1.0073  1.0709  0.1761
  496MOL0     H65408   0.358   1.092   2.884  1.4989 -1.0265  2.7528
  496MOL0     H65409   0.584   0.973   2.535  0.4329  0.6529  0.2298
  496MOL0     H65410   0.530   1.120   2.450 -0.1462 -0.5969  0.2965
  496MOL0     H65411   0.495   0.943   2.320 -0.3824  1.5520 -0.8274
  496MOL0     H65412   0.340   0.994   2.361  2.1155  2.6506 -0.2810
  496MOL0     H65413   0.388   0.812   2.578  0.3493 -0.6031  0.4386
  496MOL0     H65414   0.484   0.735   2.454  0.0346 -0.5005 -1.1999
  496MOL0     H65415   0.188   0.796   2.428  0.8413  1.1843 -2.7201
  496MOL0     H65416   0.273   0.712   2.312 -2.4029  0.5417  0.0034
  496MOL0     H65417   0.319   0.598   2.572 -0.9106 -3.1500  0.4674
  496MOL0     H65418   0.308   0.521   2.417  0.1578 -2.6660  1.9682
  496MOL0     H65419   0.067   0.561   2.397  1.4447  1.4988 -0.9758
  496MOL0     H65420   0.063   0.572   2.578 -0.6354 -0.7784 -0.7313
  496MOL0     H65421   0.021   0.348   2.550  1.2408 -0.6901  2.9934
  496MOL0     H65422   0.150   0.341   2.424 -2.5833  0.7511 -0.5659
  496MOL0     H65423   0.225   0.408   2.719 -0.6442  0.6961 -0.8930
  496MOL0     H65424   0.325   0.336   2.587 -0.4312 -2.1915 -1.6464
  496MOL0     H65425   0.257   0.061   2.540  0.5465 -1.6641  0.8007
  496MOL0     H65426   0.191  -0.165   2.594 -2.3352  0.3612 -1.1371
  496MOL0     H65427   0.044  -0.191   2.699 -0.7420  1.9080 -2.2329
  496MOL0     H65428   0.190  -0.320   2.818  1.0111 -0.0002  3.0744
  496MOL0     H65429   0.191  -0.169   2.907 -0.0851 -0.4293 -0.0184
  496MOL0     H65430   0.376  -0.292   2.701 -1.3882 -2.8534  1.9586
  496MOL0     H65431   0.416  -0.116   2.773 -2.5773  1.2612 -0.2663
  496MOL0     H65432   0.411  -0.388   2.904 -1.7607 -0.6841 -3.8755
  496MOL0     H65433   0.448  -0.226   2.985  2.0525  0.2662  0.5170
  496MOL0     H65434   0.655  -0.319   3.106  2.2831  0.6474 -1.0777
  496MOL0     H65435   0.711  -0.538   3.231  1.0237 -0.3090 -0.3235
  496MOL0     H65436   0.856  -1.145   3.057 -2.3711  2.4607  2.6243
  496MOL0     H65437   0.987  -1.282   3.167 -2.4167  1.0845 -1.0974
  496MOL0     H65438   1.089  -1.404   3.299  0.2288 -0.0481  4.5498
  496MOL0     H65439   1.245  -1.427   3.358 -2.6737 -2.9546 -0.3488
  496MOL0     H65440   1.224  -1.311   3.072 -0.0961 -2.4092 -3.3433
  496MOL0     H65441   1.208  -1.488   3.113  1.2253 -0.2937  0.2642
  496MOL0     H65442   1.412  -1.465   3.016 -1.0562 -0.5238  0.0628
  496MOL0     H65443   1.449  -1.487   3.197  0.1545  0.3797  0.6440
  496MOL0     H65444   1.460  -1.235   3.027 -2.0651 -0.1226  1.6310
  496MOL0     H65445   1.465  -1.226   3.199  1.6259  0.0608  0.1905
  496MOL0     H65446   1.667  -1.316   3.020 -1.2106  0.1783 -0.9330
  496MOL0     H65447   1.669  -1.393   3.171 -0.4963  0.9186  0.8779
  496MOL0     H65448   1.719  -1.199   3.291 -5.3824 -1.7143  1.0514
  496MOL0     H65449   1.636  -1.093   3.195  1.8329  0.8304  2.1933
  496MOL0     H65450   1.821  -1.106   3.007  4.0267  3.1080 -0.6004
  496MOL0     H65451   1.878  -1.062   3.167  1.3065 -1.5111  1.1782
  496MOL0     H65452   1.956  -1.289   3.214  1.8827 -2.9844 -1.6683
  496MOL0     H65453   2.048  -1.200   3.114  0.4970 -0.9575  1.7296
  496MOL0     H65454   1.247  -0.966   3.298  0.8823 -1.3567 -1.8929
  496MOL0     H65455   1.098  -0.797   3.186  0.3762 -0.3498  0.3305
  496MOL0     H65456   0.761  -0.727   2.853  1.4043  0.3835  1.0123
  496MOL0     H65457   0.665  -0.523   2.747 -3.5513  0.4434  0.6808
  496MOL0     H65458   0.664   1.212   2.599  2.4882  1.0634  0.2674
  496MOL0     H65459   0.771   1.343   2.782 -0.3867  0.7790 -1.2751
  496MOL0     H65460   0.864   1.315   3.256  0.6426 -1.0459  2.6963
  496MOL0     H65461   0.902   1.417   3.460 -1.5767  0.1384  1.7621
  496MOL0     H65462   0.642   1.715   3.664 -0.4622  0.3568 -1.5866
  496MOL0     H65463   0.733   1.826   3.572  0.4251 -1.9364 -2.1045
  496MOL0     H65464   0.755   1.846   3.829 -0.4931 -1.3748  0.1772
  496MOL0     H65465   0.838   1.691   3.807 -0.2250 -0.8084 -2.2493
  496MOL0     H65466   0.937   1.936   3.663 -3.4238 -0.0947  0.6194
  496MOL0     H65467   1.001   1.780   3.649 -0.9780  0.4239 -0.4115
  496MOL0     H65468   1.079   1.782   3.903  0.7129 -0.0055  0.4568
  496MOL0     H65469   1.132   1.935   3.836  0.6552  1.3877  1.9616
  496MOL0     H65470   0.841   2.099   4.078  0.4519 -0.6496 -0.9794
  496MOL0     H65471   0.652   1.754   3.381  1.6617  1.4280  1.6442
  496MOL0     H65472   0.614   1.671   3.162 -0.8026 -3.4838 -1.8231
  497MOL0     O65473  10.415   0.905   9.865  0.3097 -0.4541  0.5999
  497MOL0     C65474  10.441   0.804   9.803 -0.0960 -0.4149 -0.2191
  497MOL0     O65475  10.350   0.733   9.719 -0.4054 -1.4370 -0.6375
  497MOL0     C65476  10.254   0.804   9.651 -0.6971 -1.3890 -0.1841
  497MOL0     C65477  10.274   0.933   9.601 -0.6073 -0.1417  0.0748
  497MOL0     C65478  10.173   1.015   9.548  1.1082 -0.4629  0.3672
  497MOL0     C65479  10.050   0.951   9.524 -0.6995 -0.8209 -0.4319
  497MOL0     O65480   9.938   1.013   9.472 -0.6799 -0.2206  0.3537
  497MOL0     C65481   9.985   1.102   9.364  0.5267  0.4582 -0.2477
  497MOL0     C65482   9.857   1.120   9.275  0.7609 -0.5337  0.0817
  497MOL0     C65483   9.806   0.991   9.215 -0.2268  0.0792  0.1006
  497MOL0     C65484   9.681   1.011   9.126 -0.4135 -0.1079  0.0738
  497MOL0     C65485   9.633   0.880   9.080  0.5111  0.0176  0.1714
  497MOL0     C65486   9.489   0.868   9.026 -0.0044 -0.1756 -0.7409
  497MOL0     C65487   9.446   0.731   8.967  0.6628 -0.3655  0.9798
  497MOL0     C65488   9.460   0.615   9.058  0.0486 -0.9185  0.5428
  497MOL0     N65489   9.381   0.497   9.017 -0.7934 -0.7794  0.2194
  497MOL0     C65490   9.261   0.492   8.943  0.1699  0.0283 -0.1111
  497MOL0     C65491   9.230   0.360   8.936  0.0077  1.0280 -0.6043
  497MOL0     C65492   9.100   0.310   8.870  0.0340  1.4662 -0.2860
  497MOL0     C65493   9.102   0.156   8.830 -0.8358 -0.5745 -0.0552
  497MOL0     C65494   8.981   0.109   8.766  0.1124 -0.5738 -0.7665
  497MOL0     C65495   8.988  -0.034   8.714 -0.2159 -0.1658 -0.3858
  497MOL0     O65496   9.075  -0.025   8.603 -0.7321 -1.4055 -0.4716
  497MOL0     C65497   9.088  -0.118   8.501 -0.2519 -0.3751  0.9015
  497MOL0     C65498   9.028  -0.246   8.500 -0.5296 -0.2927 -0.1125
  497MOL0     C65499   9.051  -0.347   8.403 -0.6625  0.4390 -0.7422
  497MOL0     C65500   9.126  -0.315   8.284 -0.6211  0.3990 -0.0383
  497MOL0     C65501   9.138  -0.405   8.166 -0.2411  0.0374 -0.4241
  497MOL0     O65502   9.208  -0.352   8.060  0.5479  0.2368 -0.1207
  497MOL0     C65503   9.222  -0.431   7.953 -0.5990 -0.7017  1.0422
  497MOL0     C65504   9.129  -0.505   7.892  0.6027  0.9797 -0.1640
  497MOL0     C65505   9.149  -0.569   7.770  0.3783  0.5203 -0.1613
  497MOL0     C65506   9.275  -0.567   7.707 -0.4387 -0.4263 -0.1801
  497MOL0     O65507   9.320  -0.634   7.594  0.5653 -0.3639 -0.0005
  497MOL0     C65508   9.226  -0.678   7.491 -0.3348  0.6308 -0.4957
  497MOL0     C65509   9.159  -0.572   7.407 -0.4308 -0.6476  0.1436
  497MOL0     C65510   9.265  -0.478   7.341  0.5989 -0.0636 -1.2196
  497MOL0     C65511   9.190  -0.378   7.248 -0.2968  0.0801 -0.4538
  497MOL0     C65512   9.261  -0.247   7.202  0.1321 -0.4919 -0.8184
  497MOL0     C65513   9.186  -0.145   7.114 -0.1676 -0.4092 -0.0340
  497MOL0     C65514   9.059  -0.083   7.173  0.0263  0.1883 -1.4463
  497MOL0     C65515   8.942  -0.149   7.123  0.3694  0.5760 -0.3336
  497MOL0    Cl65516   8.790  -0.065   7.186 -0.1930 -0.0233 -0.3622
  497MOL0     C65517   9.373  -0.490   7.767  0.0456 -0.0049 -0.0644
  497MOL0     C65518   9.353  -0.423   7.892  0.0587  0.3442 -0.3649
  497MOL0     O65519   9.087  -0.521   8.172  0.0410 -0.1201 -0.0398
  497MOL0     C65520   9.190  -0.190   8.290  0.0790  0.6016 -0.7086
  497MOL0     C65521   9.160  -0.091   8.385  0.2777 -0.2039 -0.2572
  497MOL0     N65522   9.323   0.285   9.009  0.0841  0.2638 -0.0105
  497MOL0     N65523   9.412   0.371   9.053  0.1280  0.5111  0.2865
  497MOL0     C65524  10.028   0.822   9.571  0.2522 -0.0540 -0.9903
  497MOL0     C65525  10.132   0.749   9.631 -0.4051  0.2957 -0.4043
  497MOL0     C65526  10.559   0.734   9.844  0.4601 -1.1733 -0.5945
  497MOL0     C65527  10.564   0.598   9.828 -0.0899  0.7477 -0.2969
  497MOL0     C65528  10.679   0.531   9.881 -0.4775  0.1175  0.6592
  497MOL0     C65529  10.792   0.598   9.920 -0.8007 -0.4761 -0.8139
  497MOL0     O65530  10.906   0.530   9.948  0.4975  0.2197 -0.0266
  497MOL0     C65531  10.916   0.459  10.066 -0.3438 -0.7182  0.8449
  497MOL0     C65532  10.993   0.552  10.164  0.6535  0.6598 -0.2300
  497MOL0     C65533  11.007   0.511  10.308 -0.7800  0.1655  0.3592
  497MOL0     C65534  11.063   0.374  10.323  0.3258 -0.0287 -0.1407
  497MOL0     C65535  11.094   0.347  10.461 -0.2445 -0.1436  0.1826
  497MOL0     C65536  11.141   0.336  10.579  0.4750  0.1250  0.4649
  497MOL0     C65537  10.787   0.736   9.927  0.3750  0.4107  0.0188
  497MOL0     C65538  10.669   0.801   9.899  0.0565 -0.1398  0.4782
  497MOL0     H65539  10.360   0.992   9.632 -0.5312  0.3242 -1.0090
  497MOL0     H65540  10.184   1.122   9.534  0.1309 -0.4566 -0.4799
  497MOL0     H65541  10.071   1.063   9.308 -0.0376 -0.4389 -0.5228
  497MOL0     H65542  10.003   1.199   9.412 -0.6125  0.0955  0.9758
  497MOL0     H65543   9.885   1.198   9.203  2.9847  0.3802  1.8152
  497MOL0     H65544   9.780   1.167   9.336  2.6689 -0.9264  3.0001
  497MOL0     H65545   9.768   0.931   9.298 -3.4043 -1.3502 -2.1763
  497MOL0     H65546   9.892   0.947   9.164 -0.3021  0.0212  0.0210
  497MOL0     H65547   9.605   1.062   9.187  1.3362  0.7924  1.6193
  497MOL0     H65548   9.706   1.079   9.044 -0.4859 -1.7908 -1.3960
  497MOL0     H65549   9.628   0.816   9.170  0.8003  0.7985  0.7502
  497MOL0     H65550   9.702   0.844   9.003  2.6572  2.1012  1.0156
  497MOL0     H65551   9.499   0.947   8.950  0.7925  1.9643  1.4565
  497MOL0     H65552   9.422   0.908   9.102 -1.4991  0.2521 -2.2141
  497MOL0     H65553   9.340   0.749   8.945  1.4663  2.2221 -1.4081
  497MOL0     H65554   9.506   0.709   8.878  0.5061  0.9311  0.5272
  497MOL0     H65555   9.453   0.641   9.164 -1.0564 -0.3828  0.3437
  497MOL0     H65556   9.564   0.585   9.038 -0.4335 -2.0243 -0.4120
  497MOL0     H65557   9.207   0.569   8.889 -0.4426 -1.9353 -2.4728
  497MOL0     H65558   9.100   0.371   8.779  2.2982  0.2795 -1.1705
  497MOL0     H65559   9.023   0.327   8.945  0.8865 -2.1573  1.6053
  497MOL0     H65560   9.113   0.102   8.924  0.0875  2.1684  1.5079
  497MOL0     H65561   9.188   0.139   8.766 -1.2161  1.8661 -1.3454
  497MOL0     H65562   8.895   0.114   8.832  1.2639  1.4067  0.6793
  497MOL0     H65563   8.951   0.185   8.693  0.0444  0.1252 -0.0153
  497MOL0     H65564   8.891  -0.074   8.683 -0.9028  0.9872  0.2299
  497MOL0     H65565   9.034  -0.116   8.771 -2.2433 -0.2324  1.2710
  497MOL0     H65566   8.975  -0.287   8.586 -0.6411 -2.1163 -1.0168
  497MOL0     H65567   8.996  -0.440   8.413 -0.3428  0.4475  1.5668
  497MOL0     H65568   9.031  -0.515   7.937  0.2672 -1.7987 -1.3316
  497MOL0     H65569   9.069  -0.631   7.728 -2.4799  2.7714  1.6090
  497MOL0     H65570   9.144  -0.728   7.543 -0.0335  0.2514 -0.3808
  497MOL0     H65571   9.276  -0.753   7.429  1.3433  1.5442 -0.3342
  497MOL0     H65572   9.090  -0.518   7.471 -0.1440  1.2520 -1.0762
  497MOL0     H65573   9.095  -0.623   7.335 -0.4366  1.4500 -1.4101
  497MOL0     H65574   9.349  -0.529   7.294  2.8498  2.9125 -0.7030
  497MOL0     H65575   9.294  -0.421   7.429 -0.1390 -2.4431  0.6543
  497MOL0     H65576   9.155  -0.436   7.163 -0.0305  2.6332 -2.4262
  497MOL0     H65577   9.106  -0.340   7.306  1.0619 -0.7678  2.2620
  497MOL0     H65578   9.353  -0.270   7.147  0.9247 -1.6133  0.8898
  497MOL0     H65579   9.290  -0.196   7.294 -1.4663 -1.2507  0.1342
  497MOL0     H65580   9.163  -0.199   7.022  2.1608 -0.6531 -0.5252
  497MOL0     H65581   9.257  -0.063   7.101  1.0628 -1.2912  0.8627
  497MOL0     H65582   9.058  -0.084   7.282  2.1692 -1.6623 -1.3733
  497MOL0     H65583   9.071   0.021   7.143 -2.1562  2.3861  4.0727
  497MOL0     H65584   8.930  -0.248   7.169 -1.6542  1.0612  0.2722
  497MOL0     H65585   8.934  -0.157   7.015 -0.5330  2.7702 -0.4757
  497MOL0     H65586   9.469  -0.481   7.717  0.1342 -0.9554 -0.0844
  497MOL0     H65587   9.437  -0.368   7.932 -0.2824 -0.0918  1.0129
  497MOL0     H65588   9.261  -0.153   8.217 -0.3434 -1.5459 -2.3153
  497MOL0     H65589   9.197   0.010   8.370 -1.8249  0.6796  0.2405
  497MOL0     H65590   9.932   0.773   9.562 -0.3678  0.7190  0.8377
  497MOL0     H65591  10.101   0.649   9.661 -4.1389  1.3201 -0.3123
  497MOL0     H65592  10.485   0.560   9.764 -3.2458  3.2964  1.8244
  497MOL0     H65593  10.700   0.427   9.857  1.1458 -0.0697  2.6388
  497MOL0     H65594  10.968   0.366  10.040  0.9397  0.9920 -3.4463
  497MOL0     H65595  10.823   0.424  10.113 -2.0190 -0.7995 -2.2753
  497MOL0     H65596  11.093   0.565  10.123  1.0047  2.8455  1.1631
  497MOL0     H65597  10.946   0.650  10.173 -0.1676  0.0975  2.6063
  497MOL0     H65598  10.914   0.532  10.360 -1.9801  1.6440 -2.1784
  497MOL0     H65599  11.081   0.581  10.349 -0.5853  0.5135 -0.5628
  497MOL0     H65600  10.998   0.295  10.283  1.8775 -1.2271 -0.3745
  497MOL0     H65601  11.155   0.349  10.270 -0.3111  0.3865 -1.5144
  497MOL0     H65602  11.165   0.327  10.683 -0.7089  2.9179  1.0551
  497MOL0     H65603  10.873   0.790   9.963  0.5750 -0.0810  0.2936
  497MOL0     H65604  10.686   0.908   9.914  0.4646  0.2093 -1.9691
  498MOL0     O65605  11.325   7.077   0.813  0.2616 -0.8675  0.3149
  498MOL0     C65606  11.297   6.977   0.741 -0.4182  0.2961 -0.3463
  498MOL0     O65607  11.379   6.868   0.732 -0.6966  0.1221  0.3452
  498MOL0     C65608  11.494   6.872   0.805 -0.0789  0.2488 -0.2823
  498MOL0     C65609  11.489   6.823   0.933  1.2372 -0.1262 -1.5225
  498MOL0     C65610  11.606   6.823   1.012  0.4966 -0.1273  0.0736
  498MOL0     C65611  11.723   6.881   0.970 -0.0516 -0.5737  0.2097
  498MOL0     O65612  11.827   6.906   1.059 -0.7859  0.2551  0.8512
  498MOL0     C65613  11.961   6.902   0.995  0.2694 -0.4866  0.8485
  498MOL0     C65614  12.074   6.911   1.097  0.1342 -1.0624  0.2006
  498MOL0     C65615  12.207   6.866   1.035 -0.5811 -0.9724  0.6651
  498MOL0     C65616  12.320   6.861   1.135 -0.5132  0.1863 -0.5554
  498MOL0     C65617  12.453   6.833   1.068 -0.4678 -0.0412 -0.1518
  498MOL0     C65618  12.564   6.874   1.155  0.4486 -0.2266  0.0510
  498MOL0     C65619  12.587   6.774   1.266 -0.3361  0.2566  0.1331
  498MOL0     C65620  12.733   6.799   1.312  0.2658  0.1259  0.5117
  498MOL0     N65621  12.836   6.745   1.214  1.2661 -0.6139  0.2155
  498MOL0     C65622  12.846   6.622   1.159  0.1849  0.9254  0.9684
  498MOL0     C65623  12.960   6.631   1.086 -0.4910  0.1457  0.2256
  498MOL0     C65624  13.007   6.522   0.996  0.3751 -0.3019  0.7252
  498MOL0     C65625  13.078   6.574   0.880 -0.0896  0.5241 -0.0546
  498MOL0     C65626  13.145   6.460   0.807 -0.0244 -0.0036  0.6995
  498MOL0     C65627  13.183   6.499   0.667 -0.1750 -0.3350  1.2478
  498MOL0     O65628  13.279   6.618   0.681  0.2847  0.4959  0.2324
  498MOL0     C65629  13.362   6.638   0.576  0.6137  0.2479 -0.5792
  498MOL0     C65630  13.473   6.718   0.607  0.9908  0.2802  0.7060
  498MOL0     C65631  13.567   6.746   0.511 -0.0272  0.9332 -0.6990
  498MOL0     C65632  13.546   6.697   0.382 -1.1409 -0.0520  0.3276
  498MOL0     C65633  13.642   6.738   0.279  0.4092 -0.2312  0.0335
  498MOL0     O65634  13.602   6.727   0.144  0.5304  0.8116 -0.6091
  498MOL0     C65635  13.706   6.728   0.056 -0.2429  0.4305 -0.9838
  498MOL0     C65636  13.799   6.845   0.046 -0.5657  0.4259  0.6390
  498MOL0     C65637  13.908   6.836  -0.042 -0.4427 -0.0952 -0.2980
  498MOL0     C65638  13.938   6.722  -0.115 -0.1873  0.9673 -0.0025
  498MOL0     O65639  14.040   6.712  -0.205 -0.5348 -0.0410  0.1224
  498MOL0     C65640  13.997   6.722  -0.346  0.3285 -0.1696  0.0713
  498MOL0     C65641  14.100   6.645  -0.431  0.8643  0.3441  0.4376
  498MOL0     C65642  14.133   6.501  -0.390 -0.2548 -0.2680 -0.0714
  498MOL0     C65643  14.011   6.411  -0.414 -0.4025 -0.6115  0.2938
  498MOL0     C65644  14.029   6.268  -0.374  0.1258  0.1909  0.0767
  498MOL0     C65645  14.034   6.226  -0.225 -0.2343 -1.3507 -0.2467
  498MOL0     C65646  14.111   6.098  -0.201 -0.6996  0.7751  0.1882
  498MOL0     C65647  14.026   5.966  -0.230 -0.0572 -0.4879  0.2380
  498MOL0    Cl65648  14.100   5.827  -0.138  0.4056  0.0226  0.4088
  498MOL0     C65649  13.845   6.605  -0.108  0.7469  0.5766 -0.7418
  498MOL0     C65650  13.726   6.610  -0.018  0.4099  1.1361  1.3038
  498MOL0     O65651  13.747   6.776   0.322 -0.1434  0.5691  1.1741
  498MOL0     C65652  13.437   6.622   0.347  0.3266  0.7358  0.8800
  498MOL0     C65653  13.337   6.596   0.449 -0.3561  1.1568  0.8267
  498MOL0     N65654  13.008   6.757   1.086 -0.7066 -0.3160  0.7462
  498MOL0     N65655  12.928   6.822   1.155  0.8947 -0.1801 -0.2732
  498MOL0     C65656  11.726   6.928   0.836 -0.2641 -0.8387  0.1515
  498MOL0     C65657  11.615   6.929   0.754 -0.8727 -0.2569 -0.2506
  498MOL0     C65658  11.175   6.989   0.664  0.4105  0.0262  0.3384
  498MOL0     C65659  11.092   7.098   0.659 -1.0676 -0.3391  0.7201
  498MOL0     C65660  10.978   7.108   0.578 -0.1878  1.3409  0.1537
  498MOL0     C65661  10.941   6.996   0.498  0.0588 -0.0847  0.9282
  498MOL0     O65662  10.846   7.013   0.405 -0.6423  0.5835  0.1297
  498MOL0     C65663  10.767   6.900   0.358  0.2552  0.5803  0.4365
  498MOL0     C65664  10.659   6.952   0.257 -0.6551  0.5995  0.1180
  498MOL0     C65665  10.580   7.063   0.324  0.2197 -0.6699  0.1438
  498MOL0     C65666  10.522   7.150   0.210  0.3341 -0.4871  0.7361
  498MOL0     C65667  10.476   7.277   0.273  0.6256  0.2410 -0.3943
  498MOL0     C65668  10.459   7.384   0.331  0.8178 -0.5130 -0.8212
  498MOL0     C65669  11.021   6.883   0.505  0.3109  0.2759 -0.1243
  498MOL0     C65670  11.132   6.874   0.594  0.9619 -0.2603 -0.3667
  498MOL0     H65671  11.397   6.774   0.962  2.2243 -3.3564 -3.2678
  498MOL0     H65672  11.596   6.766   1.104 -0.0992  0.2139  0.2227
  498MOL0     H65673  11.972   6.996   0.939  2.8247 -1.4607 -0.4343
  498MOL0     H65674  11.980   6.818   0.928 -1.9184 -2.0677  2.0855
  498MOL0     H65675  12.053   6.851   1.186 -2.1240  1.8333  1.8063
  498MOL0     H65676  12.081   7.018   1.117  0.6493 -0.8496 -1.0461
  498MOL0     H65677  12.239   6.929   0.951  1.6896 -4.5217 -1.4125
  498MOL0     H65678  12.186   6.768   0.991 -0.9362 -1.6303  2.2408
  498MOL0     H65679  12.322   6.954   1.192  3.7380 -0.1457  0.1975
  498MOL0     H65680  12.297   6.789   1.214 -2.6958 -1.0735 -2.2128
  498MOL0     H65681  12.458   6.886   0.972 -1.9423 -0.3570 -0.4257
  498MOL0     H65682  12.463   6.725   1.050 -1.6374  0.1312 -2.1129
  498MOL0     H65683  12.535   6.969   1.201 -1.6818 -0.4505 -0.7111
  498MOL0     H65684  12.653   6.881   1.093  0.9160 -2.0281  0.4653
  498MOL0     H65685  12.523   6.791   1.353  0.2378 -1.2913  0.8931
  498MOL0     H65686  12.581   6.671   1.229 -1.8050 -1.1506  3.8468
  498MOL0     H65687  12.745   6.746   1.406 -1.1129 -0.5665  0.3146
  498MOL0     H65688  12.757   6.904   1.333 -0.7433  0.3933  0.3516
  498MOL0     H65689  12.777   6.540   1.179 -0.1616  0.4451 -1.7686
  498MOL0     H65690  12.919   6.477   0.950 -0.5483  1.5153  0.6136
  498MOL0     H65691  13.060   6.449   1.057  0.3050  1.1548  2.6684
  498MOL0     H65692  13.154   6.643   0.918  1.2534 -1.5124  1.1913
  498MOL0     H65693  13.009   6.620   0.808  4.2118  2.9732 -3.0924
  498MOL0     H65694  13.231   6.423   0.863 -0.8279 -1.2177  1.1904
  498MOL0     H65695  13.072   6.378   0.799  1.3006 -1.0910 -1.0110
  498MOL0     H65696  13.096   6.539   0.615 -0.1939  2.0369  2.9262
  498MOL0     H65697  13.226   6.421   0.604  1.4266  2.3444 -1.2011
  498MOL0     H65698  13.494   6.771   0.700  4.2981  1.4116 -0.5524
  498MOL0     H65699  13.648   6.808   0.547  1.5371 -0.8580 -0.9194
  498MOL0     H65700  13.784   6.934   0.106  4.1756  2.5475 -0.8449
  498MOL0     H65701  13.971   6.923  -0.054 -0.3731 -0.2216 -0.8885
  498MOL0     H65702  13.989   6.826  -0.377 -1.1721  0.3632  2.0418
  498MOL0     H65703  13.905   6.666  -0.365  0.9451 -0.7554 -1.3832
  498MOL0     H65704  14.190   6.708  -0.429 -0.8060  2.8920 -0.0421
  498MOL0     H65705  14.071   6.651  -0.536 -1.6698 -0.5800  1.0158
  498MOL0     H65706  14.165   6.494  -0.285  2.8271 -4.8085 -0.9825
  498MOL0     H65707  14.227   6.469  -0.435  2.8884  4.3541  2.3636
  498MOL0     H65708  13.920   6.449  -0.368 -0.6805 -0.4560 -0.3636
  498MOL0     H65709  13.998   6.424  -0.522  1.2299  0.0228  0.1400
  498MOL0     H65710  14.116   6.227  -0.426 -1.1953  0.2491 -2.3562
  498MOL0     H65711  13.949   6.203  -0.410  0.9700 -2.4158  2.5297
  498MOL0     H65712  13.937   6.212  -0.176  0.4278 -1.7478  0.9911
  498MOL0     H65713  14.069   6.305  -0.158  0.7084 -4.0996  2.8191
  498MOL0     H65714  14.210   6.095  -0.246 -1.2026 -2.1494 -0.9572
  498MOL0     H65715  14.130   6.089  -0.094  1.9625 -4.2655 -0.3829
  498MOL0     H65716  14.030   5.947  -0.338 -0.3458 -0.5754  0.2426
  498MOL0     H65717  13.921   5.983  -0.209 -0.4730  1.6817 -2.8262
  498MOL0     H65718  13.851   6.515  -0.168 -2.7772  1.0069 -1.9882
  498MOL0     H65719  13.650   6.533  -0.006 -0.0507  1.2504 -0.5131
  498MOL0     H65720  13.429   6.593   0.243  2.2736 -2.5114  1.5123
  498MOL0     H65721  13.238   6.555   0.427 -0.1049  2.0029 -2.4298
  498MOL0     H65722  11.814   6.972   0.789 -1.6547  0.7947 -1.0347
  498MOL0     H65723  11.625   6.960   0.650  3.3482  0.3014  0.1572
  498MOL0     H65724  11.130   7.182   0.717 -1.8113 -0.2874  1.1501
  498MOL0     H65725  10.915   7.196   0.573  0.0661  1.4874 -0.5240
  498MOL0     H65726  10.703   6.858   0.435 -1.5267 -0.0218 -1.3074
  498MOL0     H65727  10.838   6.823   0.325  0.3473  0.1825  1.5065
  498MOL0     H65728  10.693   6.979   0.157 -1.2884  0.3917 -0.1609
  498MOL0     H65729  10.579   6.878   0.247 -1.9238  1.6906  1.7244
  498MOL0     H65730  10.644   7.130   0.382  0.3496 -0.0162 -0.7390
  498MOL0     H65731  10.498   7.019   0.382 -2.7525 -3.8539 -5.6021
  498MOL0     H65732  10.594   7.173   0.131 -2.3075 -0.7960 -1.9114
  498MOL0     H65733  10.444   7.090   0.163  0.3383 -2.6809  3.2622
  498MOL0     H65734  10.453   7.481   0.375  0.4802  1.3291 -4.4910
  498MOL0     H65735  11.000   6.796   0.444 -1.2861  2.9320 -3.7400
  498MOL0     H65736  11.192   6.784   0.602  1.6546  0.0201 -2.0018
  499MOL0     O65737   6.485   8.626   6.934 -0.0127  0.0548  0.3939
  499MOL0     C65738   6.571   8.703   6.978  0.7644  0.2210 -0.6081
  499MOL0     O65739   6.611   8.706   7.108 -0.0356  0.0569 -0.0406
  499MOL0     C65740   6.558   8.613   7.189 -0.0863 -0.2530 -0.9024
  499MOL0     C65741   6.498   8.673   7.294 -0.2896 -0.6758 -0.3129
  499MOL0     C65742   6.467   8.604   7.411  0.9561  0.7502  0.1752
  499MOL0     C65743   6.467   8.467   7.406  0.1187  1.0712 -0.1121
  499MOL0     O65744   6.427   8.387   7.514  0.0808 -0.2719  0.2473
  499MOL0     C65745   6.453   8.442   7.648 -0.7022  0.2991  0.3932
  499MOL0     C65746   6.497   8.325   7.733 -1.1025 -0.1482 -0.2580
  499MOL0     C65747   6.376   8.242   7.790 -0.0253  0.3788 -0.3157
  499MOL0     C65748   6.400   8.094   7.838  0.4855 -0.0078 -0.3522
  499MOL0     C65749   6.517   8.080   7.937  0.1816  0.6527 -0.5181
  499MOL0     C65750   6.484   8.141   8.071  0.5580  0.8589 -1.0256
  499MOL0     C65751   6.552   8.080   8.193 -0.2329 -0.8822  0.5000
  499MOL0     C65752   6.495   7.940   8.216 -0.6669  0.4230 -0.3007
  499MOL0     N65753   6.492   7.901   8.357  0.0770  0.1828  0.0792
  499MOL0     C65754   6.500   7.771   8.395  0.9903  0.7005 -1.0141
  499MOL0     C65755   6.456   7.771   8.516  0.5727  1.0897 -0.0349
  499MOL0     C65756   6.453   7.664   8.615 -0.0609 -0.0897 -0.1553
  499MOL0     C65757   6.346   7.565   8.614 -0.0711 -0.1837 -0.3846
  499MOL0     C65758   6.351   7.479   8.740  0.4673  0.5305 -0.7114
  499MOL0     C65759   6.334   7.550   8.883 -0.8416  0.2887  0.6207
  499MOL0     O65760   6.231   7.642   8.861 -0.0755  0.8016 -0.1504
  499MOL0     C65761   6.201   7.712   8.976 -0.5616 -0.8134  0.0135
  499MOL0     C65762   6.069   7.752   8.975 -0.5350 -1.3628  0.2257
  499MOL0     C65763   6.008   7.821   9.084  0.2132 -0.7639  0.0388
  499MOL0     C65764   6.082   7.828   9.199 -0.3635 -0.0865 -0.1972
  499MOL0     C65765   6.021   7.885   9.325 -0.3867  0.1930 -0.1916
  499MOL0     O65766   5.947   7.997   9.320  0.8472 -0.7000 -0.1411
  499MOL0     C65767   5.886   8.047   9.435 -0.0310 -0.3095  0.7579
  499MOL0     C65768   5.767   7.988   9.491  0.2605  0.1369  0.1125
  499MOL0     C65769   5.714   8.026   9.613 -0.5029 -0.1413  0.9633
  499MOL0     C65770   5.772   8.128   9.688 -0.2106  0.0161  0.5258
  499MOL0     O65771   5.713   8.156   9.818  0.2796 -0.6784 -0.7593
  499MOL0     C65772   5.718   8.289   9.874  0.1826  0.1991 -0.4339
  499MOL0     C65773   5.674   8.274  10.024 -0.0658 -0.0018 -0.2814
  499MOL0     C65774   5.653   8.401  10.097  1.3407  0.1659  0.6151
  499MOL0     C65775   5.778   8.491  10.111  0.2748 -0.0013  0.9118
  499MOL0     C65776   5.899   8.423  10.174 -0.5817  0.9567 -1.2692
  499MOL0     C65777   6.009   8.518  10.173 -0.0266  0.0840 -0.5636
  499MOL0     C65778   6.144   8.449  10.198 -0.3838 -0.6675  0.4405
  499MOL0     C65779   6.206   8.375  10.075  0.5395 -0.0820  0.2592
  499MOL0    Cl65780   6.363   8.321  10.122 -0.3200 -0.2878 -0.2257
  499MOL0     C65781   5.889   8.190   9.629  0.4201 -0.3994  0.5145
  499MOL0     C65782   5.952   8.142   9.513  0.9639 -0.6511  0.1953
  499MOL0     O65783   6.047   7.837   9.434 -0.5532 -0.3207  0.0572
  499MOL0     C65784   6.210   7.765   9.214  0.3786  0.8012  1.1978
  499MOL0     C65785   6.269   7.711   9.098  0.6647 -0.5344 -0.0879
  499MOL0     N65786   6.405   7.900   8.545 -0.4437  0.2362 -0.1624
  499MOL0     N65787   6.413   7.974   8.438 -0.0343  0.0853 -0.7947
  499MOL0     C65788   6.514   8.402   7.296  0.4872 -0.0369 -0.5536
  499MOL0     C65789   6.567   8.475   7.187 -0.3902 -0.4414  0.1543
  499MOL0     C65790   6.598   8.817   6.885  0.3211 -0.3207 -0.4663
  499MOL0     C65791   6.663   8.927   6.931 -0.0260  0.4884 -0.6357
  499MOL0     C65792   6.681   9.041   6.855 -0.7657 -0.0189  0.3615
  499MOL0     C65793   6.636   9.042   6.720  0.4141  0.0770 -0.9129
  499MOL0     O65794   6.645   9.140   6.628  0.0237  0.1125 -0.8315
  499MOL0     C65795   6.700   9.266   6.663  0.1416 -0.1665 -0.1956
  499MOL0     C65796   6.776   9.324   6.550  0.3624  0.9279 -0.2859
  499MOL0     C65797   6.807   9.477   6.546  1.3652  0.3227  0.2455
  499MOL0     C65798   6.890   9.524   6.423  0.0663  0.5588 -0.0925
  499MOL0     C65799   7.027   9.485   6.448  0.5991 -0.8064  0.0273
  499MOL0     C65800   7.142   9.437   6.440  0.1978  0.0260  0.7374
  499MOL0     C65801   6.564   8.931   6.675  0.6670  0.9301  0.9038
  499MOL0     C65802   6.546   8.814   6.761  0.4632 -0.5630  0.5899
  499MOL0     H65803   6.487   8.781   7.291 -3.4654 -0.9031 -3.2541
  499MOL0     H65804   6.419   8.658   7.491  1.8315  1.0658  0.4999
  499MOL0     H65805   6.357   8.473   7.690 -0.3019  2.6511 -0.3258
  499MOL0     H65806   6.525   8.524   7.650  0.8569 -1.0017  0.0826
  499MOL0     H65807   6.569   8.372   7.800  2.9126 -1.8725 -2.9381
  499MOL0     H65808   6.563   8.262   7.672  0.5360 -1.3325  2.5747
  499MOL0     H65809   6.299   8.243   7.713 -3.4178  0.0225  2.8111
  499MOL0     H65810   6.332   8.300   7.871 -0.2509 -0.8743  0.4861
  499MOL0     H65811   6.306   8.058   7.882  1.1641  1.3077  2.3808
  499MOL0     H65812   6.426   8.035   7.750  0.6987 -2.2513  1.1320
  499MOL0     H65813   6.607   8.127   7.897 -0.6915  0.1447 -3.2491
  499MOL0     H65814   6.545   7.975   7.950  1.5429  1.0973  0.3768
  499MOL0     H65815   6.377   8.132   8.090  0.5129  3.2208  0.2761
  499MOL0     H65816   6.492   8.250   8.073  0.4897  0.9703  3.2019
  499MOL0     H65817   6.660   8.069   8.180 -0.1507  1.3147 -1.1382
  499MOL0     H65818   6.549   8.152   8.275 -2.5009 -0.5562  0.1811
  499MOL0     H65819   6.553   7.866   8.160 -0.0643  0.4115  0.3223
  499MOL0     H65820   6.393   7.932   8.178  0.0237  0.8225 -2.3862
  499MOL0     H65821   6.553   7.687   8.352 -0.0229 -0.7208  0.3924
  499MOL0     H65822   6.435   7.714   8.711 -1.8789  3.2768 -2.1035
  499MOL0     H65823   6.547   7.608   8.617 -0.0694 -0.1223 -0.6314
  499MOL0     H65824   6.355   7.506   8.522  2.1151 -0.2859 -0.1716
  499MOL0     H65825   6.247   7.610   8.614 -0.8839 -1.8754 -0.3063
  499MOL0     H65826   6.264   7.414   8.730 -0.7287  1.5030  2.2707
  499MOL0     H65827   6.447   7.427   8.749  0.1855 -0.3611 -2.4251
  499MOL0     H65828   6.426   7.600   8.916 -1.9432  0.9409  2.9052
  499MOL0     H65829   6.301   7.478   8.958  0.4200 -0.1568  0.7793
  499MOL0     H65830   6.029   7.759   8.875 -0.3938  2.8985  0.2796
  499MOL0     H65831   5.908   7.863   9.085  1.1819  1.7130  0.0013
  499MOL0     H65832   5.709   7.921   9.428 -3.4319  4.7444 -1.9556
  499MOL0     H65833   5.617   7.991   9.646 -1.2552 -0.8193 -1.7531
  499MOL0     H65834   5.647   8.354   9.822  1.1983  1.4895 -0.2832
  499MOL0     H65835   5.823   8.321   9.880 -0.2648  2.2660 -2.2976
  499MOL0     H65836   5.749   8.212  10.073  1.1829  1.9171  0.3514
  499MOL0     H65837   5.580   8.218  10.024 -0.2751  0.3503 -0.3248
  499MOL0     H65838   5.606   8.389  10.196  1.0833 -0.0123  0.4728
  499MOL0     H65839   5.573   8.456  10.047  1.8364  2.5938  2.3309
  499MOL0     H65840   5.798   8.526  10.010 -2.4355 -7.0690 -2.8316
  499MOL0     H65841   5.735   8.573  10.170  0.5371  0.2990  0.6861
  499MOL0     H65842   5.928   8.328  10.128 -2.8249  0.4385 -1.7319
  499MOL0     H65843   5.876   8.403  10.279  0.7146  3.6192 -0.4027
  499MOL0     H65844   5.995   8.602  10.241 -3.2312  0.8753 -1.9862
  499MOL0     H65845   6.005   8.574  10.079 -1.7337  1.1922  0.1209
  499MOL0     H65846   6.211   8.530  10.227 -2.4251  1.2826  0.0711
  499MOL0     H65847   6.133   8.379  10.281 -2.6229  0.9561  1.6501
  499MOL0     H65848   6.222   8.448   9.995 -0.9935 -0.5955 -0.5686
  499MOL0     H65849   6.140   8.297  10.036 -2.0386  1.2813  1.6684
  499MOL0     H65850   5.928   8.263   9.700 -0.1931 -1.2566  1.7699
  499MOL0     H65851   6.043   8.194   9.485  0.8307 -0.3506  0.3230
  499MOL0     H65852   6.256   7.743   9.310 -1.6863 -0.8561  1.8910
  499MOL0     H65853   6.357   7.650   9.114 -0.4293 -1.9429  0.8793
  499MOL0     H65854   6.517   8.294   7.293 -4.5388 -0.4172 -1.1695
  499MOL0     H65855   6.632   8.432   7.111 -0.0762  0.2299  0.0304
  499MOL0     H65856   6.699   8.928   7.034 -0.2423 -1.0719 -0.5122
  499MOL0     H65857   6.729   9.128   6.898 -0.2582 -0.7961  1.4276
  499MOL0     H65858   6.759   9.275   6.754  0.2189 -1.8286 -0.0625
  499MOL0     H65859   6.613   9.330   6.681  0.4885 -0.4720  3.1386
  499MOL0     H65860   6.873   9.275   6.545  0.3088  0.8403 -5.0274
  499MOL0     H65861   6.715   9.300   6.462 -0.3311 -0.6672  0.6002
  499MOL0     H65862   6.868   9.510   6.630  1.7874 -1.4863  0.6859
  499MOL0     H65863   6.711   9.528   6.556  0.9395  0.1516 -2.1921
  499MOL0     H65864   6.850   9.488   6.327 -0.2334  2.8970 -0.9286
  499MOL0     H65865   6.885   9.633   6.415  0.2658  0.4295 -2.9689
  499MOL0     H65866   7.242   9.402   6.428  0.3935  0.5747  0.7390
  499MOL0     H65867   6.515   8.937   6.578 -0.1414  0.8802  1.3052
  499MOL0     H65868   6.488   8.732   6.722 -3.1967  3.3762 -3.4349
  500MOL0     O65869   8.008   5.341  11.043  0.3656  0.1933  0.0154
  500MOL0     C65870   7.929   5.414  11.108 -0.7867  0.0211 -0.4535
  500MOL0     O65871   7.805   5.466  11.070 -0.1949  0.2496  0.3603
  500MOL0     C65872   7.743   5.440  10.945  0.8741 -0.0417 -0.8706
  500MOL0     C65873   7.777   5.339  10.850 -0.1401 -0.9515  0.0513
  500MOL0     C65874   7.706   5.320  10.727 -0.2045  0.1527 -0.5611
  500MOL0     C65875   7.601   5.402  10.695 -0.5031 -0.2178 -0.2837
  500MOL0     O65876   7.548   5.389  10.566 -0.8814 -1.0060 -0.6368
  500MOL0     C65877   7.432   5.468  10.530 -0.8508 -1.2574  0.0179
  500MOL0     C65878   7.412   5.441  10.382  0.7686  0.4497  0.1480
  500MOL0     C65879   7.535   5.467  10.289 -0.1237  0.0482 -0.8213
  500MOL0     C65880   7.497   5.492  10.139 -1.2349 -0.1191 -0.2777
  500MOL0     C65881   7.443   5.636  10.127  0.1470  0.2858 -0.8020
  500MOL0     C65882   7.402   5.664   9.978 -0.8368  0.2386  0.5616
  500MOL0     C65883   7.508   5.757   9.908 -0.3584  0.0649  0.1561
  500MOL0     C65884   7.470   5.794   9.761  0.3000  0.2185  0.6121
  500MOL0     N65885   7.556   5.900   9.702  0.0221 -0.0681 -1.1425
  500MOL0     C65886   7.607   6.015   9.754  0.0374 -1.3786 -0.3732
  500MOL0     C65887   7.651   6.079   9.643 -0.1457  0.0407  0.6835
  500MOL0     C65888   7.696   6.222   9.621  0.3999  0.0023  0.3579
  500MOL0     C65889   7.830   6.251   9.700  0.0286  0.2729  0.4381
  500MOL0     C65890   7.828   6.400   9.753 -1.2662 -0.1833  0.1939
  500MOL0     C65891   7.753   6.430   9.890  0.1322 -0.7718  0.0693
  500MOL0     O65892   7.781   6.559   9.953 -0.3959  0.5026  0.1483
  500MOL0     C65893   7.902   6.594   9.997 -0.0922 -0.5637 -0.3434
  500MOL0     C65894   8.007   6.509  10.017  0.4860 -0.9619 -0.4330
  500MOL0     C65895   8.119   6.557  10.074 -0.3311  0.7350  0.2886
  500MOL0     C65896   8.142   6.696  10.102 -0.0686  0.7128  0.1588
  500MOL0     C65897   8.264   6.755  10.159 -0.4501 -0.5428  0.3286
  500MOL0     O65898   8.262   6.892  10.176  0.9063  0.1269 -0.1662
  500MOL0     C65899   8.371   6.966  10.212  0.3404  0.4406  0.6233
  500MOL0     C65900   8.357   7.055  10.310 -0.4171  0.4522 -0.5524
  500MOL0     C65901   8.467   7.133  10.349  0.3094  0.7300  0.5956
  500MOL0     C65902   8.588   7.121  10.276 -0.7707 -0.4464  0.1423
  500MOL0     O65903   8.702   7.175  10.333 -0.4384  0.1358  0.0993
  500MOL0     C65904   8.780   7.072  10.395  0.4247  0.6107 -0.1365
  500MOL0     C65905   8.905   7.141  10.446 -0.3674  0.4561  0.6644
  500MOL0     C65906   8.867   7.266  10.530  0.9109  1.0662  0.5228
  500MOL0     C65907   8.987   7.343  10.578  0.0678 -0.0883  0.2799
  500MOL0     C65908   8.966   7.430  10.705 -0.3517  0.2667  0.0100
  500MOL0     C65909   8.858   7.540  10.710 -0.5210 -0.0631 -0.5244
  500MOL0     C65910   8.904   7.647  10.617  0.9282  0.4135 -1.1112
  500MOL0     C65911   8.894   7.792  10.663  0.9288 -0.5250 -0.5330
  500MOL0    Cl65912   8.738   7.838  10.727  0.5638  0.0590 -0.0864
  500MOL0     C65913   8.600   7.042  10.164  0.5716  0.9045 -0.5131
  500MOL0     C65914   8.490   6.950  10.147  1.1437 -0.4930  0.6627
  500MOL0     O65915   8.358   6.680  10.187 -0.2468 -0.4985 -0.1351
  500MOL0     C65916   8.034   6.780  10.060 -0.5025 -0.7477 -1.0219
  500MOL0     C65917   7.914   6.732  10.017  0.8307 -0.2967  0.6703
  500MOL0     N65918   7.655   5.991   9.541 -0.0788  0.2823 -1.1087
  500MOL0     N65919   7.588   5.891   9.571 -0.0759  0.5275  0.1774
  500MOL0     C65920   7.558   5.501  10.790  0.0988 -0.2271  0.9692
  500MOL0     C65921   7.631   5.512  10.913 -0.1973 -0.2157  1.0827
  500MOL0     C65922   7.990   5.483  11.224 -0.0770  0.1881  0.4994
  500MOL0     C65923   8.118   5.441  11.275 -0.2305  1.0211  0.2506
  500MOL0     C65924   8.166   5.499  11.386 -0.2871  0.5259 -0.5013
  500MOL0     C65925   8.105   5.596  11.454  0.2620 -0.6150  0.0176
  500MOL0     O65926   8.145   5.638  11.577 -0.2565  0.2015 -0.3836
  500MOL0     C65927   8.281   5.671  11.611 -0.5591  0.3890  0.0735
  500MOL0     C65928   8.271   5.764  11.741  0.5192  0.9001 -0.9758
  500MOL0     C65929   8.220   5.903  11.694 -0.2597 -0.1384  0.4346
  500MOL0     C65930   8.205   6.010  11.803  0.1387 -0.0669  0.8900
  500MOL0     C65931   8.076   5.991  11.858  0.6704 -0.6814  0.8780
  500MOL0     C65932   7.970   5.953  11.912 -0.5241  0.5121 -0.2359
  500MOL0     C65933   7.982   5.651  11.405 -0.1902  0.2020 -0.2117
  500MOL0     C65934   7.932   5.595  11.284  0.9319 -0.0812  0.6453
  500MOL0     H65935   7.865   5.276  10.860  0.0365 -1.2396 -2.7169
  500MOL0     H65936   7.743   5.247  10.655 -1.3442 -0.8883 -0.1273
  500MOL0     H65937   7.450   5.573  10.556 -1.6178 -1.6996  2.6615
  500MOL0     H65938   7.332   5.437  10.561 -1.5509  0.9078  0.1235
  500MOL0     H65939   7.324   5.492  10.341  0.5881 -0.7267 -0.9862
  500MOL0     H65940   7.382   5.336  10.382  1.3178  0.2868  0.9035
  500MOL0     H65941   7.599   5.379  10.298  2.1227  1.7809  2.1763
  500MOL0     H65942   7.595   5.545  10.338 -0.5899 -0.5322  0.7221
  500MOL0     H65943   7.577   5.471  10.068 -0.1666 -1.1670  1.1807
  500MOL0     H65944   7.410   5.431  10.111 -2.4810 -1.1084  4.7729
  500MOL0     H65945   7.513   5.711  10.164  0.1035  0.5432 -1.2366
  500MOL0     H65946   7.357   5.641  10.193  0.7789 -3.3601  0.5569
  500MOL0     H65947   7.304   5.712   9.982 -1.1451 -0.3979  0.9871
  500MOL0     H65948   7.383   5.563   9.940 -2.2414 -1.1447  4.4301
  500MOL0     H65949   7.526   5.854   9.957  2.1559 -0.5004  0.4706
  500MOL0     H65950   7.600   5.698   9.900 -2.2749 -3.2173  0.5698
  500MOL0     H65951   7.364   5.820   9.752  0.0384 -1.0261 -0.1627
  500MOL0     H65952   7.478   5.707   9.696 -1.2067 -0.3193  1.1084
  500MOL0     H65953   7.600   6.057   9.854  0.8724  3.2476 -1.9656
  500MOL0     H65954   7.612   6.285   9.650  1.2158  0.7868  1.0552
  500MOL0     H65955   7.707   6.247   9.515  0.9929  2.6625  0.9861
  500MOL0     H65956   7.920   6.228   9.643 -0.4324 -1.2519  0.2717
  500MOL0     H65957   7.832   6.185   9.788 -0.2925  0.3883  0.5328
  500MOL0     H65958   7.934   6.427   9.759 -0.5985 -0.8717 -4.6676
  500MOL0     H65959   7.793   6.464   9.672  1.1586 -0.3215 -1.0670
  500MOL0     H65960   7.779   6.351   9.962  1.0587  0.3462  0.9943
  500MOL0     H65961   7.646   6.425   9.870  0.1418  0.4787 -0.3593
  500MOL0     H65962   8.001   6.400  10.021  0.9210 -0.9818 -0.2558
  500MOL0     H65963   8.186   6.477  10.104 -2.5946 -0.0664  3.7977
  500MOL0     H65964   8.277   7.050  10.383  2.0090 -1.4152  2.2265
  500MOL0     H65965   8.458   7.186  10.443  1.2544 -0.2087  1.2393
  500MOL0     H65966   8.809   6.995  10.323  5.9322 -1.1542  3.3689
  500MOL0     H65967   8.718   7.024  10.471 -1.3306  1.7034 -0.8095
  500MOL0     H65968   8.973   7.176  10.368 -0.1767 -0.6223  0.3293
  500MOL0     H65969   8.951   7.066  10.511 -2.5156  0.2911  2.0852
  500MOL0     H65970   8.828   7.216  10.619 -1.4045 -1.2971 -1.6264
  500MOL0     H65971   8.801   7.339  10.482  0.4601  1.9745  2.4485
  500MOL0     H65972   9.066   7.274  10.609  0.5157  0.8814  1.3550
  500MOL0     H65973   9.022   7.407  10.496  2.2478  2.0359  2.6577
  500MOL0     H65974   9.066   7.459  10.739 -0.7134 -0.4915  1.8568
  500MOL0     H65975   8.933   7.361  10.784  2.6479 -0.4256  0.7847
  500MOL0     H65976   8.848   7.567  10.815  1.6749  2.0106 -0.7528
  500MOL0     H65977   8.761   7.504  10.674 -0.7286  1.9194 -2.1639
  500MOL0     H65978   9.004   7.640  10.575  0.6491 -2.9618 -1.4545
  500MOL0     H65979   8.848   7.635  10.524 -1.9601 -0.0267  0.5516
  500MOL0     H65980   8.899   7.854  10.573 -0.3127 -0.7989 -0.8174
  500MOL0     H65981   8.978   7.823  10.725  0.5783  1.1259 -0.8496
  500MOL0     H65982   8.697   7.047  10.115 -0.0420 -0.1295 -1.9005
  500MOL0     H65983   8.500   6.876  10.068  1.0698  0.6996 -0.5011
  500MOL0     H65984   8.047   6.887  10.049 -3.2289 -0.0737  1.1383
  500MOL0     H65985   7.838   6.805   9.992  3.6740  2.3699 -0.9952
  500MOL0     H65986   7.477   5.572  10.776 -0.0667 -1.0410 -4.0124
  500MOL0     H65987   7.585   5.586  10.977  2.5196  2.3641  0.2311
  500MOL0     H65988   8.181   5.368  11.226  1.1469 -0.2110  3.5928
  500MOL0     H65989   8.266   5.471  11.415 -0.3593  2.8854  2.4622
  500MOL0     H65990   8.341   5.718  11.533 -0.9703  1.8301  0.5855
  500MOL0     H65991   8.339   5.580  11.631  0.6080  0.8073 -1.2308
  500MOL0     H65992   8.206   5.723  11.819  2.1308 -0.7370 -0.4297
  500MOL0     H65993   8.366   5.782  11.792  1.8778  0.9045 -3.3642
  500MOL0     H65994   8.126   5.902  11.638 -1.5263  2.2636  2.3491
  500MOL0     H65995   8.303   5.935  11.629 -1.6258  0.1219 -1.2462
  500MOL0     H65996   8.273   6.007  11.889 -0.9574 -1.0989  1.7630
  500MOL0     H65997   8.228   6.104  11.753 -0.8999 -0.7205 -0.9255
  500MOL0     H65998   7.881   5.902  11.941  1.2735 -1.6528  1.8277
  500MOL0     H65999   7.932   5.723  11.468  0.9865 -0.7352  1.9056
  500MOL0     H66000   7.833   5.618  11.247  0.8544 -1.6716 -0.2119
  501MOL0     O66001   8.521   0.844  10.197  0.8976  0.6089  0.7955
  501MOL0     C66002   8.571   0.871  10.307  0.1052  0.2811 -0.0627
  501MOL0     O66003   8.525   0.832  10.424 -0.3567 -0.1499  0.6186
  501MOL0     C66004   8.479   0.709  10.426  0.3620  0.7025 -0.6437
  501MOL0     C66005   8.341   0.682  10.410  0.5414  1.1251  0.7455
  501MOL0     C66006   8.292   0.544  10.406 -0.0997 -0.9216  1.0694
  501MOL0     C66007   8.383   0.434  10.396 -0.1549 -0.5347  0.0185
  501MOL0     O66008   8.322   0.312  10.392  0.5103  0.4274  0.0385
  501MOL0     C66009   8.413   0.205  10.366  0.4486  0.3942  0.1184
  501MOL0     C66010   8.324   0.077  10.334 -1.7552  0.7926  1.2327
  501MOL0     C66011   8.240   0.102  10.207 -0.5721  0.1310  0.3599
  501MOL0     C66012   8.140  -0.019  10.196  0.1459  0.3188  0.6041
  501MOL0     C66013   8.046   0.002  10.078 -0.2684  0.3184  0.0971
  501MOL0     C66014   7.951  -0.119  10.080 -0.6566 -0.1280 -0.2147
  501MOL0     C66015   7.858  -0.118   9.954 -0.1727 -0.8538 -0.2791
  501MOL0     C66016   7.772  -0.240   9.935 -0.9565 -0.4898  0.3580
  501MOL0     N66017   7.706  -0.276  10.058 -0.9048  0.2202 -1.2949
  501MOL0     C66018   7.582  -0.233  10.111  0.7802 -0.1180 -0.6027
  501MOL0     C66019   7.555  -0.327  10.205  0.7867 -0.6681  0.0098
  501MOL0     C66020   7.418  -0.329  10.275 -0.3957 -0.5459 -0.4781
  501MOL0     C66021   7.383  -0.447  10.375  1.0900  0.1650 -0.8691
  501MOL0     C66022   7.248  -0.412  10.444 -0.2958 -0.3155  0.3264
  501MOL0     C66023   7.129  -0.407  10.351 -0.5881  0.3362 -0.5779
  501MOL0     O66024   7.104  -0.281  10.290  0.4832  0.6298 -0.3550
  501MOL0     C66025   7.050  -0.172  10.368 -0.2207  0.8811 -0.5169
  501MOL0     C66026   7.106  -0.051  10.351  0.1846 -0.2517 -0.2153
  501MOL0     C66027   7.036   0.065  10.383 -0.6979 -0.8425 -0.2734
  501MOL0     C66028   6.916   0.055  10.455 -0.1064 -0.0461  0.4505
  501MOL0     C66029   6.858   0.186  10.517 -0.7226  0.3532  0.0712
  501MOL0     O66030   6.941   0.294  10.530  0.1125  0.0560 -0.0453
  501MOL0     C66031   6.902   0.395  10.626 -0.2705  0.5177  0.4307
  501MOL0     C66032   6.881   0.374  10.766  0.4682  0.1889  0.2097
  501MOL0     C66033   6.843   0.478  10.857  0.5427  0.0315 -0.2692
  501MOL0     C66034   6.826   0.606  10.799 -1.0073  0.7065  0.6779
  501MOL0     O66035   6.810   0.717  10.879 -0.4497  0.2005 -0.0705
  501MOL0     C66036   6.935   0.784  10.900 -0.5512 -0.2231 -0.3712
  501MOL0     C66037   6.982   0.759  11.045 -0.6123  0.0943  0.4259
  501MOL0     C66038   6.893   0.807  11.156 -0.3386  0.3148  0.0854
  501MOL0     C66039   6.760   0.726  11.172 -0.2145  0.6181 -0.2269
  501MOL0     C66040   6.707   0.732  11.319  0.3468  0.6071  0.0384
  501MOL0     C66041   6.721   0.592  11.381  0.5745  1.2809 -0.4360
  501MOL0     C66042   6.669   0.591  11.527  0.8242  0.3983  0.3021
  501MOL0     C66043   6.770   0.672  11.611  0.4818 -0.2865 -0.3742
  501MOL0    Cl66044   6.731   0.617  11.770 -0.2982  0.3999  0.0075
  501MOL0     C66045   6.831   0.623  10.657 -0.6342 -0.8178  0.5278
  501MOL0     C66046   6.866   0.520  10.575 -0.9669  0.7773  0.6283
  501MOL0     O66047   6.750   0.165  10.581  0.0760  0.0782 -0.5071
  501MOL0     C66048   6.856  -0.071  10.483  0.5762 -0.0757  0.6329
  501MOL0     C66049   6.922  -0.184  10.426  0.4692  0.0684 -0.1016
  501MOL0     N66050   7.661  -0.413  10.210  0.3445 -0.1206 -0.5700
  501MOL0     N66051   7.748  -0.387  10.129 -0.7673 -0.1129 -0.7539
  501MOL0     C66052   8.519   0.460  10.404 -0.3290 -0.4619  0.5000
  501MOL0     C66053   8.562   0.593  10.421 -0.3646  0.6066 -0.4080
  501MOL0     C66054   8.687   0.953  10.313 -0.9716 -0.1579  0.3698
  501MOL0     C66055   8.749   0.987  10.432 -0.5310 -0.2574 -0.5573
  501MOL0     C66056   8.869   1.061  10.433 -0.3777  0.9150 -0.8486
  501MOL0     C66057   8.952   1.080  10.318 -0.7555  0.0696  0.4242
  501MOL0     O66058   9.082   1.131  10.312 -0.1310  0.8352  0.7195
  501MOL0     C66059   9.119   1.229  10.406  0.9640  0.3616 -0.5571
  501MOL0     C66060   9.172   1.172  10.534 -0.0364  0.1144  0.5168
  501MOL0     C66061   9.191   1.281  10.625 -0.4110  0.0203 -0.3474
  501MOL0     C66062   9.166   1.241  10.773  0.5946 -0.0865  0.1103
  501MOL0     C66063   9.017   1.252  10.789 -0.9629 -0.2732  0.3735
  501MOL0     C66064   8.900   1.249  10.800  0.6791  0.6097 -0.0620
  501MOL0     C66065   8.892   1.038  10.199 -0.4658 -0.3769 -0.2823
  501MOL0     C66066   8.759   0.988  10.192  0.2862  0.0389  0.1092
  501MOL0     H66067   8.272   0.764  10.417 -3.1245 -1.7515  1.4414
  501MOL0     H66068   8.184   0.532  10.417 -1.2752  3.9451 -2.1802
  501MOL0     H66069   8.461   0.199  10.464 -4.4164  4.3236  3.2351
  501MOL0     H66070   8.488   0.229  10.290 -0.9177 -0.2304 -1.4829
  501MOL0     H66071   8.258   0.038  10.412 -3.6627 -3.0216 -1.9025
  501MOL0     H66072   8.394  -0.005  10.317 -0.9215  1.1295  2.8826
  501MOL0     H66073   8.304   0.107  10.119  2.0789 -0.0922  2.1782
  501MOL0     H66074   8.180   0.193  10.216 -3.7877 -1.8651  0.7208
  501MOL0     H66075   8.194  -0.114  10.188  3.5589  2.1137  0.4611
  501MOL0     H66076   8.079  -0.026  10.286 -1.6151 -0.6232 -0.5896
  501MOL0     H66077   8.107   0.006   9.987  0.9870  1.3801  0.9561
  501MOL0     H66078   7.993   0.097  10.087  1.2372  1.3854 -1.5805
  501MOL0     H66079   7.901  -0.135  10.177 -2.1704 -1.6314 -1.1882
  501MOL0     H66080   8.015  -0.207  10.072 -1.0040 -0.2368 -2.0745
  501MOL0     H66081   7.796  -0.028   9.960  3.0943  1.4823  1.5307
  501MOL0     H66082   7.926  -0.113   9.869 -1.8318 -2.0225 -1.7420
  501MOL0     H66083   7.828  -0.330   9.910 -0.4248 -0.6009  1.8626
  501MOL0     H66084   7.697  -0.217   9.858 -1.5888 -0.4434  0.9769
  501MOL0     H66085   7.515  -0.158  10.070  0.2639 -0.4697 -0.4189
  501MOL0     H66086   7.343  -0.338  10.196 -0.1090 -1.2358 -0.6751
  501MOL0     H66087   7.410  -0.239  10.337 -1.3753 -0.2941 -0.9505
  501MOL0     H66088   7.457  -0.442  10.455  1.2330  3.0373 -1.0673
  501MOL0     H66089   7.382  -0.545  10.327 -2.2113 -1.5850  2.2101
  501MOL0     H66090   7.217  -0.458  10.538  0.0197  1.3422  1.2795
  501MOL0     H66091   7.265  -0.311  10.481  1.9075 -0.0088 -1.3298
  501MOL0     H66092   7.041  -0.456  10.395  0.9315 -0.8729  1.2385
  501MOL0     H66093   7.156  -0.478  10.272 -1.3759 -1.6214  0.8472
  501MOL0     H66094   7.192  -0.036  10.286  3.5317 -1.1918  3.5945
  501MOL0     H66095   7.080   0.165  10.376 -2.4852  0.4898  4.1843
  501MOL0     H66096   6.899   0.275  10.805  0.2460  1.0116  2.5732
  501MOL0     H66097   6.839   0.468  10.965  2.5599 -1.5901 -0.2801
  501MOL0     H66098   6.914   0.887  10.871 -1.7283 -0.3124  0.1162
  501MOL0     H66099   7.020   0.750  10.840  0.8781  2.4187  0.0235
  501MOL0     H66100   7.077   0.809  11.065  0.2744 -1.1138 -0.6309
  501MOL0     H66101   7.022   0.658  11.056 -1.8020 -0.2587  1.8797
  501MOL0     H66102   6.880   0.916  11.155 -0.9355  0.2985  2.1222
  501MOL0     H66103   6.947   0.790  11.250 -1.7714  1.3980  1.1464
  501MOL0     H66104   6.673   0.749  11.110 -0.5788  2.3188  0.8345
  501MOL0     H66105   6.794   0.624  11.153 -0.1270  0.7886 -1.0251
  501MOL0     H66106   6.605   0.771  11.320 -0.4378 -1.3213  0.3292
  501MOL0     H66107   6.769   0.800  11.377 -0.4456 -1.0686  3.1216
  501MOL0     H66108   6.827   0.564  11.388  0.5326  0.9987 -0.8629
  501MOL0     H66109   6.670   0.523  11.313  0.9027  0.3760  0.2086
  501MOL0     H66110   6.571   0.636  11.544  0.7999  0.5471 -0.2038
  501MOL0     H66111   6.660   0.491  11.570 -1.9328  0.4001 -0.1045
  501MOL0     H66112   6.758   0.779  11.591  0.6894 -0.2419 -0.2671
  501MOL0     H66113   6.874   0.646  11.591  0.8540  0.1727  0.8480
  501MOL0     H66114   6.819   0.724  10.620  0.0118 -0.7058  0.6084
  501MOL0     H66115   6.877   0.543  10.469  1.1151  1.3581  0.9206
  501MOL0     H66116   6.759  -0.085  10.529  0.8464  2.2080  2.0200
  501MOL0     H66117   6.876  -0.282  10.437  0.0603  0.4307  1.8077
  501MOL0     H66118   8.586   0.387  10.361  0.6681 -0.3701  1.8637
  501MOL0     H66119   8.662   0.620  10.388 -0.8034  2.5444 -0.2437
  501MOL0     H66120   8.713   0.962  10.531  1.1486  2.0172  0.7387
  501MOL0     H66121   8.909   1.098  10.527 -0.9237 -4.1689  1.7205
  501MOL0     H66122   9.023   1.274  10.432  1.5403  0.5928  1.2918
  501MOL0     H66123   9.183   1.310  10.369  2.0379  1.6684  3.6257
  501MOL0     H66124   9.105   1.092  10.568 -1.4099  1.6888  1.6323
  501MOL0     H66125   9.271   1.130  10.512 -0.0577  0.2919  0.0635
  501MOL0     H66126   9.135   1.370  10.598  0.1604  1.0385  1.6314
  501MOL0     H66127   9.295   1.316  10.624 -0.9258  1.5940 -1.1590
  501MOL0     H66128   9.189   1.137  10.799 -1.3169 -0.3841  0.8065
  501MOL0     H66129   9.210   1.313  10.842 -1.8566  3.9132 -2.0935
  501MOL0     H66130   8.794   1.251  10.810  0.6559  0.6479 -0.3010
  501MOL0     H66131   8.932   1.071  10.104 -0.5772 -1.1284 -0.5916
  501MOL0     H66132   8.724   0.973  10.091  3.6083  0.8366 -1.3211
  502MOL0     O66133   5.052   5.272   8.838  0.5997  0.2982 -0.0801
  502MOL0     C66134   4.998   5.362   8.906  0.1163  0.3712 -0.0386
  502MOL0     O66135   4.863   5.373   8.927 -0.1081 -0.4583  0.1322
  502MOL0     C66136   4.781   5.305   8.842  0.9267  0.9243  0.0758
  502MOL0     C66137   4.778   5.164   8.863  0.3018  0.2191  0.1645
  502MOL0     C66138   4.702   5.077   8.775 -0.2397 -0.1067 -0.7504
  502MOL0     C66139   4.648   5.130   8.655 -0.5387 -1.8773 -0.9171
  502MOL0     O66140   4.579   5.051   8.565 -0.4301 -0.0579 -0.2154
  502MOL0     C66141   4.615   4.915   8.543 -0.6403 -0.1321 -1.0633
  502MOL0     C66142   4.493   4.821   8.537  0.3830  0.3257  0.4581
  502MOL0     C66143   4.504   4.674   8.484 -0.6665  0.2109  0.5794
  502MOL0     C66144   4.589   4.657   8.357 -0.3476  1.0978 -0.2744
  502MOL0     C66145   4.557   4.754   8.242  0.6478  1.1096 -0.2114
  502MOL0     C66146   4.441   4.696   8.152 -0.0788  0.5568 -0.7076
  502MOL0     C66147   4.445   4.753   8.008  0.1764 -0.3412  0.1052
  502MOL0     C66148   4.316   4.727   7.926  0.6574  0.1399  0.1260
  502MOL0     N66149   4.318   4.595   7.871 -0.1732  0.1940 -0.9134
  502MOL0     C66150   4.347   4.567   7.739 -1.0839 -0.2640 -0.5073
  502MOL0     C66151   4.353   4.435   7.739 -0.3706  0.6076  0.3155
  502MOL0     C66152   4.379   4.360   7.614 -0.1243  0.1730  0.6081
  502MOL0     C66153   4.273   4.260   7.579  0.9631  0.3533  0.5384
  502MOL0     C66154   4.305   4.207   7.438 -0.7558  0.0646 -0.2585
  502MOL0     C66155   4.210   4.102   7.401 -0.3242 -0.9878  0.0466
  502MOL0     O66156   4.276   4.058   7.276 -0.1083 -0.4874  0.2457
  502MOL0     C66157   4.330   3.936   7.259  0.5935  0.1432  1.0892
  502MOL0     C66158   4.326   3.876   7.136 -0.9920 -0.4483 -0.4845
  502MOL0     C66159   4.383   3.755   7.099  0.0706 -0.6750 -0.2631
  502MOL0     C66160   4.456   3.687   7.214 -0.2897 -0.1863  0.3762
  502MOL0     C66161   4.509   3.552   7.203 -0.6402 -0.5929  0.2933
  502MOL0     O66162   4.516   3.502   7.078  0.0809 -0.0069  0.1628
  502MOL0     C66163   4.568   3.370   7.042  0.5638 -0.6716  0.1434
  502MOL0     C66164   4.530   3.262   7.102  0.1853  0.2963 -0.2479
  502MOL0     C66165   4.575   3.137   7.071  0.7228 -0.3509  0.4138
  502MOL0     C66166   4.663   3.122   6.968  1.0549 -0.3585 -0.6109
  502MOL0     O66167   4.717   3.007   6.939 -0.3052 -0.0813  0.2570
  502MOL0     C66168   4.825   2.983   6.847 -0.4279  0.1429  0.5040
  502MOL0     C66169   4.959   2.962   6.916  1.1115 -0.5067 -0.6719
  502MOL0     C66170   5.015   3.104   6.951 -0.0647  0.2088 -0.4497
  502MOL0     C66171   5.159   3.083   6.992  0.5189 -0.0994 -0.4040
  502MOL0     C66172   5.222   3.210   7.052  0.4198  0.3090 -0.1511
  502MOL0     C66173   5.355   3.171   7.119  0.1427  0.5451 -0.7650
  502MOL0     C66174   5.332   3.099   7.251  0.4282 -0.0130 -0.4624
  502MOL0     C66175   5.466   3.090   7.327 -0.4198  0.5074 -0.0576
  502MOL0    Cl66176   5.597   2.992   7.239 -0.0030 -0.3576 -0.9086
  502MOL0     C66177   4.701   3.240   6.897 -0.3869  0.4208 -0.5672
  502MOL0     C66178   4.664   3.365   6.942 -1.3813 -0.3230  1.1915
  502MOL0     O66179   4.559   3.494   7.296 -0.4350  0.9976  0.1576
  502MOL0     C66180   4.471   3.760   7.335  0.6505  0.0876  0.4717
  502MOL0     C66181   4.397   3.877   7.363 -1.1065  0.7910  0.7939
  502MOL0     N66182   4.321   4.386   7.868 -0.2316 -1.0133 -0.9063
  502MOL0     N66183   4.299   4.489   7.952 -0.3687  0.3614  0.7493
  502MOL0     C66184   4.646   5.270   8.649  1.0016  0.0341  0.0980
  502MOL0     C66185   4.716   5.359   8.730 -0.1106 -0.9745  1.5919
  502MOL0     C66186   5.087   5.476   8.947  0.1114 -0.6140  0.2896
  502MOL0     C66187   5.215   5.446   8.991 -0.1470 -0.9751 -1.0227
  502MOL0     C66188   5.289   5.544   9.065  1.1895 -0.2990  0.3215
  502MOL0     C66189   5.245   5.681   9.068 -0.0602  0.0914 -0.1844
  502MOL0     O66190   5.340   5.768   9.113 -0.6160 -0.0805  0.4443
  502MOL0     C66191   5.354   5.897   9.052 -0.3428 -0.2354  0.5598
  502MOL0     C66192   5.460   5.979   9.120  0.6834  0.0567 -0.1449
  502MOL0     C66193   5.513   6.107   9.060  0.5682 -0.4651  0.5574
  502MOL0     C66194   5.411   6.219   9.041  0.8408 -0.3088 -0.2037
  502MOL0     C66195   5.458   6.350   8.996  0.2784  0.5314  0.1416
  502MOL0     C66196   5.492   6.459   8.961  0.0136  0.2639  0.0093
  502MOL0     C66197   5.124   5.713   9.009 -0.1110 -0.5735 -0.2738
  502MOL0     C66198   5.039   5.610   8.956 -0.3451 -0.4950  1.0760
  502MOL0     H66199   4.828   5.115   8.946 -1.3984 -0.4374  0.8487
  502MOL0     H66200   4.706   4.975   8.810  0.0173  0.0077 -0.4419
  502MOL0     H66201   4.685   4.885   8.622  1.1916  0.5701 -2.3403
  502MOL0     H66202   4.667   4.899   8.448  0.8257 -1.2754 -0.1145
  502MOL0     H66203   4.426   4.868   8.466 -2.1075 -3.3956  0.0403
  502MOL0     H66204   4.453   4.808   8.638 -0.6858 -1.8658 -0.1833
  502MOL0     H66205   4.409   4.627   8.457  0.7253 -2.5970  0.2260
  502MOL0     H66206   4.561   4.613   8.556 -2.5400 -1.2534  0.9043
  502MOL0     H66207   4.689   4.680   8.392  1.3711 -1.8533 -2.7228
  502MOL0     H66208   4.601   4.552   8.330 -2.6505  0.3228  1.3830
  502MOL0     H66209   4.648   4.774   8.184  0.2672 -1.5886 -1.9072
  502MOL0     H66210   4.517   4.852   8.270  1.8086  2.1163 -1.8658
  502MOL0     H66211   4.341   4.718   8.192 -1.2439 -1.0537 -2.5294
  502MOL0     H66212   4.445   4.587   8.158 -1.4475  0.5182  0.0622
  502MOL0     H66213   4.452   4.862   8.015 -1.9432 -0.0838 -0.8075
  502MOL0     H66214   4.535   4.729   7.951  1.0516  0.4688  1.1100
  502MOL0     H66215   4.320   4.795   7.840  1.8416 -1.1291 -0.8756
  502MOL0     H66216   4.219   4.742   7.974  0.4753 -0.0507 -0.1821
  502MOL0     H66217   4.364   4.625   7.649 -1.5393  0.4299 -0.1553
  502MOL0     H66218   4.481   4.321   7.616 -0.4057 -0.7241 -0.9305
  502MOL0     H66219   4.378   4.428   7.528 -4.7301 -1.5191 -1.0181
  502MOL0     H66220   4.176   4.309   7.591  1.6433  2.3341 -1.2776
  502MOL0     H66221   4.282   4.187   7.659 -1.0525  2.4937  2.8821
  502MOL0     H66222   4.301   4.285   7.362 -1.7014  0.8875  0.5880
  502MOL0     H66223   4.406   4.168   7.432  1.3196  4.5264  1.0881
  502MOL0     H66224   4.106   4.132   7.381  0.1404  0.5761 -0.2039
  502MOL0     H66225   4.205   4.023   7.476  3.5028 -1.2994  0.1352
  502MOL0     H66226   4.274   3.928   7.056 -1.0861 -2.3118 -1.7009
  502MOL0     H66227   4.360   3.709   7.004 -0.9647 -0.7573  0.0055
  502MOL0     H66228   4.457   3.271   7.183  0.9113  2.1993  0.2634
  502MOL0     H66229   4.542   3.057   7.137  2.2567  0.8834  2.8389
  502MOL0     H66230   4.836   3.070   6.782  3.1831  1.1682  2.2119
  502MOL0     H66231   4.810   2.892   6.789 -0.0319  2.1742 -3.1203
  502MOL0     H66232   5.034   2.918   6.849  3.7075  0.8933  1.1126
  502MOL0     H66233   4.964   2.897   7.004  0.5581 -0.5213 -0.6496
  502MOL0     H66234   4.958   3.149   7.032 -1.6965 -2.2127 -0.1450
  502MOL0     H66235   5.020   3.171   6.864 -0.5733 -2.7212 -2.9010
  502MOL0     H66236   5.158   3.001   7.065  2.4485  0.9495  0.8936
  502MOL0     H66237   5.212   3.039   6.908  1.7537 -1.4908  1.0275
  502MOL0     H66238   5.159   3.266   7.121 -0.8642  0.4511 -1.3893
  502MOL0     H66239   5.234   3.287   6.975 -1.3511  0.9533  0.1704
  502MOL0     H66240   5.411   3.265   7.128 -1.6028  2.3595 -5.5052
  502MOL0     H66241   5.416   3.112   7.051  1.2728 -1.6104  1.9216
  502MOL0     H66242   5.260   3.147   7.318 -0.0916 -0.2352 -0.8554
  502MOL0     H66243   5.288   3.001   7.233 -1.4578  0.8783 -1.0477
  502MOL0     H66244   5.453   3.038   7.422 -1.2113 -1.1940 -1.0415
  502MOL0     H66245   5.502   3.191   7.347  2.0208 -0.3286  0.1952
  502MOL0     H66246   4.774   3.245   6.817  1.1308 -1.0819  0.6306
  502MOL0     H66247   4.693   3.450   6.880  0.3450 -1.2513  0.6648
  502MOL0     H66248   4.522   3.736   7.428  3.4778  1.1235 -0.6987
  502MOL0     H66249   4.398   3.929   7.458  1.5795  1.5925  0.4205
  502MOL0     H66250   4.602   5.310   8.559  0.3259 -1.1050 -0.0939
  502MOL0     H66251   4.703   5.463   8.704  3.0363 -0.2668  2.4512
  502MOL0     H66252   5.238   5.341   8.998 -3.0359 -1.6096  1.1174
  502MOL0     H66253   5.371   5.503   9.123  0.0028 -3.0410  0.2089
  502MOL0     H66254   5.257   5.947   9.043  0.7476  1.8067 -0.7127
  502MOL0     H66255   5.382   5.877   8.948  4.9972 -0.4546  1.7505
  502MOL0     H66256   5.420   5.990   9.221 -0.2945 -1.4388 -0.3319
  502MOL0     H66257   5.549   5.920   9.146 -0.2261 -1.6871 -0.8150
  502MOL0     H66258   5.560   6.089   8.962 -0.5839  1.3545 -0.4011
  502MOL0     H66259   5.589   6.146   9.128 -0.3839 -2.5774  2.9621
  502MOL0     H66260   5.343   6.198   8.958 -1.5501  0.2207  1.5137
  502MOL0     H66261   5.349   6.228   9.131 -3.2293 -0.8718 -2.6848
  502MOL0     H66262   5.520   6.561   8.943  0.2636  0.3133  0.6457
  502MOL0     H66263   5.098   5.818   8.994  1.0975 -0.1072  0.6832
  502MOL0     H66264   4.940   5.640   8.922 -0.6195  1.5790  3.3785
  503MOL0     O66265   4.785   7.117   3.149 -0.2357 -0.0732 -0.1178
  503MOL0     C66266   4.733   7.154   3.046  0.1629 -0.2037  0.6175
  503MOL0     O66267   4.799   7.182   2.932 -0.1084  0.0951  0.4784
  503MOL0     C66268   4.896   7.284   2.956  0.8230  0.6774  0.1594
  503MOL0     C66269   5.015   7.263   2.888 -0.1979 -0.3354  0.1851
  503MOL0     C66270   5.114   7.362   2.889 -0.5969  0.4307  0.2468
  503MOL0     C66271   5.097   7.483   2.952 -1.0170 -0.3919 -0.2212
  503MOL0     O66272   5.199   7.585   2.955  0.6373  0.3051  0.3395
  503MOL0     C66273   5.227   7.624   2.821 -0.5503  0.9155  0.9926
  503MOL0     C66274   5.251   7.770   2.808  0.8893  0.3822 -0.5729
  503MOL0     C66275   5.120   7.851   2.820 -0.1796  0.3039 -0.0752
  503MOL0     C66276   5.130   7.978   2.727 -0.4108  0.6459 -0.4740
  503MOL0     C66277   5.251   8.064   2.773  0.9383 -0.3236 -0.1182
  503MOL0     C66278   5.291   8.169   2.668  0.2204 -0.2205  0.8528
  503MOL0     C66279   5.170   8.256   2.634 -0.1714  0.0641 -0.2708
  503MOL0     C66280   5.196   8.372   2.542 -0.2511  0.3416  0.2721
  503MOL0     N66281   5.089   8.473   2.534 -0.2676  0.2796  0.4016
  503MOL0     C66282   4.964   8.477   2.471  0.0584  0.9279 -0.1884
  503MOL0     C66283   4.907   8.584   2.531 -0.0577 -1.1091  0.3927
  503MOL0     C66284   4.771   8.625   2.510  0.1090  0.5382 -0.4762
  503MOL0     C66285   4.762   8.763   2.450  0.5376  0.4405  0.2370
  503MOL0     C66286   4.643   8.836   2.495  1.4419  0.4221 -0.0216
  503MOL0     C66287   4.617   8.968   2.433 -0.1230  0.5622 -0.8225
  503MOL0     O66288   4.613   8.972   2.286  0.0550  0.4638 -0.4643
  503MOL0     C66289   4.505   8.898   2.231  0.7720  0.2660  0.0365
  503MOL0     C66290   4.519   8.845   2.109 -0.5320 -0.5454  0.8621
  503MOL0     C66291   4.423   8.785   2.032  0.1997 -0.2814 -0.1130
  503MOL0     C66292   4.292   8.775   2.079  0.0133  0.2680 -0.1943
  503MOL0     C66293   4.176   8.733   2.002 -0.7926 -0.5215  0.1549
  503MOL0     O66294   4.076   8.676   2.065 -0.2433 -0.4677  0.0849
  503MOL0     C66295   3.972   8.615   1.999 -0.1779  0.1720 -0.6193
  503MOL0     C66296   3.948   8.475   2.015  0.5219 -0.0713  0.8031
  503MOL0     C66297   3.821   8.415   1.985 -0.0035  0.6454  0.8544
  503MOL0     C66298   3.719   8.502   1.926 -0.9420  0.3986 -0.4992
  503MOL0     O66299   3.608   8.440   1.891  0.1356 -0.2355  0.3165
  503MOL0     C66300   3.507   8.520   1.824 -0.4084 -1.0488  0.2258
  503MOL0     C66301   3.402   8.451   1.750  0.6006  0.2410 -0.4975
  503MOL0     C66302   3.310   8.523   1.638  0.4408 -1.0939 -0.0879
  503MOL0     C66303   3.182   8.452   1.596  0.7857 -0.4186  1.2185
  503MOL0     C66304   3.095   8.519   1.488 -0.4275 -0.1443  1.0327
  503MOL0     C66305   2.944   8.492   1.516 -0.6443 -0.5850 -0.4922
  503MOL0     C66306   2.914   8.366   1.441  0.1306  0.0644 -0.2354
  503MOL0     C66307   2.761   8.339   1.435  0.3179  0.0389  0.9596
  503MOL0    Cl66308   2.671   8.292   1.574 -0.1880 -0.1763  0.1321
  503MOL0     C66309   3.748   8.643   1.905 -0.0331  0.1875 -0.1030
  503MOL0     C66310   3.869   8.696   1.947 -0.3528 -0.3992 -0.9995
  503MOL0     O66311   4.199   8.727   1.880 -0.3509  0.6804  0.3669
  503MOL0     C66312   4.274   8.818   2.213 -0.4515 -0.2675 -1.0053
  503MOL0     C66313   4.379   8.879   2.287 -0.6030 -0.5305  0.0227
  503MOL0     N66314   4.982   8.652   2.623 -0.6520  0.7179  1.2420
  503MOL0     N66315   5.089   8.584   2.618 -0.2162  0.7820 -0.5046
  503MOL0     C66316   4.977   7.508   3.019  1.2700 -1.0523  0.5197
  503MOL0     C66317   4.870   7.405   3.008  0.2483 -0.4310 -0.1931
  503MOL0     C66318   4.582   7.132   3.033  0.6222 -0.3250 -1.5160
  503MOL0     C66319   4.512   7.045   3.123 -0.9845 -0.0513 -0.9076
  503MOL0     C66320   4.377   7.024   3.109  0.5504 -0.1206  0.3921
  503MOL0     C66321   4.303   7.089   2.998 -0.0034 -0.7691 -0.0665
  503MOL0     O66322   4.166   7.071   2.966  0.5158 -0.5428  0.0262
  503MOL0     C66323   4.083   7.009   3.073 -0.3048 -0.4892  0.1440
  503MOL0     C66324   3.942   6.981   3.022 -0.2514 -0.4006  0.9696
  503MOL0     C66325   3.857   6.896   3.126  0.2119 -1.0379  0.4952
  503MOL0     C66326   3.716   6.892   3.084 -0.1842 -0.3179 -0.1475
  503MOL0     C66327   3.634   6.892   3.208 -0.7272  0.0557  0.0569
  503MOL0     C66328   3.577   6.892   3.312 -0.0487  0.0575 -0.9794
  503MOL0     C66329   4.372   7.173   2.901  1.4274  0.4814 -0.8779
  503MOL0     C66330   4.509   7.199   2.932  0.7910 -0.1778  0.1384
  503MOL0     H66331   5.044   7.175   2.831 -0.4921 -1.0285  1.0768
  503MOL0     H66332   5.205   7.327   2.842 -0.6619  0.0448  0.4057
  503MOL0     H66333   5.143   7.598   2.756 -0.9984 -0.3920  2.0375
  503MOL0     H66334   5.312   7.569   2.780  0.5268  2.8608  0.5130
  503MOL0     H66335   5.291   7.781   2.707  0.3412 -1.1941 -0.9879
  503MOL0     H66336   5.320   7.808   2.883 -2.5269  2.2109  1.9383
  503MOL0     H66337   5.108   7.878   2.925  1.1465 -0.0661  0.2019
  503MOL0     H66338   5.040   7.785   2.787  0.4103 -0.9626  0.9250
  503MOL0     H66339   5.158   7.963   2.622 -0.3355  0.3233 -0.4084
  503MOL0     H66340   5.030   8.021   2.736  0.3002  2.4043 -0.6512
  503MOL0     H66341   5.338   8.006   2.805  0.0525 -1.9356 -0.5083
  503MOL0     H66342   5.217   8.118   2.862  2.2413  3.0008 -1.4860
  503MOL0     H66343   5.330   8.116   2.580  0.5819  2.0978 -0.4578
  503MOL0     H66344   5.374   8.232   2.703  0.5095  0.5403 -1.0774
  503MOL0     H66345   5.099   8.184   2.592  0.4385 -1.1078  0.6590
  503MOL0     H66346   5.128   8.299   2.726  1.8070  2.1660 -0.2509
  503MOL0     H66347   5.217   8.328   2.444  4.8223 -0.2572  1.3606
  503MOL0     H66348   5.287   8.421   2.577  0.0638 -0.9491  1.3689
  503MOL0     H66349   4.903   8.428   2.396  0.3749  0.3131 -0.0488
  503MOL0     H66350   4.711   8.596   2.596 -2.1634  0.4019 -2.0095
  503MOL0     H66351   4.736   8.557   2.431  1.6731 -2.6176  1.3633
  503MOL0     H66352   4.767   8.740   2.344 -0.6544 -3.1622  0.8261
  503MOL0     H66353   4.848   8.826   2.474 -0.6157  2.1093  0.2505
  503MOL0     H66354   4.558   8.773   2.470 -0.8730  3.7591 -1.1784
  503MOL0     H66355   4.636   8.858   2.602 -0.5621  1.2423 -0.2842
  503MOL0     H66356   4.706   9.028   2.456 -0.1010 -0.2953  1.6149
  503MOL0     H66357   4.535   9.025   2.479  1.6081  3.5065 -1.1599
  503MOL0     H66358   4.622   8.851   2.076 -0.3738  2.5416  1.5477
  503MOL0     H66359   4.455   8.748   1.936 -0.1350 -1.5892  0.2547
  503MOL0     H66360   4.029   8.418   2.060  1.2396  1.9170  2.1945
  503MOL0     H66361   3.807   8.307   1.993 -0.9761  0.7765  1.0363
  503MOL0     H66362   3.542   8.581   1.741 -0.9425 -0.5346  0.3742
  503MOL0     H66363   3.471   8.587   1.903 -0.1824  0.3382 -0.8189
  503MOL0     H66364   3.333   8.416   1.827 -2.4954 -3.3281 -4.4264
  503MOL0     H66365   3.439   8.357   1.709 -3.5940 -2.2091  0.8008
  503MOL0     H66366   3.376   8.530   1.551  1.2187  1.5830  0.6218
  503MOL0     H66367   3.280   8.624   1.667 -0.3463 -0.6335 -2.3483
  503MOL0     H66368   3.212   8.353   1.562 -2.3137 -1.3341  0.9096
  503MOL0     H66369   3.116   8.447   1.683  0.2881 -0.9121  0.8191
  503MOL0     H66370   3.129   8.488   1.389 -0.3265  0.4756  0.8747
  503MOL0     H66371   3.114   8.626   1.497 -2.4403  0.4932 -1.2635
  503MOL0     H66372   2.885   8.572   1.471  0.7904  1.2341  0.7457
  503MOL0     H66373   2.920   8.486   1.622 -1.7181  1.7532 -0.5542
  503MOL0     H66374   2.954   8.378   1.340  0.1091  1.7118 -0.0708
  503MOL0     H66375   2.956   8.276   1.487 -0.4923  0.3390  0.8877
  503MOL0     H66376   2.751   8.263   1.357 -0.4416  0.9999  0.0826
  503MOL0     H66377   2.712   8.431   1.400  0.7790  0.8976  2.4594
  503MOL0     H66378   3.688   8.719   1.857  3.1881  2.2245 -1.2494
  503MOL0     H66379   3.892   8.801   1.935  3.4017 -0.9469  0.2164
  503MOL0     H66380   4.181   8.799   2.266 -0.0637 -2.5219 -1.0554
  503MOL0     H66381   4.361   8.915   2.388 -0.9717 -0.8132  0.0609
  503MOL0     H66382   4.951   7.604   3.063 -0.7821 -0.8438 -1.0235
  503MOL0     H66383   4.770   7.429   3.041 -1.7449 -2.5201 -4.0310
  503MOL0     H66384   4.560   7.013   3.215 -1.0636 -1.7772 -1.4388
  503MOL0     H66385   4.333   6.950   3.175 -0.3882 -1.6176 -1.7943
  503MOL0     H66386   4.081   7.079   3.156 -2.8780  0.3122 -0.5104
  503MOL0     H66387   4.120   6.914   3.112 -0.3954 -0.0326  1.3624
  503MOL0     H66388   3.892   7.075   2.999  4.1979  2.2146  0.9337
  503MOL0     H66389   3.954   6.909   2.941 -0.5486  1.6592 -0.9985
  503MOL0     H66390   3.854   6.959   3.215 -2.0712  2.6325 -1.9279
  503MOL0     H66391   3.905   6.800   3.148 -0.4627 -0.8136  3.3468
  503MOL0     H66392   3.680   6.974   3.022  0.9434 -1.4083 -2.3522
  503MOL0     H66393   3.698   6.801   3.026 -2.0353 -0.5152  0.6589
  503MOL0     H66394   3.523   6.891   3.404 -0.9941 -1.9604 -1.4882
  503MOL0     H66395   4.330   7.221   2.814  1.1122 -0.5468 -1.3102
  503MOL0     H66396   4.567   7.258   2.862  1.6837  0.0902  1.0594
  504MOL0     O66397   0.624   3.587  10.357  0.2847 -0.9968 -0.5476
  504MOL0     C66398   0.564   3.523  10.273 -0.7822 -0.0786 -0.9094
  504MOL0     O66399   0.430   3.500  10.269 -0.0450  0.3195 -1.0768
  504MOL0     C66400   0.360   3.495  10.388  0.6229 -0.3068 -1.1326
  504MOL0     C66401   0.415   3.451  10.514  0.3198  0.0445 -0.7790
  504MOL0     C66402   0.330   3.458  10.629 -0.2711  0.3344  0.6664
  504MOL0     C66403   0.194   3.472  10.615  0.4537 -0.2002  0.6157
  504MOL0     O66404   0.103   3.479  10.718 -0.1428 -0.9108 -0.5793
  504MOL0     C66405   0.099   3.374  10.815 -0.7846 -1.3731 -0.4083
  504MOL0     C66406   0.001   3.390  10.931 -0.1316  0.7501 -0.5877
  504MOL0     C66407  -0.143   3.404  10.896  0.9180 -0.4145  0.0803
  504MOL0     C66408  -0.186   3.549  10.856  0.0755 -0.0500 -0.4887
  504MOL0     C66409  -0.160   3.655  10.962  0.8208 -0.7293 -1.1919
  504MOL0     C66410  -0.211   3.790  10.915 -0.8666  0.1723  0.7424
  504MOL0     C66411  -0.198   3.889  11.024 -0.3808  0.5674  0.4346
  504MOL0     C66412  -0.206   4.032  10.975 -0.4634  0.0096  0.0962
  504MOL0     N66413  -0.334   4.080  10.917  0.4498  0.0161  0.1475
  504MOL0     C66414  -0.347   4.110  10.776  0.1876 -0.2304  0.0430
  504MOL0     C66415  -0.486   4.118  10.755 -0.7541  0.0224 -0.4893
  504MOL0     C66416  -0.553   4.178  10.635  0.3839 -0.4308  0.2747
  504MOL0     C66417  -0.558   4.329  10.636  0.2457  0.9180  0.9508
  504MOL0     C66418  -0.636   4.390  10.756  0.0111  0.6500  0.3414
  504MOL0     C66419  -0.587   4.536  10.800  0.0987  0.3496 -0.0868
  504MOL0     O66420  -0.652   4.641  10.711  0.7896  0.1167 -0.1941
  504MOL0     C66421  -0.564   4.735  10.671 -0.1479  0.3828  0.3215
  504MOL0     C66422  -0.566   4.757  10.526 -0.4151  0.0171  0.0464
  504MOL0     C66423  -0.480   4.855  10.474 -0.5671  0.0436 -0.7024
  504MOL0     C66424  -0.385   4.920  10.547  0.6552  0.1480 -0.4974
  504MOL0     C66425  -0.277   5.002  10.480 -0.3138 -0.0613  0.6214
  504MOL0     O66426  -0.230   4.945  10.363  1.1896  0.2484 -0.3598
  504MOL0     C66427  -0.137   5.011  10.285  1.6030  1.0380 -0.5133
  504MOL0     C66428  -0.150   5.151  10.252  0.1678  0.7019 -0.1045
  504MOL0     C66429  -0.063   5.200  10.162 -0.4278 -1.3208  0.7810
  504MOL0     C66430   0.045   5.129  10.112 -0.0919  0.4298 -0.2440
  504MOL0     O66431   0.145   5.190  10.032 -0.3839  0.7242  0.3483
  504MOL0     C66432   0.122   5.331  10.000 -0.2064  0.6822 -0.1481
  504MOL0     C66433   0.193   5.372   9.871 -0.3698  0.1996 -0.0348
  504MOL0     C66434   0.342   5.335   9.878  0.5228  0.3700 -0.8724
  504MOL0     C66435   0.420   5.421   9.793  0.4810 -0.2227 -0.5580
  504MOL0     C66436   0.484   5.551   9.864 -0.8784  0.1524 -0.0589
  504MOL0     C66437   0.538   5.655   9.763 -0.0044  0.4581  0.2353
  504MOL0     C66438   0.644   5.734   9.838 -0.2113  0.1938  0.3261
  504MOL0     C66439   0.718   5.823   9.727  0.4698  0.2146  0.5457
  504MOL0    Cl66440   0.754   5.988   9.793  0.7916 -0.4291 -0.0319
  504MOL0     C66441   0.056   4.997  10.148  0.7968 -0.7119  0.4367
  504MOL0     C66442  -0.034   4.935  10.234 -0.3273 -0.0474 -0.0653
  504MOL0     O66443  -0.236   5.106  10.529  0.0111  0.1934  0.9274
  504MOL0     C66444  -0.389   4.895  10.685  0.5049  0.5079 -0.3478
  504MOL0     C66445  -0.474   4.807  10.748 -0.2370 -0.6054 -0.2071
  504MOL0     N66446  -0.548   4.075  10.872 -0.2378 -0.6919  0.1323
  504MOL0     N66447  -0.458   4.051  10.966 -0.1087 -1.0616  0.5342
  504MOL0     C66448   0.143   3.503  10.485 -0.3198 -0.4690 -0.3572
  504MOL0     C66449   0.222   3.518  10.370 -0.6041 -0.7139  0.1927
  504MOL0     C66450   0.639   3.465  10.153 -0.3296  1.0014 -0.8430
  504MOL0     C66451   0.768   3.498  10.125 -0.1789 -0.6865  0.3698
  504MOL0     C66452   0.826   3.443  10.003 -0.1470  0.1489 -0.4556
  504MOL0     C66453   0.757   3.361   9.913 -0.3831 -0.4654  0.1669
  504MOL0     O66454   0.818   3.307   9.810  0.7810 -0.4693  0.4160
  504MOL0     C66455   0.959   3.338   9.768  0.1913  1.4026 -0.0338
  504MOL0     C66456   0.991   3.259   9.638  0.9166 -0.5486  0.2898
  504MOL0     C66457   1.005   3.112   9.675  0.8031 -0.6425  0.7058
  504MOL0     C66458   1.016   3.041   9.537  1.2637 -0.2169  0.3094
  504MOL0     C66459   1.026   2.892   9.561 -0.8723  1.2282 -0.5623
  504MOL0     C66460   1.049   2.774   9.592  0.2984  0.2271  0.6316
  504MOL0     C66461   0.628   3.322   9.946 -1.1373  0.4357 -0.8267
  504MOL0     C66462   0.570   3.373  10.055  0.7727  0.2681 -0.3198
  504MOL0     H66463   0.512   3.408  10.533 -0.0573 -0.3294  0.4189
  504MOL0     H66464   0.377   3.454  10.727  0.5248  2.5688  0.4318
  504MOL0     H66465   0.194   3.354  10.865 -1.1775 -2.0095  0.1150
  504MOL0     H66466   0.073   3.285  10.756  3.4141 -1.7156 -2.0406
  504MOL0     H66467   0.036   3.443  11.021 -1.2954  1.2001 -0.3713
  504MOL0     H66468  -0.002   3.285  10.960  0.8451  0.6997 -0.6360
  504MOL0     H66469  -0.194   3.380  10.990 -3.4625  2.9367 -1.0883
  504MOL0     H66470  -0.164   3.330  10.818 -0.1051 -0.1067  0.0424
  504MOL0     H66471  -0.137   3.585  10.766  2.9076  0.8887  1.3101
  504MOL0     H66472  -0.292   3.542  10.828  0.6988  1.5669 -3.6862
  504MOL0     H66473  -0.055   3.669  10.990  0.4359  0.9145 -0.4946
  504MOL0     H66474  -0.218   3.640  11.054  4.3740 -0.0201  1.3767
  504MOL0     H66475  -0.316   3.784  10.884 -0.4179 -1.5051 -0.6243
  504MOL0     H66476  -0.166   3.828  10.822  0.7524 -2.2872  0.4241
  504MOL0     H66477  -0.276   3.876  11.099  0.8073 -1.9912  1.3534
  504MOL0     H66478  -0.104   3.859  11.072 -1.2544 -2.1421  0.6351
  504MOL0     H66479  -0.127   4.067  10.908 -3.4117 -3.3708 -6.0221
  504MOL0     H66480  -0.188   4.082  11.070  3.6428  0.5874 -0.8011
  504MOL0     H66481  -0.274   4.143  10.703  1.5406 -2.4890  0.2821
  504MOL0     H66482  -0.651   4.132  10.620  0.4742 -0.8510  0.9700
  504MOL0     H66483  -0.501   4.157  10.541  0.5475  0.5473  0.1345
  504MOL0     H66484  -0.608   4.354  10.541  4.6032  0.9427 -1.6306
  504MOL0     H66485  -0.460   4.375  10.622  0.9185 -1.2184 -3.0043
  504MOL0     H66486  -0.739   4.386  10.721  0.0405 -5.6398 -0.1353
  504MOL0     H66487  -0.638   4.322  10.842 -1.6670 -0.4629 -0.5124
  504MOL0     H66488  -0.479   4.545  10.812  0.2348  0.5542 -1.3371
  504MOL0     H66489  -0.625   4.555  10.901  1.1337 -1.1750  0.6199
  504MOL0     H66490  -0.636   4.710  10.458  1.8049  0.1364 -2.4758
  504MOL0     H66491  -0.481   4.885  10.369 -1.6740  0.4439 -0.5871
  504MOL0     H66492  -0.237   5.211  10.275  0.3207  2.6418 -3.7992
  504MOL0     H66493  -0.084   5.304  10.138 -1.3222 -1.5896  0.3705
  504MOL0     H66494   0.157   5.392  10.084 -1.7678  1.2674  0.1153
  504MOL0     H66495   0.017   5.358   9.991 -0.1321  1.1720  0.3341
  504MOL0     H66496   0.166   5.472   9.837  0.9727  0.3417 -0.7695
  504MOL0     H66497   0.159   5.321   9.780  3.6959 -1.0338 -1.0612
  504MOL0     H66498   0.348   5.230   9.846  0.8795 -0.2304  1.0196
  504MOL0     H66499   0.382   5.338   9.980  2.5376  0.7940 -1.6335
  504MOL0     H66500   0.496   5.375   9.730  3.2626  0.2678  2.1873
  504MOL0     H66501   0.351   5.468   9.723 -3.5075 -3.3769  0.8715
  504MOL0     H66502   0.563   5.522   9.934 -0.8529 -1.5318 -0.7254
  504MOL0     H66503   0.405   5.603   9.919 -0.5896 -2.1366  2.7707
  504MOL0     H66504   0.450   5.716   9.744 -1.6222 -1.7491  0.2230
  504MOL0     H66505   0.574   5.613   9.669  0.8444  0.8473  0.3799
  504MOL0     H66506   0.599   5.811   9.901 -0.3868  1.4775 -1.3131
  504MOL0     H66507   0.711   5.670   9.897 -0.8494  1.8100  2.9822
  504MOL0     H66508   0.643   5.837   9.648  1.1724  2.2025  0.1731
  504MOL0     H66509   0.794   5.761   9.678 -0.1764 -0.5258  0.4513
  504MOL0     H66510   0.145   4.943  10.118  1.3423  0.7810 -0.7953
  504MOL0     H66511   0.004   4.838  10.263  0.5749 -0.2328 -1.7582
  504MOL0     H66512  -0.318   4.952  10.745 -2.0873  4.9851 -1.0387
  504MOL0     H66513  -0.458   4.800  10.855 -1.2546  4.1381  0.5042
  504MOL0     H66514   0.038   3.521  10.461  0.2129 -1.3904 -4.0668
  504MOL0     H66515   0.194   3.532  10.266 -0.9431 -0.2515  0.3413
  504MOL0     H66516   0.819   3.563  10.196 -3.1347 -0.1286  2.1535
  504MOL0     H66517   0.932   3.459   9.986  0.3868  0.0997  2.2901
  504MOL0     H66518   1.020   3.295   9.847 -0.4511 -1.6518 -1.0854
  504MOL0     H66519   0.976   3.445   9.752  1.0497  1.0721 -1.4914
  504MOL0     H66520   0.904   3.271   9.573 -0.5127  0.1196  2.2309
  504MOL0     H66521   1.069   3.313   9.583 -0.5234 -0.9170 -2.2666
  504MOL0     H66522   0.911   3.085   9.724  1.7571  0.4023  3.2973
  504MOL0     H66523   1.096   3.102   9.735  2.4719  1.7180 -1.2306
  504MOL0     H66524   0.928   3.066   9.478  0.5044 -0.1441  1.4348
  504MOL0     H66525   1.102   3.078   9.480 -1.0474  1.1903 -2.5128
  504MOL0     H66526   1.072   2.669   9.597 -2.5311 -0.7280 -2.5546
  504MOL0     H66527   0.576   3.263   9.871 -1.0375  3.9151 -3.9235
  504MOL0     H66528   0.471   3.335  10.075  0.8497 -0.2716 -0.9469
  505MOL0     O66529  10.259   6.761   8.651 -0.0217 -0.2915 -0.4003
  505MOL0     C66530  10.296   6.642   8.672  0.8393  0.0545 -0.3005
  505MOL0     O66531  10.207   6.540   8.690 -0.7017 -0.4559  1.1819
  505MOL0     C66532  10.073   6.563   8.666 -1.3110  0.1751 -0.1545
  505MOL0     C66533  10.016   6.452   8.595  0.3466 -0.0983  0.5539
  505MOL0     C66534   9.878   6.457   8.579 -0.2760 -0.3925 -0.3854
  505MOL0     C66535   9.797   6.559   8.641 -0.1927 -0.5318 -0.1303
  505MOL0     O66536   9.658   6.570   8.631  0.1139  0.1889 -0.0262
  505MOL0     C66537   9.574   6.449   8.638  0.9646 -0.2623  0.0101
  505MOL0     C66538   9.437   6.487   8.578 -0.3142  0.0814  0.0825
  505MOL0     C66539   9.439   6.543   8.433 -0.0035  1.0686 -0.2539
  505MOL0     C66540   9.293   6.544   8.378 -0.2477 -0.4099 -0.6925
  505MOL0     C66541   9.279   6.611   8.241  0.1651 -0.5544  0.8007
  505MOL0     C66542   9.159   6.555   8.172  0.4492 -1.1637 -0.3401
  505MOL0     C66543   9.147   6.603   8.027 -0.7522 -0.3592 -0.5406
  505MOL0     C66544   9.267   6.563   7.936  0.1139 -0.2925  0.5025
  505MOL0     N66545   9.246   6.599   7.797 -0.5616  0.0801  0.4133
  505MOL0     C66546   9.291   6.712   7.731  0.6888  1.0254  0.1061
  505MOL0     C66547   9.265   6.690   7.600 -0.0412 -0.6740  0.9302
  505MOL0     C66548   9.296   6.787   7.481  0.6796 -0.0485 -0.3774
  505MOL0     C66549   9.426   6.849   7.509 -0.9134 -0.7592  0.3894
  505MOL0     C66550   9.472   6.926   7.382  1.2042 -0.0858 -0.2871
  505MOL0     C66551   9.386   7.059   7.384  0.1622  0.9243 -0.2463
  505MOL0     O66552   9.417   7.132   7.265  0.3159 -0.0565  0.0898
  505MOL0     C66553   9.449   7.265   7.283 -0.5326 -0.4414  0.3149
  505MOL0     C66554   9.360   7.371   7.324  0.5795  0.0862  0.0475
  505MOL0     C66555   9.387   7.506   7.336  0.2895 -0.3746 -0.4646
  505MOL0     C66556   9.518   7.547   7.302  0.4590 -0.3105  0.1940
  505MOL0     C66557   9.556   7.689   7.305 -0.2133  0.4794 -0.4952
  505MOL0     O66558   9.690   7.714   7.309  0.5280  0.1597  0.1405
  505MOL0     C66559   9.727   7.837   7.347 -0.1627 -0.9205 -0.3280
  505MOL0     C66560   9.786   7.836   7.475 -0.5488  0.7978 -0.6906
  505MOL0     C66561   9.846   7.947   7.534 -0.1765  0.1199 -0.5297
  505MOL0     C66562   9.851   8.068   7.474 -0.0967  0.2130 -1.0138
  505MOL0     O66563   9.904   8.163   7.556  1.0527  0.1046 -0.7969
  505MOL0     C66564   9.920   8.295   7.518  0.5981 -0.2092 -0.0126
  505MOL0     C66565  10.051   8.314   7.438  1.0347 -0.7840  0.1804
  505MOL0     C66566  10.160   8.346   7.534 -0.5166 -0.7113 -0.0853
  505MOL0     C66567  10.302   8.370   7.457 -0.3944  0.5198 -0.1760
  505MOL0     C66568  10.407   8.402   7.561 -0.8948 -0.4271 -0.2241
  505MOL0     C66569  10.554   8.398   7.498 -0.1608  0.5423 -0.2134
  505MOL0     C66570  10.649   8.441   7.605  0.1449 -0.2182  1.6640
  505MOL0     C66571  10.684   8.329   7.696  0.0972  0.0076  0.3099
  505MOL0    Cl66572  10.809   8.405   7.803 -0.0926 -0.0045  0.2254
  505MOL0     C66573   9.788   8.084   7.346 -0.0004  0.3151  0.3490
  505MOL0     C66574   9.733   7.964   7.275  0.4385  0.6384 -0.3526
  505MOL0     O66575   9.465   7.770   7.316  0.3823 -0.0352 -0.2702
  505MOL0     C66576   9.615   7.446   7.267 -0.3361  0.9243 -0.1888
  505MOL0     C66577   9.582   7.309   7.261 -0.3955  0.1963  0.2112
  505MOL0     N66578   9.187   6.578   7.589 -0.5581 -0.2560 -0.2158
  505MOL0     N66579   9.186   6.520   7.705  0.2592  1.2488  0.6132
  505MOL0     C66580   9.859   6.652   8.715 -0.3902  0.3809  0.1570
  505MOL0     C66581   9.998   6.661   8.734 -0.0491 -0.3286  0.7222
  505MOL0     C66582  10.441   6.623   8.696  1.1711  0.5927 -1.0685
  505MOL0     C66583  10.530   6.721   8.662 -0.0457 -0.3209 -0.0686
  505MOL0     C66584  10.659   6.715   8.700 -0.3867  0.6378 -0.1401
  505MOL0     C66585  10.714   6.608   8.761  0.8048  0.4967 -0.1534
  505MOL0     O66586  10.847   6.618   8.787 -0.2647 -0.1086 -0.4910
  505MOL0     C66587  10.915   6.528   8.879  0.2990 -0.2164  0.1976
  505MOL0     C66588  10.939   6.614   9.002 -0.0163 -0.6269  0.5890
  505MOL0     C66589  11.018   6.740   8.955  0.4452 -0.2062 -0.6716
  505MOL0     C66590  11.165   6.724   8.993 -0.0323  0.0773 -0.9042
  505MOL0     C66591  11.231   6.604   8.938  0.0990 -1.3835 -0.1188
  505MOL0     C66592  11.268   6.509   8.886  0.6693  0.5370 -0.7347
  505MOL0     C66593  10.627   6.500   8.803 -0.4064 -0.6947  0.1792
  505MOL0     C66594  10.493   6.513   8.769 -0.2725 -0.5152  0.0066
  505MOL0     H66595  10.080   6.376   8.550 -0.8416 -2.2470  2.2768
  505MOL0     H66596   9.821   6.382   8.526 -2.0221 -0.4913  1.5113
  505MOL0     H66597   9.562   6.404   8.737  0.9582 -1.9459 -0.7349
  505MOL0     H66598   9.619   6.373   8.573  2.6358 -0.1595  0.9851
  505MOL0     H66599   9.382   6.560   8.639 -3.3594 -1.5451 -0.5242
  505MOL0     H66600   9.380   6.395   8.590  0.8126 -1.2100 -3.3882
  505MOL0     H66601   9.498   6.476   8.370  1.8244 -2.6710  4.7605
  505MOL0     H66602   9.484   6.642   8.439 -0.5594  1.7785 -4.7324
  505MOL0     H66603   9.259   6.442   8.360 -0.3306 -0.5202  0.0602
  505MOL0     H66604   9.215   6.591   8.439 -2.0215 -0.5972 -2.6898
  505MOL0     H66605   9.366   6.592   8.177 -0.1924  0.0268  0.1320
  505MOL0     H66606   9.281   6.720   8.251  0.8636 -0.2335 -1.9912
  505MOL0     H66607   9.068   6.599   8.213  0.0443  1.5839 -3.7078
  505MOL0     H66608   9.154   6.446   8.182  2.1454 -1.3264 -0.8557
  505MOL0     H66609   9.055   6.557   7.991 -0.7846 -0.3396 -0.4825
  505MOL0     H66610   9.119   6.709   8.025 -2.5940 -0.8264 -0.9261
  505MOL0     H66611   9.276   6.454   7.943 -0.9976 -0.8162 -3.4800
  505MOL0     H66612   9.358   6.606   7.979  0.9459  1.2008 -2.4565
  505MOL0     H66613   9.353   6.788   7.778  1.8362  0.1795  0.0009
  505MOL0     H66614   9.216   6.861   7.471 -0.1902 -0.9533 -0.2582
  505MOL0     H66615   9.291   6.733   7.386  5.5954  0.6253 -1.2714
  505MOL0     H66616   9.487   6.766   7.546 -3.7694 -1.9272  2.8721
  505MOL0     H66617   9.423   6.922   7.591  0.5587 -2.2004  1.7888
  505MOL0     H66618   9.574   6.965   7.395  0.1144  2.8832  0.1687
  505MOL0     H66619   9.464   6.864   7.293 -2.5615  1.6165 -1.3174
  505MOL0     H66620   9.403   7.126   7.468  1.8026  2.1335 -1.4777
  505MOL0     H66621   9.280   7.033   7.378  0.9446 -2.4381 -3.3496
  505MOL0     H66622   9.263   7.336   7.358  1.3280 -1.5168  0.6495
  505MOL0     H66623   9.313   7.583   7.353  0.2438 -0.6148  0.4811
  505MOL0     H66624   9.781   7.738   7.521 -0.4081  1.1509  0.0915
  505MOL0     H66625   9.883   7.924   7.634 -1.8124 -2.3282 -0.3844
  505MOL0     H66626   9.914   8.367   7.600  2.0596  0.0115 -0.0601
  505MOL0     H66627   9.840   8.325   7.449  2.0472  3.3035 -0.3896
  505MOL0     H66628  10.032   8.406   7.382  2.1143  0.0657  1.1647
  505MOL0     H66629  10.080   8.227   7.379  0.3596  0.3205 -1.8875
  505MOL0     H66630  10.169   8.253   7.591 -1.9402 -1.7721 -1.5136
  505MOL0     H66631  10.145   8.429   7.604 -1.9357 -1.3784  0.4562
  505MOL0     H66632  10.318   8.280   7.397 -0.7840 -0.6872  1.4475
  505MOL0     H66633  10.289   8.450   7.384  2.3563 -0.0966 -1.4760
  505MOL0     H66634  10.407   8.347   7.656 -0.2729  2.5022  1.5705
  505MOL0     H66635  10.380   8.500   7.600  2.7061 -0.4727  2.9424
  505MOL0     H66636  10.551   8.463   7.410  3.0387  3.8956  1.8920
  505MOL0     H66637  10.581   8.293   7.482  1.4379  0.3958  2.7485
  505MOL0     H66638  10.738   8.471   7.549 -2.2917  2.7561 -1.0456
  505MOL0     H66639  10.603   8.522   7.662 -3.5206 -2.3407  2.0362
  505MOL0     H66640  10.740   8.248   7.649  0.5100  0.6942 -0.4034
  505MOL0     H66641  10.605   8.275   7.749  0.8140 -3.0000 -1.4620
  505MOL0     H66642   9.765   8.180   7.301  1.6283  1.0807  1.0930
  505MOL0     H66643   9.689   7.973   7.176 -3.1101  0.4610  1.0555
  505MOL0     H66644   9.720   7.474   7.264 -0.2778  0.6885 -0.4953
  505MOL0     H66645   9.663   7.239   7.244  0.0760  0.9664 -0.8301
  505MOL0     H66646   9.801   6.732   8.760 -0.8161  0.6456 -0.8431
  505MOL0     H66647  10.046   6.734   8.798  2.8498 -0.7104 -0.8492
  505MOL0     H66648  10.486   6.814   8.625 -0.6156  0.3564  2.1556
  505MOL0     H66649  10.718   6.805   8.683 -1.3280  1.2696 -0.0962
  505MOL0     H66650  11.008   6.495   8.833 -0.0973 -1.9000  0.5479
  505MOL0     H66651  10.856   6.437   8.896 -2.2814  0.3505 -4.1687
  505MOL0     H66652  10.842   6.631   9.050 -1.8042 -0.7832 -2.6836
  505MOL0     H66653  10.996   6.565   9.082  1.4041  2.2710  1.4796
  505MOL0     H66654  10.980   6.822   9.016  1.1088  0.5305 -1.2233
  505MOL0     H66655  11.007   6.770   8.850  1.9358  2.6852 -0.0878
  505MOL0     H66656  11.217   6.814   8.961 -3.1530  1.9082 -1.2533
  505MOL0     H66657  11.166   6.716   9.103 -0.6374 -1.5013 -0.9767
  505MOL0     H66658  11.315   6.422   8.845  2.8175  0.2742  2.0621
  505MOL0     H66659  10.669   6.409   8.845 -0.6529  0.2596  2.6386
  505MOL0     H66660  10.439   6.422   8.792 -0.2988 -1.0615 -2.0820
  506MOL0     O66661   1.262   8.710  10.153 -0.2384 -0.8354 -0.7083
  506MOL0     C66662   1.321   8.656  10.253 -0.8554 -0.0289  0.0033
  506MOL0     O66663   1.381   8.724  10.353  0.7490  0.0298  0.4846
  506MOL0     C66664   1.375   8.857  10.371  0.3221  0.5700  0.2975
  506MOL0     C66665   1.290   8.957  10.320  1.5186 -0.1407 -0.4573
  506MOL0     C66666   1.303   9.089  10.367 -0.3693 -0.6641 -0.2710
  506MOL0     C66667   1.398   9.126  10.461 -0.2669  0.1763 -0.5004
  506MOL0     O66668   1.417   9.251  10.514 -0.3687  0.4944 -0.1278
  506MOL0     C66669   1.552   9.280  10.568 -0.2636  0.1332  0.0443
  506MOL0     C66670   1.574   9.430  10.530 -0.4047 -0.0044 -0.8365
  506MOL0     C66671   1.718   9.484  10.573  0.6012 -0.4272  0.7642
  506MOL0     C66672   1.831   9.393  10.516  0.3120  0.2542 -0.2412
  506MOL0     C66673   1.969   9.464  10.521  1.0798 -0.5069 -1.0304
  506MOL0     C66674   2.092   9.382  10.498  0.1868 -0.6594 -0.8669
  506MOL0     C66675   2.218   9.466  10.517 -0.5027 -0.4343 -0.6067
  506MOL0     C66676   2.259   9.486  10.673  0.4628  0.5617 -0.5016
  506MOL0     N66677   2.407   9.516  10.667 -0.8936 -0.5704  0.4097
  506MOL0     C66678   2.467   9.626  10.624 -0.1372 -0.3497 -0.0640
  506MOL0     C66679   2.599   9.612  10.629  0.2294  0.1595  0.6694
  506MOL0     C66680   2.692   9.725  10.575 -0.1421  0.2953 -1.4149
  506MOL0     C66681   2.722   9.745  10.426  0.3232  0.1856 -0.7841
  506MOL0     C66682   2.741   9.608  10.343  0.2469 -0.0597 -0.3728
  506MOL0     C66683   2.885   9.548  10.357 -0.4550  0.4525 -0.3038
  506MOL0     O66684   2.907   9.464  10.243  0.4617  0.1217 -0.2149
  506MOL0     C66685   3.022   9.391  10.247  0.6612  0.3785 -0.2816
  506MOL0     C66686   3.017   9.248  10.251 -0.7096  0.0265  0.4198
  506MOL0     C66687   3.138   9.171  10.241  0.2449 -0.3319 -0.5373
  506MOL0     C66688   3.261   9.231  10.249 -0.8332  0.2786  0.4044
  506MOL0     C66689   3.388   9.155  10.229  0.3101  0.9312 -0.3456
  506MOL0     O66690   3.502   9.215  10.260  0.6466  0.7123 -0.1622
  506MOL0     C66691   3.616   9.152  10.230  0.6450 -0.2852  0.9475
  506MOL0     C66692   3.683   9.163  10.104  0.0476  0.4673 -0.5567
  506MOL0     C66693   3.804   9.103  10.082  0.1657  0.8604 -0.0144
  506MOL0     C66694   3.870   9.033  10.176 -0.4339  0.0987 -1.4973
  506MOL0     O66695   3.997   8.985  10.151 -0.4507  0.4800 -0.8546
  506MOL0     C66696   4.087   8.970  10.266  0.6018  0.5276 -1.1009
  506MOL0     C66697   4.219   8.983  10.197  0.1559 -1.0014  1.1094
  506MOL0     C66698   4.272   9.126  10.147 -0.5726  0.3632  0.1487
  506MOL0     C66699   4.226   9.248  10.226 -0.0236  0.6770 -0.4170
  506MOL0     C66700   4.295   9.380  10.188  0.0960  0.7374 -0.3478
  506MOL0     C66701   4.217   9.509  10.229  0.4844  0.0307  0.4638
  506MOL0     C66702   4.177   9.527  10.376 -0.1793  0.4920  0.1000
  506MOL0     C66703   4.299   9.558  10.472 -0.1980 -0.2038  0.4829
  506MOL0    Cl66704   4.329   9.725  10.434 -0.0778 -0.0467 -0.2231
  506MOL0     C66705   3.803   9.010  10.303  0.4720 -0.5697  0.5084
  506MOL0     C66706   3.689   9.079  10.317 -0.8460 -0.2276 -0.3523
  506MOL0     O66707   3.381   9.036  10.215 -0.1399  0.5614 -0.2338
  506MOL0     C66708   3.268   9.377  10.254  0.5288 -0.2650  0.4604
  506MOL0     C66709   3.150   9.452  10.252  1.1328 -1.3683  1.1149
  506MOL0     N66710   2.628   9.486  10.681 -0.0227  0.2938 -0.1038
  506MOL0     N66711   2.511   9.431  10.693 -0.0874 -0.9231 -0.6887
  506MOL0     C66712   1.478   9.017  10.514 -0.6220 -0.3834 -0.9655
  506MOL0     C66713   1.469   8.892  10.472  0.5762 -0.5702  0.9211
  506MOL0     C66714   1.334   8.509  10.258  0.6239 -0.0652  0.6434
  506MOL0     C66715   1.366   8.454  10.381 -0.7345  0.5356 -0.0338
  506MOL0     C66716   1.357   8.308  10.388 -1.2141  0.7238  1.2342
  506MOL0     C66717   1.336   8.230  10.271  0.2228 -0.2882 -1.0318
  506MOL0     O66718   1.353   8.096  10.282  0.8818 -0.0162  0.6638
  506MOL0     C66719   1.236   8.021  10.263 -0.7626 -0.0994 -0.2099
  506MOL0     C66720   1.291   7.881  10.253  0.0827 -0.2611 -0.3736
  506MOL0     C66721   1.357   7.828  10.384  0.2760 -0.1242  0.5962
  506MOL0     C66722   1.470   7.729  10.363 -0.0347  0.0883  0.3119
  506MOL0     C66723   1.445   7.622  10.262  0.2412 -0.8562 -0.1869
  506MOL0     C66724   1.409   7.550  10.172 -0.0559  0.1749 -0.8187
  506MOL0     C66725   1.300   8.294  10.151  0.6905 -0.4031  0.2727
  506MOL0     C66726   1.284   8.432  10.151 -0.1937  0.6335 -0.2382
  506MOL0     H66727   1.212   8.941  10.246  2.1590  0.6015 -1.3019
  506MOL0     H66728   1.245   9.177  10.341  1.3864  0.4095 -0.7591
  506MOL0     H66729   1.628   9.225  10.512  1.0531  3.8633 -2.1890
  506MOL0     H66730   1.556   9.262  10.676 -0.5002 -1.1941 -0.1541
  506MOL0     H66731   1.502   9.498  10.576  0.6179  1.6512 -1.5815
  506MOL0     H66732   1.576   9.448  10.422  2.5089  1.4380 -0.6310
  506MOL0     H66733   1.713   9.505  10.680 -2.5979 -0.9578  0.8297
  506MOL0     H66734   1.714   9.584  10.528  1.2361 -0.1155  1.3690
  506MOL0     H66735   1.833   9.303  10.577  1.0271  1.3949  1.5003
  506MOL0     H66736   1.809   9.378  10.410 -2.5847  4.5176 -0.5029
  506MOL0     H66737   1.973   9.495  10.626 -2.3967  0.4565 -1.0629
  506MOL0     H66738   1.966   9.556  10.461 -1.7373  0.5691  0.5314
  506MOL0     H66739   2.084   9.364  10.390 -0.3829 -2.5164 -0.5545
  506MOL0     H66740   2.107   9.284  10.544 -1.6787 -1.3682 -1.6683
  506MOL0     H66741   2.302   9.420  10.464 -1.5956 -2.6668 -0.5016
  506MOL0     H66742   2.213   9.561  10.463  2.9971 -0.4717 -1.2473
  506MOL0     H66743   2.227   9.396  10.727 -1.4598  2.4837  1.7957
  506MOL0     H66744   2.201   9.566  10.719 -1.7558 -0.4567 -1.3714
  506MOL0     H66745   2.410   9.711  10.589  1.4704  0.0406 -1.8542
  506MOL0     H66746   2.788   9.704  10.622 -1.1101 -0.4463  0.3260
  506MOL0     H66747   2.654   9.821  10.611  1.1643  2.2039 -4.6910
  506MOL0     H66748   2.810   9.809  10.421 -1.3403  2.5787 -1.4484
  506MOL0     H66749   2.649   9.813  10.381  0.0376 -0.0403 -0.6668
  506MOL0     H66750   2.667   9.537  10.382 -0.9250  1.5735  0.5737
  506MOL0     H66751   2.725   9.626  10.237  3.8864 -1.0367 -1.2094
  506MOL0     H66752   2.886   9.501  10.456 -2.2271  0.6203 -0.1745
  506MOL0     H66753   2.963   9.624  10.354 -0.2670  0.2379 -1.1483
  506MOL0     H66754   2.922   9.196  10.242  0.4714 -1.8038 -3.5206
  506MOL0     H66755   3.132   9.065  10.218  5.5459 -1.1310  0.4369
  506MOL0     H66756   3.634   9.220  10.026  0.3031 -1.0873 -1.9136
  506MOL0     H66757   3.856   9.128   9.989  1.5313  1.4729  0.8724
  506MOL0     H66758   4.086   8.871  10.313  0.6148  1.7900  1.7947
  506MOL0     H66759   4.072   9.057  10.331 -0.5742 -1.1572  0.9947
  506MOL0     H66760   4.213   8.926  10.104  0.2315  1.8502 -0.7600
  506MOL0     H66761   4.295   8.928  10.253  1.5314 -2.2343 -1.7588
  506MOL0     H66762   4.249   9.143  10.041  0.7242  3.0005  0.2154
  506MOL0     H66763   4.379   9.120  10.165 -0.8067  2.4561  2.6833
  506MOL0     H66764   4.119   9.266  10.211 -0.4036 -1.4377 -0.4918
  506MOL0     H66765   4.248   9.229  10.331 -2.9658 -0.6283  0.0716
  506MOL0     H66766   4.308   9.382  10.080  2.0183 -0.7965 -0.1984
  506MOL0     H66767   4.398   9.383  10.226 -0.0817  1.3474  0.1075
  506MOL0     H66768   4.133   9.507  10.160  2.4114 -2.9780 -2.0836
  506MOL0     H66769   4.281   9.593  10.200  1.0782  0.0735  1.8085
  506MOL0     H66770   4.107   9.610  10.387  2.9092  3.3897 -0.4252
  506MOL0     H66771   4.131   9.440  10.423  3.1841 -2.7701 -2.1029
  506MOL0     H66772   4.386   9.501  10.437 -0.5284 -1.4988  1.6786
  506MOL0     H66773   4.279   9.531  10.576  4.0344 -3.3355  0.7292
  506MOL0     H66774   3.856   8.958  10.381  3.8516 -0.3916 -1.4766
  506MOL0     H66775   3.653   9.057  10.417  0.2438 -2.4162 -0.3819
  506MOL0     H66776   3.357   9.440  10.259  0.5186 -0.0510 -1.4265
  506MOL0     H66777   3.153   9.560  10.242  0.2656 -1.5314 -1.5873
  506MOL0     H66778   1.525   9.038  10.609 -0.2608 -0.1085 -1.2014
  506MOL0     H66779   1.531   8.823  10.529  1.6552  1.1569  1.9407
  506MOL0     H66780   1.415   8.505  10.463 -0.6549  0.0662  0.2149
  506MOL0     H66781   1.382   8.260  10.482  3.3930  1.6936  0.7266
  506MOL0     H66782   1.200   8.045  10.162  1.5384  3.7315 -0.3090
  506MOL0     H66783   1.165   8.033  10.345 -0.3626 -1.7126  0.4202
  506MOL0     H66784   1.233   7.798  10.212  1.4625 -1.8398  0.7404
  506MOL0     H66785   1.370   7.891  10.178  1.1903 -2.4451  0.4026
  506MOL0     H66786   1.282   7.772  10.441 -0.6457  1.2111  0.7451
  506MOL0     H66787   1.389   7.903  10.457  1.5330 -1.8281  1.8597
  506MOL0     H66788   1.555   7.791  10.334 -1.8044  1.3910 -2.6093
  506MOL0     H66789   1.494   7.678  10.457  0.4230 -1.0596 -0.3991
  506MOL0     H66790   1.376   7.490  10.090 -0.7321  2.5580 -2.3857
  506MOL0     H66791   1.293   8.215  10.076 -1.1806 -0.5947  0.6052
  506MOL0     H66792   1.265   8.468  10.050  0.0279  0.8541 -0.2008
  507MOL0     O66793   8.343   6.181   9.972 -0.0374  0.2218  0.3111
  507MOL0     C66794   8.234   6.126   9.969 -0.3115 -0.8101 -0.8034
  507MOL0     O66795   8.144   6.130  10.067 -0.4033 -0.2834  0.6894
  507MOL0     C66796   8.161   6.203  10.191  0.2147  0.0532  0.7295
  507MOL0     C66797   8.279   6.234  10.251  0.5849  0.2757  0.0424
  507MOL0     C66798   8.282   6.324  10.358 -0.7929  0.0558  0.2319
  507MOL0     C66799   8.162   6.381  10.409 -1.5758  0.3157  0.1312
  507MOL0     O66800   8.161   6.463  10.517 -0.6205  0.0027  0.0299
  507MOL0     C66801   8.183   6.598  10.496  0.2740  0.7769  0.9415
  507MOL0     C66802   8.293   6.649  10.596 -0.1951  0.1960 -0.1203
  507MOL0     C66803   8.228   6.709  10.725 -0.7058  0.3104 -1.2708
  507MOL0     C66804   8.339   6.743  10.829 -0.1081 -0.0792 -0.1045
  507MOL0     C66805   8.279   6.844  10.929  0.1022 -0.8957 -0.3036
  507MOL0     C66806   8.380   6.910  11.029  0.1527  0.3255 -0.3418
  507MOL0     C66807   8.507   6.964  10.966 -0.4903  0.5792  0.0050
  507MOL0     C66808   8.573   7.086  11.041  0.0989 -0.4344 -0.3850
  507MOL0     N66809   8.549   7.226  11.002 -0.2581  0.4456  0.2396
  507MOL0     C66810   8.494   7.329  11.073 -0.5781 -0.0814  0.3491
  507MOL0     C66811   8.532   7.438  11.003  0.1345 -0.3487 -0.3631
  507MOL0     C66812   8.471   7.572  11.021  0.3480 -0.3912 -0.6579
  507MOL0     C66813   8.530   7.682  10.920  0.2018 -0.9015 -0.5353
  507MOL0     C66814   8.438   7.806  10.937 -0.3139  0.9738  0.3313
  507MOL0     C66815   8.483   7.879  11.058 -0.5990  0.3410  0.3932
  507MOL0     O66816   8.389   7.965  11.109 -0.3170 -0.6738 -0.7197
  507MOL0     C66817   8.440   8.090  11.148 -0.0170  0.7757 -1.2129
  507MOL0     C66818   8.534   8.164  11.085  0.0562  1.4133 -0.0549
  507MOL0     C66819   8.598   8.263  11.148 -0.6245  0.0955  0.2154
  507MOL0     C66820   8.551   8.307  11.271 -0.1625  0.7963 -0.7395
  507MOL0     C66821   8.612   8.417  11.344  0.0224 -0.4264  1.0201
  507MOL0     O66822   8.709   8.488  11.280  0.1204  0.4009 -0.0471
  507MOL0     C66823   8.799   8.571  11.342 -1.0428 -0.7032 -0.2364
  507MOL0     C66824   8.806   8.705  11.294 -0.3723  0.3073 -0.4882
  507MOL0     C66825   8.895   8.800  11.353 -0.2744 -0.4184  0.2712
  507MOL0     C66826   8.996   8.769  11.442 -0.1276 -0.7500  0.3370
  507MOL0     O66827   9.088   8.846  11.498 -0.6347 -0.7713 -0.2007
  507MOL0     C66828   9.095   8.983  11.466  0.1894 -0.3051  0.1786
  507MOL0     C66829   9.155   9.008  11.326  0.2166  0.4714  0.4238
  507MOL0     C66830   9.161   9.157  11.291 -0.6979 -0.0813 -1.3399
  507MOL0     C66831   9.187   9.185  11.148  0.9473  0.4936  0.8004
  507MOL0     C66832   9.060   9.189  11.048  0.7788 -0.1172  0.0496
  507MOL0     C66833   8.998   9.056  11.001 -1.2169 -0.6801 -0.6009
  507MOL0     C66834   9.087   8.978  10.901 -0.1943 -0.9430  0.5744
  507MOL0     C66835   9.001   8.854  10.860 -0.9593  0.7453  0.0392
  507MOL0    Cl66836   9.100   8.736  10.768 -0.4670  0.1514 -0.2078
  507MOL0     C66837   8.997   8.629  11.476  0.5705  1.1119 -0.8010
  507MOL0     C66838   8.907   8.538  11.430  0.2782  0.4811  0.2251
  507MOL0     O66839   8.578   8.440  11.453 -0.4347 -0.2087 -0.9948
  507MOL0     C66840   8.447   8.234  11.334 -0.3381 -0.1427  0.4603
  507MOL0     C66841   8.400   8.123  11.273 -0.0262 -0.4125 -0.4903
  507MOL0     N66842   8.605   7.405  10.899  0.2371  0.5223 -0.7698
  507MOL0     N66843   8.613   7.281  10.896 -0.2649 -0.5596  0.4589
  507MOL0     C66844   8.047   6.328  10.361  0.4315  0.0207  0.8767
  507MOL0     C66845   8.046   6.241  10.257 -0.5640  0.4640 -0.1622
  507MOL0     C66846   8.204   6.063   9.850  0.2619  0.0717  0.7388
  507MOL0     C66847   8.296   6.034   9.745  0.7367 -0.0667 -0.1573
  507MOL0     C66848   8.253   5.962   9.628 -1.3976 -0.5719  0.4972
  507MOL0     C66849   8.117   5.925   9.608 -1.3304 -0.1250  0.0520
  507MOL0     O66850   8.093   5.860   9.493 -0.1075  0.2183 -0.4508
  507MOL0     C66851   7.962   5.795   9.492  0.0871 -0.4768 -0.0848
  507MOL0     C66852   7.951   5.685   9.387  0.2689 -0.3506  0.1937
  507MOL0     C66853   8.048   5.566   9.399  1.6982  0.4277 -0.4347
  507MOL0     C66854   7.981   5.429   9.365  0.0995  0.1903 -0.1198
  507MOL0     C66855   8.087   5.317   9.356  0.0132  0.1527  0.1577
  507MOL0     C66856   8.154   5.213   9.347  0.0540 -0.9230  0.1347
  507MOL0     C66857   8.028   5.958   9.706 -0.2062 -0.2066  0.0077
  507MOL0     C66858   8.066   6.025   9.830  0.7633  0.5297  1.3215
  507MOL0     H66859   8.379   6.204  10.223  0.7899 -0.0384  1.0663
  507MOL0     H66860   8.370   6.338  10.421  2.2997 -3.0907 -2.9333
  507MOL0     H66861   8.088   6.651  10.508 -0.9319 -0.3542 -2.4615
  507MOL0     H66862   8.209   6.619  10.392 -0.7951 -1.6624  0.1046
  507MOL0     H66863   8.331   6.738  10.544 -1.9880  0.3318 -1.3235
  507MOL0     H66864   8.375   6.579  10.613  1.6958  2.1153 -0.9213
  507MOL0     H66865   8.151   6.645  10.769 -2.3964  2.1790 -1.3498
  507MOL0     H66866   8.184   6.804  10.691  2.0146  1.5732 -1.5585
  507MOL0     H66867   8.371   6.648  10.873  2.2252  0.6935  0.0378
  507MOL0     H66868   8.426   6.791  10.784 -1.6027  3.1303  0.1774
  507MOL0     H66869   8.191   6.801  10.979 -2.0175 -0.7471 -3.6319
  507MOL0     H66870   8.235   6.924  10.869  0.2340 -1.1405 -0.7294
  507MOL0     H66871   8.414   6.830  11.095  1.0051  0.4226 -0.6443
  507MOL0     H66872   8.327   6.985  11.088  1.0963  0.3577  0.4892
  507MOL0     H66873   8.581   6.885  10.959 -0.6638  0.3455  0.7524
  507MOL0     H66874   8.487   6.998  10.863  2.7068 -0.5898 -1.1072
  507MOL0     H66875   8.678   7.067  11.018  1.2162  1.8994  2.2183
  507MOL0     H66876   8.566   7.075  11.150 -0.9931 -1.9898 -0.5760
  507MOL0     H66877   8.433   7.322  11.162 -0.2057 -0.0990  0.6097
  507MOL0     H66878   8.495   7.601  11.124  1.5768  0.9131 -1.2733
  507MOL0     H66879   8.373   7.549  10.979  0.7746 -1.4969 -1.0965
  507MOL0     H66880   8.516   7.637  10.821 -2.3269  1.3898 -1.3443
  507MOL0     H66881   8.634   7.708  10.942 -0.0545  0.9564 -1.3411
  507MOL0     H66882   8.450   7.871  10.850  4.2899  0.9139  0.6547
  507MOL0     H66883   8.334   7.773  10.938 -0.6786  1.8694 -2.2851
  507MOL0     H66884   8.584   7.918  11.042 -1.4499  2.8841  0.7815
  507MOL0     H66885   8.507   7.810  11.139 -2.1776 -1.3145 -0.4709
  507MOL0     H66886   8.570   8.120  10.993 -3.3031 -1.4892 -0.2013
  507MOL0     H66887   8.668   8.309  11.079  1.8143 -0.9883  1.8432
  507MOL0     H66888   8.730   8.731  11.221  1.6877  1.6907 -2.2272
  507MOL0     H66889   8.889   8.906  11.333  3.7478 -0.4857 -2.3211
  507MOL0     H66890   9.168   9.036  11.528  0.4778 -0.0090 -0.4105
  507MOL0     H66891   8.996   9.030  11.473 -0.0364 -0.4643 -1.5201
  507MOL0     H66892   9.093   8.957  11.250 -1.6802  0.5051  1.8691
  507MOL0     H66893   9.257   8.968  11.319  0.1028  0.3177 -0.5124
  507MOL0     H66894   9.238   9.202  11.354 -0.1572 -2.4125 -0.2170
  507MOL0     H66895   9.066   9.200  11.326 -1.9124 -4.0277  0.8203
  507MOL0     H66896   9.237   9.281  11.135  2.6580 -0.1615  2.1786
  507MOL0     H66897   9.251   9.105  11.111 -0.8262 -1.0575  0.8991
  507MOL0     H66898   9.098   9.245  10.962 -0.6591  2.9526  1.2561
  507MOL0     H66899   8.980   9.248  11.093  2.4539  0.4712  2.4275
  507MOL0     H66900   8.900   9.077  10.955 -3.5375 -2.6599  2.9833
  507MOL0     H66901   8.968   8.992  11.084  1.9844 -0.2209  1.0398
  507MOL0     H66902   9.104   9.040  10.813  3.8984  0.8146  2.3503
  507MOL0     H66903   9.186   8.967  10.946  0.0658  1.0953  0.5805
  507MOL0     H66904   8.922   8.884  10.791 -0.5852 -2.6251 -2.1063
  507MOL0     H66905   8.949   8.811  10.945  0.2941 -1.2106 -0.1187
  507MOL0     H66906   9.078   8.583  11.531 -2.5172 -3.3465  0.6148
  507MOL0     H66907   8.899   8.432  11.452  2.6817 -0.7468 -3.7971
  507MOL0     H66908   8.404   8.265  11.429  0.8994 -1.3777  1.4608
  507MOL0     H66909   8.338   8.051  11.326 -2.5471  3.2409  2.0522
  507MOL0     H66910   7.956   6.358  10.412  1.0962  1.3395  1.3504
  507MOL0     H66911   7.946   6.214  10.224 -0.9163  1.0569  0.3878
  507MOL0     H66912   8.402   6.054   9.752  1.0955 -1.7966 -0.2189
  507MOL0     H66913   8.324   5.927   9.554 -1.7538 -1.7304  0.6872
  507MOL0     H66914   7.883   5.870   9.478  3.0146  2.7707 -0.2845
  507MOL0     H66915   7.947   5.746   9.589  0.3276  0.7963  0.6104
  507MOL0     H66916   7.847   5.652   9.403  0.5724 -1.5910 -0.2447
  507MOL0     H66917   7.966   5.732   9.289  2.3626  0.1141  0.7109
  507MOL0     H66918   8.091   5.561   9.500  1.4499 -1.7768 -0.3778
  507MOL0     H66919   8.128   5.577   9.324  3.2875  2.7933  1.4543
  507MOL0     H66920   7.916   5.393   9.446  0.7661 -0.7474  0.0239
  507MOL0     H66921   7.946   5.415   9.263 -1.2667 -0.5637  0.4300
  507MOL0     H66922   8.210   5.123   9.338  1.0085 -0.4343  0.9739
  507MOL0     H66923   7.921   5.939   9.702 -0.9909  3.6279 -1.8464
  507MOL0     H66924   7.999   6.033   9.915 -2.4294 -0.3699 -0.8791
  508MOL0     O66925   8.586  10.145   2.912 -0.4012 -0.6273  0.9089
  508MOL0     C66926   8.545  10.185   2.807  0.6003  0.5878  0.1568
  508MOL0     O66927   8.578  10.142   2.691 -0.5469  0.2640 -0.7052
  508MOL0     C66928   8.714  10.115   2.663  0.2313 -1.1991  0.3241
  508MOL0     C66929   8.823  10.149   2.739 -0.2874 -0.0138 -1.1719
  508MOL0     C66930   8.947  10.095   2.710  0.0783  0.0821 -0.1984
  508MOL0     C66931   8.966  10.021   2.592 -0.3932  0.8266 -0.5917
  508MOL0     O66932   9.097   9.986   2.557 -0.6957 -0.3955 -0.2454
  508MOL0     C66933   9.150   9.961   2.424  0.1409 -0.5395  0.7084
  508MOL0     C66934   9.269   9.866   2.406  0.5503  0.1960 -0.0429
  508MOL0     C66935   9.229   9.719   2.398  0.2552  0.0301  1.0092
  508MOL0     C66936   9.362   9.651   2.422  0.2810 -0.0809 -0.1112
  508MOL0     C66937   9.339   9.495   2.428 -0.0611 -0.0127  0.9250
  508MOL0     C66938   9.453   9.418   2.494  0.3474 -0.0771  0.5752
  508MOL0     C66939   9.413   9.269   2.498 -0.4412  0.0700 -0.3859
  508MOL0     C66940   9.536   9.188   2.486  0.4873  1.0085  0.1384
  508MOL0     N66941   9.509   9.046   2.535 -0.4956 -0.1559 -0.9754
  508MOL0     C66942   9.559   8.987   2.650  0.4203 -1.0314 -0.0707
  508MOL0     C66943   9.497   8.863   2.653  0.7420 -0.1477  0.0226
  508MOL0     C66944   9.507   8.770   2.779 -1.2534  0.6230  0.5600
  508MOL0     C66945   9.571   8.636   2.730  0.9521 -0.1256  0.4471
  508MOL0     C66946   9.574   8.548   2.853 -0.2742  0.3505  0.1000
  508MOL0     C66947   9.577   8.408   2.800 -0.1168  0.2886  0.4896
  508MOL0     O66948   9.681   8.383   2.706  1.0866  0.2182  0.2788
  508MOL0     C66949   9.673   8.264   2.633 -0.2616  0.0018 -0.4503
  508MOL0     C66950   9.574   8.163   2.640 -0.6907  0.7717 -0.4640
  508MOL0     C66951   9.570   8.059   2.555  0.5522 -0.3078 -0.2410
  508MOL0     C66952   9.652   8.049   2.438  0.7749  0.1348 -0.3394
  508MOL0     C66953   9.648   7.939   2.342 -0.7927 -0.1634  0.3536
  508MOL0     O66954   9.711   7.965   2.220 -0.0043  0.1758 -0.4676
  508MOL0     C66955   9.678   7.893   2.102  0.3082 -0.5833  0.6719
  508MOL0     C66956   9.545   7.863   2.061 -0.2708  0.3454 -0.8686
  508MOL0     C66957   9.522   7.784   1.950 -0.4872 -0.3441  0.4291
  508MOL0     C66958   9.628   7.738   1.868 -0.1058  0.8163 -0.0424
  508MOL0     O66959   9.612   7.652   1.761 -0.3747  0.0947  0.2860
  508MOL0     C66960   9.502   7.563   1.765  0.4871  0.3590 -0.1573
  508MOL0     C66961   9.562   7.428   1.709  0.3874 -0.2400 -0.7362
  508MOL0     C66962   9.618   7.446   1.564 -0.1963 -0.5599  0.0258
  508MOL0     C66963   9.670   7.320   1.492 -0.8309 -0.1089 -0.9139
  508MOL0     C66964   9.793   7.273   1.561  0.4725 -1.1894  0.5154
  508MOL0     C66965   9.887   7.168   1.493  0.1829  0.4817  1.3974
  508MOL0     C66966   9.829   7.035   1.448  0.4899  0.2097 -0.2941
  508MOL0     C66967   9.942   6.937   1.389  0.2550 -0.2681  0.7379
  508MOL0    Cl66968  10.023   7.022   1.255 -0.2773 -0.2443  0.4898
  508MOL0     C66969   9.757   7.773   1.898  0.8523  0.8556  0.5360
  508MOL0     C66970   9.781   7.851   2.018 -0.7486  0.8124  1.2832
  508MOL0     O66971   9.579   7.839   2.364  0.1705 -0.4665 -0.2409
  508MOL0     C66972   9.750   8.144   2.431  0.2042  0.4385  1.1858
  508MOL0     C66973   9.761   8.244   2.527 -0.0610 -0.1876 -0.4399
  508MOL0     N66974   9.412   8.856   2.541  0.5169  0.0796  0.1921
  508MOL0     N66975   9.424   8.968   2.473 -0.2930  0.2138 -0.2140
  508MOL0     C66976   8.854   9.998   2.511 -0.0289  0.2846 -0.1045
  508MOL0     C66977   8.734  10.053   2.542 -0.1118 -0.2918 -1.0710
  508MOL0     C66978   8.423  10.281   2.830  0.2757  0.1719  0.9521
  508MOL0     C66979   8.335  10.318   2.725  0.2031 -1.3806  1.1645
  508MOL0     C66980   8.214  10.386   2.755 -0.1715  0.4938 -0.0654
  508MOL0     C66981   8.191  10.445   2.876 -0.6051  0.2411 -0.5850
  508MOL0     O66982   8.078  10.512   2.903  0.5132  0.5592 -0.4754
  508MOL0     C66983   7.991  10.430   2.996 -1.0327 -0.1603  0.6824
  508MOL0     C66984   7.961  10.505   3.127  0.5723  0.0600  0.0707
  508MOL0     C66985   7.887  10.642   3.103  0.1434  0.3143  0.3523
  508MOL0     C66986   7.881  10.723   3.232 -0.0836 -0.0771  0.2194
  508MOL0     C66987   7.783  10.670   3.321  0.5958 -0.0565  0.4589
  508MOL0     C66988   7.719  10.628   3.410  0.5426  1.7538 -0.1957
  508MOL0     C66989   8.279  10.423   2.977  0.1254 -0.1120 -0.3539
  508MOL0     C66990   8.396  10.345   2.953 -0.8096 -0.3305 -0.5225
  508MOL0     H66991   8.823  10.212   2.827 -2.8794 -0.2753 -0.9262
  508MOL0     H66992   9.031  10.118   2.774 -0.6179  1.7000  0.1723
  508MOL0     H66993   9.188  10.058   2.391  2.3094 -1.5787 -0.0546
  508MOL0     H66994   9.070   9.927   2.358  0.2062 -3.5443  2.0135
  508MOL0     H66995   9.347   9.873   2.482  1.2818 -1.7357 -0.5552
  508MOL0     H66996   9.319   9.895   2.313 -2.4856  0.8659 -1.5986
  508MOL0     H66997   9.193   9.698   2.297  2.0228  2.2846 -0.1519
  508MOL0     H66998   9.155   9.692   2.475  0.9143 -2.7064  0.7826
  508MOL0     H66999   9.436   9.678   2.346 -1.8967  3.2347 -1.2829
  508MOL0     H67000   9.383   9.673   2.527 -0.5920 -2.5051  0.6530
  508MOL0     H67001   9.321   9.456   2.327  0.1110  1.1040  0.4519
  508MOL0     H67002   9.249   9.480   2.488 -0.2866 -2.8035  0.0378
  508MOL0     H67003   9.470   9.464   2.591  0.1640  1.7003 -0.1949
  508MOL0     H67004   9.541   9.428   2.430  0.0409  0.9359  0.2806
  508MOL0     H67005   9.370   9.249   2.597  1.1049 -0.6970  0.1521
  508MOL0     H67006   9.345   9.235   2.419 -3.0967  2.1424  0.8236
  508MOL0     H67007   9.614   9.229   2.551  1.2220 -1.9675  1.3152
  508MOL0     H67008   9.567   9.176   2.382 -0.8843 -3.1388  0.0251
  508MOL0     H67009   9.622   9.041   2.720  1.3632  0.9866 -2.3432
  508MOL0     H67010   9.415   8.763   2.838 -0.9131  2.9272  1.4601
  508MOL0     H67011   9.579   8.818   2.846 -1.5492  5.3494 -2.0729
  508MOL0     H67012   9.676   8.653   2.706  1.0906  1.1986  1.8141
  508MOL0     H67013   9.504   8.594   2.655 -0.3337 -2.2774  2.6638
  508MOL0     H67014   9.666   8.560   2.911  1.9864 -2.3719 -2.5393
  508MOL0     H67015   9.478   8.558   2.904 -1.1394  1.4655 -1.6639
  508MOL0     H67016   9.482   8.397   2.746  0.4485  0.0243 -0.4774
  508MOL0     H67017   9.561   8.343   2.887 -2.0465 -0.1284 -0.1274
  508MOL0     H67018   9.498   8.170   2.717  0.8731  4.0629  1.0072
  508MOL0     H67019   9.485   7.991   2.564  0.1334 -0.2383 -2.7999
  508MOL0     H67020   9.464   7.901   2.122  1.0996  1.0116  0.5861
  508MOL0     H67021   9.422   7.756   1.919 -1.3911 -0.0395  2.8461
  508MOL0     H67022   9.422   7.607   1.706  0.2889  0.2273  0.0102
  508MOL0     H67023   9.457   7.543   1.863 -2.4032 -1.3076 -1.7075
  508MOL0     H67024   9.478   7.359   1.699  0.8342 -0.6628 -1.6874
  508MOL0     H67025   9.635   7.387   1.779  0.4312 -2.1461 -1.8421
  508MOL0     H67026   9.696   7.522   1.563 -1.9132  1.3236 -2.0228
  508MOL0     H67027   9.534   7.485   1.506 -2.1719 -2.3624  1.5374
  508MOL0     H67028   9.595   7.240   1.498 -0.3626 -0.4967 -0.0708
  508MOL0     H67029   9.697   7.324   1.386 -2.4751  3.4079 -1.3357
  508MOL0     H67030   9.763   7.244   1.662 -3.5738 -2.4024 -0.8422
  508MOL0     H67031   9.855   7.363   1.572 -1.2182  0.2075 -0.7930
  508MOL0     H67032   9.974   7.150   1.558  0.0772 -1.0753  1.1391
  508MOL0     H67033   9.919   7.218   1.401  2.0347  0.9324  2.2402
  508MOL0     H67034   9.783   6.986   1.534  2.9168  0.0927  1.0387
  508MOL0     H67035   9.740   7.055   1.387 -2.0391  2.9644  3.7678
  508MOL0     H67036   9.907   6.838   1.358  0.4594  0.8207 -3.5422
  508MOL0     H67037  10.015   6.914   1.468  1.5172 -0.1154 -0.3528
  508MOL0     H67038   9.838   7.734   1.837  1.0087 -1.9831  2.3400
  508MOL0     H67039   9.881   7.875   2.051 -1.3211  3.3164  1.4748
  508MOL0     H67040   9.834   8.130   2.364  0.7993  0.8812  1.8247
  508MOL0     H67041   9.841   8.317   2.519 -1.0486  1.5179  3.1699
  508MOL0     H67042   8.867   9.938   2.422  1.2060  0.0209  0.2287
  508MOL0     H67043   8.640  10.040   2.489 -0.5587 -0.1882 -0.3179
  508MOL0     H67044   8.337  10.282   2.623 -0.0760  1.2546  0.1571
  508MOL0     H67045   8.132  10.400   2.686 -1.9098 -2.0045  1.3062
  508MOL0     H67046   8.038  10.339   3.034  0.1338 -0.1148 -0.5680
  508MOL0     H67047   7.900  10.402   2.943 -0.7268  0.8779 -0.4580
  508MOL0     H67048   7.897  10.438   3.185  0.1599  1.0045  0.7242
  508MOL0     H67049   8.049  10.516   3.190 -0.3832  1.4031  1.2433
  508MOL0     H67050   7.788  10.615   3.065  0.2339 -2.7651  1.9642
  508MOL0     H67051   7.943  10.703   3.033  2.0003  0.7010  2.0742
  508MOL0     H67052   7.981  10.719   3.275 -0.6949 -0.0264  1.7141
  508MOL0     H67053   7.850  10.824   3.203 -3.1451 -0.5990  1.2241
  508MOL0     H67054   7.665  10.578   3.488  3.4756  0.8314  1.4145
  508MOL0     H67055   8.258  10.464   3.075 -0.7395  0.9847 -0.9834
  508MOL0     H67056   8.462  10.321   3.036  0.4128 -1.0085 -1.6338
  509MOL0     O67057   3.356   2.382   4.131 -0.0835 -0.8877 -0.3061
  509MOL0     C67058   3.328   2.497   4.109 -0.1850 -0.5306  0.4100
  509MOL0     O67059   3.388   2.603   4.172  0.0161 -0.5452 -0.0615
  509MOL0     C67060   3.467   2.618   4.280 -0.7375  0.4740  0.6699
  509MOL0     C67061   3.488   2.746   4.306  0.3121 -0.2065 -0.7745
  509MOL0     C67062   3.576   2.766   4.407 -0.4611  0.1495  1.5237
  509MOL0     C67063   3.638   2.661   4.481 -0.5623  0.0463 -0.0768
  509MOL0     O67064   3.725   2.694   4.583 -0.2232  0.0887 -0.4757
  509MOL0     C67065   3.795   2.584   4.652  0.3610 -0.2364 -0.3065
  509MOL0     C67066   3.877   2.629   4.779  0.9148 -0.1885  0.6441
  509MOL0     C67067   3.784   2.718   4.871 -0.2427 -0.2526 -1.2495
  509MOL0     C67068   3.862   2.753   5.012  0.1167  0.6988  0.4012
  509MOL0     C67069   3.780   2.856   5.093  0.0330  0.4220 -1.0155
  509MOL0     C67070   3.656   2.809   5.169 -0.3993 -0.5864 -0.0067
  509MOL0     C67071   3.574   2.921   5.234 -0.0550 -0.2455 -1.0855
  509MOL0     C67072   3.434   2.873   5.281 -1.2372 -0.1084  0.0279
  509MOL0     N67073   3.351   2.979   5.348 -0.8844  0.1495 -0.2118
  509MOL0     C67074   3.358   3.021   5.475 -0.3168  0.0136  0.4089
  509MOL0     C67075   3.292   3.138   5.480 -1.1150  0.1845  0.7635
  509MOL0     C67076   3.278   3.232   5.586  0.5725 -0.6129 -0.6055
  509MOL0     C67077   3.144   3.217   5.667  0.0061  0.1843  0.5036
  509MOL0     C67078   3.121   3.330   5.772 -0.2523  0.5311  0.4867
  509MOL0     C67079   3.225   3.337   5.883 -0.4544 -0.3144 -0.0414
  509MOL0     O67080   3.336   3.406   5.819  0.1297 -0.5638 -0.2407
  509MOL0     C67081   3.431   3.441   5.914  0.0882  0.7983  1.1529
  509MOL0     C67082   3.412   3.464   6.047  0.3644  0.7826  0.3425
  509MOL0     C67083   3.515   3.485   6.131 -0.6362 -0.7884 -0.6352
  509MOL0     C67084   3.648   3.502   6.084  0.4589  0.5151 -0.6375
  509MOL0     C67085   3.763   3.528   6.175  0.5148  0.2317 -0.6349
  509MOL0     O67086   3.881   3.526   6.099 -0.0233 -0.4256  0.0145
  509MOL0     C67087   4.013   3.509   6.147 -0.1758 -0.6870  0.1790
  509MOL0     C67088   4.119   3.566   6.083 -0.8236 -1.3257 -0.3781
  509MOL0     C67089   4.253   3.555   6.132 -0.4430  1.1171  0.8201
  509MOL0     C67090   4.285   3.487   6.247  0.5290 -0.1423  0.1689
  509MOL0     O67091   4.418   3.488   6.292  0.6876 -0.1376 -0.3561
  509MOL0     C67092   4.444   3.423   6.419 -0.5216  0.3017  1.1684
  509MOL0     C67093   4.589   3.407   6.446  0.3187  0.7087 -0.7316
  509MOL0     C67094   4.674   3.526   6.470  0.7340 -0.6849  0.2692
  509MOL0     C67095   4.792   3.502   6.565 -0.2701 -0.4412  0.6879
  509MOL0     C67096   4.911   3.425   6.512 -0.4808 -0.4862  0.0552
  509MOL0     C67097   5.014   3.410   6.624  0.8507  0.4883  0.5142
  509MOL0     C67098   5.143   3.347   6.564  0.4568 -0.5725  0.3312
  509MOL0     C67099   5.234   3.260   6.648 -0.1740  0.9286  0.2854
  509MOL0    Cl67100   5.362   3.204   6.538 -0.1499 -0.2411  0.3637
  509MOL0     C67101   4.173   3.428   6.310  0.1190 -0.2911 -0.1961
  509MOL0     C67102   4.040   3.428   6.253  0.4534  0.6842 -0.1333
  509MOL0     O67103   3.747   3.520   6.297  0.7209  0.7667 -0.6771
  509MOL0     C67104   3.663   3.498   5.942 -0.0784  0.5574 -0.2686
  509MOL0     C67105   3.554   3.466   5.861  0.4929  0.3474  0.1436
  509MOL0     N67106   3.233   3.155   5.349 -0.9174 -0.4088 -0.2593
  509MOL0     N67107   3.268   3.054   5.274  0.2987  0.9022 -0.5997
  509MOL0     C67108   3.612   2.537   4.449 -0.1466 -0.0821  0.2240
  509MOL0     C67109   3.528   2.515   4.341  0.2262 -0.4493  0.5899
  509MOL0     C67110   3.237   2.534   3.986  0.5653  0.2502  0.5115
  509MOL0     C67111   3.169   2.439   3.910  1.1063  0.2092 -0.2993
  509MOL0     C67112   3.083   2.481   3.800 -1.2695 -1.1289 -0.0085
  509MOL0     C67113   3.065   2.618   3.767  0.3354 -0.5962 -0.4560
  509MOL0     O67114   2.983   2.659   3.666  0.4520 -0.0212 -0.0246
  509MOL0     C67115   2.912   2.568   3.580 -0.1704 -0.3734 -0.3305
  509MOL0     C67116   2.850   2.635   3.459 -0.0604 -0.1919 -0.7295
  509MOL0     C67117   2.769   2.752   3.497  0.0742 -0.2906 -0.2025
  509MOL0     C67118   2.719   2.814   3.368 -0.7582 -1.5652 -0.1053
  509MOL0     C67119   2.628   2.920   3.389 -0.7527  0.3917 -0.1815
  509MOL0     C67120   2.543   3.012   3.379  0.1100  0.2715 -0.0444
  509MOL0     C67121   3.139   2.712   3.844  1.1091 -0.0968 -0.3238
  509MOL0     C67122   3.225   2.669   3.942 -0.5092 -0.6120  0.1836
  509MOL0     H67123   3.440   2.836   4.271 -0.9515 -0.5933 -0.1173
  509MOL0     H67124   3.604   2.871   4.415 -1.3325  0.5047  0.2976
  509MOL0     H67125   3.862   2.542   4.577  0.8253  0.0398 -0.0478
  509MOL0     H67126   3.727   2.503   4.680 -0.7040  1.7755  3.7182
  509MOL0     H67127   3.966   2.679   4.740  0.6314 -1.2799 -1.5711
  509MOL0     H67128   3.899   2.540   4.839  0.1109 -2.2171 -1.8702
  509MOL0     H67129   3.695   2.661   4.898  0.0481  0.5735  1.9184
  509MOL0     H67130   3.757   2.808   4.815  2.6913  0.3607 -1.8804
  509MOL0     H67131   3.875   2.660   5.067 -4.0311  1.3464  2.9445
  509MOL0     H67132   3.963   2.791   4.997  0.7649 -1.0907  0.0350
  509MOL0     H67133   3.748   2.941   5.032 -0.3542 -0.7053 -2.4374
  509MOL0     H67134   3.852   2.897   5.165 -1.7396  1.0809  0.4633
  509MOL0     H67135   3.682   2.732   5.242  1.5543  0.5933  0.6220
  509MOL0     H67136   3.591   2.759   5.098 -3.0828  0.2749  1.6928
  509MOL0     H67137   3.632   2.960   5.318  2.7568 -2.9542 -1.5607
  509MOL0     H67138   3.559   3.003   5.163  2.3501  1.5270  0.2802
  509MOL0     H67139   3.437   2.787   5.348 -3.1441 -1.9665 -2.0818
  509MOL0     H67140   3.379   2.856   5.188  1.4588  0.5142 -1.8044
  509MOL0     H67141   3.428   2.977   5.545  0.1176 -2.0528 -1.1992
  509MOL0     H67142   3.277   3.325   5.529 -0.5566 -1.5670 -2.2368
  509MOL0     H67143   3.367   3.232   5.649 -0.4375 -0.6445  0.8647
  509MOL0     H67144   3.150   3.123   5.724 -0.4304  1.1032  2.1476
  509MOL0     H67145   3.061   3.201   5.599 -1.5208  0.8693  2.1413
  509MOL0     H67146   3.119   3.424   5.716 -2.2691 -0.6073 -1.5229
  509MOL0     H67147   3.025   3.300   5.817  0.2844  1.0300  2.0246
  509MOL0     H67148   3.251   3.236   5.917 -2.5088 -1.0908 -0.6365
  509MOL0     H67149   3.180   3.396   5.963  1.7172  1.6195 -0.1313
  509MOL0     H67150   3.317   3.447   6.097  0.3263  0.9711  0.3333
  509MOL0     H67151   3.500   3.471   6.237 -1.1391 -1.8625 -0.8332
  509MOL0     H67152   4.099   3.620   5.991 -2.3948  1.1041  1.2545
  509MOL0     H67153   4.330   3.610   6.080  0.7061 -1.2695 -0.1411
  509MOL0     H67154   4.394   3.326   6.417 -2.9156  1.4453 -1.9241
  509MOL0     H67155   4.392   3.465   6.505 -0.3097 -0.8493  1.8934
  509MOL0     H67156   4.635   3.357   6.360  1.9732  1.3191 -0.2562
  509MOL0     H67157   4.595   3.342   6.534  0.7207  0.7369 -0.7356
  509MOL0     H67158   4.617   3.599   6.529 -0.5569 -1.9849  0.6790
  509MOL0     H67159   4.711   3.574   6.379  0.0283 -1.0844 -0.2365
  509MOL0     H67160   4.829   3.603   6.584 -2.4332  0.0922  2.5585
  509MOL0     H67161   4.762   3.468   6.665 -1.1846 -0.2497  0.4953
  509MOL0     H67162   4.962   3.476   6.430  1.9305 -2.4597  0.2179
  509MOL0     H67163   4.879   3.326   6.479 -1.8808 -0.0553  0.0146
  509MOL0     H67164   4.979   3.338   6.699  0.5857 -0.7223 -0.7316
  509MOL0     H67165   5.041   3.507   6.667 -0.6278  0.7004  1.0306
  509MOL0     H67166   5.103   3.283   6.485  0.0793 -1.2947  1.0980
  509MOL0     H67167   5.208   3.427   6.525  1.0430 -1.4862 -0.6183
  509MOL0     H67168   5.186   3.171   6.689 -0.1572  0.0618 -1.5094
  509MOL0     H67169   5.276   3.329   6.722  0.7292  2.2457 -1.3928
  509MOL0     H67170   4.188   3.382   6.407  1.2689  0.4590 -0.0016
  509MOL0     H67171   3.960   3.390   6.315  1.5600  2.2414  2.4400
  509MOL0     H67172   3.762   3.511   5.899  1.0425  1.1147  2.2948
  509MOL0     H67173   3.572   3.464   5.754 -2.4994 -2.1573 -0.4750
  509MOL0     H67174   3.657   2.450   4.495 -1.5624 -1.1048 -0.2394
  509MOL0     H67175   3.503   2.414   4.312 -1.8145 -0.3130  1.7070
  509MOL0     H67176   3.161   2.339   3.950 -1.7229  0.8040  0.8371
  509MOL0     H67177   3.032   2.395   3.757 -0.3239 -1.0382 -1.3797
  509MOL0     H67178   2.828   2.526   3.636 -2.4068  2.7830 -1.0441
  509MOL0     H67179   2.966   2.483   3.538 -1.2024 -1.5293  0.6171
  509MOL0     H67180   2.940   2.668   3.407 -0.7435  2.7049 -0.1971
  509MOL0     H67181   2.785   2.572   3.397 -3.6990 -0.3694  2.8159
  509MOL0     H67182   2.840   2.818   3.549  1.6084 -1.5478 -0.6279
  509MOL0     H67183   2.684   2.729   3.561  0.5153  1.4861  1.1255
  509MOL0     H67184   2.810   2.848   3.318 -0.3271 -4.3211 -1.3257
  509MOL0     H67185   2.654   2.759   3.300 -0.7741 -0.1792 -1.2659
  509MOL0     H67186   2.456   3.072   3.364 -0.0161 -0.2666 -1.7196
  509MOL0     H67187   3.134   2.820   3.832  0.6364 -0.1790 -0.9216
  509MOL0     H67188   3.288   2.743   3.990 -0.0025 -1.2793  0.5663
  510MOL0     O67189  10.481   2.759   1.154  0.1127  0.0710  0.2536
  510MOL0     C67190  10.465   2.713   1.262 -0.1934 -0.0802  0.0545
  510MOL0     O67191  10.565   2.654   1.343  0.4252  0.0125 -0.6334
  510MOL0     C67192  10.690   2.633   1.285  0.2064  0.2157 -0.4942
  510MOL0     C67193  10.798   2.683   1.349 -0.2287 -0.0461 -0.1266
  510MOL0     C67194  10.931   2.665   1.308  0.0788 -0.3990  0.4092
  510MOL0     C67195  10.950   2.605   1.184 -0.2732  0.2048  0.1229
  510MOL0     O67196  11.080   2.612   1.129  0.5308 -0.8005 -0.0637
  510MOL0     C67197  11.128   2.498   1.062 -1.5318  0.3932 -0.2843
  510MOL0     C67198  11.283   2.508   1.086 -0.7110  0.2782 -0.2642
  510MOL0     C67199  11.353   2.638   1.038  0.3118 -0.3872  0.2077
  510MOL0     C67200  11.311   2.695   0.899  0.9476 -0.8502  0.6508
  510MOL0     C67201  11.323   2.594   0.783  0.4969  0.5945 -0.3998
  510MOL0     C67202  11.262   2.654   0.645  0.1635  0.3940  0.2442
  510MOL0     C67203  11.330   2.787   0.605  1.1554 -0.9600 -0.5341
  510MOL0     C67204  11.278   2.824   0.477  0.1696  0.7849 -0.8198
  510MOL0     N67205  11.340   2.941   0.409  0.0141 -0.0049  0.7031
  510MOL0     C67206  11.281   3.017   0.308 -0.5075  0.6376  0.3088
  510MOL0     C67207  11.385   3.079   0.238  1.1664 -0.9188  0.3005
  510MOL0     C67208  11.384   3.190   0.126 -1.1683  0.6401  0.2985
  510MOL0     C67209  11.356   3.150  -0.013 -0.1848 -0.4291 -0.1874
  510MOL0     C67210  11.453   3.038  -0.051 -0.2325 -0.1366  0.4735
  510MOL0     C67211  11.468   3.036  -0.205  0.1802 -0.9705 -0.0743
  510MOL0     O67212  11.586   2.970  -0.239 -0.1116 -0.5244  0.0450
  510MOL0     C67213  11.662   3.013  -0.343  0.5460 -0.0599 -0.6867
  510MOL0     C67214  11.633   2.971  -0.476 -1.1062  0.4508  0.2042
  510MOL0     C67215  11.720   2.992  -0.586  0.4024 -0.1057 -0.6319
  510MOL0     C67216  11.844   3.045  -0.570  0.7278 -0.6104  0.6617
  510MOL0     C67217  11.928   3.076  -0.692  0.3735 -0.7578  0.4924
  510MOL0     O67218  11.897   3.027  -0.816  0.0719 -0.1946 -1.1479
  510MOL0     C67219  11.997   3.036  -0.906 -1.0492 -0.5071 -1.4265
  510MOL0     C67220  12.123   2.966  -0.881 -0.6908 -0.1286 -0.0837
  510MOL0     C67221  12.219   2.960  -0.985  0.4346  0.2526  0.3235
  510MOL0     C67222  12.201   3.025  -1.104  0.4872  0.0845 -0.8056
  510MOL0     O67223  12.287   3.035  -1.222  1.2161  1.0530 -0.8857
  510MOL0     C67224  12.399   2.952  -1.222  0.2834 -0.7498 -0.8141
  510MOL0     C67225  12.496   2.960  -1.338 -0.2834 -0.6068 -0.3834
  510MOL0     C67226  12.622   2.879  -1.309  0.7203  0.2381  0.2505
  510MOL0     C67227  12.706   2.866  -1.434 -0.2655  1.0170  0.0314
  510MOL0     C67228  12.799   2.762  -1.423 -1.0615  0.1209  1.4791
  510MOL0     C67229  12.933   2.802  -1.493 -0.0059 -0.4463 -0.4604
  510MOL0     C67230  12.902   2.810  -1.647  0.1922 -0.8221  0.1873
  510MOL0     C67231  13.016   2.863  -1.739  0.2903 -0.5593  0.7062
  510MOL0    Cl67232  12.990   2.826  -1.912  0.4291 -0.6051 -0.2709
  510MOL0     C67233  12.076   3.088  -1.124 -0.1581  0.3547  1.7881
  510MOL0     C67234  11.976   3.103  -1.027  0.2826  0.9950 -0.4465
  510MOL0     O67235  12.010   3.172  -0.674  0.0172  0.5790 -0.2071
  510MOL0     C67236  11.865   3.091  -0.437 -0.3640  0.3528  0.2365
  510MOL0     C67237  11.778   3.071  -0.326 -1.1638  0.2928  0.5856
  510MOL0     N67238  11.496   3.042   0.298 -0.2295 -0.1091  0.5925
  510MOL0     N67239  11.471   2.962   0.398  0.6612 -0.7652  0.2145
  510MOL0     C67240  10.841   2.545   1.120 -0.0956  0.5389 -0.0150
  510MOL0     C67241  10.708   2.545   1.178 -0.9314  0.2461 -0.0352
  510MOL0     C67242  10.328   2.724   1.325  0.0079  0.5887  0.7317
  510MOL0     C67243  10.221   2.771   1.251 -0.6241  0.4529  0.5249
  510MOL0     C67244  10.095   2.757   1.294  0.6613 -0.2454  0.6177
  510MOL0     C67245  10.074   2.688   1.414 -0.3489 -0.0600  0.5701
  510MOL0     O67246   9.945   2.660   1.458  0.3732 -0.0461  0.3854
  510MOL0     C67247   9.871   2.593   1.356 -0.1512  0.3412 -0.0878
  510MOL0     C67248   9.728   2.576   1.406  0.2235 -0.4530 -0.1857
  510MOL0     C67249   9.635   2.547   1.292  0.5260 -0.5485  0.0723
  510MOL0     C67250   9.549   2.670   1.268 -0.1616  0.3590  0.6574
  510MOL0     C67251   9.466   2.704   1.376  0.8732  0.3878 -0.5177
  510MOL0     C67252   9.411   2.737   1.480  0.0271  1.1353 -0.7575
  510MOL0     C67253  10.177   2.652   1.492  0.0292  0.6768  0.5410
  510MOL0     C67254  10.302   2.658   1.444  0.6414  0.6210 -0.2721
  510MOL0     H67255  10.779   2.744   1.437  1.4382 -1.3588  1.2323
  510MOL0     H67256  11.021   2.711   1.348  0.9645 -0.5772 -1.2839
  510MOL0     H67257  11.093   2.492   0.958 -1.5270 -1.7532 -0.2039
  510MOL0     H67258  11.081   2.406   1.099  1.4147 -1.7740 -1.5416
  510MOL0     H67259  11.338   2.423   1.046 -0.4975 -0.0104  0.6320
  510MOL0     H67260  11.302   2.514   1.194 -0.0562  1.3284 -0.4287
  510MOL0     H67261  11.462   2.630   1.044  0.6857  3.3335  0.8413
  510MOL0     H67262  11.329   2.720   1.107  1.0205 -2.0064  2.5102
  510MOL0     H67263  11.211   2.737   0.906  0.9296 -0.3676 -1.6812
  510MOL0     H67264  11.368   2.787   0.881 -2.0123  0.6338 -2.1339
  510MOL0     H67265  11.260   2.505   0.793  2.2212 -0.9203 -2.0978
  510MOL0     H67266  11.424   2.553   0.786 -1.3337 -4.6348  1.9791
  510MOL0     H67267  11.153   2.655   0.652  0.1703  4.1397  1.6062
  510MOL0     H67268  11.300   2.574   0.580 -0.4567 -2.3873  3.0484
  510MOL0     H67269  11.306   2.858   0.685  3.3382 -1.8976  1.0540
  510MOL0     H67270  11.439   2.780   0.618  0.9467 -0.5132  2.1016
  510MOL0     H67271  11.176   2.857   0.494 -1.1549 -0.5832 -4.8907
  510MOL0     H67272  11.287   2.744   0.402  2.5408  0.6275 -0.4615
  510MOL0     H67273  11.175   3.026   0.285 -0.9257 -0.4865  1.6699
  510MOL0     H67274  11.478   3.245   0.133  1.3682 -3.5732  3.6117
  510MOL0     H67275  11.309   3.268   0.144 -0.8936  2.4174 -4.6479
  510MOL0     H67276  11.361   3.240  -0.076 -1.2943 -1.4102 -1.7567
  510MOL0     H67277  11.250   3.126  -0.025 -0.1205 -0.3634 -0.9998
  510MOL0     H67278  11.551   3.054  -0.007 -1.3833 -0.1648  3.2446
  510MOL0     H67279  11.416   2.940  -0.017 -1.2449  0.3045  0.6906
  510MOL0     H67280  11.466   3.140  -0.238 -0.2160 -1.0168 -0.2021
  510MOL0     H67281  11.386   2.987  -0.258 -0.8799  4.3211 -4.1038
  510MOL0     H67282  11.544   2.910  -0.490 -1.8303  1.1568  1.5050
  510MOL0     H67283  11.706   2.953  -0.687 -0.8504 -1.8648  0.1688
  510MOL0     H67284  12.150   2.926  -0.784  1.5821  1.1728 -0.0925
  510MOL0     H67285  12.309   2.899  -0.983 -0.2737 -0.9178 -0.9752
  510MOL0     H67286  12.349   2.855  -1.218 -1.4681 -0.2469 -5.0122
  510MOL0     H67287  12.451   2.974  -1.128 -1.6545  3.3479 -0.4702
  510MOL0     H67288  12.533   3.063  -1.343  0.2447 -0.6443  1.8248
  510MOL0     H67289  12.440   2.924  -1.425  0.7180  1.7240 -2.0983
  510MOL0     H67290  12.596   2.784  -1.262  3.3204 -0.0615  1.2425
  510MOL0     H67291  12.671   2.940  -1.233 -0.5748  0.6636  0.7677
  510MOL0     H67292  12.634   2.826  -1.506  1.4661 -2.2391 -0.0715
  510MOL0     H67293  12.746   2.966  -1.455  1.5603  0.6887  1.6070
  510MOL0     H67294  12.760   2.668  -1.461  1.4185 -2.0808  3.9669
  510MOL0     H67295  12.829   2.748  -1.319 -0.4992 -0.5288  1.2306
  510MOL0     H67296  13.022   2.745  -1.468  1.6494  0.0179 -4.5349
  510MOL0     H67297  12.957   2.900  -1.451 -1.0838 -0.6887  0.8015
  510MOL0     H67298  12.871   2.709  -1.674  1.5115 -1.8116  2.1052
  510MOL0     H67299  12.815   2.876  -1.654  0.9578  0.9907  4.3352
  510MOL0     H67300  13.114   2.822  -1.714  1.3709  0.7559 -1.1377
  510MOL0     H67301  13.004   2.971  -1.734 -2.4794 -0.4611 -3.1229
  510MOL0     H67302  12.050   3.107  -1.228 -2.3861 -1.7218  1.8869
  510MOL0     H67303  11.872   3.126  -1.048 -0.0214 -1.1297 -1.5643
  510MOL0     H67304  11.956   3.146  -0.418 -0.1587 -0.6046  2.2054
  510MOL0     H67305  11.822   3.097  -0.231  0.8084 -0.8628  0.0567
  510MOL0     H67306  10.858   2.481   1.034  1.9589 -3.7910  3.2116
  510MOL0     H67307  10.630   2.481   1.139  1.7131 -0.5935 -4.7701
  510MOL0     H67308  10.242   2.826   1.160 -3.5926 -2.4031 -2.1280
  510MOL0     H67309  10.008   2.788   1.238  0.7487 -3.0241 -1.2468
  510MOL0     H67310   9.916   2.494   1.342 -1.7800 -0.3039 -1.0039
  510MOL0     H67311   9.872   2.642   1.259 -2.3571 -3.8650 -2.5199
  510MOL0     H67312   9.720   2.502   1.485 -3.8266 -2.4076 -2.1278
  510MOL0     H67313   9.699   2.667   1.459  4.0505  0.9413 -0.1840
  510MOL0     H67314   9.566   2.465   1.309  0.3297 -1.2199 -3.2921
  510MOL0     H67315   9.685   2.524   1.198 -2.0671  1.9007 -2.0724
  510MOL0     H67316   9.609   2.755   1.234  0.5746 -0.0946  0.8063
  510MOL0     H67317   9.491   2.638   1.181  1.5369  0.3186 -0.5096
  510MOL0     H67318   9.366   2.771   1.572 -0.8680  0.0678 -0.7844
  510MOL0     H67319  10.161   2.602   1.587 -2.4339  1.3626  0.5524
  510MOL0     H67320  10.370   2.615   1.516 -0.8976  2.4501  2.4282
  511MOL0     O67321  10.933  11.351   5.658 -0.4720  0.6150  0.2386
  511MOL0     C67322  10.942  11.272   5.753 -0.1888  0.9366 -0.5447
  511MOL0     O67323  10.921  11.132   5.736  0.1689 -0.5768  0.4252
  511MOL0     C67324  10.938  11.069   5.616 -0.1367 -0.0845  0.4936
  511MOL0     C67325  10.869  10.950   5.585 -0.1398  0.1717 -0.1649
  511MOL0     C67326  10.883  10.886   5.457 -0.1410 -0.9334  0.3011
  511MOL0     C67327  10.968  10.947   5.366  0.3518  0.3112 -0.0295
  511MOL0     O67328  10.952  10.887   5.241  0.2590 -0.1854  0.0168
  511MOL0     C67329  10.851  10.934   5.142 -1.0342  0.7500  0.4675
  511MOL0     C67330  10.899  11.061   5.059  1.1520  0.9062 -0.5938
  511MOL0     C67331  11.013  11.028   4.968 -0.6403  0.2478 -0.1047
  511MOL0     C67332  11.035  11.142   4.869  0.3346 -1.2049 -0.4537
  511MOL0     C67333  11.167  11.131   4.789  0.9808 -0.0407 -0.0245
  511MOL0     C67334  11.194  11.217   4.661  0.3582  0.1630 -0.8905
  511MOL0     C67335  11.207  11.364   4.703  0.1140 -0.1869 -0.1984
  511MOL0     C67336  11.249  11.468   4.599 -0.2407  0.5187  0.3325
  511MOL0     N67337  11.375  11.431   4.528  0.7896 -0.1625 -0.2368
  511MOL0     C67338  11.484  11.515   4.533  0.2536  0.4734  0.5480
  511MOL0     C67339  11.561  11.463   4.431 -0.3171 -0.0755  0.5724
  511MOL0     C67340  11.697  11.519   4.398  0.8666 -0.0918 -0.2310
  511MOL0     C67341  11.789  11.400   4.404  0.3249  0.0277 -0.0910
  511MOL0     C67342  11.914  11.439   4.478 -0.4761  0.1076  0.2039
  511MOL0     C67343  12.010  11.546   4.425  0.2492  0.0190 -0.4739
  511MOL0     O67344  12.117  11.553   4.505 -0.3712  0.5424  0.2192
  511MOL0     C67345  12.238  11.552   4.444 -0.9865  0.8711 -0.2302
  511MOL0     C67346  12.335  11.483   4.515 -0.4702  0.2713  0.5398
  511MOL0     C67347  12.469  11.483   4.476  1.3980  0.1112 -0.6938
  511MOL0     C67348  12.515  11.558   4.365  0.6729 -0.5045  0.5155
  511MOL0     C67349  12.667  11.569   4.338 -0.1790  0.2908 -0.4885
  511MOL0     O67350  12.697  11.680   4.259 -0.5075 -0.0774 -0.2042
  511MOL0     C67351  12.812  11.689   4.183 -0.5177 -0.2165  0.8209
  511MOL0     C67352  12.937  11.678   4.233  0.9416 -0.0271  0.1977
  511MOL0     C67353  13.043  11.672   4.147 -0.7768 -0.5309  0.5136
  511MOL0     C67354  13.030  11.692   4.011 -0.3919  1.1469  0.4234
  511MOL0     O67355  13.134  11.689   3.923 -0.6111 -0.7742  0.0135
  511MOL0     C67356  13.178  11.562   3.887  0.5322  0.6217  1.6116
  511MOL0     C67357  13.320  11.553   3.828  0.1217 -1.1882 -0.2925
  511MOL0     C67358  13.425  11.630   3.910  1.0161  0.1761  0.4984
  511MOL0     C67359  13.434  11.577   4.059 -0.3974  0.2281 -0.1770
  511MOL0     C67360  13.560  11.474   4.067 -0.1506 -0.5049 -0.0222
  511MOL0     C67361  13.554  11.373   4.184  0.3023 -0.1605 -0.2523
  511MOL0     C67362  13.686  11.305   4.232 -0.8443 -0.0602  0.1652
  511MOL0     C67363  13.678  11.162   4.297  0.2375  0.0294  0.3148
  511MOL0    Cl67364  13.581  11.164   4.440  0.0877 -0.4071  0.0445
  511MOL0     C67365  12.905  11.705   3.951 -0.4098 -0.9705  0.5358
  511MOL0     C67366  12.805  11.708   4.048  0.5832 -0.8150 -0.5223
  511MOL0     O67367  12.744  11.479   4.377 -0.2632  0.5365  1.0258
  511MOL0     C67368  12.418  11.640   4.309 -0.6871  0.0462  0.7038
  511MOL0     C67369  12.277  11.623   4.333 -0.2177  0.2656  0.1431
  511MOL0     N67370  11.506  11.355   4.371 -0.2618 -0.6480  0.3963
  511MOL0     N67371  11.386  11.336   4.430  0.2916 -0.0572 -0.4611
  511MOL0     C67372  11.048  11.052   5.401 -0.7855  0.4872  0.6826
  511MOL0     C67373  11.033  11.118   5.523  0.0470  0.0729  0.5813
  511MOL0     C67374  10.982  11.303   5.893  0.4811  0.2503  0.8415
  511MOL0     C67375  11.048  11.428   5.922  0.5182  0.4540 -0.8628
  511MOL0     C67376  11.096  11.450   6.053 -0.5597  0.3482  0.1885
  511MOL0     C67377  11.050  11.365   6.162 -0.3114  0.1075  0.6984
  511MOL0     O67378  11.075  11.399   6.297  0.6122 -0.0301  0.2072
  511MOL0     C67379  11.134  11.526   6.330 -0.3634  0.5661  0.0332
  511MOL0     C67380  11.052  11.551   6.460 -0.0612  0.0440 -0.2373
  511MOL0     C67381  11.107  11.675   6.535  0.5143  0.1250 -0.5594
  511MOL0     C67382  11.059  11.662   6.680  0.1672  0.2882  0.5301
  511MOL0     C67383  11.115  11.778   6.762 -0.1023  1.2004  0.5414
  511MOL0     C67384  11.168  11.856   6.836  0.0073  0.3922 -0.2026
  511MOL0     C67385  10.998  11.241   6.128 -0.4974 -0.4826  0.5180
  511MOL0     C67386  10.973  11.213   5.991  0.9667 -0.1730 -0.0876
  511MOL0     H67387  10.809  10.904   5.663  1.9880  1.3922  2.3613
  511MOL0     H67388  10.827  10.799   5.423 -0.5969 -0.3386 -0.4847
  511MOL0     H67389  10.757  10.962   5.190 -0.1205 -0.2107  2.9625
  511MOL0     H67390  10.822  10.854   5.074 -1.6429  1.6398 -0.3487
  511MOL0     H67391  10.923  11.130   5.140 -1.1409 -0.4153  1.3432
  511MOL0     H67392  10.815  11.099   5.000 -0.5817  2.0394  2.3999
  511MOL0     H67393  10.991  10.936   4.914  0.2408 -0.5031  0.7704
  511MOL0     H67394  11.099  11.002   5.032 -0.7536 -1.4471 -0.6016
  511MOL0     H67395  10.942  11.149   4.811 -2.7611  0.0151  4.1648
  511MOL0     H67396  11.021  11.230   4.931 -2.9889 -1.5905 -0.4702
  511MOL0     H67397  11.177  11.025   4.766  0.8489 -0.0012 -0.2727
  511MOL0     H67398  11.231  11.160   4.873 -2.0226  2.3439  1.6508
  511MOL0     H67399  11.121  11.210   4.580  0.5264 -1.5513 -0.9377
  511MOL0     H67400  11.292  11.186   4.625 -0.5297 -2.2191 -1.4542
  511MOL0     H67401  11.104  11.389   4.730  0.0250 -2.7706  2.2882
  511MOL0     H67402  11.272  11.363   4.791 -1.3866 -2.2269  0.9905
  511MOL0     H67403  11.245  11.567   4.644 -1.0703  1.1920 -1.1414
  511MOL0     H67404  11.168  11.476   4.525  0.4312  2.7750 -0.2199
  511MOL0     H67405  11.507  11.602   4.593  1.9856 -0.0037  0.6400
  511MOL0     H67406  11.727  11.599   4.466  0.3483 -1.3856  1.6009
  511MOL0     H67407  11.703  11.553   4.295 -2.3287  0.6915 -0.2565
  511MOL0     H67408  11.820  11.370   4.304 -1.8189  0.5329 -0.9780
  511MOL0     H67409  11.757  11.306   4.449  1.9458  0.8692  3.1272
  511MOL0     H67410  11.896  11.468   4.582  0.0069 -0.2639  0.4008
  511MOL0     H67411  11.987  11.357   4.471  0.0589  0.6792 -1.1766
  511MOL0     H67412  11.965  11.645   4.425 -2.2077 -1.0083  0.8989
  511MOL0     H67413  12.026  11.513   4.322 -0.4861 -1.8339 -0.0313
  511MOL0     H67414  12.315  11.436   4.611 -0.8594  2.6558  1.7003
  511MOL0     H67415  12.548  11.443   4.540  0.7263 -0.4648 -0.2191
  511MOL0     H67416  12.947  11.660   4.340  1.6642 -2.0610 -0.1515
  511MOL0     H67417  13.145  11.666   4.184 -1.0089  0.2040  1.3107
  511MOL0     H67418  13.110  11.518   3.814 -0.2603  3.0211  0.8173
  511MOL0     H67419  13.166  11.489   3.968 -0.4068 -1.2222 -0.0857
  511MOL0     H67420  13.326  11.587   3.724 -0.8819  2.3327  0.6469
  511MOL0     H67421  13.352  11.449   3.820 -2.5572 -2.0040 -1.1434
  511MOL0     H67422  13.411  11.737   3.896 -2.7840  0.0496  2.1380
  511MOL0     H67423  13.520  11.620   3.856  1.3116  3.5888  0.1749
  511MOL0     H67424  13.436  11.659   4.131 -1.2842  0.6264 -0.5795
  511MOL0     H67425  13.336  11.528   4.066  0.5771 -2.1252 -1.8246
  511MOL0     H67426  13.648  11.535   4.087 -0.5529  0.0001  0.2233
  511MOL0     H67427  13.581  11.424   3.972 -0.2421 -3.5127  1.4211
  511MOL0     H67428  13.483  11.295   4.153  2.1946 -2.1958  0.2787
  511MOL0     H67429  13.509  11.410   4.277 -1.4003  2.2111 -1.9105
  511MOL0     H67430  13.764  11.284   4.157 -2.0471 -0.6839 -0.9544
  511MOL0     H67431  13.741  11.365   4.305 -0.3632 -1.8248  1.3313
  511MOL0     H67432  13.783  11.140   4.318  0.5427  2.8459  2.4294
  511MOL0     H67433  13.634  11.086   4.232 -0.1095  2.0953 -2.0308
  511MOL0     H67434  12.893  11.731   3.847  0.3824 -0.0487  0.6582
  511MOL0     H67435  12.708  11.730   4.005  0.3270 -2.0875 -0.6218
  511MOL0     H67436  12.441  11.712   4.231 -0.8294 -2.2150 -1.5925
  511MOL0     H67437  12.198  11.673   4.277  1.3527  0.6902 -1.7857
  511MOL0     H67438  11.118  11.074   5.321 -1.2360  0.6439  0.3279
  511MOL0     H67439  11.101  11.196   5.556  0.4702  1.4140 -3.0095
  511MOL0     H67440  11.054  11.497   5.839 -7.0151 -0.1136 -2.5740
  511MOL0     H67441  11.152  11.539   6.078  1.3763 -1.3824  2.4946
  511MOL0     H67442  11.108  11.612   6.267  0.3702 -0.4418 -1.7154
  511MOL0     H67443  11.240  11.517   6.354  0.2181  1.3862 -2.0204
  511MOL0     H67444  10.945  11.566   6.444 -0.0866 -0.9002 -1.0447
  511MOL0     H67445  11.064  11.463   6.525 -0.3850 -0.3047 -0.6456
  511MOL0     H67446  11.068  11.764   6.484  0.4675 -0.6962 -1.9962
  511MOL0     H67447  11.215  11.688   6.523  0.0976  6.2164 -1.1503
  511MOL0     H67448  10.950  11.657   6.675  0.2509 -0.6386 -1.5157
  511MOL0     H67449  11.086  11.572   6.737  2.1971  0.7446  0.3685
  511MOL0     H67450  11.220  11.899   6.919 -1.9326 -2.1793  2.5625
  511MOL0     H67451  10.963  11.180   6.210 -1.8588  0.9366  1.0320
  511MOL0     H67452  10.925  11.117   5.977 -3.1363  1.0271  3.5273
  512MOL0     O67453   6.460   0.431   8.168  0.1412  0.8914  0.7107
  512MOL0     C67454   6.360   0.369   8.203 -0.2689  0.7707 -0.1132
  512MOL0     O67455   6.253   0.427   8.264  0.0265  0.2101  0.0820
  512MOL0     C67456   6.245   0.567   8.272 -0.8938  0.1469  0.6685
  512MOL0     C67457   6.315   0.672   8.210 -0.3023  0.1465 -0.0543
  512MOL0     C67458   6.285   0.800   8.250  0.4722  1.4437  0.6179
  512MOL0     C67459   6.182   0.840   8.343  0.0957 -0.2796  0.5538
  512MOL0     O67460   6.142   0.968   8.366  0.8727 -0.5145 -0.1379
  512MOL0     C67461   6.225   1.080   8.329 -1.0482 -0.2591  0.1976
  512MOL0     C67462   6.342   1.103   8.437  0.3934 -0.1114  0.0783
  512MOL0     C67463   6.444   1.215   8.390 -0.0886  0.3208 -0.9072
  512MOL0     C67464   6.555   1.149   8.315 -1.0501 -0.1155 -0.3601
  512MOL0     C67465   6.678   1.243   8.306  0.1431 -0.5947 -0.4199
  512MOL0     C67466   6.790   1.197   8.214  0.3008  0.3649  0.3389
  512MOL0     C67467   6.917   1.288   8.244  0.1470  0.4703 -0.2896
  512MOL0     C67468   7.032   1.266   8.148 -0.7324 -0.1895 -0.6080
  512MOL0     N67469   7.142   1.352   8.194 -0.5147  0.2166 -0.3974
  512MOL0     C67470   7.200   1.357   8.315 -0.0177  0.7082  0.4156
  512MOL0     C67471   7.278   1.466   8.310  0.0334 -0.3614  0.2762
  512MOL0     C67472   7.377   1.530   8.411  0.4969  0.0586 -0.6649
  512MOL0     C67473   7.524   1.520   8.356 -0.0563  0.4608  0.6618
  512MOL0     C67474   7.632   1.586   8.445 -1.2780  0.2478  0.7830
  512MOL0     C67475   7.776   1.553   8.411 -0.0128  0.1344 -0.4124
  512MOL0     O67476   7.816   1.418   8.446 -0.2119  0.5681 -0.5812
  512MOL0     C67477   7.824   1.381   8.583  0.4260  0.2608  0.2349
  512MOL0     C67478   7.787   1.247   8.614  0.4756  0.1988  0.1640
  512MOL0     C67479   7.773   1.197   8.743  0.2509 -0.0722 -0.1116
  512MOL0     C67480   7.795   1.278   8.851 -0.5559 -0.5099 -0.7320
  512MOL0     C67481   7.822   1.211   8.986 -0.1659 -1.1320  0.4816
  512MOL0     O67482   7.858   1.291   9.082 -0.8125 -0.8311  0.4360
  512MOL0     C67483   7.909   1.226   9.191 -0.1253 -0.4745 -0.0534
  512MOL0     C67484   7.830   1.226   9.301 -0.5167 -0.4355 -1.0970
  512MOL0     C67485   7.877   1.158   9.418  0.0560 -0.3242 -0.8000
  512MOL0     C67486   8.000   1.084   9.424  0.8340  0.5969 -0.0479
  512MOL0     O67487   8.054   1.004   9.516  0.6090 -0.3079 -0.2839
  512MOL0     C67488   7.958   0.961   9.617 -0.1540 -0.3627  0.3606
  512MOL0     C67489   8.000   0.828   9.672  0.8731 -0.2159 -0.2623
  512MOL0     C67490   7.951   0.711   9.588  0.0189 -0.7180 -0.2100
  512MOL0     C67491   7.800   0.709   9.568  0.0681  0.8329 -0.8398
  512MOL0     C67492   7.746   0.567   9.592 -1.0974  0.5276 -0.4043
  512MOL0     C67493   7.592   0.562   9.565 -0.2387  0.3959 -0.5640
  512MOL0     C67494   7.549   0.411   9.543 -1.2971 -0.1366 -0.6009
  512MOL0     C67495   7.401   0.394   9.506 -0.5699 -0.7590  0.4715
  512MOL0    Cl67496   7.288   0.450   9.637  0.3795 -0.3155 -0.3279
  512MOL0     C67497   8.068   1.071   9.302 -0.9669 -0.0210  0.3598
  512MOL0     C67498   8.032   1.150   9.187  0.0515 -0.8595  0.1688
  512MOL0     O67499   7.829   1.091   8.988  0.1764  0.4256 -0.5345
  512MOL0     C67500   7.840   1.413   8.822  0.0672  0.3515  0.3197
  512MOL0     C67501   7.855   1.460   8.694 -0.0060  0.6515  0.8916
  512MOL0     N67502   7.254   1.531   8.193 -1.2302  0.5171  0.2770
  512MOL0     N67503   7.168   1.468   8.122  0.6664 -0.1250 -0.2683
  512MOL0     C67504   6.133   0.739   8.419  0.0332  0.0746 -0.2515
  512MOL0     C67505   6.160   0.606   8.381 -0.2107 -0.4294  0.5973
  512MOL0     C67506   6.363   0.215   8.189  0.3479 -0.1532 -1.2170
  512MOL0     C67507   6.285   0.135   8.268  0.5235  0.6950 -0.3599
  512MOL0     C67508   6.279  -0.001   8.224 -1.0075 -0.5605 -1.0998
  512MOL0     C67509   6.366  -0.059   8.128 -0.4191 -0.1324 -0.6138
  512MOL0     O67510   6.356  -0.183   8.099  0.1038  0.6154  0.3628
  512MOL0     C67511   6.353  -0.214   7.956  0.6227 -0.0725 -0.5276
  512MOL0     C67512   6.318  -0.350   7.933  0.5581  0.1093 -0.2749
  512MOL0     C67513   6.437  -0.445   7.978  0.7162  0.5747 -0.2351
  512MOL0     C67514   6.406  -0.580   8.029  0.6718  0.3453 -0.3259
  512MOL0     C67515   6.325  -0.652   7.939 -0.4835  0.5438 -0.6495
  512MOL0     C67516   6.259  -0.742   7.891 -0.1214  0.3756 -0.0511
  512MOL0     C67517   6.453   0.025   8.066  0.6565 -1.1279  0.0407
  512MOL0     C67518   6.451   0.163   8.088  0.3497 -0.1204  0.2607
  512MOL0     H67519   6.384   0.667   8.125 -1.8504 -0.4278 -1.3258
  512MOL0     H67520   6.327   0.882   8.193  0.0094  2.2754  1.4618
  512MOL0     H67521   6.161   1.167   8.316 -1.9984 -1.0080 -0.2882
  512MOL0     H67522   6.286   1.058   8.240  0.2896  1.5054  0.6206
  512MOL0     H67523   6.393   1.007   8.448 -0.3697 -0.9356 -2.8625
  512MOL0     H67524   6.292   1.128   8.531  0.4754 -1.1802  0.4131
  512MOL0     H67525   6.472   1.266   8.483  0.1715  0.0455 -0.8353
  512MOL0     H67526   6.394   1.291   8.328 -1.2924 -0.9732 -1.5696
  512MOL0     H67527   6.579   1.054   8.363 -3.0315 -0.5594 -0.1924
  512MOL0     H67528   6.524   1.122   8.213  2.1521 -1.7184 -1.0455
  512MOL0     H67529   6.722   1.248   8.406  0.7832  1.7760 -0.7668
  512MOL0     H67530   6.637   1.338   8.270 -1.4006 -0.7401  0.8499
  512MOL0     H67531   6.767   1.182   8.108 -0.6857  0.9673  0.4560
  512MOL0     H67532   6.810   1.093   8.243 -1.3300 -1.2311 -3.5890
  512MOL0     H67533   6.880   1.391   8.250 -2.5827 -0.3402 -1.5306
  512MOL0     H67534   6.949   1.255   8.343  2.0559  0.8224 -0.7632
  512MOL0     H67535   6.999   1.305   8.052 -0.5804  2.7870  0.4583
  512MOL0     H67536   7.057   1.159   8.145  4.4852  0.4026  4.4333
  512MOL0     H67537   7.181   1.294   8.401  1.6951 -0.8167 -0.2571
  512MOL0     H67538   7.377   1.467   8.500  2.3075 -2.5621 -2.3792
  512MOL0     H67539   7.342   1.632   8.430  0.5372 -0.1535  0.6409
  512MOL0     H67540   7.535   1.564   8.257  0.7921  0.2503  0.6526
  512MOL0     H67541   7.543   1.412   8.348 -1.1438  0.3182 -0.1091
  512MOL0     H67542   7.619   1.694   8.437  0.9830  0.8773  3.8205
  512MOL0     H67543   7.624   1.567   8.552 -1.2391  3.5131  1.4708
  512MOL0     H67544   7.839   1.621   8.470  1.0144  0.3763 -1.7421
  512MOL0     H67545   7.800   1.582   8.309  0.6528 -1.4432 -0.7394
  512MOL0     H67546   7.755   1.188   8.528 -1.6732  0.9892  0.3587
  512MOL0     H67547   7.747   1.093   8.758  1.7346 -0.6809 -1.5217
  512MOL0     H67548   7.730   1.269   9.297  0.4256  1.9869 -0.4357
  512MOL0     H67549   7.825   1.173   9.512  1.0283  0.1120 -0.3228
  512MOL0     H67550   7.853   0.950   9.589 -0.0555  0.7974 -0.5167
  512MOL0     H67551   7.959   1.042   9.690 -2.6005  0.0790  0.0072
  512MOL0     H67552   7.958   0.813   9.772 -1.4380 -1.7260 -1.3716
  512MOL0     H67553   8.108   0.842   9.676  0.6708  2.6928  5.2676
  512MOL0     H67554   7.991   0.612   9.613 -3.2377 -2.0172  0.4219
  512MOL0     H67555   7.990   0.734   9.488 -0.7736 -0.9368 -0.5789
  512MOL0     H67556   7.758   0.770   9.649  0.4711 -1.9638  1.6839
  512MOL0     H67557   7.770   0.745   9.469 -4.6449  1.2569  0.4748
  512MOL0     H67558   7.776   0.538   9.693  1.9031  2.2617 -0.6677
  512MOL0     H67559   7.797   0.498   9.524  1.1242  1.5654  0.1164
  512MOL0     H67560   7.562   0.624   9.480  0.8155  2.8294  0.7199
  512MOL0     H67561   7.545   0.604   9.655  1.9045  2.0076 -0.0937
  512MOL0     H67562   7.602   0.356   9.465 -0.1208  0.0501  0.0379
  512MOL0     H67563   7.562   0.335   9.620 -0.2096  0.0721 -0.5620
  512MOL0     H67564   7.378   0.292   9.474 -0.9908 -0.3607 -0.5385
  512MOL0     H67565   7.399   0.464   9.422  0.5952 -0.7349  0.4419
  512MOL0     H67566   8.159   1.012   9.300  1.1764  2.9770  1.5834
  512MOL0     H67567   8.106   1.163   9.109 -0.0075 -2.1139 -0.1148
  512MOL0     H67568   7.875   1.483   8.897 -2.3131 -0.7504  2.6747
  512MOL0     H67569   7.883   1.563   8.674 -2.6128  1.0700 -1.2509
  512MOL0     H67570   6.057   0.746   8.497  0.1739 -4.1215  0.4976
  512MOL0     H67571   6.115   0.519   8.428  0.0309 -1.6717 -1.3568
  512MOL0     H67572   6.205   0.171   8.331  1.4560  0.9392  0.6961
  512MOL0     H67573   6.202  -0.066   8.265 -0.6835  0.2853  0.9500
  512MOL0     H67574   6.454  -0.198   7.917 -0.2168  3.0234 -1.7415
  512MOL0     H67575   6.287  -0.142   7.907  2.6018  3.0663  1.0552
  512MOL0     H67576   6.225  -0.368   7.989  1.1088 -0.7939  0.3875
  512MOL0     H67577   6.306  -0.378   7.828  0.4437 -1.4178  0.1115
  512MOL0     H67578   6.486  -0.396   8.062  0.9377  0.1078 -0.0916
  512MOL0     H67579   6.505  -0.448   7.892 -2.5767 -1.5190 -3.0762
  512MOL0     H67580   6.495  -0.635   8.061  0.1509  1.1431  2.8450
  512MOL0     H67581   6.349  -0.561   8.121 -0.7066 -2.2862 -0.5465
  512MOL0     H67582   6.185  -0.812   7.858 -0.5571  1.4383 -1.4105
  512MOL0     H67583   6.522  -0.010   7.991  1.2348 -1.8850  0.9009
  512MOL0     H67584   6.514   0.222   8.023  2.4536 -2.1941  0.3179
  513MOL0     O67585   7.209   0.867   7.030 -0.4916 -0.1976 -0.1992
  513MOL0     C67586   7.315   0.914   6.994 -0.9595 -0.7130 -0.7335
  513MOL0     O67587   7.440   0.863   7.008 -0.4891  0.1987 -0.0489
  513MOL0     C67588   7.463   0.740   7.078  0.2152 -1.3437  0.8284
  513MOL0     C67589   7.368   0.631   7.073 -0.4639  0.2333 -0.2152
  513MOL0     C67590   7.396   0.509   7.128  0.0871  0.5703  1.1109
  513MOL0     C67591   7.511   0.495   7.202  0.4901  0.5331 -0.0157
  513MOL0     O67592   7.524   0.381   7.285  0.2396 -0.3875 -0.2240
  513MOL0     C67593   7.411   0.287   7.299 -0.6198  0.1079  1.0403
  513MOL0     C67594   7.462   0.171   7.404 -0.4536 -0.0307 -0.3472
  513MOL0     C67595   7.534   0.220   7.519  0.2924 -0.7315  0.4969
  513MOL0     C67596   7.441   0.331   7.592  0.3198  0.0598  1.2738
  513MOL0     C67597   7.482   0.364   7.730  0.3208  0.4748 -0.0160
  513MOL0     C67598   7.478   0.255   7.832  0.3363 -0.2863 -0.0988
  513MOL0     C67599   7.473   0.337   7.961  0.3990  0.4249 -0.2941
  513MOL0     C67600   7.465   0.231   8.077  0.9973  0.1997 -0.2959
  513MOL0     N67601   7.571   0.256   8.177  0.0762  0.0615  0.2516
  513MOL0     C67602   7.696   0.212   8.166 -0.6109  0.7152 -0.5902
  513MOL0     C67603   7.767   0.263   8.281  1.3715 -1.2057  0.4900
  513MOL0     C67604   7.910   0.243   8.321 -0.6985 -0.1737 -0.3615
  513MOL0     C67605   8.015   0.337   8.252 -0.2199 -0.1828 -0.4478
  513MOL0     C67606   7.986   0.479   8.292  0.5024 -0.9321  0.3860
  513MOL0     C67607   8.105   0.574   8.235  1.0112 -0.6882 -1.5208
  513MOL0     O67608   8.141   0.546   8.102  0.5065 -0.2689  0.3917
  513MOL0     C67609   8.273   0.547   8.055  0.6778  0.4829 -0.3171
  513MOL0     C67610   8.393   0.576   8.123 -0.7845  0.3254 -0.7906
  513MOL0     C67611   8.519   0.572   8.066  0.0095 -0.8026  1.0925
  513MOL0     C67612   8.537   0.550   7.929 -0.2351  0.4595  0.0601
  513MOL0     C67613   8.670   0.555   7.871  0.2210 -0.7047  0.6876
  513MOL0     O67614   8.683   0.511   7.736  0.0220 -0.2974  0.1647
  513MOL0     C67615   8.799   0.528   7.675  0.4728 -0.5299  1.1118
  513MOL0     C67616   8.869   0.651   7.666  0.1921 -0.8613 -0.3531
  513MOL0     C67617   9.000   0.652   7.606 -0.0375  0.0266 -0.3435
  513MOL0     C67618   9.051   0.536   7.558 -0.7229  0.2904 -0.5528
  513MOL0     O67619   9.176   0.556   7.495  0.1967  0.1333 -0.0209
  513MOL0     C67620   9.269   0.449   7.540 -0.3064  0.1904  1.0280
  513MOL0     C67621   9.414   0.462   7.471  0.8291  0.1958  0.6471
  513MOL0     C67622   9.497   0.561   7.550  0.2093 -0.0624  0.3745
  513MOL0     C67623   9.535   0.524   7.694  0.2124 -0.3819  0.2504
  513MOL0     C67624   9.557   0.651   7.768 -0.6655  0.0141  0.1343
  513MOL0     C67625   9.557   0.625   7.915  0.2220 -0.7453 -0.9495
  513MOL0     C67626   9.527   0.752   7.994  0.2864  0.4575  0.2209
  513MOL0     C67627   9.523   0.736   8.147 -0.1974 -0.7907  0.8906
  513MOL0    Cl67628   9.677   0.703   8.211  0.3871  0.1609 -0.3430
  513MOL0     C67629   8.974   0.419   7.552  0.1450  0.2362  0.4069
  513MOL0     C67630   8.849   0.418   7.609 -0.3624 -0.3509  1.1918
  513MOL0     O67631   8.760   0.610   7.935  0.2570 -0.7751 -0.0035
  513MOL0     C67632   8.423   0.521   7.858  0.0325 -1.4605  0.1285
  513MOL0     C67633   8.296   0.524   7.922  0.2556  0.1415 -0.3680
  513MOL0     N67634   7.671   0.336   8.353 -0.5071  0.1789  0.3451
  513MOL0     N67635   7.553   0.308   8.300 -0.5663  0.1312  0.4752
  513MOL0     C67636   7.606   0.594   7.208  0.8507  0.1266 -0.0880
  513MOL0     C67637   7.588   0.712   7.137 -0.4467 -0.0029  0.4430
  513MOL0     C67638   7.324   1.049   6.930 -1.1062 -1.2931  0.3949
  513MOL0     C67639   7.447   1.117   6.908 -0.7166  0.8823 -0.3803
  513MOL0     C67640   7.454   1.237   6.849  0.0554 -0.4196 -0.2530
  513MOL0     C67641   7.338   1.284   6.788  0.4645 -0.4014  0.4629
  513MOL0     O67642   7.342   1.410   6.731 -0.6420 -0.3685  0.4013
  513MOL0     C67643   7.273   1.428   6.602  0.4688 -0.1936 -1.2386
  513MOL0     C67644   7.169   1.542   6.625 -0.4600 -0.2614  0.0888
  513MOL0     C67645   7.089   1.580   6.489 -0.2282 -0.1865 -0.2187
  513MOL0     C67646   6.999   1.700   6.497 -0.2457 -0.4077 -0.4886
  513MOL0     C67647   6.874   1.670   6.559  0.0689  0.6474 -0.5526
  513MOL0     C67648   6.767   1.686   6.608 -0.0856  1.2887 -0.5181
  513MOL0     C67649   7.219   1.212   6.790  0.1748  0.8119 -0.0258
  513MOL0     C67650   7.214   1.091   6.857 -0.4287 -1.6929  0.1279
  513MOL0     H67651   7.267   0.645   7.035 -0.7415  2.7557  1.2275
  513MOL0     H67652   7.321   0.431   7.132  0.4666 -0.0285 -1.5442
  513MOL0     H67653   7.382   0.254   7.199  4.5773  1.7729 -1.3550
  513MOL0     H67654   7.322   0.326   7.349 -0.7177  0.9099  0.2846
  513MOL0     H67655   7.540   0.105   7.364  1.1788  0.7960  1.3324
  513MOL0     H67656   7.376   0.111   7.434 -0.3100  0.3799  0.9549
  513MOL0     H67657   7.624   0.262   7.473  0.0631 -1.3720 -0.5679
  513MOL0     H67658   7.567   0.150   7.596 -0.9303 -1.5639  0.3096
  513MOL0     H67659   7.451   0.419   7.526 -2.7083 -1.5316 -1.6007
  513MOL0     H67660   7.334   0.309   7.591 -1.0052  3.9114 -5.4510
  513MOL0     H67661   7.404   0.438   7.750  0.7382  0.7889  0.4827
  513MOL0     H67662   7.581   0.410   7.731  0.0210  1.1862  1.7335
  513MOL0     H67663   7.563   0.187   7.818 -3.1470 -4.5076 -3.9427
  513MOL0     H67664   7.388   0.194   7.826  2.1567 -3.2592 -6.2480
  513MOL0     H67665   7.562   0.401   7.964  0.2521  0.6466 -0.7449
  513MOL0     H67666   7.380   0.394   7.955  0.1776 -0.0310 -1.4925
  513MOL0     H67667   7.461   0.124   8.051  0.1216 -0.2959  1.6791
  513MOL0     H67668   7.368   0.244   8.127  0.3294  1.1737 -1.7911
  513MOL0     H67669   7.724   0.135   8.095 -1.5699 -1.7679  1.5331
  513MOL0     H67670   7.939   0.138   8.306  1.7941 -0.2003  3.3236
  513MOL0     H67671   7.926   0.263   8.427 -1.4652  1.9257 -0.5874
  513MOL0     H67672   8.010   0.331   8.143  2.6242  0.2625 -0.6758
  513MOL0     H67673   8.112   0.313   8.296 -0.9303  3.1787  3.6149
  513MOL0     H67674   7.892   0.513   8.246  1.3863  0.9301 -0.1410
  513MOL0     H67675   7.984   0.495   8.400  1.0878 -0.1466  0.2896
  513MOL0     H67676   8.186   0.541   8.302 -0.3386  2.3486  1.9538
  513MOL0     H67677   8.067   0.676   8.238 -1.7104 -1.6070 -2.1251
  513MOL0     H67678   8.386   0.607   8.226  2.5815 -1.1887  0.0457
  513MOL0     H67679   8.601   0.596   8.134  2.8389  1.3408 -2.6730
  513MOL0     H67680   8.845   0.745   7.715  1.9395 -1.2841  1.4525
  513MOL0     H67681   9.048   0.749   7.609  2.3032 -1.0748  0.8170
  513MOL0     H67682   9.234   0.346   7.526  1.7067 -0.3148 -1.0146
  513MOL0     H67683   9.264   0.453   7.649 -3.1969  2.2741  0.9149
  513MOL0     H67684   9.392   0.481   7.365  1.1224 -4.5949 -0.4824
  513MOL0     H67685   9.457   0.362   7.467  1.2587  0.4110 -2.3633
  513MOL0     H67686   9.447   0.659   7.546  0.2657 -0.0556 -2.7213
  513MOL0     H67687   9.592   0.579   7.499  0.5063  0.3896  1.0755
  513MOL0     H67688   9.458   0.462   7.740  0.7844 -2.1622 -1.0659
  513MOL0     H67689   9.620   0.457   7.709 -0.9194 -1.6616  1.2073
  513MOL0     H67690   9.476   0.721   7.745 -0.0222 -0.4488 -4.4997
  513MOL0     H67691   9.651   0.698   7.738 -1.2567 -0.3791 -2.6092
  513MOL0     H67692   9.648   0.582   7.960 -0.6794 -0.5917  1.1161
  513MOL0     H67693   9.477   0.554   7.937  0.6559 -0.4242  2.1550
  513MOL0     H67694   9.585   0.837   7.955  0.1708  0.8978  0.9895
  513MOL0     H67695   9.425   0.776   7.963 -0.0443 -2.0900 -0.8489
  513MOL0     H67696   9.457   0.654   8.180 -1.6738  0.1441  0.3586
  513MOL0     H67697   9.479   0.825   8.193  2.0151  2.1909 -2.2273
  513MOL0     H67698   9.002   0.337   7.486  0.5544  2.0982 -1.8680
  513MOL0     H67699   8.803   0.320   7.621 -2.7765  0.4985 -0.3773
  513MOL0     H67700   8.429   0.518   7.750  0.6792  0.1337  0.0947
  513MOL0     H67701   8.215   0.496   7.855 -1.5018 -2.2101  2.4686
  513MOL0     H67702   7.703   0.568   7.249  0.4830 -2.4446 -0.6845
  513MOL0     H67703   7.678   0.773   7.136 -0.3761 -0.0470 -1.7052
  513MOL0     H67704   7.542   1.076   6.941 -1.2463 -2.0760 -2.1946
  513MOL0     H67705   7.545   1.295   6.841 -1.5388  2.0711 -1.3756
  513MOL0     H67706   7.227   1.333   6.573 -0.6699 -1.0105  2.6742
  513MOL0     H67707   7.351   1.462   6.534  1.9598 -3.1200 -1.1798
  513MOL0     H67708   7.093   1.509   6.696 -0.1016 -1.4166 -0.0408
  513MOL0     H67709   7.225   1.620   6.677 -2.6176  0.3388  1.6750
  513MOL0     H67710   7.027   1.495   6.458 -0.8831  0.5370 -0.9318
  513MOL0     H67711   7.162   1.611   6.414  0.4777 -1.5218 -0.1057
  513MOL0     H67712   7.049   1.786   6.543 -2.8763  1.3134 -0.6499
  513MOL0     H67713   6.975   1.739   6.398 -2.0280  0.8879  0.4043
  513MOL0     H67714   6.681   1.704   6.669  0.6560  0.4186  0.8455
  513MOL0     H67715   7.129   1.252   6.742 -0.4156  4.1700  3.4270
  513MOL0     H67716   7.118   1.041   6.851  0.0237 -2.4241 -1.8199
  514MOL0     O67717   0.646  11.126   3.444 -0.3808  0.5252 -0.0731
  514MOL0     C67718   0.693  11.133   3.557  0.8746 -0.0265  0.1712
  514MOL0     O67719   0.785  11.226   3.592 -0.4581 -0.2649 -0.9031
  514MOL0     C67720   0.843  11.317   3.500  0.0434 -0.0666  0.0445
  514MOL0     C67721   0.860  11.448   3.545 -0.0150  0.3602  0.1061
  514MOL0     C67722   0.914  11.549   3.455  0.2309 -0.0284 -0.3111
  514MOL0     C67723   0.942  11.510   3.325  0.7598  0.2005  0.3604
  514MOL0     O67724   0.963  11.599   3.228  0.7154 -0.7660  0.0577
  514MOL0     C67725   1.051  11.706   3.268 -0.8646 -0.0582 -0.3892
  514MOL0     C67726   1.103  11.794   3.151 -0.2730 -0.2138  0.1695
  514MOL0     C67727   0.993  11.849   3.059  0.0850  0.0269  0.7463
  514MOL0     C67728   1.024  11.945   2.936 -0.6206  0.2509  0.6937
  514MOL0     C67729   0.925  11.928   2.822 -0.2081  0.0468  0.8135
  514MOL0     C67730   0.935  12.030   2.709 -0.0001  0.2798  0.2893
  514MOL0     C67731   1.062  12.010   2.631 -1.3055 -0.9026 -0.3056
  514MOL0     C67732   1.081  12.132   2.544  0.3193 -0.0582 -0.1920
  514MOL0     N67733   1.218  12.136   2.493  0.1854  0.2083  0.0740
  514MOL0     C67734   1.270  12.068   2.389 -0.3440  0.3548 -0.3774
  514MOL0     C67735   1.389  12.124   2.374  0.0700 -1.0400  0.2527
  514MOL0     C67736   1.493  12.084   2.268 -0.2761  1.4089 -0.7774
  514MOL0     C67737   1.560  11.963   2.331 -0.8418  0.1668  0.0779
  514MOL0     C67738   1.669  11.916   2.247  0.0501  0.6102  0.4786
  514MOL0     C67739   1.655  11.904   2.093 -0.2476  0.4568  0.3323
  514MOL0     O67740   1.578  11.784   2.071  0.4952 -0.3024 -0.6468
  514MOL0     C67741   1.499  11.784   1.963  0.3497 -0.2155  1.0128
  514MOL0     C67742   1.529  11.692   1.857 -0.1079  0.0824  0.1658
  514MOL0     C67743   1.448  11.698   1.744  0.6827 -0.8789  0.8764
  514MOL0     C67744   1.327  11.760   1.746  0.6513  0.1364  0.1745
  514MOL0     C67745   1.235  11.735   1.622  0.1376  0.3114 -1.0113
  514MOL0     O67746   1.103  11.772   1.652  0.0272 -0.8364  1.2940
  514MOL0     C67747   0.999  11.730   1.570  0.1944  0.6641 -0.1423
  514MOL0     C67748   0.914  11.617   1.602 -0.0822 -0.3857 -0.5426
  514MOL0     C67749   0.800  11.585   1.534 -0.0951 -0.0958 -0.1523
  514MOL0     C67750   0.781  11.660   1.410  0.1460  0.5638  0.1122
  514MOL0     O67751   0.681  11.619   1.325 -0.3881  0.6267  0.4058
  514MOL0     C67752   0.679  11.481   1.284 -0.0835 -0.0940 -0.4453
  514MOL0     C67753   0.530  11.441   1.286  0.5151  0.8174  0.5625
  514MOL0     C67754   0.504  11.295   1.265 -0.1424 -0.2384 -0.1708
  514MOL0     C67755   0.359  11.257   1.213  0.1907  0.4853 -0.9610
  514MOL0     C67756   0.332  11.107   1.231  1.0648 -0.1326 -0.4440
  514MOL0     C67757   0.214  11.059   1.152  1.0745 -0.2596  0.3397
  514MOL0     C67758   0.175  10.917   1.204 -0.8490 -1.3442 -0.0230
  514MOL0     C67759   0.072  10.826   1.140 -0.2204  0.3735 -0.6122
  514MOL0    Cl67760   0.109  10.788   0.961 -0.0772 -0.1311 -0.2014
  514MOL0     C67761   0.867  11.776   1.379 -0.2925 -0.4326 -0.0684
  514MOL0     C67762   0.973  11.808   1.460  0.2278  0.8926  0.1117
  514MOL0     O67763   1.283  11.672   1.531  0.5314 -0.2871  0.4968
  514MOL0     C67764   1.296  11.849   1.845 -0.1985 -0.9165 -0.2283
  514MOL0     C67765   1.384  11.861   1.956  0.5390  1.0806 -0.1220
  514MOL0     N67766   1.415  12.227   2.464 -0.7056  0.5450 -0.6818
  514MOL0     N67767   1.307  12.227   2.536  0.4049 -0.1326  0.0524
  514MOL0     C67768   0.914  11.376   3.276  1.2437 -0.1679  0.7054
  514MOL0     C67769   0.879  11.285   3.369 -0.5345  0.8089 -0.0659
  514MOL0     C67770   0.636  11.052   3.660 -0.0862 -0.7356 -0.9335
  514MOL0     C67771   0.715  11.009   3.766  0.3443  0.4736  0.0968
  514MOL0     C67772   0.661  10.924   3.873 -0.5945 -0.5801  0.2729
  514MOL0     C67773   0.530  10.885   3.868 -0.3539 -0.1688 -0.2508
  514MOL0     O67774   0.489  10.801   3.976 -0.7476 -0.1013  0.2716
  514MOL0     C67775   0.544  10.674   3.977 -0.1441 -0.5075 -0.9064
  514MOL0     C67776   0.460  10.574   3.887  0.0162 -1.0947 -0.0670
  514MOL0     C67777   0.334  10.540   3.948  0.3322  0.3332 -0.3886
  514MOL0     C67778   0.234  10.482   3.849 -0.0448  0.7426  0.2777
  514MOL0     C67779   0.201  10.553   3.726 -0.8138  0.2980  0.2253
  514MOL0     C67780   0.174  10.595   3.618 -0.1046  0.0773  0.0203
  514MOL0     C67781   0.451  10.925   3.754 -0.2053  0.4219 -0.6030
  514MOL0     C67782   0.504  11.004   3.652 -0.0600 -0.2662  0.5605
  514MOL0     H67783   0.813  11.478   3.638  2.2820 -1.5548  2.0313
  514MOL0     H67784   0.921  11.651   3.493 -0.4114  0.4165 -1.3360
  514MOL0     H67785   1.139  11.666   3.319 -1.4321  1.0106  1.5245
  514MOL0     H67786   0.995  11.771   3.336 -1.9342 -1.0697 -0.2685
  514MOL0     H67787   1.170  11.728   3.095 -2.6140 -2.0176 -0.6498
  514MOL0     H67788   1.163  11.871   3.201  2.9871 -4.0511  2.7335
  514MOL0     H67789   0.924  11.902   3.124 -0.9359  0.9598 -1.0018
  514MOL0     H67790   0.930  11.772   3.014 -0.8693 -1.1884  3.9293
  514MOL0     H67791   1.030  12.051   2.961  0.9479 -0.3133  3.0748
  514MOL0     H67792   1.125  11.924   2.898  0.3863  3.0518  1.5453
  514MOL0     H67793   0.832  11.944   2.877 -0.4041  1.7596  0.0655
  514MOL0     H67794   0.933  11.826   2.782 -2.2727 -0.1978  0.9305
  514MOL0     H67795   0.915  12.129   2.751 -4.6263 -0.5246  0.5130
  514MOL0     H67796   0.852  12.011   2.641  1.4162  2.1766 -2.1085
  514MOL0     H67797   1.147  12.021   2.699 -2.1322  1.6864  0.3930
  514MOL0     H67798   1.059  11.922   2.566 -2.4339  0.0969 -1.6500
  514MOL0     H67799   1.067  12.233   2.584  3.3107  1.1270 -1.7877
  514MOL0     H67800   1.011  12.119   2.460  0.2079  0.4980 -0.1869
  514MOL0     H67801   1.221  11.996   2.324  0.3951  0.2853 -0.8651
  514MOL0     H67802   1.573  12.154   2.247  1.7483 -0.0016  1.6686
  514MOL0     H67803   1.438  12.079   2.173 -0.9402 -0.5104 -0.3352
  514MOL0     H67804   1.491  11.879   2.340  1.1796 -1.2953  3.3492
  514MOL0     H67805   1.599  11.988   2.430 -0.9999 -0.2767  0.2532
  514MOL0     H67806   1.753  11.983   2.269 -0.4464  0.8287  1.7460
  514MOL0     H67807   1.709  11.819   2.276  2.2841  0.6435 -2.0039
  514MOL0     H67808   1.753  11.886   2.048  0.4715  2.8645  0.7892
  514MOL0     H67809   1.606  11.994   2.055 -0.6791 -0.1211 -0.5170
  514MOL0     H67810   1.612  11.622   1.857  2.3679  2.7784  2.3007
  514MOL0     H67811   1.497  11.625   1.680  2.2007  0.1805  0.7751
  514MOL0     H67812   0.938  11.579   1.701 -0.9225 -1.7339 -0.8453
  514MOL0     H67813   0.724  11.514   1.565 -0.5935 -1.0691 -3.2635
  514MOL0     H67814   0.737  11.416   1.350  0.4955 -0.9241 -1.7324
  514MOL0     H67815   0.725  11.463   1.186 -0.9091 -3.9153 -0.2866
  514MOL0     H67816   0.477  11.491   1.204  0.7166 -1.4272 -1.0366
  514MOL0     H67817   0.483  11.480   1.377 -2.2841 -0.5396 -0.1974
  514MOL0     H67818   0.527  11.244   1.359 -2.8820  3.4888  2.9228
  514MOL0     H67819   0.572  11.262   1.186  2.3570  1.1696  1.2309
  514MOL0     H67820   0.285  11.327   1.254 -0.5692 -0.9234  0.1799
  514MOL0     H67821   0.362  11.278   1.106  0.7778 -1.6222 -1.4041
  514MOL0     H67822   0.317  11.084   1.336  3.3388  4.7360  1.2761
  514MOL0     H67823   0.423  11.050   1.207  0.1891 -1.0671 -1.6647
  514MOL0     H67824   0.239  11.054   1.045  0.1674  1.4448  0.0256
  514MOL0     H67825   0.116  11.107   1.151  0.3335 -1.6261  2.1515
  514MOL0     H67826   0.268  10.861   1.217  0.1437 -0.2678 -2.0111
  514MOL0     H67827   0.140  10.946   1.304 -0.4485  3.3045 -0.9809
  514MOL0     H67828  -0.030  10.862   1.152 -0.0234  0.4182  1.2950
  514MOL0     H67829   0.065  10.730   1.191 -1.0342  0.9040  0.3144
  514MOL0     H67830   0.824  11.850   1.313 -3.2148 -1.5821  0.4313
  514MOL0     H67831   1.027  11.899   1.436  1.6946 -0.5434 -2.5392
  514MOL0     H67832   1.204  11.906   1.849  1.4347  1.8627  0.5253
  514MOL0     H67833   1.347  11.931   2.030  1.5836  3.2832 -1.5422
  514MOL0     H67834   0.927  11.358   3.170  1.4634 -0.6750  0.8130
  514MOL0     H67835   0.876  11.182   3.335  0.3749  0.9065 -0.4815
  514MOL0     H67836   0.818  11.042   3.775  0.4756  0.1343 -0.1107
  514MOL0     H67837   0.716  10.905   3.965 -1.8215  0.2330  1.1968
  514MOL0     H67838   0.522  10.647   4.081  1.0384  3.0235  0.4393
  514MOL0     H67839   0.652  10.680   3.958  0.1010  4.0351  0.6751
  514MOL0     H67840   0.439  10.613   3.787  2.0986 -0.8386 -0.4513
  514MOL0     H67841   0.509  10.477   3.881 -0.8864 -1.6898  1.5304
  514MOL0     H67842   0.296  10.625   4.006  1.1286  1.6243 -1.7133
  514MOL0     H67843   0.366  10.464   4.020  0.1591 -0.2218 -0.8864
  514MOL0     H67844   0.284  10.388   3.823  0.6050  0.6899  1.6439
  514MOL0     H67845   0.148  10.453   3.911 -1.7502 -0.7140 -2.5707
  514MOL0     H67846   0.164  10.613   3.513  1.5965 -1.8820 -0.5326
  514MOL0     H67847   0.351  10.884   3.752 -1.7934  3.8002 -3.5867
  514MOL0     H67848   0.437  11.018   3.568  2.2271 -2.1346 -1.7261
  515MOL0     O67849   4.251   1.666  11.069 -0.6538 -0.1816 -0.6933
  515MOL0     C67850   4.293   1.622  11.185 -0.3257  0.2783 -0.4603
  515MOL0     O67851   4.345   1.698  11.280 -0.3284  0.0570  0.2180
  515MOL0     C67852   4.365   1.831  11.259 -0.6774  0.5735 -0.3392
  515MOL0     C67853   4.465   1.869  11.177  0.7207  0.0126 -0.1201
  515MOL0     C67854   4.469   1.998  11.128  0.2581  0.0937  1.0743
  515MOL0     C67855   4.397   2.097  11.202  1.0074  0.1969  0.1657
  515MOL0     O67856   4.408   2.234  11.189 -0.2149 -0.0482  0.0740
  515MOL0     C67857   4.479   2.318  11.094  1.0647  0.5192 -0.9319
  515MOL0     C67858   4.607   2.372  11.155 -0.3826  0.2807 -0.1392
  515MOL0     C67859   4.578   2.474  11.267 -0.8489 -0.0001 -0.2893
  515MOL0     C67860   4.689   2.584  11.290 -0.5851 -0.1948 -0.8116
  515MOL0     C67861   4.658   2.693  11.393  0.2790 -0.7341 -0.4371
  515MOL0     C67862   4.621   2.639  11.527 -0.3686  0.3708  0.4895
  515MOL0     C67863   4.603   2.744  11.637 -0.0485  0.2899  0.1302
  515MOL0     C67864   4.466   2.807  11.629 -0.8081  0.1222  0.8195
  515MOL0     N67865   4.439   2.869  11.757  0.4231 -0.2540 -0.4791
  515MOL0     C67866   4.382   2.810  11.871  0.1408 -0.1103  0.4248
  515MOL0     C67867   4.384   2.906  11.965  0.9480  0.6979 -0.3014
  515MOL0     C67868   4.315   2.893  12.106 -0.2818  1.0763  0.3051
  515MOL0     C67869   4.170   2.943  12.119 -0.5438 -0.0714 -0.2071
  515MOL0     C67870   4.126   3.047  12.011 -0.0514 -0.0142 -0.4600
  515MOL0     C67871   3.996   3.110  12.055  0.0317 -0.0110  0.5695
  515MOL0     O67872   4.018   3.204  12.171  0.1781 -0.1029 -0.5524
  515MOL0     C67873   3.915   3.278  12.226  0.9386  0.2264 -0.2973
  515MOL0     C67874   3.928   3.342  12.348 -0.2800 -0.0034  0.5748
  515MOL0     C67875   3.821   3.397  12.413 -1.2802  0.5455 -0.3397
  515MOL0     C67876   3.696   3.404  12.353  0.3434 -0.1276  0.5976
  515MOL0     C67877   3.582   3.469  12.419  0.1049 -1.0827 -0.6562
  515MOL0     O67878   3.460   3.459  12.361 -0.4007 -0.1567  0.4140
  515MOL0     C67879   3.354   3.523  12.416  1.0930  0.3684  0.4531
  515MOL0     C67880   3.318   3.526  12.550 -0.2568  0.1653  0.5477
  515MOL0     C67881   3.218   3.605  12.600  0.7925 -0.0978 -0.0297
  515MOL0     C67882   3.130   3.671  12.518  0.4520 -0.0692 -0.2995
  515MOL0     O67883   3.028   3.747  12.556  0.1772  0.0466  0.5271
  515MOL0     C67884   3.034   3.816  12.678  0.7890 -0.4027 -0.2262
  515MOL0     C67885   2.952   3.948  12.669  0.7999  0.0564 -0.5789
  515MOL0     C67886   3.028   4.071  12.600 -0.7007 -0.6115 -0.0888
  515MOL0     C67887   2.939   4.198  12.593 -0.8894 -1.3056  0.4723
  515MOL0     C67888   2.956   4.278  12.719  0.4798  0.9692 -0.4577
  515MOL0     C67889   3.086   4.354  12.733 -0.9424 -0.9478  0.2758
  515MOL0     C67890   3.091   4.401  12.889  0.1153  0.3486  0.4561
  515MOL0     C67891   3.228   4.450  12.927  0.1069  0.4001  1.4031
  515MOL0    Cl67892   3.234   4.533  13.082  0.2967  0.2945  0.0490
  515MOL0     C67893   3.157   3.665  12.385  0.1231 -0.6232  0.0284
  515MOL0     C67894   3.257   3.587  12.327 -0.2358  0.2931 -0.8414
  515MOL0     O67895   3.609   3.527  12.523  0.4929  0.2818  0.7430
  515MOL0     C67896   3.681   3.339  12.234 -0.4373  0.0480 -0.0917
  515MOL0     C67897   3.785   3.271  12.170  0.4872  0.6516 -0.8700
  515MOL0     N67898   4.441   3.018  11.907 -0.1865  0.6875  0.6388
  515MOL0     N67899   4.476   2.996  11.780 -0.2411  0.1447 -0.5495
  515MOL0     C67900   4.310   2.061  11.308  0.9553  0.2003 -0.4506
  515MOL0     C67901   4.288   1.924  11.330  1.3031 -0.0860 -0.8600
  515MOL0     C67902   4.264   1.474  11.217 -0.9438 -0.3608 -0.7901
  515MOL0     C67903   4.299   1.410  11.337  0.2403  0.0309 -0.1998
  515MOL0     C67904   4.267   1.272  11.363  0.1742 -0.0798  1.2327
  515MOL0     C67905   4.214   1.193  11.262 -0.0905  0.1880  0.3607
  515MOL0     O67906   4.186   1.061  11.269  0.7351  0.3239  0.6548
  515MOL0     C67907   4.160   0.990  11.391 -0.1662 -0.2638  0.4045
  515MOL0     C67908   4.124   0.843  11.359 -0.3358  0.8532  0.3682
  515MOL0     C67909   4.063   0.775  11.486 -0.2843 -0.5590 -0.0208
  515MOL0     C67910   4.022   0.633  11.451 -0.3617  0.5215  1.0579
  515MOL0     C67911   4.004   0.566  11.575  0.1869  0.5233 -0.0942
  515MOL0     C67912   3.994   0.502  11.683 -0.7561 -0.2435 -0.3693
  515MOL0     C67913   4.189   1.260  11.151 -0.2355  1.2705  0.5607
  515MOL0     C67914   4.210   1.392  11.128 -0.1968 -0.8107 -1.3202
  515MOL0     H67915   4.531   1.797  11.130 -2.5723 -1.8086 -2.3187
  515MOL0     H67916   4.548   2.030  11.061 -0.5745 -1.3895 -0.6695
  515MOL0     H67917   4.409   2.397  11.067 -1.0772 -1.0890 -0.3651
  515MOL0     H67918   4.499   2.253  11.008  1.8190 -3.7036  2.1408
  515MOL0     H67919   4.662   2.419  11.072 -1.0880 -1.5912 -1.7470
  515MOL0     H67920   4.669   2.290  11.192 -1.2406 -1.3002 -2.0444
  515MOL0     H67921   4.542   2.425  11.358 -2.7466 -0.7115 -1.3742
  515MOL0     H67922   4.486   2.525  11.237  0.3106  1.5479 -1.4163
  515MOL0     H67923   4.779   2.522  11.305  0.6391  1.3023 -1.6897
  515MOL0     H67924   4.709   2.647  11.204 -1.6464  0.5364 -0.5354
  515MOL0     H67925   4.577   2.749  11.345  0.2318  2.6579  3.1010
  515MOL0     H67926   4.747   2.756  11.395  0.0781 -0.4276 -1.1342
  515MOL0     H67927   4.715   2.593  11.558  1.3931  2.7744 -0.8673
  515MOL0     H67928   4.535   2.571  11.528  0.7978 -1.2011 -0.8450
  515MOL0     H67929   4.620   2.694  11.733 -0.8309 -0.2870 -0.0254
  515MOL0     H67930   4.680   2.820  11.625 -0.3206  0.2850 -1.9734
  515MOL0     H67931   4.387   2.734  11.611 -1.2487 -0.1149  3.2814
  515MOL0     H67932   4.462   2.868  11.538 -0.8715 -1.0458  0.0167
  515MOL0     H67933   4.344   2.710  11.891  0.1258  0.0590  1.2825
  515MOL0     H67934   4.377   2.950  12.176  0.0738 -2.0636  2.8051
  515MOL0     H67935   4.313   2.791  12.144 -0.9431  1.6884  1.9952
  515MOL0     H67936   4.155   2.978  12.221  2.4297 -2.5323  1.2483
  515MOL0     H67937   4.101   2.859  12.104 -1.7764  0.9722 -0.5587
  515MOL0     H67938   4.207   3.117  11.989  0.5798 -1.1188 -1.8389
  515MOL0     H67939   4.106   2.998  11.916  0.2959  3.3822 -2.4286
  515MOL0     H67940   3.930   3.031  12.092  1.8820 -1.9181 -0.0170
  515MOL0     H67941   3.947   3.152  11.966  0.3995 -3.5676 -1.4961
  515MOL0     H67942   4.033   3.354  12.376  0.5893  0.6265 -2.5670
  515MOL0     H67943   3.849   3.453  12.501  1.6876 -4.0158  2.0281
  515MOL0     H67944   3.385   3.493  12.629  0.8473  1.5062  0.2270
  515MOL0     H67945   3.195   3.613  12.706 -2.7542 -0.6087 -0.6502
  515MOL0     H67946   3.141   3.837  12.684  1.5380 -3.6695  0.2177
  515MOL0     H67947   3.015   3.742  12.757  0.0402 -0.4276 -0.4231
  515MOL0     H67948   2.918   3.977  12.769 -2.6818 -3.4275 -0.5040
  515MOL0     H67949   2.857   3.940  12.615  2.2974  1.9709 -3.8159
  515MOL0     H67950   3.060   4.048  12.498  4.3655  0.4990  1.0015
  515MOL0     H67951   3.122   4.086  12.654 -0.1241 -2.6626 -0.4360
  515MOL0     H67952   2.964   4.254  12.502  2.3831 -1.7463  0.9877
  515MOL0     H67953   2.835   4.167  12.579 -0.9782 -0.1847 -1.9542
  515MOL0     H67954   2.951   4.206  12.801 -3.8731  0.4032 -0.9515
  515MOL0     H67955   2.872   4.348  12.735 -0.5088  0.0310 -1.3528
  515MOL0     H67956   3.087   4.434  12.659 -0.4603 -2.0483 -0.9623
  515MOL0     H67957   3.179   4.297  12.719 -0.3729  0.7035 -4.7277
  515MOL0     H67958   3.016   4.474  12.921 -0.1584 -0.0680  0.7752
  515MOL0     H67959   3.090   4.310  12.949  1.1269 -1.5060 -2.1807
  515MOL0     H67960   3.265   4.513  12.846 -0.5198  0.8161  1.4293
  515MOL0     H67961   3.291   4.361  12.927  1.8353  1.5715  2.2166
  515MOL0     H67962   3.094   3.718  12.313 -0.7041 -1.6248 -0.0041
  515MOL0     H67963   3.287   3.592  12.222  0.9832 -1.4898 -0.6120
  515MOL0     H67964   3.581   3.339  12.193  0.2887  2.8701 -2.1381
  515MOL0     H67965   3.761   3.201  12.091  3.9455  0.2709 -1.7444
  515MOL0     H67966   4.251   2.137  11.358 -2.3847 -2.4697  0.1024
  515MOL0     H67967   4.223   1.895  11.413  1.0099 -0.2845 -1.1584
  515MOL0     H67968   4.339   1.470  11.418 -0.7509 -0.6829  0.8655
  515MOL0     H67969   4.273   1.239  11.466  0.0438 -1.5228  0.7928
  515MOL0     H67970   4.074   1.042  11.435 -1.8469 -2.9350  0.4732
  515MOL0     H67971   4.240   0.987  11.466 -1.2111 -0.7558  1.5271
  515MOL0     H67972   4.062   0.833  11.270  0.9664  0.9232 -0.5839
  515MOL0     H67973   4.213   0.786  11.329 -1.4878  0.1871 -2.0540
  515MOL0     H67974   3.973   0.827  11.519 -1.5042 -1.8945 -1.1465
  515MOL0     H67975   4.134   0.779  11.569  0.4080  2.6694 -0.6367
  515MOL0     H67976   3.936   0.618  11.386  0.9322 -5.1016  0.1502
  515MOL0     H67977   4.106   0.581  11.403  0.2214  2.5553 -0.2376
  515MOL0     H67978   3.985   0.453  11.778 -1.0933 -0.2655 -0.4111
  515MOL0     H67979   4.153   1.196  11.070 -0.6413  1.8575  0.2735
  515MOL0     H67980   4.175   1.441  11.037  0.9001  1.3522 -0.6268
  516MOL0     O67981   5.742   0.512   0.964 -0.4290 -0.0536  0.1962
  516MOL0     C67982   5.774   0.575   1.060 -1.5898  0.4727  0.0202
  516MOL0     O67983   5.728   0.559   1.190  1.0362  0.1172 -0.6275
  516MOL0     C67984   5.661   0.444   1.222  0.1148  0.9745  0.0821
  516MOL0     C67985   5.733   0.316   1.231  0.2575  0.0507  0.0350
  516MOL0     C67986   5.660   0.205   1.279 -0.4200  0.6977  0.2713
  516MOL0     C67987   5.521   0.209   1.318  0.2044  0.1481 -0.7282
  516MOL0     O67988   5.470   0.096   1.385 -0.1472 -0.4269 -0.3317
  516MOL0     C67989   5.338   0.050   1.357 -1.1402 -0.4096 -0.5437
  516MOL0     C67990   5.314   0.022   1.199 -0.6263 -1.0561  0.3802
  516MOL0     C67991   5.376  -0.105   1.128  0.4861 -0.5410 -0.0463
  516MOL0     C67992   5.340  -0.118   0.975  0.4703 -0.3032  0.0341
  516MOL0     C67993   5.405  -0.014   0.889  1.4310 -0.1035 -1.9983
  516MOL0     C67994   5.561  -0.041   0.884 -1.0124  0.0419  0.8333
  516MOL0     C67995   5.598  -0.046   0.740 -0.4169  0.5171 -0.4620
  516MOL0     C67996   5.581   0.094   0.664  0.8979 -0.1086  0.5122
  516MOL0     N67997   5.568   0.083   0.514 -0.5059  0.4387 -0.4554
  516MOL0     C67998   5.669   0.037   0.425 -0.1935 -0.2091  0.4064
  516MOL0     C67999   5.624   0.050   0.299  1.2080 -0.1014 -0.0472
  516MOL0     C68000   5.698   0.022   0.176 -1.1066 -0.4689  0.1894
  516MOL0     C68001   5.671  -0.110   0.107 -0.0853  0.4437 -0.0317
  516MOL0     C68002   5.736  -0.133  -0.028 -0.1777  1.1558 -0.1722
  516MOL0     C68003   5.673  -0.046  -0.138  0.7048  0.1831  0.0439
  516MOL0     O68004   5.531  -0.042  -0.125  0.3754  0.5484 -0.0417
  516MOL0     C68005   5.472   0.070  -0.171 -0.1377 -0.6961  0.1770
  516MOL0     C68006   5.483   0.106  -0.303  0.1717  0.3035  0.6173
  516MOL0     C68007   5.417   0.225  -0.350  0.4053 -0.9487  0.4580
  516MOL0     C68008   5.340   0.308  -0.274 -0.7877 -0.0959 -0.0395
  516MOL0     C68009   5.290   0.439  -0.313  0.1366 -0.1415 -0.4401
  516MOL0     O68010   5.212   0.516  -0.233 -0.8243  0.1239  0.6426
  516MOL0     C68011   5.158   0.629  -0.288 -1.1054  0.4310 -0.3210
  516MOL0     C68012   5.202   0.753  -0.235  0.0117  0.1957  0.5078
  516MOL0     C68013   5.128   0.869  -0.279 -0.4883  0.7376  0.3333
  516MOL0     C68014   5.024   0.849  -0.371  0.2150  0.6939 -0.6250
  516MOL0     O68015   4.940   0.947  -0.409  1.0832  0.4479  0.8344
  516MOL0     C68016   4.990   1.042  -0.497  0.3879  0.6555  0.7891
  516MOL0     C68017   4.884   1.145  -0.516  0.6478 -0.0668 -0.3262
  516MOL0     C68018   4.873   1.252  -0.412  0.6981 -0.8195 -0.7062
  516MOL0     C68019   4.978   1.361  -0.414 -0.2529  0.4549  0.4430
  516MOL0     C68020   4.999   1.429  -0.274  0.0985 -0.1014 -0.0601
  516MOL0     C68021   5.107   1.526  -0.288  0.3212 -0.5232 -0.1992
  516MOL0     C68022   5.118   1.612  -0.165 -0.6242 -0.2485  0.1145
  516MOL0     C68023   5.241   1.694  -0.170  0.1987  0.4597 -0.6676
  516MOL0    Cl68024   5.247   1.769  -0.010  0.2282 -0.3192 -0.1765
  516MOL0     C68025   4.978   0.720  -0.401  0.7159  0.4968  0.0520
  516MOL0     C68026   5.048   0.614  -0.361 -0.5630 -0.5444 -0.3004
  516MOL0     O68027   5.323   0.471  -0.427  0.5909  0.4002  0.2037
  516MOL0     C68028   5.319   0.258  -0.147 -0.2647  0.1437 -0.4170
  516MOL0     C68029   5.389   0.144  -0.092  0.8236  0.6684  0.6154
  516MOL0     N68030   5.491   0.106   0.311  0.0627  0.1598  0.3507
  516MOL0     N68031   5.459   0.110   0.439 -0.7860  0.4386  0.1800
  516MOL0     C68032   5.455   0.332   1.308  0.4484 -0.5484  0.1670
  516MOL0     C68033   5.524   0.446   1.260 -1.0781  0.4754  0.2665
  516MOL0     C68034   5.835   0.707   1.031  0.3709 -0.1801  0.9374
  516MOL0     C68035   5.834   0.764   0.908 -0.3865  0.3159  1.1797
  516MOL0     C68036   5.903   0.884   0.874  0.1799 -0.4685  0.1379
  516MOL0     C68037   5.952   0.959   0.980 -0.3664 -1.1341 -0.1147
  516MOL0     O68038   6.016   1.076   0.971  0.1431 -0.6145  0.1836
  516MOL0     C68039   5.965   1.178   0.888  0.2839  0.4852 -0.3236
  516MOL0     C68040   6.079   1.279   0.878 -0.1888 -0.0480  0.9018
  516MOL0     C68041   6.176   1.258   0.750 -0.4947  0.4540  0.5197
  516MOL0     C68042   6.226   1.393   0.695 -0.1682  0.8353  0.0042
  516MOL0     C68043   6.307   1.467   0.783  0.1062 -0.8191 -1.0439
  516MOL0     C68044   6.365   1.532   0.866 -0.2285  0.8094  0.2428
  516MOL0     C68045   5.953   0.906   1.113 -0.0097  0.1657  0.6016
  516MOL0     C68046   5.902   0.776   1.135 -0.6020 -0.5635 -0.2023
  516MOL0     H68047   5.838   0.315   1.202  0.8095  0.7010  1.8422
  516MOL0     H68048   5.696   0.110   1.317  1.7225  1.0921 -0.6167
  516MOL0     H68049   5.277   0.132   1.397  1.3303  0.3503  2.0432
  516MOL0     H68050   5.305  -0.040   1.409 -5.5610  1.7571  0.8618
  516MOL0     H68051   5.330   0.116   1.146 -3.9685  0.0305  1.0209
  516MOL0     H68052   5.208  -0.003   1.192 -0.5137 -1.6471  0.7296
  516MOL0     H68053   5.348  -0.194   1.184  3.0723  0.9553  4.0910
  516MOL0     H68054   5.485  -0.103   1.129  0.5073 -1.6162  0.8239
  516MOL0     H68055   5.373  -0.210   0.926  2.4267  1.3579 -1.9673
  516MOL0     H68056   5.231  -0.112   0.967  0.2191  0.0479  2.7498
  516MOL0     H68057   5.385   0.088   0.925  1.1063  0.3931 -3.4982
  516MOL0     H68058   5.343  -0.020   0.799 -0.1130  1.8069 -1.1499
  516MOL0     H68059   5.593  -0.133   0.933 -0.9954 -0.0297  0.6893
  516MOL0     H68060   5.618   0.037   0.935 -1.1237  0.4307  0.3783
  516MOL0     H68061   5.701  -0.083   0.739 -0.9517 -1.0393 -0.2649
  516MOL0     H68062   5.542  -0.120   0.683  1.8660 -0.0718 -2.0783
  516MOL0     H68063   5.645   0.175   0.699 -0.4474  0.2130  2.4208
  516MOL0     H68064   5.485   0.136   0.696 -0.6808 -0.2243 -3.5055
  516MOL0     H68065   5.757  -0.017   0.459 -2.3642 -1.5489  4.6386
  516MOL0     H68066   5.803   0.008   0.204 -0.8285 -0.7342 -0.9297
  516MOL0     H68067   5.685   0.107   0.109 -0.4673 -0.7231 -0.2753
  516MOL0     H68068   5.562  -0.120   0.104 -0.0110 -5.2982  2.5727
  516MOL0     H68069   5.711  -0.174   0.187  2.0160  2.9025  1.0129
  516MOL0     H68070   5.844  -0.112  -0.022  0.4666 -1.8335  0.5324
  516MOL0     H68071   5.724  -0.236  -0.063  1.3519  1.6925 -2.5599
  516MOL0     H68072   5.700  -0.093  -0.233  2.6768  2.6164 -0.6930
  516MOL0     H68073   5.714   0.055  -0.145 -3.5122  2.2291  1.0983
  516MOL0     H68074   5.528   0.041  -0.378  0.9150 -0.6715  1.8480
  516MOL0     H68075   5.449   0.244  -0.452  2.4765 -3.7349  0.4557
  516MOL0     H68076   5.285   0.762  -0.166 -0.2938 -2.8200  1.3844
  516MOL0     H68077   5.168   0.968  -0.257  1.4988 -0.0831  0.6034
  516MOL0     H68078   5.014   1.002  -0.596 -1.3699 -2.1402  1.3719
  516MOL0     H68079   5.077   1.091  -0.452 -1.4647  1.4385  3.7978
  516MOL0     H68080   4.787   1.099  -0.535  1.2372 -2.4722  2.0059
  516MOL0     H68081   4.909   1.191  -0.612 -0.8598  0.7850 -0.3492
  516MOL0     H68082   4.872   1.213  -0.310  0.5105  0.6633 -0.1251
  516MOL0     H68083   4.778   1.300  -0.434  1.9383  1.3128 -1.7717
  516MOL0     H68084   5.074   1.322  -0.448 -1.2628 -1.7239 -0.1075
  516MOL0     H68085   4.960   1.444  -0.483  1.2546  3.1768  3.1053
  516MOL0     H68086   5.024   1.355  -0.197  3.6280  1.0176  0.0185
  516MOL0     H68087   4.907   1.481  -0.245  1.4375  1.6753  1.1710
  516MOL0     H68088   5.093   1.595  -0.373  1.1189 -2.4262 -1.9580
  516MOL0     H68089   5.198   1.467  -0.298  0.2176 -0.9770  1.3893
  516MOL0     H68090   5.037   1.681  -0.141  0.5615  1.1120  0.3338
  516MOL0     H68091   5.140   1.542  -0.084  1.2133  0.4284  0.2507
  516MOL0     H68092   5.248   1.773  -0.245  0.2511  1.2499  0.1439
  516MOL0     H68093   5.323   1.624  -0.185  0.1324 -0.0916  1.2468
  516MOL0     H68094   4.897   0.711  -0.473  1.2790  2.1427 -0.8257
  516MOL0     H68095   5.015   0.516  -0.393 -0.6947 -0.5483 -0.1549
  516MOL0     H68096   5.267   0.311  -0.068 -0.2562  0.4126 -0.5931
  516MOL0     H68097   5.353   0.103   0.002  1.8076 -1.6566  0.0460
  516MOL0     H68098   5.352   0.340   1.342  1.0981  3.7336  1.6618
  516MOL0     H68099   5.471   0.539   1.247 -0.5419  1.1821  2.6339
  516MOL0     H68100   5.780   0.712   0.830  1.2674 -0.9009  0.7965
  516MOL0     H68101   5.909   0.921   0.772  2.2886 -1.0249  0.0070
  516MOL0     H68102   5.889   1.226   0.950 -0.6422 -1.3802  0.0551
  516MOL0     H68103   5.915   1.151   0.794 -1.6938  0.2184  0.7404
  516MOL0     H68104   6.027   1.375   0.872  0.6309  0.3417 -1.5485
  516MOL0     H68105   6.143   1.271   0.966 -1.1332  1.9998  1.8322
  516MOL0     H68106   6.131   1.189   0.678  1.7770 -0.2477 -0.3088
  516MOL0     H68107   6.264   1.205   0.786  0.8151  2.6140  0.6819
  516MOL0     H68108   6.282   1.389   0.600 -0.1585  1.1305 -0.0052
  516MOL0     H68109   6.136   1.450   0.668 -1.2190 -1.3867 -1.5069
  516MOL0     H68110   6.421   1.554   0.955  1.5462 -1.9946 -0.0322
  516MOL0     H68111   6.012   0.960   1.187 -0.8483 -0.4615  1.7570
  516MOL0     H68112   5.907   0.724   1.230  2.8503 -1.0940 -0.5289
  517MOL0     O68113   7.192   8.877   1.809 -0.0523 -0.3055 -0.1260
  517MOL0     C68114   7.073   8.846   1.786 -0.1615  0.2216  0.9844
  517MOL0     O68115   6.972   8.940   1.772 -0.0732 -0.3230  0.4302
  517MOL0     C68116   7.021   9.066   1.753  0.3303 -0.7945  0.5942
  517MOL0     C68117   7.037   9.147   1.867  0.2897  0.3045  0.9917
  517MOL0     C68118   7.101   9.269   1.850 -0.0244 -0.3277  0.7555
  517MOL0     C68119   7.158   9.304   1.728  0.1347 -0.5673 -0.6739
  517MOL0     O68120   7.224   9.427   1.693  0.3715  0.0069 -0.8447
  517MOL0     C68121   7.225   9.522   1.800  0.0616 -0.3263  0.3921
  517MOL0     C68122   7.301   9.642   1.751  0.0065  0.8124 -0.0215
  517MOL0     C68123   7.322   9.728   1.870  0.3171  0.3990 -0.3752
  517MOL0     C68124   7.343   9.879   1.831  0.8993  0.1801  0.4727
  517MOL0     C68125   7.444   9.911   1.718 -1.1644 -0.2449  1.4043
  517MOL0     C68126   7.432  10.060   1.669  0.4476 -0.6235 -0.2772
  517MOL0     C68127   7.532  10.156   1.730 -0.0512 -0.4544 -0.1094
  517MOL0     C68128   7.572  10.290   1.652 -0.4972  0.2301 -0.6411
  517MOL0     N68129   7.691  10.345   1.720 -0.1944 -0.1674  0.4957
  517MOL0     C68130   7.805  10.284   1.752 -0.0483 -0.5031  1.3253
  517MOL0     C68131   7.874  10.371   1.829  0.0046  0.6651 -0.1551
  517MOL0     C68132   7.997  10.316   1.897 -0.1983 -0.6042  0.1352
  517MOL0     C68133   7.982  10.316   2.057  0.8990  0.2948  0.7988
  517MOL0     C68134   8.107  10.234   2.118  0.9585 -0.6672 -0.1755
  517MOL0     C68135   8.105  10.232   2.269 -0.3703 -0.0071 -0.1220
  517MOL0     O68136   7.986  10.185   2.334 -0.5179 -0.6120  0.5795
  517MOL0     C68137   7.977  10.043   2.329  1.0873 -0.9158  0.4820
  517MOL0     C68138   7.848  10.001   2.370 -0.0257 -0.4216 -0.4777
  517MOL0     C68139   7.827   9.866   2.389 -0.2528 -0.2009 -0.7608
  517MOL0     C68140   7.919   9.770   2.353 -0.3814  0.8650 -1.2105
  517MOL0     C68141   7.877   9.621   2.373 -0.4575 -0.6041 -1.1892
  517MOL0     O68142   7.754   9.599   2.419  0.8115 -0.2965  0.8132
  517MOL0     C68143   7.703   9.474   2.448  0.4382 -0.3146 -0.7727
  517MOL0     C68144   7.625   9.459   2.563  0.6554 -0.3266 -0.5258
  517MOL0     C68145   7.584   9.329   2.610 -0.3092 -0.5412 -1.3460
  517MOL0     C68146   7.613   9.216   2.537  1.5517 -0.7060  0.4721
  517MOL0     O68147   7.604   9.087   2.572  0.3259  0.7733  0.4393
  517MOL0     C68148   7.486   9.035   2.635 -0.0618 -0.6862 -0.4037
  517MOL0     C68149   7.508   8.888   2.626  0.6698  0.3084 -0.1959
  517MOL0     C68150   7.384   8.808   2.594 -0.1677  0.7605 -0.9803
  517MOL0     C68151   7.417   8.669   2.611  0.4890 -0.1626 -0.2394
  517MOL0     C68152   7.296   8.580   2.587  0.2944  0.5548 -0.6913
  517MOL0     C68153   7.187   8.623   2.678 -0.2900  0.0915 -0.0314
  517MOL0     C68154   7.093   8.502   2.704  0.5233 -0.2607 -0.5132
  517MOL0     C68155   7.029   8.447   2.585  0.0624  0.4284  0.7582
  517MOL0    Cl68156   6.930   8.558   2.487 -0.0177  0.4960  0.0036
  517MOL0     C68157   7.688   9.232   2.419  0.1628 -0.0754 -0.6160
  517MOL0     C68158   7.725   9.360   2.367 -0.0048  0.7625  0.3863
  517MOL0     O68159   7.961   9.534   2.351  0.7091  0.2309  0.4081
  517MOL0     C68160   8.039   9.802   2.295  0.8732 -0.3134  0.0695
  517MOL0     C68161   8.068   9.941   2.293 -1.0825 -1.7163 -0.0294
  517MOL0     N68162   7.805  10.490   1.844 -0.3563  0.4820 -0.2938
  517MOL0     N68163   7.696  10.470   1.779  0.0215 -0.2031 -1.1763
  517MOL0     C68164   7.115   9.237   1.613 -0.1599  0.3854  0.6039
  517MOL0     C68165   7.043   9.115   1.622 -1.0992 -0.1834  0.0925
  517MOL0     C68166   7.041   8.711   1.747  0.3730 -0.2661 -0.0948
  517MOL0     C68167   6.908   8.676   1.719  0.8333 -0.2985  0.9013
  517MOL0     C68168   6.865   8.545   1.700  1.0369 -1.3952 -0.6638
  517MOL0     C68169   6.956   8.442   1.696  0.5192  0.9730  0.3619
  517MOL0     O68170   6.915   8.314   1.668 -0.9620  0.2824 -0.3198
  517MOL0     C68171   6.921   8.261   1.531 -0.8380  0.1787  0.1817
  517MOL0     C68172   6.820   8.148   1.526  0.8311  0.7007  1.1597
  517MOL0     C68173   6.678   8.192   1.564  0.0759 -0.4517  0.5756
  517MOL0     C68174   6.578   8.172   1.446 -0.9909  0.1366  0.8665
  517MOL0     C68175   6.607   8.259   1.327 -0.4735  0.4401 -1.1993
  517MOL0     C68176   6.653   8.313   1.228 -0.0069 -0.2539 -1.0069
  517MOL0     C68177   7.096   8.475   1.699 -0.9023  0.0657 -0.3098
  517MOL0     C68178   7.138   8.610   1.732 -0.4060 -0.2857  1.0302
  517MOL0     H68179   7.001   9.110   1.963  2.4722 -4.0891  0.4207
  517MOL0     H68180   7.128   9.323   1.940  0.2821  0.9079 -0.0417
  517MOL0     H68181   7.286   9.481   1.881 -0.6882  1.2981  1.8624
  517MOL0     H68182   7.128   9.545   1.845  0.4591 -0.7621  1.5108
  517MOL0     H68183   7.233   9.698   1.686 -3.1281  1.5829  3.5598
  517MOL0     H68184   7.388   9.607   1.696 -1.0822  0.4204 -1.5482
  517MOL0     H68185   7.399   9.683   1.934 -1.4286 -2.6443 -0.2070
  517MOL0     H68186   7.234   9.712   1.934  0.2268 -2.4425 -1.0944
  517MOL0     H68187   7.253   9.922   1.787  2.2070  1.8903 -0.6840
  517MOL0     H68188   7.367   9.937   1.920  0.0971  0.9463  0.2063
  517MOL0     H68189   7.437   9.844   1.632  0.6587  1.9260 -0.5803
  517MOL0     H68190   7.543   9.899   1.762 -1.0200 -0.1215  1.1137
  517MOL0     H68191   7.335  10.108   1.682  1.4813  1.4794  0.1585
  517MOL0     H68192   7.449  10.067   1.562 -2.8934  1.6282 -0.8156
  517MOL0     H68193   7.486  10.190   1.824  2.5592 -0.4782  1.2865
  517MOL0     H68194   7.622  10.096   1.749  0.2194 -0.5954 -1.7285
  517MOL0     H68195   7.500  10.373   1.648  0.6654  1.2411 -1.5915
  517MOL0     H68196   7.591  10.269   1.546  1.4373  4.6609 -1.4039
  517MOL0     H68197   7.846  10.188   1.722  3.1822  1.3300 -0.8287
  517MOL0     H68198   8.090  10.373   1.889 -1.3933  1.4360  0.0790
  517MOL0     H68199   8.009  10.216   1.855 -3.8640  0.4696 -4.2105
  517MOL0     H68200   7.887  10.272   2.088  0.5359 -1.0754 -1.9753
  517MOL0     H68201   7.997  10.418   2.095  0.9400  0.3680  0.5888
  517MOL0     H68202   8.092  10.130   2.087 -2.5424 -1.8859  4.4776
  517MOL0     H68203   8.203  10.270   2.081  1.3830 -1.1070  0.4795
  517MOL0     H68204   8.111  10.338   2.294 -1.2300 -0.2605  1.2636
  517MOL0     H68205   8.200  10.187   2.300  0.0430  0.3214 -0.9052
  517MOL0     H68206   7.778  10.076   2.405  0.8346  0.8081 -1.2626
  517MOL0     H68207   7.738   9.845   2.447  0.0862  1.4267  0.4086
  517MOL0     H68208   7.604   9.549   2.619  3.9100  1.8156 -2.4897
  517MOL0     H68209   7.538   9.320   2.708  0.1749 -1.1361 -1.1679
  517MOL0     H68210   7.395   9.074   2.588 -0.3801  0.9538  1.4282
  517MOL0     H68211   7.479   9.059   2.742  4.5840 -1.1840  0.1972
  517MOL0     H68212   7.550   8.856   2.722  4.7965  0.8195 -1.6329
  517MOL0     H68213   7.580   8.870   2.546  1.1459 -1.8592  0.6461
  517MOL0     H68214   7.347   8.838   2.496  3.2235 -1.0584 -2.9964
  517MOL0     H68215   7.313   8.820   2.676  1.3166 -0.8333  0.6122
  517MOL0     H68216   7.488   8.630   2.538 -1.3399  0.2705 -2.3496
  517MOL0     H68217   7.455   8.641   2.709 -1.5488 -1.5982  0.2128
  517MOL0     H68218   7.327   8.476   2.597 -1.4363  0.0985  0.2912
  517MOL0     H68219   7.267   8.597   2.483  1.7447 -3.5935 -1.9848
  517MOL0     H68220   7.123   8.694   2.624 -0.9858 -1.1270 -0.8721
  517MOL0     H68221   7.218   8.672   2.771  1.6022 -0.3182 -0.4084
  517MOL0     H68222   7.155   8.438   2.768 -1.4284  0.9470  2.8563
  517MOL0     H68223   7.008   8.529   2.767  1.8139 -3.2174  2.8634
  517MOL0     H68224   6.958   8.370   2.617 -0.0955  0.7922  1.3119
  517MOL0     H68225   7.097   8.394   2.517  0.3859  1.3797  0.3203
  517MOL0     H68226   7.712   9.137   2.373  0.8367 -0.7191  0.9936
  517MOL0     H68227   7.770   9.375   2.269  2.8162  1.2997  1.6415
  517MOL0     H68228   8.105   9.729   2.250  0.7556 -0.9212  0.8510
  517MOL0     H68229   8.168   9.961   2.257 -1.2266 -2.1719 -0.6984
  517MOL0     H68230   7.137   9.270   1.512  1.0221  2.6285  1.5266
  517MOL0     H68231   7.005   9.064   1.534 -1.6757 -0.5843  0.5655
  517MOL0     H68232   6.832   8.750   1.745  1.3849  0.2337  1.0285
  517MOL0     H68233   6.757   8.534   1.691  0.9408 -1.1197  0.0762
  517MOL0     H68234   7.015   8.213   1.501 -0.1575 -0.2946  2.8141
  517MOL0     H68235   6.909   8.346   1.463 -2.4469  0.4013  0.7011
  517MOL0     H68236   6.821   8.092   1.432  1.0212 -1.8644  2.5972
  517MOL0     H68237   6.851   8.067   1.592  1.1881 -1.0948 -1.1082
  517MOL0     H68238   6.685   8.291   1.610  3.5713  0.9184 -2.4001
  517MOL0     H68239   6.639   8.117   1.633  0.0595 -2.2468 -1.2621
  517MOL0     H68240   6.585   8.069   1.410  2.3900  0.6579 -0.3422
  517MOL0     H68241   6.471   8.178   1.467 -2.1026 -0.1535 -3.7903
  517MOL0     H68242   6.715   8.355   1.150  1.3425  0.2042  0.2654
  517MOL0     H68243   7.173   8.406   1.667  0.5672  1.1941  0.6915
  517MOL0     H68244   7.242   8.641   1.725  0.0337 -1.9882 -2.4269
  518MOL0     O68245   1.792   5.129  11.173 -0.3432  0.4740 -0.2047
  518MOL0     C68246   1.814   5.223  11.098  0.7202  0.2338 -0.3500
  518MOL0     O68247   1.723   5.303  11.045 -0.0094  0.4668 -1.0657
  518MOL0     C68248   1.597   5.261  11.069  0.2315  0.0147  0.6831
  518MOL0     C68249   1.514   5.295  11.180 -0.0571  0.0778 -0.2196
  518MOL0     C68250   1.391   5.245  11.188  0.3665  0.8994  0.5419
  518MOL0     C68251   1.336   5.159  11.096 -0.3181  0.5791  0.5571
  518MOL0     O68252   1.205   5.115  11.118  0.1539 -0.5659 -0.3275
  518MOL0     C68253   1.128   5.036  11.026  0.3267 -0.6043 -0.4370
  518MOL0     C68254   1.114   4.881  11.052 -0.0284  0.5555  0.2635
  518MOL0     C68255   1.034   4.851  11.181  0.8860 -0.0003  0.6254
  518MOL0     C68256   1.027   4.699  11.211  0.5417  0.2644  0.7517
  518MOL0     C68257   0.991   4.659  11.361  0.0180  0.5009  0.3966
  518MOL0     C68258   0.862   4.733  11.394  0.6485 -0.6273 -0.1490
  518MOL0     C68259   0.735   4.698  11.316  0.0550 -0.0373 -0.0594
  518MOL0     C68260   0.619   4.775  11.373 -1.2871 -1.2493  0.3463
  518MOL0     N68261   0.488   4.714  11.338  0.1365 -0.0527  0.3614
  518MOL0     C68262   0.415   4.737  11.220 -0.1457 -0.5454 -0.5710
  518MOL0     C68263   0.338   4.627  11.208  0.4067 -0.0501 -0.9566
  518MOL0     C68264   0.268   4.594  11.096  0.8243 -0.4035  0.9665
  518MOL0     C68265   0.173   4.702  11.038  0.0923  0.9708  0.3777
  518MOL0     C68266   0.062   4.636  10.945 -0.4553  0.9947 -0.5227
  518MOL0     C68267  -0.043   4.733  10.889 -0.6237  0.6385 -0.1646
  518MOL0     O68268   0.020   4.847  10.830 -0.1119 -0.0155 -0.0085
  518MOL0     C68269   0.083   4.835  10.697  0.9847  0.9576 -0.3671
  518MOL0     C68270   0.165   4.940  10.655  1.0155 -1.0846  0.1230
  518MOL0     C68271   0.226   4.942  10.529 -0.0902 -0.6118  0.4057
  518MOL0     C68272   0.222   4.823  10.449  0.0733  0.4158 -0.4206
  518MOL0     C68273   0.298   4.813  10.324 -0.5994 -0.5731 -0.1245
  518MOL0     O68274   0.359   4.920  10.282 -0.3937  0.1725  0.5461
  518MOL0     C68275   0.454   4.921  10.179  0.2056 -0.2628  0.2029
  518MOL0     C68276   0.538   4.815  10.149  0.5446  0.3847 -0.2029
  518MOL0     C68277   0.629   4.817  10.047  0.7377 -0.0077 -0.3517
  518MOL0     C68278   0.652   4.933   9.965  0.5436  0.0959  0.1677
  518MOL0     O68279   0.747   4.950   9.864  0.2712  0.2685  0.6529
  518MOL0     C68280   0.866   4.869   9.883  0.3386  0.2640 -0.3898
  518MOL0     C68281   0.938   4.862   9.748 -0.6019 -0.5184  0.1928
  518MOL0     C68282   1.001   4.989   9.687  1.4491 -0.0512 -0.1840
  518MOL0     C68283   1.113   5.052   9.768 -1.0969  1.0375 -0.1145
  518MOL0     C68284   1.145   5.192   9.726 -0.0460 -0.3086 -0.1198
  518MOL0     C68285   1.286   5.248   9.781  0.1764 -0.3876  0.4236
  518MOL0     C68286   1.338   5.381   9.703  0.6642  0.1795 -0.5338
  518MOL0     C68287   1.374   5.497   9.796 -0.7593  0.5711  0.4305
  518MOL0    Cl68288   1.480   5.615   9.714 -0.5500  0.4313  0.2945
  518MOL0     C68289   0.562   5.040   9.991  0.1355 -0.7881 -0.1636
  518MOL0     C68290   0.471   5.033  10.098 -0.6340 -0.1102  0.0419
  518MOL0     O68291   0.294   4.706  10.266 -0.3282 -0.2332  0.2752
  518MOL0     C68292   0.141   4.712  10.496  0.2435 -0.3580  1.0477
  518MOL0     C68293   0.071   4.724  10.615 -0.9057 -0.3702 -0.4593
  518MOL0     N68294   0.355   4.540  11.312  0.1197  0.2065 -0.6009
  518MOL0     N68295   0.446   4.592  11.386  0.3466 -1.0933 -0.5408
  518MOL0     C68296   1.411   5.124  10.988  0.5146 -0.4287  1.0376
  518MOL0     C68297   1.542   5.168  10.976  0.3620 -0.3434 -0.1812
  518MOL0     C68298   1.958   5.246  11.071  0.8887  0.8230 -1.5425
  518MOL0     C68299   2.053   5.159  11.132 -0.7800  0.0239 -0.3231
  518MOL0     C68300   2.184   5.184  11.101 -0.2548  0.4903 -0.7374
  518MOL0     C68301   2.230   5.286  11.022  0.1026  0.2659  0.4239
  518MOL0     O68302   2.362   5.314  10.986 -0.2006 -0.3310 -0.7650
  518MOL0     C68303   2.475   5.224  10.999 -0.4454  0.3933 -0.0817
  518MOL0     C68304   2.574   5.234  10.876 -0.2511 -0.1937 -0.8294
  518MOL0     C68305   2.680   5.334  10.925 -0.8010  0.4278 -0.1648
  518MOL0     C68306   2.764   5.379  10.804 -0.1382  0.9385 -0.2737
  518MOL0     C68307   2.902   5.423  10.831 -0.3092 -0.7014  0.5211
  518MOL0     C68308   3.005   5.471  10.870  0.7409 -0.3907  0.0303
  518MOL0     C68309   2.134   5.367  10.963 -1.0391 -0.4460  0.7162
  518MOL0     C68310   1.998   5.342  10.983  0.8496 -0.1060  0.3484
  518MOL0     H68311   1.555   5.360  11.257 -3.6745 -0.0048  1.9894
  518MOL0     H68312   1.322   5.272  11.266 -0.6982  1.8797 -0.6894
  518MOL0     H68313   1.164   5.057  10.926 -1.4035  0.2652 -0.9154
  518MOL0     H68314   1.030   5.083  11.014  1.3390  2.4363  2.0070
  518MOL0     H68315   1.209   4.827  11.045 -0.7962 -0.6136 -3.4844
  518MOL0     H68316   1.056   4.843  10.967  0.4393 -1.7653  0.9180
  518MOL0     H68317   0.936   4.897  11.168  0.3905 -0.3858  2.7051
  518MOL0     H68318   1.096   4.886  11.264  1.9533 -2.0138  0.7493
  518MOL0     H68319   0.963   4.648  11.139  0.1533  0.0045  1.2790
  518MOL0     H68320   1.125   4.655  11.189  1.0849  2.2620 -1.1803
  518MOL0     H68321   1.062   4.695  11.436 -1.6347 -1.6455  3.1814
  518MOL0     H68322   0.989   4.550  11.370  2.1676  0.3302 -0.4226
  518MOL0     H68323   0.876   4.840  11.413  1.2910 -1.1087  2.5536
  518MOL0     H68324   0.848   4.709  11.500  0.9267  1.8549  0.5132
  518MOL0     H68325   0.748   4.719  11.209  0.8262 -4.7375 -1.0860
  518MOL0     H68326   0.724   4.590  11.323  2.9334 -0.3395  1.2805
  518MOL0     H68327   0.628   4.880  11.345  1.4900 -1.6410 -0.5775
  518MOL0     H68328   0.618   4.781  11.483 -0.7141 -0.7461  0.3322
  518MOL0     H68329   0.440   4.808  11.141  2.4290 -1.9325 -1.1342
  518MOL0     H68330   0.205   4.507  11.119  0.4812  0.0906  1.9986
  518MOL0     H68331   0.334   4.564  11.015 -1.7597  1.6641 -2.1675
  518MOL0     H68332   0.223   4.783  10.984 -2.9226 -0.0294 -4.5475
  518MOL0     H68333   0.130   4.749  11.127 -0.3863 -1.7190  1.6687
  518MOL0     H68334   0.102   4.572  10.866  0.2956 -0.0563  0.6616
  518MOL0     H68335   0.013   4.568  11.015  2.0616  1.6453  2.0892
  518MOL0     H68336  -0.095   4.766  10.980 -1.1941  1.5987 -0.8239
  518MOL0     H68337  -0.119   4.688  10.825 -0.1614 -0.6210  0.1549
  518MOL0     H68338   0.181   5.021  10.725  0.9667  0.6721 -1.8239
  518MOL0     H68339   0.286   5.030  10.509 -3.3226  0.9046 -4.5255
  518MOL0     H68340   0.521   4.724  10.204  0.9833 -0.3650 -1.2684
  518MOL0     H68341   0.687   4.726  10.037  4.7462  2.3341 -1.1519
  518MOL0     H68342   0.838   4.767   9.909  1.9308 -0.1576 -0.2074
  518MOL0     H68343   0.932   4.916   9.958  1.1414 -0.3707 -0.6892
  518MOL0     H68344   0.875   4.813   9.674 -0.2071 -1.3186  0.3695
  518MOL0     H68345   1.022   4.793   9.768  0.4747  0.0325 -2.1185
  518MOL0     H68346   0.931   5.073   9.682  0.4539 -0.7294  1.5853
  518MOL0     H68347   1.027   4.970   9.583 -2.3438  1.3553 -1.5860
  518MOL0     H68348   1.088   5.052   9.874  0.9948  1.0344  0.4200
  518MOL0     H68349   1.206   4.994   9.767 -2.1062 -0.6750 -1.6627
  518MOL0     H68350   1.070   5.251   9.779 -0.1258 -1.6706  1.3460
  518MOL0     H68351   1.135   5.193   9.617 -1.0989  1.1970 -0.0490
  518MOL0     H68352   1.373   5.181   9.770  0.5276  0.3513 -1.7063
  518MOL0     H68353   1.271   5.264   9.888 -1.8695 -0.8838  0.2444
  518MOL0     H68354   1.428   5.352   9.648  2.8034  0.3996  2.5960
  518MOL0     H68355   1.262   5.429   9.641  0.0665 -1.5687 -1.2043
  518MOL0     H68356   1.429   5.456   9.881 -1.3341  0.5644  0.8060
  518MOL0     H68357   1.281   5.535   9.839 -0.2358 -0.5676  2.7027
  518MOL0     H68358   0.585   5.138   9.951  3.3726  0.3548  3.7758
  518MOL0     H68359   0.401   5.114  10.117  1.3634  1.7991 -0.3591
  518MOL0     H68360   0.121   4.617  10.447 -3.4293 -0.3481  2.1580
  518MOL0     H68361   0.007   4.642  10.643  3.0554 -2.6509  2.9197
  518MOL0     H68362   1.367   5.071  10.904  1.5639  0.4673 -0.1296
  518MOL0     H68363   1.588   5.143  10.881 -0.4019  2.6665 -1.4353
  518MOL0     H68364   2.029   5.069  11.188  0.2698 -0.2161 -0.2324
  518MOL0     H68365   2.261   5.110  11.121 -1.0990 -0.4985 -1.0235
  518MOL0     H68366   2.451   5.119  10.980 -0.2203  0.7056 -2.3639
  518MOL0     H68367   2.516   5.233  11.100  1.1614 -0.3701 -0.6169
  518MOL0     H68368   2.616   5.138  10.845  0.4312 -0.2215  0.1208
  518MOL0     H68369   2.520   5.275  10.791 -0.2570  0.3867 -0.5546
  518MOL0     H68370   2.748   5.279  10.991 -0.3302 -2.4369 -2.8175
  518MOL0     H68371   2.645   5.426  10.973 -0.3060  0.6692 -0.2594
  518MOL0     H68372   2.773   5.290  10.741 -1.0786  0.4481  0.2602
  518MOL0     H68373   2.701   5.450  10.751 -2.4876 -0.5826  0.3377
  518MOL0     H68374   3.100   5.492  10.915  0.1526 -2.8429  2.6354
  518MOL0     H68375   2.145   5.450  10.894 -2.5917 -0.8380 -0.0350
  518MOL0     H68376   1.932   5.416  10.938  2.8428  0.9104 -1.0861
  519MOL0     O68377   5.433   3.921   8.467 -0.0519  0.9726  0.3020
  519MOL0     C68378   5.495   3.823   8.512 -0.0162  0.0749  0.2751
  519MOL0     O68379   5.627   3.820   8.519  0.9935 -0.1432  0.3251
  519MOL0     C68380   5.714   3.913   8.467 -1.4001 -0.4676 -0.1824
  519MOL0     C68381   5.847   3.873   8.446 -0.3471  0.2331 -0.6442
  519MOL0     C68382   5.952   3.959   8.419 -0.2344  0.3164 -0.3689
  519MOL0     C68383   5.923   4.097   8.397  0.0727 -0.6055  0.6300
  519MOL0     O68384   6.016   4.195   8.363 -0.5081 -0.4476  0.1428
  519MOL0     C68385   6.144   4.164   8.304  0.2092  0.0599 -0.8023
  519MOL0     C68386   6.242   4.281   8.299 -0.9233 -0.4065 -0.4954
  519MOL0     C68387   6.365   4.258   8.209 -0.4390  0.2159 -0.0964
  519MOL0     C68388   6.476   4.368   8.204 -0.6620  0.2367 -0.1983
  519MOL0     C68389   6.604   4.319   8.142 -0.0207 -0.5794  0.4034
  519MOL0     C68390   6.590   4.298   7.987 -0.4089 -0.2122  0.2106
  519MOL0     C68391   6.712   4.350   7.912  0.5042  0.4571 -0.3210
  519MOL0     C68392   6.729   4.300   7.771 -0.2867 -0.3539  0.2173
  519MOL0     N68393   6.742   4.157   7.758 -0.1683  0.1085 -0.0652
  519MOL0     C68394   6.784   4.113   7.640  1.2467  0.1017  0.6476
  519MOL0     C68395   6.771   3.973   7.656 -0.0268 -0.4785  0.3350
  519MOL0     C68396   6.788   3.884   7.542  0.2036  0.4600  1.0849
  519MOL0     C68397   6.737   3.746   7.565 -0.2404  0.2943 -0.4757
  519MOL0     C68398   6.722   3.664   7.440 -0.2769 -1.0853 -0.2292
  519MOL0     C68399   6.650   3.529   7.457 -0.1284 -0.2098 -1.4953
  519MOL0     O68400   6.680   3.450   7.573  0.0704  0.0007  0.4158
  519MOL0     C68401   6.598   3.347   7.601 -0.6000  0.4261  0.3510
  519MOL0     C68402   6.489   3.307   7.523 -0.3948 -0.6770 -0.1773
  519MOL0     C68403   6.417   3.194   7.560  0.1907 -0.6846  0.1010
  519MOL0     C68404   6.444   3.125   7.676  0.3549 -0.0067 -1.1731
  519MOL0     C68405   6.349   3.022   7.730  0.1437  0.9044  1.3330
  519MOL0     O68406   6.392   2.954   7.836 -0.4381  0.3871  1.2591
  519MOL0     C68407   6.333   2.834   7.872 -1.2240 -0.4389  0.6904
  519MOL0     C68408   6.418   2.764   7.966  0.3574  0.0252 -0.7503
  519MOL0     C68409   6.367   2.648   8.024 -0.0925  0.0056  0.5835
  519MOL0     C68410   6.243   2.589   7.988  0.0545 -0.1667 -0.3570
  519MOL0     O68411   6.191   2.471   8.038 -0.5808 -0.0321 -0.0593
  519MOL0     C68412   6.295   2.370   8.033 -0.1840 -0.1887  0.3238
  519MOL0     C68413   6.236   2.238   8.098  0.3098  0.6441 -0.2342
  519MOL0     C68414   6.257   2.229   8.252  0.4286  0.2933 -0.8387
  519MOL0     C68415   6.399   2.271   8.307  0.3051  0.3210 -0.5135
  519MOL0     C68416   6.514   2.208   8.236  0.2315  0.4143 -0.0838
  519MOL0     C68417   6.659   2.258   8.265 -0.5337  1.3987  0.2054
  519MOL0     C68418   6.775   2.190   8.177 -0.3315  0.2777 -0.0720
  519MOL0     C68419   6.917   2.224   8.230  0.4317 -0.5601  0.2860
  519MOL0    Cl68420   6.933   2.406   8.238 -0.2963 -0.0227  0.0701
  519MOL0     C68421   6.169   2.660   7.888 -0.1378  0.2427 -0.1483
  519MOL0     C68422   6.205   2.785   7.838  0.0654  0.5071 -0.2047
  519MOL0     O68423   6.245   3.004   7.663 -0.3135 -0.5177  0.5990
  519MOL0     C68424   6.552   3.174   7.752  0.0233 -0.3303 -0.6337
  519MOL0     C68425   6.637   3.274   7.712 -0.6063 -0.0024  1.2106
  519MOL0     N68426   6.747   3.942   7.789  1.6001 -0.1095  0.1887
  519MOL0     N68427   6.726   4.050   7.846 -0.2163 -0.0217  0.2373
  519MOL0     C68428   5.792   4.142   8.420 -0.7279  0.2976 -0.4402
  519MOL0     C68429   5.695   4.054   8.467  0.3307  0.0994  0.1204
  519MOL0     C68430   5.425   3.699   8.543 -0.2807  0.0184 -0.4633
  519MOL0     C68431   5.485   3.595   8.608  0.5249 -0.9608  0.1406
  519MOL0     C68432   5.413   3.482   8.640  1.6385  0.4596  0.6469
  519MOL0     C68433   5.284   3.461   8.589 -0.2439 -0.2020 -0.6353
  519MOL0     O68434   5.219   3.346   8.609  0.7030  0.3800 -0.1400
  519MOL0     C68435   5.280   3.217   8.597  0.1997 -0.4266 -0.2109
  519MOL0     C68436   5.196   3.115   8.521  0.1486 -0.3737 -0.0511
  519MOL0     C68437   5.132   3.003   8.610  0.1461 -0.0174  1.3942
  519MOL0     C68438   5.016   3.033   8.692  0.0561 -0.7061 -1.2802
  519MOL0     C68439   4.921   2.924   8.676 -0.0693 -0.4315 -0.3375
  519MOL0     C68440   4.853   2.824   8.647 -0.1495 -1.0744  0.3984
  519MOL0     C68441   5.227   3.559   8.511  0.3566  0.2912 -0.1377
  519MOL0     C68442   5.291   3.682   8.494  0.1948 -0.6157  0.3340
  519MOL0     H68443   5.869   3.771   8.477  1.7017  0.8097 -0.0210
  519MOL0     H68444   6.052   3.919   8.423 -1.0844 -1.8139  2.1987
  519MOL0     H68445   6.131   4.123   8.203 -1.6251 -1.6376  0.0362
  519MOL0     H68446   6.183   4.083   8.366 -2.1240 -0.5332  0.0222
  519MOL0     H68447   6.265   4.321   8.398  0.6348 -1.3776 -0.4420
  519MOL0     H68448   6.190   4.362   8.246 -3.5865 -1.3343  0.5270
  519MOL0     H68449   6.323   4.234   8.111 -0.1660 -1.6416  0.1989
  519MOL0     H68450   6.414   4.168   8.248 -0.9783 -1.1834 -2.4532
  519MOL0     H68451   6.452   4.462   8.155  3.9234  0.6511 -2.1493
  519MOL0     H68452   6.502   4.396   8.307  5.3285  0.1673 -1.3157
  519MOL0     H68453   6.635   4.233   8.202  0.8265 -0.3537  0.2955
  519MOL0     H68454   6.684   4.391   8.160 -1.4100  0.6881  1.7901
  519MOL0     H68455   6.507   4.358   7.950 -1.6137 -2.7216 -1.4952
  519MOL0     H68456   6.572   4.194   7.957 -1.9189 -0.1116  0.7156
  519MOL0     H68457   6.714   4.459   7.915  1.9545  0.4811 -1.4375
  519MOL0     H68458   6.798   4.297   7.953  0.7532  1.4494  0.4797
  519MOL0     H68459   6.812   4.360   7.732  1.0217 -0.4926  2.6130
  519MOL0     H68460   6.644   4.326   7.706 -0.6438 -1.4899  0.2166
  519MOL0     H68461   6.808   4.162   7.546 -1.2626  0.9702  0.3810
  519MOL0     H68462   6.895   3.885   7.519  0.2979 -0.7556  1.3825
  519MOL0     H68463   6.736   3.921   7.454 -0.5443  4.2326  2.8814
  519MOL0     H68464   6.639   3.746   7.612 -0.3299 -3.3518 -0.3510
  519MOL0     H68465   6.813   3.697   7.627 -0.6745  2.1730  1.6745
  519MOL0     H68466   6.668   3.707   7.355 -0.5563 -1.3453 -0.1862
  519MOL0     H68467   6.821   3.635   7.405 -0.9783 -3.6979 -0.3141
  519MOL0     H68468   6.678   3.474   7.367  0.2374  0.2928 -1.6919
  519MOL0     H68469   6.545   3.560   7.462  0.7579  3.1243 -0.1979
  519MOL0     H68470   6.455   3.356   7.432  0.5808  0.3075 -0.0313
  519MOL0     H68471   6.330   3.176   7.498  0.2273  1.0354 -0.4848
  519MOL0     H68472   6.521   2.799   7.978  0.5075 -0.4396 -0.6577
  519MOL0     H68473   6.434   2.589   8.085 -1.0473  0.4568  2.1077
  519MOL0     H68474   6.392   2.387   8.080  0.3488 -3.3464  0.5496
  519MOL0     H68475   6.315   2.346   7.928 -2.5906  0.1864 -0.2790
  519MOL0     H68476   6.264   2.152   8.038  2.3586  0.4452  0.9219
  519MOL0     H68477   6.127   2.235   8.089  0.4713 -1.7018 -2.4282
  519MOL0     H68478   6.231   2.127   8.284  3.0709  0.3587  1.9124
  519MOL0     H68479   6.183   2.291   8.302  0.0042 -1.0819  0.3099
  519MOL0     H68480   6.409   2.379   8.312 -0.5197  0.3507  0.8811
  519MOL0     H68481   6.411   2.228   8.407  0.7587  0.0094 -0.6970
  519MOL0     H68482   6.504   2.227   8.128 -1.4688  4.3953  0.5807
  519MOL0     H68483   6.514   2.100   8.251 -2.8614  0.4350  0.8147
  519MOL0     H68484   6.684   2.222   8.365 -3.0763  0.0905  0.4652
  519MOL0     H68485   6.658   2.368   8.262 -2.5845  1.4036 -0.6263
  519MOL0     H68486   6.764   2.081   8.170  0.2798 -0.0397  2.6283
  519MOL0     H68487   6.763   2.229   8.076 -1.1554  2.4146  0.7938
  519MOL0     H68488   6.989   2.183   8.159  0.7843  0.2486  0.1595
  519MOL0     H68489   6.930   2.189   8.333 -2.3559 -2.6459  0.0312
  519MOL0     H68490   6.070   2.619   7.871 -1.4847  3.6275 -1.3019
  519MOL0     H68491   6.149   2.836   7.760  3.9141  1.4468 -2.6639
  519MOL0     H68492   6.571   3.125   7.846 -0.3026  0.7985  0.0373
  519MOL0     H68493   6.734   3.294   7.756  1.3521 -1.9271 -1.8153
  519MOL0     H68494   5.762   4.247   8.418 -0.3277  0.4053 -1.4385
  519MOL0     H68495   5.608   4.098   8.515 -0.1609 -1.5441  0.8135
  519MOL0     H68496   5.589   3.590   8.639  0.3576 -0.8734  0.7265
  519MOL0     H68497   5.460   3.399   8.692  0.1435 -1.3282 -0.7101
  519MOL0     H68498   5.293   3.180   8.699 -5.7050 -1.2348  0.6003
  519MOL0     H68499   5.376   3.229   8.546 -0.2516 -2.3666 -1.6528
  519MOL0     H68500   5.113   3.155   8.462 -0.0768 -0.7501  0.0063
  519MOL0     H68501   5.251   3.056   8.448 -1.5666 -2.1488  0.0025
  519MOL0     H68502   5.209   2.945   8.662  2.4354  1.4727 -0.1037
  519MOL0     H68503   5.099   2.942   8.526  1.0212  1.2154  0.1000
  519MOL0     H68504   5.054   3.048   8.793  0.3110  0.7170 -1.5655
  519MOL0     H68505   4.970   3.126   8.657 -0.3375 -0.3900  0.0353
  519MOL0     H68506   4.791   2.741   8.622  2.4622 -3.3972  1.1654
  519MOL0     H68507   5.128   3.535   8.475 -0.3208  1.5797  0.7836
  519MOL0     H68508   5.248   3.773   8.454  2.4406 -0.3941 -1.7988
  520MOL0     O68509   2.668   8.808   7.342 -0.6486  0.0330  0.4947
  520MOL0     C68510   2.601   8.913   7.348 -0.1754  0.3858  0.1405
  520MOL0     O68511   2.648   9.044   7.337  0.3734  0.8243 -0.6894
  520MOL0     C68512   2.775   9.084   7.309 -0.3190 -0.5418  0.1414
  520MOL0     C68513   2.878   8.998   7.273  0.0029  0.7412 -0.5521
  520MOL0     C68514   2.998   9.062   7.252 -0.0590 -0.2813 -0.7423
  520MOL0     C68515   3.019   9.204   7.276  0.3110 -0.2801  0.4145
  520MOL0     O68516   3.137   9.275   7.252  1.0979  0.2055  0.6734
  520MOL0     C68517   3.262   9.211   7.235 -0.4830 -0.5550 -1.0281
  520MOL0     C68518   3.377   9.317   7.250 -0.0592  0.0464  0.0297
  520MOL0     C68519   3.391   9.404   7.128 -0.3682  1.0684  0.3947
  520MOL0     C68520   3.499   9.501   7.124 -0.4526 -1.2801 -0.1730
  520MOL0     C68521   3.485   9.614   7.030  0.1019  0.3287 -0.2752
  520MOL0     C68522   3.607   9.701   7.028  0.9349  0.4128 -1.1122
  520MOL0     C68523   3.613   9.808   6.921  0.7603  0.2706 -0.2047
  520MOL0     C68524   3.588   9.753   6.779 -0.2279  0.8649  0.2667
  520MOL0     N68525   3.616   9.858   6.673 -0.0307  0.0982  0.2796
  520MOL0     C68526   3.736   9.881   6.625  0.3781 -0.3593 -0.2071
  520MOL0     C68527   3.720   9.953   6.514 -0.6472 -0.0124 -0.1080
  520MOL0     C68528   3.820   9.995   6.409 -0.2774  0.4431  0.5869
  520MOL0     C68529   3.835  10.150   6.398 -0.2525 -0.0608 -0.4069
  520MOL0     C68530   3.730  10.229   6.322  0.0503 -0.1640  0.1261
  520MOL0     C68531   3.738  10.376   6.309 -1.1760  0.6336 -0.0212
  520MOL0     O68532   3.843  10.412   6.225  0.0662 -0.6275 -0.0997
  520MOL0     C68533   3.886  10.546   6.243 -0.1762  0.4221 -0.4021
  520MOL0     C68534   3.820  10.631   6.164  0.0754 -0.9369  0.3493
  520MOL0     C68535   3.852  10.767   6.157  0.6234 -0.4863 -0.3671
  520MOL0     C68536   3.940  10.825   6.247 -0.3934 -1.0614 -0.0080
  520MOL0     C68537   3.972  10.972   6.253 -0.9248  0.1847 -0.1596
  520MOL0     O68538   4.053  11.017   6.352  0.2390 -0.0273 -0.4769
  520MOL0     C68539   4.072  11.151   6.390 -0.4812  0.7517 -0.5276
  520MOL0     C68540   4.079  11.192   6.526  0.4848 -0.8224  0.7298
  520MOL0     C68541   4.130  11.325   6.566  0.7471  0.0399  0.2985
  520MOL0     C68542   4.157  11.422   6.463  1.0688  0.2411  0.1816
  520MOL0     O68543   4.189  11.556   6.469 -0.1839  1.4407 -0.5579
  520MOL0     C68544   4.230  11.603   6.594  0.5951  0.7549  0.1591
  520MOL0     C68545   4.318  11.726   6.583 -0.0663 -0.2042  0.1438
  520MOL0     C68546   4.376  11.788   6.709 -0.5652 -0.2679 -0.1386
  520MOL0     C68547   4.507  11.862   6.693  0.7157 -0.0646 -0.7182
  520MOL0     C68548   4.530  11.969   6.803  0.0825  0.7410  0.2100
  520MOL0     C68549   4.586  12.101   6.758 -0.1884  0.5001 -0.6469
  520MOL0     C68550   4.721  12.095   6.688 -0.2352  0.0052 -0.8091
  520MOL0     C68551   4.744  12.221   6.607  0.2038 -0.7613 -0.7662
  520MOL0    Cl68552   4.895  12.200   6.522  0.1807  0.3159 -0.1894
  520MOL0     C68553   4.129  11.378   6.330 -0.5854 -0.4231 -0.5236
  520MOL0     C68554   4.091  11.256   6.295 -0.6683  0.7485 -0.0325
  520MOL0     O68555   3.938  11.034   6.152 -1.0961 -0.1407  0.1531
  520MOL0     C68556   3.996  10.736   6.342 -1.3115 -0.0945  0.1096
  520MOL0     C68557   3.980  10.599   6.327  0.0200  1.3124  0.9798
  520MOL0     N68558   3.579   9.974   6.509  0.2042 -0.3245  0.5980
  520MOL0     N68559   3.523   9.916   6.601 -0.5096  0.4362 -0.4271
  520MOL0     C68560   2.913   9.282   7.319  0.2835 -0.5804  0.3553
  520MOL0     C68561   2.793   9.220   7.333  0.3822 -0.4330 -0.5418
  520MOL0     C68562   2.454   8.904   7.358 -0.1975  0.7264  1.1083
  520MOL0     C68563   2.391   8.784   7.395 -1.5887 -0.0816 -0.1542
  520MOL0     C68564   2.256   8.768   7.393  0.2213  0.0455 -0.0023
  520MOL0     C68565   2.179   8.881   7.360 -0.0522 -0.0702  0.0717
  520MOL0     O68566   2.036   8.876   7.350 -0.0236 -0.5564 -0.5000
  520MOL0     C68567   1.988   8.784   7.253  0.0197  0.1608 -0.1884
  520MOL0     C68568   1.843   8.761   7.276  0.5365  0.8687 -0.3144
  520MOL0     C68569   1.793   8.623   7.213  0.3109 -0.6705 -0.2663
  520MOL0     C68570   1.643   8.611   7.206 -0.0549 -0.3118  0.4167
  520MOL0     C68571   1.602   8.485   7.142  0.7081  0.9189  0.5637
  520MOL0     C68572   1.579   8.380   7.087  0.3454 -0.4225  0.2043
  520MOL0     C68573   2.246   8.998   7.344 -0.0507 -1.3772  0.1981
  520MOL0     C68574   2.378   9.019   7.336 -0.0743 -0.0381 -0.0531
  520MOL0     H68575   2.852   8.899   7.236 -0.5227  2.0378 -3.9981
  520MOL0     H68576   3.086   9.003   7.228  0.4999 -1.4275  3.3745
  520MOL0     H68577   3.278   9.135   7.157 -2.2395  1.1544 -3.1830
  520MOL0     H68578   3.269   9.145   7.322 -0.8645  0.2605 -0.3648
  520MOL0     H68579   3.473   9.272   7.277  0.5090 -0.2083 -2.2171
  520MOL0     H68580   3.367   9.387   7.333 -1.2739  1.0168 -0.8870
  520MOL0     H68581   3.292   9.449   7.113 -2.0167 -2.3425  0.1067
  520MOL0     H68582   3.405   9.333   7.046 -3.9676 -1.2208  1.5351
  520MOL0     H68583   3.512   9.547   7.223  0.2994 -3.1564  0.6411
  520MOL0     H68584   3.587   9.443   7.094  0.3883 -1.7840  2.9161
  520MOL0     H68585   3.392   9.668   7.052 -0.8757 -0.8759 -1.2566
  520MOL0     H68586   3.467   9.572   6.930 -0.0543 -2.1802  0.7324
  520MOL0     H68587   3.707   9.657   7.021 -0.1031 -2.3339 -0.0668
  520MOL0     H68588   3.598   9.763   7.117 -1.5005 -1.7405  0.3000
  520MOL0     H68589   3.534   9.880   6.944 -0.5988 -0.9891 -0.7395
  520MOL0     H68590   3.710   9.859   6.923 -0.4153  2.6052  2.5377
  520MOL0     H68591   3.493   9.702   6.760  1.5674 -3.0567  0.9309
  520MOL0     H68592   3.659   9.673   6.755 -3.4656 -2.6753  1.4137
  520MOL0     H68593   3.828   9.842   6.668 -0.8150 -0.5602  2.3856
  520MOL0     H68594   3.780   9.969   6.311 -1.0280  1.4437  0.6116
  520MOL0     H68595   3.910   9.936   6.429 -0.4769 -0.3020 -0.6235
  520MOL0     H68596   3.926  10.174   6.341 -1.1434  1.4545 -1.2408
  520MOL0     H68597   3.847  10.171   6.504  1.7493  1.0788 -0.7954
  520MOL0     H68598   3.731  10.191   6.219 -1.6534  2.4652 -0.9669
  520MOL0     H68599   3.637  10.212   6.376  0.9422  0.4116  1.9292
  520MOL0     H68600   3.748  10.421   6.408 -1.6791 -0.9229  0.7645
  520MOL0     H68601   3.653  10.425   6.260 -0.7319  1.6033  0.1524
  520MOL0     H68602   3.747  10.586   6.097  1.9901 -2.1476 -1.0430
  520MOL0     H68603   3.811  10.848   6.098  1.0018  2.2134  2.8318
  520MOL0     H68604   4.040  11.126   6.603 -0.7752 -0.6728  0.2539
  520MOL0     H68605   4.136  11.346   6.672 -1.9588 -0.7243  0.6803
  520MOL0     H68606   4.291  11.526   6.642  3.6840  2.6536 -0.4287
  520MOL0     H68607   4.148  11.625   6.662  0.8295  1.6449  0.1663
  520MOL0     H68608   4.272  11.806   6.525 -0.3222 -0.8064 -0.5064
  520MOL0     H68609   4.401  11.681   6.526  0.6386  2.9864 -1.6333
  520MOL0     H68610   4.391  11.710   6.783  1.0189 -0.1837 -0.3427
  520MOL0     H68611   4.310  11.864   6.752  2.0121  2.0819 -0.0497
  520MOL0     H68612   4.588  11.790   6.704  3.7030  3.1559  0.0239
  520MOL0     H68613   4.500  11.898   6.590 -2.3093 -0.0288 -0.5961
  520MOL0     H68614   4.606  11.929   6.870  1.5234  0.1052 -1.6854
  520MOL0     H68615   4.440  11.993   6.858  1.2316 -0.7931  2.9459
  520MOL0     H68616   4.601  12.159   6.849 -0.5353  2.2954 -1.6757
  520MOL0     H68617   4.516  12.146   6.686  1.1752 -1.0866 -3.1304
  520MOL0     H68618   4.799  12.058   6.754 -0.4190  4.0199  2.0048
  520MOL0     H68619   4.705  12.022   6.609 -0.4689  2.1633 -2.8758
  520MOL0     H68620   4.766  12.307   6.671  0.3367 -0.5289 -1.1208
  520MOL0     H68621   4.672  12.256   6.533 -0.1719  1.2440  0.4413
  520MOL0     H68622   4.145  11.448   6.249  0.3664  0.8339  0.7107
  520MOL0     H68623   4.066  11.226   6.193 -1.2269 -1.6656  0.7565
  520MOL0     H68624   4.063  10.765   6.423 -1.1423 -1.5449  0.5323
  520MOL0     H68625   4.048  10.533   6.381 -0.3745 -1.4514 -1.6690
  520MOL0     H68626   2.924   9.387   7.295  1.5601 -1.7025 -5.9987
  520MOL0     H68627   2.711   9.280   7.369  0.8104  0.8515 -1.6427
  520MOL0     H68628   2.456   8.699   7.409  2.1794  1.9246 -3.5328
  520MOL0     H68629   2.207   8.674   7.416  0.5661 -0.1229  0.0539
  520MOL0     H68630   2.040   8.689   7.260 -3.2363 -1.7683 -0.2451
  520MOL0     H68631   2.007   8.822   7.152 -1.7298  3.1294  0.4587
  520MOL0     H68632   1.818   8.756   7.382  2.6324  0.7908  0.2105
  520MOL0     H68633   1.795   8.848   7.229  0.8886  1.3869  0.2771
  520MOL0     H68634   1.843   8.539   7.263  1.0556 -0.2885 -0.3589
  520MOL0     H68635   1.840   8.634   7.115 -0.4938  2.2526 -0.4078
  520MOL0     H68636   1.592   8.609   7.303 -1.8138  0.2938 -0.4433
  520MOL0     H68637   1.599   8.697   7.155 -1.4420 -0.1910  1.7361
  520MOL0     H68638   1.564   8.292   7.027 -2.1390  0.0481  0.0453
  520MOL0     H68639   2.186   9.086   7.322  0.1373 -1.0961  0.7789
  520MOL0     H68640   2.421   9.116   7.313  1.5157  0.0512  2.8123
  521MOL0     O68641   8.705   4.903   7.663  0.4525 -0.3953 -0.8094
  521MOL0     C68642   8.728   4.860   7.553 -1.2428  1.3822 -0.5913
  521MOL0     O68643   8.845   4.884   7.486  0.1263  0.1194 -0.5333
  521MOL0     C68644   8.935   4.962   7.548 -1.0773  0.3995 -0.8214
  521MOL0     C68645   8.911   5.098   7.587 -0.3455  0.6750 -0.7294
  521MOL0     C68646   9.007   5.171   7.655 -0.4174  0.5180 -0.0425
  521MOL0     C68647   9.126   5.110   7.697  0.0482 -0.0709  0.6857
  521MOL0     O68648   9.219   5.177   7.776 -0.2095  0.0066 -0.2589
  521MOL0     C68649   9.244   5.316   7.752  1.0890 -0.1780 -0.5343
  521MOL0     C68650   9.397   5.330   7.785 -0.0128 -0.6396  0.0541
  521MOL0     C68651   9.438   5.479   7.774 -0.7715  0.8971 -0.1227
  521MOL0     C68652   9.586   5.497   7.810  0.2980 -0.6009  0.5032
  521MOL0     C68653   9.684   5.504   7.692  0.3703  0.3691  0.5925
  521MOL0     C68654   9.672   5.634   7.617  0.0513 -0.2540  0.0264
  521MOL0     C68655   9.791   5.649   7.518  0.1518 -0.6115  0.2352
  521MOL0     C68656   9.899   5.728   7.587  0.4479 -0.2126  0.1571
  521MOL0     N68657  10.031   5.682   7.550  0.3533 -0.3374  0.0846
  521MOL0     C68658  10.140   5.765   7.558 -0.0996  0.0569 -0.7223
  521MOL0     C68659  10.242   5.704   7.484  0.9018  0.0430  0.3131
  521MOL0     C68660  10.376   5.743   7.436  0.5660 -0.2798  0.6488
  521MOL0     C68661  10.465   5.611   7.421  0.1190 -0.1078 -0.7457
  521MOL0     C68662  10.525   5.566   7.552  0.9061 -0.6780 -0.5258
  521MOL0     C68663  10.422   5.541   7.668  0.3654  0.0505 -0.9426
  521MOL0     O68664  10.467   5.465   7.775  0.6127 -0.3615 -0.4852
  521MOL0     C68665  10.480   5.332   7.777 -0.3845 -0.3664  0.2027
  521MOL0     C68666  10.612   5.278   7.779 -0.2793 -0.0075 -0.9338
  521MOL0     C68667  10.634   5.139   7.791 -0.4261 -0.0954  0.7745
  521MOL0     C68668  10.523   5.046   7.790 -0.5851 -0.0506  0.3435
  521MOL0     C68669  10.542   4.897   7.810  0.0382  0.5808 -0.5085
  521MOL0     O68670  10.675   4.860   7.787  0.2977 -0.5103 -0.0619
  521MOL0     C68671  10.719   4.738   7.814  0.5075  0.1980 -0.0377
  521MOL0     C68672  10.849   4.740   7.855  0.1485  0.1156  0.5912
  521MOL0     C68673  10.904   4.621   7.893  0.5602 -0.1109  0.8204
  521MOL0     C68674  10.845   4.494   7.886  0.1346  1.1644 -0.1788
  521MOL0     O68675  10.896   4.369   7.917 -0.1393 -0.9053  0.0245
  521MOL0     C68676  11.032   4.369   7.955 -0.5535 -0.1856  0.0304
  521MOL0     C68677  11.056   4.368   8.105 -1.1664  0.6899 -0.2357
  521MOL0     C68678  11.060   4.222   8.162  0.4505 -0.6554 -0.6674
  521MOL0     C68679  10.945   4.129   8.119 -0.2719 -0.5763 -0.0225
  521MOL0     C68680  10.974   3.987   8.155  0.2379  1.2688  0.0136
  521MOL0     C68681  10.856   3.892   8.138  0.5678 -0.7023 -0.1649
  521MOL0     C68682  10.898   3.755   8.181 -0.3037  0.8784  0.2769
  521MOL0     C68683  10.798   3.651   8.135 -0.4827  0.2699  0.1619
  521MOL0    Cl68684  10.795   3.538   8.272 -0.3153  0.0094  0.5090
  521MOL0     C68685  10.711   4.495   7.833 -0.0245 -0.1345 -0.3097
  521MOL0     C68686  10.650   4.618   7.806 -1.0065 -0.1489 -0.4537
  521MOL0     O68687  10.447   4.826   7.844  0.8565 -0.0147 -0.4212
  521MOL0     C68688  10.393   5.102   7.778 -0.0074  0.9654  0.8460
  521MOL0     C68689  10.372   5.244   7.778 -0.4408 -0.5513  0.7260
  521MOL0     N68690  10.182   5.582   7.439 -0.3693 -0.3614  0.3939
  521MOL0     N68691  10.055   5.578   7.468 -0.2855  0.5962 -0.0288
  521MOL0     C68692   9.139   4.969   7.675  0.0339 -0.4499 -0.1913
  521MOL0     C68693   9.048   4.897   7.598 -1.2856  0.5119  0.6910
  521MOL0     C68694   8.621   4.775   7.484  0.3590 -0.6148 -0.7234
  521MOL0     C68695   8.640   4.694   7.368  1.0951 -0.1806 -0.1514
  521MOL0     C68696   8.544   4.608   7.330  0.3946 -1.1052  0.6407
  521MOL0     C68697   8.423   4.593   7.403 -0.1754  0.1263 -0.1234
  521MOL0     O68698   8.314   4.520   7.358 -0.2082 -0.0016 -0.8251
  521MOL0     C68699   8.327   4.426   7.255 -1.2335  0.0351  1.0370
  521MOL0     C68700   8.198   4.342   7.235 -0.0385 -0.1773  0.5098
  521MOL0     C68701   8.222   4.249   7.118  0.2296 -0.0632  0.3592
  521MOL0     C68702   8.111   4.146   7.096 -0.1022 -0.1962 -0.1575
  521MOL0     C68703   7.978   4.200   7.079 -0.1363  0.8450  0.0853
  521MOL0     C68704   7.877   4.254   7.052  0.1781  0.1160  0.2676
  521MOL0     C68705   8.393   4.687   7.502 -0.0877  0.5586  0.2161
  521MOL0     C68706   8.496   4.776   7.545 -0.4101 -0.1362 -0.2289
  521MOL0     H68707   8.820   5.145   7.552 -1.6988 -1.4846 -0.3030
  521MOL0     H68708   8.980   5.273   7.677  0.7303  0.9639 -0.5971
  521MOL0     H68709   9.172   5.379   7.805  1.1892  1.0372 -1.7586
  521MOL0     H68710   9.219   5.350   7.651 -1.4972  3.0185  0.9917
  521MOL0     H68711   9.448   5.276   7.705 -1.5975  0.4276 -1.7444
  521MOL0     H68712   9.421   5.283   7.881  2.2878  3.0995  1.5668
  521MOL0     H68713   9.377   5.547   7.833  0.9836  2.2274  0.2534
  521MOL0     H68714   9.424   5.520   7.674  2.5261  0.1052 -1.0434
  521MOL0     H68715   9.597   5.586   7.872  1.5252  1.3454 -2.3233
  521MOL0     H68716   9.606   5.412   7.876 -1.5442  0.0177  1.9433
  521MOL0     H68717   9.675   5.418   7.625  1.5344  0.2111  0.6307
  521MOL0     H68718   9.784   5.490   7.735  1.2094 -1.3300 -1.7083
  521MOL0     H68719   9.662   5.730   7.669 -0.2365  1.8711 -3.6299
  521MOL0     H68720   9.578   5.638   7.561 -0.1574  2.6816  0.4245
  521MOL0     H68721   9.814   5.547   7.488 -1.0600 -0.9559  0.4363
  521MOL0     H68722   9.770   5.704   7.425 -1.1353 -1.4750 -0.0072
  521MOL0     H68723   9.898   5.735   7.696  0.7755 -0.7544  0.1996
  521MOL0     H68724   9.893   5.834   7.563 -1.4580  0.1921  2.0615
  521MOL0     H68725  10.152   5.850   7.625  0.7755 -1.1239  0.6842
  521MOL0     H68726  10.423   5.801   7.515  1.9032  1.4565 -1.3026
  521MOL0     H68727  10.372   5.793   7.339  1.8947 -0.8292  0.2787
  521MOL0     H68728  10.540   5.621   7.341  1.8273 -3.2302  0.2680
  521MOL0     H68729  10.416   5.520   7.386 -2.6851 -0.2695  2.9452
  521MOL0     H68730  10.569   5.468   7.531  0.8358 -1.3083  1.9953
  521MOL0     H68731  10.602   5.635   7.588  1.0089  0.7145 -3.1629
  521MOL0     H68732  10.335   5.489   7.626  0.0994 -0.7855  0.5656
  521MOL0     H68733  10.391   5.634   7.716  2.0645  0.1019  0.1465
  521MOL0     H68734  10.694   5.350   7.777 -1.8838  1.9075 -0.6741
  521MOL0     H68735  10.738   5.107   7.789  0.3532  2.1437 -2.8872
  521MOL0     H68736  10.904   4.833   7.857  0.7623 -0.2549  1.0891
  521MOL0     H68737  11.005   4.621   7.933  0.5470 -5.0634  1.5053
  521MOL0     H68738  11.095   4.447   7.910 -1.4735  0.3590 -0.3460
  521MOL0     H68739  11.084   4.278   7.923  1.0171  0.9615 -0.8083
  521MOL0     H68740  10.983   4.429   8.158 -1.1050 -0.4258  1.2126
  521MOL0     H68741  11.154   4.410   8.130  0.5405 -3.0516  0.1101
  521MOL0     H68742  11.081   4.227   8.269 -0.4424 -0.3992 -0.4899
  521MOL0     H68743  11.153   4.182   8.121  0.5781  0.3073 -1.3382
  521MOL0     H68744  10.854   4.162   8.170 -0.0770 -2.0860  1.4312
  521MOL0     H68745  10.912   4.137   8.015  0.3583  0.1685 -0.1704
  521MOL0     H68746  11.031   3.977   8.248  2.2583  2.8689 -0.9845
  521MOL0     H68747  11.045   3.958   8.077 -1.1893  1.2435 -1.3341
  521MOL0     H68748  10.820   3.897   8.035  0.6570 -2.3206 -0.3016
  521MOL0     H68749  10.776   3.925   8.205  0.3865  0.0887 -0.7598
  521MOL0     H68750  10.996   3.730   8.138 -1.3874 -0.2086 -1.7197
  521MOL0     H68751  10.896   3.761   8.290 -2.8634 -1.2685  0.4611
  521MOL0     H68752  10.826   3.605   8.040 -1.6271  2.3841 -1.2812
  521MOL0     H68753  10.702   3.705   8.129  0.1340  1.3513 -0.2957
  521MOL0     H68754  10.649   4.409   7.809  0.1475 -0.4305  0.2727
  521MOL0     H68755  10.559   4.617   7.747 -0.1207 -0.3820 -1.8739
  521MOL0     H68756  10.305   5.037   7.779  0.9620 -0.3951  0.9376
  521MOL0     H68757  10.274   5.290   7.773  0.4752  1.4439 -3.3762
  521MOL0     H68758   9.227   4.921   7.717 -1.7628 -1.2660  3.0050
  521MOL0     H68759   9.063   4.796   7.561  0.8021  0.1059  2.4967
  521MOL0     H68760   8.734   4.683   7.314  0.4522 -3.5315 -0.7829
  521MOL0     H68761   8.577   4.548   7.245 -0.3791 -0.2173 -0.3146
  521MOL0     H68762   8.409   4.361   7.286  1.1609  1.3441 -2.0037
  521MOL0     H68763   8.358   4.459   7.155  0.1277 -1.4763  0.9304
  521MOL0     H68764   8.163   4.301   7.331 -1.7283  3.3231  1.5418
  521MOL0     H68765   8.120   4.410   7.200  1.6032  2.3070  1.3836
  521MOL0     H68766   8.316   4.194   7.127 -0.9521 -2.1114  0.9556
  521MOL0     H68767   8.233   4.317   7.033  1.6069 -1.0046 -0.2559
  521MOL0     H68768   8.137   4.087   7.008  2.6000  1.2204 -0.4243
  521MOL0     H68769   8.115   4.081   7.184 -1.4394 -0.6733 -0.4247
  521MOL0     H68770   7.778   4.290   7.038  0.2437 -0.2221 -1.2588
  521MOL0     H68771   8.295   4.690   7.547 -0.2183  2.5087 -0.0774
  521MOL0     H68772   8.465   4.833   7.632 -5.0552  1.8178 -2.8097
  522MOL0     O68773   6.315   8.938   4.899 -0.3393 -0.1929  1.0154
  522MOL0     C68774   6.406   9.021   4.899 -0.5504 -0.0602 -2.0348
  522MOL0     O68775   6.513   9.033   4.803  0.2265  0.0850 -0.1623
  522MOL0     C68776   6.512   8.957   4.690 -0.2297 -0.0943  0.1373
  522MOL0     C68777   6.402   8.948   4.607 -0.3156  0.2061 -0.2315
  522MOL0     C68778   6.407   8.873   4.490  1.6374 -0.6188  0.4924
  522MOL0     C68779   6.528   8.813   4.451  1.2634 -0.3037 -0.5929
  522MOL0     O68780   6.523   8.745   4.333 -0.7826 -0.1912  0.1949
  522MOL0     C68781   6.645   8.759   4.247  0.2036  0.7265 -0.6938
  522MOL0     C68782   6.599   8.703   4.112 -0.6427  0.2318  0.4774
  522MOL0     C68783   6.517   8.806   4.034 -0.0180  0.0971 -0.0333
  522MOL0     C68784   6.530   8.794   3.880 -0.0104  0.6787 -0.4052
  522MOL0     C68785   6.428   8.894   3.820  0.4086 -0.9285  0.0300
  522MOL0     C68786   6.418   8.873   3.670  0.0075 -0.3636 -0.0506
  522MOL0     C68787   6.358   8.978   3.583 -0.6077 -1.4882  0.2101
  522MOL0     C68788   6.229   9.025   3.626 -0.4861 -0.8472 -0.3775
  522MOL0     N68789   6.229   9.114   3.748 -0.1892 -0.4082  0.9568
  522MOL0     C68790   6.158   9.082   3.860  0.8983  0.4292  0.0914
  522MOL0     C68791   6.199   9.177   3.950 -0.1048 -0.0982  0.5329
  522MOL0     C68792   6.166   9.177   4.094  0.1697 -0.0626 -0.6576
  522MOL0     C68793   6.251   9.064   4.157 -1.0719  0.1132 -0.3332
  522MOL0     C68794   6.361   9.125   4.244  0.4314 -0.2147 -0.0684
  522MOL0     C68795   6.449   9.207   4.156 -0.6605 -0.8802  0.3770
  522MOL0     O68796   6.559   9.244   4.248  0.4251  0.0639  0.9856
  522MOL0     C68797   6.641   9.351   4.217 -0.1931  0.0252 -0.1968
  522MOL0     C68798   6.730   9.397   4.318 -0.3906  0.9538  0.2892
  522MOL0     C68799   6.816   9.495   4.303  0.7763 -1.3639 -0.5285
  522MOL0     C68800   6.813   9.572   4.182  0.0945  1.0849 -0.2698
  522MOL0     C68801   6.914   9.676   4.155 -0.7071  0.5983 -0.1760
  522MOL0     O68802   6.923   9.722   4.022  0.0934  0.5270 -0.6010
  522MOL0     C68803   7.022   9.802   3.985  0.0006 -1.6470  0.3376
  522MOL0     C68804   7.124   9.772   3.886  0.1809 -0.4208 -0.7545
  522MOL0     C68805   7.224   9.869   3.853 -0.2864  0.4915  0.0458
  522MOL0     C68806   7.229   9.995   3.909 -0.2002 -1.2384 -0.4164
  522MOL0     O68807   7.328  10.088   3.867  0.4165 -0.2279 -0.4301
  522MOL0     C68808   7.292  10.223   3.881  0.3367 -0.8083  0.1553
  522MOL0     C68809   7.331  10.304   3.755  0.0762 -0.9099  0.1867
  522MOL0     C68810   7.259  10.438   3.758 -0.2454 -0.9978  0.6695
  522MOL0     C68811   7.106  10.451   3.765  1.0017 -0.2617  0.2792
  522MOL0     C68812   7.031  10.338   3.692  0.7950 -0.3551 -0.0947
  522MOL0     C68813   6.891  10.309   3.754 -0.2078  0.1645 -0.7512
  522MOL0     C68814   6.815  10.214   3.666  0.3093 -0.4803  0.4096
  522MOL0     C68815   6.667  10.211   3.709 -0.7892  0.2000 -0.0471
  522MOL0    Cl68816   6.667  10.067   3.828 -0.4161 -0.2626 -0.3309
  522MOL0     C68817   7.129  10.023   3.995  0.9782 -0.9608 -0.0111
  522MOL0     C68818   7.030   9.932   4.038  0.7827  0.8052  0.2326
  522MOL0     O68819   6.993   9.702   4.242  0.6594  0.0798 -0.6771
  522MOL0     C68820   6.722   9.535   4.077 -0.9146 -0.6043  0.9263
  522MOL0     C68821   6.647   9.416   4.089 -0.0686 -0.2488 -0.3301
  522MOL0     N68822   6.287   9.265   3.891 -0.0466 -1.1468 -0.5284
  522MOL0     N68823   6.313   9.222   3.771 -1.0343 -0.3199 -0.3842
  522MOL0     C68824   6.634   8.824   4.538 -1.3664 -0.5204 -0.5261
  522MOL0     C68825   6.630   8.898   4.655 -0.8680  0.1467 -0.4282
  522MOL0     C68826   6.434   9.096   5.028  0.2489  0.2682 -0.2671
  522MOL0     C68827   6.557   9.164   5.039 -0.3459 -0.1257  0.3372
  522MOL0     C68828   6.591   9.222   5.155  0.2155  0.5498 -0.9790
  522MOL0     C68829   6.513   9.217   5.270 -0.3289 -0.5006 -1.0822
  522MOL0     O68830   6.557   9.274   5.384 -1.1811 -0.3283  0.6954
  522MOL0     C68831   6.448   9.295   5.478 -0.2216  0.9219 -0.9907
  522MOL0     C68832   6.511   9.404   5.572  0.4506  0.6519 -0.0277
  522MOL0     C68833   6.609   9.339   5.669 -0.4588 -0.8140 -0.1214
  522MOL0     C68834   6.641   9.432   5.786  0.2934 -0.7884  0.1527
  522MOL0     C68835   6.658   9.571   5.745  0.4037 -0.3021 -0.0546
  522MOL0     C68836   6.675   9.677   5.692 -0.1079  0.3293 -0.3837
  522MOL0     C68837   6.385   9.163   5.258 -0.4952 -0.0491 -0.0420
  522MOL0     C68838   6.347   9.106   5.128  0.0908 -1.3216 -0.6530
  522MOL0     H68839   6.312   9.007   4.625  0.2408  1.8928 -2.4232
  522MOL0     H68840   6.322   8.871   4.423  2.0570 -4.4850 -0.1712
  522MOL0     H68841   6.722   8.698   4.294  0.9915  2.7236  0.7586
  522MOL0     H68842   6.685   8.861   4.248  0.4140  0.6862 -2.5293
  522MOL0     H68843   6.545   8.610   4.129  0.9715 -1.2402 -1.9455
  522MOL0     H68844   6.693   8.688   4.058  0.6862 -0.1080  2.7426
  522MOL0     H68845   6.557   8.907   4.044  2.4770 -0.8707  0.3483
  522MOL0     H68846   6.415   8.813   4.073  1.0397  0.5196  2.9431
  522MOL0     H68847   6.626   8.821   3.834  0.7277 -1.5305 -0.2699
  522MOL0     H68848   6.509   8.690   3.854  2.3875 -0.0043  0.0972
  522MOL0     H68849   6.456   8.994   3.854  1.2027 -1.1010 -0.0943
  522MOL0     H68850   6.334   8.885   3.876  0.8514  0.7987  1.1633
  522MOL0     H68851   6.404   8.767   3.646  4.5789 -0.9109 -1.2776
  522MOL0     H68852   6.522   8.884   3.637 -0.5704  1.8357 -1.2862
  522MOL0     H68853   6.423   9.065   3.570 -1.2420 -0.8975  0.9043
  522MOL0     H68854   6.341   8.941   3.482  2.0590 -2.0322 -0.1164
  522MOL0     H68855   6.155   8.945   3.630 -2.6538  1.0578  1.3271
  522MOL0     H68856   6.189   9.101   3.558  1.3895  0.3807 -0.1829
  522MOL0     H68857   6.108   8.987   3.870  1.4200  0.1822  0.4163
  522MOL0     H68858   6.059   9.157   4.096  0.2555 -0.5346 -0.5797
  522MOL0     H68859   6.194   9.268   4.148 -0.1363 -1.0323  1.2309
  522MOL0     H68860   6.288   8.992   4.083  1.5251  1.7785 -0.7895
  522MOL0     H68861   6.181   9.018   4.227 -0.3039 -3.2567 -1.6045
  522MOL0     H68862   6.306   9.182   4.320 -2.2303 -2.1247 -0.4062
  522MOL0     H68863   6.416   9.055   4.308 -1.3837 -1.2672  0.4002
  522MOL0     H68864   6.397   9.298   4.124  2.6726  0.1783 -2.6401
  522MOL0     H68865   6.505   9.157   4.076 -3.5103 -2.4233 -0.7975
  522MOL0     H68866   6.728   9.330   4.404 -1.7094 -1.8685 -1.7834
  522MOL0     H68867   6.883   9.509   4.387 -0.4778 -1.0432  0.4347
  522MOL0     H68868   7.135   9.673   3.844  1.5133 -0.0292 -1.3777
  522MOL0     H68869   7.296   9.836   3.779 -0.9615  1.0991 -0.9126
  522MOL0     H68870   7.334  10.265   3.973 -0.7546  1.3464 -0.2668
  522MOL0     H68871   7.185  10.227   3.899  0.7244 -1.0040  2.9032
  522MOL0     H68872   7.306  10.261   3.658 -0.1671  0.3840 -0.3467
  522MOL0     H68873   7.438  10.321   3.742 -0.3569  4.1663  1.2129
  522MOL0     H68874   7.284  10.483   3.662  0.5563 -5.5105 -1.5050
  522MOL0     H68875   7.317  10.490   3.835 -2.1787 -1.1742  2.3162
  522MOL0     H68876   7.064  10.447   3.866 -0.1119 -1.4906 -0.2132
  522MOL0     H68877   7.062  10.545   3.729  0.0117 -1.0025 -0.4696
  522MOL0     H68878   7.084  10.244   3.708 -3.5580 -2.6165  3.0555
  522MOL0     H68879   7.020  10.359   3.585  0.9033 -0.0732 -0.0525
  522MOL0     H68880   6.826  10.397   3.763 -1.0901 -0.5801  0.4337
  522MOL0     H68881   6.900  10.285   3.861  1.6224  1.3159 -0.6017
  522MOL0     H68882   6.819  10.243   3.561  0.0266  1.3882  0.8814
  522MOL0     H68883   6.851  10.111   3.663  0.8435 -0.2765 -1.4874
  522MOL0     H68884   6.601  10.195   3.624  0.5973 -0.0504 -1.1162
  522MOL0     H68885   6.640  10.302   3.764 -0.7878  0.0168  0.2588
  522MOL0     H68886   7.108  10.120   4.039 -0.9925 -2.1792  1.9728
  522MOL0     H68887   6.949   9.956   4.106  0.7094 -0.7669  0.7449
  522MOL0     H68888   6.714   9.597   3.989  1.1472 -0.9205  0.4580
  522MOL0     H68889   6.591   9.391   3.999 -1.4937  1.1908  0.1087
  522MOL0     H68890   6.735   8.788   4.524 -0.6701  1.0148  0.2575
  522MOL0     H68891   6.711   8.915   4.724 -2.4751 -0.6718  1.7810
  522MOL0     H68892   6.636   9.161   4.965 -1.7224  1.9218 -1.3377
  522MOL0     H68893   6.695   9.249   5.163  1.2897 -2.9946 -1.2769
  522MOL0     H68894   6.415   9.207   5.534  1.3290  1.0257  0.1754
  522MOL0     H68895   6.365   9.345   5.428  1.0569  1.4505 -2.6746
  522MOL0     H68896   6.553   9.487   5.514  0.9868  1.3889  1.3700
  522MOL0     H68897   6.434   9.440   5.641  0.6596  0.8418  0.1099
  522MOL0     H68898   6.706   9.316   5.624  0.9448 -1.5104  2.9465
  522MOL0     H68899   6.582   9.239   5.705  0.8848 -0.6714  1.3999
  522MOL0     H68900   6.552   9.422   5.849 -1.1342 -0.7166 -1.7734
  522MOL0     H68901   6.724   9.392   5.845  1.2534  1.7876  0.7040
  522MOL0     H68902   6.693   9.770   5.643  3.0556  1.5049  2.5944
  522MOL0     H68903   6.319   9.141   5.342  0.1385  0.0161  0.4814
  522MOL0     H68904   6.247   9.065   5.121 -0.4573 -0.2065  0.2264
  523MOL0     O68905   3.117   1.122   6.475 -0.2380  0.4431  0.4208
  523MOL0     C68906   3.080   1.194   6.381 -0.1170 -0.0507  0.6640
  523MOL0     O68907   3.027   1.316   6.388 -0.5687 -0.4497 -0.0644
  523MOL0     C68908   3.029   1.373   6.511  0.0777  0.0676 -0.0856
  523MOL0     C68909   3.098   1.495   6.511  0.6096  0.1605 -0.3429
  523MOL0     C68910   3.106   1.559   6.638  0.7625  0.2519  0.8049
  523MOL0     C68911   3.062   1.498   6.755 -0.4010  1.1127  0.5264
  523MOL0     O68912   3.072   1.559   6.870  0.4759 -0.6142 -0.2096
  523MOL0     C68913   2.985   1.667   6.880  0.2435 -0.2249 -0.2002
  523MOL0     C68914   2.957   1.695   7.028 -0.2088 -0.4336 -0.2843
  523MOL0     C68915   2.868   1.590   7.099 -1.0115 -0.0664  0.2199
  523MOL0     C68916   2.944   1.452   7.136  0.9516 -0.2782 -0.6724
  523MOL0     C68917   3.061   1.487   7.233 -0.5211  0.9383 -0.3632
  523MOL0     C68918   3.110   1.373   7.337  0.5742 -0.2217  0.2172
  523MOL0     C68919   3.245   1.411   7.396 -0.1875  0.2714  0.0040
  523MOL0     C68920   3.305   1.312   7.497  0.4887  0.5183  0.8853
  523MOL0     N68921   3.452   1.310   7.495  1.1397 -0.0674  0.0206
  523MOL0     C68922   3.532   1.257   7.402 -0.6735  0.0062  0.7764
  523MOL0     C68923   3.653   1.288   7.439 -0.3241 -0.0361 -0.3826
  523MOL0     C68924   3.781   1.253   7.367 -0.3538  0.0173  0.1293
  523MOL0     C68925   3.830   1.109   7.385 -0.5224 -0.6220  0.0635
  523MOL0     C68926   3.973   1.095   7.337 -0.3130 -0.1890  0.3503
  523MOL0     C68927   4.069   1.048   7.452  1.0160 -0.3839  0.7590
  523MOL0     O68928   4.184   0.986   7.403 -0.0849 -0.6654 -0.0067
  523MOL0     C68929   4.302   1.045   7.428  0.0417 -0.6594 -0.5094
  523MOL0     C68930   4.376   1.094   7.317 -0.8049  0.0139  0.0001
  523MOL0     C68931   4.501   1.161   7.332 -0.1240  0.0324 -0.6180
  523MOL0     C68932   4.547   1.180   7.463 -0.4505 -0.4172  1.1251
  523MOL0     C68933   4.687   1.219   7.503 -0.2646 -0.1244 -0.2167
  523MOL0     O68934   4.745   1.305   7.411  0.1967  0.6492  0.4443
  523MOL0     C68935   4.871   1.363   7.442  0.2907 -0.9394  0.2957
  523MOL0     C68936   4.978   1.336   7.357 -0.8028  0.7187  0.2439
  523MOL0     C68937   5.105   1.401   7.380  0.5660 -0.4122  1.5212
  523MOL0     C68938   5.120   1.476   7.496 -1.0923  0.7667 -0.0374
  523MOL0     O68939   5.238   1.544   7.506 -0.0551 -0.9167 -0.4874
  523MOL0     C68940   5.269   1.592   7.637 -1.3195  0.0792  0.2263
  523MOL0     C68941   5.411   1.654   7.656  0.2765  0.0129  1.1162
  523MOL0     C68942   5.427   1.771   7.557 -0.4453 -0.5568 -0.2223
  523MOL0     C68943   5.472   1.724   7.415  0.0525  0.6013  0.6551
  523MOL0     C68944   5.524   1.826   7.321  0.8575 -0.0641  0.2817
  523MOL0     C68945   5.674   1.848   7.323 -0.7593 -0.1105  0.0475
  523MOL0     C68946   5.714   1.977   7.268 -0.0268  0.4450 -0.2042
  523MOL0     C68947   5.725   1.959   7.115 -0.2750  0.2833  0.7350
  523MOL0    Cl68948   5.735   2.125   7.043 -0.7038  0.4388  0.3288
  523MOL0     C68949   5.007   1.507   7.575 -0.1625 -0.7977 -0.2131
  523MOL0     C68950   4.886   1.453   7.552 -0.4753  0.6936  0.2884
  523MOL0     O68951   4.737   1.187   7.610  0.1161 -0.3897 -0.2479
  523MOL0     C68952   4.476   1.133   7.574 -0.0407 -0.2679  0.4043
  523MOL0     C68953   4.355   1.065   7.554 -0.0308 -0.2262  0.2458
  523MOL0     N68954   3.644   1.343   7.564 -0.2250 -0.4342  0.3594
  523MOL0     N68955   3.525   1.345   7.609  0.3063  0.4225 -0.4210
  523MOL0     C68956   3.004   1.371   6.750  0.2052  1.3977 -0.7405
  523MOL0     C68957   2.984   1.309   6.625 -0.3523  0.8227  0.0143
  523MOL0     C68958   3.090   1.147   6.237  1.0570 -0.7142 -0.5752
  523MOL0     C68959   3.137   1.012   6.215  0.2801 -0.0798  1.4247
  523MOL0     C68960   3.157   0.962   6.077  0.9977  0.1383  0.4669
  523MOL0     C68961   3.134   1.049   5.964 -0.3277  0.8938  0.4132
  523MOL0     O68962   3.144   1.003   5.837  0.0605  1.2073  0.3032
  523MOL0     C68963   3.131   0.861   5.813 -0.1099 -0.1923 -0.8159
  523MOL0     C68964   3.088   0.831   5.677  0.2943  0.4822  0.0420
  523MOL0     C68965   2.950   0.889   5.630  0.7485 -0.0098 -0.8537
  523MOL0     C68966   2.929   0.877   5.480 -0.5897 -0.0244  0.6836
  523MOL0     C68967   2.947   0.740   5.435  0.6493  0.2506 -0.2924
  523MOL0     C68968   2.985   0.623   5.416  1.4428 -0.9261  0.0235
  523MOL0     C68969   3.107   1.182   5.996 -0.5773  0.0841  1.0970
  523MOL0     C68970   3.079   1.230   6.124 -0.6119 -0.9014 -0.2786
  523MOL0     H68971   3.123   1.554   6.423 -0.0761 -0.3953 -0.9246
  523MOL0     H68972   3.142   1.661   6.651 -1.3908  1.1644  0.1774
  523MOL0     H68973   2.887   1.653   6.834  0.0702 -0.9877  0.3834
  523MOL0     H68974   3.029   1.762   6.848  0.2716  0.1169  0.8275
  523MOL0     H68975   2.899   1.788   7.035 -0.0500 -0.4131  1.0310
  523MOL0     H68976   3.053   1.718   7.075 -0.9582  1.1561  0.5329
  523MOL0     H68977   2.792   1.560   7.025  0.4745 -1.6148 -0.7607
  523MOL0     H68978   2.817   1.632   7.187  1.5849  3.9676  0.0324
  523MOL0     H68979   2.871   1.384   7.179  0.5012  1.1559  0.9537
  523MOL0     H68980   2.992   1.403   7.050  1.0531 -0.6921 -0.3823
  523MOL0     H68981   3.028   1.578   7.284  0.2820  0.6661  0.6729
  523MOL0     H68982   3.146   1.516   7.170 -0.8836  2.9734  0.0111
  523MOL0     H68983   3.122   1.287   7.270 -2.2612 -0.1699 -0.4887
  523MOL0     H68984   3.026   1.356   7.405  0.8724 -2.3406  0.1275
  523MOL0     H68985   3.304   1.406   7.304 -0.0536 -1.9938  0.1436
  523MOL0     H68986   3.245   1.507   7.448  1.4098 -0.8323  2.2080
  523MOL0     H68987   3.267   1.211   7.482 -2.6621  1.5123  1.4555
  523MOL0     H68988   3.272   1.342   7.597 -2.1464  1.4912 -0.1926
  523MOL0     H68989   3.495   1.219   7.307  2.1883 -1.3032  0.0917
  523MOL0     H68990   3.863   1.317   7.401 -0.4341  0.4576 -0.4808
  523MOL0     H68991   3.768   1.285   7.264 -2.5283 -3.4950 -0.8689
  523MOL0     H68992   3.760   1.049   7.326 -0.0804  0.2199 -1.3600
  523MOL0     H68993   3.823   1.092   7.493 -0.4027  1.4971  0.4327
  523MOL0     H68994   3.965   1.022   7.256  4.5888 -1.4288  0.6929
  523MOL0     H68995   4.001   1.195   7.303  0.9108  0.3544  2.7313
  523MOL0     H68996   4.006   0.975   7.504 -1.7769  1.8718  0.8377
  523MOL0     H68997   4.088   1.135   7.517  0.6705  1.5239 -1.5463
  523MOL0     H68998   4.341   1.086   7.215  1.4565 -0.1607 -0.8285
  523MOL0     H68999   4.565   1.190   7.249  2.6496 -0.6405  1.1414
  523MOL0     H69000   4.965   1.275   7.268 -0.8995  0.9389  0.1048
  523MOL0     H69001   5.174   1.385   7.298 -1.7023  0.4477 -0.7227
  523MOL0     H69002   5.255   1.520   7.718  2.7735 -2.2679 -0.8580
  523MOL0     H69003   5.208   1.678   7.666 -0.0304 -0.0463  3.7917
  523MOL0     H69004   5.483   1.574   7.637 -0.6810 -0.8211  0.9387
  523MOL0     H69005   5.417   1.695   7.757 -2.7166 -1.7526  2.1212
  523MOL0     H69006   5.510   1.828   7.601  0.9210 -1.3832 -1.6375
  523MOL0     H69007   5.339   1.836   7.557 -0.9705 -1.2578 -0.4996
  523MOL0     H69008   5.536   1.636   7.417 -0.2129  0.4083  0.7749
  523MOL0     H69009   5.382   1.684   7.368  0.4016  0.3404  0.2001
  523MOL0     H69010   5.468   1.920   7.330  3.8554  1.9055 -0.1495
  523MOL0     H69011   5.498   1.776   7.227 -0.9721 -2.1138  1.7773
  523MOL0     H69012   5.735   1.763   7.292  2.5289  2.0433  0.1012
  523MOL0     H69013   5.704   1.853   7.428  0.2341  0.6715 -0.2501
  523MOL0     H69014   5.647   2.053   7.310  0.6827  0.5041  0.8660
  523MOL0     H69015   5.812   2.000   7.312 -2.2272 -0.0392  5.9663
  523MOL0     H69016   5.635   1.913   7.073 -0.0013  0.0956  0.3439
  523MOL0     H69017   5.806   1.894   7.080 -0.3474 -0.3889  1.7902
  523MOL0     H69018   5.017   1.576   7.659 -0.3758 -1.4367  0.3435
  523MOL0     H69019   4.814   1.477   7.630  1.6892  0.5528  2.4879
  523MOL0     H69020   4.513   1.147   7.676  1.0417 -1.0990  0.1427
  523MOL0     H69021   4.301   1.017   7.634 -0.8471  1.1255  0.5364
  523MOL0     H69022   2.974   1.321   6.842  2.2734  0.6382 -0.4111
  523MOL0     H69023   2.947   1.207   6.628 -0.2935  0.7605 -0.9463
  523MOL0     H69024   3.142   0.937   6.293 -2.6331  0.6776  2.4978
  523MOL0     H69025   3.190   0.861   6.057  0.7076  0.0683  0.3337
  523MOL0     H69026   3.064   0.813   5.885  0.7582 -0.6280 -0.2720
  523MOL0     H69027   3.236   0.829   5.822  0.6999  2.6127  0.8655
  523MOL0     H69028   3.161   0.879   5.611  0.5352 -2.9945 -2.5170
  523MOL0     H69029   3.100   0.726   5.646  1.2742  0.7679 -0.5759
  523MOL0     H69030   2.953   0.993   5.663  0.1816  0.1164 -1.1889
  523MOL0     H69031   2.863   0.836   5.670  0.3476 -1.8052 -3.7817
  523MOL0     H69032   2.829   0.909   5.450 -0.1507  1.6502  0.9320
  523MOL0     H69033   2.995   0.944   5.423  0.4347 -0.2258  1.6017
  523MOL0     H69034   3.027   0.527   5.394  0.2904 -1.5752  0.5742
  523MOL0     H69035   3.105   1.263   5.924  1.5148 -1.5685 -0.9581
  523MOL0     H69036   3.060   1.336   6.135 -1.8349 -0.6607 -3.6002
  524MOL0     O69037   9.731   0.502   1.854  0.1374 -0.0098 -0.2606
  524MOL0     C69038   9.703   0.420   1.940 -0.4865  0.1498  0.1543
  524MOL0     O69039   9.792   0.392   2.043  0.4286  0.1458  0.8844
  524MOL0     C69040   9.916   0.432   2.016  0.1369 -0.3211 -0.2461
  524MOL0     C69041   9.981   0.394   1.904  0.4158 -0.8081  0.5056
  524MOL0     C69042  10.119   0.407   1.884  0.3101  1.3396 -0.1995
  524MOL0     C69043  10.197   0.488   1.974  0.5865  0.2866 -0.0758
  524MOL0     O69044  10.330   0.503   1.938 -0.0335 -0.0258 -0.2782
  524MOL0     C69045  10.420   0.577   2.026 -0.4647 -0.2290  0.2627
  524MOL0     C69046  10.452   0.705   1.953  0.5160  0.2166 -0.3015
  524MOL0     C69047  10.471   0.696   1.807  0.5142 -0.1341 -0.3675
  524MOL0     C69048  10.511   0.830   1.753  0.0295 -0.0653 -0.0524
  524MOL0     C69049  10.518   0.835   1.593  0.3726 -0.3054  0.1648
  524MOL0     C69050  10.388   0.791   1.527  0.1323  0.7978  0.5640
  524MOL0     C69051  10.401   0.807   1.377  0.0508  0.4173  1.0912
  524MOL0     C69052  10.361   0.942   1.333  0.2049  0.6097  0.6874
  524MOL0     N69053  10.215   0.960   1.327  0.1712 -0.0851  0.1448
  524MOL0     C69054  10.150   1.034   1.423  0.3056  0.1071 -0.7494
  524MOL0     C69055  10.026   0.985   1.423  0.2751 -0.0720  0.5318
  524MOL0     C69056   9.908   1.018   1.513 -0.9776 -0.2244 -0.0960
  524MOL0     C69057   9.957   1.057   1.651 -0.1397 -0.4372 -1.1029
  524MOL0     C69058   9.855   1.033   1.758 -0.5274  0.3108  0.1180
  524MOL0     C69059   9.712   1.082   1.721 -0.6666 -0.2310 -1.0275
  524MOL0     O69060   9.628   1.100   1.834 -0.5560 -0.3907  1.2071
  524MOL0     C69061   9.518   1.175   1.824  1.7392  0.2909  0.0154
  524MOL0     C69062   9.459   1.207   1.699  0.3383  0.0771  0.6132
  524MOL0     C69063   9.339   1.277   1.702 -0.1195 -0.5727 -0.8712
  524MOL0     C69064   9.268   1.298   1.822  0.1701  0.7442 -0.2602
  524MOL0     C69065   9.139   1.374   1.821 -0.0113 -0.3854  0.5801
  524MOL0     O69066   9.046   1.329   1.724 -0.3341 -0.3908 -0.4655
  524MOL0     C69067   8.913   1.367   1.733  0.7607 -0.3611 -0.4963
  524MOL0     C69068   8.803   1.287   1.750  0.4744  1.0353 -0.2959
  524MOL0     C69069   8.673   1.338   1.763  0.3184  0.0594 -0.2751
  524MOL0     C69070   8.650   1.479   1.749  0.1735  0.6504  0.3671
  524MOL0     O69071   8.523   1.527   1.777  1.0143  0.0224  0.7683
  524MOL0     C69072   8.466   1.619   1.675  0.8825 -0.6308 -0.3801
  524MOL0     C69073   8.478   1.569   1.532  0.2509  0.9765 -0.3011
  524MOL0     C69074   8.445   1.673   1.431 -0.1294 -0.6748  0.9334
  524MOL0     C69075   8.585   1.707   1.356  1.5817 -0.2498 -0.2846
  524MOL0     C69076   8.584   1.821   1.252  0.6112 -0.0468  0.7315
  524MOL0     C69077   8.592   1.966   1.310 -0.3220 -1.0667  1.0935
  524MOL0     C69078   8.604   2.080   1.201  0.0159  0.2167 -0.3705
  524MOL0     C69079   8.694   2.192   1.262 -0.5607  0.5862  0.6076
  524MOL0    Cl69080   8.634   2.274   1.418 -0.3021  0.1410  0.5480
  524MOL0     C69081   8.760   1.555   1.702  0.9468  0.9865 -0.4933
  524MOL0     C69082   8.885   1.495   1.696 -0.5725 -0.2011  0.2252
  524MOL0     O69083   9.112   1.454   1.917  0.6749  0.5045  0.8679
  524MOL0     C69084   9.335   1.275   1.942  0.4037  0.0440  0.9469
  524MOL0     C69085   9.453   1.204   1.943  0.3361  0.1979  0.3499
  524MOL0     N69086  10.020   0.892   1.316  0.1820  0.1926  0.2694
  524MOL0     N69087  10.132   0.877   1.260 -0.2123 -0.4324 -1.3358
  524MOL0     C69088  10.124   0.523   2.099 -0.5224  0.6858 -0.1783
  524MOL0     C69089   9.985   0.504   2.116 -0.5180  0.1749  0.5412
  524MOL0     C69090   9.581   0.338   1.932  0.3162  0.4718  0.2179
  524MOL0     C69091   9.552   0.249   2.039  0.1417  0.2591  0.2652
  524MOL0     C69092   9.434   0.173   2.035  0.6839 -1.1562 -0.1622
  524MOL0     C69093   9.333   0.187   1.935 -0.7298 -0.9157 -0.4457
  524MOL0     O69094   9.222   0.104   1.941  0.1095  0.3568 -0.7488
  524MOL0     C69095   9.165   0.061   1.815 -0.2201 -0.0437 -0.1353
  524MOL0     C69096   9.039   0.154   1.774  0.0248  0.2561  0.9078
  524MOL0     C69097   8.929   0.153   1.867  0.2655 -0.5115  0.7073
  524MOL0     C69098   8.866   0.013   1.881  0.4829 -0.3157 -0.3038
  524MOL0     C69099   8.751   0.018   1.982  0.9426 -0.2290  1.2147
  524MOL0     C69100   8.648   0.023   2.056 -0.4438 -0.7314 -0.0646
  524MOL0     C69101   9.360   0.293   1.837  0.0970 -0.2983  0.4282
  524MOL0     C69102   9.481   0.360   1.837 -0.2016  0.4080  0.0665
  524MOL0     H69103   9.918   0.334   1.839 -0.9491  0.3430  0.7268
  524MOL0     H69104  10.152   0.375   1.785 -0.3585  2.2039 -0.7233
  524MOL0     H69105  10.509   0.513   2.027 -1.1881 -1.3329  3.2739
  524MOL0     H69106  10.396   0.585   2.132  2.0950 -1.5894  1.0485
  524MOL0     H69107  10.546   0.730   2.004  0.5360 -2.5930  1.2490
  524MOL0     H69108  10.380   0.784   1.976 -0.2888 -0.8885  1.1970
  524MOL0     H69109  10.375   0.669   1.764  2.1257 -1.1786 -3.6989
  524MOL0     H69110  10.540   0.617   1.773  2.0040  0.3886  1.2831
  524MOL0     H69111  10.443   0.910   1.782  1.1592  2.2464 -3.2413
  524MOL0     H69112  10.607   0.850   1.802  1.6216 -2.4176 -1.9456
  524MOL0     H69113  10.595   0.763   1.567  2.7623  1.6281  1.4152
  524MOL0     H69114  10.551   0.930   1.550  1.4173 -0.5627  0.3721
  524MOL0     H69115  10.307   0.849   1.572  1.6369  1.9093  1.9435
  524MOL0     H69116  10.377   0.687   1.558  1.0364  0.6227  0.3194
  524MOL0     H69117  10.504   0.782   1.348 -0.8105 -1.1316 -0.7934
  524MOL0     H69118  10.340   0.741   1.315 -1.6068  1.7163  1.2757
  524MOL0     H69119  10.398   0.948   1.231 -0.2325 -0.8649  0.4076
  524MOL0     H69120  10.403   1.024   1.392 -1.2436  2.7375 -1.0686
  524MOL0     H69121  10.183   1.108   1.496 -1.0420  2.2361 -2.1732
  524MOL0     H69122   9.860   0.919   1.514  2.4735 -2.2087 -3.0689
  524MOL0     H69123   9.840   1.092   1.471 -0.3437 -1.4289 -3.6667
  524MOL0     H69124   9.987   1.162   1.660  1.6191 -0.8776 -1.5134
  524MOL0     H69125  10.048   1.002   1.678 -0.6987 -0.8673 -0.0228
  524MOL0     H69126   9.854   0.926   1.780  0.5553 -0.3749 -2.7515
  524MOL0     H69127   9.891   1.083   1.849 -0.8245 -1.4116  1.2142
  524MOL0     H69128   9.670   1.006   1.655  1.6451 -0.4653 -2.3394
  524MOL0     H69129   9.713   1.171   1.657  0.0807  1.6615  1.4171
  524MOL0     H69130   9.498   1.181   1.601 -4.7559  0.9682 -1.9993
  524MOL0     H69131   9.301   1.302   1.603  1.9505 -2.7575 -2.3334
  524MOL0     H69132   8.825   1.184   1.777  3.2603  0.9223 -2.5005
  524MOL0     H69133   8.604   1.265   1.805 -1.7218  1.2654 -1.3550
  524MOL0     H69134   8.520   1.712   1.694  0.0546  0.1579 -1.7556
  524MOL0     H69135   8.362   1.639   1.699  1.1795  2.4028 -1.1744
  524MOL0     H69136   8.404   1.488   1.529  0.8333  0.4482 -0.5993
  524MOL0     H69137   8.580   1.538   1.508  0.3930  0.8408  0.4496
  524MOL0     H69138   8.414   1.768   1.473  0.8176  0.2906 -0.4558
  524MOL0     H69139   8.377   1.627   1.359 -0.2907  2.2060 -0.9063
  524MOL0     H69140   8.660   1.734   1.431 -1.1620  4.2481  1.2452
  524MOL0     H69141   8.621   1.616   1.307  0.6387  0.5076 -2.5360
  524MOL0     H69142   8.492   1.803   1.196 -2.3160 -1.7385  5.4447
  524MOL0     H69143   8.667   1.810   1.181  0.4548 -0.5412  0.6186
  524MOL0     H69144   8.679   1.981   1.375 -0.8351  1.9591  1.2404
  524MOL0     H69145   8.504   1.989   1.371 -0.2445 -0.2669  0.9101
  524MOL0     H69146   8.653   2.037   1.112  1.8396 -0.1956  0.7729
  524MOL0     H69147   8.505   2.114   1.169 -0.0519  1.1699  0.7989
  524MOL0     H69148   8.697   2.266   1.181 -0.7813  1.2783  1.2178
  524MOL0     H69149   8.792   2.145   1.265 -0.4468  0.6861 -0.8394
  524MOL0     H69150   8.744   1.659   1.673 -1.0811  1.1109  0.8891
  524MOL0     H69151   8.971   1.559   1.676  1.0265 -2.2805  0.1334
  524MOL0     H69152   9.291   1.296   2.038 -0.8078 -4.1538  1.5113
  524MOL0     H69153   9.495   1.173   2.038 -2.6936  0.5689  1.9050
  524MOL0     H69154  10.188   0.557   2.180  0.4367  0.2505 -0.7278
  524MOL0     H69155   9.931   0.544   2.202 -0.2481 -2.3987  2.0117
  524MOL0     H69156   9.617   0.236   2.124 -1.4065 -0.4657  1.3925
  524MOL0     H69157   9.426   0.096   2.112 -1.2529 -1.5556 -0.6942
  524MOL0     H69158   9.136  -0.042   1.835 -1.3661 -0.1742 -2.1725
  524MOL0     H69159   9.236   0.051   1.733 -1.6160 -0.4830 -1.3305
  524MOL0     H69160   9.078   0.257   1.776  4.4162 -1.1405  3.6917
  524MOL0     H69161   9.000   0.131   1.675 -1.9336  0.3482  1.6061
  524MOL0     H69162   8.858   0.225   1.824  1.0685 -0.2275 -0.1710
  524MOL0     H69163   8.946   0.193   1.968 -2.1442 -0.9953  1.3777
  524MOL0     H69164   8.828  -0.026   1.786  1.7463 -3.1979  0.2460
  524MOL0     H69165   8.935  -0.064   1.920 -0.8187 -0.4803  1.8372
  524MOL0     H69166   8.572   0.028   2.131 -0.8231 -2.1088 -0.3172
  524MOL0     H69167   9.285   0.321   1.764 -1.8577 -2.7347  1.3406
  524MOL0     H69168   9.485   0.454   1.782 -1.5824  0.6586  0.3568
  525MOL0     O69169   1.302   8.174   2.681 -0.1540 -0.1949  0.1036
  525MOL0     C69170   1.239   8.272   2.717  0.1137  0.5513 -0.0258
  525MOL0     O69171   1.246   8.394   2.662  1.0637 -0.9407  0.2291
  525MOL0     C69172   1.304   8.432   2.542  0.1425  0.3570 -1.5911
  525MOL0     C69173   1.407   8.363   2.469 -0.2934  0.9772  0.1575
  525MOL0     C69174   1.467   8.423   2.358  1.0775  0.4735  0.2795
  525MOL0     C69175   1.436   8.543   2.308  0.2621  0.1252  0.4382
  525MOL0     O69176   1.499   8.591   2.199 -0.0558 -0.0728 -0.0593
  525MOL0     C69177   1.514   8.734   2.195  0.5340 -0.0976  0.8010
  525MOL0     C69178   1.649   8.770   2.135  0.5689 -0.1246 -0.9917
  525MOL0     C69179   1.767   8.718   2.226 -0.3527  0.3144  0.3655
  525MOL0     C69180   1.903   8.754   2.158 -1.2147 -0.0390  0.7430
  525MOL0     C69181   2.028   8.724   2.248  0.4483 -0.4893  0.4572
  525MOL0     C69182   2.143   8.744   2.153  1.0135 -0.3381  0.0322
  525MOL0     C69183   2.289   8.725   2.202  0.6874 -1.2316  0.5506
  525MOL0     C69184   2.324   8.600   2.263 -1.5168  1.1502  0.7411
  525MOL0     N69185   2.261   8.593   2.392 -0.2480  0.8026  0.4153
  525MOL0     C69186   2.162   8.500   2.440  0.1469 -0.8636  0.0494
  525MOL0     C69187   2.135   8.546   2.567 -0.3760 -1.1706  0.1730
  525MOL0     C69188   2.028   8.497   2.658  0.2438  0.7932  0.0789
  525MOL0     C69189   1.894   8.479   2.592  0.0963 -0.8372  0.1856
  525MOL0     C69190   1.772   8.474   2.693 -0.2052 -0.0323  0.0214
  525MOL0     C69191   1.788   8.363   2.808 -0.4649  0.5801 -0.3183
  525MOL0     O69192   1.665   8.366   2.878 -1.0305  0.5972  0.3643
  525MOL0     C69193   1.655   8.286   2.995 -0.2362 -0.7475 -0.4574
  525MOL0     C69194   1.755   8.264   3.087  0.6011 -0.4050  0.5767
  525MOL0     C69195   1.730   8.204   3.209 -1.2622  0.0601  0.3178
  525MOL0     C69196   1.614   8.141   3.230 -0.0592  0.5831 -0.8767
  525MOL0     C69197   1.608   8.046   3.342  1.0783  0.3991 -0.3168
  525MOL0     O69198   1.479   8.005   3.382  0.5531  0.3231 -0.1916
  525MOL0     C69199   1.478   7.910   3.483  0.2017 -0.2838  0.4786
  525MOL0     C69200   1.553   7.788   3.483 -0.0850  0.3394  0.3360
  525MOL0     C69201   1.541   7.682   3.580  0.0157 -0.2024  0.3242
  525MOL0     C69202   1.442   7.692   3.670 -0.0694 -0.6996  0.0985
  525MOL0     O69203   1.410   7.597   3.758  1.0419  0.8288 -0.0630
  525MOL0     C69204   1.515   7.521   3.834  0.9811 -0.3379  0.3629
  525MOL0     C69205   1.471   7.412   3.938 -0.5233  0.4325  0.0341
  525MOL0     C69206   1.581   7.366   4.031 -0.3886 -0.8136  0.1809
  525MOL0     C69207   1.565   7.222   4.084  0.1736  0.0838 -0.1323
  525MOL0     C69208   1.689   7.174   4.164  0.1487  0.2394  1.0786
  525MOL0     C69209   1.725   7.246   4.301  0.7016  0.1065  0.9732
  525MOL0     C69210   1.824   7.171   4.387 -0.5232  0.1213  0.2647
  525MOL0     C69211   1.798   7.200   4.534 -0.2012  0.1724 -0.2483
  525MOL0    Cl69212   1.660   7.102   4.605 -0.0149  0.0892 -0.3171
  525MOL0     C69213   1.375   7.817   3.683  0.2233  0.2852  0.0746
  525MOL0     C69214   1.385   7.923   3.587 -1.1099  0.6394 -0.1848
  525MOL0     O69215   1.714   8.007   3.388  0.8230 -0.0064 -0.8642
  525MOL0     C69216   1.501   8.161   3.147 -0.2075  0.1140  0.8766
  525MOL0     C69217   1.525   8.234   3.028 -0.1185  0.6347 -0.8455
  525MOL0     N69218   2.218   8.655   2.598 -0.1792  0.9357  0.1358
  525MOL0     N69219   2.288   8.680   2.494  0.7030 -0.2466 -0.0399
  525MOL0     C69220   1.332   8.607   2.369 -0.0428 -0.7436  0.1613
  525MOL0     C69221   1.262   8.558   2.485 -1.4119 -0.6507  0.8618
  525MOL0     C69222   1.148   8.248   2.827 -0.5837 -0.6968  0.6272
  525MOL0     C69223   1.112   8.116   2.875  0.0031 -0.3814  0.4693
  525MOL0     C69224   1.071   8.117   3.000  0.2597  0.5096 -0.5534
  525MOL0     C69225   1.046   8.232   3.080 -0.0198  0.6219 -0.0716
  525MOL0     O69226   0.992   8.217   3.207  0.4372 -0.9110 -0.5032
  525MOL0     C69227   0.970   8.083   3.257  0.1307 -0.0602  0.5708
  525MOL0     C69228   0.912   8.102   3.397 -0.0464  0.4569  0.4679
  525MOL0     C69229   0.965   7.993   3.486  0.3488 -0.8234  0.1298
  525MOL0     C69230   0.883   7.979   3.611 -0.1851 -0.2143  0.2553
  525MOL0     C69231   0.749   7.913   3.589 -0.2509  0.2834 -0.3838
  525MOL0     C69232   0.644   7.849   3.579 -0.7017 -0.5299 -0.5021
  525MOL0     C69233   1.049   8.355   3.016  0.1750 -0.0135  0.3803
  525MOL0     C69234   1.103   8.365   2.889  0.5139 -0.5432  1.0060
  525MOL0     H69235   1.439   8.265   2.503 -3.4575  0.4050  1.8870
  525MOL0     H69236   1.548   8.370   2.309  0.6757 -0.1714  0.3051
  525MOL0     H69237   1.497   8.777   2.294  0.6260  2.2158 -0.1150
  525MOL0     H69238   1.428   8.774   2.140 -0.0393  1.0613  2.4644
  525MOL0     H69239   1.659   8.879   2.135 -3.7406  0.4778  0.2464
  525MOL0     H69240   1.647   8.726   2.035 -1.4053 -2.5213 -0.0133
  525MOL0     H69241   1.769   8.610   2.237  3.2862 -0.4510 -4.5465
  525MOL0     H69242   1.768   8.769   2.324  1.6346  2.4180 -0.6446
  525MOL0     H69243   1.899   8.689   2.070 -2.1570  0.0754  0.6897
  525MOL0     H69244   1.908   8.857   2.121  4.0406 -1.3368 -3.5356
  525MOL0     H69245   2.022   8.618   2.275 -4.4582 -0.2084  1.4301
  525MOL0     H69246   2.034   8.795   2.330  4.1764  0.4351 -0.4313
  525MOL0     H69247   2.137   8.837   2.097 -2.4936  1.0920  2.4810
  525MOL0     H69248   2.129   8.671   2.072 -1.7938  3.4228 -3.2854
  525MOL0     H69249   2.352   8.732   2.112 -1.1727 -0.1595 -0.7500
  525MOL0     H69250   2.316   8.811   2.263  1.5655 -1.0548 -0.0611
  525MOL0     H69251   2.433   8.607   2.272 -1.2701  0.8727 -1.3853
  525MOL0     H69252   2.312   8.516   2.193 -1.0265  0.0336  1.9504
  525MOL0     H69253   2.101   8.428   2.387  0.9885  1.3888 -4.4256
  525MOL0     H69254   2.020   8.558   2.748  3.2997 -1.0326  1.7744
  525MOL0     H69255   2.046   8.393   2.689 -1.0457 -0.0537 -1.8634
  525MOL0     H69256   1.890   8.393   2.525  1.0706 -0.6985 -0.0756
  525MOL0     H69257   1.888   8.566   2.526 -0.3341 -1.7553 -1.0166
  525MOL0     H69258   1.753   8.568   2.747 -0.1769 -1.1828  2.1477
  525MOL0     H69259   1.684   8.456   2.630 -0.1030 -0.9002  0.1096
  525MOL0     H69260   1.868   8.398   2.874 -1.2273  1.3043  0.2317
  525MOL0     H69261   1.813   8.262   2.774  1.1028 -0.3076  3.0299
  525MOL0     H69262   1.858   8.297   3.073  0.2470  0.4601  0.0023
  525MOL0     H69263   1.817   8.192   3.272  0.5507 -2.2236 -2.3910
  525MOL0     H69264   1.629   7.787   3.406  2.6919  1.9325  2.8503
  525MOL0     H69265   1.582   7.583   3.567 -0.3412 -0.7436  2.8300
  525MOL0     H69266   1.558   7.600   3.897 -1.3353  1.9235 -0.7422
  525MOL0     H69267   1.576   7.489   3.750  0.7812 -0.2224  0.1726
  525MOL0     H69268   1.421   7.331   3.883 -3.4692  1.1673  1.4218
  525MOL0     H69269   1.389   7.450   4.000 -1.2041 -1.6071  0.4352
  525MOL0     H69270   1.594   7.435   4.115 -0.2747  0.2182 -0.6713
  525MOL0     H69271   1.682   7.361   3.989 -1.0209  0.1752 -1.5210
  525MOL0     H69272   1.478   7.202   4.147  1.1222  0.4376  1.3139
  525MOL0     H69273   1.551   7.155   3.998  2.2096  0.0967 -0.5253
  525MOL0     H69274   1.773   7.170   4.094 -1.9136 -0.8750 -1.5446
  525MOL0     H69275   1.677   7.069   4.192  0.5694  0.3060  1.5081
  525MOL0     H69276   1.627   7.265   4.345  0.7108  3.6634 -0.2862
  525MOL0     H69277   1.769   7.343   4.279 -0.1469  0.3045  0.1073
  525MOL0     H69278   1.831   7.063   4.374  0.8991  0.4206 -2.1026
  525MOL0     H69279   1.927   7.206   4.376  0.5671 -2.8525  0.2129
  525MOL0     H69280   1.795   7.307   4.552  1.9310 -0.1194  2.5527
  525MOL0     H69281   1.889   7.180   4.592  1.0553 -1.2514 -2.5398
  525MOL0     H69282   1.306   7.818   3.767 -0.9582 -3.2567 -0.6992
  525MOL0     H69283   1.326   8.014   3.595 -0.3269  1.1417  0.0132
  525MOL0     H69284   1.413   8.100   3.169 -0.3046  0.3696  1.1966
  525MOL0     H69285   1.458   8.244   2.943 -0.0238  2.8983 -0.7153
  525MOL0     H69286   1.300   8.700   2.322  2.2704 -0.1753 -0.4193
  525MOL0     H69287   1.198   8.634   2.530  1.0030  1.8523  0.3963
  525MOL0     H69288   1.142   8.029   2.818  1.1208  0.8801 -0.9526
  525MOL0     H69289   1.063   8.017   3.043  0.5150  0.0849 -1.4665
  525MOL0     H69290   1.075   8.057   3.269  0.2186 -0.0551 -0.1408
  525MOL0     H69291   0.917   8.016   3.189  0.4627  1.0752 -0.8618
  525MOL0     H69292   0.960   8.191   3.441 -3.1213  2.0914  0.7492
  525MOL0     H69293   0.803   8.095   3.396  0.0652 -2.8811 -0.4442
  525MOL0     H69294   1.069   8.016   3.510 -0.2424 -0.3987  2.4814
  525MOL0     H69295   0.975   7.900   3.430  1.8835 -0.5909 -0.0204
  525MOL0     H69296   0.939   7.911   3.676 -0.9007 -0.4030  0.6893
  525MOL0     H69297   0.872   8.079   3.652 -2.0187  2.9558 -6.4663
  525MOL0     H69298   0.556   7.787   3.572 -1.4030  0.5917 -2.5555
  525MOL0     H69299   1.008   8.433   3.079 -1.2220  0.3038 -0.8444
  525MOL0     H69300   1.114   8.458   2.834  0.9084 -0.5573  1.0548
  526MOL0     O69301   0.082   0.216   2.134 -0.6251  0.1242 -0.6519
  526MOL0     C69302  -0.007   0.187   2.054 -0.1579 -0.4457  0.0451
  526MOL0     O69303  -0.101   0.093   2.071  0.3710  0.5655  0.1620
  526MOL0     C69304  -0.139   0.025   2.183  0.2857  0.1147  0.5204
  526MOL0     C69305  -0.270  -0.028   2.185 -0.9298 -0.8640 -0.0447
  526MOL0     C69306  -0.309  -0.105   2.293  0.3925  0.3287  0.4904
  526MOL0     C69307  -0.235  -0.115   2.414  0.7209  0.2789 -0.0718
  526MOL0     O69308  -0.260  -0.186   2.528 -0.0069 -0.9175  0.2650
  526MOL0     C69309  -0.392  -0.220   2.559 -0.5620  0.1283 -0.6065
  526MOL0     C69310  -0.388  -0.306   2.691  0.0324 -0.1096  0.4758
  526MOL0     C69311  -0.281  -0.417   2.696  0.0582  0.5748  0.4511
  526MOL0     C69312  -0.308  -0.532   2.813 -0.3474  0.3031  1.1336
  526MOL0     C69313  -0.303  -0.470   2.948 -0.6028 -0.7021  0.0368
  526MOL0     C69314  -0.374  -0.569   3.046 -0.2117 -0.7736 -0.8425
  526MOL0     C69315  -0.350  -0.554   3.194 -0.2481 -0.2026 -0.6636
  526MOL0     C69316  -0.394  -0.679   3.273 -0.1778 -0.7453 -0.9968
  526MOL0     N69317  -0.537  -0.688   3.277  0.0530 -0.3311 -0.1381
  526MOL0     C69318  -0.620  -0.583   3.296  0.2616  0.3839  0.1595
  526MOL0     C69319  -0.738  -0.631   3.283  0.3408  0.7086  0.1461
  526MOL0     C69320  -0.868  -0.548   3.274  0.1865  0.4067  0.6912
  526MOL0     C69321  -0.913  -0.540   3.124  0.3601  0.8661  0.3404
  526MOL0     C69322  -1.032  -0.455   3.126  0.6379 -0.2231  1.0376
  526MOL0     C69323  -1.081  -0.430   2.981  1.0504  0.0907 -0.3634
  526MOL0     O69324  -0.996  -0.319   2.951 -0.2175 -0.6473  0.9816
  526MOL0     C69325  -0.977  -0.294   2.817 -0.9749  0.1578 -0.7987
  526MOL0     C69326  -1.082  -0.301   2.726  0.0314  1.4613 -1.0331
  526MOL0     C69327  -1.070  -0.277   2.591 -0.4282 -0.1752  0.8197
  526MOL0     C69328  -0.947  -0.241   2.542 -0.2667  0.3506  0.2669
  526MOL0     C69329  -0.932  -0.227   2.397  0.4758  0.3956  0.5152
  526MOL0     O69330  -0.841  -0.137   2.344 -0.7411  0.0263  0.7259
  526MOL0     C69331  -0.832  -0.124   2.201  1.4886 -0.3869 -0.0509
  526MOL0     C69332  -0.726  -0.164   2.143 -0.2476 -0.4973 -0.7388
  526MOL0     C69333  -0.694  -0.132   2.015  0.2693  0.9126 -0.0832
  526MOL0     C69334  -0.795  -0.084   1.932  0.1466 -0.1851  0.2010
  526MOL0     O69335  -0.774  -0.082   1.802 -0.3508 -0.4146  0.1532
  526MOL0     C69336  -0.883  -0.114   1.707  0.7446  0.1905 -1.2509
  526MOL0     C69337  -0.821  -0.189   1.582 -0.5836 -0.1132 -0.0302
  526MOL0     C69338  -0.764  -0.330   1.605  0.5422  0.3474 -0.8988
  526MOL0     C69339  -0.708  -0.397   1.484 -0.1869  1.0268  0.6233
  526MOL0     C69340  -0.667  -0.546   1.519 -0.2270 -1.2509 -0.0048
  526MOL0     C69341  -0.608  -0.624   1.388  0.2130 -0.9357 -0.8607
  526MOL0     C69342  -0.585  -0.775   1.428  0.0105 -0.9996  0.3501
  526MOL0     C69343  -0.563  -0.856   1.307  0.2181 -1.0281 -0.1916
  526MOL0    Cl69344  -0.507  -1.011   1.358  0.7298  0.1551  0.1710
  526MOL0     C69345  -0.917  -0.037   1.991  0.4544 -0.1027 -0.9327
  526MOL0     C69346  -0.938  -0.060   2.127  0.0973 -0.9586  0.5594
  526MOL0     O69347  -1.004  -0.298   2.323  0.3902 -0.2731  0.6636
  526MOL0     C69348  -0.835  -0.235   2.620 -0.3784 -0.9440  0.6172
  526MOL0     C69349  -0.848  -0.261   2.766  0.7925  0.4256  0.2601
  526MOL0     N69350  -0.728  -0.771   3.247  0.2009 -0.2327  0.4351
  526MOL0     N69351  -0.601  -0.802   3.246  1.0107  0.0718  0.0197
  526MOL0     C69352  -0.110  -0.049   2.413 -0.4189  0.2793 -0.4966
  526MOL0     C69353  -0.058   0.010   2.296  1.2940  0.1847  0.0152
  526MOL0     C69354  -0.013   0.274   1.932 -0.1624  0.3531 -0.1560
  526MOL0     C69355  -0.134   0.307   1.871  0.1617  0.8770  0.5341
  526MOL0     C69356  -0.134   0.392   1.756 -0.7376  0.1796  0.2165
  526MOL0     C69357  -0.009   0.464   1.716 -0.2056 -0.6038  0.2766
  526MOL0     O69358  -0.002   0.569   1.625  0.9647 -0.4548  0.1951
  526MOL0     C69359  -0.112   0.590   1.540  0.3089  0.5531  0.6319
  526MOL0     C69360  -0.090   0.684   1.424 -0.1220 -0.0303  0.2101
  526MOL0     C69361  -0.059   0.826   1.480 -0.3489 -0.5031 -0.0818
  526MOL0     C69362   0.071   0.881   1.410 -0.1020 -0.1186  0.4007
  526MOL0     C69363   0.038   0.927   1.276  0.3613 -0.4727  0.4294
  526MOL0     C69364   0.016   0.973   1.165  0.2089 -0.4210 -0.0895
  526MOL0     C69365   0.102   0.430   1.774  0.5799 -0.4074 -0.3450
  526MOL0     C69366   0.107   0.342   1.887  0.1896 -0.2862  0.8857
  526MOL0     H69367  -0.332  -0.007   2.098  0.9400  1.7794 -0.8528
  526MOL0     H69368  -0.401  -0.163   2.292  1.0374 -0.8304 -2.7607
  526MOL0     H69369  -0.423  -0.290   2.480  1.6139 -3.9533  1.8029
  526MOL0     H69370  -0.451  -0.128   2.563 -0.6146  0.1272 -1.2840
  526MOL0     H69371  -0.479  -0.367   2.697  2.2327 -3.5500  1.7372
  526MOL0     H69372  -0.393  -0.242   2.780 -0.1064  0.1847  0.2565
  526MOL0     H69373  -0.181  -0.373   2.707  2.0248 -3.3179 -0.2818
  526MOL0     H69374  -0.262  -0.465   2.600  4.4828  0.7832  1.0061
  526MOL0     H69375  -0.406  -0.563   2.776  0.6951  1.5675 -3.3261
  526MOL0     H69376  -0.241  -0.618   2.804 -0.6977 -0.0036  1.4522
  526MOL0     H69377  -0.350  -0.371   2.937 -1.7000 -0.9615  2.0001
  526MOL0     H69378  -0.197  -0.460   2.974 -1.1497  0.4979  2.0643
  526MOL0     H69379  -0.346  -0.668   3.010 -0.6999 -0.9421 -0.7642
  526MOL0     H69380  -0.481  -0.561   3.025 -0.9696 -3.0661  1.5394
  526MOL0     H69381  -0.243  -0.531   3.200 -0.5369  1.8435 -1.9680
  526MOL0     H69382  -0.388  -0.456   3.226  1.3662  0.3327 -0.2761
  526MOL0     H69383  -0.346  -0.682   3.371 -1.3434 -3.7569 -0.4056
  526MOL0     H69384  -0.348  -0.761   3.218 -0.9668 -1.6920 -0.2856
  526MOL0     H69385  -0.590  -0.482   3.322  1.7037 -0.2487  1.0203
  526MOL0     H69386  -0.843  -0.443   3.293  1.1114  0.9029 -2.6927
  526MOL0     H69387  -0.938  -0.597   3.342 -1.1060  1.1263 -0.0954
  526MOL0     H69388  -0.933  -0.639   3.082 -0.9318  1.7569 -1.2511
  526MOL0     H69389  -0.842  -0.490   3.057 -0.7097 -0.6477 -2.0296
  526MOL0     H69390  -1.120  -0.497   3.175 -1.2175  2.1428 -0.0357
  526MOL0     H69391  -1.016  -0.357   3.172 -0.0315  0.8897 -0.9658
  526MOL0     H69392  -1.184  -0.394   2.990 -0.3859 -3.8522  0.7654
  526MOL0     H69393  -1.075  -0.524   2.926  0.4776  0.1703 -0.5782
  526MOL0     H69394  -1.178  -0.337   2.762  1.2227 -1.6254 -0.5793
  526MOL0     H69395  -1.143  -0.285   2.511  0.7930  0.1554 -0.3677
  526MOL0     H69396  -0.640  -0.199   2.199 -0.5280  0.2595  0.1924
  526MOL0     H69397  -0.598  -0.174   1.986 -0.5858 -2.5060  1.5582
  526MOL0     H69398  -0.926  -0.016   1.689 -0.8014  0.2468  2.0375
  526MOL0     H69399  -0.965  -0.177   1.743  1.5054 -0.6997 -1.0306
  526MOL0     H69400  -0.735  -0.132   1.546 -0.4966  0.8660  1.6230
  526MOL0     H69401  -0.900  -0.188   1.507 -2.4043 -1.9714  1.7193
  526MOL0     H69402  -0.850  -0.389   1.637  0.1825  1.2650 -0.1329
  526MOL0     H69403  -0.684  -0.320   1.679  0.0450 -0.7526 -0.1841
  526MOL0     H69404  -0.788  -0.398   1.409 -0.2003 -0.5928  0.6280
  526MOL0     H69405  -0.623  -0.350   1.435  1.3229 -0.7488  1.4051
  526MOL0     H69406  -0.761  -0.598   1.538  0.4086 -1.8315  1.7615
  526MOL0     H69407  -0.600  -0.551   1.605  2.2338 -2.4102 -1.8423
  526MOL0     H69408  -0.506  -0.585   1.379  1.1591 -3.0136  0.1977
  526MOL0     H69409  -0.664  -0.620   1.294  0.2003  0.3682 -0.8109
  526MOL0     H69410  -0.491  -0.775   1.484 -1.3668  0.5347  2.8576
  526MOL0     H69411  -0.651  -0.814   1.507 -0.0157 -1.1908  0.2325
  526MOL0     H69412  -0.500  -0.803   1.235 -1.4920  0.0923 -0.9306
  526MOL0     H69413  -0.658  -0.869   1.255  1.8943 -0.1804 -3.8213
  526MOL0     H69414  -0.997   0.018   1.943  0.3256 -0.9564 -1.7180
  526MOL0     H69415  -1.030  -0.026   2.175  1.2159  3.7943 -0.1182
  526MOL0     H69416  -0.739  -0.202   2.582 -1.8504  0.6167 -2.1136
  526MOL0     H69417  -0.770  -0.230   2.835  1.6288  1.3878 -1.0754
  526MOL0     H69418  -0.046  -0.046   2.501  2.0756  0.1150 -2.2158
  526MOL0     H69419   0.038   0.059   2.309  2.1194 -0.9219 -1.5845
  526MOL0     H69420  -0.223   0.262   1.915  0.1509  0.9914  0.6279
  526MOL0     H69421  -0.228   0.436   1.724 -1.2894 -2.1967 -1.7540
  526MOL0     H69422  -0.188   0.639   1.602  0.9667 -0.0132  1.9396
  526MOL0     H69423  -0.159   0.499   1.502  1.2520 -0.6431  2.1754
  526MOL0     H69424  -0.001   0.648   1.372 -0.0968 -0.0199  0.2468
  526MOL0     H69425  -0.175   0.703   1.357 -1.2545  1.4685  1.9595
  526MOL0     H69426  -0.037   0.825   1.588  0.2455  0.9853 -0.1650
  526MOL0     H69427  -0.138   0.898   1.458  1.4785  1.2450 -1.3023
  526MOL0     H69428   0.111   0.961   1.473  1.3214  0.3052 -0.9637
  526MOL0     H69429   0.151   0.806   1.409  0.7133  0.7338 -0.8424
  526MOL0     H69430   0.005   1.019   1.069 -1.2999  0.9518  0.6953
  526MOL0     H69431   0.187   0.494   1.757 -0.9679  1.9345  0.2453
  526MOL0     H69432   0.194   0.333   1.952 -0.9222  1.4334  2.7544
  527MOL0     O69433   9.698   3.860   9.189  0.6412 -0.0525  0.7149
  527MOL0     C69434   9.770   3.838   9.088 -0.0321  0.1351 -1.1699
  527MOL0     O69435   9.777   3.908   8.984  0.3791 -0.8082 -0.4165
  527MOL0     C69436   9.739   4.049   8.990 -0.4339  0.2530  0.0927
  527MOL0     C69437   9.721   4.108   8.859 -1.0513 -0.0017  0.4500
  527MOL0     C69438   9.690   4.242   8.850  0.2116  0.4076 -0.3245
  527MOL0     C69439   9.676   4.330   8.968 -0.6316  0.4607 -0.3534
  527MOL0     O69440   9.640   4.466   8.969 -0.0115  0.4377 -0.3022
  527MOL0     C69441   9.638   4.530   8.841  0.4076  0.4741  0.3468
  527MOL0     C69442   9.598   4.682   8.848  0.6280  0.3232  0.0430
  527MOL0     C69443   9.449   4.719   8.886  1.2146 -0.6433 -0.3245
  527MOL0     C69444   9.389   4.858   8.837 -0.0485 -0.7715  0.4686
  527MOL0     C69445   9.309   4.845   8.701  0.6551  0.4945 -0.3101
  527MOL0     C69446   9.404   4.846   8.588  0.2397  0.3697 -0.1303
  527MOL0     C69447   9.351   4.823   8.450 -1.8264 -0.3806 -0.2969
  527MOL0     C69448   9.468   4.818   8.351 -0.8152 -0.1927  0.3147
  527MOL0     N69449   9.552   4.941   8.338 -0.2191 -0.0674 -0.3445
  527MOL0     C69450   9.499   5.068   8.329 -0.9652 -0.2979  0.5209
  527MOL0     C69451   9.612   5.145   8.318 -0.6982  0.2112 -0.3841
  527MOL0     C69452   9.615   5.292   8.320  0.0507  0.0870  0.7978
  527MOL0     C69453   9.553   5.354   8.446  0.1020  0.1181  0.6189
  527MOL0     C69454   9.616   5.318   8.593  0.6749 -0.4127  0.2460
  527MOL0     C69455   9.770   5.346   8.600  0.1718 -0.3136 -0.4669
  527MOL0     O69456   9.788   5.483   8.567 -0.1806  0.5603 -0.6506
  527MOL0     C69457   9.900   5.536   8.529 -0.7952 -0.7632  0.4757
  527MOL0     C69458  10.010   5.456   8.482 -0.3533 -0.4952 -0.3499
  527MOL0     C69459  10.125   5.513   8.433  0.2856  0.1746 -0.8312
  527MOL0     C69460  10.133   5.657   8.442 -0.0272  0.4961 -0.2692
  527MOL0     C69461  10.272   5.706   8.426 -0.7711  0.1707 -0.5533
  527MOL0     O69462  10.372   5.616   8.422 -0.1312 -0.2794 -0.3009
  527MOL0     C69463  10.494   5.677   8.411 -0.1682 -1.0340  0.6180
  527MOL0     C69464  10.593   5.601   8.473 -0.1803  0.3631  0.5981
  527MOL0     C69465  10.727   5.648   8.476 -0.6740  0.5022  0.8944
  527MOL0     C69466  10.766   5.764   8.408  0.3792 -1.2523  0.1906
  527MOL0     O69467  10.890   5.824   8.417  0.1470 -0.3487 -0.5666
  527MOL0     C69468  10.985   5.765   8.492  0.0661  1.2870  0.3206
  527MOL0     C69469  10.976   5.789   8.642 -0.0269 -0.0060 -0.5887
  527MOL0     C69470  11.120   5.787   8.702  0.8615  1.2140 -0.6389
  527MOL0     C69471  11.118   5.820   8.855 -0.7968  1.1783  0.2266
  527MOL0     C69472  11.079   5.693   8.936 -1.2494  0.0454 -0.2118
  527MOL0     C69473  11.117   5.711   9.085  0.8229 -1.1452  0.0412
  527MOL0     C69474  11.126   5.577   9.148  0.4931 -1.4551  1.4340
  527MOL0     C69475  11.132   5.588   9.295  0.1689  0.5248 -0.3938
  527MOL0    Cl69476  10.979   5.667   9.370 -0.3517  0.2626 -0.5516
  527MOL0     C69477  10.670   5.829   8.331 -0.4272 -0.5664  0.1494
  527MOL0     C69478  10.536   5.784   8.323 -0.3384 -0.0807  0.6873
  527MOL0     O69479  10.279   5.828   8.400  0.3045  0.5936  0.0716
  527MOL0     C69480  10.028   5.738   8.492 -0.9204  0.5528 -0.1100
  527MOL0     C69481   9.909   5.670   8.527  0.9179 -0.5381 -0.6411
  527MOL0     N69482   9.724   5.066   8.320 -0.1133 -0.6480  0.0883
  527MOL0     N69483   9.685   4.945   8.328  0.0174 -0.1737 -0.1941
  527MOL0     C69484   9.695   4.274   9.092  0.3413 -0.0605 -1.1746
  527MOL0     C69485   9.731   4.132   9.095  0.0367 -0.1177 -0.1730
  527MOL0     C69486   9.848   3.715   9.094  0.0767  0.8446 -1.1128
  527MOL0     C69487   9.950   3.687   8.996  0.3380 -0.0173 -0.0881
  527MOL0     C69488  10.048   3.592   9.030  0.6285 -1.5143 -0.0458
  527MOL0     C69489  10.053   3.522   9.150 -0.6818 -0.5619  0.5728
  527MOL0     O69490  10.157   3.434   9.181  0.5254 -0.0193  0.4999
  527MOL0     C69491  10.124   3.302   9.148 -0.6219  0.8819 -0.6149
  527MOL0     C69492  10.213   3.195   9.208 -0.3512 -0.6119 -0.1823
  527MOL0     C69493  10.228   3.204   9.357  0.6086 -1.0115  0.6620
  527MOL0     C69494  10.100   3.235   9.447 -0.2715  0.1569  0.3145
  527MOL0     C69495   9.994   3.144   9.427 -0.0467  0.0970 -0.2569
  527MOL0     C69496   9.902   3.070   9.410 -0.4148 -0.3808  0.6713
  527MOL0     C69497   9.947   3.536   9.239  0.3059 -0.3571  0.6535
  527MOL0     C69498   9.846   3.638   9.212 -0.0637  0.8683 -0.5281
  527MOL0     H69499   9.729   4.040   8.776  0.1570 -0.3978  0.8767
  527MOL0     H69500   9.662   4.281   8.753  0.8885  0.3365 -0.5523
  527MOL0     H69501   9.572   4.476   8.773 -1.6680  1.8966  1.1181
  527MOL0     H69502   9.739   4.523   8.800  0.7045  0.0679  1.1213
  527MOL0     H69503   9.615   4.732   8.752  0.8890 -0.7423 -0.4770
  527MOL0     H69504   9.658   4.746   8.913 -1.9862  3.4166 -0.2975
  527MOL0     H69505   9.451   4.725   8.995  0.2914  1.5573 -0.3661
  527MOL0     H69506   9.376   4.642   8.862  0.3712 -0.9322  2.7705
  527MOL0     H69507   9.323   4.903   8.911  0.2269  2.9231 -1.2798
  527MOL0     H69508   9.465   4.937   8.828 -0.1814 -0.8647 -2.2759
  527MOL0     H69509   9.247   4.934   8.689 -0.7658 -0.7204 -2.7913
  527MOL0     H69510   9.255   4.750   8.705  1.0543  0.2724  3.3298
  527MOL0     H69511   9.483   4.771   8.600  2.0169  2.0481 -0.8205
  527MOL0     H69512   9.454   4.942   8.597  1.5191 -0.3683  0.9601
  527MOL0     H69513   9.300   4.727   8.440 -2.4408 -0.0256 -0.6109
  527MOL0     H69514   9.277   4.899   8.424 -3.2406 -1.9917 -1.1744
  527MOL0     H69515   9.437   4.807   8.246  3.9680 -1.2704 -1.2614
  527MOL0     H69516   9.533   4.732   8.369 -1.7466 -1.9200 -3.4679
  527MOL0     H69517   9.400   5.112   8.341 -0.7386  1.0943 -1.9300
  527MOL0     H69518   9.570   5.333   8.229  0.0002  2.6056  1.8759
  527MOL0     H69519   9.720   5.325   8.316 -0.0275  0.2302 -0.8219
  527MOL0     H69520   9.446   5.332   8.446 -0.5059  2.0666 -3.8923
  527MOL0     H69521   9.566   5.462   8.429  2.2387 -0.3236 -1.0310
  527MOL0     H69522   9.548   5.364   8.666 -0.3480 -0.7733 -0.4717
  527MOL0     H69523   9.610   5.209   8.595 -1.5892 -0.3488  2.3482
  527MOL0     H69524   9.815   5.276   8.529 -1.4222  1.6156 -3.6226
  527MOL0     H69525   9.807   5.323   8.700  0.1908  2.4268  0.2320
  527MOL0     H69526   9.990   5.351   8.465  1.2096 -0.7330 -0.9554
  527MOL0     H69527  10.198   5.451   8.382 -0.2451  0.1736 -1.6166
  527MOL0     H69528  10.564   5.513   8.531  5.1439  0.1805  3.6342
  527MOL0     H69529  10.807   5.595   8.528 -1.1697 -0.8985  0.2780
  527MOL0     H69530  11.079   5.808   8.456 -0.1891  1.0309 -0.6918
  527MOL0     H69531  10.996   5.659   8.467  1.6434  1.6794 -0.8145
  527MOL0     H69532  10.916   5.713   8.691  2.5602 -1.6722  0.1738
  527MOL0     H69533  10.938   5.889   8.669 -1.3611 -0.1508 -1.7823
  527MOL0     H69534  11.182   5.855   8.644  3.6538 -0.8200 -0.2655
  527MOL0     H69535  11.153   5.684   8.687  0.2859  1.1812 -1.8122
  527MOL0     H69536  11.211   5.863   8.893 -1.2483  0.4269  2.2904
  527MOL0     H69537  11.045   5.901   8.864 -2.2596  0.1773 -1.7872
  527MOL0     H69538  11.147   5.619   8.894  1.3350  2.1923 -0.1147
  527MOL0     H69539  10.978   5.659   8.912 -1.4924  1.2728 -1.0451
  527MOL0     H69540  11.049   5.785   9.128  1.9950  1.3060 -1.9937
  527MOL0     H69541  11.217   5.757   9.086 -0.6284  2.3783 -1.2098
  527MOL0     H69542  11.042   5.512   9.122  0.9257 -0.4230 -3.6690
  527MOL0     H69543  11.212   5.519   9.113 -2.0846 -3.4777 -2.2032
  527MOL0     H69544  11.217   5.651   9.325  0.4059  0.3577 -0.7134
  527MOL0     H69545  11.133   5.491   9.346  0.2543  0.7599  0.0594
  527MOL0     H69546  10.701   5.925   8.290 -3.5143  0.6359  0.3535
  527MOL0     H69547  10.468   5.822   8.248 -0.5915 -1.6280  0.0772
  527MOL0     H69548  10.057   5.841   8.509  2.4121 -0.5668  1.9792
  527MOL0     H69549   9.835   5.723   8.585  3.1844 -0.5214  2.5196
  527MOL0     H69550   9.672   4.323   9.186  0.1189 -0.7288 -0.8726
  527MOL0     H69551   9.756   4.094   9.194  3.8024  1.0191 -0.5543
  527MOL0     H69552   9.957   3.744   8.904 -3.6485 -1.0868 -1.2295
  527MOL0     H69553  10.124   3.577   8.954  1.2337 -0.7905  0.4133
  527MOL0     H69554  10.134   3.279   9.041 -2.9003 -5.4295  0.1071
  527MOL0     H69555  10.023   3.268   9.169  0.1824 -0.9743  0.5304
  527MOL0     H69556  10.173   3.097   9.179  3.9422 -2.5188 -0.4409
  527MOL0     H69557  10.311   3.210   9.163 -0.6149  0.6548 -0.3557
  527MOL0     H69558  10.301   3.284   9.374  1.0747 -0.3025 -3.4836
  527MOL0     H69559  10.257   3.106   9.396  0.0782 -0.7876  1.6399
  527MOL0     H69560  10.126   3.228   9.553  1.7564 -2.2974 -0.2448
  527MOL0     H69561  10.062   3.334   9.419 -1.8858 -0.5932 -0.2058
  527MOL0     H69562   9.836   2.989   9.433  3.4781 -4.3407 -0.5673
  527MOL0     H69563   9.953   3.470   9.324  1.4126 -0.0664  0.8255
  527MOL0     H69564   9.767   3.650   9.286  0.7526 -2.1220  0.9775
  528MOL0     O69565   3.544   4.838   5.570  0.4284 -1.0383 -1.1631
  528MOL0     C69566   3.441   4.793   5.619  0.3038  0.0608  0.4057
  528MOL0     O69567   3.330   4.865   5.667 -0.6935  0.5188 -0.5414
  528MOL0     C69568   3.337   5.002   5.639  0.0883  0.5034  0.1286
  528MOL0     C69569   3.409   5.077   5.728  0.0943 -0.2752 -1.3531
  528MOL0     C69570   3.400   5.219   5.716 -0.4929  0.7264  0.7488
  528MOL0     C69571   3.321   5.272   5.612 -0.0537 -1.0077 -0.5131
  528MOL0     O69572   3.295   5.410   5.606 -0.1256  0.5302 -0.3489
  528MOL0     C69573   3.411   5.498   5.610  1.1567 -0.4443  0.1875
  528MOL0     C69574   3.415   5.581   5.481 -0.7204  1.0422  0.3865
  528MOL0     C69575   3.545   5.658   5.467  0.7841  0.0773 -0.1705
  528MOL0     C69576   3.575   5.759   5.579 -0.8962  0.8959  0.4439
  528MOL0     C69577   3.709   5.834   5.543  0.3956 -0.3822  0.8301
  528MOL0     C69578   3.788   5.890   5.656 -0.3970 -0.4464 -0.3101
  528MOL0     C69579   3.913   5.976   5.604  0.3600 -0.2822 -0.7440
  528MOL0     C69580   4.018   6.023   5.704  0.2597 -0.3804 -0.3124
  528MOL0     N69581   3.996   6.150   5.769 -0.2190 -0.2675 -0.1839
  528MOL0     C69582   3.926   6.184   5.889  0.0766  0.3375  0.3116
  528MOL0     C69583   3.941   6.315   5.910 -0.0988 -0.4153  0.1816
  528MOL0     C69584   3.909   6.399   6.031 -0.4349  0.7133  0.2688
  528MOL0     C69585   3.763   6.374   6.066  0.1392 -0.5562 -1.1835
  528MOL0     C69586   3.713   6.455   6.190 -0.4094 -0.4577  0.3992
  528MOL0     C69587   3.813   6.454   6.296 -0.2107  0.9429  0.3138
  528MOL0     O69588   3.753   6.498   6.415 -0.1716 -0.9239  0.2310
  528MOL0     C69589   3.831   6.573   6.500 -1.2486  0.5699 -0.3993
  528MOL0     C69590   3.961   6.537   6.530 -0.0007  0.4288  0.5642
  528MOL0     C69591   4.045   6.631   6.609 -0.6358  0.4874 -0.4048
  528MOL0     C69592   3.992   6.758   6.650  1.0035 -0.0731 -0.0664
  528MOL0     C69593   4.066   6.864   6.712  0.3468  0.1583  0.3424
  528MOL0     O69594   4.000   6.976   6.754 -0.5318 -0.4604  0.8334
  528MOL0     C69595   4.070   7.065   6.843  0.4511 -1.4064 -0.4138
  528MOL0     C69596   4.000   7.111   6.953  0.0472 -0.0388 -0.1900
  528MOL0     C69597   4.050   7.226   7.023  1.0603 -0.4319  0.0408
  528MOL0     C69598   4.169   7.289   6.987 -0.4819  0.3108 -0.6919
  528MOL0     O69599   4.238   7.389   7.045  0.2643 -0.5936 -0.7659
  528MOL0     C69600   4.184   7.464   7.155 -0.3439 -0.1896 -0.1091
  528MOL0     C69601   4.239   7.607   7.160  0.2539 -0.0405 -0.3126
  528MOL0     C69602   4.387   7.608   7.184 -0.5969 -0.9812 -0.3717
  528MOL0     C69603   4.447   7.752   7.208  0.5855  0.2745 -0.1673
  528MOL0     C69604   4.364   7.838   7.305  0.2865  1.0376 -1.1097
  528MOL0     C69605   4.365   7.785   7.444 -0.7981  0.5399  0.3336
  528MOL0     C69606   4.396   7.892   7.549  0.6047 -0.7720  0.7306
  528MOL0     C69607   4.462   7.840   7.679 -1.1528 -0.2173  0.5068
  528MOL0    Cl69608   4.419   7.679   7.746  0.3780 -0.1148  0.0021
  528MOL0     C69609   4.245   7.228   6.883  1.1321  0.3466  0.0157
  528MOL0     C69610   4.195   7.122   6.816  0.1402 -0.1289 -0.8355
  528MOL0     O69611   4.187   6.840   6.736  0.4581  0.1267  0.0746
  528MOL0     C69612   3.850   6.774   6.622 -0.1878 -0.6888 -0.4848
  528MOL0     C69613   3.771   6.685   6.550  0.3629  0.2956 -0.8814
  528MOL0     N69614   4.018   6.359   5.810  0.1880 -0.3352 -0.1205
  528MOL0     N69615   4.056   6.266   5.734  0.3398 -0.3419 -0.3019
  528MOL0     C69616   3.254   5.195   5.518 -0.0270 -0.0275  0.0517
  528MOL0     C69617   3.261   5.050   5.530 -0.3308  0.2014  0.4680
  528MOL0     C69618   3.440   4.650   5.638 -0.6860  0.3162 -0.1883
  528MOL0     C69619   3.534   4.566   5.574 -0.4752  0.5978 -0.1602
  528MOL0     C69620   3.526   4.426   5.586  1.2419  0.3415 -0.0706
  528MOL0     C69621   3.439   4.366   5.684  1.9788 -0.6715  0.3114
  528MOL0     O69622   3.409   4.233   5.688 -0.3466 -0.2530 -0.0978
  528MOL0     C69623   3.474   4.155   5.589  0.6772  0.2358 -0.1493
  528MOL0     C69624   3.406   4.003   5.595 -0.2876 -0.3124  0.6048
  528MOL0     C69625   3.259   3.996   5.612  0.1942  1.1292  1.0241
  528MOL0     C69626   3.185   3.871   5.588  0.1586  0.7965 -0.1201
  528MOL0     C69627   3.194   3.774   5.695  0.1646 -1.0024 -0.2515
  528MOL0     C69628   3.192   3.704   5.791  0.1098 -0.1041 -0.2330
  528MOL0     C69629   3.361   4.453   5.756  0.9861  0.9177 -0.4751
  528MOL0     C69630   3.357   4.593   5.726 -0.1098  0.0600 -0.2866
  528MOL0     H69631   3.458   5.037   5.817 -3.7455  2.8301  2.6238
  528MOL0     H69632   3.453   5.282   5.787 -0.6418  0.0322  1.5020
  528MOL0     H69633   3.510   5.458   5.631  2.9457  3.1768 -0.4553
  528MOL0     H69634   3.389   5.571   5.688  1.4187 -0.0618 -0.0920
  528MOL0     H69635   3.327   5.642   5.457  0.8892  2.2399 -3.4437
  528MOL0     H69636   3.417   5.503   5.405 -0.0239 -0.4384  1.8725
  528MOL0     H69637   3.535   5.723   5.380 -1.2120 -0.1750 -0.1703
  528MOL0     H69638   3.620   5.580   5.449 -0.5701 -0.8441 -2.1764
  528MOL0     H69639   3.494   5.832   5.589  0.8711  2.6644  3.6465
  528MOL0     H69640   3.584   5.717   5.680 -0.6307 -1.5674 -0.5445
  528MOL0     H69641   3.681   5.916   5.477 -2.5411 -0.8103  1.4212
  528MOL0     H69642   3.770   5.762   5.488 -0.4697  0.0297 -0.6977
  528MOL0     H69643   3.811   5.810   5.727  0.1714 -0.6766 -0.7446
  528MOL0     H69644   3.734   5.974   5.700  1.7682  2.0253 -2.0572
  528MOL0     H69645   3.950   5.918   5.520 -0.3543 -1.7059 -0.1103
  528MOL0     H69646   3.884   6.069   5.554  1.5981  1.2226  1.1759
  528MOL0     H69647   4.114   6.027   5.651 -0.5232  0.1465 -1.7427
  528MOL0     H69648   4.034   5.953   5.786  0.6026 -0.6072 -0.5662
  528MOL0     H69649   3.875   6.108   5.947 -0.1870  0.9926  0.9511
  528MOL0     H69650   3.933   6.503   6.011  2.0263  0.1526 -0.0499
  528MOL0     H69651   3.977   6.363   6.109  0.4226  0.1349 -0.7121
  528MOL0     H69652   3.744   6.269   6.093  2.0293 -0.5755  0.3192
  528MOL0     H69653   3.698   6.390   5.980 -2.2924 -1.5786  0.3754
  528MOL0     H69654   3.699   6.553   6.144  1.7232 -0.9039 -1.3573
  528MOL0     H69655   3.622   6.403   6.222 -2.0924 -0.2739 -3.5775
  528MOL0     H69656   3.898   6.520   6.274  0.3052  0.9519  2.1160
  528MOL0     H69657   3.845   6.351   6.310  0.2205  0.6858 -2.1261
  528MOL0     H69658   3.983   6.439   6.489  4.0404  1.5095 -0.3010
  528MOL0     H69659   4.150   6.609   6.627 -1.1981 -0.0150  2.8323
  528MOL0     H69660   3.905   7.061   6.970  1.2893 -1.9339  1.7201
  528MOL0     H69661   3.990   7.258   7.108  0.4014 -1.8402  0.1288
  528MOL0     H69662   4.232   7.417   7.242 -1.7757 -1.1386  0.1920
  528MOL0     H69663   4.075   7.460   7.154 -0.5011 -0.7310  3.6004
  528MOL0     H69664   4.187   7.656   7.243 -1.8052 -3.0317  0.3252
  528MOL0     H69665   4.212   7.642   7.060  0.8863 -0.2197 -0.5515
  528MOL0     H69666   4.437   7.554   7.103  1.6487  0.8482 -0.3159
  528MOL0     H69667   4.414   7.557   7.277  1.0170  1.8487  0.8296
  528MOL0     H69668   4.549   7.742   7.246 -0.2819 -1.6142  1.8730
  528MOL0     H69669   4.453   7.798   7.109  3.1465 -0.9175 -0.6305
  528MOL0     H69670   4.263   7.862   7.273  0.5676 -1.3427 -4.2254
  528MOL0     H69671   4.408   7.938   7.303 -0.0468  1.2034 -0.4760
  528MOL0     H69672   4.436   7.704   7.463  1.1663  2.0290 -0.2999
  528MOL0     H69673   4.260   7.758   7.460 -2.3555  4.5093 -1.7191
  528MOL0     H69674   4.461   7.970   7.508  2.4900 -2.4925  0.2539
  528MOL0     H69675   4.300   7.930   7.584  1.2085 -1.0806  2.8456
  528MOL0     H69676   4.464   7.922   7.751  0.3397 -1.8893  2.4892
  528MOL0     H69677   4.564   7.816   7.645 -1.8460 -0.0591 -1.8590
  528MOL0     H69678   4.350   7.257   6.877  0.8193  1.2719 -3.2737
  528MOL0     H69679   4.270   7.084   6.748  0.1494 -1.5511 -0.0812
  528MOL0     H69680   3.798   6.861   6.661 -3.3235 -2.5817 -0.1058
  528MOL0     H69681   3.666   6.695   6.528  0.1257  0.1687  0.1230
  528MOL0     H69682   3.188   5.246   5.449  1.7282  1.9689 -0.2157
  528MOL0     H69683   3.204   4.986   5.465  2.9817 -0.6629 -1.8621
  528MOL0     H69684   3.601   4.615   5.505 -0.0074 -0.4383 -0.4597
  528MOL0     H69685   3.605   4.376   5.531  1.5389  0.2348  0.4422
  528MOL0     H69686   3.580   4.138   5.608  0.4652 -1.1847 -0.1752
  528MOL0     H69687   3.448   4.198   5.492  1.0750  1.7088  0.3666
  528MOL0     H69688   3.434   3.954   5.501 -0.6375 -1.2587  0.9889
  528MOL0     H69689   3.448   3.955   5.684 -0.8462 -3.0378 -0.5170
  528MOL0     H69690   3.222   4.067   5.537 -0.5681 -1.5709 -1.3180
  528MOL0     H69691   3.231   4.025   5.713  2.6284  0.8545  1.8481
  528MOL0     H69692   3.078   3.889   5.573 -0.2794  0.0791  1.8502
  528MOL0     H69693   3.231   3.837   5.495 -1.7663 -0.3497 -0.6992
  528MOL0     H69694   3.184   3.652   5.885 -1.5741 -1.7230 -1.2045
  528MOL0     H69695   3.297   4.419   5.837 -0.0343  3.3965 -0.1462
  528MOL0     H69696   3.295   4.657   5.789  2.0386 -0.0469  2.1212
  529MOL0     O69697   8.627   2.608   5.743 -0.2977  1.0998 -0.7414
  529MOL0     C69698   8.696   2.621   5.640  0.7616 -0.0873 -0.2584
  529MOL0     O69699   8.678   2.732   5.559  0.0021 -0.0084  0.5131
  529MOL0     C69700   8.597   2.835   5.590  0.0378 -0.4026  0.5989
  529MOL0     C69701   8.616   2.913   5.710  0.4556  0.8832  0.4321
  529MOL0     C69702   8.523   3.017   5.747  0.2892  0.6951  0.2235
  529MOL0     C69703   8.417   3.051   5.668 -0.0836 -0.4342  0.4996
  529MOL0     O69704   8.323   3.148   5.690  0.0052 -0.0127  0.7377
  529MOL0     C69705   8.320   3.194   5.823  0.6051  0.1441  0.3526
  529MOL0     C69706   8.209   3.300   5.836  0.1400  1.1301 -0.4979
  529MOL0     C69707   8.073   3.235   5.847  0.6050 -0.4150 -0.1519
  529MOL0     C69708   7.965   3.333   5.898 -0.3580 -0.9252 -0.7558
  529MOL0     C69709   7.905   3.432   5.795  0.0598  0.0329  0.2445
  529MOL0     C69710   7.903   3.570   5.846  0.0399 -0.5479  0.4369
  529MOL0     C69711   7.772   3.582   5.915  0.3429  0.8193 -0.2427
  529MOL0     C69712   7.759   3.721   5.986  0.4917 -0.2879 -0.0837
  529MOL0     N69713   7.618   3.736   6.028 -0.3739  0.2991 -0.9190
  529MOL0     C69714   7.507   3.789   5.956 -0.5484 -0.0971 -0.6423
  529MOL0     C69715   7.409   3.804   6.042 -0.0047  0.0446 -0.6663
  529MOL0     C69716   7.265   3.829   6.023  0.6687 -0.5646 -0.6089
  529MOL0     C69717   7.187   3.834   6.150 -0.9689  0.2323  0.1236
  529MOL0     C69718   7.191   3.701   6.225 -0.7113  0.7081 -0.8756
  529MOL0     C69719   7.054   3.648   6.275 -0.7219 -0.6727 -0.8152
  529MOL0     O69720   6.992   3.756   6.350 -0.2214  0.1025  0.1372
  529MOL0     C69721   6.864   3.750   6.385  1.4254 -0.1153 -0.0615
  529MOL0     C69722   6.795   3.638   6.392  0.9428  0.1639 -0.4148
  529MOL0     C69723   6.656   3.631   6.424  1.0275  0.1909 -0.6983
  529MOL0     C69724   6.594   3.757   6.456 -0.3014  1.1324 -0.0963
  529MOL0     C69725   6.455   3.757   6.496  0.3602 -0.0208  0.3303
  529MOL0     O69726   6.402   3.869   6.546 -0.4217  0.3282  0.2566
  529MOL0     C69727   6.271   3.884   6.593 -1.1138 -0.5532 -0.3380
  529MOL0     C69728   6.165   3.842   6.523  0.7890  0.5894  0.5197
  529MOL0     C69729   6.036   3.865   6.556 -0.0601  0.0898 -1.0144
  529MOL0     C69730   6.004   3.944   6.669 -0.5171  0.7972  0.5320
  529MOL0     O69731   5.877   3.968   6.718 -0.4531 -0.1548  0.1699
  529MOL0     C69732   5.765   3.947   6.633 -0.3667  0.7669  0.3318
  529MOL0     C69733   5.646   4.021   6.699 -0.8386  0.1049  0.1698
  529MOL0     C69734   5.603   3.947   6.827 -0.7964 -0.2329  0.3477
  529MOL0     C69735   5.493   4.023   6.915 -0.8554 -0.8286  0.7627
  529MOL0     C69736   5.414   3.919   6.990 -0.6586 -0.9924  0.9017
  529MOL0     C69737   5.318   3.971   7.084  0.7725 -0.3986 -0.4087
  529MOL0     C69738   5.382   4.001   7.227  0.1771 -0.2161  0.0714
  529MOL0     C69739   5.282   3.999   7.334  0.3509 -0.2440  0.8104
  529MOL0    Cl69740   5.174   4.136   7.331 -0.3608  0.0475 -0.1482
  529MOL0     C69741   6.106   3.987   6.748 -1.0091  0.0911  0.4263
  529MOL0     C69742   6.239   3.955   6.716  1.1318 -0.2249 -0.9236
  529MOL0     O69743   6.393   3.657   6.466  0.1121 -0.1497 -1.0013
  529MOL0     C69744   6.664   3.874   6.440 -0.0931  0.3445  0.5002
  529MOL0     C69745   6.799   3.872   6.408 -0.4128  0.0179 -0.6880
  529MOL0     N69746   7.462   3.770   6.171 -0.9015 -0.6544  0.0896
  529MOL0     N69747   7.590   3.729   6.159 -0.0727 -0.1350  0.7667
  529MOL0     C69748   8.400   2.970   5.549  0.4198 -0.3086  0.1830
  529MOL0     C69749   8.484   2.863   5.512 -0.6808  1.2926 -0.3515
  529MOL0     C69750   8.804   2.528   5.603  0.5114 -0.4489  0.8286
  529MOL0     C69751   8.848   2.428   5.689 -0.0933  0.5507 -0.7660
  529MOL0     C69752   8.941   2.331   5.642  0.3262 -1.2553 -0.3487
  529MOL0     C69753   9.001   2.341   5.522 -0.1843 -0.5215 -0.1248
  529MOL0     O69754   9.077   2.235   5.505  0.3527 -0.2410 -0.3397
  529MOL0     C69755   9.122   2.219   5.372 -0.3596  0.3956 -0.1404
  529MOL0     C69756   9.219   2.094   5.352 -0.5835  0.4160 -0.5228
  529MOL0     C69757   9.153   1.959   5.357  0.0788 -0.3120 -0.6215
  529MOL0     C69758   9.239   1.831   5.323 -1.6875 -0.2395  0.3248
  529MOL0     C69759   9.173   1.709   5.373  0.2561  1.2754  0.1083
  529MOL0     C69760   9.126   1.604   5.413  0.4184 -0.3802 -0.6046
  529MOL0     C69761   8.955   2.437   5.435 -1.1369 -0.7971  0.0929
  529MOL0     C69762   8.859   2.528   5.474 -0.2120  0.1506  0.3812
  529MOL0     H69763   8.701   2.898   5.776  0.0943 -0.4146  0.6446
  529MOL0     H69764   8.536   3.054   5.848 -0.7992  1.9482 -0.0742
  529MOL0     H69765   8.418   3.238   5.842  0.6057 -0.3132  1.5522
  529MOL0     H69766   8.295   3.105   5.883 -0.4221  0.8575  1.0140
  529MOL0     H69767   8.215   3.378   5.759 -1.2568  0.5813 -1.2052
  529MOL0     H69768   8.234   3.344   5.933  1.1908  0.2344 -0.3384
  529MOL0     H69769   8.081   3.148   5.914  1.7188 -0.4281 -0.2865
  529MOL0     H69770   8.043   3.200   5.748  0.4693  2.8682 -1.3864
  529MOL0     H69771   7.883   3.265   5.924  0.9219 -1.8116  1.1828
  529MOL0     H69772   7.981   3.387   5.991 -4.3765  1.4857 -1.2071
  529MOL0     H69773   7.808   3.403   5.754  0.3130 -0.4619 -0.0132
  529MOL0     H69774   7.977   3.423   5.713  3.7949  1.8196  2.9910
  529MOL0     H69775   7.897   3.639   5.761 -1.2032 -1.2654 -0.0888
  529MOL0     H69776   7.992   3.587   5.906  1.6038 -0.4815 -1.7758
  529MOL0     H69777   7.699   3.575   5.834 -3.6726 -1.1381  3.1294
  529MOL0     H69778   7.753   3.501   5.987 -3.8604  0.1102 -1.8575
  529MOL0     H69779   7.787   3.803   5.919  4.5767 -1.0731  0.3831
  529MOL0     H69780   7.821   3.728   6.075  0.5911 -3.0432  0.1362
  529MOL0     H69781   7.501   3.799   5.848  5.7091 -2.8944 -1.6869
  529MOL0     H69782   7.218   3.750   5.964 -2.4046 -2.3246  3.7004
  529MOL0     H69783   7.254   3.926   5.974 -0.7294  1.4561  3.2791
  529MOL0     H69784   7.085   3.859   6.117  0.3221  0.5272 -4.2016
  529MOL0     H69785   7.218   3.911   6.221 -0.0286 -1.1693  1.2921
  529MOL0     H69786   7.218   3.621   6.155 -2.7922  0.2272 -1.2081
  529MOL0     H69787   7.262   3.701   6.308 -1.7677 -0.6395  0.0884
  529MOL0     H69788   7.077   3.560   6.336  0.1644  0.6483  0.8445
  529MOL0     H69789   7.000   3.617   6.185 -1.9410 -0.1300 -0.2824
  529MOL0     H69790   6.835   3.540   6.367  2.0760  0.8019 -1.2336
  529MOL0     H69791   6.592   3.544   6.439  0.3857  0.5872 -1.0983
  529MOL0     H69792   6.186   3.789   6.430 -0.3427 -0.8042  1.0253
  529MOL0     H69793   5.956   3.817   6.499  0.7389 -1.0066 -1.2460
  529MOL0     H69794   5.751   3.840   6.616 -3.0354  0.4573  3.4440
  529MOL0     H69795   5.795   3.995   6.540 -0.2342  0.7679  0.3751
  529MOL0     H69796   5.560   4.013   6.631 -0.4388 -1.1649 -0.2226
  529MOL0     H69797   5.668   4.127   6.713 -0.1904 -0.1484  1.1222
  529MOL0     H69798   5.695   3.938   6.885 -0.0518 -1.4296 -0.9490
  529MOL0     H69799   5.566   3.847   6.798  0.1047  0.2746 -3.0113
  529MOL0     H69800   5.548   4.094   6.979 -0.1919  1.6429 -2.3203
  529MOL0     H69801   5.432   4.093   6.858 -0.5458  0.5000  1.9764
  529MOL0     H69802   5.488   3.855   7.040 -0.0557 -0.6260  0.4798
  529MOL0     H69803   5.352   3.863   6.920 -1.5877 -3.3647  3.4367
  529MOL0     H69804   5.243   3.892   7.094  0.2169  0.0080 -1.3041
  529MOL0     H69805   5.263   4.062   7.057  1.3504  1.1122  2.9390
  529MOL0     H69806   5.456   3.926   7.253  1.0890 -0.2484 -2.3637
  529MOL0     H69807   5.426   4.101   7.214 -0.3369  0.0275  0.1775
  529MOL0     H69808   5.359   3.996   7.412  3.2566 -0.5183 -1.8803
  529MOL0     H69809   5.224   3.906   7.341  0.0535 -0.1659 -0.4071
  529MOL0     H69810   6.082   4.026   6.846  1.5904  3.2946 -0.0572
  529MOL0     H69811   6.324   3.995   6.770  2.8263  0.9815 -4.2390
  529MOL0     H69812   6.617   3.970   6.459  1.4058  1.1288  0.4224
  529MOL0     H69813   6.863   3.960   6.400 -3.8104  3.1665  2.7459
  529MOL0     H69814   8.305   2.976   5.497  1.5991 -1.4345 -2.3225
  529MOL0     H69815   8.448   2.800   5.431 -0.0577 -0.6975  0.8419
  529MOL0     H69816   8.813   2.426   5.792  1.4694 -2.7908 -0.1622
  529MOL0     H69817   8.978   2.250   5.704  1.1455 -1.7491 -1.4332
  529MOL0     H69818   9.164   2.316   5.343 -0.7195  1.2782  2.1239
  529MOL0     H69819   9.032   2.200   5.313  0.0960  1.1538 -1.1183
  529MOL0     H69820   9.264   2.110   5.254 -0.0593 -0.2013 -0.3857
  529MOL0     H69821   9.296   2.105   5.429  0.7451  0.2952 -1.7956
  529MOL0     H69822   9.063   1.952   5.295  0.3956  2.0057 -1.4440
  529MOL0     H69823   9.118   1.954   5.460  0.2842  1.0540 -0.4719
  529MOL0     H69824   9.254   1.818   5.215 -0.2923  1.7012  0.2342
  529MOL0     H69825   9.335   1.842   5.374 -2.5276  2.7804  1.4932
  529MOL0     H69826   9.076   1.511   5.432 -1.0593  0.9814  3.1101
  529MOL0     H69827   8.990   2.439   5.333 -0.8908 -0.3664  0.1828
  529MOL0     H69828   8.812   2.593   5.400 -0.7511  2.0336  2.2908
  530MOL0     O69829   7.349  10.316   4.976  0.1260  0.2047 -0.6864
  530MOL0     C69830   7.270  10.408   5.008 -0.8667 -0.4052  0.0138
  530MOL0     O69831   7.133  10.411   4.984 -0.4076 -0.6717  0.8253
  530MOL0     C69832   7.072  10.298   4.962 -0.3066  0.1388  1.0016
  530MOL0     C69833   6.999  10.284   4.842  0.0578 -0.7264  1.3027
  530MOL0     C69834   6.924  10.159   4.823 -0.0281 -0.0907 -0.4696
  530MOL0     C69835   6.924  10.069   4.929  1.0018  0.0510 -0.1909
  530MOL0     O69836   6.861   9.952   4.893  0.3188 -0.2920  0.5011
  530MOL0     C69837   6.938   9.831   4.895 -0.3750 -0.0104  1.5630
  530MOL0     C69838   6.858   9.714   4.849 -1.3650 -0.7582 -0.4835
  530MOL0     C69839   6.901   9.568   4.887 -0.2515  0.5862  0.1783
  530MOL0     C69840   6.823   9.463   4.813 -0.8624 -0.1042 -0.1986
  530MOL0     C69841   6.923   9.352   4.762 -0.5527 -0.5142  0.0177
  530MOL0     C69842   6.949   9.249   4.877 -0.0348 -0.6766  0.1873
  530MOL0     C69843   6.956   9.109   4.826 -0.8400  0.6714 -0.4003
  530MOL0     C69844   7.090   9.082   4.754 -0.0725  0.1779 -0.0099
  530MOL0     N69845   7.105   8.934   4.745  0.2175 -0.4815 -0.2137
  530MOL0     C69846   7.181   8.853   4.823  0.4768  0.2212 -0.4561
  530MOL0     C69847   7.200   8.740   4.763  0.2058  0.5146  0.6695
  530MOL0     C69848   7.253   8.610   4.811  0.0677 -0.2865 -0.2246
  530MOL0     C69849   7.161   8.576   4.924  0.7669 -0.0197  0.5934
  530MOL0     C69850   7.185   8.437   4.987 -0.0137  0.4760 -0.4260
  530MOL0     C69851   7.318   8.441   5.073 -0.0884 -0.5670 -0.2194
  530MOL0     O69852   7.349   8.565   5.126  0.1341  0.7309 -0.6536
  530MOL0     C69853   7.472   8.576   5.182  0.1241 -0.2171 -0.7095
  530MOL0     C69854   7.555   8.467   5.209 -0.5694  0.8631  0.1782
  530MOL0     C69855   7.684   8.487   5.254  0.0526 -0.4472 -0.2195
  530MOL0     C69856   7.720   8.618   5.297 -0.1146 -0.5211 -0.6627
  530MOL0     C69857   7.858   8.653   5.332  0.8660 -1.3556 -1.2166
  530MOL0     O69858   7.946   8.549   5.325 -1.1431 -0.1722  0.8296
  530MOL0     C69859   8.082   8.577   5.329 -0.0430 -0.0975  0.6013
  530MOL0     C69860   8.149   8.654   5.234  0.0200  0.2894 -0.2077
  530MOL0     C69861   8.289   8.680   5.248  0.6766 -0.7728 -0.1260
  530MOL0     C69862   8.352   8.632   5.367 -1.2140  0.6160  0.4961
  530MOL0     O69863   8.492   8.649   5.371 -0.4319 -0.1785  0.5226
  530MOL0     C69864   8.563   8.582   5.475 -0.7512 -0.7860 -0.8624
  530MOL0     C69865   8.713   8.592   5.438 -0.6401  0.0227 -0.6368
  530MOL0     C69866   8.773   8.723   5.492 -0.0215 -0.2537 -0.6795
  530MOL0     C69867   8.929   8.725   5.453  0.4882 -0.4560 -0.3161
  530MOL0     C69868   8.997   8.830   5.546 -1.6421  0.8034 -0.6652
  530MOL0     C69869   9.004   8.792   5.695  0.5017  0.2757  0.0623
  530MOL0     C69870   9.030   8.646   5.715  0.0441 -0.4695  0.3950
  530MOL0     C69871   9.069   8.599   5.852  0.8107  0.9963  0.6777
  530MOL0    Cl69872   9.079   8.414   5.863  0.4140  0.5904 -0.0212
  530MOL0     C69873   8.290   8.547   5.455  1.0026 -0.7050 -0.1869
  530MOL0     C69874   8.154   8.522   5.438 -0.0266 -0.2868 -0.0119
  530MOL0     O69875   7.888   8.772   5.348  0.0690  0.0909  0.3579
  530MOL0     C69876   7.627   8.725   5.278  0.1439  0.0869 -0.0973
  530MOL0     C69877   7.502   8.709   5.216  0.3344  0.0574  0.9706
  530MOL0     N69878   7.134   8.747   4.644  0.0575  0.6626 -0.0495
  530MOL0     N69879   7.083   8.862   4.628  0.5580 -0.3562 -0.4310
  530MOL0     C69880   7.011  10.078   5.041 -0.3760  0.9157 -0.8594
  530MOL0     C69881   7.080  10.198   5.059  0.6517  0.3003 -1.5255
  530MOL0     C69882   7.313  10.522   5.087 -0.3971 -0.7878  0.0690
  530MOL0     C69883   7.229  10.622   5.136 -0.0753 -0.3973  0.6404
  530MOL0     C69884   7.273  10.722   5.223 -0.9668 -0.0399 -0.7023
  530MOL0     C69885   7.407  10.731   5.257 -0.9423  0.2221 -0.0306
  530MOL0     O69886   7.465  10.834   5.333  0.0735  0.0373 -0.4426
  530MOL0     C69887   7.399  10.943   5.403  0.6457  1.3095  0.1703
  530MOL0     C69888   7.362  11.041   5.294 -0.3929 -0.0245 -1.0271
  530MOL0     C69889   7.284  11.155   5.357  0.1598  0.4752  0.1527
  530MOL0     C69890   7.368  11.290   5.346 -0.8889  0.4970 -0.3348
  530MOL0     C69891   7.502  11.265   5.413  0.2997  0.6647  0.0676
  530MOL0     C69892   7.601  11.234   5.469 -0.1224 -0.9889  0.1923
  530MOL0     C69893   7.497  10.638   5.217  0.9870 -0.3906  0.4732
  530MOL0     C69894   7.453  10.542   5.131 -0.0864  0.4154 -0.3125
  530MOL0     H69895   7.001  10.367   4.772 -0.6093 -0.7361  1.2632
  530MOL0     H69896   6.884  10.128   4.728 -1.1151  0.4168 -0.1949
  530MOL0     H69897   6.977   9.809   4.995 -1.4490 -0.0727  1.9804
  530MOL0     H69898   7.025   9.833   4.830  0.8226 -3.2195  2.8692
  530MOL0     H69899   6.842   9.713   4.740 -0.2467 -0.9744 -0.6573
  530MOL0     H69900   6.764   9.738   4.899 -0.6108 -0.0684  0.6321
  530MOL0     H69901   6.874   9.556   4.992 -2.7737 -1.5422 -0.6117
  530MOL0     H69902   7.005   9.549   4.859 -0.7466 -0.0877 -1.2806
  530MOL0     H69903   6.741   9.425   4.875  0.2450 -0.7388  0.9404
  530MOL0     H69904   6.787   9.509   4.721  3.1911  2.6232 -0.7051
  530MOL0     H69905   7.019   9.394   4.730  0.7492 -1.7171  2.1328
  530MOL0     H69906   6.879   9.296   4.679 -3.9434  0.9794  0.6646
  530MOL0     H69907   6.864   9.261   4.945  0.2654  2.7892  0.1453
  530MOL0     H69908   7.032   9.284   4.938  0.4374 -1.4638  0.0078
  530MOL0     H69909   6.939   9.043   4.910 -0.7934 -0.4888 -1.2787
  530MOL0     H69910   6.872   9.096   4.757  0.0681 -3.0688 -1.0080
  530MOL0     H69911   7.172   9.134   4.806  1.1172 -0.6767 -0.9699
  530MOL0     H69912   7.092   9.120   4.652  2.9458  1.5672  0.4444
  530MOL0     H69913   7.222   8.878   4.920  2.6574 -3.3021 -0.2903
  530MOL0     H69914   7.361   8.612   4.829  0.3408 -0.8039 -1.6789
  530MOL0     H69915   7.235   8.542   4.728  1.2441 -1.5505  0.5114
  530MOL0     H69916   7.060   8.568   4.884  1.0313  2.7379 -0.8357
  530MOL0     H69917   7.156   8.655   4.999 -1.7036 -0.7333  1.2663
  530MOL0     H69918   7.110   8.419   5.064  0.1713  0.1085 -0.3337
  530MOL0     H69919   7.174   8.353   4.918 -2.1496  1.0399 -0.8559
  530MOL0     H69920   7.400   8.416   5.004  2.6601  0.5994  2.4079
  530MOL0     H69921   7.319   8.367   5.153  2.7528  0.4131  0.7644
  530MOL0     H69922   7.537   8.371   5.163 -0.8407  0.4679  1.1013
  530MOL0     H69923   7.755   8.405   5.258  1.1847  0.5525  0.5056
  530MOL0     H69924   8.098   8.706   5.154  1.4263  2.1619  0.0324
  530MOL0     H69925   8.364   8.727   5.185  2.2446 -1.6697  0.9973
  530MOL0     H69926   8.539   8.476   5.466 -1.2232 -0.7364 -0.2355
  530MOL0     H69927   8.554   8.611   5.580  1.8110 -2.9743  0.0814
  530MOL0     H69928   8.719   8.587   5.329  0.0501  1.5129 -0.6911
  530MOL0     H69929   8.761   8.502   5.478 -0.6034 -0.6274 -2.0667
  530MOL0     H69930   8.761   8.738   5.600  2.7233  0.7350 -0.4306
  530MOL0     H69931   8.736   8.815   5.446 -1.8718  1.5324  3.7713
  530MOL0     H69932   8.984   8.631   5.459  0.9636 -0.1080  1.0252
  530MOL0     H69933   8.941   8.738   5.345  0.5819 -1.3101 -0.4106
  530MOL0     H69934   8.958   8.931   5.535  0.1532  1.7119  0.8040
  530MOL0     H69935   9.101   8.826   5.512 -1.8854 -0.1707 -1.3548
  530MOL0     H69936   8.914   8.828   5.745 -0.0253 -1.2021  0.2239
  530MOL0     H69937   9.095   8.841   5.731 -0.9044  2.2938  1.0147
  530MOL0     H69938   8.941   8.595   5.678 -0.9367  0.9724  0.7009
  530MOL0     H69939   9.114   8.612   5.653  2.4331  2.8111  1.5494
  530MOL0     H69940   8.996   8.630   5.928 -4.2560 -0.4563 -3.0371
  530MOL0     H69941   9.172   8.631   5.872  0.0898  1.9095  3.3550
  530MOL0     H69942   8.338   8.495   5.537 -1.4965 -1.5692  0.8332
  530MOL0     H69943   8.096   8.468   5.512 -0.0490  1.6542  1.4686
  530MOL0     H69944   7.667   8.822   5.304  2.6026 -0.5122 -1.3221
  530MOL0     H69945   7.444   8.800   5.207 -0.2858 -0.5448 -3.9215
  530MOL0     H69946   7.022  10.004   5.120  1.2071  4.3929  2.4769
  530MOL0     H69947   7.135  10.238   5.144 -2.9591  2.6989 -0.0920
  530MOL0     H69948   7.122  10.609   5.124 -0.1660 -0.8228  1.7581
  530MOL0     H69949   7.211  10.797   5.272  2.4820  2.9893 -0.4843
  530MOL0     H69950   7.468  11.000   5.466 -1.5748  3.4912  0.7988
  530MOL0     H69951   7.306  10.921   5.456 -0.5259  1.8625 -1.5458
  530MOL0     H69952   7.449  11.077   5.239 -1.0138  0.2792 -1.8193
  530MOL0     H69953   7.296  10.995   5.220 -1.0572 -0.1456 -0.3765
  530MOL0     H69954   7.254  11.136   5.460  0.6637 -0.5369  0.1206
  530MOL0     H69955   7.202  11.172   5.287  1.7395 -1.2496 -2.2873
  530MOL0     H69956   7.393  11.300   5.240 -0.5421  0.7229 -0.2317
  530MOL0     H69957   7.313  11.377   5.385 -0.5032  0.0000  1.3971
  530MOL0     H69958   7.681  11.230   5.540 -0.4220 -0.4102  0.5666
  530MOL0     H69959   7.604  10.650   5.231  1.2517 -1.0796 -0.7832
  530MOL0     H69960   7.525  10.469   5.096  3.0621  3.1303  0.0550
  531MOL0     O69961   7.852   1.966   4.263 -1.0499 -0.8699 -0.1507
  531MOL0     C69962   7.848   1.893   4.167 -0.0755  0.0499  0.3424
  531MOL0     O69963   7.785   1.777   4.159 -0.2691 -0.0303  0.2340
  531MOL0     C69964   7.730   1.719   4.273  0.0419  0.8086  0.4171
  531MOL0     C69965   7.616   1.784   4.317 -0.4206  0.6075  0.4263
  531MOL0     C69966   7.547   1.734   4.436  0.0206 -0.7186 -0.5496
  531MOL0     C69967   7.594   1.626   4.499  0.0263 -0.1741 -1.2950
  531MOL0     O69968   7.522   1.589   4.609 -0.5333  0.3757 -0.7474
  531MOL0     C69969   7.601   1.530   4.710  0.2653 -0.9090  0.1575
  531MOL0     C69970   7.586   1.374   4.701 -0.8766  0.6638 -0.0295
  531MOL0     C69971   7.455   1.328   4.772 -0.6773  0.4896 -0.0571
  531MOL0     C69972   7.465   1.186   4.813 -1.2040 -0.0841 -0.2130
  531MOL0     C69973   7.555   1.147   4.929 -0.2928  0.2167 -1.0201
  531MOL0     C69974   7.507   1.172   5.070 -0.4525 -0.0596  0.3805
  531MOL0     C69975   7.401   1.080   5.105  0.9629  0.6916 -0.0959
  531MOL0     C69976   7.365   1.091   5.267 -0.9402  0.0690  1.0309
  531MOL0     N69977   7.226   1.046   5.281 -0.7497  0.0521 -0.3850
  531MOL0     C69978   7.174   0.923   5.260 -0.7519 -0.0858  0.0575
  531MOL0     C69979   7.041   0.918   5.279  0.0791  0.5284  0.1016
  531MOL0     C69980   6.954   0.803   5.228  0.3459  0.8638  0.2183
  531MOL0     C69981   6.866   0.741   5.334  0.0999 -0.1823 -0.0325
  531MOL0     C69982   6.734   0.820   5.376 -0.3259 -0.3654  0.8570
  531MOL0     C69983   6.647   0.743   5.467 -0.2485 -0.6190  0.2506
  531MOL0     O69984   6.532   0.826   5.509  0.5273 -0.0587 -0.1039
  531MOL0     C69985   6.413   0.781   5.461  0.8309 -0.6856 -0.1047
  531MOL0     C69986   6.305   0.786   5.556 -1.2284  0.3156  0.2886
  531MOL0     C69987   6.185   0.730   5.523  0.7670  0.6193 -0.5508
  531MOL0     C69988   6.167   0.692   5.389  0.4407 -0.3454  0.1099
  531MOL0     C69989   6.035   0.647   5.345  0.4875 -0.3300  0.3937
  531MOL0     O69990   5.964   0.577   5.444  0.0181  0.6515  0.7458
  531MOL0     C69991   5.837   0.525   5.430 -0.0230  0.2456 -0.0480
  531MOL0     C69992   5.729   0.582   5.491 -0.0931  0.7245 -0.1791
  531MOL0     C69993   5.596   0.531   5.480 -0.1696  0.1860 -0.2433
  531MOL0     C69994   5.571   0.418   5.393 -0.0862  0.4543 -0.7651
  531MOL0     O69995   5.442   0.367   5.374 -0.2825  0.0226  0.5948
  531MOL0     C69996   5.400   0.332   5.243  0.2324  0.5294 -0.3545
  531MOL0     C69997   5.256   0.266   5.244 -0.6419 -0.0097 -0.5144
  531MOL0     C69998   5.226   0.212   5.108  0.8126  0.3065 -0.6549
  531MOL0     C69999   5.076   0.175   5.093  0.0032 -0.4079  0.5330
  531MOL0     C70000   5.038   0.168   4.935  0.1362  0.0997  0.4279
  531MOL0     C70001   5.040   0.030   4.865 -0.0880 -0.2461  1.0377
  531MOL0     C70002   5.177  -0.025   4.841  0.0709 -0.2640 -0.0281
  531MOL0     C70003   5.164  -0.132   4.736  0.3920  0.6293 -0.9179
  531MOL0    Cl70004   5.060  -0.269   4.800  0.0444  0.3474 -0.1569
  531MOL0     C70005   5.676   0.355   5.335 -1.1233 -0.1927 -0.0452
  531MOL0     C70006   5.801   0.417   5.353 -0.8256  0.5632 -0.2838
  531MOL0     O70007   5.983   0.675   5.235 -0.3381 -0.1844 -0.9679
  531MOL0     C70008   6.265   0.711   5.289  0.8127  1.0195 -0.3545
  531MOL0     C70009   6.390   0.747   5.332  0.2652 -0.3293 -0.4130
  531MOL0     N70010   7.004   1.051   5.302 -0.1656 -0.3365 -0.8645
  531MOL0     N70011   7.120   1.120   5.312 -0.0304  0.0168  0.1877
  531MOL0     C70012   7.717   1.562   4.454  0.1770 -0.1744 -0.5953
  531MOL0     C70013   7.787   1.612   4.343 -0.1109 -0.5840 -0.4690
  531MOL0     C70014   7.913   1.932   4.033 -1.1208 -0.5786 -0.3755
  531MOL0     C70015   7.934   1.855   3.917  0.2173 -0.4422 -1.2900
  531MOL0     C70016   7.985   1.903   3.808 -0.9478  0.2107 -0.1682
  531MOL0     C70017   8.011   2.029   3.787  0.2753  0.3315  0.8226
  531MOL0     O70018   8.037   2.067   3.659 -0.2153  0.0833 -0.0915
  531MOL0     C70019   7.923   2.107   3.581 -0.3592 -0.4093  0.0834
  531MOL0     C70020   7.922   2.262   3.553 -0.5598  0.2077 -0.0935
  531MOL0     C70021   7.884   2.296   3.416 -0.1693  0.4059 -0.5751
  531MOL0     C70022   7.733   2.304   3.381  0.8388 -0.9810  0.0329
  531MOL0     C70023   7.711   2.364   3.245  0.0481 -0.4007  0.9449
  531MOL0     C70024   7.716   2.424   3.137 -0.3845  0.4753 -1.1615
  531MOL0     C70025   7.994   2.122   3.886  0.2467 -0.4499 -0.1630
  531MOL0     C70026   7.958   2.068   4.014 -1.0011 -0.0900 -0.5212
  531MOL0     H70027   7.583   1.873   4.265 -0.7692 -1.1275 -2.5471
  531MOL0     H70028   7.459   1.780   4.481  1.1683  0.1069  0.9373
  531MOL0     H70029   7.570   1.557   4.811  1.9782 -2.1936  1.0918
  531MOL0     H70030   7.706   1.560   4.713  2.0005 -5.7094 -1.6185
  531MOL0     H70031   7.684   1.343   4.740  1.5985  3.6160 -3.2521
  531MOL0     H70032   7.583   1.333   4.599  0.0123  1.0958 -0.2383
  531MOL0     H70033   7.371   1.340   4.702 -1.9148  0.5497  1.3703
  531MOL0     H70034   7.429   1.380   4.864 -2.8468  1.5863 -1.1990
  531MOL0     H70035   7.364   1.150   4.831 -0.9344 -1.8807 -1.9270
  531MOL0     H70036   7.508   1.141   4.723  0.9489  4.2281 -1.6398
  531MOL0     H70037   7.648   1.201   4.911  0.4713 -0.1630  1.3877
  531MOL0     H70038   7.594   1.045   4.925  0.7727  0.5959 -0.6713
  531MOL0     H70039   7.461   1.268   5.097  1.9836  1.1235  0.6393
  531MOL0     H70040   7.591   1.158   5.139 -0.1536  0.2963  0.0957
  531MOL0     H70041   7.313   1.107   5.047 -0.2794 -1.9506  0.4457
  531MOL0     H70042   7.432   0.978   5.081  1.5284  0.6808  0.6142
  531MOL0     H70043   7.368   1.196   5.297 -2.8732  1.6692 -3.5257
  531MOL0     H70044   7.420   1.027   5.336  0.8021 -0.8632 -1.0773
  531MOL0     H70045   7.243   0.839   5.259 -0.3714  0.0992  2.7926
  531MOL0     H70046   7.018   0.725   5.186  1.1563  1.3498  0.5287
  531MOL0     H70047   6.897   0.841   5.143  0.4341  1.5043  0.4397
  531MOL0     H70048   6.931   0.722   5.420 -2.2218 -1.3367  1.5705
  531MOL0     H70049   6.826   0.647   5.295 -0.5455  0.1202 -0.1078
  531MOL0     H70050   6.772   0.907   5.430  0.3300  0.0155 -0.1878
  531MOL0     H70051   6.701   0.857   5.278 -1.1174  2.5839  2.1506
  531MOL0     H70052   6.696   0.713   5.560  1.7521  2.6800  0.4247
  531MOL0     H70053   6.620   0.650   5.416  1.0802 -0.6786 -0.3637
  531MOL0     H70054   6.343   0.813   5.654 -1.5470 -3.4014  1.6122
  531MOL0     H70055   6.108   0.714   5.598  2.7304 -1.2931  1.2077
  531MOL0     H70056   5.746   0.677   5.541 -4.2339  1.8716 -0.5875
  531MOL0     H70057   5.518   0.584   5.533  0.2853  0.2492  0.3751
  531MOL0     H70058   5.465   0.250   5.212  0.1127 -0.5799  2.0414
  531MOL0     H70059   5.410   0.414   5.172  1.7839 -0.7037 -1.6328
  531MOL0     H70060   5.179   0.343   5.251 -1.6735 -0.6309 -3.4845
  531MOL0     H70061   5.238   0.196   5.326 -3.6298  3.0271  1.6716
  531MOL0     H70062   5.273   0.114   5.098 -4.1151 -2.8627  2.7350
  531MOL0     H70063   5.260   0.289   5.038 -3.6805  1.8654 -1.4465
  531MOL0     H70064   5.053   0.081   5.143 -1.2792 -1.7559 -2.4025
  531MOL0     H70065   5.010   0.244   5.148  1.6262  1.7444 -0.0527
  531MOL0     H70066   5.105   0.230   4.873  1.5802 -0.4060  1.4332
  531MOL0     H70067   4.933   0.193   4.922 -0.1326 -0.6591  1.1196
  531MOL0     H70068   4.990   0.044   4.769 -1.3993 -2.5013  1.3143
  531MOL0     H70069   4.980  -0.035   4.929  2.1595 -1.0346  2.4681
  531MOL0     H70070   5.230   0.064   4.805 -0.2615  0.3782  1.0230
  531MOL0     H70071   5.225  -0.065   4.931  1.1639  1.1045  0.0451
  531MOL0     H70072   5.262  -0.170   4.708  1.7584  2.3354  1.1802
  531MOL0     H70073   5.120  -0.106   4.639  2.7701  1.7333 -1.7774
  531MOL0     H70074   5.659   0.260   5.283 -2.1310 -0.7684  1.2734
  531MOL0     H70075   5.887   0.380   5.299 -0.6244 -0.1301  0.4941
  531MOL0     H70076   6.266   0.684   5.184  4.8400 -2.3555  0.3220
  531MOL0     H70077   6.468   0.754   5.257  0.1631  0.7094 -0.4399
  531MOL0     H70078   7.750   1.479   4.516  1.6548  2.1225  1.8552
  531MOL0     H70079   7.881   1.566   4.313 -0.5059 -0.0445 -2.7549
  531MOL0     H70080   7.908   1.749   3.918 -1.0786 -0.1382 -0.2433
  531MOL0     H70081   7.983   1.828   3.730 -0.0904 -0.5580  0.5328
  531MOL0     H70082   7.829   2.076   3.629 -0.8859  2.4650  1.1004
  531MOL0     H70083   7.918   2.057   3.484  0.4969  1.3735 -0.9342
  531MOL0     H70084   7.866   2.319   3.628 -2.2467  1.0482 -1.9193
  531MOL0     H70085   8.024   2.298   3.569 -1.5247  1.5244  4.5809
  531MOL0     H70086   7.926   2.223   3.346 -0.5016 -0.4830  0.1422
  531MOL0     H70087   7.933   2.391   3.391  1.8098 -0.9529 -2.2104
  531MOL0     H70088   7.681   2.208   3.381  2.8446 -2.1268  0.6329
  531MOL0     H70089   7.683   2.377   3.446  1.2817  2.0427 -2.7721
  531MOL0     H70090   7.721   2.494   3.056  1.2402 -0.3244 -1.8167
  531MOL0     H70091   8.004   2.230   3.876 -0.4739 -0.4064 -0.4657
  531MOL0     H70092   7.953   2.134   4.100  0.2645 -0.1154 -0.4099
  532MOL0     O70093   9.440   6.442   4.599  0.1283  0.1688  0.7101
  532MOL0     C70094   9.509   6.535   4.550 -1.0174 -0.0552 -0.7320
  532MOL0     O70095   9.589   6.626   4.622  0.8563  0.6463 -0.7991
  532MOL0     C70096   9.597   6.634   4.758 -0.5133 -0.0043 -0.4417
  532MOL0     C70097   9.680   6.541   4.826  0.2787 -0.2246  0.3423
  532MOL0     C70098   9.700   6.561   4.964  0.5021 -0.3179 -0.1543
  532MOL0     C70099   9.651   6.679   5.037 -0.1468 -1.2566  1.0805
  532MOL0     O70100   9.660   6.709   5.170 -0.0185  0.7286  0.6582
  532MOL0     C70101   9.661   6.589   5.266 -0.3086 -1.1432  1.3060
  532MOL0     C70102   9.700   6.651   5.400  0.3750 -0.2748  0.1862
  532MOL0     C70103   9.849   6.617   5.434 -0.4382  0.6379  0.1277
  532MOL0     C70104   9.893   6.687   5.563  0.2560  1.2181 -0.1947
  532MOL0     C70105  10.031   6.631   5.600  0.6399 -0.3618  1.5020
  532MOL0     C70106  10.099   6.708   5.721  0.1974  0.1934  0.3883
  532MOL0     C70107  10.016   6.703   5.850 -0.1913  0.5085  0.2003
  532MOL0     C70108  10.075   6.798   5.949  0.9920 -0.5474 -0.2041
  532MOL0     N70109  10.077   6.940   5.913  0.3248 -0.6347 -0.0602
  532MOL0     C70110  10.177   7.020   5.853  0.1013 -0.0614 -0.0288
  532MOL0     C70111  10.129   7.142   5.865  0.5137  0.7853 -0.2523
  532MOL0     C70112  10.211   7.259   5.823  1.7646  0.1123  0.8136
  532MOL0     C70113  10.144   7.331   5.700 -0.0450  0.2464  0.4564
  532MOL0     C70114  10.162   7.259   5.565  0.1612  0.2177 -0.1021
  532MOL0     C70115  10.302   7.277   5.496  0.1649  0.4967  0.3194
  532MOL0     O70116  10.304   7.246   5.360  0.1850 -0.3360 -0.1021
  532MOL0     C70117  10.271   7.119   5.313  0.2712 -0.7225  0.6602
  532MOL0     C70118  10.258   7.002   5.393 -0.2182  0.6573  0.0222
  532MOL0     C70119  10.209   6.886   5.334  1.0972  0.2753 -0.2524
  532MOL0     C70120  10.169   6.880   5.201 -0.5217  0.5577 -0.3959
  532MOL0     C70121  10.104   6.754   5.141 -0.1356 -0.0682 -0.2660
  532MOL0     O70122  10.145   6.639   5.193 -0.1519  0.1233  0.5788
  532MOL0     C70123  10.096   6.522   5.132  0.3569  0.0922 -0.2128
  532MOL0     C70124  10.105   6.488   5.004  0.4887  0.7705  0.3054
  532MOL0     C70125  10.074   6.364   4.951  0.0723  0.0641  0.3085
  532MOL0     C70126  10.027   6.267   5.031  0.2938 -0.3533  0.8005
  532MOL0     O70127  10.000   6.139   4.991  0.4644 -0.1920  0.2269
  532MOL0     C70128   9.960   6.124   4.858 -0.4374  0.1935 -0.7230
  532MOL0     C70129   9.806   6.135   4.848 -0.0901  0.2118 -0.6453
  532MOL0     C70130   9.756   6.115   4.707 -0.3429 -0.8420  0.3665
  532MOL0     C70131   9.610   6.154   4.676  0.7007  0.5603 -0.4559
  532MOL0     C70132   9.569   6.093   4.540  0.4909 -0.3532  0.4191
  532MOL0     C70133   9.418   6.112   4.502 -0.4079  0.5075 -0.2468
  532MOL0     C70134   9.353   5.998   4.431 -0.3960 -0.0956  0.8632
  532MOL0     C70135   9.405   5.969   4.295 -0.1451 -0.5950 -0.9830
  532MOL0    Cl70136   9.354   6.111   4.193  0.4295  0.4089  0.1959
  532MOL0     C70137  10.012   6.297   5.171 -0.4277  1.0447  1.0808
  532MOL0     C70138  10.061   6.416   5.225 -0.3624  0.1885  0.3340
  532MOL0     O70139  10.026   6.757   5.047 -0.0400 -0.0340  0.2126
  532MOL0     C70140  10.179   6.996   5.121  0.4077  0.5473 -1.1961
  532MOL0     C70141  10.228   7.118   5.180  1.0264 -0.1943  0.0930
  532MOL0     N70142  10.002   7.137   5.915  1.0447 -0.6982 -0.1957
  532MOL0     N70143   9.968   7.016   5.949 -0.1355  0.0752 -0.5985
  532MOL0     C70144   9.574   6.769   4.964 -0.4585 -0.8391  0.5642
  532MOL0     C70145   9.543   6.739   4.828 -1.1876  0.3062 -0.3039
  532MOL0     C70146   9.525   6.532   4.403  0.2529 -0.5480 -0.1592
  532MOL0     C70147   9.434   6.481   4.317  0.9612 -0.1328 -0.2395
  532MOL0     C70148   9.451   6.469   4.184 -0.8811  0.1061 -1.0331
  532MOL0     C70149   9.580   6.499   4.127 -0.4292  0.2654 -0.4854
  532MOL0     O70150   9.603   6.483   3.994 -0.0372 -0.0431  0.5507
  532MOL0     C70151   9.525   6.410   3.899 -0.0622  0.1121 -0.4126
  532MOL0     C70152   9.579   6.411   3.750 -0.5429 -0.3634 -0.5479
  532MOL0     C70153   9.729   6.395   3.749 -0.1177  0.3584 -0.4065
  532MOL0     C70154   9.778   6.266   3.821 -0.2779 -0.1954  0.0533
  532MOL0     C70155   9.685   6.150   3.796 -0.0601  0.4000  0.0730
  532MOL0     C70156   9.611   6.061   3.751 -0.6144 -0.1263 -0.2013
  532MOL0     C70157   9.673   6.561   4.204 -0.5558 -0.6573 -0.6186
  532MOL0     C70158   9.640   6.577   4.340 -0.5750 -0.9784 -1.2135
  532MOL0     H70159   9.735   6.466   4.768 -0.7269  1.4912 -3.1231
  532MOL0     H70160   9.752   6.479   5.013 -2.0474 -1.4729  0.8015
  532MOL0     H70161   9.735   6.512   5.240 -0.7855 -0.8373 -1.1520
  532MOL0     H70162   9.557   6.555   5.265 -0.5067 -0.7075 -1.5164
  532MOL0     H70163   9.636   6.612   5.480 -0.7812 -1.6573 -1.3308
  532MOL0     H70164   9.677   6.756   5.384  1.5801  0.0408  0.4782
  532MOL0     H70165   9.922   6.636   5.355 -0.0746 -2.9977 -0.6006
  532MOL0     H70166   9.840   6.509   5.448 -4.0601  0.7591 -0.2342
  532MOL0     H70167   9.904   6.792   5.536 -2.8579  0.9236 -3.3863
  532MOL0     H70168   9.816   6.689   5.641 -1.0345 -0.9506 -1.3214
  532MOL0     H70169  10.096   6.635   5.512 -1.9983 -1.7949 -0.6344
  532MOL0     H70170  10.022   6.524   5.622  2.9637 -0.4369  2.4406
  532MOL0     H70171  10.108   6.813   5.693  1.6789  0.3072  1.1976
  532MOL0     H70172  10.193   6.663   5.753 -0.4688 -1.0102  0.7323
  532MOL0     H70173   9.912   6.731   5.832 -0.2857 -0.8089 -1.6497
  532MOL0     H70174  10.017   6.606   5.900  5.8068  0.0936 -0.0332
  532MOL0     H70175  10.175   6.759   5.968  2.5897  1.3743 -3.7063
  532MOL0     H70176  10.010   6.795   6.037 -1.0625  0.4170 -1.5908
  532MOL0     H70177  10.274   6.988   5.816  0.9055  0.0537  1.9104
  532MOL0     H70178  10.314   7.236   5.794  1.4866 -0.7726  0.4768
  532MOL0     H70179  10.213   7.328   5.907  0.9213 -0.4572  1.3186
  532MOL0     H70180  10.190   7.430   5.697 -2.1554  1.3270 -3.8392
  532MOL0     H70181  10.037   7.339   5.719 -0.4471  3.1430 -2.1890
  532MOL0     H70182  10.141   7.152   5.569  1.8561 -0.2975 -2.7168
  532MOL0     H70183  10.079   7.302   5.509  0.5353  0.1696 -0.7007
  532MOL0     H70184  10.364   7.211   5.558 -0.5833  0.3759  0.9474
  532MOL0     H70185  10.352   7.373   5.513 -0.3841  0.5762  1.5696
  532MOL0     H70186  10.283   7.003   5.498  2.0946  0.6658 -0.4548
  532MOL0     H70187  10.194   6.796   5.393 -1.6386  2.0091  1.8770
  532MOL0     H70188  10.127   6.563   4.928  1.5143 -0.6788 -0.8892
  532MOL0     H70189  10.088   6.358   4.844  2.1821 -0.2523  0.5448
  532MOL0     H70190   9.968   6.018   4.829 -2.3387  0.9647 -4.7294
  532MOL0     H70191  10.018   6.176   4.781  2.8209  3.1358  3.2724
  532MOL0     H70192   9.760   6.230   4.877  1.6505  2.1898 -3.8290
  532MOL0     H70193   9.771   6.055   4.914  2.0748 -0.1425  0.1601
  532MOL0     H70194   9.770   6.013   4.670 -1.9724  0.4901 -4.6028
  532MOL0     H70195   9.827   6.180   4.655 -0.3422 -0.3663  0.9454
  532MOL0     H70196   9.543   6.129   4.758 -0.9661  1.0640 -1.6105
  532MOL0     H70197   9.609   6.264   4.672  0.3334  0.6329  1.0399
  532MOL0     H70198   9.596   5.987   4.543  1.9733  0.0040  0.6276
  532MOL0     H70199   9.636   6.142   4.469  1.6893  1.8126  2.8558
  532MOL0     H70200   9.396   6.201   4.443  3.8135  0.6586 -1.9312
  532MOL0     H70201   9.373   6.142   4.597 -0.5187  0.5057 -0.2986
  532MOL0     H70202   9.363   5.913   4.499  0.6718 -0.5848  0.1173
  532MOL0     H70203   9.246   6.016   4.417 -0.7727 -0.9081  2.4476
  532MOL0     H70204   9.362   5.874   4.260 -0.1005 -0.0846 -2.5124
  532MOL0     H70205   9.515   5.962   4.298 -0.2231 -2.5516  2.3134
  532MOL0     H70206   9.970   6.220   5.235  0.5888  0.3642  0.9572
  532MOL0     H70207  10.062   6.433   5.333 -1.4550 -0.4401  0.4672
  532MOL0     H70208  10.166   6.999   5.013 -2.1879  0.9640 -0.9237
  532MOL0     H70209  10.229   7.213   5.128 -2.6977 -0.0269  0.0711
  532MOL0     H70210   9.542   6.865   5.002 -1.1433 -0.7324 -0.2543
  532MOL0     H70211   9.489   6.813   4.768  0.2505  0.4142 -1.5236
  532MOL0     H70212   9.337   6.444   4.349  0.9265  0.7057  0.7009
  532MOL0     H70213   9.369   6.425   4.127 -1.0215  1.4542 -1.9232
  532MOL0     H70214   9.427   6.456   3.893  1.0847  3.3537  2.7507
  532MOL0     H70215   9.508   6.308   3.935  0.3645  0.1678 -0.0484
  532MOL0     H70216   9.527   6.345   3.680  0.1660 -0.3390 -1.1097
  532MOL0     H70217   9.565   6.510   3.706 -0.1633  0.0911  0.3342
  532MOL0     H70218   9.769   6.484   3.798 -0.9045  0.3769  0.2293
  532MOL0     H70219   9.754   6.388   3.643  2.1361  1.0008  0.0277
  532MOL0     H70220   9.879   6.247   3.783  0.1801 -2.4080  2.1223
  532MOL0     H70221   9.782   6.298   3.926 -0.7621  1.4594 -0.4055
  532MOL0     H70222   9.561   5.978   3.705  1.7554  0.6666 -4.9582
  532MOL0     H70223   9.751   6.612   4.149  0.7013 -0.4263  1.2677
  532MOL0     H70224   9.727   6.604   4.398  0.9348 -5.7083 -0.8656
  533MOL0     O70225   4.231  10.078   2.215 -0.5699 -0.7401 -0.4055
  533MOL0     C70226   4.229   9.967   2.163 -0.3085  0.9011 -0.5885
  533MOL0     O70227   4.220   9.928   2.028 -0.4243  0.0422  0.1733
  533MOL0     C70228   4.223  10.030   1.942  0.3321 -1.1975  0.4534
  533MOL0     C70229   4.114  10.063   1.860 -0.1810  0.1643  0.8580
  533MOL0     C70230   4.126  10.167   1.765  0.1253 -0.4800  0.1079
  533MOL0     C70231   4.242  10.242   1.759 -0.3535 -0.6015  0.1354
  533MOL0     O70232   4.256  10.342   1.665  0.0747  0.0511 -0.7871
  533MOL0     C70233   4.150  10.375   1.573 -0.5544 -1.0053 -0.6236
  533MOL0     C70234   4.196  10.492   1.486 -0.0436  0.1277  0.1557
  533MOL0     C70235   4.111  10.500   1.355 -1.1437 -0.6162  0.5359
  533MOL0     C70236   4.115  10.653   1.307  0.3797  0.1958 -0.4145
  533MOL0     C70237   4.029  10.690   1.188 -0.0990  1.0238 -0.2367
  533MOL0     C70238   4.034  10.836   1.136  0.7435  0.0486  0.3643
  533MOL0     C70239   3.962  10.841   1.000  0.9526  0.0228  0.3230
  533MOL0     C70240   3.954  10.974   0.917  0.1026 -0.0184 -0.7424
  533MOL0     N70241   3.869  10.942   0.805  1.7015 -0.2623  0.2604
  533MOL0     C70242   3.915  10.891   0.686 -0.3328 -0.4303 -0.1580
  533MOL0     C70243   3.806  10.906   0.600 -0.3211 -0.7404 -0.5024
  533MOL0     C70244   3.795  10.879   0.452  0.7903  0.3416  0.4214
  533MOL0     C70245   3.666  10.783   0.425 -0.4086  0.1066 -0.0192
  533MOL0     C70246   3.667  10.756   0.275  0.6071 -0.4391  0.2182
  533MOL0     C70247   3.538  10.695   0.240  0.8895  0.2071  0.3019
  533MOL0     O70248   3.509  10.565   0.315  0.0424 -0.5897  0.3647
  533MOL0     C70249   3.388  10.512   0.294 -0.6017 -0.9847 -0.4617
  533MOL0     C70250   3.357  10.413   0.387 -0.3042 -0.1086  0.3790
  533MOL0     C70251   3.225  10.360   0.373 -0.1636  0.0010  0.3032
  533MOL0     C70252   3.136  10.408   0.278  0.7871  0.4828 -0.3835
  533MOL0     C70253   2.997  10.360   0.274  1.3309  0.0171  0.4177
  533MOL0     O70254   2.956  10.244   0.347  0.8050  0.2575  0.8474
  533MOL0     C70255   2.819  10.240   0.369 -0.1604 -0.1968 -0.3856
  533MOL0     C70256   2.747  10.125   0.337 -1.2709  0.2548 -0.8483
  533MOL0     C70257   2.610  10.125   0.378 -0.0563  0.3305 -0.2431
  533MOL0     C70258   2.557  10.235   0.438 -0.2758 -0.8391 -0.0880
  533MOL0     O70259   2.424  10.239   0.472  0.2105  0.4771  0.2848
  533MOL0     C70260   2.333  10.229   0.356 -0.1274  0.2141  0.2095
  533MOL0     C70261   2.197  10.297   0.375 -0.8208  0.2297 -0.0232
  533MOL0     C70262   2.198  10.444   0.364 -0.4306  0.2808 -0.8467
  533MOL0     C70263   2.062  10.501   0.361  0.0451 -0.9459 -0.6859
  533MOL0     C70264   2.059  10.656   0.383 -0.8104  0.5398 -0.0727
  533MOL0     C70265   1.919  10.718   0.365  0.3284  0.1567  0.3030
  533MOL0     C70266   1.805  10.682   0.465  0.2007  0.3825  0.0768
  533MOL0     C70267   1.683  10.628   0.394  0.2580  0.8394 -0.0054
  533MOL0    Cl70268   1.558  10.625   0.513 -0.6228  0.0084 -0.0627
  533MOL0     C70269   2.634  10.343   0.471 -0.0537 -0.2538  0.0807
  533MOL0     C70270   2.766  10.353   0.435  0.3778 -0.0524  0.8174
  533MOL0     O70271   2.918  10.436   0.213 -0.1568 -0.9364  0.4898
  533MOL0     C70272   3.179  10.492   0.180 -0.5068  0.8006 -0.5584
  533MOL0     C70273   3.301  10.550   0.197  0.2496 -0.1427 -0.0301
  533MOL0     N70274   3.695  10.960   0.668  0.5482 -0.6498 -0.1212
  533MOL0     N70275   3.736  10.964   0.797 -0.1154  0.2982  0.4788
  533MOL0     C70276   4.340  10.216   1.838  0.2220 -0.4217 -0.2802
  533MOL0     C70277   4.329  10.114   1.937 -0.5984 -0.1496 -0.2765
  533MOL0     C70278   4.200   9.860   2.263  0.4859 -0.7946  0.3300
  533MOL0     C70279   4.130   9.744   2.222 -0.6501 -0.1319 -0.7976
  533MOL0     C70280   4.082   9.662   2.327  0.2209 -0.1862 -0.3840
  533MOL0     C70281   4.110   9.681   2.461  0.7647  0.0075  0.4299
  533MOL0     O70282   4.044   9.601   2.549  0.3435 -0.4506  0.3751
  533MOL0     C70283   4.127   9.515   2.628 -0.1470  0.9326  0.2223
  533MOL0     C70284   4.081   9.472   2.770  0.1028 -0.1992  0.8467
  533MOL0     C70285   3.937   9.416   2.764  0.5166  0.1280 -0.4804
  533MOL0     C70286   3.914   9.285   2.698  0.1178 -0.4589  0.0589
  533MOL0     C70287   3.984   9.179   2.766 -0.4669  0.1375  0.1219
  533MOL0     C70288   4.024   9.087   2.828  0.0656  0.4777 -1.1296
  533MOL0     C70289   4.190   9.793   2.500 -0.0200  0.0784 -0.3714
  533MOL0     C70290   4.238   9.881   2.397 -0.7523 -0.1332 -0.1400
  533MOL0     H70291   4.023  10.009   1.885 -0.5632 -0.7474 -2.1044
  533MOL0     H70292   4.038  10.203   1.712 -1.6766  4.6601  5.4332
  533MOL0     H70293   4.066  10.411   1.632  0.2864  1.2933 -0.7460
  533MOL0     H70294   4.126  10.279   1.527  0.6874 -3.3805  3.1977
  533MOL0     H70295   4.304  10.499   1.473 -0.1059  0.1000 -0.4260
  533MOL0     H70296   4.167  10.571   1.555 -0.3268 -0.8426  1.1738
  533MOL0     H70297   4.009  10.474   1.385 -1.0818 -0.1367  1.1823
  533MOL0     H70298   4.148  10.421   1.289 -0.7452 -0.9591  1.1562
  533MOL0     H70299   4.078  10.717   1.388 -0.5299  2.1324 -2.2707
  533MOL0     H70300   4.220  10.677   1.290  1.2521 -1.5584  1.8749
  533MOL0     H70301   3.928  10.655   1.214  0.6919  1.3203  3.8548
  533MOL0     H70302   4.059  10.624   1.107  1.8400 -0.7870  1.8164
  533MOL0     H70303   4.141  10.860   1.142  1.1630 -0.7532 -2.4894
  533MOL0     H70304   3.972  10.897   1.202 -0.8953 -0.2327 -0.8635
  533MOL0     H70305   4.020  10.781   0.929 -2.1816 -0.8749 -1.6934
  533MOL0     H70306   3.865  10.792   1.006  0.7868 -1.0879 -5.3928
  533MOL0     H70307   4.042  11.031   0.886  0.1175 -0.6245 -1.8766
  533MOL0     H70308   3.905  11.048   0.982  1.1904  1.5296 -1.6275
  533MOL0     H70309   4.016  10.864   0.656 -0.8951 -0.5380 -2.0772
  533MOL0     H70310   3.891  10.847   0.410 -0.5856  0.2195 -2.9547
  533MOL0     H70311   3.777  10.974   0.399 -1.9870 -0.0985  0.4309
  533MOL0     H70312   3.572  10.819   0.466  0.3127  0.2559  1.6187
  533MOL0     H70313   3.681  10.687   0.476  1.1691  0.9141  1.1337
  533MOL0     H70314   3.681  10.847   0.215  1.5481 -0.8410 -0.1960
  533MOL0     H70315   3.757  10.699   0.249  0.7393  0.5199 -1.6504
  533MOL0     H70316   3.540  10.678   0.132  1.4522 -0.9042  0.4699
  533MOL0     H70317   3.457  10.764   0.260  0.4682 -0.8679  2.5774
  533MOL0     H70318   3.423  10.365   0.458 -3.2591 -3.6237  1.0101
  533MOL0     H70319   3.193  10.283   0.441  1.1527  0.7761  1.8605
  533MOL0     H70320   2.807  10.041   0.304  0.3656  0.4510  1.3763
  533MOL0     H70321   2.553  10.034   0.369  1.7391 -1.1261  2.0039
  533MOL0     H70322   2.311  10.124   0.333 -2.7552  1.1233 -2.0016
  533MOL0     H70323   2.390  10.277   0.276  0.1109 -0.8971 -0.3055
  533MOL0     H70324   2.165  10.266   0.475 -2.1309 -1.9749 -1.0480
  533MOL0     H70325   2.124  10.244   0.313  1.8927 -4.0374  0.0452
  533MOL0     H70326   2.265  10.455   0.278 -0.5120 -0.4005 -1.0029
  533MOL0     H70327   2.249  10.490   0.449 -1.6872 -3.3891  2.1422
  533MOL0     H70328   2.011  10.473   0.268 -2.5634  0.4159  0.2457
  533MOL0     H70329   2.005  10.451   0.439  1.0430 -0.0525  0.6657
  533MOL0     H70330   2.111  10.706   0.301 -2.7858  2.2688 -0.3485
  533MOL0     H70331   2.094  10.689   0.481  1.3044 -0.1813 -0.5293
  533MOL0     H70332   1.892  10.699   0.261  0.8016 -0.2627  0.2547
  533MOL0     H70333   1.931  10.826   0.368  0.6176  0.1124  2.4877
  533MOL0     H70334   1.818  10.613   0.549 -0.6502  1.2727  0.9725
  533MOL0     H70335   1.784  10.777   0.515 -0.8540  2.2823 -3.5868
  533MOL0     H70336   1.685  10.524   0.359 -2.6357  0.6465  0.2143
  533MOL0     H70337   1.650  10.688   0.309 -5.1191 -1.2478  0.2407
  533MOL0     H70338   2.584  10.426   0.519  1.8071  0.4188  0.9473
  533MOL0     H70339   2.816  10.447   0.456 -3.2870  2.5678 -1.1011
  533MOL0     H70340   3.118  10.538   0.102 -2.9633  3.2106  2.4924
  533MOL0     H70341   3.328  10.619   0.118 -1.2603  1.3805  0.7094
  533MOL0     H70342   4.434  10.269   1.827  2.5448 -3.8616  1.1868
  533MOL0     H70343   4.418  10.083   1.990 -0.4093  1.5839  0.5152
  533MOL0     H70344   4.111   9.718   2.118  5.0303 -1.3538 -1.8780
  533MOL0     H70345   4.028   9.572   2.300 -0.1630 -0.8069  2.2265
  533MOL0     H70346   4.230   9.551   2.621  1.1750 -2.1125  2.0559
  533MOL0     H70347   4.136   9.425   2.566  3.5874  0.6482  0.9609
  533MOL0     H70348   4.140   9.385   2.801  2.6219  1.9882  2.5570
  533MOL0     H70349   4.094   9.561   2.832 -1.5029 -0.6490  1.8968
  533MOL0     H70350   3.873   9.497   2.727  1.0911  1.4714  1.3098
  533MOL0     H70351   3.909   9.387   2.866 -0.1530 -1.4479 -1.0849
  533MOL0     H70352   3.808   9.258   2.691  0.3421 -2.6519  3.0742
  533MOL0     H70353   3.946   9.289   2.594 -0.5961 -0.2086 -0.1551
  533MOL0     H70354   4.070   9.003   2.876 -2.3117 -0.5200 -0.5042
  533MOL0     H70355   4.204   9.822   2.604  1.2369  2.1831 -1.0644
  533MOL0     H70356   4.295   9.969   2.425 -1.8557  0.0119  1.7985
  534MOL0     O70357   5.216   9.096   3.843 -0.7154  0.0190 -0.4728
  534MOL0     C70358   5.098   9.080   3.812 -1.2034 -0.4391 -0.1375
  534MOL0     O70359   5.047   8.980   3.737 -0.2506 -0.2854 -0.2732
  534MOL0     C70360   5.112   8.862   3.707  0.6291  0.3539  1.1139
  534MOL0     C70361   5.248   8.868   3.674 -0.3124 -0.0976 -1.0177
  534MOL0     C70362   5.325   8.752   3.640  0.9417 -0.8666  0.2405
  534MOL0     C70363   5.250   8.626   3.635  0.6843 -0.1162 -0.4898
  534MOL0     O70364   5.291   8.510   3.576 -0.4155 -0.3881  0.4704
  534MOL0     C70365   5.432   8.491   3.542  0.0282 -1.7174  0.3648
  534MOL0     C70366   5.502   8.450   3.671  0.1180 -0.0219 -0.1649
  534MOL0     C70367   5.649   8.411   3.649  0.4849  0.5681 -0.4136
  534MOL0     C70368   5.733   8.540   3.639 -0.0085  0.5158  0.3327
  534MOL0     C70369   5.821   8.563   3.509 -0.1990 -0.0738  0.0378
  534MOL0     C70370   5.942   8.465   3.498  1.0552 -0.1472 -1.1062
  534MOL0     C70371   6.043   8.533   3.406  1.0444  0.0929  0.3016
  534MOL0     C70372   6.157   8.596   3.481  0.1354  0.3022  0.1317
  534MOL0     N70373   6.276   8.588   3.399 -0.8440  0.5634  0.2837
  534MOL0     C70374   6.289   8.647   3.272 -0.1842 -0.9353  0.3137
  534MOL0     C70375   6.424   8.622   3.246  0.4838  0.2517  0.3432
  534MOL0     C70376   6.500   8.678   3.129 -0.1824  0.6272 -0.2523
  534MOL0     C70377   6.520   8.564   3.014 -0.2401  0.8622 -0.6350
  534MOL0     C70378   6.555   8.421   3.064 -1.1004  0.5289 -0.6394
  534MOL0     C70379   6.579   8.325   2.943 -0.2161 -0.0109 -0.0320
  534MOL0     O70380   6.579   8.193   2.995 -0.6825 -0.6671  0.1570
  534MOL0     C70381   6.522   8.088   2.931 -0.2540  0.2535 -0.4487
  534MOL0     C70382   6.572   8.057   2.806  0.0764  0.0174 -0.5819
  534MOL0     C70383   6.515   7.952   2.735 -0.8404  0.0291 -0.4150
  534MOL0     C70384   6.408   7.875   2.791 -0.3874  0.0429  0.1097
  534MOL0     C70385   6.351   7.758   2.719 -0.2763 -0.3726  1.5592
  534MOL0     O70386   6.261   7.682   2.790  0.1336 -0.2521  0.1985
  534MOL0     C70387   6.191   7.589   2.716  0.2825 -0.0357  0.1694
  534MOL0     C70388   6.231   7.474   2.636 -0.3729 -1.9112 -0.1310
  534MOL0     C70389   6.144   7.403   2.562  0.0351 -0.4502  0.4723
  534MOL0     C70390   6.012   7.439   2.553  0.2878  0.4003  0.1048
  534MOL0     O70391   5.914   7.367   2.478 -0.6955  0.4342 -0.3987
  534MOL0     C70392   5.949   7.239   2.434 -0.5935  0.3982 -0.0897
  534MOL0     C70393   5.826   7.188   2.370  0.7668  0.6859  0.4267
  534MOL0     C70394   5.858   7.046   2.321  0.1790 -0.0528 -1.1846
  534MOL0     C70395   5.734   6.964   2.268 -0.2337  0.3375  0.5955
  534MOL0     C70396   5.774   6.823   2.224  0.4200 -0.2069 -0.4701
  534MOL0     C70397   5.663   6.752   2.149 -0.1479 -0.1594 -0.6256
  534MOL0     C70398   5.703   6.606   2.137 -0.0106  0.1329 -0.1191
  534MOL0     C70399   5.612   6.518   2.044  0.4523  0.7289  0.0542
  534MOL0    Cl70400   5.573   6.610   1.885  0.6773  0.5235 -0.1499
  534MOL0     C70401   5.969   7.547   2.629  0.1954  0.2977  0.2677
  534MOL0     C70402   6.050   7.616   2.706 -0.2092 -0.4327  0.3763
  534MOL0     O70403   6.378   7.752   2.601  0.0656  0.1324 -0.0802
  534MOL0     C70404   6.361   7.908   2.909  0.4860 -1.1549  0.2633
  534MOL0     C70405   6.402   8.021   2.975  0.0425 -0.2408  0.4848
  534MOL0     N70406   6.480   8.545   3.353 -0.3976 -1.0572 -0.7976
  534MOL0     N70407   6.390   8.521   3.436  0.2823  0.3459 -0.0959
  534MOL0     C70408   5.121   8.626   3.675  0.9694 -0.2113  0.7517
  534MOL0     C70409   5.042   8.740   3.709  1.4313 -0.2761 -0.4294
  534MOL0     C70410   5.013   9.197   3.840  0.4351 -0.6665  0.7425
  534MOL0     C70411   4.872   9.191   3.797  0.3242  0.3045 -0.2686
  534MOL0     C70412   4.785   9.297   3.834 -0.8183  0.6826 -0.0570
  534MOL0     C70413   4.826   9.393   3.928  0.1382 -1.5884 -0.0538
  534MOL0     O70414   4.755   9.491   4.003 -1.0315 -0.1555 -0.1943
  534MOL0     C70415   4.618   9.501   3.976  0.1741  1.0018  0.4432
  534MOL0     C70416   4.555   9.575   4.082  0.7311  0.3105  0.2533
  534MOL0     C70417   4.548   9.492   4.219 -0.2142 -0.8776  0.4968
  534MOL0     C70418   4.489   9.570   4.341  0.0222  0.2374  0.4625
  534MOL0     C70419   4.346   9.610   4.322 -0.1178  0.0371  0.0009
  534MOL0     C70420   4.241   9.666   4.303  0.1785 -0.1140 -0.7910
  534MOL0     C70421   4.957   9.399   3.968 -0.2170  0.1552  0.4898
  534MOL0     C70422   5.053   9.306   3.918  0.4243  0.1881 -0.4833
  534MOL0     H70423   5.313   8.954   3.685  0.2585 -0.7659  1.5305
  534MOL0     H70424   5.432   8.763   3.632  0.8222  0.8019  0.5597
  534MOL0     H70425   5.469   8.588   3.507 -0.3991 -1.4063  0.7535
  534MOL0     H70426   5.445   8.424   3.457  1.3844 -0.2136 -0.6718
  534MOL0     H70427   5.455   8.357   3.706 -0.2108 -0.4624 -1.7149
  534MOL0     H70428   5.492   8.521   3.754 -0.3475 -0.8257  0.4799
  534MOL0     H70429   5.656   8.348   3.559 -2.4322  0.6616 -0.8153
  534MOL0     H70430   5.689   8.342   3.724  0.9066 -3.3928 -3.8657
  534MOL0     H70431   5.665   8.626   3.635  1.4082  1.7604  1.4247
  534MOL0     H70432   5.799   8.540   3.727  0.5542 -0.9231 -0.0694
  534MOL0     H70433   5.858   8.666   3.506  4.1682 -1.3429  2.1532
  534MOL0     H70434   5.756   8.551   3.421 -0.1906 -0.2723  0.0598
  534MOL0     H70435   5.897   8.369   3.473 -0.7816  0.2706  0.3255
  534MOL0     H70436   5.985   8.449   3.597  1.3087  4.2416 -0.2799
  534MOL0     H70437   6.089   8.462   3.336  5.6768  0.8792  2.1937
  534MOL0     H70438   5.997   8.606   3.338  3.6761  0.5235 -1.1405
  534MOL0     H70439   6.174   8.540   3.573 -2.7638 -0.5336  0.2526
  534MOL0     H70440   6.133   8.698   3.511  1.6169  2.6192 -5.2325
  534MOL0     H70441   6.222   8.703   3.208  2.6401 -3.3153 -5.5325
  534MOL0     H70442   6.599   8.710   3.161  0.7471 -0.1762 -2.1283
  534MOL0     H70443   6.443   8.761   3.088 -1.7618 -1.0962 -1.7378
  534MOL0     H70444   6.597   8.595   2.943 -3.1204  2.9689 -3.0756
  534MOL0     H70445   6.438   8.561   2.942  0.2880 -4.4468 -1.4217
  534MOL0     H70446   6.647   8.417   3.123 -0.8919 -2.0751 -1.0052
  534MOL0     H70447   6.473   8.381   3.126  0.6998 -1.4112  0.6501
  534MOL0     H70448   6.673   8.345   2.892 -0.8158 -3.0801 -2.6899
  534MOL0     H70449   6.498   8.333   2.869 -1.2935  1.8347  1.2513
  534MOL0     H70450   6.654   8.112   2.760 -1.5664 -0.9953 -5.3707
  534MOL0     H70451   6.540   7.930   2.632 -1.3498 -0.2368 -0.4856
  534MOL0     H70452   6.338   7.453   2.631 -0.2587 -2.2517  2.3530
  534MOL0     H70453   6.184   7.319   2.508  0.2011 -0.3398  0.4226
  534MOL0     H70454   5.994   7.173   2.509  0.0408 -0.1073 -0.8931
  534MOL0     H70455   6.025   7.244   2.355 -1.7541 -3.5007 -1.6724
  534MOL0     H70456   5.819   7.252   2.282 -0.0741 -0.6850 -0.5452
  534MOL0     H70457   5.738   7.197   2.434  0.6869  3.0932  0.0495
  534MOL0     H70458   5.904   6.984   2.398 -2.1985  1.3406  1.5423
  534MOL0     H70459   5.938   7.058   2.247  1.0879  1.2453 -0.0311
  534MOL0     H70460   5.651   6.959   2.338 -1.3231  1.4790 -0.5569
  534MOL0     H70461   5.701   6.999   2.170 -0.0757 -1.0906  0.0030
  534MOL0     H70462   5.792   6.771   2.319  0.6752  2.4595  1.0566
  534MOL0     H70463   5.867   6.821   2.168  0.0986  1.7803 -1.1696
  534MOL0     H70464   5.645   6.799   2.052  0.3114 -1.2272 -1.2480
  534MOL0     H70465   5.569   6.759   2.205 -2.2374  1.2337 -4.0095
  534MOL0     H70466   5.808   6.607   2.107  0.3602  0.4609  1.1438
  534MOL0     H70467   5.724   6.555   2.232 -0.3829 -1.0698 -0.6571
  534MOL0     H70468   5.516   6.518   2.097  1.8060  3.4725  2.9126
  534MOL0     H70469   5.648   6.418   2.017 -0.2457  0.4763  0.0532
  534MOL0     H70470   5.864   7.569   2.616 -0.5320 -0.1544  4.1639
  534MOL0     H70471   6.025   7.691   2.781 -1.6814 -1.0555  0.5524
  534MOL0     H70472   6.276   7.860   2.957 -0.6878  0.1751 -0.4114
  534MOL0     H70473   6.347   8.059   3.060  0.3145  4.5243 -1.1906
  534MOL0     H70474   5.068   8.531   3.674 -0.5663  0.3609 -4.6006
  534MOL0     H70475   4.935   8.733   3.725  1.1218 -0.2383 -2.2787
  534MOL0     H70476   4.828   9.108   3.743  2.0085 -2.5788  2.4550
  534MOL0     H70477   4.684   9.303   3.795 -1.4753  2.3784  1.7579
  534MOL0     H70478   4.560   9.409   3.964 -0.6422  1.7963 -2.6501
  534MOL0     H70479   4.594   9.545   3.879 -5.5599 -0.4140  0.8662
  534MOL0     H70480   4.621   9.661   4.096  0.0858  1.6718 -3.6737
  534MOL0     H70481   4.452   9.604   4.058  0.3194 -1.5554 -0.3692
  534MOL0     H70482   4.645   9.447   4.238  0.0578 -1.2784 -1.5651
  534MOL0     H70483   4.479   9.410   4.193  1.5116 -0.9755 -5.1141
  534MOL0     H70484   4.489   9.505   4.430 -4.5702  1.6317  1.7881
  534MOL0     H70485   4.550   9.658   4.358  0.7164  0.0794 -1.0741
  534MOL0     H70486   4.153   9.722   4.277 -1.5898 -3.1897 -1.9086
  534MOL0     H70487   4.988   9.477   4.038 -0.1579  0.8508 -0.3030
  534MOL0     H70488   5.158   9.314   3.944  0.8362 -0.6165 -1.8335
  535MOL0     O70489   0.883   8.828   5.348 -1.4020 -0.6189 -0.1335
  535MOL0     C70490   0.845   8.944   5.362  0.3834  0.8721  0.3022
  535MOL0     O70491   0.729   8.984   5.420  1.1409  0.2791 -0.0911
  535MOL0     C70492   0.646   8.894   5.474  0.9010 -1.0742 -1.3974
  535MOL0     C70493   0.682   8.765   5.526 -0.7299 -0.2342 -0.3636
  535MOL0     C70494   0.584   8.676   5.541  0.0348  0.3043  0.0419
  535MOL0     C70495   0.452   8.717   5.548  0.3986 -0.6920  0.1998
  535MOL0     O70496   0.348   8.635   5.599 -0.1671  0.0784 -0.0479
  535MOL0     C70497   0.383   8.495   5.592 -0.8487 -0.7520 -0.8287
  535MOL0     C70498   0.262   8.421   5.628  0.6866  0.6435  0.1625
  535MOL0     C70499   0.145   8.461   5.531 -0.9747  0.4015 -0.1252
  535MOL0     C70500   0.024   8.371   5.532 -0.0010  0.6214 -0.9133
  535MOL0     C70501  -0.082   8.402   5.413 -0.5378  0.9022 -1.4999
  535MOL0     C70502  -0.131   8.539   5.397  0.2391  0.2177 -0.2929
  535MOL0     C70503  -0.235   8.547   5.286  0.0504 -0.6806  0.5667
  535MOL0     C70504  -0.279   8.693   5.285  0.6569  0.0543 -0.7823
  535MOL0     N70505  -0.412   8.712   5.204 -0.2146 -1.0451 -0.2702
  535MOL0     C70506  -0.492   8.622   5.134 -0.0926  0.2028  0.3062
  535MOL0     C70507  -0.586   8.707   5.081  0.2965  0.2668  0.2422
  535MOL0     C70508  -0.693   8.662   4.980 -0.0509  0.0497 -0.6947
  535MOL0     C70509  -0.753   8.778   4.900 -0.7106  1.0898 -0.0187
  535MOL0     C70510  -0.866   8.732   4.805 -0.2563  0.3237 -0.8156
  535MOL0     C70511  -0.982   8.660   4.861  0.5911 -0.2502  0.6313
  535MOL0     O70512  -1.032   8.733   4.967  0.0051  0.1907  0.2906
  535MOL0     C70513  -1.129   8.676   5.047  0.3314  0.1522 -0.5153
  535MOL0     C70514  -1.201   8.552   5.020  0.5918 -0.6716 -1.0167
  535MOL0     C70515  -1.293   8.504   5.109 -0.9056 -0.5518  0.1597
  535MOL0     C70516  -1.325   8.586   5.221 -0.2727  0.5295 -0.7164
  535MOL0     C70517  -1.402   8.520   5.331 -0.8738  0.3052 -0.9556
  535MOL0     O70518  -1.497   8.433   5.287  0.1983 -0.5764 -0.6793
  535MOL0     C70519  -1.579   8.368   5.370  0.4355  1.2399  1.8148
  535MOL0     C70520  -1.581   8.347   5.516  1.2008  0.3075  0.2483
  535MOL0     C70521  -1.684   8.269   5.579 -0.0315 -0.1111  0.6938
  535MOL0     C70522  -1.778   8.199   5.506 -0.3487 -0.2171  0.0927
  535MOL0     O70523  -1.871   8.128   5.578 -0.2932 -0.7020 -0.6095
  535MOL0     C70524  -1.917   8.006   5.521  0.0466  0.0538  1.0843
  535MOL0     C70525  -2.037   7.965   5.601 -0.3233 -0.2309 -0.3024
  535MOL0     C70526  -2.159   8.064   5.610 -0.6254 -0.1205 -0.1859
  535MOL0     C70527  -2.215   8.112   5.476 -0.2024 -0.5081 -0.3783
  535MOL0     C70528  -2.346   8.189   5.493 -0.6890 -0.4088  0.8271
  535MOL0     C70529  -2.427   8.220   5.358 -0.5526 -0.0084 -0.2155
  535MOL0     C70530  -2.400   8.342   5.278  0.0036 -0.1078  0.7964
  535MOL0     C70531  -2.434   8.335   5.133 -0.7723  0.0599  0.6775
  535MOL0    Cl70532  -2.398   8.490   5.064 -0.6090  0.1163  0.1106
  535MOL0     C70533  -1.777   8.210   5.367  0.7394 -0.5129 -0.1446
  535MOL0     C70534  -1.680   8.296   5.304 -0.0793 -0.4089  0.6916
  535MOL0     O70535  -1.356   8.528   5.444 -0.5054 -0.1962  0.4008
  535MOL0     C70536  -1.255   8.708   5.251 -0.0880  0.4348 -0.2789
  535MOL0     C70537  -1.154   8.751   5.166  0.2311 -0.1307  0.2003
  535MOL0     N70538  -0.565   8.842   5.126  0.4410 -0.5077 -0.1940
  535MOL0     N70539  -0.463   8.844   5.196  0.8774 -0.1445 -0.5960
  535MOL0     C70540   0.415   8.850   5.529 -0.6409  0.4477  0.3315
  535MOL0     C70541   0.514   8.937   5.495 -0.7978 -0.1573 -0.0601
  535MOL0     C70542   0.944   9.041   5.343  0.1981  1.1159  0.3592
  535MOL0     C70543   0.911   9.177   5.320  0.2595  0.5696 -0.2464
  535MOL0     C70544   1.008   9.270   5.285 -1.5160  0.1392 -1.1514
  535MOL0     C70545   1.142   9.233   5.284 -0.9399 -0.4858  0.5509
  535MOL0     O70546   1.219   9.345   5.268  0.1139 -0.7035 -0.0831
  535MOL0     C70547   1.332   9.362   5.347  1.5256 -0.1863  0.3174
  535MOL0     C70548   1.299   9.397   5.487  0.8333  0.4422 -0.3266
  535MOL0     C70549   1.431   9.417   5.572 -0.2958 -0.1382 -0.3574
  535MOL0     C70550   1.520   9.537   5.524  0.2617  0.4374 -0.6957
  535MOL0     C70551   1.461   9.661   5.476 -0.1962 -0.0050 -0.1565
  535MOL0     C70552   1.416   9.761   5.438 -0.1290 -0.0459 -0.4729
  535MOL0     C70553   1.180   9.102   5.289  1.0343 -0.1100 -1.0118
  535MOL0     C70554   1.079   9.004   5.320  0.0691  0.3306 -0.1753
  535MOL0     H70555   0.785   8.736   5.544 -0.4330  2.0790  2.4076
  535MOL0     H70556   0.613   8.575   5.566  3.5549  0.7788 -1.5594
  535MOL0     H70557   0.456   8.479   5.672 -0.6898  2.5470 -0.1715
  535MOL0     H70558   0.425   8.471   5.494 -0.2141  0.2395 -0.8194
  535MOL0     H70559   0.236   8.424   5.735 -1.3168  0.6957 -0.2975
  535MOL0     H70560   0.285   8.318   5.603  3.2598  0.7351  1.7408
  535MOL0     H70561   0.199   8.467   5.436  0.7163  3.4640  0.8680
  535MOL0     H70562   0.111   8.561   5.561  0.4292  0.8983 -0.1463
  535MOL0     H70563   0.053   8.269   5.505 -0.4654  0.4636 -0.8052
  535MOL0     H70564  -0.024   8.370   5.630 -1.3790  1.4846 -1.5515
  535MOL0     H70565  -0.166   8.336   5.437  0.0518  1.1369  1.6231
  535MOL0     H70566  -0.031   8.376   5.320 -0.5048 -1.4968 -0.9001
  535MOL0     H70567  -0.041   8.595   5.371  2.2298 -2.5712  0.0734
  535MOL0     H70568  -0.173   8.578   5.490 -0.5694 -1.4777  0.0888
  535MOL0     H70569  -0.191   8.527   5.187 -0.3842 -0.0155  0.2298
  535MOL0     H70570  -0.326   8.488   5.302 -0.7381  0.8691  2.1304
  535MOL0     H70571  -0.203   8.756   5.238 -1.3578  1.5656 -2.1901
  535MOL0     H70572  -0.296   8.731   5.386  1.3529 -2.6762  0.4799
  535MOL0     H70573  -0.478   8.515   5.122 -0.2107 -0.0786  2.3686
  535MOL0     H70574  -0.779   8.630   5.038 -0.4463  1.5047 -0.4293
  535MOL0     H70575  -0.660   8.585   4.910  3.1943  2.4710 -2.1108
  535MOL0     H70576  -0.665   8.826   4.855 -0.4795  2.0847  1.4300
  535MOL0     H70577  -0.796   8.850   4.970 -2.8380 -0.9864  0.9341
  535MOL0     H70578  -0.917   8.820   4.763 -0.3676 -0.9392 -3.5135
  535MOL0     H70579  -0.831   8.665   4.726 -1.9308 -1.2973 -0.2447
  535MOL0     H70580  -0.951   8.561   4.896 -0.3610 -1.4369 -1.6605
  535MOL0     H70581  -1.062   8.655   4.786 -0.0833  1.3100  1.2127
  535MOL0     H70582  -1.175   8.496   4.931  2.3153  1.8500 -2.2368
  535MOL0     H70583  -1.342   8.410   5.089 -2.2277 -0.2358  1.7441
  535MOL0     H70584  -1.496   8.393   5.566  2.1352  2.3878 -2.9301
  535MOL0     H70585  -1.677   8.268   5.687  2.0945  4.2646  0.8303
  535MOL0     H70586  -1.832   7.937   5.525  1.4198  1.4211 -1.8797
  535MOL0     H70587  -1.960   8.032   5.424  1.5014  0.4865  0.5334
  535MOL0     H70588  -2.007   7.937   5.702  0.5296  2.8253  0.4057
  535MOL0     H70589  -2.084   7.882   5.546 -2.5643  0.6497  0.1844
  535MOL0     H70590  -2.115   8.144   5.669  3.0150 -2.6136  0.8950
  535MOL0     H70591  -2.229   8.011   5.675  0.8128 -0.3641  1.2226
  535MOL0     H70592  -2.141   8.176   5.427 -0.6980  0.0149 -0.4503
  535MOL0     H70593  -2.229   8.027   5.409 -2.2804 -0.4079 -0.1218
  535MOL0     H70594  -2.339   8.292   5.528 -4.0004 -0.6479  2.6050
  535MOL0     H70595  -2.418   8.141   5.560 -1.2281  3.0134  2.9679
  535MOL0     H70596  -2.536   8.218   5.367 -0.7055  0.0573 -1.8230
  535MOL0     H70597  -2.407   8.131   5.298  0.4898  0.0319  0.0481
  535MOL0     H70598  -2.449   8.434   5.311 -3.0433 -1.1816 -0.3417
  535MOL0     H70599  -2.293   8.361   5.286 -0.2185  0.5604  2.8313
  535MOL0     H70600  -2.538   8.311   5.112 -0.4577  0.1917 -1.2238
  535MOL0     H70601  -2.368   8.261   5.087 -4.3589 -2.7660 -0.3880
  535MOL0     H70602  -1.851   8.172   5.298 -3.0383  1.8421  2.2082
  535MOL0     H70603  -1.686   8.308   5.197  1.8432  1.7044  0.7395
  535MOL0     H70604  -1.282   8.773   5.334  0.3110  1.7767 -1.1744
  535MOL0     H70605  -1.097   8.841   5.189 -1.0121  0.1237  2.5744
  535MOL0     H70606   0.312   8.878   5.549 -0.4337 -1.0187  4.1795
  535MOL0     H70607   0.494   9.043   5.481  1.6329  0.7929  2.6863
  535MOL0     H70608   0.806   9.200   5.304  0.0602 -0.2196 -0.1154
  535MOL0     H70609   0.988   9.374   5.262  4.2401  2.0875  0.8516
  535MOL0     H70610   1.382   9.449   5.301 -0.3916  1.1309  0.5789
  535MOL0     H70611   1.406   9.282   5.336  1.2234 -0.2654 -1.6080
  535MOL0     H70612   1.239   9.488   5.491 -1.1512 -0.7395 -1.1931
  535MOL0     H70613   1.242   9.315   5.531  2.6146 -0.7317 -0.0955
  535MOL0     H70614   1.491   9.326   5.588  0.1704  0.4534  1.6615
  535MOL0     H70615   1.404   9.455   5.671  0.7526  0.4924 -0.2924
  535MOL0     H70616   1.593   9.567   5.599  0.9033  1.8415 -1.8335
  535MOL0     H70617   1.574   9.498   5.438 -2.3906 -1.6259 -1.5689
  535MOL0     H70618   1.371   9.854   5.412  1.3451  1.1166  0.9073
  535MOL0     H70619   1.279   9.059   5.276  1.1554  0.1893 -1.0871
  535MOL0     H70620   1.113   8.901   5.324  2.2308  1.0334  0.8845
  536MOL0     O70621   5.695   3.415   0.077  0.6887  0.0895 -0.3172
  536MOL0     C70622   5.633   3.490   0.006 -0.9290 -0.1254 -0.0401
  536MOL0     O70623   5.506   3.538   0.025 -0.0201  0.0909 -0.2761
  536MOL0     C70624   5.445   3.485   0.142 -1.0214 -0.7291 -0.8364
  536MOL0     C70625   5.417   3.344   0.141  0.3981  0.1157  0.0293
  536MOL0     C70626   5.373   3.280   0.263  0.4912 -0.3045  0.3945
  536MOL0     C70627   5.372   3.343   0.382 -0.1306 -0.0068  0.2995
  536MOL0     O70628   5.352   3.277   0.497  0.3472  0.2802  0.0271
  536MOL0     C70629   5.250   3.336   0.582 -0.3804  0.2486 -0.3652
  536MOL0     C70630   5.199   3.234   0.692  0.0959 -0.4503 -0.4617
  536MOL0     C70631   5.109   3.131   0.625 -1.0109 -0.7131  0.7989
  536MOL0     C70632   4.961   3.176   0.608 -0.0218 -0.6732 -0.0199
  536MOL0     C70633   4.857   3.078   0.561  0.4314 -0.3561  0.6360
  536MOL0     C70634   4.893   3.026   0.426  0.3967  0.5264  0.2514
  536MOL0     C70635   4.923   2.872   0.432 -0.7654 -0.5312  1.1679
  536MOL0     C70636   4.976   2.833   0.289 -0.1578  0.9557 -0.2689
  536MOL0     N70637   5.004   2.690   0.293 -1.0961  0.6177 -0.6071
  536MOL0     C70638   5.091   2.635   0.386 -0.1889  0.7144 -0.0102
  536MOL0     C70639   5.108   2.508   0.350 -0.5145  0.3298  0.2492
  536MOL0     C70640   5.190   2.395   0.397  0.1431  0.1919  0.3536
  536MOL0     C70641   5.339   2.431   0.376 -0.6016 -0.1021  0.0149
  536MOL0     C70642   5.433   2.335   0.444 -0.7638  0.4545 -0.1769
  536MOL0     C70643   5.589   2.377   0.438 -0.3550 -0.3812 -0.4367
  536MOL0     O70644   5.653   2.306   0.334 -0.1586 -0.3660  0.5659
  536MOL0     C70645   5.764   2.365   0.270 -0.2225 -0.5674 -0.8366
  536MOL0     C70646   5.851   2.458   0.339  1.2681 -0.1277  0.3037
  536MOL0     C70647   5.953   2.525   0.263 -0.0300 -0.5975 -0.8462
  536MOL0     C70648   5.964   2.519   0.126  0.2092  0.2294  0.2974
  536MOL0     C70649   6.040   2.603   0.039 -0.4865 -0.2475 -0.1989
  536MOL0     O70650   6.078   2.546  -0.086  0.9145  0.0231  0.0296
  536MOL0     C70651   6.142   2.624  -0.177 -0.8299  0.1418 -1.0577
  536MOL0     C70652   6.281   2.619  -0.179  0.4196 -0.1340 -0.1811
  536MOL0     C70653   6.357   2.698  -0.263 -0.1220  0.4759  0.2627
  536MOL0     C70654   6.295   2.786  -0.356  1.1844  0.1491 -0.8632
  536MOL0     O70655   6.357   2.871  -0.444 -0.0523 -0.2832  0.3726
  536MOL0     C70656   6.501   2.860  -0.439  0.1177  0.1215 -0.7982
  536MOL0     C70657   6.566   2.963  -0.530 -0.5496  0.4534  0.1868
  536MOL0     C70658   6.534   2.963  -0.685 -0.4738  1.3679 -0.1613
  536MOL0     C70659   6.577   2.830  -0.762 -1.2036  0.2655  1.0379
  536MOL0     C70660   6.545   2.852  -0.905  0.3618 -0.7975  0.3578
  536MOL0     C70661   6.589   2.733  -0.993  1.1943  0.5393 -0.9707
  536MOL0     C70662   6.741   2.714  -1.000  0.6269  0.1701 -0.9656
  536MOL0     C70663   6.776   2.589  -1.089  0.0435  0.0250 -0.4691
  536MOL0    Cl70664   6.707   2.437  -1.018 -0.5231 -0.0238  0.3939
  536MOL0     C70665   6.149   2.782  -0.349 -0.0477  0.1152  0.6656
  536MOL0     C70666   6.072   2.703  -0.265  0.0344  0.9259  0.9059
  536MOL0     O70667   6.067   2.720   0.066  1.3108  0.4864 -0.3611
  536MOL0     C70668   5.886   2.422   0.058 -0.7569  0.2845  0.3320
  536MOL0     C70669   5.794   2.346   0.127 -0.7982  1.1024  0.2754
  536MOL0     N70670   5.036   2.492   0.231 -0.5680  1.4944  0.1238
  536MOL0     N70671   4.993   2.607   0.187 -0.1624  0.1130 -0.1777
  536MOL0     C70672   5.411   3.482   0.380 -0.3728 -0.2068  0.1763
  536MOL0     C70673   5.450   3.552   0.272  0.7282  0.4332 -0.0562
  536MOL0     C70674   5.697   3.542  -0.117  0.6023 -0.0528 -0.7390
  536MOL0     C70675   5.831   3.533  -0.134  0.4080 -0.3086 -0.5344
  536MOL0     C70676   5.893   3.590  -0.238  0.1290  0.6661  0.4931
  536MOL0     C70677   5.820   3.661  -0.332 -0.3957  0.5128  0.6619
  536MOL0     O70678   5.890   3.733  -0.425  0.3743  0.0767  0.6257
  536MOL0     C70679   5.887   3.682  -0.567  0.1025 -0.6454 -0.2208
  536MOL0     C70680   6.022   3.640  -0.603  0.0299  0.0982 -0.3494
  536MOL0     C70681   6.109   3.767  -0.625 -1.4678 -0.2636  0.0248
  536MOL0     C70682   6.256   3.740  -0.664  0.0149  0.3473 -0.0878
  536MOL0     C70683   6.323   3.666  -0.555 -0.3538 -0.2483  0.2618
  536MOL0     C70684   6.381   3.610  -0.467  0.3349  0.7508 -0.2300
  536MOL0     C70685   5.682   3.658  -0.327 -0.9666  0.6863  0.2008
  536MOL0     C70686   5.626   3.603  -0.221 -0.6974  0.3179 -0.1981
  536MOL0     H70687   5.429   3.287   0.050  0.0854 -0.1960  0.1806
  536MOL0     H70688   5.350   3.174   0.258  0.2936 -0.2272 -0.4485
  536MOL0     H70689   5.165   3.375   0.526  1.1789  2.3865 -1.3997
  536MOL0     H70690   5.296   3.417   0.640 -1.7926 -0.5388  2.0149
  536MOL0     H70691   5.143   3.290   0.768  1.3563  1.1051 -0.6192
  536MOL0     H70692   5.283   3.186   0.742 -0.3184  1.1602  1.9521
  536MOL0     H70693   5.109   3.037   0.680 -2.5557 -0.7590  0.7578
  536MOL0     H70694   5.151   3.105   0.528  1.1759  1.9257  0.9177
  536MOL0     H70695   4.918   3.226   0.695  0.9602  0.3921 -0.1229
  536MOL0     H70696   4.954   3.255   0.532  0.9874 -0.6639 -0.1154
  536MOL0     H70697   4.761   3.130   0.555  2.9244  4.7395 -0.1006
  536MOL0     H70698   4.836   3.003   0.639 -2.6256  0.6229  0.8844
  536MOL0     H70699   4.976   3.077   0.377 -1.9864  0.0204 -5.0732
  536MOL0     H70700   4.817   3.046   0.349  2.5761  0.4535 -2.0709
  536MOL0     H70701   4.993   2.859   0.515  0.4839  0.5646  0.3308
  536MOL0     H70702   4.824   2.833   0.455 -1.1664 -0.7244 -0.7137
  536MOL0     H70703   5.061   2.893   0.256  1.0284  1.2778  2.9918
  536MOL0     H70704   4.893   2.827   0.219  0.0530 -4.4095 -0.5050
  536MOL0     H70705   5.136   2.682   0.472 -1.0153 -0.7693  1.2905
  536MOL0     H70706   5.166   2.296   0.358  0.5373 -0.1101  0.8672
  536MOL0     H70707   5.160   2.392   0.502 -0.7317 -0.4289  0.0988
  536MOL0     H70708   5.374   2.530   0.404  0.9356 -0.4699 -0.5216
  536MOL0     H70709   5.355   2.417   0.268  1.5034 -4.7607  0.7083
  536MOL0     H70710   5.414   2.334   0.552  1.5342  0.7747  0.2798
  536MOL0     H70711   5.433   2.233   0.404 -1.5734  0.2760  0.2511
  536MOL0     H70712   5.642   2.350   0.530  1.2848 -2.0323 -1.7832
  536MOL0     H70713   5.604   2.483   0.418 -0.3273 -0.0454  1.2101
  536MOL0     H70714   5.832   2.477   0.444 -2.0970 -1.6618  0.1339
  536MOL0     H70715   6.011   2.599   0.317 -2.2446  2.4173 -2.2445
  536MOL0     H70716   6.337   2.549  -0.118 -0.8935 -0.1390  1.0727
  536MOL0     H70717   6.464   2.693  -0.246  0.2059 -0.2174 -1.8077
  536MOL0     H70718   6.519   2.756  -0.467  0.9970  0.1107 -0.2369
  536MOL0     H70719   6.535   2.873  -0.336 -0.1483  2.6645 -0.9723
  536MOL0     H70720   6.674   2.951  -0.513  0.2382  3.8884 -1.4569
  536MOL0     H70721   6.538   3.058  -0.483 -0.8645 -0.2368  1.4510
  536MOL0     H70722   6.576   3.050  -0.737  1.4515 -0.5371 -1.9963
  536MOL0     H70723   6.425   2.961  -0.687 -0.6617 -4.1836 -2.3833
  536MOL0     H70724   6.682   2.801  -0.753 -1.4903 -0.6485  1.6250
  536MOL0     H70725   6.530   2.743  -0.716  0.1213  0.2117  2.4020
  536MOL0     H70726   6.613   2.931  -0.938  2.2163 -2.4394  0.0814
  536MOL0     H70727   6.439   2.876  -0.921  1.4043  3.0583 -2.3935
  536MOL0     H70728   6.550   2.732  -1.096 -3.6472  0.2228  0.6122
  536MOL0     H70729   6.541   2.650  -0.941  1.3644  0.1279 -1.4637
  536MOL0     H70730   6.791   2.804  -1.038 -0.2083 -0.2096 -3.0524
  536MOL0     H70731   6.779   2.679  -0.903  0.6106 -1.3072 -1.4778
  536MOL0     H70732   6.884   2.575  -1.082 -0.0771 -0.1429  1.8991
  536MOL0     H70733   6.746   2.613  -1.191 -1.9035  0.9645  0.2572
  536MOL0     H70734   6.100   2.854  -0.413  0.4312 -2.8021 -3.3821
  536MOL0     H70735   5.964   2.695  -0.267  0.1801 -3.5732  0.3040
  536MOL0     H70736   5.898   2.411  -0.049 -0.7389 -1.0978  0.4570
  536MOL0     H70737   5.715   2.285   0.084 -0.5272 -0.5598  2.0282
  536MOL0     H70738   5.429   3.533   0.474  2.6759 -0.0102 -0.4093
  536MOL0     H70739   5.485   3.654   0.281  0.2162  0.6798 -0.7419
  536MOL0     H70740   5.886   3.474  -0.061 -0.8240  0.6748  1.2669
  536MOL0     H70741   6.001   3.598  -0.253  0.0533  0.4814 -0.1758
  536MOL0     H70742   5.844   3.765  -0.625  4.6038  1.6893 -0.7237
  536MOL0     H70743   5.820   3.596  -0.576  1.6284 -2.0997  1.4735
  536MOL0     H70744   6.071   3.588  -0.520 -0.5835  2.7241  1.8169
  536MOL0     H70745   6.015   3.574  -0.690 -1.6213  1.8212 -1.6199
  536MOL0     H70746   6.122   3.819  -0.529  2.0610  1.1011 -1.0460
  536MOL0     H70747   6.054   3.827  -0.698 -3.2086  0.0908  1.5259
  536MOL0     H70748   6.265   3.682  -0.757 -3.0522 -0.7717  0.2071
  536MOL0     H70749   6.313   3.834  -0.673  0.3159  0.3813  1.8841
  536MOL0     H70750   6.448   3.578  -0.390 -1.0161  0.4499  0.8681
  536MOL0     H70751   5.612   3.697  -0.400 -1.5127  1.3710  1.0721
  536MOL0     H70752   5.520   3.623  -0.231 -0.4509  1.3817 -0.8753
  537MOL0     O70753   1.693   0.234   9.685  0.4454 -0.4178  0.1784
  537MOL0     C70754   1.583   0.257   9.626 -1.2556 -0.7900 -0.1208
  537MOL0     O70755   1.559   0.267   9.500  0.2178  0.0441  0.4078
  537MOL0     C70756   1.662   0.266   9.403  0.0553 -0.5051 -0.1073
  537MOL0     C70757   1.794   0.224   9.423 -0.1695  0.2109  0.0051
  537MOL0     C70758   1.882   0.201   9.320  0.2845 -0.8212 -0.5708
  537MOL0     C70759   1.845   0.231   9.193 -1.0575 -0.1800  0.1477
  537MOL0     O70760   1.928   0.216   9.090 -0.6384  0.4966 -0.2461
  537MOL0     C70761   1.926   0.322   8.994 -0.5884  0.3915  0.5967
  537MOL0     C70762   2.072   0.328   8.946 -0.3184 -0.1280 -0.7103
  537MOL0     C70763   2.068   0.400   8.815  0.1963  0.2561  0.5316
  537MOL0     C70764   2.039   0.548   8.818  1.2302 -0.2664  0.5113
  537MOL0     C70765   2.102   0.611   8.693 -0.5541 -0.1074 -0.8871
  537MOL0     C70766   2.041   0.754   8.673 -0.4087  0.1116  0.6205
  537MOL0     C70767   2.113   0.843   8.569  0.2610  0.9699  0.0888
  537MOL0     C70768   2.045   0.987   8.575  0.3773  0.8802 -0.1223
  537MOL0     N70769   1.903   1.000   8.540  0.3227  1.4257  0.0323
  537MOL0     C70770   1.790   0.973   8.610  0.1461  0.8010  0.3282
  537MOL0     C70771   1.682   0.990   8.525 -0.7440 -0.2525 -0.2431
  537MOL0     C70772   1.538   0.970   8.561  0.7889 -0.3025  0.4966
  537MOL0     C70773   1.498   0.851   8.634  0.4912 -0.0898 -0.5358
  537MOL0     C70774   1.344   0.832   8.659  0.0505  0.0800  0.6289
  537MOL0     C70775   1.279   0.942   8.746  0.1521  0.3692 -0.6238
  537MOL0     O70776   1.240   1.052   8.668 -0.4471 -0.3829  0.0641
  537MOL0     C70777   1.119   1.059   8.599  0.3254  0.4260  0.2079
  537MOL0     C70778   1.074   1.172   8.535  0.6679 -0.4809  0.3683
  537MOL0     C70779   0.946   1.185   8.473  0.3939  0.4054  0.5731
  537MOL0     C70780   0.856   1.079   8.478 -0.0732 -0.8552  0.6464
  537MOL0     C70781   0.724   1.105   8.418  0.3966 -0.6093 -0.7108
  537MOL0     O70782   0.685   1.227   8.367  0.2383 -0.0945  0.3104
  537MOL0     C70783   0.563   1.267   8.326  0.6464 -0.0452  0.4234
  537MOL0     C70784   0.445   1.221   8.383  0.4833  0.6008 -0.5782
  537MOL0     C70785   0.325   1.280   8.349  0.9706 -0.4576  0.6654
  537MOL0     C70786   0.320   1.388   8.257 -0.0131  0.4686  0.9624
  537MOL0     O70787   0.201   1.453   8.232  0.5504 -0.0678 -0.2955
  537MOL0     C70788   0.107   1.377   8.157  0.5097 -1.0480 -0.0269
  537MOL0     C70789  -0.039   1.436   8.165  0.3611 -0.5268  0.1741
  537MOL0     C70790  -0.085   1.463   8.314  0.2151 -0.7206 -0.1809
  537MOL0     C70791  -0.214   1.549   8.324 -0.0091  0.3219 -0.5934
  537MOL0     C70792  -0.263   1.536   8.467  1.2843  0.2207 -0.1784
  537MOL0     C70793  -0.189   1.628   8.566 -0.5497 -0.0762 -0.0400
  537MOL0     C70794  -0.245   1.767   8.590 -0.6714  0.0374  0.4876
  537MOL0     C70795  -0.196   1.834   8.717  0.3976  0.1504  0.5118
  537MOL0    Cl70796  -0.020   1.870   8.719 -0.4010 -0.2573  0.2884
  537MOL0     C70797   0.439   1.432   8.204  0.6318 -0.3121  0.9004
  537MOL0     C70798   0.558   1.372   8.233 -0.4567 -0.6762 -0.6009
  537MOL0     O70799   0.648   1.006   8.421  0.1485 -0.3048  0.1200
  537MOL0     C70800   0.903   0.962   8.531  0.0479 -0.0686  0.3189
  537MOL0     C70801   1.020   0.959   8.588 -0.1394 -0.4018 -1.2328
  537MOL0     N70802   1.736   1.018   8.399  0.5160 -0.2179 -0.1716
  537MOL0     N70803   1.865   1.013   8.411 -1.0331  0.7470  0.6221
  537MOL0     C70804   1.713   0.274   9.167 -0.6474 -0.7706 -0.9240
  537MOL0     C70805   1.626   0.296   9.273 -0.0857 -0.0044 -0.6885
  537MOL0     C70806   1.472   0.273   9.726 -0.5605 -0.2651  0.1976
  537MOL0     C70807   1.341   0.263   9.690  1.3232  0.1924 -0.0450
  537MOL0     C70808   1.232   0.251   9.785 -0.4787  0.1744  0.8530
  537MOL0     C70809   1.254   0.275   9.919  0.6382 -1.0283  0.0270
  537MOL0     O70810   1.153   0.275  10.010 -0.1468 -0.1899 -0.3991
  537MOL0     C70811   1.047   0.370  10.000  0.0397 -0.3968 -0.4881
  537MOL0     C70812   0.959   0.365  10.126  0.1194 -0.5253  0.1030
  537MOL0     C70813   1.023   0.442  10.244  0.3244  0.3349 -0.5358
  537MOL0     C70814   1.087   0.350  10.352  1.4431  0.0468  0.3075
  537MOL0     C70815   1.110   0.426  10.472 -0.8776  0.2893 -0.2421
  537MOL0     C70816   1.133   0.475  10.580 -0.8131  0.7563 -0.3576
  537MOL0     C70817   1.392   0.298   9.961 -0.2373  0.5549 -0.5999
  537MOL0     C70818   1.500   0.285   9.866  0.2706  0.0486 -0.1860
  537MOL0     H70819   1.836   0.221   9.523 -1.0237 -1.9419  0.3559
  537MOL0     H70820   1.990   0.194   9.333  0.5332 -0.7158 -2.2789
  537MOL0     H70821   1.893   0.416   9.040 -0.5244  1.5323 -1.5687
  537MOL0     H70822   1.865   0.289   8.910  0.9462 -3.4659  0.7990
  537MOL0     H70823   2.105   0.224   8.936 -5.1701 -2.2821  1.9612
  537MOL0     H70824   2.117   0.390   9.024 -3.7675  1.5338  0.1745
  537MOL0     H70825   2.015   0.351   8.733  3.3963 -1.5889 -0.5945
  537MOL0     H70826   2.171   0.390   8.780  0.6209  1.0622  1.4841
  537MOL0     H70827   1.929   0.549   8.824  0.9276 -1.6219 -2.7514
  537MOL0     H70828   2.089   0.596   8.903  5.5068 -3.6787  0.2777
  537MOL0     H70829   2.076   0.559   8.601 -2.7205  2.9156 -2.1463
  537MOL0     H70830   2.210   0.614   8.711 -1.0955  1.5609  3.3318
  537MOL0     H70831   2.035   0.815   8.764 -2.5350 -1.1638  1.4091
  537MOL0     H70832   1.941   0.750   8.630 -0.1788 -0.7927  0.1374
  537MOL0     H70833   2.221   0.845   8.588  0.2108 -1.3977  0.8710
  537MOL0     H70834   2.101   0.794   8.472  2.0501  0.3889  0.1142
  537MOL0     H70835   2.101   1.065   8.523  3.1280 -0.1153  1.1315
  537MOL0     H70836   2.039   1.028   8.676 -3.1116  1.5113 -0.4859
  537MOL0     H70837   1.791   0.949   8.716 -4.0310 -0.5671  0.2413
  537MOL0     H70838   1.479   0.983   8.470  1.3601  2.9498  0.4708
  537MOL0     H70839   1.503   1.055   8.621 -0.5874  0.9876 -1.9561
  537MOL0     H70840   1.555   0.837   8.727  1.6574 -2.3188 -1.5045
  537MOL0     H70841   1.526   0.763   8.575  0.1622 -1.1938  0.8694
  537MOL0     H70842   1.289   0.817   8.565  1.0648 -2.0177  0.3110
  537MOL0     H70843   1.322   0.740   8.713 -0.2205 -0.4748 -0.3898
  537MOL0     H70844   1.356   0.969   8.819  0.3090 -0.5268 -0.4497
  537MOL0     H70845   1.196   0.910   8.809  0.9298  2.3616  1.5493
  537MOL0     H70846   1.136   1.261   8.545 -0.6314  0.8109 -2.1786
  537MOL0     H70847   0.926   1.286   8.438  0.1940 -0.6625 -2.7327
  537MOL0     H70848   0.437   1.147   8.462  1.1301  1.3883  0.2536
  537MOL0     H70849   0.229   1.239   8.379  0.4364 -2.0931 -2.7386
  537MOL0     H70850   0.105   1.278   8.203  3.0002 -1.3388 -0.4008
  537MOL0     H70851   0.139   1.371   8.053  0.5199  0.7138 -0.1608
  537MOL0     H70852  -0.104   1.368   8.110  0.7024 -0.7242  0.0097
  537MOL0     H70853  -0.039   1.532   8.112 -1.0265 -0.7520 -0.2690
  537MOL0     H70854  -0.004   1.501   8.377  2.0386 -1.5679 -1.9278
  537MOL0     H70855  -0.117   1.363   8.345  1.4937 -1.3963 -0.9368
  537MOL0     H70856  -0.197   1.647   8.278  2.3807 -0.7254 -2.1058
  537MOL0     H70857  -0.284   1.498   8.257  0.1776  1.0226 -1.3402
  537MOL0     H70858  -0.261   1.433   8.504  0.4950 -0.5970 -2.2743
  537MOL0     H70859  -0.366   1.575   8.471  2.1562  2.6663  0.1695
  537MOL0     H70860  -0.082   1.633   8.540 -0.4759  0.6266  0.3688
  537MOL0     H70861  -0.196   1.570   8.658 -0.5113  1.7623  1.1742
  537MOL0     H70862  -0.215   1.838   8.512 -1.8909  0.9568  0.8101
  537MOL0     H70863  -0.354   1.754   8.593 -0.5470 -0.9586  1.2743
  537MOL0     H70864  -0.228   1.778   8.805 -0.1755 -1.9808 -0.9738
  537MOL0     H70865  -0.254   1.926   8.726 -3.4404 -1.9346 -0.9163
  537MOL0     H70866   0.435   1.520   8.141 -1.0873  0.4496  1.9891
  537MOL0     H70867   0.655   1.410   8.203  0.4009 -1.1676  1.3615
  537MOL0     H70868   0.838   0.875   8.520 -0.2092  0.1445  0.1544
  537MOL0     H70869   1.043   0.860   8.625 -2.8871 -0.3480  0.9101
  537MOL0     H70870   1.675   0.294   9.067 -0.2831  2.5654 -0.5037
  537MOL0     H70871   1.524   0.329   9.260 -1.2116 -3.4967 -1.6509
  537MOL0     H70872   1.316   0.250   9.586 -2.7574  1.3241  0.6428
  537MOL0     H70873   1.129   0.248   9.750  0.5212 -0.6054 -2.4508
  537MOL0     H70874   0.981   0.347   9.916 -2.9338  1.6264  1.0805
  537MOL0     H70875   1.081   0.473   9.993 -0.2118  0.0592  3.0944
  537MOL0     H70876   0.860   0.408  10.110  0.9194  1.2846 -0.2795
  537MOL0     H70877   0.947   0.258  10.146  2.5657 -1.1751 -1.4658
  537MOL0     H70878   0.949   0.512  10.284 -0.5801 -0.4643 -0.7743
  537MOL0     H70879   1.105   0.502  10.202  0.3503 -0.2474 -1.3239
  537MOL0     H70880   1.021   0.270  10.387  0.2780  0.4262 -0.9638
  537MOL0     H70881   1.175   0.301  10.310  1.7086 -0.2954  1.2229
  537MOL0     H70882   1.137   0.520  10.677 -2.9491  2.3835 -0.9494
  537MOL0     H70883   1.419   0.316  10.065 -1.2900 -3.8007  0.6289
  537MOL0     H70884   1.599   0.297   9.909  0.5856 -0.8619 -0.6464
  538MOL0     O70885   7.138   8.538   4.098 -1.0833  0.5018  0.3618
  538MOL0     C70886   7.146   8.519   4.224  0.3069  0.5915  0.1324
  538MOL0     O70887   7.059   8.451   4.300  0.4589 -0.2857  0.2073
  538MOL0     C70888   6.966   8.373   4.229  0.4358 -0.1667  0.0030
  538MOL0     C70889   6.995   8.249   4.176 -1.3853  0.6151 -0.0937
  538MOL0     C70890   6.905   8.166   4.115  0.3925  0.1634  0.0532
  538MOL0     C70891   6.766   8.204   4.109 -0.2850 -0.1527  0.0121
  538MOL0     O70892   6.663   8.125   4.059  0.1010 -0.0150 -0.6481
  538MOL0     C70893   6.702   8.000   3.985 -1.0315 -0.5710 -0.9852
  538MOL0     C70894   6.573   7.936   3.943 -1.1429  0.7713 -0.5644
  538MOL0     C70895   6.509   7.856   4.051 -0.4220 -0.6653  0.1570
  538MOL0     C70896   6.373   7.795   4.021  0.4587 -0.4973  0.5536
  538MOL0     C70897   6.389   7.669   3.953 -0.3294  0.4768  0.3871
  538MOL0     C70898   6.262   7.592   3.969 -0.2843 -0.2998  0.2671
  538MOL0     C70899   6.268   7.511   4.099  0.5059  0.1674  0.8291
  538MOL0     C70900   6.128   7.465   4.137  0.1965 -0.1532  0.2226
  538MOL0     N70901   6.046   7.582   4.175  0.3511  0.4274  0.3209
  538MOL0     C70902   5.925   7.620   4.115 -0.2619 -0.2270  0.3619
  538MOL0     C70903   5.859   7.712   4.187  0.1220 -0.1787 -0.4832
  538MOL0     C70904   5.720   7.756   4.154  0.5725 -0.3273 -0.4681
  538MOL0     C70905   5.705   7.838   4.023  0.0947  0.9115  0.1070
  538MOL0     C70906   5.555   7.843   3.972  0.1057 -0.0459 -0.0109
  538MOL0     C70907   5.548   7.935   3.846  0.1102  0.0123  0.3656
  538MOL0     O70908   5.419   7.984   3.815  0.7795  0.3051  0.3605
  538MOL0     C70909   5.371   8.086   3.882  0.6924  1.4361  0.1848
  538MOL0     C70910   5.447   8.151   3.984  0.6761 -0.3502  0.2674
  538MOL0     C70911   5.399   8.280   4.032 -0.6793  0.8406 -0.0605
  538MOL0     C70912   5.277   8.335   3.988  0.4993 -0.1599  0.2811
  538MOL0     C70913   5.241   8.470   4.041  0.0155 -0.2458  0.2304
  538MOL0     O70914   5.293   8.521   4.158 -0.3108 -0.3614  0.0782
  538MOL0     C70915   5.309   8.654   4.196  0.5107 -0.4509 -0.1411
  538MOL0     C70916   5.422   8.677   4.280  0.1808 -0.4196 -0.0639
  538MOL0     C70917   5.455   8.810   4.318  0.5279 -0.7619 -0.5045
  538MOL0     C70918   5.389   8.927   4.259  0.6477 -0.7785 -0.7740
  538MOL0     O70919   5.415   9.048   4.296  0.7901  0.0056  0.3685
  538MOL0     C70920   5.367   9.094   4.418  0.4217 -1.2277 -0.4718
  538MOL0     C70921   5.401   9.241   4.453  0.3591 -0.6405 -0.7579
  538MOL0     C70922   5.351   9.336   4.352 -0.2543 -0.0195 -0.0554
  538MOL0     C70923   5.369   9.482   4.392  0.0816  0.4460  0.9604
  538MOL0     C70924   5.339   9.571   4.266  0.3035 -0.1969 -0.6727
  538MOL0     C70925   5.452   9.562   4.163 -0.1226  0.4933  0.0135
  538MOL0     C70926   5.442   9.658   4.045 -0.0745  0.0118  0.2671
  538MOL0     C70927   5.490   9.611   3.905  0.1160 -0.3926 -0.2194
  538MOL0    Cl70928   5.384   9.460   3.867  0.2093  0.4302 -0.2376
  538MOL0     C70929   5.278   8.898   4.187 -0.2387 -0.7648  0.5044
  538MOL0     C70930   5.239   8.766   4.150  0.0183  0.6313 -0.3582
  538MOL0     O70931   5.156   8.526   3.968  0.1131 -0.1442  0.4038
  538MOL0     C70932   5.202   8.263   3.892  0.3980 -0.5814 -0.2685
  538MOL0     C70933   5.254   8.143   3.844 -0.0136  0.5892  1.6002
  538MOL0     N70934   5.940   7.739   4.299 -0.4907 -0.0334  0.0961
  538MOL0     N70935   6.042   7.651   4.296  0.1112  0.3018 -0.8995
  538MOL0     C70936   6.739   8.330   4.153 -0.2485  0.3849 -0.4129
  538MOL0     C70937   6.832   8.407   4.227  0.0231 -0.3556 -0.1873
  538MOL0     C70938   7.256   8.587   4.295  0.3502  0.1616  0.7329
  538MOL0     C70939   7.285   8.554   4.424  0.4613 -0.2862 -0.1330
  538MOL0     C70940   7.392   8.607   4.488 -0.6461  0.8305  0.7835
  538MOL0     C70941   7.470   8.703   4.420  0.7013 -0.4137 -0.2099
  538MOL0     O70942   7.561   8.755   4.503  0.4998 -0.4187 -0.2512
  538MOL0     C70943   7.612   8.873   4.454  0.1416  0.5445  0.4931
  538MOL0     C70944   7.522   8.997   4.486 -0.6920  0.0161 -0.6237
  538MOL0     C70945   7.575   9.101   4.390 -0.5051  0.9240  0.1058
  538MOL0     C70946   7.517   9.243   4.406  0.7205  0.4005  0.5611
  538MOL0     C70947   7.370   9.251   4.411 -0.6347  0.4347  0.3416
  538MOL0     C70948   7.251   9.247   4.422  0.1605  0.4840 -0.0920
  538MOL0     C70949   7.452   8.722   4.280  0.3108  0.2429  0.9128
  538MOL0     C70950   7.339   8.670   4.219  1.0912 -0.0586 -0.6310
  538MOL0     H70951   7.099   8.226   4.195 -1.2460  2.1014  1.1213
  538MOL0     H70952   6.933   8.063   4.096  3.4742  0.8236  0.5074
  538MOL0     H70953   6.762   7.936   4.050 -0.2751  0.1789 -0.9238
  538MOL0     H70954   6.763   8.022   3.897 -0.6031  1.1016 -0.3237
  538MOL0     H70955   6.576   7.870   3.856 -1.6926  1.9204 -1.4919
  538MOL0     H70956   6.515   8.024   3.912 -1.8143  0.5637  0.0645
  538MOL0     H70957   6.507   7.926   4.135  0.0863  2.3707 -2.1683
  538MOL0     H70958   6.582   7.781   4.080  1.8617  1.2101 -0.3854
  538MOL0     H70959   6.321   7.785   4.116 -1.3049 -1.2813 -0.4439
  538MOL0     H70960   6.322   7.860   3.949  3.7291 -1.0969 -2.6549
  538MOL0     H70961   6.475   7.611   3.987 -1.4354 -2.8901 -2.0063
  538MOL0     H70962   6.390   7.678   3.844 -2.0922  1.6549  0.4324
  538MOL0     H70963   6.262   7.528   3.881  1.3155  0.2741 -0.1928
  538MOL0     H70964   6.173   7.656   3.974 -1.3516 -1.7345  0.2411
  538MOL0     H70965   6.327   7.423   4.068 -2.0805 -1.0815 -0.9379
  538MOL0     H70966   6.320   7.561   4.181 -0.1125  0.1224  1.2514
  538MOL0     H70967   6.116   7.399   4.224 -3.1294  0.1782  0.1665
  538MOL0     H70968   6.089   7.407   4.053 -0.1848  1.7496 -0.9942
  538MOL0     H70969   5.889   7.585   4.019  0.0918  2.0722 -0.6717
  538MOL0     H70970   5.693   7.827   4.233  1.9586  0.1337 -0.3879
  538MOL0     H70971   5.649   7.672   4.147  1.8954 -1.4045 -1.5141
  538MOL0     H70972   5.773   7.793   3.950  0.0669 -0.8347  1.1273
  538MOL0     H70973   5.744   7.940   4.037  1.3119  0.4320  0.3650
  538MOL0     H70974   5.517   7.748   3.933 -0.6592  0.4668 -0.5521
  538MOL0     H70975   5.488   7.884   4.048  1.4366  0.2258  1.0512
  538MOL0     H70976   5.576   7.862   3.770 -0.8491 -1.5209  1.4105
  538MOL0     H70977   5.622   8.015   3.845  0.9796 -0.7799 -0.5591
  538MOL0     H70978   5.544   8.115   4.015  1.0240  0.1826 -0.1855
  538MOL0     H70979   5.463   8.331   4.104 -0.5578 -0.5893  0.8817
  538MOL0     H70980   5.482   8.601   4.330  1.4112  0.9068  0.5531
  538MOL0     H70981   5.527   8.838   4.394  1.2875 -1.3390 -0.9990
  538MOL0     H70982   5.404   9.030   4.499  1.2498  1.4425  1.3561
  538MOL0     H70983   5.257   9.088   4.414  0.0693  2.1164  0.9259
  538MOL0     H70984   5.510   9.246   4.460  0.4054 -2.8270  1.7131
  538MOL0     H70985   5.361   9.267   4.552  1.5877  0.0817 -0.4259
  538MOL0     H70986   5.253   9.320   4.307 -0.5248  4.0060 -1.2506
  538MOL0     H70987   5.420   9.317   4.269  0.4677  2.6886 -0.1759
  538MOL0     H70988   5.296   9.491   4.473 -1.6684  1.8667 -0.6924
  538MOL0     H70989   5.472   9.495   4.428 -0.0549  1.9040  0.8956
  538MOL0     H70990   5.329   9.675   4.299  4.1659  0.0432  0.2884
  538MOL0     H70991   5.254   9.530   4.211  0.7864  0.3568 -1.8756
  538MOL0     H70992   5.450   9.462   4.121 -1.3414 -1.0867  3.4534
  538MOL0     H70993   5.543   9.582   4.221  1.1137 -1.8925 -0.9748
  538MOL0     H70994   5.337   9.686   4.034 -0.4642 -1.1013  1.0331
  538MOL0     H70995   5.502   9.742   4.080 -0.2415  0.5360 -0.6779
  538MOL0     H70996   5.598   9.594   3.896  0.3627  1.2271 -0.7451
  538MOL0     H70997   5.463   9.686   3.829 -2.7939  0.5873  1.6158
  538MOL0     H70998   5.223   8.986   4.154 -0.0627  0.0003  2.1214
  538MOL0     H70999   5.161   8.752   4.076  1.4274 -0.9539 -1.6223
  538MOL0     H71000   5.117   8.313   3.847  2.8052  1.8865 -2.4818
  538MOL0     H71001   5.190   8.104   3.766  0.0844  1.4263  1.0959
  538MOL0     H71002   6.634   8.357   4.148 -0.7683 -1.5393 -0.8649
  538MOL0     H71003   6.819   8.503   4.277  0.0057 -0.5970  0.2753
  538MOL0     H71004   7.213   8.502   4.486  0.8564  2.0568  2.4703
  538MOL0     H71005   7.429   8.575   4.585  1.6914  0.8208 -0.0413
  538MOL0     H71006   7.634   8.876   4.347  1.1728  1.7641  0.7097
  538MOL0     H71007   7.709   8.890   4.501  1.2763 -0.2908 -1.4433
  538MOL0     H71008   7.417   8.975   4.461 -1.1031  1.8925 -0.6982
  538MOL0     H71009   7.523   9.027   4.591 -4.2088  1.2757 -0.7986
  538MOL0     H71010   7.547   9.072   4.289 -0.5531  2.9198 -0.5110
  538MOL0     H71011   7.684   9.106   4.388 -0.4300 -0.3012  0.4284
  538MOL0     H71012   7.558   9.271   4.503  0.0191 -1.1990  1.3639
  538MOL0     H71013   7.536   9.321   4.332 -0.3612  1.1889  1.0871
  538MOL0     H71014   7.144   9.238   4.427 -0.0954 -1.8127 -4.4828
  538MOL0     H71015   7.514   8.785   4.216 -0.4344  0.2790  0.2146
  538MOL0     H71016   7.315   8.692   4.116 -1.2355  0.6681  0.0129
  539MOL0     O71017   0.792   7.273   8.629 -0.5692  0.3829  0.0741
  539MOL0     C71018   0.916   7.288   8.595 -0.4714 -0.4475  0.0267
  539MOL0     O71019   1.010   7.192   8.591  0.8629 -0.1213  0.2751
  539MOL0     C71020   0.959   7.060   8.585  0.2886 -0.1641 -0.4405
  539MOL0     C71021   1.036   6.965   8.643 -0.0537 -0.1861 -0.1316
  539MOL0     C71022   0.994   6.835   8.643  0.2639 -0.3831 -1.1446
  539MOL0     C71023   0.874   6.800   8.588  0.0006  1.3349  0.8400
  539MOL0     O71024   0.846   6.663   8.575  0.0458  0.7104 -0.6686
  539MOL0     C71025   0.713   6.620   8.562 -0.4502 -0.0802 -0.1579
  539MOL0     C71026   0.703   6.473   8.524  0.3578 -0.3496 -0.6423
  539MOL0     C71027   0.566   6.417   8.543  0.5982  0.4444  0.2219
  539MOL0     C71028   0.474   6.465   8.433 -0.8087  0.1151  1.1675
  539MOL0     C71029   0.339   6.402   8.443  0.2788  0.0125 -0.1219
  539MOL0     C71030   0.285   6.400   8.309  0.6326 -0.0659  0.3881
  539MOL0     C71031   0.143   6.338   8.311 -0.1597 -0.2895  0.6325
  539MOL0     C71032   0.069   6.358   8.169 -0.3557  0.0246 -0.9667
  539MOL0     N71033  -0.044   6.274   8.167  0.6121  0.1033 -0.5877
  539MOL0     C71034  -0.177   6.318   8.150 -0.1577  0.2222  0.9052
  539MOL0     C71035  -0.237   6.209   8.089 -0.3669 -0.4715 -0.3081
  539MOL0     C71036  -0.370   6.198   8.013  0.0849  0.4084 -0.6917
  539MOL0     C71037  -0.487   6.174   8.121 -0.0682 -0.0014  0.6440
  539MOL0     C71038  -0.629   6.154   8.065  0.3481 -0.6557  0.1098
  539MOL0     C71039  -0.701   6.298   8.057 -0.0552  0.2970 -0.3795
  539MOL0     O71040  -0.844   6.276   8.043 -0.0190  0.2637  0.2914
  539MOL0     C71041  -0.937   6.376   8.006  0.1084 -0.2374 -0.6015
  539MOL0     C71042  -1.065   6.331   8.010  0.3242 -0.1133 -0.6667
  539MOL0     C71043  -1.175   6.417   7.996  0.0905 -1.2352  0.1696
  539MOL0     C71044  -1.150   6.551   7.972 -0.4435 -0.4218  0.4187
  539MOL0     C71045  -1.265   6.650   7.958 -0.5849  0.0738  0.0413
  539MOL0     O71046  -1.231   6.765   7.883 -0.0868  0.4511 -0.1038
  539MOL0     C71047  -1.316   6.878   7.889  0.4569  0.3251  0.1962
  539MOL0     C71048  -1.338   6.957   7.773  0.3929 -0.6128 -0.5381
  539MOL0     C71049  -1.422   7.075   7.770  0.6065 -0.7377  0.3664
  539MOL0     C71050  -1.493   7.118   7.892 -0.1793  0.0261  0.8050
  539MOL0     O71051  -1.575   7.224   7.887 -1.0531  0.2826  0.6734
  539MOL0     C71052  -1.604   7.300   8.004 -0.0298  0.0177  0.5385
  539MOL0     C71053  -1.711   7.398   7.973  0.5775 -0.5092 -0.5580
  539MOL0     C71054  -1.661   7.495   7.861  0.3698 -0.3468 -0.3700
  539MOL0     C71055  -1.764   7.611   7.825 -0.0288  0.2583  0.6003
  539MOL0     C71056  -1.894   7.558   7.746  0.6941  0.2501  0.9576
  539MOL0     C71057  -2.010   7.655   7.777 -0.1350 -0.2211  0.0431
  539MOL0     C71058  -2.141   7.620   7.703  0.2554  0.0200  0.0440
  539MOL0     C71059  -2.249   7.722   7.751  0.4303 -0.5627  0.2536
  539MOL0    Cl71060  -2.400   7.680   7.667  0.0872 -0.0907  0.0965
  539MOL0     C71061  -1.442   7.052   8.011 -0.0666  0.3449 -0.1474
  539MOL0     C71062  -1.378   6.922   8.010 -0.6313  0.1010 -1.1450
  539MOL0     O71063  -1.375   6.618   8.009 -0.0608  0.1124  0.5248
  539MOL0     C71064  -1.017   6.600   7.963  0.1680 -0.3834  0.6265
  539MOL0     C71065  -0.914   6.509   7.978 -0.5721  0.2137 -0.2113
  539MOL0     N71066  -0.140   6.103   8.084 -0.1785 -0.1161  0.0178
  539MOL0     N71067  -0.032   6.141   8.150  0.3561  0.8155 -0.1104
  539MOL0     C71068   0.791   6.887   8.531  0.1143  0.5084  0.4895
  539MOL0     C71069   0.835   7.018   8.521 -0.5806  0.5419  0.1801
  539MOL0     C71070   0.964   7.422   8.595  0.2326 -0.4369 -1.0494
  539MOL0     C71071   0.896   7.537   8.653 -0.6524 -0.4319 -0.1643
  539MOL0     C71072   0.952   7.671   8.674 -1.4752 -1.5211  0.4714
  539MOL0     C71073   1.074   7.689   8.610  0.2031  0.0908  0.2554
  539MOL0     O71074   1.126   7.813   8.606 -0.1154 -0.3629 -0.2225
  539MOL0     C71075   1.258   7.837   8.654  0.4044 -0.5498  0.8472
  539MOL0     C71076   1.255   7.984   8.704  0.0801 -0.4706  0.0825
  539MOL0     C71077   1.186   8.007   8.841  0.3529 -0.3584  0.0780
  539MOL0     C71078   1.165   8.153   8.877  0.1118 -0.4233  0.2602
  539MOL0     C71079   1.293   8.222   8.905  0.1506  0.6297  0.4587
  539MOL0     C71080   1.411   8.254   8.932 -0.2003  0.7586  0.2844
  539MOL0     C71081   1.136   7.581   8.539 -0.3907  0.5033 -0.5283
  539MOL0     C71082   1.089   7.448   8.544  0.8367  0.0693  0.3772
  539MOL0     H71083   1.136   6.986   8.679 -0.7340 -3.7171  4.9954
  539MOL0     H71084   1.047   6.754   8.691 -0.4778 -1.5074 -2.1694
  539MOL0     H71085   0.645   6.667   8.491 -2.5609 -3.0592 -0.3016
  539MOL0     H71086   0.657   6.624   8.657 -1.8103 -1.7356 -0.8344
  539MOL0     H71087   0.778   6.413   8.576  0.2674  0.2921  0.2562
  539MOL0     H71088   0.737   6.459   8.420  2.5332 -1.9648  0.2083
  539MOL0     H71089   0.523   6.456   8.636 -0.1303 -2.1312  1.0412
  539MOL0     H71090   0.584   6.309   8.542  0.8323  0.4437 -2.2339
  539MOL0     H71091   0.461   6.573   8.420 -1.8779 -0.0454  0.8299
  539MOL0     H71092   0.518   6.434   8.338  0.7124  0.8551  1.5949
  539MOL0     H71093   0.282   6.457   8.518 -2.3139 -1.5532 -0.8067
  539MOL0     H71094   0.349   6.296   8.469 -4.0346 -0.8749 -1.2619
  539MOL0     H71095   0.345   6.352   8.231  0.1787  0.2792 -0.1788
  539MOL0     H71096   0.279   6.504   8.276  2.6774 -0.6168 -2.0336
  539MOL0     H71097   0.157   6.230   8.324  0.6126 -0.2713  0.0209
  539MOL0     H71098   0.083   6.381   8.392 -1.2823  2.1162 -1.3716
  539MOL0     H71099   0.127   6.318   8.085  1.3684  0.1921  0.0867
  539MOL0     H71100   0.047   6.462   8.144 -0.5209 -1.0672 -6.6313
  539MOL0     H71101  -0.206   6.422   8.147 -0.2837  0.1725 -1.7662
  539MOL0     H71102  -0.388   6.107   7.954 -1.0966  0.4164 -0.3867
  539MOL0     H71103  -0.403   6.292   7.970  2.8612  1.6430 -0.3153
  539MOL0     H71104  -0.485   6.245   8.204  0.6447 -1.9334  2.3888
  539MOL0     H71105  -0.460   6.079   8.168 -2.3822 -1.9494 -1.6798
  539MOL0     H71106  -0.622   6.110   7.965  1.8589 -2.7429  1.0605
  539MOL0     H71107  -0.687   6.077   8.117 -4.7975  0.4294 -3.2458
  539MOL0     H71108  -0.661   6.359   7.976 -1.5388  0.7498 -0.8039
  539MOL0     H71109  -0.692   6.346   8.155 -0.3280 -3.0760  1.4583
  539MOL0     H71110  -1.066   6.222   8.018  3.0959 -0.0884  1.6107
  539MOL0     H71111  -1.276   6.380   7.999 -1.4047  1.3567 -5.3635
  539MOL0     H71112  -1.277   6.926   7.689  1.6064 -0.2720  0.1964
  539MOL0     H71113  -1.434   7.132   7.678 -1.8209 -2.5500 -0.5300
  539MOL0     H71114  -1.512   7.344   8.045 -2.5457  4.4811  2.1422
  539MOL0     H71115  -1.659   7.235   8.073  2.0875 -3.6663 -0.9616
  539MOL0     H71116  -1.726   7.471   8.053  1.3245 -0.2392 -0.6532
  539MOL0     H71117  -1.805   7.350   7.945 -1.0023 -0.0055  3.2383
  539MOL0     H71118  -1.631   7.436   7.774  1.3303  0.1522 -0.3919
  539MOL0     H71119  -1.571   7.548   7.895 -1.4065  2.1434  0.7508
  539MOL0     H71120  -1.784   7.657   7.922  0.3985 -0.1311  0.8765
  539MOL0     H71121  -1.708   7.687   7.770 -0.4611  1.9462  2.3691
  539MOL0     H71122  -1.921   7.456   7.775 -3.1411  0.1160 -2.2777
  539MOL0     H71123  -1.875   7.562   7.638 -2.2867  0.9992  0.3848
  539MOL0     H71124  -1.980   7.755   7.744 -0.5691 -0.3653 -0.8349
  539MOL0     H71125  -2.037   7.653   7.883 -3.4878  1.2502 -0.6678
  539MOL0     H71126  -2.135   7.621   7.594 -0.0803 -0.8086  0.0116
  539MOL0     H71127  -2.174   7.521   7.736 -2.5945  1.3246  1.4564
  539MOL0     H71128  -2.237   7.829   7.732  0.5120  0.0917  3.3614
  539MOL0     H71129  -2.254   7.707   7.859 -2.4125 -3.0216 -0.1016
  539MOL0     H71130  -1.510   7.080   8.091 -2.2653 -1.6592 -1.1750
  539MOL0     H71131  -1.371   6.873   8.107  3.9992 -1.6584 -2.1210
  539MOL0     H71132  -1.003   6.706   7.951 -1.5040 -0.2725 -0.6846
  539MOL0     H71133  -0.815   6.552   7.984  0.1055 -1.3544  0.4267
  539MOL0     H71134   0.705   6.864   8.469  2.1767  3.1485 -3.8271
  539MOL0     H71135   0.778   7.093   8.467  0.1477  2.9282  2.5098
  539MOL0     H71136   0.790   7.536   8.675 -0.2032 -0.4614  2.2819
  539MOL0     H71137   0.905   7.745   8.737  2.5088 -0.0786  2.0154
  539MOL0     H71138   1.322   7.812   8.570  0.1930 -1.7385  1.0205
  539MOL0     H71139   1.283   7.769   8.736 -0.1456  0.3341  1.7903
  539MOL0     H71140   1.358   8.018   8.719 -0.4293  1.7313 -0.9775
  539MOL0     H71141   1.203   8.051   8.635 -4.4935 -0.9250  2.6920
  539MOL0     H71142   1.240   7.955   8.920  2.2691  1.2057 -0.1345
  539MOL0     H71143   1.088   7.960   8.827 -0.4620  1.7466 -2.0487
  539MOL0     H71144   1.129   8.204   8.787 -0.6408  2.6866  2.1904
  539MOL0     H71145   1.097   8.178   8.958 -0.4514  0.8056 -0.5610
  539MOL0     H71146   1.510   8.293   8.921  1.5956 -3.3056  0.4636
  539MOL0     H71147   1.232   7.600   8.492 -0.8471  1.1186 -1.2270
  539MOL0     H71148   1.159   7.376   8.502 -0.6181  0.9309 -4.0214
  540MOL0     O71149   4.417   8.682   9.958  0.2501  0.0370 -0.0541
  540MOL0     C71150   4.463   8.633  10.057  0.6244 -0.8282 -0.5379
  540MOL0     O71151   4.600   8.614  10.085 -0.0791 -0.4301  0.0127
  540MOL0     C71152   4.685   8.641   9.979 -0.6493  0.8427  0.2957
  540MOL0     C71153   4.699   8.556   9.869 -0.2679 -0.1694  0.1725
  540MOL0     C71154   4.779   8.595   9.761  0.6035 -0.5166  0.7141
  540MOL0     C71155   4.868   8.696   9.773 -0.0044 -0.1117  0.4635
  540MOL0     O71156   4.961   8.716   9.676  0.0451  0.1219 -0.1263
  540MOL0     C71157   5.088   8.786   9.700  0.2819  0.1997 -0.9525
  540MOL0     C71158   5.187   8.771   9.580 -0.5565 -0.2993 -0.3050
  540MOL0     C71159   5.334   8.798   9.626 -0.0083  0.1876 -0.1542
  540MOL0     C71160   5.432   8.778   9.516 -0.0334  0.4144 -0.4590
  540MOL0     C71161   5.567   8.807   9.586  0.6189  0.4450  0.8320
  540MOL0     C71162   5.684   8.769   9.494 -0.6623 -0.9865 -0.6460
  540MOL0     C71163   5.709   8.608   9.480 -1.2355 -0.1437  0.2880
  540MOL0     C71164   5.825   8.575   9.382  0.0612 -0.3708  0.3658
  540MOL0     N71165   5.952   8.597   9.449  0.3289 -0.2576  0.0892
  540MOL0     C71166   6.015   8.715   9.443 -0.6318  0.6349  0.3205
  540MOL0     C71167   6.133   8.683   9.508  0.4054 -0.3668 -0.6030
  540MOL0     C71168   6.241   8.785   9.514 -0.0576  0.2165 -0.2452
  540MOL0     C71169   6.356   8.731   9.599 -0.1172  0.2659  0.0810
  540MOL0     C71170   6.464   8.843   9.599 -0.4347  0.0329 -1.3517
  540MOL0     C71171   6.600   8.830   9.675  0.0675 -0.0647  0.0610
  540MOL0     O71172   6.693   8.940   9.650  0.1206 -0.0436  0.0624
  540MOL0     C71173   6.808   8.901   9.590 -0.2071 -0.0709 -0.0025
  540MOL0     C71174   6.890   8.789   9.618  1.2102  0.1559 -0.9045
  540MOL0     C71175   7.015   8.765   9.565  0.2143  1.4971 -0.6706
  540MOL0     C71176   7.071   8.852   9.472  0.0225  0.2533 -0.5946
  540MOL0     C71177   7.208   8.821   9.411  0.5208  0.7391 -0.7795
  540MOL0     O71178   7.261   8.902   9.310 -0.1409 -0.1601 -0.2094
  540MOL0     C71179   7.395   8.925   9.291 -0.0280 -0.6233 -0.9288
  540MOL0     C71180   7.484   8.948   9.404  0.6529  0.9355  0.9390
  540MOL0     C71181   7.612   8.989   9.381 -1.0295 -0.1281 -0.4979
  540MOL0     C71182   7.666   8.997   9.249  0.9002 -0.8841  0.3959
  540MOL0     O71183   7.797   9.029   9.223  0.7535 -0.4204  0.6259
  540MOL0     C71184   7.902   8.959   9.288 -0.5666  0.1788  0.3652
  540MOL0     C71185   7.887   8.809   9.277 -0.6069  0.1939  0.2128
  540MOL0     C71186   7.912   8.762   9.131 -0.1554 -0.0433 -0.5523
  540MOL0     C71187   7.899   8.615   9.127 -0.1301 -0.5479 -0.5930
  540MOL0     C71188   7.909   8.537   8.988  0.6071 -0.4503 -0.3508
  540MOL0     C71189   7.791   8.577   8.893 -0.5121  0.0720  0.6688
  540MOL0     C71190   7.817   8.513   8.752  0.4922  0.6927 -0.3819
  540MOL0     C71191   7.725   8.551   8.639 -0.8864 -0.8681 -0.3276
  540MOL0    Cl71192   7.544   8.533   8.664  0.3339  0.3642 -0.1015
  540MOL0     C71193   7.581   8.980   9.141 -0.4862  0.3453  0.3922
  540MOL0     C71194   7.441   8.947   9.159  0.8581 -0.5007 -0.1236
  540MOL0     O71195   7.276   8.731   9.464 -0.0156 -1.0400  0.1632
  540MOL0     C71196   6.991   8.966   9.443  0.0265  0.0590  0.9327
  540MOL0     C71197   6.869   8.993   9.503 -0.6448 -0.2812 -1.3789
  540MOL0     N71198   6.135   8.559   9.562  0.3267 -0.0588  0.2335
  540MOL0     N71199   6.017   8.505   9.523 -0.5684 -0.2457  0.6134
  540MOL0     C71200   4.873   8.769   9.892  0.1390 -0.3242  0.4130
  540MOL0     C71201   4.773   8.752   9.998  0.1342 -0.0025  1.1932
  540MOL0     C71202   4.377   8.620  10.174  0.9096 -0.5334  0.4759
  540MOL0     C71203   4.232   8.630  10.163 -0.8956 -0.5612 -0.1267
  540MOL0     C71204   4.153   8.613  10.272  0.4983  0.4008 -1.2950
  540MOL0     C71205   4.210   8.590  10.398 -0.0110  0.4941  0.3541
  540MOL0     O71206   4.129   8.544  10.502  0.0665 -0.0288 -0.0968
  540MOL0     C71207   3.989   8.532  10.480  0.1400 -0.2248 -0.3893
  540MOL0     C71208   3.933   8.427  10.579  0.5270  0.3643 -0.4529
  540MOL0     C71209   3.978   8.459  10.720  0.6511  0.4840 -0.1886
  540MOL0     C71210   3.889   8.391  10.825 -0.0773 -0.8038  0.0866
  540MOL0     C71211   3.870   8.491  10.938 -0.3488  1.0676 -0.1963
  540MOL0     C71212   3.858   8.565  11.035 -0.0134 -0.1505  0.1712
  540MOL0     C71213   4.347   8.574  10.405  0.8491  1.2041  0.2499
  540MOL0     C71214   4.439   8.592  10.304 -0.6045 -0.0566 -0.4802
  540MOL0     H71215   4.633   8.469   9.864  2.0606 -2.0121 -0.4031
  540MOL0     H71216   4.767   8.534   9.671  0.3074  1.4446 -0.6429
  540MOL0     H71217   5.138   8.744   9.788  0.7040 -3.4098 -2.7465
  540MOL0     H71218   5.066   8.891   9.721 -4.4591 -1.2282  3.1994
  540MOL0     H71219   5.150   8.841   9.505 -1.6637 -1.6705 -1.0981
  540MOL0     H71220   5.177   8.668   9.545  2.1150 -1.4544  1.9971
  540MOL0     H71221   5.365   8.722   9.699 -2.8045 -0.8083  0.1156
  540MOL0     H71222   5.333   8.894   9.677  0.0645 -0.9084  2.0434
  540MOL0     H71223   5.418   8.682   9.467  1.7265 -0.1212  0.0023
  540MOL0     H71224   5.434   8.852   9.435  2.6721 -0.1569 -0.9952
  540MOL0     H71225   5.572   8.746   9.677 -0.9311 -0.9078  0.0628
  540MOL0     H71226   5.578   8.910   9.620  1.7134  0.5567  0.1754
  540MOL0     H71227   5.776   8.816   9.528 -0.2876 -3.6040  2.4372
  540MOL0     H71228   5.662   8.816   9.397 -0.1289  3.1409  1.0084
  540MOL0     H71229   5.723   8.561   9.578  1.5390  1.3571  0.7239
  540MOL0     H71230   5.626   8.550   9.439 -0.5264 -1.5229  0.7204
  540MOL0     H71231   5.812   8.639   9.295  1.4195  1.4778  1.4464
  540MOL0     H71232   5.823   8.469   9.356  2.3062 -0.2790 -0.3601
  540MOL0     H71233   5.974   8.797   9.385  0.3893  0.0144 -1.3979
  540MOL0     H71234   6.211   8.886   9.542  2.2587  0.4109  1.8383
  540MOL0     H71235   6.280   8.812   9.415  0.7891  3.0061  0.7551
  540MOL0     H71236   6.395   8.638   9.556  2.1752  2.7374 -3.7335
  540MOL0     H71237   6.321   8.708   9.701 -0.2172  0.7626  0.1590
  540MOL0     H71238   6.490   8.872   9.497  2.4660  2.2357 -0.1375
  540MOL0     H71239   6.429   8.935   9.646 -0.7661 -0.8152  0.1243
  540MOL0     H71240   6.643   8.733   9.647  1.5829  1.1876 -2.1594
  540MOL0     H71241   6.568   8.837   9.780 -1.1304  2.7366 -0.4129
  540MOL0     H71242   6.851   8.728   9.699  0.1777  0.7316 -0.9562
  540MOL0     H71243   7.061   8.669   9.587  0.0297  1.6330  0.3720
  540MOL0     H71244   7.454   8.938   9.508 -4.2159  4.4465  0.2059
  540MOL0     H71245   7.678   8.997   9.466  0.7952 -1.7501 -1.6937
  540MOL0     H71246   7.913   8.989   9.392  3.3438 -0.0420  0.1402
  540MOL0     H71247   7.994   8.983   9.235 -0.7098  3.7313  1.4899
  540MOL0     H71248   7.788   8.774   9.306 -1.0715  1.7098  0.5209
  540MOL0     H71249   7.967   8.765   9.338 -1.2419  0.0703  0.9640
  540MOL0     H71250   8.012   8.793   9.100  0.7367 -0.8226  1.3328
  540MOL0     H71251   7.833   8.802   9.068 -1.2916 -1.3583 -0.0166
  540MOL0     H71252   7.968   8.567   9.196 -0.5494 -2.0331 -1.1591
  540MOL0     H71253   7.800   8.594   9.170  0.3789  0.4814  1.1482
  540MOL0     H71254   7.915   8.432   9.019  5.1505  0.3522  2.5426
  540MOL0     H71255   7.999   8.555   8.929  1.4593 -4.3724 -0.4838
  540MOL0     H71256   7.787   8.686   8.885  1.2245  0.5484  4.1837
  540MOL0     H71257   7.705   8.545   8.952  0.6262  0.6540  2.7604
  540MOL0     H71258   7.920   8.541   8.729  1.4701 -0.2360  2.4587
  540MOL0     H71259   7.809   8.405   8.766 -1.5441  0.6302 -1.6409
  540MOL0     H71260   7.764   8.505   8.547  1.0806 -0.4447  0.2567
  540MOL0     H71261   7.741   8.658   8.621 -2.0937 -0.4705  0.8351
  540MOL0     H71262   7.632   8.998   9.047  2.1180  1.8426  1.9882
  540MOL0     H71263   7.366   8.948   9.081  1.5285  3.2823 -0.9240
  540MOL0     H71264   7.027   9.039   9.371  0.6235 -2.1630 -1.1598
  540MOL0     H71265   6.814   9.084   9.481  1.3887  1.7253  1.1320
  540MOL0     H71266   4.946   8.849   9.890 -2.6153  2.3804 -0.8312
  540MOL0     H71267   4.769   8.799  10.096 -0.9980  1.6606  0.3969
  540MOL0     H71268   4.183   8.648  10.068  0.2913 -3.4428 -1.4063
  540MOL0     H71269   4.046   8.617  10.254 -0.0931 -4.9491 -0.5817
  540MOL0     H71270   3.980   8.477  10.386  1.2419  2.1198 -1.9470
  540MOL0     H71271   3.938   8.628  10.495  2.0875  0.6027  1.5834
  540MOL0     H71272   3.824   8.435  10.566  0.6633  0.5521 -1.6295
  540MOL0     H71273   3.977   8.328  10.561  1.2643  0.3615  1.2695
  540MOL0     H71274   3.973   8.568  10.732 -2.4618  0.2921  1.2162
  540MOL0     H71275   4.083   8.433  10.732  0.3597  0.2129  2.2231
  540MOL0     H71276   3.792   8.366  10.781  1.3055 -1.4481 -2.8328
  540MOL0     H71277   3.937   8.302  10.867  0.5894 -0.8260 -0.6875
  540MOL0     H71278   3.842   8.641  11.109  1.4710  1.0347 -0.6430
  540MOL0     H71279   4.396   8.540  10.496  0.9825 -1.1003 -0.6186
  540MOL0     H71280   4.545   8.594  10.323 -0.8544  2.6838  1.1608
  541MOL0     O71281   2.941   6.380   5.471  0.2096 -0.0123  0.3799
  541MOL0     C71282   3.066   6.351   5.453  0.0075 -0.0497 -0.2176
  541MOL0     O71283   3.131   6.234   5.493  0.8190 -0.6236  0.1942
  541MOL0     C71284   3.051   6.142   5.557  0.5858  0.0179 -1.2888
  541MOL0     C71285   2.953   6.073   5.489  0.2234  0.5661 -0.2544
  541MOL0     C71286   2.874   5.976   5.562  1.2232  0.3645  0.2517
  541MOL0     C71287   2.879   5.979   5.706 -0.8223 -0.2189 -0.1135
  541MOL0     O71288   2.787   5.905   5.786 -0.0276  0.9244 -0.2797
  541MOL0     C71289   2.826   5.763   5.787 -0.5387  0.8666 -0.3103
  541MOL0     C71290   2.745   5.706   5.907 -0.0564  0.2373  0.5720
  541MOL0     C71291   2.825   5.726   6.037  0.1056 -0.2992  0.2890
  541MOL0     C71292   2.743   5.671   6.155 -0.9816 -0.2474 -0.3099
  541MOL0     C71293   2.775   5.737   6.283 -0.4876  0.2349 -0.2446
  541MOL0     C71294   2.663   5.708   6.379 -0.9467  1.5872  0.7085
  541MOL0     C71295   2.673   5.549   6.432 -0.3860 -0.7507  0.2989
  541MOL0     C71296   2.557   5.467   6.404  0.0499 -0.6078  0.5396
  541MOL0     N71297   2.437   5.495   6.491  0.8214 -1.0492  0.4476
  541MOL0     C71298   2.343   5.592   6.482 -0.2008 -0.7794 -0.5479
  541MOL0     C71299   2.249   5.557   6.573 -0.2763  0.1255  0.8524
  541MOL0     C71300   2.117   5.634   6.589 -0.7499  1.3152 -0.2216
  541MOL0     C71301   1.995   5.581   6.501 -0.5246  0.1966 -0.6377
  541MOL0     C71302   1.973   5.643   6.365 -0.3948 -0.3434 -1.3053
  541MOL0     C71303   1.925   5.571   6.240  1.3287 -0.3792  1.0350
  541MOL0     O71304   1.779   5.553   6.233 -0.4511 -0.4432 -0.0100
  541MOL0     C71305   1.725   5.494   6.116  0.0371  0.1665  0.4136
  541MOL0     C71306   1.788   5.448   6.000  0.0495 -0.0158 -0.3807
  541MOL0     C71307   1.708   5.385   5.905 -0.1232  0.0636  0.2338
  541MOL0     C71308   1.573   5.360   5.916 -0.5137 -0.1248 -0.3482
  541MOL0     C71309   1.497   5.270   5.829  0.0726 -0.1331  0.5498
  541MOL0     O71310   1.361   5.274   5.836  0.2981 -0.3580 -0.2841
  541MOL0     C71311   1.276   5.212   5.741  0.2055  0.1223 -1.6127
  541MOL0     C71312   1.263   5.076   5.722  0.8170 -0.0399  0.2891
  541MOL0     C71313   1.183   5.023   5.626  0.2112 -0.6251  0.9397
  541MOL0     C71314   1.101   5.104   5.549  0.3947  0.5120  0.3479
  541MOL0     O71315   1.001   5.057   5.461  0.5528 -0.7386 -0.4056
  541MOL0     C71316   1.020   4.924   5.421  0.0478 -0.0227  1.0253
  541MOL0     C71317   0.943   4.903   5.301 -0.0944  0.9551  0.4115
  541MOL0     C71318   0.928   4.756   5.267 -0.1909 -0.6304 -0.3989
  541MOL0     C71319   0.819   4.683   5.347  0.2675 -0.9584 -0.0361
  541MOL0     C71320   0.836   4.537   5.324 -0.1653 -1.4932  0.1127
  541MOL0     C71321   0.740   4.463   5.418 -0.4476 -0.2944 -1.5207
  541MOL0     C71322   0.787   4.469   5.567 -0.0614  0.0237  0.1473
  541MOL0     C71323   0.706   4.374   5.647 -0.4061  1.2252 -0.7134
  541MOL0    Cl71324   0.739   4.424   5.817  0.2484  0.5659 -0.5721
  541MOL0     C71325   1.127   5.246   5.565 -0.2791  0.5415  0.9615
  541MOL0     C71326   1.203   5.293   5.666 -0.2960 -0.9668  0.3118
  541MOL0     O71327   1.551   5.204   5.743 -0.5963  0.6163 -0.5640
  541MOL0     C71328   1.507   5.411   6.026  0.2747 -0.5663  0.7540
  541MOL0     C71329   1.583   5.486   6.114  0.1434 -0.1856  0.8145
  541MOL0     N71330   2.284   5.438   6.636 -0.1872 -0.2287 -0.0305
  541MOL0     N71331   2.399   5.403   6.583  0.2039  0.3305 -0.3342
  541MOL0     C71332   2.981   6.053   5.769  0.2540  0.1638  0.1774
  541MOL0     C71333   3.055   6.142   5.697  0.2293 -0.1745 -0.1700
  541MOL0     C71334   3.152   6.453   5.394  0.1884 -0.2750 -1.7229
  541MOL0     C71335   3.109   6.581   5.379  0.3437 -0.0108  0.7058
  541MOL0     C71336   3.178   6.672   5.302  0.7924 -0.4347 -0.2248
  541MOL0     C71337   3.300   6.645   5.245  0.8495  0.3742  0.2359
  541MOL0     O71338   3.377   6.726   5.167  0.3896  0.2261 -0.0295
  541MOL0     C71339   3.315   6.845   5.124  1.0448  0.2325  0.2476
  541MOL0     C71340   3.423   6.932   5.066  0.3528 -0.3149  0.5377
  541MOL0     C71341   3.356   7.070   5.021 -0.2144  0.5475 -0.5414
  541MOL0     C71342   3.453   7.185   4.991 -0.9242  0.0426 -0.7325
  541MOL0     C71343   3.380   7.302   4.944 -0.1963  1.0664 -0.5398
  541MOL0     C71344   3.339   7.399   4.886  0.2460  0.0310  0.4107
  541MOL0     C71345   3.352   6.523   5.274  0.4747  0.2803  0.3427
  541MOL0     C71346   3.280   6.422   5.346 -1.0294  0.0100  0.2152
  541MOL0     H71347   2.952   6.090   5.382  1.3195 -0.1300 -0.3837
  541MOL0     H71348   2.805   5.902   5.524  0.7040  1.3146 -0.7158
  541MOL0     H71349   2.934   5.750   5.799 -0.6826  0.5978  0.8996
  541MOL0     H71350   2.787   5.729   5.691 -0.8040 -0.8402  0.3686
  541MOL0     H71351   2.717   5.602   5.887 -0.9221  0.4167  0.8234
  541MOL0     H71352   2.652   5.762   5.910  1.0993  2.1853  1.5814
  541MOL0     H71353   2.836   5.832   6.062  0.2902 -0.2565  0.0210
  541MOL0     H71354   2.924   5.680   6.037 -0.2447 -1.2140  3.0312
  541MOL0     H71355   2.637   5.685   6.131 -1.0700 -1.2750 -0.5589
  541MOL0     H71356   2.757   5.563   6.165 -3.8677 -0.5333  2.2716
  541MOL0     H71357   2.769   5.845   6.265 -1.6341  0.0634 -1.0602
  541MOL0     H71358   2.870   5.703   6.323 -0.4004 -1.7053 -1.9320
  541MOL0     H71359   2.567   5.724   6.330 -1.5768 -4.7032 -0.9971
  541MOL0     H71360   2.660   5.766   6.472 -0.4099  0.8428  1.2013
  541MOL0     H71361   2.753   5.493   6.384 -1.2096 -2.1978  0.5541
  541MOL0     H71362   2.689   5.549   6.540  0.9447  3.4823  0.2817
  541MOL0     H71363   2.596   5.365   6.413  3.3120  0.6772  2.8882
  541MOL0     H71364   2.519   5.485   6.303 -0.6345 -4.1023  0.0489
  541MOL0     H71365   2.345   5.683   6.423  1.9655  3.1093  4.7519
  541MOL0     H71366   2.136   5.740   6.566 -2.4784  1.7659  0.3163
  541MOL0     H71367   2.085   5.627   6.693 -1.2737 -0.9851 -0.4814
  541MOL0     H71368   1.914   5.594   6.574  0.4319 -1.4478  0.8168
  541MOL0     H71369   2.026   5.478   6.480 -0.0024  0.5553 -1.7261
  541MOL0     H71370   1.914   5.734   6.382  1.9757  1.1950 -0.8743
  541MOL0     H71371   2.071   5.688   6.348  0.9833 -2.8160 -0.2764
  541MOL0     H71372   1.975   5.474   6.240 -0.9719 -1.6470  2.2309
  541MOL0     H71373   1.954   5.617   6.145  0.4451 -2.3004 -0.2202
  541MOL0     H71374   1.893   5.456   5.978  1.1520  1.4509  4.2575
  541MOL0     H71375   1.752   5.344   5.815  0.4695  0.3024  0.4103
  541MOL0     H71376   1.330   5.019   5.786  1.2779 -1.4567 -1.3876
  541MOL0     H71377   1.185   4.915   5.612 -1.2176 -0.6542  0.8282
  541MOL0     H71378   0.978   4.856   5.496  0.0189 -0.2019  0.8481
  541MOL0     H71379   1.124   4.895   5.400  0.2897  0.0288  2.0995
  541MOL0     H71380   0.993   4.943   5.213  2.1810 -2.1740  0.1219
  541MOL0     H71381   0.837   4.933   5.307 -1.4040 -3.1062  0.3027
  541MOL0     H71382   1.028   4.715   5.284  0.4053  0.6099 -0.8002
  541MOL0     H71383   0.907   4.752   5.160 -1.9702 -1.6743 -0.0485
  541MOL0     H71384   0.826   4.710   5.453 -0.7774  1.0667 -0.4235
  541MOL0     H71385   0.723   4.717   5.306 -0.1298 -0.0688  1.5461
  541MOL0     H71386   0.940   4.512   5.348  0.5758 -0.5992 -1.9109
  541MOL0     H71387   0.831   4.504   5.219  2.9391 -4.2221  0.6434
  541MOL0     H71388   0.727   4.358   5.389 -0.1758 -0.1424 -2.2110
  541MOL0     H71389   0.639   4.503   5.406 -0.8806 -1.5972 -2.4341
  541MOL0     H71390   0.895   4.450   5.566  0.1656  0.8284 -3.2647
  541MOL0     H71391   0.772   4.574   5.593 -1.0530  0.5442 -2.2848
  541MOL0     H71392   0.734   4.269   5.631 -1.7694  0.6681  0.4048
  541MOL0     H71393   0.599   4.383   5.630 -1.1501  0.6843  2.8888
  541MOL0     H71394   1.093   5.309   5.483  0.3984 -0.7168 -0.3534
  541MOL0     H71395   1.220   5.399   5.682 -1.2846 -1.1831  3.2007
  541MOL0     H71396   1.401   5.399   6.043 -0.2697 -0.6027 -2.1530
  541MOL0     H71397   1.536   5.519   6.206 -0.5189  0.4089  0.2714
  541MOL0     H71398   2.990   6.055   5.877  2.0029 -3.0283  0.2113
  541MOL0     H71399   3.118   6.217   5.744  2.2366 -0.1521 -2.6882
  541MOL0     H71400   3.007   6.605   5.407 -0.3761 -2.1570  0.1378
  541MOL0     H71401   3.130   6.769   5.293  3.2717  0.7515 -1.4671
  541MOL0     H71402   3.269   6.914   5.195 -0.8489  2.5415 -2.9620
  541MOL0     H71403   3.240   6.820   5.048  0.3736 -1.5528  1.4400
  541MOL0     H71404   3.503   6.959   5.136  0.8823  5.6521 -1.7543
  541MOL0     H71405   3.474   6.873   4.990  2.6174 -2.3217  3.4176
  541MOL0     H71406   3.287   7.085   5.104  1.0817  0.4583  0.5874
  541MOL0     H71407   3.301   7.055   4.928  0.2415 -1.1982 -0.5607
  541MOL0     H71408   3.515   7.210   5.077 -1.7210  2.8366 -0.8772
  541MOL0     H71409   3.514   7.159   4.904 -1.8162 -2.6108 -0.6651
  541MOL0     H71410   3.281   7.468   4.828 -1.5338  0.2881  2.3972
  541MOL0     H71411   3.451   6.498   5.236  0.6509  1.4576 -0.0312
  541MOL0     H71412   3.324   6.323   5.356  0.2902  0.4588 -0.7992
  542MOL0     O71413   4.962   5.941   6.015  0.1442 -0.0945 -0.3287
  542MOL0     C71414   5.025   5.981   6.118 -0.4955 -0.2816  0.4971
  542MOL0     O71415   5.157   6.024   6.125  0.7154  0.3067  0.1278
  542MOL0     C71416   5.236   6.024   6.014  0.6435  0.5241  0.0987
  542MOL0     C71417   5.189   6.079   5.888 -0.4147  0.0344 -1.6170
  542MOL0     C71418   5.277   6.103   5.779  0.0021  1.3179 -0.8755
  542MOL0     C71419   5.408   6.050   5.792 -0.4178 -0.8992  0.0802
  542MOL0     O71420   5.506   6.075   5.702 -0.0908 -0.0977  0.0533
  542MOL0     C71421   5.467   6.036   5.566 -0.5236  0.9234 -0.4589
  542MOL0     C71422   5.454   6.162   5.478 -0.2306  0.0444  0.5774
  542MOL0     C71423   5.494   6.136   5.334 -0.1713  0.2599 -0.5239
  542MOL0     C71424   5.465   6.258   5.238  0.7748 -0.5024 -1.0515
  542MOL0     C71425   5.491   6.220   5.091 -0.6106  0.0333  1.7057
  542MOL0     C71426   5.534   6.336   4.999 -0.6813  0.4062 -0.1384
  542MOL0     C71427   5.686   6.364   5.002 -0.0528  0.2844  0.2131
  542MOL0     C71428   5.749   6.448   4.898  0.4315 -0.0841 -0.5186
  542MOL0     N71429   5.736   6.383   4.773 -0.3526 -0.5791 -0.9948
  542MOL0     C71430   5.632   6.402   4.684 -0.1436  0.4330  0.7514
  542MOL0     C71431   5.628   6.310   4.585  0.7485  0.0020 -0.3642
  542MOL0     C71432   5.511   6.275   4.494  0.1018 -0.6689 -0.6715
  542MOL0     C71433   5.445   6.150   4.539  0.9991  0.3667 -0.1192
  542MOL0     C71434   5.314   6.185   4.625 -0.0541  0.4574  0.2823
  542MOL0     C71435   5.242   6.063   4.660  0.1616  0.8088  0.1301
  542MOL0     O71436   5.191   5.993   4.537 -0.8207 -0.2212 -0.2585
  542MOL0     C71437   5.239   5.870   4.494  0.8780 -0.1997  0.0467
  542MOL0     C71438   5.219   5.853   4.352 -0.0944  0.4307  0.0113
  542MOL0     C71439   5.269   5.732   4.301  0.0465 -0.0525  0.5033
  542MOL0     C71440   5.321   5.630   4.380 -0.6992 -0.2787 -0.0262
  542MOL0     C71441   5.349   5.499   4.300 -0.6492 -0.0824 -1.6595
  542MOL0     O71442   5.293   5.482   4.177  0.4482 -0.3973 -0.0723
  542MOL0     C71443   5.307   5.358   4.120 -0.5632  0.2152 -0.6135
  542MOL0     C71444   5.194   5.279   4.093  0.6069  0.1664  1.0683
  542MOL0     C71445   5.208   5.152   4.034  0.2066 -0.0338 -0.4288
  542MOL0     C71446   5.328   5.122   3.983 -0.8813 -0.7285  0.5637
  542MOL0     O71447   5.339   4.999   3.916  0.0844 -0.4498  0.1913
  542MOL0     C71448   5.425   4.990   3.805  0.0414 -0.2715  0.4222
  542MOL0     C71449   5.351   4.929   3.686 -0.1227  1.0331 -0.0388
  542MOL0     C71450   5.234   5.022   3.646 -0.4293  0.9625  0.2080
  542MOL0     C71451   5.135   4.962   3.552  1.0870 -0.0321 -0.3623
  542MOL0     C71452   5.028   5.066   3.516  0.3096 -0.0857  0.0893
  542MOL0     C71453   4.913   5.022   3.420 -0.4926  0.3776 -0.1692
  542MOL0     C71454   4.808   5.134   3.425 -0.6668 -0.8405 -1.2103
  542MOL0     C71455   4.854   5.256   3.347  0.2612 -0.3284  0.8051
  542MOL0    Cl71456   4.713   5.370   3.317 -0.0954  0.4630  0.0761
  542MOL0     C71457   5.443   5.197   4.015  0.7028  0.6768  0.3306
  542MOL0     C71458   5.435   5.307   4.093 -0.6910  0.3595 -0.0017
  542MOL0     O71459   5.383   5.403   4.376  0.1133  0.4255 -0.3379
  542MOL0     C71460   5.333   5.649   4.520 -0.6113  0.3894  0.1509
  542MOL0     C71461   5.296   5.772   4.568  0.3922  0.3886 -1.3840
  542MOL0     N71462   5.742   6.237   4.606  0.1274 -0.2686  0.2236
  542MOL0     N71463   5.798   6.279   4.719 -0.7930  0.1727 -0.2582
  542MOL0     C71464   5.453   6.015   5.922  0.0352  0.2755 -0.4145
  542MOL0     C71465   5.362   6.006   6.026  0.6386 -0.6453 -0.7396
  542MOL0     C71466   4.967   5.951   6.251 -0.2213  0.0357  0.9067
  542MOL0     C71467   4.881   5.840   6.260  0.3492 -0.4293 -0.0723
  542MOL0     C71468   4.811   5.814   6.381  0.5739 -0.5007 -0.0221
  542MOL0     C71469   4.831   5.899   6.494  0.3680  0.7200 -0.6213
  542MOL0     O71470   4.753   5.878   6.610  0.1687 -0.5417 -0.5811
  542MOL0     C71471   4.823   5.885   6.736  0.3539  0.2061 -0.5486
  542MOL0     C71472   4.750   5.821   6.851  0.6106 -0.0458 -0.3309
  542MOL0     C71473   4.848   5.775   6.962 -0.2647 -0.0140 -0.1774
  542MOL0     C71474   4.881   5.904   7.044 -0.1169  0.8060 -0.1007
  542MOL0     C71475   4.978   5.867   7.150 -0.8157 -0.1173  0.5838
  542MOL0     C71476   5.061   5.832   7.237  0.1846  0.6731 -0.6810
  542MOL0     C71477   4.931   6.001   6.484 -0.3949  0.4271 -0.4247
  542MOL0     C71478   4.992   6.032   6.358  0.1293  0.4199  0.2565
  542MOL0     H71479   5.084   6.106   5.879  0.0124  1.8405 -1.5640
  542MOL0     H71480   5.234   6.140   5.686 -0.3616 -2.2655 -2.3150
  542MOL0     H71481   5.374   5.979   5.573 -1.1406  2.1169  2.6165
  542MOL0     H71482   5.548   5.970   5.532  0.0412  1.8035 -0.8843
  542MOL0     H71483   5.518   6.242   5.517 -0.2054 -1.1333  3.2255
  542MOL0     H71484   5.352   6.199   5.496  0.6801  3.8075 -0.9815
  542MOL0     H71485   5.429   6.054   5.299 -0.5541  1.8035 -3.7878
  542MOL0     H71486   5.597   6.102   5.327 -0.2871  0.0320 -1.2492
  542MOL0     H71487   5.359   6.281   5.254  0.6553 -2.5610  2.1951
  542MOL0     H71488   5.516   6.350   5.265  1.9469 -1.3725 -0.2066
  542MOL0     H71489   5.409   6.166   5.044 -0.3351  0.9776  0.0540
  542MOL0     H71490   5.572   6.147   5.080  0.2402  0.2022  5.3959
  542MOL0     H71491   5.479   6.425   5.031  0.2031  2.1609 -3.0899
  542MOL0     H71492   5.489   6.315   4.902 -0.3448  1.4178 -0.5269
  542MOL0     H71493   5.718   6.396   5.102 -0.7793  1.3681  0.1200
  542MOL0     H71494   5.738   6.270   4.982 -0.6609  0.4480 -2.3905
  542MOL0     H71495   5.855   6.458   4.923  0.4577  0.6432 -0.8755
  542MOL0     H71496   5.699   6.545   4.887 -2.9598 -1.6564 -0.4130
  542MOL0     H71497   5.553   6.472   4.707 -1.6525 -0.2879 -1.8990
  542MOL0     H71498   5.552   6.252   4.395 -2.2249  0.0912 -1.8974
  542MOL0     H71499   5.444   6.360   4.477  0.9862  0.7794  2.3316
  542MOL0     H71500   5.506   6.080   4.598 -1.0715 -1.6179 -0.1850
  542MOL0     H71501   5.420   6.093   4.449  1.2494 -0.6011  0.4051
  542MOL0     H71502   5.345   6.245   4.711 -0.7189 -1.1034  1.6683
  542MOL0     H71503   5.249   6.243   4.558 -0.9086  1.1255  1.6438
  542MOL0     H71504   5.144   6.089   4.700  0.3455  0.5454  0.7666
  542MOL0     H71505   5.308   6.002   4.723 -1.0876 -1.0432 -0.2764
  542MOL0     H71506   5.180   5.933   4.290 -0.3205  1.3017  1.2491
  542MOL0     H71507   5.283   5.719   4.195  1.0194  0.9695  0.4881
  542MOL0     H71508   5.095   5.320   4.111 -1.0804 -1.5635 -3.1220
  542MOL0     H71509   5.123   5.087   4.013 -0.2546 -0.5717  2.6871
  542MOL0     H71510   5.492   4.906   3.824 -1.0734 -1.3051 -0.0533
  542MOL0     H71511   5.493   5.074   3.787 -1.9184  1.3949  0.4239
  542MOL0     H71512   5.313   4.833   3.720 -1.5705  1.5050 -0.2800
  542MOL0     H71513   5.421   4.913   3.604 -0.2991 -0.1417  0.0192
  542MOL0     H71514   5.273   5.117   3.606 -0.9527 -0.0258 -2.9803
  542MOL0     H71515   5.176   5.047   3.735 -4.1585  0.1239 -1.7676
  542MOL0     H71516   5.193   4.928   3.465  2.1161  1.5516 -0.3255
  542MOL0     H71517   5.088   4.873   3.595  0.4046  0.6785  0.3915
  542MOL0     H71518   5.069   5.153   3.464  0.5618 -0.4963 -0.4008
  542MOL0     H71519   4.992   5.117   3.606 -2.0849  0.4354 -1.0615
  542MOL0     H71520   4.874   4.921   3.436 -1.5409  1.1110  2.4879
  542MOL0     H71521   4.954   5.011   3.319  0.1394 -0.8164  0.2065
  542MOL0     H71522   4.712   5.099   3.386 -0.7107 -1.7133 -0.3716
  542MOL0     H71523   4.788   5.172   3.526 -2.6533 -1.4355 -1.3425
  542MOL0     H71524   4.884   5.211   3.252  2.8592 -2.8877  2.6713
  542MOL0     H71525   4.936   5.311   3.394  1.2240 -1.4438  0.4654
  542MOL0     H71526   5.540   5.176   3.971  0.0369  0.6971 -1.2287
  542MOL0     H71527   5.519   5.375   4.098  1.1377 -0.9775 -5.6473
  542MOL0     H71528   5.366   5.573   4.590 -0.2073  0.4350  0.0126
  542MOL0     H71529   5.312   5.781   4.675 -0.2036  2.1238 -1.4141
  542MOL0     H71530   5.557   5.998   5.944 -0.0796  1.1143  0.8868
  542MOL0     H71531   5.407   5.992   6.124 -0.5094 -2.2691 -0.4066
  542MOL0     H71532   4.863   5.773   6.176  1.4582 -2.5392  1.2864
  542MOL0     H71533   4.727   5.745   6.384  0.4920 -0.3666  1.2676
  542MOL0     H71534   4.851   5.989   6.754  1.4749  0.5939 -3.8926
  542MOL0     H71535   4.918   5.833   6.725 -0.4038 -1.3544 -0.0598
  542MOL0     H71536   4.670   5.884   6.889 -1.1774 -1.3605 -1.7554
  542MOL0     H71537   4.700   5.734   6.807 -0.4627 -0.0267  0.8135
  542MOL0     H71538   4.939   5.724   6.930  1.7582  1.1855  3.1625
  542MOL0     H71539   4.784   5.709   7.022 -4.1742  1.7084 -2.0835
  542MOL0     H71540   4.929   5.975   6.975  0.5534 -0.1396 -0.6221
  542MOL0     H71541   4.787   5.944   7.084 -0.5430  0.1423 -0.4300
  542MOL0     H71542   5.121   5.804   7.321  2.4393 -0.4278 -2.5270
  542MOL0     H71543   4.938   6.087   6.550  1.9586 -0.8711  1.1472
  542MOL0     H71544   5.056   6.120   6.359 -0.1530  0.6335 -0.3704
  543MOL0     O71545   6.294   1.092  10.805  0.0507  0.3071 -0.4696
  543MOL0     C71546   6.291   0.974  10.847 -0.2750 -0.0865  0.2456
  543MOL0     O71547   6.251   0.862  10.780  0.5029  0.2663 -0.2204
  543MOL0     C71548   6.237   0.857  10.643  0.1645  0.2908 -0.0721
  543MOL0     C71549   6.181   0.744  10.591  0.4866  0.5123 -0.7210
  543MOL0     C71550   6.169   0.718  10.450 -0.2692 -0.8427 -0.4076
  543MOL0     C71551   6.221   0.815  10.355 -1.1023  0.4972  0.1566
  543MOL0     O71552   6.232   0.781  10.214 -0.6382  0.3314 -0.2575
  543MOL0     C71553   6.346   0.827  10.145 -0.4751  0.7109  0.1998
  543MOL0     C71554   6.335   0.768  10.001  0.5667 -0.1662  0.3519
  543MOL0     C71555   6.465   0.798   9.931  0.1755  0.4542  0.8524
  543MOL0     C71556   6.455   0.769   9.777 -1.0871 -0.4427  0.1492
  543MOL0     C71557   6.449   0.621   9.725  0.1063 -0.6619 -0.1864
  543MOL0     C71558   6.495   0.609   9.576  0.0224 -0.3419 -0.5888
  543MOL0     C71559   6.462   0.474   9.517 -0.5896 -0.1207 -0.6148
  543MOL0     C71560   6.530   0.460   9.377  0.1935  0.5940 -0.0058
  543MOL0     N71561   6.478   0.348   9.296 -0.3652  0.6779  0.6752
  543MOL0     C71562   6.530   0.215   9.320  0.3306 -0.4979 -0.6460
  543MOL0     C71563   6.487   0.145   9.218 -0.4085  0.3395  0.0060
  543MOL0     C71564   6.539   0.008   9.187  1.1596  1.1363 -0.5163
  543MOL0     C71565   6.477  -0.108   9.264  0.5845  0.3775  0.2957
  543MOL0     C71566   6.518  -0.243   9.202 -0.1201  0.1746 -0.3618
  543MOL0     C71567   6.472  -0.354   9.286 -0.6666 -0.6506 -0.8981
  543MOL0     O71568   6.333  -0.358   9.295  1.0240 -0.0853 -0.2472
  543MOL0     C71569   6.262  -0.467   9.354 -0.2548  0.2653 -0.3713
  543MOL0     C71570   6.316  -0.559   9.443 -0.6740  0.6659  0.7052
  543MOL0     C71571   6.236  -0.665   9.489 -0.6264 -0.5331 -0.1166
  543MOL0     C71572   6.104  -0.676   9.455  0.5671 -0.7898  0.5486
  543MOL0     C71573   6.015  -0.785   9.503 -0.3991 -1.0390 -0.3018
  543MOL0     O71574   6.067  -0.892   9.563 -0.2671 -0.2830 -0.1670
  543MOL0     C71575   5.981  -0.983   9.611 -0.6434 -0.0204 -0.4885
  543MOL0     C71576   5.968  -0.985   9.750 -0.0363 -0.9674 -0.2490
  543MOL0     C71577   5.880  -1.065   9.814  0.4834 -0.0071 -0.1123
  543MOL0     C71578   5.809  -1.163   9.743  0.6439 -0.1057 -0.5262
  543MOL0     O71579   5.720  -1.249   9.796  0.0353  0.2847  0.3277
  543MOL0     C71580   5.670  -1.230   9.927 -0.0559 -1.0039  0.8997
  543MOL0     C71581   5.585  -1.334   9.991  0.0362  0.3571  0.0985
  543MOL0     C71582   5.460  -1.377   9.907 -0.6641  0.2768  0.4052
  543MOL0     C71583   5.399  -1.508   9.953  0.1322 -0.6554  0.4341
  543MOL0     C71584   5.344  -1.580   9.833 -0.5369  0.5977 -0.2165
  543MOL0     C71585   5.241  -1.500   9.753  0.9810 -0.2048 -0.4592
  543MOL0     C71586   5.140  -1.594   9.670 -0.3103  0.4985 -0.9522
  543MOL0     C71587   5.063  -1.535   9.554 -0.5744  0.2345 -0.0860
  543MOL0    Cl71588   5.163  -1.439   9.445  0.0173  0.1321 -0.3147
  543MOL0     C71589   5.810  -1.164   9.609  0.5992 -0.6814  0.2338
  543MOL0     C71590   5.905  -1.081   9.547  0.4952 -0.1754  0.5364
  543MOL0     O71591   5.900  -0.779   9.470 -0.2353  0.3605  0.0584
  543MOL0     C71592   6.051  -0.579   9.370 -0.2198 -0.6591 -1.1629
  543MOL0     C71593   6.126  -0.476   9.318 -1.0695  0.2313  0.1039
  543MOL0     N71594   6.439   0.228   9.124 -0.5481 -0.4844  0.0550
  543MOL0     N71595   6.434   0.346   9.168 -0.4988  0.1101 -0.5926
  543MOL0     C71596   6.289   0.923  10.416  0.0685 -0.6788 -0.1583
  543MOL0     C71597   6.295   0.945  10.555  0.5128 -1.0421  0.1835
  543MOL0     C71598   6.323   0.957  10.990  0.0527  0.0466 -0.8866
  543MOL0     C71599   6.362   0.828  11.030  0.2638 -0.2283 -0.0567
  543MOL0     C71600   6.374   0.807  11.167  0.6297 -0.1357 -0.1364
  543MOL0     C71601   6.331   0.904  11.265  1.0354 -0.4900  1.1001
  543MOL0     O71602   6.296   0.860  11.392 -0.2790 -0.3840  0.0984
  543MOL0     C71603   6.364   0.935  11.497  0.3216  0.3545  0.6068
  543MOL0     C71604   6.316   0.881  11.638  0.0588 -0.8327 -0.4115
  543MOL0     C71605   6.405   0.929  11.747 -0.5858 -0.5580  0.3391
  543MOL0     C71606   6.410   0.833  11.866  0.9456  0.5658  0.1993
  543MOL0     C71607   6.291   0.854  11.951 -0.3547 -0.0540 -0.7244
  543MOL0     C71608   6.191   0.863  12.016  0.0386 -0.8924  0.3546
  543MOL0     C71609   6.301   1.038  11.226  0.5929  0.4600 -0.1634
  543MOL0     C71610   6.302   1.065  11.086  0.5367 -0.3115 -0.5910
  543MOL0     H71611   6.138   0.666  10.653  4.0301 -1.4045 -0.4214
  543MOL0     H71612   6.109   0.632  10.422 -0.2286 -2.0693  2.7654
  543MOL0     H71613   6.430   0.790  10.205 -2.2855 -1.1721  1.6914
  543MOL0     H71614   6.372   0.933  10.136  1.7530  0.0474 -3.8579
  543MOL0     H71615   6.248   0.804   9.945  1.0275 -0.0475 -0.2914
  543MOL0     H71616   6.319   0.660  10.010 -0.7182 -0.0890 -0.6206
  543MOL0     H71617   6.549   0.737   9.965  0.4220  0.5894  0.4895
  543MOL0     H71618   6.489   0.903   9.947  0.5957  0.4578  0.2472
  543MOL0     H71619   6.373   0.823   9.728  0.7128  1.4382 -0.9784
  543MOL0     H71620   6.540   0.824   9.735 -1.6298  2.8786  2.9304
  543MOL0     H71621   6.349   0.584   9.749 -0.2997 -0.5767 -1.7034
  543MOL0     H71622   6.523   0.566   9.784 -0.4040 -2.0738 -0.8119
  543MOL0     H71623   6.602   0.624   9.564  0.0663 -1.1623 -1.3302
  543MOL0     H71624   6.441   0.684   9.518  0.4174 -0.0267 -0.5487
  543MOL0     H71625   6.500   0.397   9.585 -0.1261 -0.1295 -0.8831
  543MOL0     H71626   6.353   0.459   9.515 -0.5360 -1.0519  1.2358
  543MOL0     H71627   6.637   0.440   9.387 -0.0090 -1.1317 -0.9487
  543MOL0     H71628   6.520   0.555   9.323  1.9270  0.7154 -0.1946
  543MOL0     H71629   6.586   0.192   9.410 -1.3424  0.7020  0.7544
  543MOL0     H71630   6.645   0.001   9.212  0.8124 -0.4761  0.6213
  543MOL0     H71631   6.531  -0.015   9.080  3.5225 -0.9557 -0.3525
  543MOL0     H71632   6.369  -0.091   9.254  0.6547  0.2516 -0.7887
  543MOL0     H71633   6.494  -0.107   9.372 -2.5910 -0.9290  0.9098
  543MOL0     H71634   6.487  -0.255   9.098  6.3391  0.6451 -2.7413
  543MOL0     H71635   6.627  -0.246   9.210  0.2046  4.1230 -1.4301
  543MOL0     H71636   6.516  -0.342   9.385 -1.1703 -0.7603 -0.6609
  543MOL0     H71637   6.506  -0.447   9.241  5.3105  1.7444 -2.3725
  543MOL0     H71638   6.424  -0.562   9.450 -0.6556  3.0087  2.7421
  543MOL0     H71639   6.280  -0.737   9.557 -2.7103 -1.8836 -0.1162
  543MOL0     H71640   6.022  -0.903   9.797  3.8632 -1.8143 -2.7948
  543MOL0     H71641   5.870  -1.051   9.921 -0.6941  0.9684 -0.3336
  543MOL0     H71642   5.618  -1.134   9.921  0.0007 -1.0620 -1.0222
  543MOL0     H71643   5.754  -1.219   9.996  2.3067  0.5925 -2.0126
  543MOL0     H71644   5.554  -1.281  10.081  1.6205  2.3527 -0.4447
  543MOL0     H71645   5.647  -1.418  10.025 -1.4824 -0.8035  0.1024
  543MOL0     H71646   5.506  -1.377   9.808  0.3839  4.0024  0.7510
  543MOL0     H71647   5.388  -1.295   9.909 -0.9131  0.0646  0.2384
  543MOL0     H71648   5.454  -1.589  10.001 -0.1721  0.3435  2.6050
  543MOL0     H71649   5.318  -1.484  10.023  0.7938  0.5576  0.8129
  543MOL0     H71650   5.291  -1.674   9.853 -2.2327  1.3349 -1.0259
  543MOL0     H71651   5.433  -1.612   9.778  0.7149 -1.2200  2.6109
  543MOL0     H71652   5.296  -1.427   9.694  1.2136  0.0693  0.0875
  543MOL0     H71653   5.174  -1.446   9.821 -1.2893 -1.2658 -1.7009
  543MOL0     H71654   5.205  -1.673   9.631  1.8081  0.0807  2.9009
  543MOL0     H71655   5.072  -1.634   9.746  0.9883  2.9701  1.7237
  543MOL0     H71656   4.978  -1.476   9.588  2.3862  3.1450  2.9952
  543MOL0     H71657   5.033  -1.621   9.493  1.0717  0.1242 -0.8149
  543MOL0     H71658   5.742  -1.233   9.560 -1.5735  1.9163 -0.7115
  543MOL0     H71659   5.920  -1.093   9.440  2.0383  0.3151  0.6861
  543MOL0     H71660   5.946  -0.575   9.347 -0.0633  0.3575 -1.7651
  543MOL0     H71661   6.092  -0.397   9.251 -1.7922 -0.0004  0.1940
  543MOL0     H71662   6.345   0.999  10.361  0.1172 -0.9624 -0.5048
  543MOL0     H71663   6.337   1.040  10.583 -1.1734 -0.6109  1.4309
  543MOL0     H71664   6.388   0.740  10.972 -3.2868 -1.6666  0.2649
  543MOL0     H71665   6.400   0.708  11.205 -1.7765  0.4540  3.6048
  543MOL0     H71666   6.332   1.038  11.486 -0.9793  0.1882  2.4427
  543MOL0     H71667   6.474   0.935  11.493  0.3346  0.6051  0.9183
  543MOL0     H71668   6.214   0.916  11.659  0.6224  0.2037  0.8117
  543MOL0     H71669   6.322   0.773  11.647 -1.2998 -1.3868 -4.2365
  543MOL0     H71670   6.383   1.035  11.767  3.1099  0.6836 -1.3259
  543MOL0     H71671   6.506   0.942  11.707  0.0516 -2.2724  1.2753
  543MOL0     H71672   6.409   0.728  11.837 -2.8354  0.1503  1.3405
  543MOL0     H71673   6.506   0.845  11.917  2.4943 -2.4225 -1.7366
  543MOL0     H71674   6.097   0.847  12.064  0.0626 -0.8274  0.4227
  543MOL0     H71675   6.262   1.098  11.308 -0.6547 -1.3368  0.6085
  543MOL0     H71676   6.285   1.170  11.067  0.1828 -0.0974  0.8498
  544MOL0     O71677   4.522   2.237   7.410  0.7895  0.6155 -0.1384
  544MOL0     C71678   4.456   2.193   7.505 -0.9116  0.5627 -0.6765
  544MOL0     O71679   4.358   2.097   7.509 -0.4017  0.1592 -0.0655
  544MOL0     C71680   4.310   2.051   7.390 -0.1876  0.6423 -0.3310
  544MOL0     C71681   4.266   2.128   7.283 -0.5527  0.0661  0.2134
  544MOL0     C71682   4.223   2.088   7.161 -1.2045  0.0024  0.2502
  544MOL0     C71683   4.234   1.948   7.130  0.4176  0.6772 -0.7234
  544MOL0     O71684   4.196   1.911   7.003  0.6426 -0.3962  0.1591
  544MOL0     C71685   4.131   1.786   6.990 -0.1017  0.0765 -0.3430
  544MOL0     C71686   4.072   1.759   6.861  0.5246 -0.5783  0.2225
  544MOL0     C71687   4.010   1.617   6.861  0.9691  0.4733  0.1820
  544MOL0     C71688   3.931   1.594   6.731 -0.2714 -0.4332 -0.5776
  544MOL0     C71689   3.921   1.441   6.703 -0.9630 -0.5491  0.4338
  544MOL0     C71690   3.896   1.339   6.813  0.6547 -0.4415  0.7417
  544MOL0     C71691   3.893   1.203   6.748 -0.6645  0.3910 -0.2031
  544MOL0     C71692   3.855   1.084   6.845 -0.5619 -0.2401 -0.5635
  544MOL0     N71693   3.722   1.094   6.909  0.5471 -0.0695  0.0774
  544MOL0     C71694   3.602   1.059   6.854 -0.6385  0.4192  0.1589
  544MOL0     C71695   3.512   1.104   6.950 -0.3200 -0.4343 -0.0265
  544MOL0     C71696   3.362   1.096   6.944 -0.1837  1.1741 -0.2282
  544MOL0     C71697   3.296   0.983   7.019 -0.2423  0.1938  0.5357
  544MOL0     C71698   3.141   0.989   7.000  0.1246  1.2400  0.5337
  544MOL0     C71699   3.075   0.901   7.112 -0.7628 -0.2907  0.7461
  544MOL0     O71700   3.068   0.968   7.237 -0.4549 -0.1411  0.3466
  544MOL0     C71701   2.943   0.998   7.287  0.2436 -0.6931 -1.6383
  544MOL0     C71702   2.937   0.994   7.432 -0.4935 -0.3598 -0.2131
  544MOL0     C71703   2.811   1.019   7.493 -0.3094  0.4235  0.2981
  544MOL0     C71704   2.693   1.053   7.417 -0.7467  0.2609 -0.6648
  544MOL0     C71705   2.557   1.055   7.483 -0.5477 -0.6969 -0.0985
  544MOL0     O71706   2.452   1.079   7.405 -0.2062  0.2882  0.4157
  544MOL0     C71707   2.320   1.078   7.456 -0.4411 -0.1142  0.8298
  544MOL0     C71708   2.229   1.153   7.380  1.2216  0.5965  0.1316
  544MOL0     C71709   2.094   1.158   7.417  0.1515 -0.7069 -0.2188
  544MOL0     C71710   2.043   1.094   7.524 -0.9439 -0.3668 -0.0939
  544MOL0     O71711   1.909   1.101   7.552 -0.1624  0.8493 -0.1861
  544MOL0     C71712   1.806   1.158   7.474 -0.0835  0.0096 -0.4290
  544MOL0     C71713   1.670   1.118   7.529 -0.4247 -0.8346 -0.2204
  544MOL0     C71714   1.624   1.185   7.661 -0.6373 -0.0491  0.1380
  544MOL0     C71715   1.487   1.134   7.707 -0.4481 -0.4941 -0.0795
  544MOL0     C71716   1.407   1.220   7.819  0.4648  0.2942 -0.1018
  544MOL0     C71717   1.348   1.358   7.759  0.1940  0.4137  0.3540
  544MOL0     C71718   1.229   1.332   7.663 -0.4865 -0.1071 -0.4135
  544MOL0     C71719   1.113   1.265   7.742 -0.0706 -0.9137 -0.0217
  544MOL0    Cl71720   0.945   1.228   7.673  0.0291 -0.0072  0.4591
  544MOL0     C71721   2.134   1.013   7.594  0.1581  0.1810  0.1559
  544MOL0     C71722   2.268   1.003   7.561  0.7814 -0.2054  0.1194
  544MOL0     O71723   2.551   1.027   7.600 -0.7969  0.1153 -0.6597
  544MOL0     C71724   2.706   1.052   7.280 -1.2085  0.5363  0.5552
  544MOL0     C71725   2.831   1.030   7.212  1.3592 -1.2773 -1.1388
  544MOL0     N71726   3.573   1.163   7.057 -0.6590 -0.0444 -0.7200
  544MOL0     N71727   3.699   1.146   7.030 -0.2973 -0.6595  0.1090
  544MOL0     C71728   4.283   1.863   7.242  0.0938 -0.0641  0.7949
  544MOL0     C71729   4.321   1.912   7.365  0.1245 -0.1941 -0.8527
  544MOL0     C71730   4.470   2.274   7.631  0.2252 -0.1082  0.2907
  544MOL0     C71731   4.527   2.408   7.624 -0.0174  1.0280  0.3966
  544MOL0     C71732   4.548   2.475   7.746  0.9623 -1.2053 -0.8090
  544MOL0     C71733   4.494   2.431   7.869  0.2061 -1.0361 -0.3231
  544MOL0     O71734   4.501   2.528   7.973  0.2509  0.1118  0.0025
  544MOL0     C71735   4.458   2.491   8.106  1.2062 -0.1571 -0.5441
  544MOL0     C71736   4.567   2.427   8.194 -0.3232 -0.5662 -0.0700
  544MOL0     C71737   4.545   2.424   8.345 -0.9021 -0.5271 -0.0118
  544MOL0     C71738   4.562   2.558   8.417  0.2740  0.4555 -0.3406
  544MOL0     C71739   4.688   2.629   8.399 -0.2148 -0.1491  1.0990
  544MOL0     C71740   4.794   2.683   8.364 -1.3279  0.6501  0.3880
  544MOL0     C71741   4.448   2.298   7.870 -0.4011  0.5149  0.4595
  544MOL0     C71742   4.443   2.214   7.752 -0.3360 -0.5193  0.1845
  544MOL0     H71743   4.265   2.235   7.302  1.1450  0.2637 -0.6158
  544MOL0     H71744   4.182   2.159   7.090  2.0476  0.8647 -0.9168
  544MOL0     H71745   4.061   1.768   7.073  1.5725 -0.9025  0.9166
  544MOL0     H71746   4.208   1.709   6.987  0.7461  0.9302 -0.8748
  544MOL0     H71747   4.141   1.755   6.776  0.2929  0.7935 -0.0575
  544MOL0     H71748   3.998   1.835   6.834  0.0479 -0.9690  0.4110
  544MOL0     H71749   3.934   1.608   6.939  0.3341 -0.6407 -0.5478
  544MOL0     H71750   4.081   1.536   6.883  0.3101 -0.4020 -0.8466
  544MOL0     H71751   3.827   1.626   6.742  0.5578  2.1181  0.3260
  544MOL0     H71752   3.974   1.648   6.646  0.9538 -0.9901 -0.3278
  544MOL0     H71753   4.012   1.412   6.649  0.5024 -0.0761  2.5137
  544MOL0     H71754   3.835   1.429   6.637  0.7557 -0.9295 -1.8545
  544MOL0     H71755   3.795   1.345   6.855  0.1769  1.0299 -0.4925
  544MOL0     H71756   3.970   1.345   6.893  0.6829  0.8702  0.6362
  544MOL0     H71757   3.830   1.193   6.660  0.6313  0.0303 -1.1303
  544MOL0     H71758   3.994   1.187   6.708  0.8325 -3.4160  4.1686
  544MOL0     H71759   3.939   1.087   6.916  1.7559 -0.3875 -3.1268
  544MOL0     H71760   3.872   0.993   6.787  2.5505 -2.0583  2.7826
  544MOL0     H71761   3.569   1.021   6.758  2.1771  1.9036 -1.4967
  544MOL0     H71762   3.332   1.103   6.839  2.4811  2.7502 -0.9747
  544MOL0     H71763   3.321   1.186   6.989  0.2968  1.6499 -0.7301
  544MOL0     H71764   3.316   0.986   7.127  0.7722 -2.1553  0.4638
  544MOL0     H71765   3.335   0.885   6.991 -3.3605 -1.7233  2.2489
  544MOL0     H71766   3.099   1.090   7.004 -0.4362  1.0221  0.1861
  544MOL0     H71767   3.135   0.943   6.901  0.9526  2.3670 -0.0624
  544MOL0     H71768   3.135   0.810   7.113  0.5722  0.5170 -0.9710
  544MOL0     H71769   2.976   0.866   7.082 -0.8463  2.1314 -2.2675
  544MOL0     H71770   3.024   0.959   7.486  1.1406  1.8121 -1.2528
  544MOL0     H71771   2.813   1.016   7.602  1.5848  0.5231  0.3052
  544MOL0     H71772   2.269   1.201   7.291 -0.5816 -0.3538 -1.2539
  544MOL0     H71773   2.029   1.224   7.359 -1.2347 -0.0910  1.9078
  544MOL0     H71774   1.824   1.118   7.374  2.5175  0.7994 -0.3471
  544MOL0     H71775   1.829   1.264   7.465 -0.0206  0.0893  0.4997
  544MOL0     H71776   1.670   1.011   7.554  0.2098 -1.2804 -1.9675
  544MOL0     H71777   1.604   1.131   7.442  1.2424  1.3424 -1.2318
  544MOL0     H71778   1.633   1.294   7.661 -0.8721 -0.0235 -0.7627
  544MOL0     H71779   1.689   1.138   7.736  0.2818 -2.9237 -2.2519
  544MOL0     H71780   1.419   1.142   7.621 -0.7024  0.0249  0.1660
  544MOL0     H71781   1.496   1.027   7.727  0.0706 -0.3865  0.2762
  544MOL0     H71782   1.480   1.250   7.894  0.6146  1.2425 -0.6120
  544MOL0     H71783   1.332   1.153   7.862  1.7922 -1.4154 -0.3404
  544MOL0     H71784   1.425   1.423   7.716  1.5629 -0.3678  1.5515
  544MOL0     H71785   1.311   1.408   7.849  0.6133  0.3105  0.5842
  544MOL0     H71786   1.205   1.430   7.620  2.1328  0.1162 -1.5693
  544MOL0     H71787   1.260   1.276   7.574  0.4671  0.6762 -0.5871
  544MOL0     H71788   1.098   1.325   7.833  2.5744 -0.5665  0.2803
  544MOL0     H71789   1.140   1.171   7.793 -1.3291 -2.7996 -2.6365
  544MOL0     H71790   2.103   0.950   7.677  0.7380 -0.8852 -0.4087
  544MOL0     H71791   2.335   0.933   7.611  1.1859 -0.3836 -0.6520
  544MOL0     H71792   2.622   1.065   7.213  0.4654 -1.5982 -2.1972
  544MOL0     H71793   2.823   1.026   7.104  0.3578  1.0640 -1.2064
  544MOL0     H71794   4.300   1.759   7.216  0.2127  0.2428 -0.4179
  544MOL0     H71795   4.358   1.849   7.445  0.8573  0.7907 -0.4120
  544MOL0     H71796   4.574   2.447   7.534 -0.4606 -2.6689 -1.6586
  544MOL0     H71797   4.570   2.581   7.757  1.0557 -1.3950  1.4819
  544MOL0     H71798   4.366   2.431   8.106 -0.2158  1.8770  0.2538
  544MOL0     H71799   4.423   2.584   8.154  3.7638  0.6904 -0.1921
  544MOL0     H71800   4.585   2.322   8.173 -0.0973 -0.9001  1.6261
  544MOL0     H71801   4.660   2.478   8.166 -0.4917 -1.8442 -3.3599
  544MOL0     H71802   4.609   2.346   8.387  2.2542  0.1033 -3.1712
  544MOL0     H71803   4.439   2.397   8.344 -0.7640 -1.1604  1.2320
  544MOL0     H71804   4.487   2.625   8.376 -1.2074 -1.6905 -1.3393
  544MOL0     H71805   4.528   2.548   8.521  0.9402  0.4517 -0.1179
  544MOL0     H71806   4.874   2.730   8.310  0.2264 -0.1183  1.9298
  544MOL0     H71807   4.415   2.256   7.965 -0.0909  3.7267  2.1203
  544MOL0     H71808   4.417   2.109   7.765 -0.2471 -0.4183  1.2840
  545MOL0     O71809   3.008   1.343   2.083 -0.2715  0.0723 -0.0131
  545MOL0     C71810   3.029   1.447   2.148 -0.6806  0.1929  0.1067
  545MOL0     O71811   3.037   1.442   2.277 -0.5492  0.4276  0.1042
  545MOL0     C71812   2.968   1.345   2.339  0.3872  0.1697 -0.4164
  545MOL0     C71813   3.017   1.294   2.459  0.6181  0.1525 -0.4276
  545MOL0     C71814   2.943   1.207   2.543  0.1680 -0.0147 -0.1128
  545MOL0     C71815   2.811   1.182   2.514  0.0677 -0.4787 -0.0959
  545MOL0     O71816   2.742   1.103   2.599  0.3159 -0.2661 -0.0867
  545MOL0     C71817   2.668   1.001   2.534 -1.2386 -0.2930  0.2594
  545MOL0     C71818   2.631   0.875   2.623 -1.2686  0.8322  0.1039
  545MOL0     C71819   2.553   0.767   2.544 -0.0241 -0.1159 -0.8028
  545MOL0     C71820   2.530   0.637   2.623 -0.0975  0.2558  1.3142
  545MOL0     C71821   2.475   0.535   2.534 -0.3461  0.0399  0.5897
  545MOL0     C71822   2.448   0.398   2.600 -0.5751 -0.3891  0.5575
  545MOL0     C71823   2.313   0.349   2.623  0.2087 -0.1128 -1.0699
  545MOL0     C71824   2.223   0.423   2.730 -1.2834 -1.3845  0.9969
  545MOL0     N71825   2.286   0.408   2.866  0.4065 -0.6127 -0.1358
  545MOL0     C71826   2.241   0.324   2.965  0.7204  0.4192  0.2881
  545MOL0     C71827   2.313   0.351   3.072  0.1353  0.5359  0.4312
  545MOL0     C71828   2.308   0.295   3.207 -0.2582 -0.7721 -0.1847
  545MOL0     C71829   2.269   0.149   3.221 -0.1407  0.6871 -0.3343
  545MOL0     C71830   2.323   0.098   3.351 -0.3055  0.2632  0.6902
  545MOL0     C71831   2.265  -0.030   3.410  0.2110  0.4089 -0.1866
  545MOL0     O71832   2.129   0.002   3.455 -0.7960 -0.1364 -0.1713
  545MOL0     C71833   2.049  -0.105   3.493 -1.7750  0.6241 -0.5428
  545MOL0     C71834   1.921  -0.087   3.522  0.7105 -0.4417 -0.1510
  545MOL0     C71835   1.831  -0.182   3.556 -0.4348  0.0067  0.2827
  545MOL0     C71836   1.889  -0.309   3.590 -0.2841  0.1421 -0.1303
  545MOL0     C71837   1.798  -0.423   3.627 -0.5623 -0.9361 -0.1525
  545MOL0     O71838   1.856  -0.539   3.663 -0.4543 -0.2584  0.1006
  545MOL0     C71839   1.764  -0.640   3.662 -0.6348  0.3889  0.8514
  545MOL0     C71840   1.673  -0.658   3.763 -0.2777  0.0739  0.4531
  545MOL0     C71841   1.593  -0.780   3.757  0.7157 -1.0542  0.3709
  545MOL0     C71842   1.604  -0.879   3.658 -1.0009  0.0927 -0.1967
  545MOL0     O71843   1.537  -1.000   3.689  0.6656 -0.2545  0.2911
  545MOL0     C71844   1.552  -1.102   3.578 -0.0583  0.2693  0.0072
  545MOL0     C71845   1.453  -1.212   3.596  0.5173  2.2331  0.4191
  545MOL0     C71846   1.504  -1.357   3.547 -0.1134  0.0053 -0.0185
  545MOL0     C71847   1.579  -1.428   3.671 -0.1727  0.2223 -0.0315
  545MOL0     C71848   1.681  -1.542   3.623 -1.4925  0.2252 -0.1162
  545MOL0     C71849   1.782  -1.504   3.510 -0.3299  0.7371  0.4253
  545MOL0     C71850   1.856  -1.623   3.443  0.0913  0.3860  0.2755
  545MOL0     C71851   1.776  -1.711   3.352  0.4279  0.3741 -0.5395
  545MOL0    Cl71852   1.754  -1.615   3.191  0.0417  0.8530  0.2693
  545MOL0     C71853   1.698  -0.851   3.553 -0.1639 -0.0482  0.1041
  545MOL0     C71854   1.786  -0.742   3.569  1.3376  1.1278  0.3201
  545MOL0     O71855   1.674  -0.410   3.601 -0.0359 -0.4953 -0.4209
  545MOL0     C71856   2.030  -0.334   3.574 -0.8138 -0.4964  1.3231
  545MOL0     C71857   2.111  -0.233   3.525 -0.5112  0.3383  0.0402
  545MOL0     N71858   2.418   0.435   3.032 -0.6847  0.0958 -0.5291
  545MOL0     N71859   2.391   0.475   2.908 -1.4101  0.7948  0.0924
  545MOL0     C71860   2.756   1.231   2.388 -0.7136 -0.0878 -0.4577
  545MOL0     C71861   2.832   1.312   2.306 -0.0566 -0.5233 -0.6490
  545MOL0     C71862   3.029   1.576   2.080 -1.2755  0.3529  1.1877
  545MOL0     C71863   3.058   1.579   1.940  0.2923  0.1250  0.0077
  545MOL0     C71864   3.052   1.701   1.874 -0.1351 -0.0052  1.2095
  545MOL0     C71865   3.028   1.821   1.938 -0.1719 -0.2639 -0.7095
  545MOL0     O71866   3.005   1.945   1.869 -0.5964  0.2470  0.1358
  545MOL0     C71867   2.923   1.938   1.749  0.5376  0.1666  0.1353
  545MOL0     C71868   2.985   2.005   1.623  0.3293 -0.2389 -0.1564
  545MOL0     C71869   3.079   1.922   1.530  1.1439 -0.4728  0.0405
  545MOL0     C71870   3.226   1.935   1.563  0.7173  0.1182  0.4642
  545MOL0     C71871   3.270   2.071   1.523  0.0337 -0.2455  0.4666
  545MOL0     C71872   3.313   2.172   1.464 -0.3731  0.5699  0.0078
  545MOL0     C71873   3.006   1.823   2.074 -0.2103 -0.6941  0.0820
  545MOL0     C71874   3.003   1.703   2.144 -0.2188  0.4987 -0.0828
  545MOL0     H71875   3.115   1.324   2.495  0.4529 -1.0206  1.1355
  545MOL0     H71876   2.979   1.178   2.642  1.2971 -2.0849 -1.0586
  545MOL0     H71877   2.730   0.959   2.454 -0.9259 -2.2599  1.4848
  545MOL0     H71878   2.578   1.050   2.495  1.6306  3.6014 -2.3106
  545MOL0     H71879   2.563   0.916   2.699 -2.0641  0.7338 -0.5495
  545MOL0     H71880   2.727   0.827   2.647 -0.8251  2.0240  0.8079
  545MOL0     H71881   2.609   0.745   2.453  1.0237  1.5773 -0.6044
  545MOL0     H71882   2.457   0.809   2.513 -1.5371 -1.9805  1.0488
  545MOL0     H71883   2.625   0.591   2.653 -0.3845 -0.2719  1.4338
  545MOL0     H71884   2.468   0.638   2.713 -0.5778  3.4674  1.0574
  545MOL0     H71885   2.552   0.520   2.459 -1.4268  1.4159 -0.8826
  545MOL0     H71886   2.388   0.557   2.472  2.3416  1.6436 -2.9647
  545MOL0     H71887   2.500   0.400   2.696 -2.3078  1.0414  1.5258
  545MOL0     H71888   2.493   0.311   2.551  2.1433  0.7934  0.7558
  545MOL0     H71889   2.257   0.352   2.529 -0.1398  1.8321 -0.8486
  545MOL0     H71890   2.325   0.246   2.657  1.1972  1.1515  3.0217
  545MOL0     H71891   2.118   0.394   2.722 -2.3148  2.2374 -0.6778
  545MOL0     H71892   2.221   0.526   2.692 -1.0110 -2.2738 -1.6409
  545MOL0     H71893   2.159   0.255   2.950  2.5806 -1.7417 -0.6268
  545MOL0     H71894   2.242   0.351   3.274  2.5932  0.4977  1.7379
  545MOL0     H71895   2.411   0.303   3.244 -0.2703 -0.5963 -0.1874
  545MOL0     H71896   2.294   0.086   3.135  0.8699  1.9491 -0.9836
  545MOL0     H71897   2.160   0.144   3.234 -0.3880 -1.4955 -2.5394
  545MOL0     H71898   2.426   0.069   3.329 -1.1861 -0.8573 -2.6771
  545MOL0     H71899   2.318   0.176   3.426  1.2900  0.3719  0.7271
  545MOL0     H71900   2.327  -0.065   3.493  0.0315  1.1685  0.2765
  545MOL0     H71901   2.265  -0.111   3.336 -0.8595 -1.5550  1.8243
  545MOL0     H71902   1.899   0.014   3.491 -2.3196 -0.8729  0.3354
  545MOL0     H71903   1.726  -0.158   3.549  0.3054  3.8186 -0.0166
  545MOL0     H71904   1.678  -0.597   3.853 -0.5449  0.1592  0.4136
  545MOL0     H71905   1.524  -0.805   3.837  1.4175 -0.7005  1.0989
  545MOL0     H71906   1.646  -1.156   3.595  1.4975  1.8551 -2.8736
  545MOL0     H71907   1.544  -1.066   3.476 -2.3384  0.9444  0.3660
  545MOL0     H71908   1.358  -1.187   3.548  0.9546  0.3882 -1.5494
  545MOL0     H71909   1.439  -1.223   3.704  2.1558 -1.5349  0.3992
  545MOL0     H71910   1.552  -1.345   3.449  1.0160  0.0060  0.5101
  545MOL0     H71911   1.415  -1.413   3.520 -1.1523  0.7713  1.6413
  545MOL0     H71912   1.635  -1.355   3.731  1.5720 -0.8287 -0.3184
  545MOL0     H71913   1.507  -1.465   3.745  2.2751 -2.8422  1.0084
  545MOL0     H71914   1.631  -1.637   3.602 -1.6021  0.1191  0.5848
  545MOL0     H71915   1.745  -1.565   3.709 -0.0465  5.1227  0.4580
  545MOL0     H71916   1.863  -1.442   3.548  0.6590  0.5437 -1.2419
  545MOL0     H71917   1.741  -1.442   3.428  0.8264  2.2243  0.9218
  545MOL0     H71918   1.943  -1.583   3.391  1.3495 -0.7414  1.4187
  545MOL0     H71919   1.898  -1.678   3.528  1.1366 -1.4643 -1.3422
  545MOL0     H71920   1.680  -1.751   3.388  1.0579  1.3550  2.4786
  545MOL0     H71921   1.841  -1.799   3.341  1.0616  0.6944  0.5197
  545MOL0     H71922   1.733  -0.934   3.492  3.6817  1.3322  0.1779
  545MOL0     H71923   1.871  -0.726   3.504 -0.2581  2.6354 -1.5305
  545MOL0     H71924   2.084  -0.422   3.607 -0.7630 -0.7827  0.4798
  545MOL0     H71925   2.215  -0.262   3.511 -0.7715 -0.7760  0.3492
  545MOL0     H71926   2.657   1.195   2.360 -0.4790 -3.7915  2.7390
  545MOL0     H71927   2.790   1.349   2.214  1.8853 -0.1952 -1.4644
  545MOL0     H71928   3.056   1.482   1.892 -0.2534 -1.1060  2.3938
  545MOL0     H71929   3.078   1.698   1.769 -0.2194 -0.2705  1.1967
  545MOL0     H71930   2.821   1.974   1.769 -0.8301 -2.6044 -1.3841
  545MOL0     H71931   2.897   1.834   1.729 -1.8042  0.6919  0.1709
  545MOL0     H71932   2.896   2.040   1.570  0.9316  0.0349 -1.0066
  545MOL0     H71933   3.019   2.100   1.666 -0.2729 -0.7801  1.6456
  545MOL0     H71934   3.060   1.951   1.426  2.2114 -1.1334 -0.3545
  545MOL0     H71935   3.050   1.817   1.546  2.0415 -0.6826  0.3849
  545MOL0     H71936   3.226   1.928   1.672 -4.4803  0.9134  0.7495
  545MOL0     H71937   3.280   1.857   1.509 -1.4551 -0.9250 -0.2867
  545MOL0     H71938   3.352   2.261   1.418  0.1319  0.7730  0.8222
  545MOL0     H71939   2.972   1.916   2.119 -1.9279 -1.7051  0.9496
  545MOL0     H71940   2.964   1.709   2.246  0.1290  1.5380 -0.0072
  546MOL0     O71941   5.536   5.181  10.415  0.6001 -0.0112 -0.2814
  546MOL0     C71942   5.523   5.058  10.422  0.5520  0.4578 -0.0028
  546MOL0     O71943   5.621   4.968  10.446 -0.4243  0.8537 -0.0270
  546MOL0     C71944   5.746   5.007  10.468 -0.6090 -0.4084 -0.4622
  546MOL0     C71945   5.786   5.061  10.590 -0.5434  0.6044  0.6113
  546MOL0     C71946   5.921   5.093  10.607 -0.1986  0.0243 -0.9652
  546MOL0     C71947   6.009   5.074  10.507 -0.2014  0.4685  0.3298
  546MOL0     O71948   6.135   5.097  10.546 -0.0166 -0.1675  0.7149
  546MOL0     C71949   6.216   5.163  10.450  0.9742 -1.1128  0.1057
  546MOL0     C71950   6.177   5.309  10.441  0.3766  0.2971 -0.1690
  546MOL0     C71951   6.233   5.392  10.556  0.7193 -0.5124 -0.5353
  546MOL0     C71952   6.178   5.541  10.541 -0.6778  0.1740 -0.3063
  546MOL0     C71953   6.235   5.618  10.420 -0.9783 -0.0310 -0.1901
  546MOL0     C71954   6.198   5.776  10.412  0.7769  0.7126 -0.0795
  546MOL0     C71955   6.053   5.790  10.373  0.3131  0.2648  0.6168
  546MOL0     C71956   6.010   5.939  10.369 -0.5409 -0.2359  0.2253
  546MOL0     N71957   6.059   6.012  10.253  0.5140  0.7618 -0.6603
  546MOL0     C71958   5.996   6.028  10.138  0.0454 -0.4887 -0.6484
  546MOL0     C71959   6.016   6.156  10.089  1.0071 -0.2280  0.2633
  546MOL0     C71960   5.978   6.200   9.955  0.7246  0.3146  0.9119
  546MOL0     C71961   5.889   6.324   9.941 -0.0984 -0.7753 -0.4771
  546MOL0     C71962   5.853   6.383   9.803  0.5695 -0.7293  0.5308
  546MOL0     C71963   5.825   6.278   9.697  0.7640  0.1149  0.4947
  546MOL0     O71964   5.726   6.187   9.758 -0.4622 -0.2587 -0.5101
  546MOL0     C71965   5.684   6.084   9.689  0.2224  0.4744  0.7140
  546MOL0     C71966   5.710   6.055   9.554  0.4191 -0.0507 -0.3539
  546MOL0     C71967   5.658   5.941   9.500  0.5984  0.7507 -0.4247
  546MOL0     C71968   5.563   5.855   9.566  0.1790  0.0157 -0.0182
  546MOL0     C71969   5.517   5.731   9.489  0.7972  0.0714  0.3776
  546MOL0     O71970   5.466   5.634   9.565  0.3800 -0.6346 -0.2059
  546MOL0     C71971   5.398   5.533   9.511 -0.3299  0.5335  1.3151
  546MOL0     C71972   5.408   5.406   9.573  1.0830  0.3942 -0.0990
  546MOL0     C71973   5.335   5.303   9.521 -0.1730  0.1024  1.1109
  546MOL0     C71974   5.228   5.331   9.429 -0.1742 -0.2024  1.5828
  546MOL0     O71975   5.144   5.230   9.393 -0.4994  0.3543  0.3861
  546MOL0     C71976   5.061   5.236   9.280 -0.3168 -0.6402  0.6722
  546MOL0     C71977   4.962   5.119   9.254 -0.5241  0.6751  0.7297
  546MOL0     C71978   5.027   4.997   9.206 -0.2037  0.2454  0.7258
  546MOL0     C71979   4.922   4.893   9.183  1.0905  0.4959 -0.3697
  546MOL0     C71980   4.870   4.842   9.320 -1.1718  0.0910 -0.1230
  546MOL0     C71981   4.868   4.687   9.321 -0.7574  1.0001 -0.4870
  546MOL0     C71982   4.821   4.630   9.456  0.4539 -0.8085  0.2649
  546MOL0     C71983   4.814   4.479   9.471 -0.9343 -0.7058 -0.2755
  546MOL0    Cl71984   4.674   4.435   9.565 -0.6190  0.1887 -0.2338
  546MOL0     C71985   5.213   5.461   9.367 -0.4542  0.4160 -0.7764
  546MOL0     C71986   5.303   5.560   9.413 -0.4568  0.9958  0.2273
  546MOL0     O71987   5.527   5.727   9.366  0.3394 -0.1676 -0.0425
  546MOL0     C71988   5.538   5.883   9.705  0.0092  0.7535 -0.4617
  546MOL0     C71989   5.605   5.993   9.762  0.3057  0.5625  0.9549
  546MOL0     N71990   6.111   6.215  10.176  0.9674  0.0850 -0.2957
  546MOL0     N71991   6.140   6.124  10.272 -1.3363 -0.1365 -0.0257
  546MOL0     C71992   5.969   5.021  10.382 -0.4202  0.2541 -0.0755
  546MOL0     C71993   5.839   4.985  10.364 -0.1841 -0.0278  0.1550
  546MOL0     C71994   5.373   5.013  10.429 -0.8834  0.7670  0.4845
  546MOL0     C71995   5.268   5.093  10.423  0.2661 -0.2124 -0.9794
  546MOL0     C71996   5.145   5.042  10.400  1.2025  0.5288  0.1789
  546MOL0     C71997   5.115   4.905  10.397  0.3637 -0.5959  1.1496
  546MOL0     O71998   4.984   4.861  10.380 -0.7693  0.2036  0.4291
  546MOL0     C71999   4.960   4.725  10.358 -0.2227  0.7296 -1.2715
  546MOL0     C72000   4.831   4.703  10.273  0.5237 -0.4645  0.6260
  546MOL0     C72001   4.702   4.694  10.362 -0.7792  0.7730  0.1009
  546MOL0     C72002   4.576   4.638  10.298  0.1804  0.0870  0.0576
  546MOL0     C72003   4.583   4.490  10.296  0.4291  0.3121  0.2811
  546MOL0     C72004   4.603   4.370  10.304 -0.2417 -0.4074  0.0171
  546MOL0     C72005   5.222   4.816  10.424 -0.0989 -0.5490 -0.1558
  546MOL0     C72006   5.354   4.874  10.433  0.5251  0.8392 -0.8401
  546MOL0     H72007   5.714   5.085  10.668  0.0864  0.9814  1.0859
  546MOL0     H72008   5.954   5.142  10.698  0.6150  1.2761 -1.9000
  546MOL0     H72009   6.209   5.114  10.352 -1.5735  0.6527 -0.6961
  546MOL0     H72010   6.320   5.152  10.485  0.9812 -0.0709  0.4225
  546MOL0     H72011   6.071   5.328  10.420  0.7329  0.8635 -1.5372
  546MOL0     H72012   6.225   5.339  10.348 -1.7630 -1.2248 -1.8575
  546MOL0     H72013   6.342   5.392  10.545  0.8447 -1.5360  0.5854
  546MOL0     H72014   6.189   5.351  10.647  1.3989  4.3045  2.3289
  546MOL0     H72015   6.070   5.531  10.528 -0.3396 -2.2628 -2.0317
  546MOL0     H72016   6.194   5.597  10.633  1.7445  2.0038 -1.7067
  546MOL0     H72017   6.224   5.574  10.321  1.4077 -0.6530 -0.2498
  546MOL0     H72018   6.344   5.623  10.429 -0.7898  2.8020 -2.4778
  546MOL0     H72019   6.252   5.826  10.331  0.0582 -0.8284 -1.5770
  546MOL0     H72020   6.223   5.823  10.508  5.3902  1.1212 -1.2483
  546MOL0     H72021   6.052   5.747  10.272 -1.6597  1.8505 -0.1009
  546MOL0     H72022   5.995   5.735  10.448 -1.1941  1.1861  0.1699
  546MOL0     H72023   6.048   5.989  10.459 -0.6990  0.2076  0.0506
  546MOL0     H72024   5.901   5.937  10.373 -0.7061  1.3861 -1.9468
  546MOL0     H72025   5.929   5.953  10.098  1.4473 -0.4632 -3.2977
  546MOL0     H72026   5.918   6.115   9.920  0.1627 -0.5267  3.6411
  546MOL0     H72027   6.067   6.217   9.894  0.8235 -1.8140  0.4047
  546MOL0     H72028   5.940   6.402   9.997  0.3380  1.5248 -3.8288
  546MOL0     H72029   5.800   6.292   9.997 -1.8774  5.4626  0.9867
  546MOL0     H72030   5.768   6.448   9.826  0.3895 -0.6183 -0.3798
  546MOL0     H72031   5.935   6.449   9.772 -0.0309 -0.1982  0.0480
  546MOL0     H72032   5.911   6.220   9.664  0.2122 -1.0180  0.9814
  546MOL0     H72033   5.781   6.317   9.605 -0.5192  0.3317  1.1837
  546MOL0     H72034   5.791   6.108   9.504  1.8413 -1.5809  0.2168
  546MOL0     H72035   5.693   5.914   9.401  2.1479 -0.8980  0.5282
  546MOL0     H72036   5.485   5.379   9.645  2.6240  2.9602 -0.6545
  546MOL0     H72037   5.335   5.204   9.566  2.1755  0.4655  2.0114
  546MOL0     H72038   5.133   5.241   9.197  0.7148  0.5272  1.6031
  546MOL0     H72039   5.004   5.329   9.281  0.2044 -0.2653  3.8056
  546MOL0     H72040   4.899   5.150   9.169  1.4326  0.5555 -0.8427
  546MOL0     H72041   4.922   5.095   9.353  2.9728 -3.4259  1.4747
  546MOL0     H72042   5.105   4.967   9.276  1.4190  1.1739 -0.6022
  546MOL0     H72043   5.071   5.020   9.109  0.6497  2.0651  1.4914
  546MOL0     H72044   4.832   4.929   9.133  0.9392 -3.3176 -3.2337
  546MOL0     H72045   4.956   4.817   9.112  3.0547  1.6711 -0.7674
  546MOL0     H72046   4.779   4.898   9.345  0.3430  1.3895  2.9335
  546MOL0     H72047   4.954   4.871   9.384  0.4515  1.8175 -2.8536
  546MOL0     H72048   4.969   4.648   9.307 -0.5725  0.5738  1.7029
  546MOL0     H72049   4.797   4.651   9.246  1.1484 -1.4522 -1.2335
  546MOL0     H72050   4.890   4.674   9.528  0.0337  2.2386 -1.0247
  546MOL0     H72051   4.715   4.655   9.469  0.1602 -3.1628  3.3337
  546MOL0     H72052   4.905   4.424   9.497 -1.8830 -2.2047  0.0150
  546MOL0     H72053   4.796   4.440   9.370  1.2048 -0.5952 -0.7600
  546MOL0     H72054   5.147   5.487   9.286 -0.7539 -0.7829 -0.9439
  546MOL0     H72055   5.288   5.662   9.378 -1.8889  1.0639  0.9845
  546MOL0     H72056   5.467   5.825   9.763 -1.4659  1.0694 -1.8410
  546MOL0     H72057   5.582   6.024   9.863 -0.5826  3.2434  0.0200
  546MOL0     H72058   6.048   4.995  10.313  1.5202 -1.5730  2.6149
  546MOL0     H72059   5.804   4.933  10.276 -2.0510 -2.6008  2.2838
  546MOL0     H72060   5.265   5.201  10.426  0.0882 -0.2363  1.8313
  546MOL0     H72061   5.066   5.116  10.396  1.2915  0.6380  0.4394
  546MOL0     H72062   4.955   4.674  10.455  2.3719 -1.4105 -2.1430
  546MOL0     H72063   5.045   4.681  10.306 -0.0863 -0.1963 -0.3030
  546MOL0     H72064   4.810   4.780  10.198  1.8711 -1.6095 -1.0080
  546MOL0     H72065   4.840   4.610  10.216  1.4373 -0.1388  0.2142
  546MOL0     H72066   4.689   4.797  10.394  2.0651  0.7032  1.8682
  546MOL0     H72067   4.727   4.644  10.456  0.9316  0.4841 -0.4682
  546MOL0     H72068   4.487   4.679  10.347 -1.0069 -0.9909 -1.1061
  546MOL0     H72069   4.577   4.666  10.192 -0.2529 -1.7830 -0.4756
  546MOL0     H72070   4.630   4.268  10.322 -0.8746 -0.2722  1.8915
  546MOL0     H72071   5.203   4.715  10.457 -3.1023  0.3843  1.2709
  546MOL0     H72072   5.438   4.810  10.455 -2.3739 -2.0427  3.3395
  547MOL0     O72073   2.058   1.429   7.203  0.5780  0.0292 -0.0227
  547MOL0     C72074   1.994   1.496   7.122 -0.4719  0.5797  0.4325
  547MOL0     O72075   1.968   1.631   7.144  0.4275 -0.3490 -0.8293
  547MOL0     C72076   2.021   1.687   7.261  0.4370  0.4595  0.0826
  547MOL0     C72077   1.975   1.657   7.390  0.0616  0.1271  0.2722
  547MOL0     C72078   2.036   1.726   7.499 -0.6779 -0.1608  0.0973
  547MOL0     C72079   2.132   1.823   7.483 -0.1873 -0.6216 -0.2918
  547MOL0     O72080   2.197   1.871   7.595  0.9080  0.3453 -0.6248
  547MOL0     C72081   2.203   2.009   7.616 -0.2768  0.5336  0.0110
  547MOL0     C72082   2.195   2.043   7.764  1.2031  0.6502  0.0326
  547MOL0     C72083   2.223   2.191   7.796 -0.3187 -0.0763 -0.6773
  547MOL0     C72084   2.114   2.286   7.728 -0.6185  0.5206  0.3862
  547MOL0     C72085   2.100   2.426   7.798  0.2433  1.0997  0.8607
  547MOL0     C72086   2.235   2.481   7.817  0.5548 -0.8467 -0.4822
  547MOL0     C72087   2.249   2.629   7.865 -0.1825  0.0381 -1.1752
  547MOL0     C72088   2.172   2.662   7.992  0.5168 -1.4457 -0.1088
  547MOL0     N72089   2.182   2.809   8.023 -0.0013 -0.0514 -0.2845
  547MOL0     C72090   2.289   2.879   8.072 -0.5960 -0.2205 -0.0906
  547MOL0     C72091   2.245   3.007   8.079 -1.1581 -0.4236 -0.2431
  547MOL0     C72092   2.321   3.134   8.116  0.3457 -0.2672  0.2833
  547MOL0     C72093   2.250   3.196   8.237  0.3605 -0.2159  0.1572
  547MOL0     C72094   2.290   3.110   8.356  0.0135  0.0715 -0.0853
  547MOL0     C72095   2.266   3.184   8.488 -0.5355  0.3556 -1.0298
  547MOL0     O72096   2.259   3.088   8.599  0.8841  0.2256 -0.3199
  547MOL0     C72097   2.360   3.052   8.683  0.9800  0.6527  0.6917
  547MOL0     C72098   2.329   2.960   8.793  0.0836 -1.0727 -0.6269
  547MOL0     C72099   2.426   2.906   8.879 -0.0091 -0.0952  0.6172
  547MOL0     C72100   2.552   2.942   8.862  0.1999 -0.5206 -0.4231
  547MOL0     C72101   2.650   2.919   8.964 -0.4341  0.6089  0.5201
  547MOL0     O72102   2.779   2.892   8.923 -0.5702  0.1676  0.0024
  547MOL0     C72103   2.859   2.850   9.026 -0.3066 -0.4260 -0.3108
  547MOL0     C72104   2.969   2.927   9.053 -0.2289 -0.4839 -0.2285
  547MOL0     C72105   3.058   2.893   9.154 -0.1472 -0.0679  0.7074
  547MOL0     C72106   3.040   2.776   9.227  0.6394  0.3266  0.6629
  547MOL0     O72107   3.127   2.730   9.311 -0.4055  0.2498 -0.0442
  547MOL0     C72108   3.172   2.589   9.291  0.4529  0.8551 -1.0344
  547MOL0     C72109   3.289   2.555   9.386  0.1803  0.1278 -0.0146
  547MOL0     C72110   3.304   2.401   9.396  1.1847  0.2176  0.0075
  547MOL0     C72111   3.376   2.356   9.526 -0.0863 -0.1250  0.4028
  547MOL0     C72112   3.391   2.205   9.519 -0.1679 -0.2298  0.2090
  547MOL0     C72113   3.473   2.151   9.644  0.4745  0.7805 -0.0090
  547MOL0     C72114   3.373   2.154   9.758  1.1358  0.3314 -0.3326
  547MOL0     C72115   3.435   2.137   9.892 -0.2432  0.6288  0.0012
  547MOL0    Cl72116   3.415   1.963   9.932 -0.1087 -0.1270 -0.1852
  547MOL0     C72117   2.931   2.700   9.199 -0.1489 -0.1458 -1.4791
  547MOL0     C72118   2.836   2.737   9.099 -0.8951  1.0837 -0.5383
  547MOL0     O72119   2.602   2.929   9.078 -0.5222  0.8185 -0.8861
  547MOL0     C72120   2.589   3.023   8.754  0.3914 -0.6655  0.5717
  547MOL0     C72121   2.498   3.086   8.666  0.0180  0.1138 -0.0992
  547MOL0     N72122   2.126   3.025   8.015  0.0641  0.5049  0.6246
  547MOL0     N72123   2.091   2.911   7.983 -0.1607  0.5745  0.9011
  547MOL0     C72124   2.181   1.854   7.360 -0.5947  0.8212 -0.8049
  547MOL0     C72125   2.119   1.787   7.253  0.2915 -0.0334  0.0640
  547MOL0     C72126   1.922   1.422   7.005  0.0732 -1.0488  0.6140
  547MOL0     C72127   1.908   1.482   6.881  0.3042  0.5356 -0.3565
  547MOL0     C72128   1.845   1.421   6.778 -0.1287  0.0088 -0.6843
  547MOL0     C72129   1.760   1.310   6.800  0.6434  0.5837 -0.5911
  547MOL0     O72130   1.676   1.256   6.709 -0.0398  0.3835 -0.7628
  547MOL0     C72131   1.734   1.239   6.580  1.2943  0.0611 -0.2639
  547MOL0     C72132   1.658   1.110   6.526 -0.1597 -1.0526 -0.3264
  547MOL0     C72133   1.646   1.091   6.372 -0.7055 -0.0767  0.1350
  547MOL0     C72134   1.774   1.103   6.297  0.1652 -0.2902  0.4158
  547MOL0     C72135   1.827   1.240   6.290  0.1630  0.0046 -0.8253
  547MOL0     C72136   1.853   1.359   6.254 -1.0306  0.1445  0.0404
  547MOL0     C72137   1.768   1.241   6.922  0.1860  0.4236 -0.4119
  547MOL0     C72138   1.862   1.298   7.018 -0.1796 -0.1287  0.5698
  547MOL0     H72139   1.904   1.578   7.411  1.4907 -0.8995  1.5055
  547MOL0     H72140   2.004   1.699   7.599  1.4254 -0.6751  0.6808
  547MOL0     H72141   2.120   2.054   7.560 -0.8781  0.0528  0.4985
  547MOL0     H72142   2.303   2.044   7.591  0.0165 -0.5400 -0.3634
  547MOL0     H72143   2.268   1.982   7.818  1.3924  2.2244  1.6402
  547MOL0     H72144   2.093   2.017   7.796 -0.3081  1.4472 -3.6664
  547MOL0     H72145   2.321   2.229   7.765  1.8352 -2.2693  2.8257
  547MOL0     H72146   2.227   2.203   7.904 -0.9315 -0.1530 -0.6426
  547MOL0     H72147   2.128   2.305   7.621 -0.5083 -0.4481  0.2212
  547MOL0     H72148   2.013   2.245   7.733 -0.4719 -0.0754 -1.1366
  547MOL0     H72149   2.054   2.409   7.896 -2.5250  1.1956 -0.3288
  547MOL0     H72150   2.035   2.494   7.742 -1.5777 -0.2080  1.2796
  547MOL0     H72151   2.295   2.461   7.727 -1.6092 -2.0667 -1.7320
  547MOL0     H72152   2.272   2.424   7.903 -1.9026 -0.1554  1.1285
  547MOL0     H72153   2.354   2.652   7.886 -0.8172  0.6833  1.7098
  547MOL0     H72154   2.213   2.695   7.786 -0.9312  1.0160 -0.0434
  547MOL0     H72155   2.221   2.621   8.080  0.4054  0.1008  0.7007
  547MOL0     H72156   2.068   2.631   7.985  0.3318 -0.5341 -2.7298
  547MOL0     H72157   2.376   2.846   8.129 -0.6503  0.2675  0.2868
  547MOL0     H72158   2.307   3.205   8.034 -1.1524 -0.1983  0.5685
  547MOL0     H72159   2.430   3.126   8.127  0.4054 -0.1771 -0.2067
  547MOL0     H72160   2.144   3.188   8.213  0.6860  1.5559 -2.2688
  547MOL0     H72161   2.287   3.298   8.224 -2.7822  1.0736  0.4672
  547MOL0     H72162   2.227   3.021   8.347  0.0618  0.2276 -2.8196
  547MOL0     H72163   2.393   3.074   8.351 -0.6098 -1.6236 -2.2328
  547MOL0     H72164   2.176   3.246   8.500 -0.1269  1.0140 -1.3418
  547MOL0     H72165   2.346   3.255   8.511  1.0143 -2.0345  1.6200
  547MOL0     H72166   2.227   2.934   8.820  0.1426  1.5953  3.0244
  547MOL0     H72167   2.386   2.845   8.959  1.0981  1.2350  2.2443
  547MOL0     H72168   2.991   3.021   9.004  1.9855  0.2570  2.0089
  547MOL0     H72169   3.136   2.966   9.174 -0.3265  0.0839  0.8641
  547MOL0     H72170   3.206   2.561   9.191  0.3458 -0.5108 -0.7015
  547MOL0     H72171   3.089   2.523   9.317  2.0194 -0.2026  1.7122
  547MOL0     H72172   3.279   2.609   9.481 -0.8352  2.4948 -1.3847
  547MOL0     H72173   3.377   2.601   9.338 -1.7881  2.3105 -1.7459
  547MOL0     H72174   3.354   2.355   9.311  1.4223  0.3701  0.0621
  547MOL0     H72175   3.206   2.354   9.386  2.0983 -1.7087 -0.3384
  547MOL0     H72176   3.478   2.395   9.522 -0.1743  0.2129  1.2803
  547MOL0     H72177   3.317   2.399   9.608 -1.0140  0.3978 -0.5191
  547MOL0     H72178   3.459   2.173   9.440  1.0526  0.4398  0.9593
  547MOL0     H72179   3.289   2.166   9.511  0.5236 -1.6346 -3.2918
  547MOL0     H72180   3.560   2.216   9.655  1.9602 -1.0605 -0.1601
  547MOL0     H72181   3.498   2.044   9.644 -1.9211  0.1046  2.4607
  547MOL0     H72182   3.335   2.256   9.763 -0.6611 -0.3617  3.0433
  547MOL0     H72183   3.298   2.076   9.742  0.5198  0.8752 -0.1302
  547MOL0     H72184   3.386   2.198   9.968 -1.4152  1.4424 -1.3586
  547MOL0     H72185   3.535   2.178   9.881  0.0223 -0.6229 -4.1278
  547MOL0     H72186   2.915   2.607   9.253 -0.1346  1.4635  1.5605
  547MOL0     H72187   2.749   2.672   9.088 -1.4546  1.4930  1.1504
  547MOL0     H72188   2.692   3.054   8.743 -0.2274  0.5422 -3.8222
  547MOL0     H72189   2.538   3.147   8.586  1.1896 -0.7213 -0.1668
  547MOL0     H72190   2.263   1.924   7.346  2.2819 -2.1614  0.0297
  547MOL0     H72191   2.149   1.796   7.149 -3.1716  1.5750 -0.9367
  547MOL0     H72192   1.943   1.584   6.867  4.7358  0.2675  5.0438
  547MOL0     H72193   1.838   1.463   6.678 -1.3486  0.4513 -0.4373
  547MOL0     H72194   1.843   1.238   6.574  1.3631  1.4896  0.1931
  547MOL0     H72195   1.702   1.328   6.525 -0.8667  0.0791  0.8924
  547MOL0     H72196   1.704   1.023   6.572 -4.1194 -2.5961  1.0251
  547MOL0     H72197   1.562   1.125   6.574  1.1635 -2.6471  3.1427
  547MOL0     H72198   1.560   1.140   6.325 -1.9528 -0.5571  1.8281
  547MOL0     H72199   1.623   0.986   6.356 -1.0212 -0.2621  1.6541
  547MOL0     H72200   1.849   1.040   6.347  0.8174  0.3007  0.2024
  547MOL0     H72201   1.747   1.073   6.195 -2.5520 -2.1896  1.5654
  547MOL0     H72202   1.866   1.460   6.221  1.1639 -0.6793 -1.9146
  547MOL0     H72203   1.717   1.149   6.948 -1.9214  1.5844 -0.2763
  547MOL0     H72204   1.888   1.249   7.111  1.4697 -2.3449 -0.9439
  548MOL0     O72205   6.128   0.593   9.623 -0.0677 -0.8669  0.2009
  548MOL0     C72206   6.074   0.626   9.512  0.2371  0.7496  0.1315
  548MOL0     O72207   6.020   0.535   9.416 -1.2930 -0.6337  0.1070
  548MOL0     C72208   6.042   0.403   9.454 -0.9340  0.0448 -0.0579
  548MOL0     C72209   5.967   0.336   9.551  0.8281  0.0726  0.7789
  548MOL0     C72210   5.998   0.207   9.584  0.0577  0.2619  0.3116
  548MOL0     C72211   6.092   0.133   9.529 -0.0492  0.0339 -0.1775
  548MOL0     O72212   6.112  -0.005   9.566 -0.3513 -0.9428 -0.1517
  548MOL0     C72213   6.245  -0.059   9.556  0.2332  0.3364  0.0990
  548MOL0     C72214   6.270  -0.139   9.676 -0.6450  0.2243 -0.1278
  548MOL0     C72215   6.175  -0.254   9.694 -0.3094 -0.6862  0.4862
  548MOL0     C72216   6.227  -0.344   9.805  0.6805  0.2795  0.0269
  548MOL0     C72217   6.133  -0.460   9.827 -0.0583  0.5182  0.2719
  548MOL0     C72218   6.184  -0.552   9.939  1.5060  0.0078  0.1820
  548MOL0     C72219   6.152  -0.485  10.082 -0.7192  1.3211  0.3664
  548MOL0     C72220   6.188  -0.581  10.200 -0.4520 -0.0393 -0.9152
  548MOL0     N72221   6.143  -0.715  10.169  0.0094  0.9395 -0.2791
  548MOL0     C72222   6.207  -0.828  10.137  0.3647  1.0778 -0.2133
  548MOL0     C72223   6.107  -0.927  10.141 -0.1400  1.2225 -0.4377
  548MOL0     C72224   6.115  -1.080  10.114 -0.5036 -0.7700  0.5257
  548MOL0     C72225   6.028  -1.164  10.204  1.6401 -0.1085  0.5492
  548MOL0     C72226   6.005  -1.303  10.151  0.8893 -0.8358 -0.6864
  548MOL0     C72227   5.891  -1.374  10.238 -0.4182  0.4391 -0.2834
  548MOL0     O72228   5.878  -1.506  10.185 -0.3917 -0.8266 -0.1613
  548MOL0     C72229   5.767  -1.580  10.198  0.4498  0.0259  0.0643
  548MOL0     C72230   5.741  -1.692  10.112 -2.1963 -0.3250  0.5503
  548MOL0     C72231   5.628  -1.780  10.112  0.7452 -0.3931 -0.4644
  548MOL0     C72232   5.546  -1.763  10.227 -0.4960  0.1646 -0.1249
  548MOL0     C72233   5.429  -1.860  10.260 -0.4811 -0.3531 -0.7008
  548MOL0     O72234   5.341  -1.823  10.361  0.2155  0.4483  0.8162
  548MOL0     C72235   5.241  -1.907  10.399  0.1537 -1.0330  0.5648
  548MOL0     C72236   5.115  -1.903  10.338 -0.5689  0.2258 -0.2918
  548MOL0     C72237   5.024  -1.989  10.393 -0.2932  0.1595 -0.4658
  548MOL0     C72238   5.048  -2.080  10.498  0.5159 -0.1923 -0.1736
  548MOL0     O72239   4.938  -2.166  10.524 -0.2525  0.3051  0.3769
  548MOL0     C72240   4.849  -2.137  10.637 -0.4627 -0.3528 -0.6315
  548MOL0     C72241   4.815  -1.987  10.649  0.6151  0.0371 -0.7366
  548MOL0     C72242   4.684  -1.954  10.733 -0.3130  0.3017  0.1401
  548MOL0     C72243   4.647  -1.803  10.745 -0.0304 -1.0351 -0.5036
  548MOL0     C72244   4.523  -1.767  10.824 -1.4887 -0.7085 -0.8115
  548MOL0     C72245   4.494  -1.609  10.825 -0.8243 -0.0491  0.0878
  548MOL0     C72246   4.367  -1.555  10.890 -0.3875 -0.3823  0.2677
  548MOL0     C72247   4.379  -1.582  11.039  0.2803  0.6361 -0.9775
  548MOL0    Cl72248   4.544  -1.535  11.104  0.3036 -0.2919  0.3965
  548MOL0     C72249   5.176  -2.082  10.545 -1.1224  0.4814 -0.0052
  548MOL0     C72250   5.274  -1.991  10.500  0.3271  0.2300 -0.4291
  548MOL0     O72251   5.415  -1.953  10.188  0.1598  0.7852 -0.0471
  548MOL0     C72252   5.570  -1.654  10.314  0.2523 -0.1119  0.1264
  548MOL0     C72253   5.673  -1.569  10.304 -0.6624 -0.5086 -0.4275
  548MOL0     N72254   5.989  -0.868  10.169  0.0867  0.2839 -1.0895
  548MOL0     N72255   6.005  -0.744  10.191  0.2584 -0.7305  1.2190
  548MOL0     C72256   6.172   0.192   9.431  0.2879 -0.7193 -0.3372
  548MOL0     C72257   6.138   0.324   9.392 -0.5569 -0.0205  0.2632
  548MOL0     C72258   6.066   0.774   9.470 -0.5150  1.1123 -0.7166
  548MOL0     C72259   6.007   0.812   9.348  0.3209 -0.1722  0.2225
  548MOL0     C72260   6.006   0.942   9.306  0.2092 -0.2549  0.0042
  548MOL0     C72261   6.040   1.040   9.386  0.5816 -1.8879 -0.6095
  548MOL0     O72262   6.021   1.173   9.355  0.4755 -0.8038 -1.0156
  548MOL0     C72263   5.954   1.224   9.241 -0.1601  0.5378 -0.2152
  548MOL0     C72264   5.950   1.374   9.213  0.6314  0.3045  0.1642
  548MOL0     C72265   6.087   1.429   9.222 -0.3653 -0.1136  0.8063
  548MOL0     C72266   6.158   1.437   9.090  0.0620  0.6716  0.3900
  548MOL0     C72267   6.298   1.489   9.109  0.6051  0.8112  0.5777
  548MOL0     C72268   6.418   1.520   9.096  0.8762 -0.5652  0.2048
  548MOL0     C72269   6.091   1.009   9.507 -0.0795  0.1254  0.1172
  548MOL0     C72270   6.116   0.878   9.554  0.3852 -0.0627  0.9340
  548MOL0     H72271   5.892   0.385   9.611  1.5914 -2.1181  3.7622
  548MOL0     H72272   5.937   0.166   9.665  1.2272 -3.3286 -0.4304
  548MOL0     H72273   6.326   0.013   9.547 -1.0037  2.4284  3.6528
  548MOL0     H72274   6.250  -0.130   9.473  2.0404 -0.0353  0.4944
  548MOL0     H72275   6.256  -0.084   9.769  0.7632 -2.7303  1.9905
  548MOL0     H72276   6.373  -0.176   9.670  0.6727  3.5541 -0.3377
  548MOL0     H72277   6.170  -0.317   9.604  0.7619 -1.6467  1.0754
  548MOL0     H72278   6.072  -0.219   9.708 -0.8329 -1.4507 -1.1338
  548MOL0     H72279   6.329  -0.371   9.776  1.7205  2.8233  0.9969
  548MOL0     H72280   6.232  -0.289   9.899 -0.6842  1.6580 -0.6650
  548MOL0     H72281   6.123  -0.520   9.735  2.1224 -2.1714  1.6222
  548MOL0     H72282   6.033  -0.431   9.858 -1.8061 -2.5518 -1.9106
  548MOL0     H72283   6.293  -0.555   9.925  1.2953 -0.0682 -1.7354
  548MOL0     H72284   6.145  -0.653   9.926  0.0521  0.2432  2.2342
  548MOL0     H72285   6.207  -0.391  10.086 -2.8745  2.9986 -3.7389
  548MOL0     H72286   6.051  -0.444  10.091 -0.7151  1.2555  0.7455
  548MOL0     H72287   6.139  -0.544  10.290 -0.9063 -0.6007 -0.9286
  548MOL0     H72288   6.297  -0.579  10.210 -0.4670 -1.0927 -0.4648
  548MOL0     H72289   6.314  -0.841  10.127  0.1133 -1.6193 -0.1376
  548MOL0     H72290   6.219  -1.108  10.131  1.0019  4.3611  1.4432
  548MOL0     H72291   6.095  -1.095  10.007 -0.2578  1.5386  0.1093
  548MOL0     H72292   5.932  -1.112  10.196  0.2498 -2.4682  0.7071
  548MOL0     H72293   6.052  -1.166  10.311  0.9672 -1.0964  0.7048
  548MOL0     H72294   5.963  -1.318  10.051 -1.5012 -0.7607  0.2422
  548MOL0     H72295   6.100  -1.355  10.160  0.1196 -2.2607 -0.5079
  548MOL0     H72296   5.794  -1.326  10.221 -1.2335 -1.0983 -0.0891
  548MOL0     H72297   5.923  -1.370  10.342  3.4059 -4.8599 -0.8572
  548MOL0     H72298   5.808  -1.719  10.032 -0.3113  0.9168  1.6177
  548MOL0     H72299   5.612  -1.855  10.035  0.5673 -0.5053 -0.3167
  548MOL0     H72300   5.098  -1.825  10.264  1.7742  1.2528  0.1490
  548MOL0     H72301   4.924  -1.982  10.352 -0.4581 -0.8993 -0.2694
  548MOL0     H72302   4.918  -2.161  10.719 -1.6361  1.6031  1.0313
  548MOL0     H72303   4.757  -2.196  10.638 -1.7458  1.4350  2.0835
  548MOL0     H72304   4.790  -1.945  10.551 -0.0001  2.1449  0.2682
  548MOL0     H72305   4.903  -1.938  10.692 -2.2740  2.8632  2.5591
  548MOL0     H72306   4.696  -1.992  10.835 -1.7932  1.1254  0.6473
  548MOL0     H72307   4.598  -2.004  10.687 -1.2120  1.5593  0.3994
  548MOL0     H72308   4.735  -1.756  10.791 -0.9693 -1.7661  2.1960
  548MOL0     H72309   4.629  -1.754  10.649  2.8736  1.4291  0.0664
  548MOL0     H72310   4.546  -1.799  10.926 -0.3363  2.1391 -0.0945
  548MOL0     H72311   4.438  -1.827  10.790 -1.6315 -2.0826  1.6818
  548MOL0     H72312   4.493  -1.579  10.719  2.8202 -0.5410 -0.2364
  548MOL0     H72313   4.578  -1.549  10.861 -1.7997  1.4509 -0.0265
  548MOL0     H72314   4.356  -1.446  10.882 -1.7140 -0.2738  2.5955
  548MOL0     H72315   4.273  -1.592  10.850  0.5121 -0.4429 -1.9396
  548MOL0     H72316   4.372  -1.691  11.040  3.1563  0.3997 -0.3829
  548MOL0     H72317   4.297  -1.542  11.100  1.1682  0.1429  0.5994
  548MOL0     H72318   5.199  -2.152  10.624  0.7431 -0.2562 -1.1385
  548MOL0     H72319   5.374  -1.981  10.541  1.6079 -2.5891 -2.4821
  548MOL0     H72320   5.507  -1.633  10.400  0.8936 -1.3182  0.9101
  548MOL0     H72321   5.690  -1.498  10.385  0.8980 -1.9922  0.6409
  548MOL0     H72322   6.251   0.153   9.369 -1.2564 -1.8813 -1.6805
  548MOL0     H72323   6.192   0.373   9.312  0.5004 -1.9829 -0.2900
  548MOL0     H72324   5.967   0.737   9.280  0.6008  0.6643 -0.9016
  548MOL0     H72325   5.955   0.952   9.211  0.2813  1.3553  0.0981
  548MOL0     H72326   5.849   1.196   9.253 -0.2637  0.4288 -1.2639
  548MOL0     H72327   5.976   1.170   9.149 -0.5852 -0.9485  0.5125
  548MOL0     H72328   5.897   1.407   9.123  0.5050  1.2175  0.5580
  548MOL0     H72329   5.893   1.415   9.297  0.3870  3.0176 -1.1967
  548MOL0     H72330   6.147   1.371   9.293 -0.0746  1.6900  2.1175
  548MOL0     H72331   6.092   1.533   9.256  2.1172  0.7014 -1.6844
  548MOL0     H72332   6.178   1.338   9.047 -0.0855  0.2544  1.2635
  548MOL0     H72333   6.098   1.500   9.023 -1.6368  0.1281  1.3559
  548MOL0     H72334   6.509   1.576   9.083 -0.0297  0.7501 -0.7624
  548MOL0     H72335   6.117   1.097   9.566  0.7861  0.7587 -1.1541
  548MOL0     H72336   6.158   0.853   9.651  0.0002  0.2310  1.1863
  549MOL0     O72337   0.265   3.438   6.054 -0.4908  0.1961  0.8168
  549MOL0     C72338   0.359   3.512   6.007  0.2859  0.1376  0.8948
  549MOL0     O72339   0.336   3.602   5.904 -0.4217 -0.3713  0.0200
  549MOL0     C72340   0.204   3.646   5.876  0.2046 -0.0137 -0.2338
  549MOL0     C72341   0.097   3.558   5.845 -0.7050  0.7659  0.4336
  549MOL0     C72342  -0.025   3.603   5.797  0.0007 -0.8847 -0.0305
  549MOL0     C72343  -0.048   3.742   5.770 -0.4693 -0.4756  0.6264
  549MOL0     O72344  -0.164   3.778   5.703  0.3164 -0.2614  0.3948
  549MOL0     C72345  -0.229   3.901   5.731  0.1174  0.4813  0.4070
  549MOL0     C72346  -0.318   3.926   5.598  0.3525 -0.1879  0.0177
  549MOL0     C72347  -0.443   4.014   5.608  0.3976 -0.0389  0.4073
  549MOL0     C72348  -0.522   4.022   5.476  0.3918  0.3417 -1.4698
  549MOL0     C72349  -0.438   4.038   5.337 -0.0909  0.1207  0.5857
  549MOL0     C72350  -0.378   4.176   5.309 -0.0768 -0.1824  0.2852
  549MOL0     C72351  -0.478   4.288   5.313 -0.0636 -0.0673  0.2695
  549MOL0     C72352  -0.581   4.286   5.205 -0.6788 -0.2437  0.4178
  549MOL0     N72353  -0.648   4.422   5.201  0.6765 -0.0439 -0.9279
  549MOL0     C72354  -0.690   4.487   5.095  0.4234 -0.7609  0.3730
  549MOL0     C72355  -0.745   4.597   5.142 -0.3091 -1.4827 -0.8333
  549MOL0     C72356  -0.832   4.696   5.069 -0.2233 -0.4810  0.5676
  549MOL0     C72357  -0.864   4.820   5.157 -0.7301  1.3277  0.2286
  549MOL0     C72358  -0.950   4.921   5.080 -0.4156  0.4721  0.0535
  549MOL0     C72359  -0.876   4.970   4.964  0.3740 -0.2828  0.1214
  549MOL0     O72360  -0.970   5.049   4.898 -0.5183 -0.1326  0.0626
  549MOL0     C72361  -0.990   5.179   4.935 -0.4647  0.3498 -0.6269
  549MOL0     C72362  -1.079   5.246   4.858  0.1117  0.3614 -0.8342
  549MOL0     C72363  -1.096   5.384   4.875  0.5567 -0.2678 -0.0324
  549MOL0     C72364  -1.038   5.453   4.984 -0.3850  0.0575 -0.3188
  549MOL0     C72365  -1.063   5.604   5.002 -0.8808  0.3372 -0.5329
  549MOL0     O72366  -0.972   5.677   5.073 -0.9663  0.5619  0.0715
  549MOL0     C72367  -1.005   5.784   5.153 -0.2764  0.9251  0.2042
  549MOL0     C72368  -0.947   5.791   5.276  0.3506 -0.6120 -0.4206
  549MOL0     C72369  -0.944   5.905   5.354 -0.0848  0.6170 -0.0442
  549MOL0     C72370  -1.023   6.013   5.317 -0.0260 -0.6029  0.6150
  549MOL0     O72371  -1.037   6.121   5.390  0.2012 -0.3656  0.2181
  549MOL0     C72372  -1.155   6.211   5.392  1.2042 -0.2969  0.1972
  549MOL0     C72373  -1.136   6.309   5.508 -0.8019  1.0320 -1.1625
  549MOL0     C72374  -1.153   6.224   5.634  1.2019 -0.8226 -0.5852
  549MOL0     C72375  -1.129   6.313   5.762 -0.3766  0.3191  0.2242
  549MOL0     C72376  -1.161   6.230   5.888  0.0245 -0.7862 -0.3321
  549MOL0     C72377  -1.207   6.309   6.010 -0.2081 -0.5098 -0.8519
  549MOL0     C72378  -1.110   6.412   6.066  0.9698 -0.4743 -0.0950
  549MOL0     C72379  -1.162   6.453   6.200  0.4127 -0.0971  0.9784
  549MOL0    Cl72380  -1.305   6.560   6.186  0.8998 -0.2570 -0.3785
  549MOL0     C72381  -1.098   5.998   5.200 -0.4625 -0.0061  0.1391
  549MOL0     C72382  -1.086   5.887   5.114 -0.1599 -0.0720  0.1393
  549MOL0     O72383  -1.161   5.649   4.955  0.2060 -0.3005  0.2507
  549MOL0     C72384  -0.958   5.380   5.067 -0.2081  0.3005  0.0925
  549MOL0     C72385  -0.930   5.245   5.045 -1.4478  0.3656  0.3304
  549MOL0     N72386  -0.732   4.591   5.287 -0.7859 -0.4129  0.3070
  549MOL0     N72387  -0.676   4.483   5.320 -0.5069  0.0497  0.1491
  549MOL0     C72388   0.056   3.840   5.799  1.2600  0.1912  0.3382
  549MOL0     C72389   0.173   3.783   5.868 -0.1594 -0.5942  0.0371
  549MOL0     C72390   0.494   3.505   6.075 -0.5365  0.0495  0.6572
  549MOL0     C72391   0.557   3.393   6.058  0.1383  0.4583 -0.2304
  549MOL0     C72392   0.669   3.362   6.135 -0.4575  0.2685  0.5286
  549MOL0     C72393   0.726   3.460   6.226 -0.0269  0.0335 -0.6742
  549MOL0     O72394   0.841   3.451   6.300  1.1624  0.2791 -0.0472
  549MOL0     C72395   0.899   3.322   6.314 -0.3067  0.4154  0.6205
  549MOL0     C72396   1.029   3.325   6.396  0.4486  1.0768 -0.5335
  549MOL0     C72397   1.015   3.401   6.540  0.1499  0.5527  0.4205
  549MOL0     C72398   1.155   3.428   6.607  0.6574 -0.1815  0.4683
  549MOL0     C72399   1.206   3.316   6.691 -0.0967  0.0725  0.9902
  549MOL0     C72400   1.242   3.243   6.775 -0.7061 -0.3809  0.5359
  549MOL0     C72401   0.656   3.581   6.240 -0.0172  0.9777  0.4422
  549MOL0     C72402   0.544   3.601   6.160 -0.7507 -0.9678 -0.7312
  549MOL0     H72403   0.100   3.450   5.837  0.1907  0.7656  0.6492
  549MOL0     H72404  -0.101   3.526   5.792 -0.7075 -0.1319 -1.2821
  549MOL0     H72405  -0.167   3.986   5.761  1.0361 -0.6922  1.9937
  549MOL0     H72406  -0.288   3.883   5.821  1.3689 -0.2152  1.1136
  549MOL0     H72407  -0.350   3.829   5.559 -1.0170 -1.3957  3.7390
  549MOL0     H72408  -0.249   3.975   5.528  0.4706 -2.0058 -1.1992
  549MOL0     H72409  -0.412   4.115   5.636 -3.3734  1.5639 -0.5453
  549MOL0     H72410  -0.504   3.969   5.687  1.9054  1.8084  2.7282
  549MOL0     H72411  -0.575   3.928   5.460 -1.4104  1.5654 -3.1138
  549MOL0     H72412  -0.587   4.109   5.486  0.8704  0.5033  0.8002
  549MOL0     H72413  -0.496   4.010   5.248 -0.4053  1.6783  0.2644
  549MOL0     H72414  -0.351   3.973   5.332  3.3551  4.3192 -3.2868
  549MOL0     H72415  -0.325   4.170   5.213 -2.4458  2.2672 -1.3410
  549MOL0     H72416  -0.295   4.196   5.377  0.0488 -1.8454  0.6449
  549MOL0     H72417  -0.524   4.294   5.412  1.0748  3.2545  0.7166
  549MOL0     H72418  -0.423   4.383   5.316 -3.8051  2.4883 -1.9720
  549MOL0     H72419  -0.654   4.209   5.229  1.1910 -2.4753 -0.7167
  549MOL0     H72420  -0.546   4.244   5.110 -0.0097 -0.7481  0.8802
  549MOL0     H72421  -0.685   4.463   4.989  1.5188  0.7722  0.0392
  549MOL0     H72422  -0.923   4.652   5.027 -0.2421 -1.3110  1.4562
  549MOL0     H72423  -0.772   4.738   4.988 -1.0631  1.5885  0.9604
  549MOL0     H72424  -0.774   4.878   5.182 -0.0959 -0.1697  1.5665
  549MOL0     H72425  -0.923   4.786   5.242  0.9929 -1.1916  0.5450
  549MOL0     H72426  -1.040   4.873   5.040 -0.3650  1.6819 -1.6460
  549MOL0     H72427  -0.979   5.004   5.145 -2.5908  0.0001 -0.2572
  549MOL0     H72428  -0.851   4.888   4.895  2.9260 -0.4594  1.1277
  549MOL0     H72429  -0.781   5.017   4.994  1.9031 -2.1405 -1.4876
  549MOL0     H72430  -1.148   5.211   4.783 -2.5336  2.7380  0.2895
  549MOL0     H72431  -1.151   5.439   4.799  1.7385 -0.6125 -1.1725
  549MOL0     H72432  -0.893   5.707   5.318 -1.2796 -1.7011 -0.4062
  549MOL0     H72433  -0.886   5.923   5.444  2.9014  4.0903 -2.3680
  549MOL0     H72434  -1.245   6.150   5.406  1.8846 -1.2977  0.3548
  549MOL0     H72435  -1.178   6.273   5.306  0.2602  2.7174  2.4541
  549MOL0     H72436  -1.222   6.377   5.512  0.4752  2.6993 -0.8215
  549MOL0     H72437  -1.047   6.372   5.494 -1.9208  2.9660 -0.0407
  549MOL0     H72438  -1.089   6.136   5.643 -1.1862 -2.6135 -0.0114
  549MOL0     H72439  -1.253   6.181   5.642  1.8732 -2.0651  3.0303
  549MOL0     H72440  -1.031   6.360   5.765 -0.2358  0.0048  2.1119
  549MOL0     H72441  -1.198   6.398   5.757 -0.3476  0.4465  1.6112
  549MOL0     H72442  -1.071   6.171   5.906 -1.8021 -3.7873 -0.3565
  549MOL0     H72443  -1.247   6.164   5.875  0.9706 -2.2461  0.6105
  549MOL0     H72444  -1.218   6.241   6.095  0.4536 -1.8680 -1.8045
  549MOL0     H72445  -1.297   6.359   5.973 -0.2038 -1.2342 -1.8906
  549MOL0     H72446  -1.011   6.366   6.075  0.6501 -1.0958  0.2591
  549MOL0     H72447  -1.089   6.491   5.993 -1.4748  0.8717  0.5779
  549MOL0     H72448  -1.082   6.496   6.260  0.1807 -0.3664  1.4899
  549MOL0     H72449  -1.181   6.362   6.258 -0.9749 -1.5004 -1.4672
  549MOL0     H72450  -1.145   6.089   5.164  1.4645  3.2367  4.7679
  549MOL0     H72451  -1.137   5.893   5.018 -1.0168  4.5833  0.6486
  549MOL0     H72452  -0.913   5.440   5.146 -0.3935  0.0960  0.3523
  549MOL0     H72453  -0.858   5.196   5.109 -2.4501 -1.2772  0.2661
  549MOL0     H72454   0.043   3.943   5.769 -2.4479  0.8902  3.5558
  549MOL0     H72455   0.256   3.846   5.898  0.1168 -1.4149  1.0534
  549MOL0     H72456   0.535   3.321   5.979  1.9015  1.2300 -1.4770
  549MOL0     H72457   0.712   3.263   6.126 -1.7955 -0.2521 -0.3810
  549MOL0     H72458   0.919   3.282   6.215  0.9457  4.4776 -0.9912
  549MOL0     H72459   0.841   3.245   6.365  1.0835 -2.2563 -1.6145
  549MOL0     H72460   1.064   3.222   6.410  0.5182  0.8424 -2.1924
  549MOL0     H72461   1.109   3.368   6.334  1.0282  0.5330 -0.1774
  549MOL0     H72462   0.957   3.339   6.608  1.2243 -2.7495 -1.3902
  549MOL0     H72463   0.953   3.489   6.523 -2.2199 -1.4280 -2.1149
  549MOL0     H72464   1.218   3.458   6.522  0.4683  2.4977  1.1674
  549MOL0     H72465   1.150   3.518   6.670 -0.2214  0.4367 -0.4563
  549MOL0     H72466   1.279   3.193   6.862  1.6221 -1.1478 -0.8161
  549MOL0     H72467   0.688   3.652   6.315 -0.4680  0.4325  1.1687
  549MOL0     H72468   0.469   3.678   6.164 -0.3857 -0.6590  0.8227
  550MOL0     O72469   1.980   9.705   9.547  0.6411 -1.0974  0.9563
  550MOL0     C72470   1.949   9.711   9.664 -1.3358  0.8254 -0.2223
  550MOL0     O72471   2.033   9.665   9.766  0.5698 -0.5629  0.7421
  550MOL0     C72472   2.144   9.611   9.728 -0.3430  1.0108 -0.6517
  550MOL0     C72473   2.135   9.469   9.707 -1.0580 -0.3305  0.1245
  550MOL0     C72474   2.249   9.400   9.678 -0.0846 -0.5013  0.2398
  550MOL0     C72475   2.376   9.466   9.678 -0.2387  0.2719 -0.3698
  550MOL0     O72476   2.495   9.413   9.634  0.9923 -1.0533  0.4298
  550MOL0     C72477   2.499   9.269   9.623  0.2560 -0.5731 -0.6911
  550MOL0     C72478   2.640   9.241   9.561  0.2365  0.3152  1.0722
  550MOL0     C72479   2.679   9.095   9.557 -0.7946  0.9566  0.2781
  550MOL0     C72480   2.814   9.060   9.496  0.2448  0.5402 -0.7535
  550MOL0     C72481   2.825   8.914   9.468  0.0985  0.2161  0.5410
  550MOL0     C72482   2.800   8.824   9.597  0.5913 -1.1602 -0.0898
  550MOL0     C72483   2.927   8.833   9.685 -0.5191 -0.0232  0.2791
  550MOL0     C72484   2.901   8.770   9.817 -0.3896 -0.1265 -0.4850
  550MOL0     N72485   3.017   8.776   9.912 -0.7357 -0.2395  0.2410
  550MOL0     C72486   3.105   8.676   9.936 -0.3714  0.2179 -0.4022
  550MOL0     C72487   3.154   8.701  10.066 -0.0629 -0.3688  0.4990
  550MOL0     C72488   3.220   8.613  10.161 -1.1297  0.0193  1.5028
  550MOL0     C72489   3.114   8.531  10.234 -0.0737  0.2357  0.1084
  550MOL0     C72490   3.184   8.462  10.353 -0.2673  0.9212  0.9567
  550MOL0     C72491   3.096   8.355  10.423 -0.0177  0.8769  0.0680
  550MOL0     O72492   3.163   8.326  10.545  1.3356  0.1625  0.1778
  550MOL0     C72493   3.085   8.318  10.660  0.4897 -0.4478  1.0042
  550MOL0     C72494   2.956   8.271  10.662  1.6591  0.9362 -1.0903
  550MOL0     C72495   2.880   8.275  10.786 -0.0825 -0.4968  0.8862
  550MOL0     C72496   2.933   8.325  10.906  0.1028 -0.1938 -0.5629
  550MOL0     C72497   2.844   8.315  11.021 -0.1419 -0.6654 -0.1247
  550MOL0     O72498   2.730   8.251  11.018  0.6074  0.2825 -0.3820
  550MOL0     C72499   2.628   8.252  11.115  0.2096 -0.8496 -0.2967
  550MOL0     C72500   2.610   8.355  11.214  0.2448  0.6831  0.0796
  550MOL0     C72501   2.494   8.372  11.288  0.1866 -0.4143 -0.0076
  550MOL0     C72502   2.401   8.273  11.281  0.1158  0.4000 -0.8456
  550MOL0     O72503   2.283   8.280  11.354 -0.2752 -0.2685  0.5693
  550MOL0     C72504   2.249   8.406  11.419 -0.4178  1.0842  0.8276
  550MOL0     C72505   2.096   8.425  11.439  0.0977  0.9137 -0.8520
  550MOL0     C72506   2.029   8.320  11.530  0.4849 -0.3433 -0.6769
  550MOL0     C72507   1.879   8.345  11.546 -0.4755  0.3279  0.5187
  550MOL0     C72508   1.839   8.447  11.651 -0.1353  0.8433 -0.5270
  550MOL0     C72509   1.687   8.435  11.683 -0.6068  1.1374  0.3285
  550MOL0     C72510   1.656   8.455  11.829 -0.9140  0.4699 -0.2438
  550MOL0     C72511   1.514   8.424  11.880  0.5627 -0.0114  1.2989
  550MOL0    Cl72512   1.453   8.550  11.990 -0.2104 -0.1003  0.2555
  550MOL0     C72513   2.423   8.163  11.198  0.4426  0.0630  0.2364
  550MOL0     C72514   2.529   8.161  11.114 -0.2385 -0.6991  0.0162
  550MOL0     O72515   2.900   8.368  11.118  0.0951 -0.2875 -0.4792
  550MOL0     C72516   3.064   8.354  10.907 -0.5206 -0.6856 -0.5552
  550MOL0     C72517   3.134   8.363  10.786  0.0047  0.2907 -0.7133
  550MOL0     N72518   3.109   8.824  10.101  0.5646 -0.2455 -0.3130
  550MOL0     N72519   3.030   8.871  10.010  0.5196  1.0306  1.2597
  550MOL0     C72520   2.384   9.602   9.715  0.3841 -0.0052  0.3664
  550MOL0     C72521   2.262   9.673   9.749  0.2177 -0.7179  0.1558
  550MOL0     C72522   1.821   9.754   9.713  0.0626 -0.8385  0.0566
  550MOL0     C72523   1.743   9.829   9.624 -0.7384  0.0099  0.3423
  550MOL0     C72524   1.612   9.873   9.657 -0.2441 -0.7057  0.3867
  550MOL0     C72525   1.564   9.853   9.788 -0.5464  0.6544  0.2983
  550MOL0     O72526   1.435   9.903   9.815 -0.1696 -0.0212 -0.4903
  550MOL0     C72527   1.427   9.958   9.950 -0.5304  0.7022  0.2994
  550MOL0     C72528   1.522  10.088   9.963  1.5728 -0.0571  0.1511
  550MOL0     C72529   1.477  10.176  10.071 -1.5759 -0.3424 -0.6167
  550MOL0     C72530   1.512  10.326  10.049 -0.3716 -0.4843  0.3029
  550MOL0     C72531   1.659  10.334  10.040 -0.3033 -1.3792  0.2001
  550MOL0     C72532   1.779  10.350  10.011  0.2589  0.0308  0.7511
  550MOL0     C72533   1.649   9.789   9.884 -0.5993 -0.1554 -0.1920
  550MOL0     C72534   1.774   9.739   9.841  0.2660 -0.7127 -0.0634
  550MOL0     H72535   2.037   9.423   9.706 -0.9519 -0.5848  0.9385
  550MOL0     H72536   2.238   9.292   9.666  2.5064 -0.6713 -1.2012
  550MOL0     H72537   2.420   9.226   9.562 -1.1574 -1.2522  1.5040
  550MOL0     H72538   2.505   9.224   9.723  0.8825  0.9987  0.0243
  550MOL0     H72539   2.712   9.297   9.620  0.3218  0.5354  0.7600
  550MOL0     H72540   2.648   9.276   9.458 -0.6050  1.5861  1.4184
  550MOL0     H72541   2.594   9.043   9.512 -1.9487  2.2998  0.8284
  550MOL0     H72542   2.684   9.061   9.661 -0.0345  1.1070  0.2978
  550MOL0     H72543   2.829   9.132   9.416  0.5513  1.2154 -0.1001
  550MOL0     H72544   2.895   9.065   9.569 -1.3892 -1.3974  1.3443
  550MOL0     H72545   2.926   8.890   9.433  1.1933  2.6244  1.8099
  550MOL0     H72546   2.749   8.889   9.393  0.1198 -0.4247  0.7308
  550MOL0     H72547   2.785   8.725   9.552  0.0664 -1.2429  0.2654
  550MOL0     H72548   2.713   8.852   9.656  2.2657  2.8865  0.7571
  550MOL0     H72549   3.009   8.768   9.653 -0.3780 -0.5733  1.6801
  550MOL0     H72550   2.955   8.938   9.697  0.7181  0.1842 -3.2976
  550MOL0     H72551   2.881   8.662   9.816 -0.7380 -0.0591 -1.4222
  550MOL0     H72552   2.819   8.820   9.869 -0.3229  0.8589 -1.2912
  550MOL0     H72553   3.115   8.591   9.870 -1.9092 -0.3384  0.0189
  550MOL0     H72554   3.278   8.673  10.232 -0.1448  0.2348  0.5588
  550MOL0     H72555   3.294   8.557  10.103 -1.0533  2.2195 -0.6917
  550MOL0     H72556   3.050   8.466  10.175 -1.0390  0.2570  1.0930
  550MOL0     H72557   3.048   8.606  10.279  1.9936  1.8129  0.7302
  550MOL0     H72558   3.282   8.431  10.315 -1.3327  1.0178 -2.1264
  550MOL0     H72559   3.208   8.539  10.427 -0.4643  5.7584 -3.4651
  550MOL0     H72560   3.084   8.271  10.354 -1.4757  1.6903 -0.7312
  550MOL0     H72561   2.997   8.393  10.453  0.2623  0.2669  1.8907
  550MOL0     H72562   2.912   8.211  10.583 -0.9664 -1.7993  2.1404
  550MOL0     H72563   2.779   8.242  10.768 -0.4773  0.0152  2.0809
  550MOL0     H72564   2.693   8.421  11.236  1.5373  0.2278 -2.9380
  550MOL0     H72565   2.500   8.460  11.351 -1.0154  0.1679 -0.6617
  550MOL0     H72566   2.284   8.483  11.349  2.3674  0.9247  1.9062
  550MOL0     H72567   2.304   8.413  11.513  1.0839  0.9976 -0.0042
  550MOL0     H72568   2.043   8.427  11.344 -0.0198 -0.7764 -0.8506
  550MOL0     H72569   2.066   8.522  11.480 -3.4805  1.1913 -3.6085
  550MOL0     H72570   2.076   8.320  11.629  0.0368 -0.9229 -0.4600
  550MOL0     H72571   2.034   8.227  11.473 -2.3598 -0.0358 -1.6130
  550MOL0     H72572   1.851   8.391  11.451  3.9262 -1.5227 -1.9811
  550MOL0     H72573   1.827   8.248  11.542 -0.2954  0.2653 -2.1355
  550MOL0     H72574   1.867   8.550  11.629 -4.3760  2.3092  0.0586
  550MOL0     H72575   1.895   8.417  11.741  0.5673 -1.2172 -1.5808
  550MOL0     H72576   1.640   8.337  11.668  0.8265  0.3817  0.6272
  550MOL0     H72577   1.620   8.507  11.634 -2.8537  0.3313  2.0389
  550MOL0     H72578   1.737   8.419  11.893 -1.7808  2.0440  1.8697
  550MOL0     H72579   1.673   8.562  11.844 -1.9762  0.6708 -0.3856
  550MOL0     H72580   1.522   8.331  11.937 -3.0033  0.3280  2.5810
  550MOL0     H72581   1.446   8.413  11.795  1.4279 -1.3843  0.7475
  550MOL0     H72582   2.356   8.078  11.210  0.7326  0.0897  2.3698
  550MOL0     H72583   2.550   8.080  11.045  2.2026 -2.1252  2.2635
  550MOL0     H72584   3.111   8.370  11.004  1.8558  0.6445 -1.8500
  550MOL0     H72585   3.236   8.402  10.786 -0.7733  2.4590 -1.1844
  550MOL0     H72586   2.477   9.653   9.734  1.3771 -1.5628 -0.0766
  550MOL0     H72587   2.264   9.776   9.781 -1.6405 -0.1632 -1.3471
  550MOL0     H72588   1.780   9.860   9.527  0.3689 -0.0134  0.7350
  550MOL0     H72589   1.542   9.907   9.582  0.1021  0.1108  0.4255
  550MOL0     H72590   1.446   9.877  10.022 -3.1305 -0.9836 -0.7388
  550MOL0     H72591   1.320   9.976   9.964 -0.7815  0.4052 -1.0620
  550MOL0     H72592   1.624  10.048   9.974  2.2053  0.5356 -2.7420
  550MOL0     H72593   1.524  10.138   9.866  0.0090  1.4108  0.8319
  550MOL0     H72594   1.519  10.130  10.161  0.4832 -1.8601 -2.2646
  550MOL0     H72595   1.368  10.171  10.083 -1.3231 -0.0517  2.7743
  550MOL0     H72596   1.462  10.354   9.956 -3.2187 -0.3253  1.7660
  550MOL0     H72597   1.477  10.397  10.125 -0.1153  0.8500 -0.7857
  550MOL0     H72598   1.884  10.358   9.993  0.3169  0.5355  1.3025
  550MOL0     H72599   1.632   9.785   9.991 -0.1435  1.8686 -0.0061
  550MOL0     H72600   1.838   9.708   9.923 -1.6078  1.1680  2.2430
  551MOL0     O72601   2.787   2.304  11.233 -0.3754 -0.0700  0.4147
  551MOL0     C72602   2.752   2.312  11.353  0.5210 -0.0385  0.1074
  551MOL0     O72603   2.768   2.209  11.441 -0.7781 -0.9564 -0.3189
  551MOL0     C72604   2.782   2.083  11.387  0.4463  0.5881 -0.4491
  551MOL0     C72605   2.852   1.983  11.460  0.2113 -0.2326 -0.3095
  551MOL0     C72606   2.861   1.850  11.416 -0.6407  0.2936 -0.2867
  551MOL0     C72607   2.806   1.803  11.303 -0.1263  0.3743  0.6291
  551MOL0     O72608   2.800   1.678  11.244 -0.3506 -0.3349  0.2358
  551MOL0     C72609   2.925   1.614  11.259  0.6623 -0.4303  0.4649
  551MOL0     C72610   2.908   1.463  11.313  0.5199 -0.0963  0.2088
  551MOL0     C72611   2.857   1.397  11.186 -0.1526  0.0130  0.0080
  551MOL0     C72612   2.806   1.256  11.198  1.4005 -0.7796 -0.7333
  551MOL0     C72613   2.785   1.180  11.069 -0.0894  0.2740  0.3224
  551MOL0     C72614   2.740   1.037  11.082  0.2804  0.4710  0.0359
  551MOL0     C72615   2.681   0.967  10.958 -0.9741 -0.1022 -0.7037
  551MOL0     C72616   2.800   0.918  10.879 -0.3009 -0.6036  0.0458
  551MOL0     N72617   2.763   0.854  10.749  0.6011  0.4426 -0.4332
  551MOL0     C72618   2.702   0.733  10.728 -0.3226  0.3943 -0.9470
  551MOL0     C72619   2.711   0.699  10.601  0.5220  0.1476  1.4739
  551MOL0     C72620   2.652   0.582  10.521  0.5324  0.1032  0.1129
  551MOL0     C72621   2.508   0.619  10.477 -0.0332 -0.2559  0.7220
  551MOL0     C72622   2.464   0.540  10.356 -0.7815  0.1108 -0.0455
  551MOL0     C72623   2.398   0.407  10.393 -0.3535  0.0641 -1.6465
  551MOL0     O72624   2.487   0.315  10.460  0.2388  0.3746 -0.4943
  551MOL0     C72625   2.426   0.214  10.534 -0.7964 -0.5008  0.2301
  551MOL0     C72626   2.289   0.197  10.545 -0.4650 -0.1309 -0.0111
  551MOL0     C72627   2.221   0.094  10.622 -0.6502 -0.1659  1.0031
  551MOL0     C72628   2.306   0.000  10.692  0.3924  0.4938 -0.2097
  551MOL0     C72629   2.266  -0.126  10.753  0.2785  0.5627 -0.6183
  551MOL0     O72630   2.137  -0.178  10.731  0.2185  0.4090 -0.4654
  551MOL0     C72631   2.101  -0.289  10.791  1.5821  0.4773 -0.2419
  551MOL0     C72632   2.153  -0.409  10.764  0.4660  0.6425 -0.2727
  551MOL0     C72633   2.105  -0.529  10.812  1.2612 -0.1131 -0.0776
  551MOL0     C72634   1.996  -0.528  10.906 -0.0411  0.2434 -0.8688
  551MOL0     O72635   1.961  -0.641  10.979  0.3091  0.8353  0.4887
  551MOL0     C72636   1.981  -0.772  10.920 -0.4157  0.0457  0.3879
  551MOL0     C72637   1.871  -0.887  10.962  0.5418 -0.6460  0.1733
  551MOL0     C72638   1.741  -0.894  10.878  0.5200  0.0032  0.1293
  551MOL0     C72639   1.682  -0.754  10.850  0.8055  0.5327 -0.3821
  551MOL0     C72640   1.531  -0.744  10.827  0.6029  0.0848  0.9921
  551MOL0     C72641   1.488  -0.620  10.744  0.5686 -0.5185 -0.0993
  551MOL0     C72642   1.526  -0.490  10.814  0.1152  0.3363 -0.5839
  551MOL0     C72643   1.528  -0.370  10.725 -1.1900  0.6988 -0.0612
  551MOL0    Cl72644   1.351  -0.330  10.704 -0.2844  0.2498  0.1183
  551MOL0     C72645   1.942  -0.406  10.939  0.0695  0.6374  0.3123
  551MOL0     C72646   1.991  -0.284  10.885  0.2921  1.1480  0.4854
  551MOL0     O72647   2.346  -0.174  10.832 -0.3951 -0.0920  0.9471
  551MOL0     C72648   2.448   0.021  10.673 -0.4375 -0.9065  0.4792
  551MOL0     C72649   2.506   0.133  10.609  0.2295  0.9702  0.6076
  551MOL0     N72650   2.795   0.799  10.546 -0.5292 -0.2787 -0.1389
  551MOL0     N72651   2.831   0.885  10.634  0.1743  0.0484  0.7206
  551MOL0     C72652   2.712   1.887  11.240 -0.3691  0.6136 -0.3505
  551MOL0     C72653   2.698   2.025  11.282  0.1305 -0.3369 -0.0405
  551MOL0     C72654   2.705   2.436  11.410 -0.3987  0.1708  0.2859
  551MOL0     C72655   2.661   2.427  11.542  0.0151 -0.6718 -0.4243
  551MOL0     C72656   2.638   2.548  11.620  0.1733  0.9306  0.5307
  551MOL0     C72657   2.675   2.677  11.567  0.0908  0.0372 -0.0494
  551MOL0     O72658   2.653   2.785  11.657 -0.2521 -0.6385  0.1863
  551MOL0     C72659   2.654   2.920  11.616 -0.6908 -0.2817  0.4450
  551MOL0     C72660   2.549   2.954  11.504 -0.2450 -0.4181 -0.3179
  551MOL0     C72661   2.615   3.050  11.403 -0.5671  0.3211  0.3735
  551MOL0     C72662   2.530   3.119  11.294 -0.4633  0.1020 -0.5546
  551MOL0     C72663   2.481   3.025  11.184  0.0371  0.4368  0.6510
  551MOL0     C72664   2.422   2.966  11.091  0.4437 -0.3200  0.7940
  551MOL0     C72665   2.715   2.684  11.431  0.1871  0.2968 -0.4867
  551MOL0     C72666   2.725   2.564  11.358 -0.3281 -0.4336 -0.2571
  551MOL0     H72667   2.907   1.997  11.553 -2.5332  1.1054  1.2279
  551MOL0     H72668   2.902   1.776  11.484 -4.3501 -1.1406  0.6480
  551MOL0     H72669   2.992   1.659  11.332  1.0535  1.4100 -0.9718
  551MOL0     H72670   2.986   1.612  11.168 -2.1047 -1.1931 -1.5075
  551MOL0     H72671   2.828   1.453  11.387  2.4778 -0.9001  2.3741
  551MOL0     H72672   2.999   1.414  11.351  0.0359 -1.5529 -0.4357
  551MOL0     H72673   2.935   1.399  11.110  1.1568 -0.6636  1.2736
  551MOL0     H72674   2.768   1.449  11.150 -1.5377 -0.5737  2.3321
  551MOL0     H72675   2.887   1.211  11.256  1.8371  1.3534  0.3780
  551MOL0     H72676   2.721   1.255  11.267  0.3689 -0.2400 -1.9568
  551MOL0     H72677   2.885   1.184  11.026 -1.0606  1.0599 -2.0650
  551MOL0     H72678   2.711   1.233  11.007 -1.4071 -1.7962  0.0192
  551MOL0     H72679   2.668   1.032  11.164  2.2735  1.1414  1.9021
  551MOL0     H72680   2.824   0.978  11.121  0.4066 -0.1771 -1.1604
  551MOL0     H72681   2.613   0.888  10.990 -2.4088  2.0341  1.9090
  551MOL0     H72682   2.629   1.045  10.901 -1.2388  0.5923  0.4588
  551MOL0     H72683   2.847   0.839  10.938 -0.4100 -0.3587  0.4626
  551MOL0     H72684   2.878   0.991  10.857  0.7394 -1.9277 -0.7990
  551MOL0     H72685   2.639   0.674  10.794  3.3534 -2.8508  0.0440
  551MOL0     H72686   2.659   0.495  10.587 -0.6283  1.4551  2.0792
  551MOL0     H72687   2.720   0.569  10.435  0.0421 -4.6823  0.1512
  551MOL0     H72688   2.505   0.723  10.443 -1.5935  0.3941  2.6407
  551MOL0     H72689   2.430   0.624  10.554 -1.3665  1.4385 -0.6182
  551MOL0     H72690   2.391   0.607  10.310  2.3415  3.4711 -0.6123
  551MOL0     H72691   2.540   0.529  10.278  0.6478  1.9521  0.9990
  551MOL0     H72692   2.354   0.366  10.302 -1.7410 -0.7065 -0.6627
  551MOL0     H72693   2.317   0.426  10.463 -0.3238  2.2827 -2.1277
  551MOL0     H72694   2.213   0.262  10.502  0.0125 -0.0419 -0.7348
  551MOL0     H72695   2.114   0.077  10.620 -0.3885 -1.9036  0.1410
  551MOL0     H72696   2.222  -0.400  10.680 -1.1651  2.2126 -1.5148
  551MOL0     H72697   2.149  -0.620  10.773  0.9219  0.4638 -1.8627
  551MOL0     H72698   2.088  -0.792  10.933  0.2337  2.7941 -0.0587
  551MOL0     H72699   1.969  -0.761  10.812 -0.3792 -1.2110  0.2388
  551MOL0     H72700   1.851  -0.876  11.069 -4.0618  1.2941 -0.6442
  551MOL0     H72701   1.917  -0.985  10.945  0.4472 -0.5598 -0.6107
  551MOL0     H72702   1.662  -0.941  10.937 -0.0849  1.0543  0.1771
  551MOL0     H72703   1.748  -0.949  10.784  0.9177 -0.6175  0.5125
  551MOL0     H72704   1.705  -0.680  10.927 -0.4702  3.1857 -2.3988
  551MOL0     H72705   1.742  -0.703  10.775 -1.1807  1.1939 -1.5937
  551MOL0     H72706   1.484  -0.740  10.925 -5.1677  2.0741 -1.4326
  551MOL0     H72707   1.495  -0.833  10.774 -2.1437  1.3961  0.5031
  551MOL0     H72708   1.382  -0.628  10.717 -0.2786 -0.0555  2.7160
  551MOL0     H72709   1.546  -0.633  10.652  1.1798  1.4788 -0.0321
  551MOL0     H72710   1.447  -0.462  10.885 -1.0240  2.1945 -2.4433
  551MOL0     H72711   1.622  -0.492  10.866  0.2172 -1.4262 -0.7998
  551MOL0     H72712   1.581  -0.388  10.631  0.3999  0.1604  0.9048
  551MOL0     H72713   1.580  -0.290  10.778 -0.8528  1.6477 -1.7654
  551MOL0     H72714   1.858  -0.417  11.007 -0.9264 -1.0583 -1.1058
  551MOL0     H72715   1.929  -0.199  10.912 -3.2592 -0.9541 -0.4814
  551MOL0     H72716   2.518  -0.049  10.718  2.4976  0.0662 -2.1555
  551MOL0     H72717   2.613   0.147  10.614  0.6564 -0.8383 -1.7029
  551MOL0     H72718   2.647   1.854  11.160 -0.6568  1.3386 -0.4187
  551MOL0     H72719   2.632   2.079  11.217  1.5375 -1.1604 -2.2795
  551MOL0     H72720   2.639   2.337  11.599  1.2963 -1.0914 -0.5676
  551MOL0     H72721   2.606   2.549  11.724 -0.8643  0.1961  0.2373
  551MOL0     H72722   2.756   2.942  11.584 -1.5418  4.1375  0.0197
  551MOL0     H72723   2.625   2.986  11.698 -0.9335 -0.7325  0.7267
  551MOL0     H72724   2.518   2.867  11.446 -0.3317  0.3989 -1.5483
  551MOL0     H72725   2.464   2.990  11.563  1.9178 -1.2710  3.6723
  551MOL0     H72726   2.699   2.999  11.354 -2.2414 -1.1086 -1.1648
  551MOL0     H72727   2.656   3.141  11.447  1.0494 -0.4315  0.4719
  551MOL0     H72728   2.436   3.165  11.325 -1.0444 -0.1949 -1.8042
  551MOL0     H72729   2.586   3.193  11.236 -0.8766 -2.5175 -4.7055
  551MOL0     H72730   2.372   2.923  11.007  2.2184 -0.8053 -0.0567
  551MOL0     H72731   2.725   2.788  11.401 -3.0748  1.0099  0.5077
  551MOL0     H72732   2.759   2.570  11.256  0.5967 -0.0938  0.0634
  552MOL0     O72733   3.412  11.107  10.345  0.3957  0.3381  0.5660
  552MOL0     C72734   3.526  11.098  10.395 -0.6075  0.0112 -0.2125
  552MOL0     O72735   3.649  11.062  10.334 -0.2386 -0.2726 -0.2300
  552MOL0     C72736   3.660  11.009  10.210 -0.9987 -0.5299 -0.2535
  552MOL0     C72737   3.559  10.962  10.129  0.3878 -0.8589  0.2594
  552MOL0     C72738   3.591  10.905  10.003 -0.0082 -0.6770 -0.3567
  552MOL0     C72739   3.723  10.907   9.954  0.8439 -0.1240  0.3027
  552MOL0     O72740   3.756  10.840   9.836 -0.0554 -0.6019 -0.1022
  552MOL0     C72741   3.658  10.828   9.740 -0.0564 -0.1850  1.2546
  552MOL0     C72742   3.725  10.767   9.617 -0.3318  0.3921 -0.4606
  552MOL0     C72743   3.637  10.762   9.497  0.4552  0.7858  0.2695
  552MOL0     C72744   3.711  10.711   9.371  0.6495  0.5164 -1.2327
  552MOL0     C72745   3.639  10.767   9.247 -0.1524  0.0647  0.3828
  552MOL0     C72746   3.726  10.766   9.118 -0.8042 -0.8660  0.5053
  552MOL0     C72747   3.819  10.887   9.113 -0.2698  0.1524  0.0146
  552MOL0     C72748   3.729  11.016   9.089 -1.6877  0.0812 -0.3161
  552MOL0     N72749   3.824  11.131   9.063  0.1047  0.5932  0.7782
  552MOL0     C72750   3.921  11.173   9.147  0.5965 -0.5372  0.1393
  552MOL0     C72751   4.009  11.240   9.077 -0.4189  0.0826 -0.5386
  552MOL0     C72752   4.146  11.287   9.121  0.1584  0.0818  0.5597
  552MOL0     C72753   4.259  11.186   9.068 -0.0434 -0.8890  0.2694
  552MOL0     C72754   4.290  11.222   8.920 -0.1652  0.3193  0.2760
  552MOL0     C72755   4.397  11.130   8.865  0.0844 -0.2836  0.2310
  552MOL0     O72756   4.524  11.175   8.917 -0.3459  0.5703 -0.4530
  552MOL0     C72757   4.595  11.259   8.847  0.4264  0.2076  0.9288
  552MOL0     C72758   4.553  11.328   8.735  0.9658 -0.4489  0.6057
  552MOL0     C72759   4.650  11.408   8.659  0.4578  0.4959 -0.0462
  552MOL0     C72760   4.781  11.425   8.712 -0.5604  0.0777 -0.0099
  552MOL0     C72761   4.893  11.491   8.628  0.2128 -0.1719 -0.2134
  552MOL0     O72762   4.842  11.576   8.532  0.6172 -0.3970 -0.3156
  552MOL0     C72763   4.931  11.583   8.423  1.0032 -0.7789  0.1146
  552MOL0     C72764   5.032  11.674   8.421  0.1350 -1.2053  0.8770
  552MOL0     C72765   5.089  11.704   8.295  0.1708 -1.2060  0.3552
  552MOL0     C72766   5.038  11.648   8.173  0.1511 -0.4792  0.2044
  552MOL0     O72767   5.060  11.698   8.041  0.2285  0.5762 -0.3347
  552MOL0     C72768   5.199  11.691   7.991  0.8162  0.3997 -0.1974
  552MOL0     C72769   5.221  11.592   7.878  0.0718  0.5508  0.5760
  552MOL0     C72770   5.088  11.555   7.800  0.1869 -0.3432 -1.2020
  552MOL0     C72771   5.126  11.465   7.677  0.4518 -0.2682  0.2771
  552MOL0     C72772   5.167  11.322   7.692  0.1676 -0.6469 -0.5093
  552MOL0     C72773   5.184  11.243   7.563 -0.0045  0.6448  0.5127
  552MOL0     C72774   5.205  11.093   7.585 -0.7242  0.1138  0.0378
  552MOL0     C72775   5.240  11.018   7.464  0.7781  0.0959  0.5484
  552MOL0    Cl72776   5.408  11.044   7.421 -0.3428  0.0251  0.1477
  552MOL0     C72777   4.939  11.555   8.189  0.1184  0.8888  0.1565
  552MOL0     C72778   4.891  11.511   8.309  0.3613  0.9248  0.7576
  552MOL0     O72779   5.014  11.472   8.650  0.0428  0.8443 -0.5314
  552MOL0     C72780   4.820  11.344   8.819 -0.4783 -0.0315 -0.5922
  552MOL0     C72781   4.721  11.267   8.885  0.4122 -0.0488 -0.6128
  552MOL0     N72782   3.961  11.249   8.949  0.0277  0.7247 -0.5605
  552MOL0     N72783   3.842  11.187   8.941  0.1461 -0.9140 -0.1063
  552MOL0     C72784   3.821  10.950  10.043 -0.4814  0.4510  1.3289
  552MOL0     C72785   3.791  11.004  10.161 -0.9675 -0.1792  0.3150
  552MOL0     C72786   3.528  11.113  10.546 -0.3046 -0.4071  1.2592
  552MOL0     C72787   3.424  11.182  10.612 -0.9372 -0.3374 -1.1445
  552MOL0     C72788   3.427  11.195  10.754  0.9153  0.6087  0.4326
  552MOL0     C72789   3.519  11.128  10.829 -1.0381  0.2089 -0.1808
  552MOL0     O72790   3.526  11.141  10.965 -0.0256  0.3088 -0.2401
  552MOL0     C72791   3.407  11.166  11.046 -0.0303  0.9262  0.4535
  552MOL0     C72792   3.432  11.148  11.189  0.7395 -0.3210 -0.0873
  552MOL0     C72793   3.526  11.033  11.219 -1.1417 -0.0073 -0.3265
  552MOL0     C72794   3.551  11.017  11.376  0.2162  0.7067 -0.3470
  552MOL0     C72795   3.426  10.974  11.454 -0.4234 -0.0613 -0.7206
  552MOL0     C72796   3.341  10.946  11.533  0.0962 -0.5586  0.5381
  552MOL0     C72797   3.623  11.057  10.763  0.7776 -0.5012  0.3054
  552MOL0     C72798   3.625  11.049  10.624  0.5251 -0.2646  0.5331
  552MOL0     H72799   3.465  10.953  10.181 -0.6900 -2.1243 -1.7488
  552MOL0     H72800   3.507  10.856   9.955  0.0650 -2.1396  0.9198
  552MOL0     H72801   3.606  10.921   9.715  1.4657  0.2978 -0.3114
  552MOL0     H72802   3.588  10.748   9.765 -0.6327  0.4691  1.7827
  552MOL0     H72803   3.782  10.677   9.640 -1.4798  0.2196  2.0833
  552MOL0     H72804   3.799  10.845   9.597 -0.0779  0.3726  0.3772
  552MOL0     H72805   3.579  10.852   9.475 -0.8013 -0.3530 -1.3035
  552MOL0     H72806   3.567  10.684   9.529  2.7693 -0.5797  2.4165
  552MOL0     H72807   3.815  10.745   9.378  0.2906  1.4846 -0.1926
  552MOL0     H72808   3.710  10.602   9.373  1.7116  0.5029  0.1959
  552MOL0     H72809   3.608  10.870   9.268  0.7999  0.6100 -0.7776
  552MOL0     H72810   3.548  10.712   9.223  2.3114 -3.4931 -1.7862
  552MOL0     H72811   3.657  10.759   9.033 -0.2089 -2.9479  0.1452
  552MOL0     H72812   3.790  10.679   9.130 -0.3305 -0.3463  2.0929
  552MOL0     H72813   3.873  10.917   9.203 -0.7022 -0.6854  0.5725
  552MOL0     H72814   3.888  10.883   9.029 -2.0495  0.4110 -1.5222
  552MOL0     H72815   3.655  11.038   9.166 -1.3234 -3.2289  1.1501
  552MOL0     H72816   3.668  10.997   9.000 -3.2187 -0.1514  0.7378
  552MOL0     H72817   3.931  11.144   9.251 -1.1039  3.0174  1.4624
  552MOL0     H72818   4.154  11.305   9.228  2.7797 -1.8312  0.7841
  552MOL0     H72819   4.157  11.389   9.082  0.5829 -0.7203 -1.5479
  552MOL0     H72820   4.223  11.085   9.088  3.3379 -2.2157  0.3444
  552MOL0     H72821   4.350  11.203   9.126 -1.5013  2.9745  1.8117
  552MOL0     H72822   4.197  11.211   8.863  1.3983 -1.5447 -2.1406
  552MOL0     H72823   4.326  11.325   8.920  0.1696  0.2059 -0.3476
  552MOL0     H72824   4.386  11.129   8.757 -1.8757  1.0554  0.3555
  552MOL0     H72825   4.364  11.027   8.884  1.2132 -0.6576  0.2181
  552MOL0     H72826   4.450  11.327   8.702  1.5766  1.2708 -1.5838
  552MOL0     H72827   4.615  11.447   8.564  3.0321  3.2024 -0.0202
  552MOL0     H72828   5.055  11.725   8.513 -0.8173  1.9733 -0.4956
  552MOL0     H72829   5.176  11.769   8.298 -0.2556 -0.6571  2.9226
  552MOL0     H72830   5.256  11.658   8.078  2.8706 -1.3222 -2.0708
  552MOL0     H72831   5.215  11.793   7.953  1.2344 -0.2850 -1.9457
  552MOL0     H72832   5.273  11.508   7.925  2.1332  1.8221  0.6823
  552MOL0     H72833   5.292  11.627   7.803  1.8032 -3.3417  0.1337
  552MOL0     H72834   5.045  11.648   7.762 -3.1456 -1.0399  0.5082
  552MOL0     H72835   5.011  11.519   7.868  1.1737  0.4453  0.3837
  552MOL0     H72836   5.033  11.474   7.619 -0.0130  3.3113  1.3440
  552MOL0     H72837   5.200  11.517   7.616 -1.2752  1.7960 -0.1611
  552MOL0     H72838   5.108  11.264   7.764  0.9695  0.8288  1.4305
  552MOL0     H72839   5.263  11.325   7.745 -0.6168 -1.3465  1.0090
  552MOL0     H72840   5.286  11.269   7.535  1.5590 -1.1523  3.9400
  552MOL0     H72841   5.107  11.268   7.490  0.9141  2.8093  0.2100
  552MOL0     H72842   5.288  11.078   7.655 -0.4264  0.0751 -0.3188
  552MOL0     H72843   5.110  11.057   7.626 -0.5142  0.5482  0.9280
  552MOL0     H72844   5.171  11.042   7.383  1.6068  1.0576  0.0959
  552MOL0     H72845   5.225  10.915   7.495  2.2381 -0.7238 -1.2813
  552MOL0     H72846   4.909  11.521   8.090  0.4652  0.3467  0.2391
  552MOL0     H72847   4.813  11.437   8.320  0.4754  0.1975 -2.3549
  552MOL0     H72848   4.914  11.344   8.872 -0.7707 -0.1492 -0.0606
  552MOL0     H72849   4.756  11.205   8.967  0.2694 -2.6093 -2.3351
  552MOL0     H72850   3.921  10.929  10.007 -0.3016  1.7623  1.0211
  552MOL0     H72851   3.867  11.036  10.232  0.6032 -2.5155 -0.1959
  552MOL0     H72852   3.342  11.222  10.553 -1.1483 -2.5455 -2.4981
  552MOL0     H72853   3.347  11.245  10.808  0.4167  0.3886 -0.0995
  552MOL0     H72854   3.340  11.086  11.013  3.0727 -1.8389  0.4316
  552MOL0     H72855   3.371  11.268  11.025  2.0144  2.0059  1.8739
  552MOL0     H72856   3.480  11.243  11.212  0.7767 -0.7490  1.7793
  552MOL0     H72857   3.345  11.142  11.256  1.9439  0.0622  1.5877
  552MOL0     H72858   3.623  11.049  11.171 -0.7187  1.0673  0.8547
  552MOL0     H72859   3.482  10.940  11.180 -1.6037 -0.0507  0.2777
  552MOL0     H72860   3.633  10.947  11.396 -0.1557  0.6012  0.9108
  552MOL0     H72861   3.579  11.118  11.408 -2.7468  0.8360  2.3807
  552MOL0     H72862   3.258  10.926  11.598  1.1503  0.3014  2.2415
  552MOL0     H72863   3.707  11.022  10.821  1.6365 -0.5519 -0.9261
  552MOL0     H72864   3.703  10.992  10.573  0.3796 -1.9565  2.0815
  553MOL0     O72865   3.193   2.627   7.492 -0.3636 -0.2338 -0.4916
  553MOL0     C72866   3.276   2.583   7.413  0.2287  0.6168 -0.8291
  553MOL0     O72867   3.370   2.659   7.345  0.3600  0.0904 -0.8546
  553MOL0     C72868   3.387   2.800   7.359  0.5015 -0.3301 -0.0848
  553MOL0     C72869   3.402   2.887   7.249  0.1084  1.8306  0.3986
  553MOL0     C72870   3.399   3.027   7.255 -0.0130 -0.9551  0.3193
  553MOL0     C72871   3.401   3.092   7.379  0.3543 -0.9014  0.1107
  553MOL0     O72872   3.390   3.229   7.396 -0.7466  0.9138 -0.4272
  553MOL0     C72873   3.372   3.313   7.283 -0.1502 -1.0299 -0.6645
  553MOL0     C72874   3.435   3.451   7.299 -0.1338  0.9263 -0.0728
  553MOL0     C72875   3.463   3.511   7.440 -0.3326 -0.4660 -0.7365
  553MOL0     C72876   3.518   3.657   7.434 -0.5174 -0.7645 -0.0854
  553MOL0     C72877   3.575   3.705   7.561  0.3604  0.2669 -0.4732
  553MOL0     C72878   3.631   3.851   7.556  0.2621  0.1517 -0.4651
  553MOL0     C72879   3.692   3.895   7.692 -0.6040 -0.3719  0.2129
  553MOL0     C72880   3.807   3.817   7.756  0.2712  1.1809  0.8644
  553MOL0     N72881   3.911   3.779   7.653  0.2597  0.1577 -0.4042
  553MOL0     C72882   3.925   3.659   7.590  0.7112  0.2068  0.3560
  553MOL0     C72883   4.049   3.667   7.530 -0.3312  0.7760 -0.5047
  553MOL0     C72884   4.112   3.563   7.424  0.3584  0.7820 -0.7735
  553MOL0     C72885   4.226   3.488   7.482 -1.1190  0.5649  0.9168
  553MOL0     C72886   4.269   3.372   7.395 -0.4397 -1.4005 -0.0019
  553MOL0     C72887   4.176   3.250   7.378  0.2979  0.0370 -0.8406
  553MOL0     O72888   4.224   3.182   7.248  0.0480  0.0833 -0.2701
  553MOL0     C72889   4.190   3.054   7.213 -0.5749 -0.6207  0.4232
  553MOL0     C72890   4.114   2.973   7.298  0.8825 -1.0990 -0.3078
  553MOL0     C72891   4.107   2.840   7.264 -0.1761  0.0030  0.3410
  553MOL0     C72892   4.176   2.788   7.144 -0.8386 -0.1554  0.6245
  553MOL0     C72893   4.170   2.645   7.111  1.6137  0.9769  0.6247
  553MOL0     O72894   4.238   2.604   6.998 -0.0684 -0.7058 -0.2809
  553MOL0     C72895   4.211   2.491   6.931 -0.4005  0.9444 -0.2049
  553MOL0     C72896   4.087   2.430   6.929  1.5701  0.5215 -0.2894
  553MOL0     C72897   4.072   2.299   6.871 -0.2609 -1.3515 -0.1054
  553MOL0     C72898   4.181   2.244   6.795  0.5565 -0.8507 -0.3902
  553MOL0     O72899   4.175   2.123   6.730 -0.5054  0.4098 -0.1917
  553MOL0     C72900   4.246   2.108   6.612 -0.1712  0.0422 -0.7410
  553MOL0     C72901   4.197   1.973   6.549 -0.2298 -0.0015 -0.6597
  553MOL0     C72902   4.262   1.916   6.415 -0.9355 -0.5060 -0.3810
  553MOL0     C72903   4.224   1.769   6.390 -0.2141 -0.6875 -0.1204
  553MOL0     C72904   4.244   1.714   6.258  0.7764  0.0694  0.1904
  553MOL0     C72905   4.393   1.685   6.237  0.2197  0.7786  0.0877
  553MOL0     C72906   4.410   1.625   6.101 -0.3808 -0.3846  0.2984
  553MOL0     C72907   4.545   1.644   6.031 -0.0771 -0.0213 -0.1235
  553MOL0    Cl72908   4.580   1.512   5.911 -0.4966  0.0869  0.2620
  553MOL0     C72909   4.292   2.313   6.791 -0.5485  0.6883 -0.0540
  553MOL0     C72910   4.308   2.437   6.856 -0.6148 -0.3063 -0.7021
  553MOL0     O72911   4.091   2.573   7.181  0.0999 -0.4646  0.1330
  553MOL0     C72912   4.256   2.878   7.069 -0.5934 -0.8064  0.5024
  553MOL0     C72913   4.255   3.013   7.099  0.9723  0.4187 -0.8604
  553MOL0     N72914   4.097   3.798   7.554  0.2807  0.6771  0.0496
  553MOL0     N72915   4.022   3.858   7.630 -0.2810 -0.4106  0.3286
  553MOL0     C72916   3.394   3.011   7.491  0.0153  1.0977 -0.6154
  553MOL0     C72917   3.394   2.867   7.485 -1.4201  0.4251  0.7521
  553MOL0     C72918   3.250   2.441   7.367  0.9349 -0.2990 -1.3129
  553MOL0     C72919   3.115   2.397   7.362  0.4187  0.4770 -0.8192
  553MOL0     C72920   3.086   2.276   7.309 -0.1529 -0.5338 -0.0993
  553MOL0     C72921   3.185   2.183   7.276  0.5829  0.5881  0.3129
  553MOL0     O72922   3.138   2.057   7.227 -0.1424  0.2614 -0.4634
  553MOL0     C72923   3.207   1.984   7.120 -0.3112  0.4773 -1.2591
  553MOL0     C72924   3.206   2.066   6.994  0.2864  0.3576  0.0227
  553MOL0     C72925   3.061   2.091   6.945  0.9467  0.3368 -0.3671
  553MOL0     C72926   3.026   2.238   6.915 -0.1555 -0.1807 -0.3371
  553MOL0     C72927   3.110   2.295   6.806  0.4931 -0.8408 -0.5859
  553MOL0     C72928   3.192   2.344   6.728  0.0983  0.2015  0.2582
  553MOL0     C72929   3.319   2.224   7.288  0.0772  1.3717  0.4652
  553MOL0     C72930   3.353   2.355   7.330  0.3650 -0.5894  0.3637
  553MOL0     H72931   3.426   2.848   7.151  2.0022 -0.9970  1.8257
  553MOL0     H72932   3.399   3.083   7.162  3.6014  1.0468  1.3076
  553MOL0     H72933   3.267   3.318   7.253  0.5877 -1.6836 -3.7011
  553MOL0     H72934   3.427   3.271   7.199  0.0375 -3.2291  0.4757
  553MOL0     H72935   3.361   3.521   7.259  1.2418  1.8196 -1.1440
  553MOL0     H72936   3.522   3.456   7.233  0.7380  0.6477  1.0306
  553MOL0     H72937   3.541   3.457   7.496 -0.1287 -0.4284 -0.9845
  553MOL0     H72938   3.371   3.510   7.500 -0.4565 -2.8771 -0.8704
  553MOL0     H72939   3.600   3.673   7.362 -1.4098  0.5443 -0.8612
  553MOL0     H72940   3.447   3.726   7.387  1.1689  0.3486 -1.1076
  553MOL0     H72941   3.648   3.635   7.603 -1.8711 -0.4776  2.4763
  553MOL0     H72942   3.497   3.709   7.637  1.8170  3.0819  1.0335
  553MOL0     H72943   3.555   3.926   7.533 -2.5201 -1.9764  1.0988
  553MOL0     H72944   3.708   3.846   7.478  2.7288 -0.1604  1.8319
  553MOL0     H72945   3.722   4.000   7.681 -0.0729 -0.2358  2.3922
  553MOL0     H72946   3.617   3.884   7.771  1.8307 -0.4436  2.6898
  553MOL0     H72947   3.761   3.724   7.790 -1.1392  0.5861 -2.2654
  553MOL0     H72948   3.855   3.864   7.842  0.3849  2.1533  0.2855
  553MOL0     H72949   3.860   3.573   7.578 -2.4982  2.6604 -1.1870
  553MOL0     H72950   4.144   3.615   7.334 -2.2375  1.4977 -1.3591
  553MOL0     H72951   4.028   3.499   7.396  2.7200 -1.8377 -2.3551
  553MOL0     H72952   4.205   3.436   7.576  1.6243 -3.9250 -0.6447
  553MOL0     H72953   4.311   3.556   7.494  1.3959 -1.9740 -1.1890
  553MOL0     H72954   4.290   3.409   7.294  0.3767  0.8956  0.9287
  553MOL0     H72955   4.367   3.344   7.436  0.5077  2.0383  0.4226
  553MOL0     H72956   4.068   3.270   7.378 -0.0263 -1.5670 -0.5397
  553MOL0     H72957   4.192   3.196   7.472 -2.5287 -0.6619 -0.6625
  553MOL0     H72958   4.071   3.009   7.390 -1.0125 -1.0266 -1.1806
  553MOL0     H72959   4.068   2.767   7.335 -0.0247 -2.9533 -2.4134
  553MOL0     H72960   4.005   2.485   6.974  1.4848 -0.3455  0.6579
  553MOL0     H72961   3.974   2.252   6.876 -0.4792 -1.2600 -2.4009
  553MOL0     H72962   4.353   2.105   6.632  0.3020  0.3016 -2.9651
  553MOL0     H72963   4.215   2.190   6.547  0.7983  3.6786  3.0003
  553MOL0     H72964   4.089   1.986   6.533 -0.7259  1.3869  2.8535
  553MOL0     H72965   4.216   1.896   6.624 -2.6638  0.2255  0.2983
  553MOL0     H72966   4.371   1.917   6.409 -0.9778  1.4494 -1.6247
  553MOL0     H72967   4.253   1.984   6.330  4.1430  1.7166  0.5184
  553MOL0     H72968   4.275   1.704   6.462  2.3887  0.5324 -0.7397
  553MOL0     H72969   4.117   1.760   6.412 -0.1050  2.2417  2.1967
  553MOL0     H72970   4.209   1.791   6.188  2.2548  5.6857  4.8039
  553MOL0     H72971   4.182   1.624   6.253  1.4098 -0.3628  0.1221
  553MOL0     H72972   4.426   1.604   6.303  2.5483  1.1551 -0.5094
  553MOL0     H72973   4.463   1.766   6.260 -0.3456  0.9129  1.4315
  553MOL0     H72974   4.394   1.517   6.112 -0.1107 -0.4377  0.1574
  553MOL0     H72975   4.330   1.661   6.036  2.1597  0.0001 -2.8402
  553MOL0     H72976   4.619   1.629   6.111  1.6225 -0.6382 -1.7255
  553MOL0     H72977   4.561   1.745   5.992  2.2707  0.7660  2.5094
  553MOL0     H72978   4.385   2.272   6.753 -0.7506  0.0496  0.1420
  553MOL0     H72979   4.395   2.500   6.862 -3.6765  4.4759 -1.0872
  553MOL0     H72980   4.313   2.848   6.981  0.3256  2.9059 -0.3426
  553MOL0     H72981   4.318   3.081   7.043  1.7446 -1.4142 -2.3105
  553MOL0     H72982   3.385   3.065   7.585  3.7616 -0.2289  0.6670
  553MOL0     H72983   3.379   2.800   7.570  0.6730 -0.4326  0.5105
  553MOL0     H72984   3.041   2.465   7.403  0.0839  0.5819 -1.5888
  553MOL0     H72985   2.989   2.232   7.292 -1.2529  1.5960  0.4038
  553MOL0     H72986   3.165   1.884   7.101 -2.0850  0.8638  0.3744
  553MOL0     H72987   3.310   1.969   7.152  0.2710  3.0911 -1.7027
  553MOL0     H72988   3.247   2.167   7.004 -0.9383  1.4414 -4.0466
  553MOL0     H72989   3.260   2.021   6.910 -2.2946 -1.5972 -0.7200
  553MOL0     H72990   2.996   2.063   7.029  3.5997  1.6355  2.3149
  553MOL0     H72991   3.039   2.024   6.861  1.0480 -0.3497  0.1425
  553MOL0     H72992   2.924   2.234   6.878  0.1084 -0.9125 -1.0187
  553MOL0     H72993   3.036   2.294   7.009  3.0112 -2.6626  0.9867
  553MOL0     H72994   3.260   2.396   6.664 -0.7398  2.8616  1.3828
  553MOL0     H72995   3.390   2.151   7.250 -1.6023  0.1230 -0.4200
  553MOL0     H72996   3.455   2.391   7.322 -1.0863  3.7106 -1.5752
  554MOL0     O72997   1.672  10.580  10.425 -0.1566  0.0728  0.1899
  554MOL0     C72998   1.762  10.647  10.481  0.7086  0.0376 -0.0437
  554MOL0     O72999   1.852  10.592  10.565 -0.4764  0.9969 -0.6368
  554MOL0     C73000   1.925  10.477  10.536 -0.6638  0.9556  0.5548
  554MOL0     C73001   2.025  10.426  10.624  0.0698  0.8190  0.1860
  554MOL0     C73002   2.102  10.306  10.590  0.4997 -0.3315 -0.7446
  554MOL0     C73003   2.063  10.225  10.484 -0.1684  0.8391  0.3351
  554MOL0     O73004   2.096  10.089  10.462  0.5880 -0.0675 -0.7327
  554MOL0     C73005   2.134  10.002  10.574  0.4310 -0.4051 -0.2046
  554MOL0     C73006   2.032   9.895  10.608 -0.1901 -0.9243 -0.6789
  554MOL0     C73007   1.891   9.941  10.661  0.4500  0.1555 -0.3353
  554MOL0     C73008   1.887  10.020  10.792 -0.1279  0.3904  0.1180
  554MOL0     C73009   1.740  10.033  10.818  0.4039  1.0244 -0.0237
  554MOL0     C73010   1.671   9.901  10.873 -0.3521 -0.6359  0.0657
  554MOL0     C73011   1.519   9.914  10.859 -0.9319  0.3737 -0.7309
  554MOL0     C73012   1.459   9.994  10.969 -0.4801  0.2228  0.4574
  554MOL0     N73013   1.311   9.979  10.968 -0.5662  0.6708 -0.2582
  554MOL0     C73014   1.231   9.915  11.057 -0.1580  0.1635 -0.7390
  554MOL0     C73015   1.103   9.928  11.007  0.1509 -0.4118 -0.3494
  554MOL0     C73016   0.976   9.873  11.068  0.4715  1.0025 -0.3434
  554MOL0     C73017   0.937   9.750  10.997  0.4489  0.0901 -0.0240
  554MOL0     C73018   1.035   9.630  11.026 -0.5919 -0.1336 -0.2576
  554MOL0     C73019   1.004   9.494  10.966 -0.0288 -0.1918  0.2915
  554MOL0     O73020   0.899   9.507  10.859 -0.2952 -1.2214 -0.4860
  554MOL0     C73021   0.946   9.529  10.729 -0.3317 -0.2702 -0.1581
  554MOL0     C73022   0.850   9.546  10.633  0.9729  0.4829  0.8839
  554MOL0     C73023   0.874   9.557  10.493 -0.1436 -0.5597  0.3825
  554MOL0     C73024   1.005   9.535  10.451 -0.5464  0.3002  0.0755
  554MOL0     C73025   1.055   9.530  10.314  0.3233 -0.1198  0.4322
  554MOL0     O73026   1.190   9.563  10.285  0.0568  0.2099  0.7785
  554MOL0     C73027   1.225   9.552  10.157  0.6716  0.3114  0.4211
  554MOL0     C73028   1.211   9.664  10.074 -0.1200  0.2039 -0.4165
  554MOL0     C73029   1.253   9.661   9.942 -0.0193 -0.3745  0.4108
  554MOL0     C73030   1.316   9.543   9.899  0.5872 -0.1173 -0.3396
  554MOL0     O73031   1.368   9.528   9.773  0.1661 -0.2124  0.4507
  554MOL0     C73032   1.296   9.589   9.656 -0.6241 -0.0205 -0.5735
  554MOL0     C73033   1.308   9.489   9.533  1.0923  0.0875 -0.0410
  554MOL0     C73034   1.444   9.422   9.516  0.1581 -0.4954 -0.2437
  554MOL0     C73035   1.547   9.504   9.431  1.3151  0.2317 -0.9393
  554MOL0     C73036   1.670   9.426   9.389 -0.3975  0.9646  0.3819
  554MOL0     C73037   1.768   9.508   9.307  0.6029 -0.2553 -1.4404
  554MOL0     C73038   1.884   9.427   9.256 -0.1030  0.1645  1.1132
  554MOL0     C73039   1.999   9.405   9.352  0.1321  0.0198 -0.9708
  554MOL0    Cl73040   2.094   9.256   9.301  0.1136  0.0891 -0.1742
  554MOL0     C73041   1.320   9.428   9.981  0.3959 -0.0103 -0.3128
  554MOL0     C73042   1.277   9.431  10.110 -0.4473  0.2596  0.9502
  554MOL0     O73043   0.973   9.486  10.231 -0.1083  0.2331 -0.3468
  554MOL0     C73044   1.103   9.517  10.554 -1.3601 -0.2557 -0.1832
  554MOL0     C73045   1.080   9.512  10.692  0.6770 -0.8752  0.3965
  554MOL0     N73046   1.124   9.977  10.873  0.9186 -0.3227 -0.1288
  554MOL0     N73047   1.240  10.022  10.866  0.1767 -0.1251  0.3207
  554MOL0     C73048   1.961  10.276  10.404 -0.5896  0.8184 -0.9642
  554MOL0     C73049   1.897  10.396  10.423  0.5087  0.0466  0.2614
  554MOL0     C73050   1.766  10.795  10.451 -1.2397 -0.2643 -0.0340
  554MOL0     C73051   1.691  10.856  10.353  1.0850 -0.3556 -0.9842
  554MOL0     C73052   1.686  10.993  10.347 -0.3386  0.1615  0.2413
  554MOL0     C73053   1.757  11.067  10.444  0.3942 -1.2654  0.6281
  554MOL0     O73054   1.747  11.204  10.448 -0.6729  0.4328  0.6413
  554MOL0     C73055   1.858  11.271  10.413  0.2431 -0.8260 -0.9746
  554MOL0     C73056   1.841  11.414  10.427 -0.8617 -0.0472 -0.4073
  554MOL0     C73057   1.823  11.450  10.577 -0.4919  0.6012  0.1827
  554MOL0     C73058   1.744  11.578  10.605  0.5042  0.3467  0.4432
  554MOL0     C73059   1.783  11.686  10.513  0.0298  0.3246  0.1264
  554MOL0     C73060   1.821  11.766  10.429 -1.0334 -0.0497 -0.8710
  554MOL0     C73061   1.828  11.009  10.547 -0.2598 -0.2128 -1.4593
  554MOL0     C73062   1.843  10.872  10.546  0.1179 -0.0324 -0.2968
  554MOL0     H73063   2.037  10.477  10.719 -1.5866 -0.1972  0.9780
  554MOL0     H73064   2.177  10.279  10.664 -0.6290 -2.7895 -0.3963
  554MOL0     H73065   2.163  10.071  10.654 -0.0532  1.5482 -1.6330
  554MOL0     H73066   2.221   9.946  10.538 -1.2246 -2.8302 -0.6905
  554MOL0     H73067   2.066   9.835  10.694 -0.6015  1.3235  1.1525
  554MOL0     H73068   2.005   9.841  10.517  0.2758  1.4703 -2.3134
  554MOL0     H73069   1.822   9.856  10.661 -1.3966  1.5823  1.3427
  554MOL0     H73070   1.845  10.009  10.588 -1.7819 -3.5319 -2.6941
  554MOL0     H73071   1.935   9.961  10.871 -0.3796  2.3835  1.8265
  554MOL0     H73072   1.946  10.112  10.783  0.8550 -0.1443  0.8383
  554MOL0     H73073   1.692  10.061  10.723 -1.4140 -0.3309  0.4257
  554MOL0     H73074   1.713  10.108  10.892 -2.8877 -0.7071  0.7406
  554MOL0     H73075   1.695   9.883  10.978  1.4928 -0.0154 -0.2159
  554MOL0     H73076   1.707   9.813  10.819  0.1927  0.2907 -1.1538
  554MOL0     H73077   1.500   9.978  10.772  3.8606  1.0236 -1.5863
  554MOL0     H73078   1.480   9.813  10.847  0.5410 -0.1621 -1.3088
  554MOL0     H73079   1.460  10.102  10.951 -1.6317 -0.0039 -1.2092
  554MOL0     H73080   1.495   9.967  11.068 -5.6510  1.3157  2.9405
  554MOL0     H73081   1.273   9.884  11.152  4.3371  2.5232 -1.6701
  554MOL0     H73082   0.895   9.944  11.050 -0.2276  0.4091  0.3659
  554MOL0     H73083   0.980   9.846  11.174  0.4109  0.6424 -0.4304
  554MOL0     H73084   0.931   9.776  10.891 -1.6365  1.6399  0.4061
  554MOL0     H73085   0.834   9.734  11.030  0.1157  1.4136 -0.3821
  554MOL0     H73086   1.138   9.663  11.010 -0.1053 -1.2292  0.5475
  554MOL0     H73087   1.031   9.619  11.134  4.6742 -0.4481  0.1767
  554MOL0     H73088   0.975   9.436  11.053  2.2339  2.1941  2.8543
  554MOL0     H73089   1.097   9.444  10.937  1.4159  0.6744  3.0837
  554MOL0     H73090   0.750   9.575  10.666  0.7271  1.9012 -0.9844
  554MOL0     H73091   0.788   9.571  10.428 -1.7604 -0.5476  2.4139
  554MOL0     H73092   1.182   9.758  10.120 -0.6953 -1.3749  2.7010
  554MOL0     H73093   1.250   9.754   9.887  2.0293  0.9515  2.3579
  554MOL0     H73094   1.355   9.676   9.626  2.9442 -1.6327  1.1367
  554MOL0     H73095   1.190   9.603   9.680 -0.9247 -1.4325 -1.0211
  554MOL0     H73096   1.273   9.546   9.447  0.8960 -0.9744 -0.6747
  554MOL0     H73097   1.234   9.414   9.562 -1.3551  2.1703 -0.5457
  554MOL0     H73098   1.423   9.331   9.460 -1.7654  0.9762 -2.1088
  554MOL0     H73099   1.488   9.387   9.610 -0.6240 -1.2722 -0.1602
  554MOL0     H73100   1.508   9.539   9.335  0.4422 -2.0011 -1.4722
  554MOL0     H73101   1.569   9.595   9.487 -0.1733  0.6912 -1.0603
  554MOL0     H73102   1.647   9.328   9.345 -1.9773  0.5522  1.9998
  554MOL0     H73103   1.721   9.415   9.485  2.9122  2.0220 -1.1022
  554MOL0     H73104   1.805   9.596   9.360  0.8918  0.1219 -2.2555
  554MOL0     H73105   1.713   9.537   9.217  0.5623 -2.6880 -2.2761
  554MOL0     H73106   1.850   9.333   9.211  1.0701 -0.1209  0.7916
  554MOL0     H73107   1.939   9.488   9.183  1.5945 -1.3507  1.0378
  554MOL0     H73108   1.960   9.381   9.451 -3.7358  0.8413 -2.1181
  554MOL0     H73109   2.067   9.491   9.360  0.3055 -0.2923  2.3138
  554MOL0     H73110   1.363   9.333   9.949 -2.3622 -1.4743  0.0022
  554MOL0     H73111   1.276   9.353  10.187 -1.7350  0.7530  1.4570
  554MOL0     H73112   1.204   9.505  10.517 -1.0832 -4.4165  1.4039
  554MOL0     H73113   1.163   9.503  10.762  1.4119 -2.5712 -0.6287
  554MOL0     H73114   1.935  10.211  10.321 -1.8899 -1.0319  0.7821
  554MOL0     H73115   1.810  10.413  10.361  1.1666 -0.0337 -0.7015
  554MOL0     H73116   1.627  10.800  10.287 -0.4936  1.1339 -0.7667
  554MOL0     H73117   1.623  11.047  10.277 -0.8270 -0.6968  0.0087
  554MOL0     H73118   1.872  11.252  10.306  2.9280 -1.3728 -0.5937
  554MOL0     H73119   1.947  11.235  10.466  1.3163  2.3593 -0.3898
  554MOL0     H73120   1.920  11.476  10.384 -0.4096  0.6238  1.2973
  554MOL0     H73121   1.754  11.443  10.366 -1.4580 -0.7057  0.1164
  554MOL0     H73122   1.918  11.465  10.628  0.6012 -1.9892 -0.9263
  554MOL0     H73123   1.773  11.370  10.632  1.0618 -0.0900  0.6341
  554MOL0     H73124   1.638  11.555  10.594  0.3800 -0.2768  2.4299
  554MOL0     H73125   1.757  11.617  10.707  4.2937  1.9829 -0.4882
  554MOL0     H73126   1.855  11.844  10.363 -2.1639  0.2516 -1.1243
  554MOL0     H73127   1.863  11.064  10.635 -0.9250 -3.1454  0.7846
  554MOL0     H73128   1.891  10.825  10.631 -2.7907  1.6741  2.5099
  555MOL0     O73129  10.796   7.532   0.104  1.1262  0.1280  0.7903
  555MOL0     C73130  10.745   7.465   0.010  0.1208 -0.1130 -0.2967
  555MOL0     O73131  10.815   7.371  -0.055 -0.6896 -0.6562 -0.0269
  555MOL0     C73132  10.926   7.319   0.022  1.3493 -0.4869  0.3665
  555MOL0     C73133  11.042   7.305  -0.054 -0.2311 -0.4834 -1.1044
  555MOL0     C73134  11.160   7.256  -0.003  0.1534 -0.1370 -0.8168
  555MOL0     C73135  11.155   7.204   0.120  0.8323  0.2466  0.7729
  555MOL0     O73136  11.255   7.132   0.164 -0.2529 -0.6708  0.2978
  555MOL0     C73137  11.248   7.024   0.260 -0.6125  0.3924  0.2917
  555MOL0     C73138  11.358   6.912   0.250  0.3184 -0.3209  0.7756
  555MOL0     C73139  11.491   6.964   0.295 -0.2573 -0.0249  0.8590
  555MOL0     C73140  11.584   6.840   0.285  0.1266 -0.1828 -1.0355
  555MOL0     C73141  11.728   6.873   0.260 -0.6606 -0.4218 -0.4572
  555MOL0     C73142  11.775   6.916   0.122  0.5362 -0.2804  0.1026
  555MOL0     C73143  11.923   6.912   0.115 -0.2897 -0.2269  0.3468
  555MOL0     C73144  11.980   6.968  -0.016 -1.6360 -0.4170  0.3011
  555MOL0     N73145  12.130   6.948  -0.033  0.2796 -0.2044 -0.3889
  555MOL0     C73146  12.229   7.048  -0.035  0.0482  0.6763  0.1896
  555MOL0     C73147  12.341   6.982  -0.080 -0.3290  0.5583  0.4824
  555MOL0     C73148  12.477   7.028  -0.127  0.1162 -0.2321  0.0030
  555MOL0     C73149  12.482   7.083  -0.269  0.2524  0.7854 -0.8572
  555MOL0     C73150  12.430   7.003  -0.397  0.5589 -0.8956 -0.1500
  555MOL0     C73151  12.512   6.879  -0.416  0.1341  0.4386  0.1795
  555MOL0     O73152  12.484   6.819  -0.544  0.2595 -0.8031 -0.3883
  555MOL0     C73153  12.574   6.816  -0.651 -0.9178  0.7332  0.0365
  555MOL0     C73154  12.559   6.724  -0.751 -0.7220 -0.1447  0.0678
  555MOL0     C73155  12.650   6.718  -0.856 -0.7645  0.0577  0.5720
  555MOL0     C73156  12.754   6.809  -0.874  0.2224 -0.1461 -0.3171
  555MOL0     C73157  12.855   6.799  -0.988 -0.3104 -0.2444 -0.2744
  555MOL0     O73158  12.860   6.696  -1.071 -0.2115  0.1128  0.5602
  555MOL0     C73159  12.889   6.708  -1.210  0.5123  0.9631  0.1838
  555MOL0     C73160  12.872   6.829  -1.285  0.2106  0.2136 -1.0581
  555MOL0     C73161  12.886   6.823  -1.422  0.0635 -0.5358  1.3706
  555MOL0     C73162  12.894   6.701  -1.484  0.6648 -0.2092 -0.0840
  555MOL0     O73163  12.880   6.700  -1.623  0.1637 -0.2204 -0.6936
  555MOL0     C73164  12.889   6.589  -1.708 -0.5782  0.8954 -1.3820
  555MOL0     C73165  12.856   6.622  -1.854  0.1714  0.1528 -0.6809
  555MOL0     C73166  12.848   6.511  -1.962  0.3301  0.0811  0.5040
  555MOL0     C73167  12.827   6.561  -2.116  1.2388  0.6487 -0.8525
  555MOL0     C73168  12.789   6.438  -2.199  0.8847 -0.3053  0.2203
  555MOL0     C73169  12.741   6.474  -2.345 -0.5862 -0.0821 -0.1750
  555MOL0     C73170  12.755   6.361  -2.445 -0.7433  0.8681 -0.6054
  555MOL0     C73171  12.773   6.409  -2.587  0.2378  0.1022 -0.1774
  555MOL0    Cl73172  12.614   6.481  -2.664 -0.4056 -0.1744  0.1244
  555MOL0     C73173  12.918   6.582  -1.412  0.2195 -0.5293  0.3898
  555MOL0     C73174  12.915   6.586  -1.275 -0.7893 -0.9164 -0.6740
  555MOL0     O73175  12.907   6.908  -1.014 -0.8541  0.7207  0.0188
  555MOL0     C73176  12.770   6.915  -0.771  0.1862 -0.3807  0.8060
  555MOL0     C73177  12.674   6.914  -0.672 -0.0908 -0.6803  0.3991
  555MOL0     N73178  12.311   6.844  -0.087 -0.4769 -0.1391  0.2256
  555MOL0     N73179  12.187   6.825  -0.060  0.3492  0.6129 -0.6478
  555MOL0     C73180  11.043   7.226   0.199  0.0272  0.5916 -0.0026
  555MOL0     C73181  10.927   7.296   0.158  0.3795 -0.1725  0.1094
  555MOL0     C73182  10.607   7.464  -0.013  0.6810  0.3404 -0.9810
  555MOL0     C73183  10.549   7.387  -0.117 -0.8069 -0.2680  0.3372
  555MOL0     C73184  10.415   7.393  -0.149  0.2124 -0.4220 -0.6771
  555MOL0     C73185  10.327   7.479  -0.082  0.9405 -0.0964  0.9806
  555MOL0     O73186  10.201   7.507  -0.120 -0.5030  0.4054  0.0843
  555MOL0     C73187  10.121   7.395  -0.173  0.5479  0.7448 -0.2377
  555MOL0     C73188   9.980   7.437  -0.204 -0.9002  0.7224 -0.0910
  555MOL0     C73189   9.906   7.500  -0.085  0.3566  0.7689 -0.3911
  555MOL0     C73190   9.755   7.547  -0.126 -0.1984 -0.2737  0.0427
  555MOL0     C73191   9.651   7.533  -0.019 -0.6784  0.1059 -0.1544
  555MOL0     C73192   9.569   7.514   0.064 -0.8072 -0.5864 -0.1654
  555MOL0     C73193  10.383   7.547   0.025 -0.0335 -0.1875  0.4560
  555MOL0     C73194  10.522   7.546   0.058  0.0415  0.8281  0.1962
  555MOL0     H73195  11.024   7.351  -0.151 -6.2302  2.3739  0.8865
  555MOL0     H73196  11.258   7.239  -0.047  1.5899 -0.3536  2.1707
  555MOL0     H73197  11.156   6.966   0.246  0.2396 -0.3705 -3.0273
  555MOL0     H73198  11.252   7.065   0.362  1.3568 -1.4948  1.0376
  555MOL0     H73199  11.362   6.890   0.142  0.0367 -2.1543  1.1069
  555MOL0     H73200  11.324   6.818   0.293  1.2265 -0.2620  1.6497
  555MOL0     H73201  11.497   7.003   0.397 -0.3439  1.6166  0.2537
  555MOL0     H73202  11.521   7.048   0.232 -1.1884 -2.0691 -2.5910
  555MOL0     H73203  11.571   6.778   0.374 -1.4404 -0.8146 -1.6727
  555MOL0     H73204  11.556   6.781   0.197  0.8613  1.9471 -2.8099
  555MOL0     H73205  11.773   6.783   0.303 -1.3342 -0.6105 -0.1429
  555MOL0     H73206  11.748   6.963   0.321  0.1400  0.2752 -1.7069
  555MOL0     H73207  11.741   7.020   0.111 -2.2361 -0.7394  2.8966
  555MOL0     H73208  11.724   6.860   0.044 -0.8153  2.4573 -1.1066
  555MOL0     H73209  11.955   6.967   0.204 -0.2453 -0.3514  0.4066
  555MOL0     H73210  11.949   6.806   0.118 -2.3657 -0.7914  0.0091
  555MOL0     H73211  11.955   7.073  -0.031 -2.5535 -0.7781 -0.8896
  555MOL0     H73212  11.931   6.917  -0.100 -2.6346 -1.4012  1.4324
  555MOL0     H73213  12.207   7.154  -0.033  0.3888  0.7739 -0.7275
  555MOL0     H73214  12.541   6.939  -0.119 -1.0964 -1.0418  1.0805
  555MOL0     H73215  12.501   7.098  -0.047 -0.2809 -0.1877  0.0881
  555MOL0     H73216  12.585   7.117  -0.280 -0.4467  2.7559 -1.9943
  555MOL0     H73217  12.422   7.173  -0.248  0.1121  0.5439 -0.2141
  555MOL0     H73218  12.321   6.999  -0.407 -0.0357  3.7327  2.0433
  555MOL0     H73219  12.455   7.077  -0.474 -3.8162 -0.2935 -1.2764
  555MOL0     H73220  12.492   6.804  -0.340  1.6940 -0.6290 -0.4194
  555MOL0     H73221  12.619   6.902  -0.410  0.0365  0.5910  1.7915
  555MOL0     H73222  12.480   6.650  -0.746 -0.1471 -0.8477 -1.0363
  555MOL0     H73223  12.633   6.637  -0.927  3.3111  0.5973 -1.2923
  555MOL0     H73224  12.888   6.929  -1.246  1.0863  1.5390 -4.4264
  555MOL0     H73225  12.892   6.913  -1.483  1.5585 -1.9130 -0.6232
  555MOL0     H73226  12.824   6.513  -1.665  1.7304  0.9423  2.6390
  555MOL0     H73227  12.989   6.543  -1.704 -1.3804 -0.8367  1.3421
  555MOL0     H73228  12.930   6.692  -1.893  2.1457 -1.8438 -0.6899
  555MOL0     H73229  12.758   6.671  -1.847  0.7343  1.1717  0.2307
  555MOL0     H73230  12.755   6.459  -1.936 -1.8891  0.9162 -4.6509
  555MOL0     H73231  12.932   6.442  -1.953 -1.5346 -2.0628  5.5366
  555MOL0     H73232  12.750   6.638  -2.123  1.3815  0.7835 -0.9387
  555MOL0     H73233  12.920   6.609  -2.148  1.2800  2.1576  1.2867
  555MOL0     H73234  12.718   6.381  -2.139 -2.3253  1.5983 -1.4825
  555MOL0     H73235  12.884   6.383  -2.199  0.7260 -0.7492 -2.8768
  555MOL0     H73236  12.804   6.554  -2.387 -1.7686  1.0669  0.1561
  555MOL0     H73237  12.642   6.520  -2.353 -0.9276 -1.1409 -4.7003
  555MOL0     H73238  12.833   6.294  -2.410 -2.3191 -1.1840 -0.8110
  555MOL0     H73239  12.655   6.316  -2.441 -0.9230  1.3230  2.2024
  555MOL0     H73240  12.800   6.322  -2.648  0.8714 -0.5226  0.9568
  555MOL0     H73241  12.858   6.478  -2.594  0.4309 -0.0492  0.5495
  555MOL0     H73242  12.908   6.488  -1.465  1.3032  0.0790 -0.9541
  555MOL0     H73243  12.896   6.503  -1.208 -0.7439 -1.6817 -1.5905
  555MOL0     H73244  12.844   6.993  -0.781 -2.7687  2.5966  0.6225
  555MOL0     H73245  12.685   6.993  -0.598  1.6209 -1.4113  0.9858
  555MOL0     H73246  11.027   7.181   0.297  0.5387 -1.1754 -0.6806
  555MOL0     H73247  10.839   7.313   0.219  1.1161  5.1584  0.1507
  555MOL0     H73248  10.616   7.330  -0.181 -1.5777 -1.5011  0.6004
  555MOL0     H73249  10.385   7.338  -0.238 -0.2995 -0.4755 -0.4757
  555MOL0     H73250  10.129   7.309  -0.106  0.3588  0.1458 -0.9747
  555MOL0     H73251  10.163   7.374  -0.272 -2.3122  4.5518 -2.5149
  555MOL0     H73252   9.988   7.509  -0.286  1.6089 -1.4941 -1.9760
  555MOL0     H73253   9.920   7.360  -0.254 -2.7366  1.4408  0.8812
  555MOL0     H73254   9.961   7.586  -0.046  3.0295 -0.8431 -0.3134
  555MOL0     H73255   9.902   7.431  -0.001  1.3290  0.9284 -0.2019
  555MOL0     H73256   9.746   7.652  -0.153 -0.8969 -0.3954 -0.2039
  555MOL0     H73257   9.722   7.483  -0.208  4.0554  1.7093 -3.6657
  555MOL0     H73258   9.508   7.493   0.149 -2.0466  0.9895 -0.6178
  555MOL0     H73259  10.323   7.616   0.084  1.2632 -0.2169  1.8602
  555MOL0     H73260  10.553   7.609   0.142  3.9224  0.2608 -0.6667
  556MOL0     O73261   3.490  10.716   7.137 -0.2021 -0.4928  0.5015
  556MOL0     C73262   3.453  10.800   7.220  0.0127  0.4162  0.7599
  556MOL0     O73263   3.341  10.798   7.282  0.7096 -0.3443  0.0535
  556MOL0     C73264   3.253  10.688   7.256  0.0287  0.1419  0.0897
  556MOL0     C73265   3.222  10.602   7.365 -0.1937  0.2385  1.0030
  556MOL0     C73266   3.137  10.493   7.341  0.2711 -1.0023 -0.6791
  556MOL0     C73267   3.078  10.461   7.220  0.1806  0.3314  0.4781
  556MOL0     O73268   3.003  10.351   7.213  0.3661  0.3684  0.3769
  556MOL0     C73269   2.950  10.308   7.085  1.0639  1.1730  0.1698
  556MOL0     C73270   2.836  10.203   7.102 -0.4472 -0.2288 -0.4032
  556MOL0     C73271   2.788  10.135   6.972  1.3635 -0.0066 -0.2917
  556MOL0     C73272   2.673  10.033   7.008 -0.8087 -0.4001 -0.2021
  556MOL0     C73273   2.608   9.983   6.885 -0.3331 -0.2975  0.9049
  556MOL0     C73274   2.493   9.888   6.924 -0.3284  0.0824 -0.6644
  556MOL0     C73275   2.410   9.833   6.810  0.6628 -0.4977  0.2567
  556MOL0     C73276   2.458   9.701   6.756  0.2379  1.2065  1.4026
  556MOL0     N73277   2.439   9.585   6.851 -0.0843 -0.1039 -0.5104
  556MOL0     C73278   2.472   9.451   6.826  0.8530 -0.6072  0.2965
  556MOL0     C73279   2.433   9.384   6.938  0.0256 -0.7186  0.4680
  556MOL0     C73280   2.460   9.236   6.960 -0.3809 -0.3857  0.2390
  556MOL0     C73281   2.388   9.134   6.875 -0.1073 -0.2943 -0.9459
  556MOL0     C73282   2.247   9.145   6.918 -0.0382 -0.0325  0.8069
  556MOL0     C73283   2.172   9.020   6.866 -0.1084 -1.0491 -0.6515
  556MOL0     O73284   2.039   9.036   6.918  0.6861  0.1396 -1.2457
  556MOL0     C73285   1.950   8.930   6.904  0.6755 -0.0149  0.5995
  556MOL0     C73286   1.819   8.961   6.941  0.0570 -1.1789 -0.7678
  556MOL0     C73287   1.715   8.877   6.916  1.2218  0.1214 -0.1612
  556MOL0     C73288   1.737   8.756   6.847  0.1115  0.1437  0.8800
  556MOL0     C73289   1.614   8.686   6.797  0.2183 -0.7121  0.2429
  556MOL0     O73290   1.497   8.746   6.837 -0.0800 -0.7127 -0.1915
  556MOL0     C73291   1.392   8.677   6.803 -0.2283 -0.1945 -0.7953
  556MOL0     C73292   1.360   8.650   6.666  0.7358  0.2707 -0.7575
  556MOL0     C73293   1.238   8.586   6.638 -0.7354 -0.7002 -0.9871
  556MOL0     C73294   1.154   8.552   6.739 -0.0447 -0.4880  0.6604
  556MOL0     O73295   1.057   8.459   6.723  0.4801  0.6207  0.0293
  556MOL0     C73296   0.999   8.456   6.589  0.1311 -0.1494  0.1275
  556MOL0     C73297   0.889   8.351   6.591  0.7695 -0.7398 -0.3309
  556MOL0     C73298   0.817   8.320   6.464 -0.3265 -0.5999 -0.4889
  556MOL0     C73299   0.705   8.425   6.444  0.0957 -0.3900  0.1872
  556MOL0     C73300   0.559   8.374   6.471  0.7035 -0.0988  0.1013
  556MOL0     C73301   0.459   8.494   6.492 -0.2713 -0.8085  0.6910
  556MOL0     C73302   0.315   8.461   6.528 -0.6328 -0.4521  0.6280
  556MOL0     C73303   0.244   8.577   6.596  0.5475  0.7758  0.4365
  556MOL0    Cl73304   0.085   8.520   6.651  0.1925 -0.2373  0.3787
  556MOL0     C73305   1.185   8.580   6.868  0.3654 -0.7989  0.0150
  556MOL0     C73306   1.297   8.642   6.895  0.0299  0.9054 -0.5624
  556MOL0     O73307   1.622   8.584   6.730 -0.6861 -0.3641 -0.3961
  556MOL0     C73308   1.865   8.719   6.805 -0.2549  0.2988 -0.3184
  556MOL0     C73309   1.975   8.804   6.834  0.5506 -0.8425  0.1594
  556MOL0     N73310   2.386   9.467   7.035 -0.1091  0.5659  0.4942
  556MOL0     N73311   2.392   9.587   6.986  0.9304 -0.0735 -0.4767
  556MOL0     C73312   3.117  10.543   7.109  0.5763 -0.2604  0.4476
  556MOL0     C73313   3.198  10.658   7.127 -0.0751  1.1764  0.2448
  556MOL0     C73314   3.553  10.893   7.255 -0.1918  0.3005 -0.7840
  556MOL0     C73315   3.681  10.905   7.194  0.3023  0.4374  0.5925
  556MOL0     C73316   3.785  10.992   7.243 -0.6241  1.0490  0.4188
  556MOL0     C73317   3.770  11.070   7.353 -1.1806  0.5542 -0.6027
  556MOL0     O73318   3.883  11.130   7.415 -0.3374  0.6241  0.4216
  556MOL0     C73319   3.871  11.198   7.539  0.3693  0.3059  0.0286
  556MOL0     C73320   3.994  11.278   7.571 -0.0713 -0.4620  0.0511
  556MOL0     C73321   4.040  11.384   7.476  0.0539 -0.2472 -0.6591
  556MOL0     C73322   4.170  11.458   7.495 -1.1769  0.6417 -0.3611
  556MOL0     C73323   4.188  11.525   7.623  0.2916 -0.2869  1.1541
  556MOL0     C73324   4.176  11.575   7.729 -0.6363 -0.6660  0.0882
  556MOL0     C73325   3.639  11.076   7.403  0.1946 -0.8406  0.1976
  556MOL0     C73326   3.537  10.982   7.368 -0.9450  0.0565  0.1546
  556MOL0     H73327   3.249  10.626   7.467  1.6153  0.2715  0.5434
  556MOL0     H73328   3.110  10.443   7.433 -2.3542  1.0222 -0.2298
  556MOL0     H73329   3.030  10.252   7.036 -1.1084 -0.5360 -1.6307
  556MOL0     H73330   2.925  10.393   7.022  0.6732  1.0989  0.2242
  556MOL0     H73331   2.761  10.272   7.141  0.0911 -0.5081  1.2092
  556MOL0     H73332   2.873  10.131   7.175  2.4365  0.0454 -1.4603
  556MOL0     H73333   2.861  10.072   6.919  0.1825 -0.2331 -1.7393
  556MOL0     H73334   2.739  10.197   6.897  1.8162 -1.4182 -1.8302
  556MOL0     H73335   2.731   9.959   7.065  0.0837  1.6951  1.8083
  556MOL0     H73336   2.595  10.064   7.078 -0.6664 -1.5527  0.5088
  556MOL0     H73337   2.669   9.926   6.814 -3.0650  1.0677 -2.9297
  556MOL0     H73338   2.566  10.061   6.820 -0.9341 -0.0349  1.6016
  556MOL0     H73339   2.430   9.944   6.993 -0.7938  0.2889 -1.2530
  556MOL0     H73340   2.535   9.801   6.975  2.4016  1.0062 -1.1815
  556MOL0     H73341   2.308   9.826   6.849  0.9419 -0.3391  1.0277
  556MOL0     H73342   2.405   9.910   6.732  2.5115 -1.1132 -0.5271
  556MOL0     H73343   2.564   9.705   6.727  0.4260  1.7591  2.1423
  556MOL0     H73344   2.404   9.683   6.663 -0.0296  1.1432  1.5709
  556MOL0     H73345   2.507   9.401   6.736  1.4726  0.4986 -0.0864
  556MOL0     H73346   2.451   9.223   7.068  1.2373 -1.5071  0.2785
  556MOL0     H73347   2.568   9.224   6.951 -0.2167  1.9546 -1.9005
  556MOL0     H73348   2.436   9.040   6.904 -0.5741  0.1930  1.6988
  556MOL0     H73349   2.402   9.155   6.769  0.3880 -1.6663 -1.1708
  556MOL0     H73350   2.225   9.173   7.021 -0.9397  2.1387  0.0780
  556MOL0     H73351   2.209   9.231   6.862  1.1687 -1.1285 -1.8667
  556MOL0     H73352   2.227   8.932   6.901  0.8831 -0.3875 -0.5032
  556MOL0     H73353   2.178   9.017   6.757  1.9522 -1.8318 -0.5707
  556MOL0     H73354   1.793   9.047   7.002 -0.8191  0.6923 -3.6132
  556MOL0     H73355   1.619   8.902   6.959  0.7642 -2.3420  0.3984
  556MOL0     H73356   1.419   8.672   6.578  0.0846  1.2754 -0.9569
  556MOL0     H73357   1.236   8.557   6.533  0.9783  2.0092 -1.8902
  556MOL0     H73358   1.062   8.416   6.510  1.7457  1.4703  0.5267
  556MOL0     H73359   0.970   8.558   6.563  1.0650  0.0766 -0.0545
  556MOL0     H73360   0.812   8.373   6.666  2.0572 -1.9311  1.4081
  556MOL0     H73361   0.943   8.260   6.618 -1.2108 -1.4417  1.6251
  556MOL0     H73362   0.774   8.221   6.482  4.6401 -2.5491  3.1019
  556MOL0     H73363   0.876   8.320   6.371 -0.5478  0.8830 -0.6510
  556MOL0     H73364   0.737   8.514   6.499 -1.5479  0.4948 -0.2266
  556MOL0     H73365   0.704   8.456   6.339  1.6590 -0.7458  0.0518
  556MOL0     H73366   0.548   8.306   6.556  0.1696 -2.4939 -1.7496
  556MOL0     H73367   0.521   8.317   6.385 -1.5597  1.2242  0.1373
  556MOL0     H73368   0.462   8.540   6.393 -0.5865  1.1359  1.5181
  556MOL0     H73369   0.488   8.568   6.568 -0.0062 -1.1337  0.9078
  556MOL0     H73370   0.252   8.438   6.442 -1.4948  1.6128  0.6377
  556MOL0     H73371   0.327   8.380   6.601 -0.5002 -2.7329 -1.7740
  556MOL0     H73372   0.227   8.658   6.525  0.9920  1.9687  1.6389
  556MOL0     H73373   0.304   8.614   6.680  3.0005 -4.0251  1.1407
  556MOL0     H73374   1.125   8.554   6.955  1.7981 -1.0374  0.9708
  556MOL0     H73375   1.317   8.669   6.998 -0.8055  0.9118 -0.3957
  556MOL0     H73376   1.881   8.618   6.769 -2.8679 -0.2792 -0.0906
  556MOL0     H73377   2.081   8.784   6.823  1.2468  1.1591  2.4572
  556MOL0     H73378   3.083  10.507   7.012 -0.2388 -0.0069  0.6347
  556MOL0     H73379   3.228  10.714   7.040 -1.7275 -1.0611 -1.8881
  556MOL0     H73380   3.696  10.847   7.104 -0.5227  2.1197 -0.6878
  556MOL0     H73381   3.873  11.013   7.182 -1.3596  0.7142 -0.7966
  556MOL0     H73382   3.851  11.133   7.625  2.0478 -0.9607 -0.4952
  556MOL0     H73383   3.781  11.257   7.518 -0.6286 -0.6535  1.4219
  556MOL0     H73384   3.978  11.328   7.667  0.5697 -0.9677  0.4319
  556MOL0     H73385   4.076  11.210   7.594  2.3182  2.2118  0.0499
  556MOL0     H73386   3.961  11.458   7.462  0.1243 -0.4357 -2.3067
  556MOL0     H73387   4.049  11.336   7.378  3.1102  2.2775 -1.8011
  556MOL0     H73388   4.252  11.387   7.494 -1.7785 -0.0711 -1.9564
  556MOL0     H73389   4.190  11.532   7.417  3.5495 -0.2248 -0.2783
  556MOL0     H73390   4.196  11.636   7.815 -2.3283  0.4341 -0.2449
  556MOL0     H73391   3.605  11.148   7.477 -1.9908 -1.3023 -0.3032
  556MOL0     H73392   3.445  10.990   7.425 -1.5333  0.7034 -0.8572
  557MOL0     O73393   7.565   9.782  10.148 -0.0440  0.2521  0.4810
  557MOL0     C73394   7.544   9.760  10.268  0.1436 -0.7276 -0.9145
  557MOL0     O73395   7.495   9.852  10.355 -0.0095 -0.7206 -0.5366
  557MOL0     C73396   7.460   9.980  10.312 -0.7183 -0.3474  0.0974
  557MOL0     C73397   7.515  10.094  10.356 -1.2297 -0.3225 -0.1708
  557MOL0     C73398   7.500  10.211  10.286 -0.5853  0.7701  0.3631
  557MOL0     C73399   7.401  10.223  10.183  1.1735 -0.5102  0.7511
  557MOL0     O73400   7.377  10.346  10.125 -0.3992 -0.2526 -0.3760
  557MOL0     C73401   7.364  10.348   9.976  0.1446  0.1112  0.3485
  557MOL0     C73402   7.496  10.373   9.902 -0.2184 -0.5357 -0.4290
  557MOL0     C73403   7.466  10.381   9.753 -0.6681 -0.0997 -0.5960
  557MOL0     C73404   7.591  10.427   9.672  0.1541  0.0058 -0.1455
  557MOL0     C73405   7.586  10.398   9.526 -0.8363 -0.4748  0.6633
  557MOL0     C73406   7.475  10.480   9.468  0.6750  0.1796 -1.8113
  557MOL0     C73407   7.448  10.455   9.321  0.0771 -0.5122  0.0263
  557MOL0     C73408   7.393  10.578   9.243  0.4544 -0.1517  0.2705
  557MOL0     N73409   7.374  10.551   9.101 -0.1877 -0.2816 -0.5395
  557MOL0     C73410   7.300  10.449   9.038  0.7455  0.0120 -0.2194
  557MOL0     C73411   7.295  10.502   8.909 -0.4907  0.7740 -0.0456
  557MOL0     C73412   7.205  10.451   8.804 -0.1164  0.0978  0.5981
  557MOL0     C73413   7.051  10.466   8.827 -0.1981 -0.2523  1.2580
  557MOL0     C73414   7.000  10.349   8.910 -0.0440 -0.0988 -0.0734
  557MOL0     C73415   6.875  10.380   8.989 -0.9147 -0.9905  0.3745
  557MOL0     O73416   6.831  10.268   9.056 -0.4026  0.0776 -0.8939
  557MOL0     C73417   6.707  10.218   9.017 -0.7771  0.2299 -0.5667
  557MOL0     C73418   6.585  10.240   9.073  0.0977  0.4257 -0.5033
  557MOL0     C73419   6.469  10.162   9.043 -0.2498 -0.1778 -0.0296
  557MOL0     C73420   6.470  10.063   8.951 -0.9247  0.3290  0.0330
  557MOL0     C73421   6.374   9.961   8.932  0.1569  0.1373 -0.1558
  557MOL0     O73422   6.280   9.938   9.029  0.7900  0.1033  0.2340
  557MOL0     C73423   6.182   9.848   9.007 -0.1814  1.0648  0.0098
  557MOL0     C73424   6.173   9.740   9.096  0.8170  0.2821 -0.1030
  557MOL0     C73425   6.047   9.678   9.098  0.1352  0.8004  0.7901
  557MOL0     C73426   5.945   9.701   9.001 -0.1533  0.9205  0.2319
  557MOL0     O73427   5.836   9.611   8.993 -0.3445  0.6895 -1.0730
  557MOL0     C73428   5.787   9.559   9.117  0.2873 -1.0207 -0.2167
  557MOL0     C73429   5.643   9.494   9.117 -0.4347 -0.4151  0.1039
  557MOL0     C73430   5.540   9.594   9.051  0.5475  0.4241 -0.4322
  557MOL0     C73431   5.394   9.563   9.086  0.0053 -0.3264 -0.7438
  557MOL0     C73432   5.320   9.443   9.018  0.5176 -0.5626 -0.0560
  557MOL0     C73433   5.175   9.422   9.054 -0.0576  0.7328  0.3698
  557MOL0     C73434   5.084   9.546   9.034  0.4146  0.9719  0.5754
  557MOL0     C73435   4.942   9.541   8.962 -0.9464  0.1588 -0.0292
  557MOL0    Cl73436   4.826   9.475   9.076  0.1956  0.4190 -0.1253
  557MOL0     C73437   5.961   9.805   8.912  0.4376  0.2644 -0.6150
  557MOL0     C73438   6.081   9.883   8.913  0.3603  0.3473 -0.3247
  557MOL0     O73439   6.372   9.905   8.822 -0.3263 -0.0274 -0.2081
  557MOL0     C73440   6.591  10.046   8.882  0.2446 -0.8711  0.0290
  557MOL0     C73441   6.708  10.115   8.923  0.0628  0.2221 -0.2448
  557MOL0     N73442   7.362  10.621   8.902  0.2897 -0.4376 -0.0500
  557MOL0     N73443   7.415  10.643   9.015  0.0105  0.6195  0.0921
  557MOL0     C73444   7.329  10.104  10.146  0.1237 -0.0954 -0.0163
  557MOL0     C73445   7.367   9.985  10.205 -0.8048 -0.9229 -1.0986
  557MOL0     C73446   7.593   9.628  10.325 -0.2851  0.6500 -0.3051
  557MOL0     C73447   7.592   9.610  10.466  0.9935  0.1557 -0.0328
  557MOL0     C73448   7.639   9.489  10.519 -0.1732 -0.5048 -1.1177
  557MOL0     C73449   7.691   9.394  10.436  0.0559  0.0408 -0.5289
  557MOL0     O73450   7.753   9.274  10.487  0.5297  0.5350  0.3083
  557MOL0     C73451   7.787   9.167  10.396  0.0114  0.5849 -0.8581
  557MOL0     C73452   7.795   9.037  10.470  0.1827  0.7089 -0.3865
  557MOL0     C73453   7.917   9.036  10.571 -0.2085 -0.2688 -0.1905
  557MOL0     C73454   7.943   8.890  10.619  0.5763 -0.0177 -0.7345
  557MOL0     C73455   8.038   8.893  10.734 -0.8373  0.9805  0.0958
  557MOL0     C73456   8.128   8.888  10.817 -0.2625  0.4378  0.2655
  557MOL0     C73457   7.701   9.421  10.300  0.0518  1.0761  0.2797
  557MOL0     C73458   7.651   9.529  10.241 -0.5891 -0.2255  0.0237
  557MOL0     H73459   7.598  10.086  10.426 -0.6635  1.3611 -0.6091
  557MOL0     H73460   7.554  10.295  10.329 -0.7905 -0.1413  2.5651
  557MOL0     H73461   7.310  10.441   9.959  1.6224  0.6073 -2.2207
  557MOL0     H73462   7.304  10.265   9.938  2.3782 -0.4508 -2.2648
  557MOL0     H73463   7.555  10.286   9.931 -0.8723 -1.1359 -0.8811
  557MOL0     H73464   7.563  10.452   9.938 -1.5102  1.4110 -2.0625
  557MOL0     H73465   7.382  10.450   9.741 -1.2710 -0.1749  2.4400
  557MOL0     H73466   7.446  10.283   9.710  1.5996  0.2281 -2.6574
  557MOL0     H73467   7.603  10.531   9.702 -4.7655  0.5008  0.9989
  557MOL0     H73468   7.675  10.372   9.715 -0.5260 -0.6098  0.4193
  557MOL0     H73469   7.564  10.293   9.504 -0.6892 -0.1645 -1.0990
  557MOL0     H73470   7.684  10.416   9.481 -0.6289  1.6345  1.8096
  557MOL0     H73471   7.509  10.582   9.489  1.3879  0.0213 -2.1454
  557MOL0     H73472   7.385  10.453   9.524  1.0853 -1.0649 -1.7246
  557MOL0     H73473   7.541  10.420   9.275 -0.4162 -0.5792 -0.9287
  557MOL0     H73474   7.369  10.380   9.319  0.3277 -0.8702  1.6386
  557MOL0     H73475   7.468  10.654   9.266 -0.4850  1.2173 -0.9397
  557MOL0     H73476   7.292  10.598   9.279  0.2268 -1.3498  0.3466
  557MOL0     H73477   7.248  10.364   9.081 -0.5766  1.0493  0.3231
  557MOL0     H73478   7.217  10.344   8.783 -2.7034 -0.1515  0.0340
  557MOL0     H73479   7.220  10.518   8.720 -0.0795  1.6683  1.8132
  557MOL0     H73480   6.996  10.490   8.736 -1.5137  2.9788  2.7416
  557MOL0     H73481   7.036  10.554   8.891 -1.1737 -1.3695  2.6080
  557MOL0     H73482   6.978  10.258   8.852 -0.8432 -3.6764  5.0693
  557MOL0     H73483   7.069  10.315   8.988  0.2202  1.3048  0.3283
  557MOL0     H73484   6.787  10.421   8.938 -1.7751 -1.6415  1.2888
  557MOL0     H73485   6.914  10.453   9.060 -0.6404 -2.8236  2.1952
  557MOL0     H73486   6.582  10.304   9.161 -0.5493  2.5644 -2.0085
  557MOL0     H73487   6.384  10.180   9.108 -0.2148  2.4328 -0.5838
  557MOL0     H73488   6.253   9.722   9.168  0.7947  0.1945 -0.1011
  557MOL0     H73489   6.053   9.588   9.159  0.3205  0.8706  0.8744
  557MOL0     H73490   5.785   9.640   9.190  1.2029  1.2448 -2.5252
  557MOL0     H73491   5.854   9.486   9.163 -1.4691 -2.8284 -0.3716
  557MOL0     H73492   5.615   9.484   9.222  0.5407 -1.5102  0.2867
  557MOL0     H73493   5.644   9.394   9.072  1.5912  0.1718 -1.3394
  557MOL0     H73494   5.556   9.590   8.943  1.3392  1.7829 -0.3808
  557MOL0     H73495   5.564   9.698   9.072  2.2925  0.4673 -2.3720
  557MOL0     H73496   5.389   9.563   9.195 -0.9805 -2.2861 -0.7429
  557MOL0     H73497   5.329   9.649   9.068 -0.9166  0.1564  3.7737
  557MOL0     H73498   5.373   9.348   9.029 -1.9509 -2.0283 -0.0622
  557MOL0     H73499   5.310   9.479   8.915 -0.4286  2.0724  0.8526
  557MOL0     H73500   5.181   9.390   9.158  3.0136 -1.6679 -0.3737
  557MOL0     H73501   5.136   9.340   8.992  2.5547 -2.7187  2.8543
  557MOL0     H73502   5.073   9.580   9.138  0.8894  2.0557  0.2819
  557MOL0     H73503   5.142   9.615   8.972 -2.0928  2.1954 -0.5152
  557MOL0     H73504   4.956   9.475   8.876  2.7073 -0.5805  0.9661
  557MOL0     H73505   4.914   9.646   8.947 -0.9557  0.7048  3.0379
  557MOL0     H73506   5.885   9.821   8.837  2.0194 -1.1348 -2.6355
  557MOL0     H73507   6.079   9.975   8.855  1.0205  0.9376  0.5672
  557MOL0     H73508   6.598   9.970   8.805 -2.0583 -0.2383 -0.8903
  557MOL0     H73509   6.801  10.080   8.879 -1.7330 -4.2738 -1.0822
  557MOL0     H73510   7.248  10.113  10.074  0.4517  0.5500 -0.3176
  557MOL0     H73511   7.324   9.891  10.173 -2.0497 -0.9374  0.4753
  557MOL0     H73512   7.551   9.682  10.536  2.4299 -1.6858  2.8978
  557MOL0     H73513   7.636   9.450  10.620 -2.7382  0.3754 -0.7747
  557MOL0     H73514   7.880   9.190  10.342  0.6837 -0.4025 -0.1650
  557MOL0     H73515   7.708   9.158  10.321 -0.1445 -5.6214 -0.4687
  557MOL0     H73516   7.705   9.024  10.531  0.7511  0.7794  0.4826
  557MOL0     H73517   7.803   8.954  10.400  3.0951 -1.7281  2.4707
  557MOL0     H73518   7.880   9.101  10.651  0.0106 -1.5778  1.0135
  557MOL0     H73519   8.000   9.082  10.518 -0.9762  0.9104 -0.4053
  557MOL0     H73520   7.852   8.840  10.653  1.2708 -2.2786 -1.9541
  557MOL0     H73521   7.982   8.838  10.531  0.2839 -1.4310 -0.0607
  557MOL0     H73522   8.193   8.886  10.902  0.8394  2.3021 -0.4875
  557MOL0     H73523   7.740   9.348  10.229 -2.8537  0.4807 -0.8402
  557MOL0     H73524   7.643   9.532  10.133  2.3895 -1.7520 -0.3443
  558MOL0     O73525   9.604   4.989   9.455  0.5833 -0.4624 -0.9900
  558MOL0     C73526   9.662   4.922   9.375 -0.9051  0.0048  0.0355
  558MOL0     O73527   9.706   4.979   9.255 -0.4146 -0.2825 -0.1243
  558MOL0     C73528   9.644   5.088   9.196  0.6751 -0.0996 -0.9878
  558MOL0     C73529   9.652   5.219   9.246  1.3187  0.0244  0.0597
  558MOL0     C73530   9.609   5.328   9.170  0.0417 -0.4003  0.1465
  558MOL0     C73531   9.558   5.307   9.041 -0.0896  0.3493 -0.1776
  558MOL0     O73532   9.510   5.402   8.960 -0.4785 -0.0263 -0.6153
  558MOL0     C73533   9.553   5.537   8.968  1.0035  0.9852 -0.8932
  558MOL0     C73534   9.676   5.575   8.877 -0.9420  0.0909 -0.6186
  558MOL0     C73535   9.800   5.586   8.965 -0.8810  0.3024 -0.4250
  558MOL0     C73536   9.927   5.616   8.873  0.2562 -0.7493 -0.1606
  558MOL0     C73537  10.061   5.610   8.950 -0.0931 -0.1593 -0.0034
  558MOL0     C73538  10.189   5.575   8.873  0.1188  0.7572 -0.0131
  558MOL0     C73539  10.179   5.449   8.789 -0.3411 -0.2150  0.5730
  558MOL0     C73540  10.316   5.427   8.713 -0.3480 -0.0266  0.3615
  558MOL0     N73541  10.311   5.313   8.617 -0.0263 -0.8114 -0.2719
  558MOL0     C73542  10.209   5.225   8.592  0.3072  0.7251  0.8893
  558MOL0     C73543  10.276   5.134   8.513 -0.5549 -0.1829 -0.3581
  558MOL0     C73544  10.219   5.000   8.447 -0.2951  0.2171  0.4399
  558MOL0     C73545  10.196   5.017   8.293  0.1058 -0.3157  0.3910
  558MOL0     C73546  10.160   4.889   8.211 -0.3498  0.1783 -0.6115
  558MOL0     C73547  10.135   4.900   8.058  0.1720 -0.0014  0.3811
  558MOL0     O73548  10.057   4.795   7.997 -1.0952  0.6055 -0.6452
  558MOL0     C73549  10.128   4.700   7.923 -0.9629  0.6653  0.0387
  558MOL0     C73550  10.119   4.708   7.783  0.2208 -0.9285 -0.9673
  558MOL0     C73551  10.179   4.609   7.706 -0.0729  0.3660 -0.0181
  558MOL0     C73552  10.253   4.512   7.777  0.6226 -0.0225 -0.2189
  558MOL0     C73553  10.329   4.420   7.695 -0.9493 -0.6557 -0.1121
  558MOL0     O73554  10.345   4.445   7.556 -0.3737  0.2635 -0.2881
  558MOL0     C73555  10.444   4.374   7.488 -0.1239 -0.4202 -0.4915
  558MOL0     C73556  10.550   4.448   7.436 -1.1450  0.0171 -0.3257
  558MOL0     C73557  10.664   4.381   7.381 -0.6674 -0.8358 -0.6311
  558MOL0     C73558  10.667   4.237   7.365  0.3908  0.7497 -0.3035
  558MOL0     O73559  10.771   4.169   7.307 -0.0237  0.0804 -0.1689
  558MOL0     C73560  10.813   4.049   7.370 -0.4250 -0.2053  0.0647
  558MOL0     C73561  10.896   3.953   7.285 -0.5281 -0.0142  0.7292
  558MOL0     C73562  10.981   3.860   7.373 -0.5239 -0.0711 -0.0871
  558MOL0     C73563  11.100   3.819   7.289 -0.5282 -0.7424  0.4755
  558MOL0     C73564  11.184   3.721   7.359 -0.9775  0.1801 -0.5080
  558MOL0     C73565  11.310   3.709   7.287 -0.9848  0.4291  0.1920
  558MOL0     C73566  11.410   3.613   7.352  0.2723 -0.0061  0.2065
  558MOL0     C73567  11.536   3.603   7.271 -0.3910 -0.3084  0.5037
  558MOL0    Cl73568  11.652   3.737   7.305  0.0600 -0.1870 -0.2561
  558MOL0     C73569  10.549   4.168   7.410 -0.7670 -0.4281  0.2778
  558MOL0     C73570  10.449   4.234   7.467  0.2747  0.1068 -1.1587
  558MOL0     O73571  10.381   4.327   7.747  0.1511  0.3235  0.4194
  558MOL0     C73572  10.265   4.510   7.916  0.4947  0.6910 -0.5783
  558MOL0     C73573  10.200   4.600   7.992 -0.1313 -0.9037 -0.2107
  558MOL0     N73574  10.407   5.173   8.493 -0.1394 -0.3420 -0.4178
  558MOL0     N73575  10.427   5.277   8.557 -0.5103  0.5134 -0.4090
  558MOL0     C73576   9.534   5.181   8.990  0.0392  1.3094  0.2798
  558MOL0     C73577   9.587   5.075   9.063  0.7708 -0.4942 -0.3431
  558MOL0     C73578   9.692   4.779   9.400 -0.4438  0.0894 -1.0318
  558MOL0     C73579   9.773   4.704   9.304  0.3267  1.0330  0.0712
  558MOL0     C73580   9.803   4.569   9.328 -0.0040  0.9093  0.6125
  558MOL0     C73581   9.761   4.505   9.449  0.3865  0.2688 -0.3113
  558MOL0     O73582   9.799   4.370   9.468  0.2154 -0.4157 -0.2220
  558MOL0     C73583   9.724   4.280   9.563 -0.6172 -0.5558 -0.4653
  558MOL0     C73584   9.700   4.142   9.506  0.4845  0.9716  0.1348
  558MOL0     C73585   9.556   4.128   9.455  0.1767 -0.7280 -0.6017
  558MOL0     C73586   9.442   4.130   9.559  0.7885  0.1192 -0.2610
  558MOL0     C73587   9.387   4.001   9.615 -0.1226 -0.1149 -0.7035
  558MOL0     C73588   9.333   3.903   9.649  0.3482  0.2436 -0.7249
  558MOL0     C73589   9.686   4.579   9.539  0.1966  0.2406 -0.2482
  558MOL0     C73590   9.653   4.711   9.512 -0.7247  0.0357 -0.4242
  558MOL0     H73591   9.703   5.249   9.337  1.0895  1.6990 -0.3342
  558MOL0     H73592   9.604   5.425   9.217 -2.0450 -1.0790  1.4656
  558MOL0     H73593   9.561   5.579   9.069  0.4629 -0.6015 -0.1678
  558MOL0     H73594   9.473   5.601   8.929 -1.5922 -1.3912  0.2293
  558MOL0     H73595   9.665   5.662   8.811 -0.1496 -0.3095 -1.3019
  558MOL0     H73596   9.698   5.505   8.796  1.8825  1.2802 -1.0102
  558MOL0     H73597   9.807   5.485   9.005 -0.1662 -0.3304 -2.0448
  558MOL0     H73598   9.791   5.661   9.044  0.4857 -0.3225  0.3624
  558MOL0     H73599   9.945   5.537   8.799  0.7317 -2.5578  1.7773
  558MOL0     H73600   9.923   5.717   8.830  2.8387 -1.1213 -1.5115
  558MOL0     H73601  10.054   5.543   9.036 -1.3892 -0.9111 -0.6640
  558MOL0     H73602  10.081   5.712   8.985 -1.7650  1.3797 -3.1481
  558MOL0     H73603  10.259   5.554   8.955 -2.4256 -3.1549  1.4571
  558MOL0     H73604  10.213   5.661   8.811  2.9914  1.0324  1.2994
  558MOL0     H73605  10.145   5.367   8.853 -3.4401  0.4518 -0.0484
  558MOL0     H73606  10.110   5.459   8.705 -1.3577 -3.1612  0.9400
  558MOL0     H73607  10.394   5.404   8.787 -2.5929 -0.3117  2.8149
  558MOL0     H73608  10.358   5.503   8.647 -0.4166 -2.6004 -2.8527
  558MOL0     H73609  10.107   5.213   8.628 -0.4318  1.4917 -0.8411
  558MOL0     H73610  10.116   4.983   8.480 -0.7746  0.3570 -0.9290
  558MOL0     H73611  10.279   4.911   8.466  2.8992  1.3815 -3.0030
  558MOL0     H73612  10.289   5.061   8.255  1.6335 -2.8746  0.9471
  558MOL0     H73613  10.118   5.092   8.279  2.6869  2.7122  0.9395
  558MOL0     H73614  10.227   4.806   8.234 -0.0855 -0.1515 -2.4924
  558MOL0     H73615  10.067   4.846   8.248 -0.0997  0.5732  0.5352
  558MOL0     H73616  10.232   4.898   8.008  0.4342  2.6430  0.6540
  558MOL0     H73617  10.082   4.993   8.036  0.6065 -0.3508 -2.6616
  558MOL0     H73618  10.073   4.797   7.741 -0.9896 -0.5943  0.9615
  558MOL0     H73619  10.169   4.612   7.598 -0.5168  0.2465  0.0184
  558MOL0     H73620  10.553   4.554   7.457  1.5478 -0.1911  0.7742
  558MOL0     H73621  10.748   4.429   7.332  1.5275 -2.9215  0.8609
  558MOL0     H73622  10.731   3.987   7.408 -1.2427  0.3160 -0.8152
  558MOL0     H73623  10.866   4.076   7.462 -1.0002 -0.8998  0.6175
  558MOL0     H73624  10.962   4.013   7.222  0.8112 -0.8724  1.2491
  558MOL0     H73625  10.838   3.883   7.224 -0.8225  0.4014  0.5330
  558MOL0     H73626  10.920   3.770   7.383 -1.1410 -0.0511 -2.9768
  558MOL0     H73627  11.007   3.894   7.474  1.4979  1.3142 -1.0049
  558MOL0     H73628  11.058   3.784   7.194 -0.9308 -0.9888  0.7408
  558MOL0     H73629  11.157   3.909   7.264 -0.5768 -0.3088  1.8935
  558MOL0     H73630  11.131   3.626   7.347 -0.1507 -0.1454 -1.6654
  558MOL0     H73631  11.193   3.747   7.465 -2.1573  0.7975 -0.5468
  558MOL0     H73632  11.360   3.807   7.286  1.9700 -0.8853  2.7327
  558MOL0     H73633  11.293   3.677   7.184  1.1810 -0.7506  0.1357
  558MOL0     H73634  11.429   3.637   7.457  1.4868  1.3863 -0.2992
  558MOL0     H73635  11.364   3.516   7.331  2.3313 -0.5709 -2.1860
  558MOL0     H73636  11.515   3.622   7.166 -1.2190 -0.9176  0.5497
  558MOL0     H73637  11.580   3.505   7.290 -0.6747 -0.5633 -0.1308
  558MOL0     H73638  10.531   4.065   7.381  1.3497 -0.6739 -0.3696
  558MOL0     H73639  10.362   4.173   7.488  0.7216 -0.0725  0.2626
  558MOL0     H73640  10.323   4.429   7.959 -1.4700 -1.4098 -1.6355
  558MOL0     H73641  10.206   4.598   8.100 -0.8337  3.3169  0.0539
  558MOL0     H73642   9.494   5.168   8.890  1.3432  0.1745 -0.1089
  558MOL0     H73643   9.564   4.973   9.033  1.6672 -1.0164  0.6486
  558MOL0     H73644   9.804   4.754   9.213 -0.5614 -1.5666 -1.7846
  558MOL0     H73645   9.856   4.519   9.247  1.5492  4.4382 -0.7612
  558MOL0     H73646   9.628   4.331   9.573  0.0339  0.9776 -1.5424
  558MOL0     H73647   9.775   4.277   9.660  0.2471  0.3662 -0.8697
  558MOL0     H73648   9.767   4.124   9.421 -3.4627 -1.6909 -2.8310
  558MOL0     H73649   9.738   4.058   9.564 -0.6801 -0.5764 -1.2409
  558MOL0     H73650   9.545   4.034   9.399  3.5820 -1.0697 -0.9049
  558MOL0     H73651   9.531   4.201   9.377  0.3005 -3.4025 -3.3373
  558MOL0     H73652   9.483   4.185   9.644 -1.8095  0.4481  0.8675
  558MOL0     H73653   9.360   4.191   9.518  0.3566 -0.9142 -0.9645
  558MOL0     H73654   9.262   3.824   9.666  0.8209 -0.2109 -0.8486
  558MOL0     H73655   9.651   4.532   9.630 -1.1333 -0.3807 -1.0516
  558MOL0     H73656   9.585   4.756   9.584  0.0549  1.0360 -0.2965
  559MOL0     O73657   2.543   2.835   4.565 -0.4315 -0.3494 -1.0474
  559MOL0     C73658   2.609   2.934   4.546  0.8288  0.1827  0.1197
  559MOL0     O73659   2.581   3.023   4.440 -0.5123 -0.1326  0.3840
  559MOL0     C73660   2.471   3.007   4.368 -0.8502 -0.1656  1.0779
  559MOL0     C73661   2.488   2.928   4.251  0.1324 -0.0885  0.3244
  559MOL0     C73662   2.376   2.925   4.159  0.0169 -0.9392 -0.3803
  559MOL0     C73663   2.259   2.999   4.183  0.1118 -0.0031 -0.5280
  559MOL0     O73664   2.140   2.999   4.116 -0.1038  0.2285 -0.0490
  559MOL0     C73665   2.110   2.872   4.055  1.1231  0.1625 -0.8943
  559MOL0     C73666   1.979   2.879   3.985  0.1688  0.1915  0.0453
  559MOL0     C73667   1.865   2.921   4.075  0.9171 -0.0217 -0.4158
  559MOL0     C73668   1.838   2.817   4.180  0.9989 -0.4061  0.7575
  559MOL0     C73669   1.720   2.857   4.273 -0.1291  0.3545 -0.6339
  559MOL0     C73670   1.679   2.750   4.370  0.3222  0.3105  0.3691
  559MOL0     C73671   1.577   2.796   4.481  0.1535 -0.0374  1.4458
  559MOL0     C73672   1.658   2.858   4.594  1.6312  1.4372  0.0320
  559MOL0     N73673   1.568   2.877   4.709  0.1195 -0.7075  0.2408
  559MOL0     C73674   1.504   2.999   4.735 -0.3398 -0.0382  0.5036
  559MOL0     C73675   1.404   2.961   4.819 -0.0212 -0.7364  0.4274
  559MOL0     C73676   1.295   3.053   4.857  0.1815 -1.0301 -1.0465
  559MOL0     C73677   1.305   3.091   5.011  0.0131 -0.5911  0.5230
  559MOL0     C73678   1.266   2.998   5.128 -0.4097 -0.3208 -0.8581
  559MOL0     C73679   1.268   3.106   5.241 -0.1727 -1.1582  0.3715
  559MOL0     O73680   1.216   3.035   5.362 -0.5663  0.0575  0.1696
  559MOL0     C73681   1.303   2.959   5.430 -0.2397 -0.2120 -0.3960
  559MOL0     C73682   1.436   2.941   5.406  0.4516 -1.2509  0.1934
  559MOL0     C73683   1.518   2.850   5.467  0.0923 -0.8917 -0.7846
  559MOL0     C73684   1.474   2.776   5.588 -0.7414 -0.6329 -0.1301
  559MOL0     C73685   1.574   2.698   5.664 -0.6827  0.3437  0.4668
  559MOL0     O73686   1.701   2.690   5.606 -1.0381 -0.7109 -0.2803
  559MOL0     C73687   1.800   2.615   5.670 -0.3409 -0.3705 -0.1233
  559MOL0     C73688   1.832   2.482   5.643  0.2378  0.5262  0.1059
  559MOL0     C73689   1.927   2.404   5.712 -0.1855 -0.4780  0.1880
  559MOL0     C73690   2.008   2.463   5.811 -0.0272  0.2712  0.0931
  559MOL0     O73691   2.107   2.380   5.879  0.5585 -0.0706 -0.6659
  559MOL0     C73692   2.122   2.404   6.024 -0.2710 -0.6080  0.3249
  559MOL0     C73693   2.241   2.325   6.089  0.9471  0.2983  0.2577
  559MOL0     C73694   2.375   2.383   6.027 -0.0759  0.1784 -0.1882
  559MOL0     C73695   2.487   2.313   6.109  0.3643 -0.1324 -0.2328
  559MOL0     C73696   2.626   2.375   6.092  0.3688  0.1219 -0.0637
  559MOL0     C73697   2.697   2.324   5.964  0.1894  0.0897  0.2252
  559MOL0     C73698   2.842   2.362   5.959  0.2100 -0.3756  0.1006
  559MOL0     C73699   2.911   2.265   5.865 -0.0804  0.2905  0.3410
  559MOL0    Cl73700   3.057   2.348   5.791 -0.1675  0.4220 -0.1264
  559MOL0     C73701   1.985   2.599   5.838  0.0193  1.1244 -0.5254
  559MOL0     C73702   1.890   2.670   5.764 -0.0023  0.3606  0.0302
  559MOL0     O73703   1.541   2.642   5.764  0.8530 -0.5745  0.2395
  559MOL0     C73704   1.339   2.796   5.626  0.0599 -0.4207 -0.7182
  559MOL0     C73705   1.256   2.878   5.549 -0.5374 -1.9472  1.1807
  559MOL0     N73706   1.416   2.825   4.843  0.2793 -0.2642  0.5573
  559MOL0     N73707   1.514   2.785   4.781 -0.2285  0.3901 -0.2991
  559MOL0     C73708   2.252   3.078   4.296  0.2207 -0.0485 -0.0947
  559MOL0     C73709   2.356   3.080   4.386  0.8618 -0.7277  0.8842
  559MOL0     C73710   2.726   2.970   4.628 -0.2608 -0.8162 -0.4751
  559MOL0     C73711   2.763   3.103   4.635 -0.0692  0.0310 -0.1328
  559MOL0     C73712   2.879   3.142   4.703  0.8579 -0.1285  0.8098
  559MOL0     C73713   2.947   3.054   4.780 -0.5153 -0.1044  0.1437
  559MOL0     O73714   3.060   3.092   4.844 -0.5391  0.9806 -0.3687
  559MOL0     C73715   3.088   3.036   4.975 -0.1890  0.9126 -1.4774
  559MOL0     C73716   2.980   3.070   5.082 -0.2025 -0.6199  0.0030
  559MOL0     C73717   2.928   3.216   5.088  0.0661  0.4403 -0.2247
  559MOL0     C73718   2.781   3.221   5.125  1.1156  0.0798 -0.3024
  559MOL0     C73719   2.710   3.273   5.017  0.3746  0.4386  0.2294
  559MOL0     C73720   2.629   3.320   4.940  0.0967 -1.5878 -0.8295
  559MOL0     C73721   2.901   2.921   4.791  0.0265  0.2018 -0.1950
  559MOL0     C73722   2.786   2.881   4.717 -0.2671 -1.0743  0.8249
  559MOL0     H73723   2.574   2.889   4.198 -0.2153 -0.2499 -0.1309
  559MOL0     H73724   2.389   2.869   4.067  0.9844 -1.4267  0.0403
  559MOL0     H73725   2.103   2.794   4.132 -3.3121  1.0042 -0.2216
  559MOL0     H73726   2.191   2.846   3.985  3.5922 -1.8742  2.4111
  559MOL0     H73727   1.952   2.781   3.943  3.5746 -0.6232 -0.5520
  559MOL0     H73728   1.978   2.944   3.897  0.9810  0.8169  0.4893
  559MOL0     H73729   1.777   2.919   4.009  1.3228 -2.3467 -0.9945
  559MOL0     H73730   1.872   3.020   4.120 -2.3931 -0.7172  2.0410
  559MOL0     H73731   1.806   2.729   4.122 -0.2388  0.7558 -0.3890
  559MOL0     H73732   1.925   2.796   4.242  0.7888 -1.9694  0.5660
  559MOL0     H73733   1.632   2.878   4.211 -0.1488 -0.2168 -0.8009
  559MOL0     H73734   1.743   2.944   4.335 -3.0823 -0.4436  1.8154
  559MOL0     H73735   1.768   2.719   4.425  1.7906 -2.1118 -3.0137
  559MOL0     H73736   1.641   2.664   4.313  2.3082 -1.3552  1.4498
  559MOL0     H73737   1.508   2.873   4.446  1.1520 -0.4438 -1.7086
  559MOL0     H73738   1.517   2.708   4.509 -3.3465  0.6835 -2.7586
  559MOL0     H73739   1.690   2.958   4.565 -2.6017  2.6888 -1.0577
  559MOL0     H73740   1.746   2.797   4.617  0.8861  0.5840  0.7033
  559MOL0     H73741   1.519   3.099   4.696 -0.7767  0.6154  1.9446
  559MOL0     H73742   1.199   3.006   4.834 -0.0598 -0.3222 -1.5238
  559MOL0     H73743   1.282   3.146   4.801 -0.3761  0.9086  2.0319
  559MOL0     H73744   1.237   3.176   5.020  1.3358  0.5597  0.0707
  559MOL0     H73745   1.409   3.124   5.026  0.0954 -1.3352  1.6788
  559MOL0     H73746   1.170   2.948   5.138  0.5687 -1.8766  6.4645
  559MOL0     H73747   1.332   2.914   5.152 -2.2213 -1.5818 -0.1118
  559MOL0     H73748   1.196   3.187   5.226  2.5219  1.6297  1.4864
  559MOL0     H73749   1.368   3.146   5.255  0.4535 -3.6456  4.7814
  559MOL0     H73750   1.486   2.996   5.327 -3.0731  0.5641 -1.0036
  559MOL0     H73751   1.624   2.844   5.444  0.2779  0.8432 -0.4668
  559MOL0     H73752   1.781   2.423   5.567  0.4011  2.4465 -1.5865
  559MOL0     H73753   1.950   2.307   5.670  3.1939 -0.5042  1.7677
  559MOL0     H73754   2.024   2.381   6.067 -0.3356 -2.6788 -0.7787
  559MOL0     H73755   2.146   2.509   6.041 -2.0621  0.2740 -1.9764
  559MOL0     H73756   2.234   2.217   6.078 -0.9096  0.3299  0.6894
  559MOL0     H73757   2.244   2.343   6.197 -0.7514  1.8717  0.1055
  559MOL0     H73758   2.376   2.492   6.035 -0.2256  0.1075  0.9455
  559MOL0     H73759   2.380   2.347   5.924 -0.1280  0.2259 -0.2070
  559MOL0     H73760   2.462   2.334   6.214 -4.3177 -5.5272  0.2106
  559MOL0     H73761   2.477   2.206   6.090 -1.9164  0.3514 -2.2552
  559MOL0     H73762   2.695   2.361   6.176  0.2772  0.9557  0.1580
  559MOL0     H73763   2.600   2.481   6.082 -0.7094 -0.3713 -3.6052
  559MOL0     H73764   2.645   2.376   5.882  2.5468  1.0247 -0.7917
  559MOL0     H73765   2.693   2.215   5.967 -0.6935  0.1422  1.7341
  559MOL0     H73766   2.846   2.463   5.918 -0.3513 -0.7145 -0.8124
  559MOL0     H73767   2.881   2.352   6.061 -0.5526 -2.4694  0.2424
  559MOL0     H73768   2.849   2.261   5.775  0.0305 -2.2536  0.3189
  559MOL0     H73769   2.918   2.165   5.908 -4.1346  0.3980  1.6775
  559MOL0     H73770   2.034   2.655   5.917  1.9976 -1.8456  0.5103
  559MOL0     H73771   1.884   2.775   5.793  0.0231  0.9651 -2.0133
  559MOL0     H73772   1.296   2.735   5.704 -0.6079 -1.3895 -1.8109
  559MOL0     H73773   1.153   2.879   5.582 -1.3524 -2.5290 -1.1676
  559MOL0     H73774   2.164   3.138   4.318 -1.1430 -1.1008 -2.3473
  559MOL0     H73775   2.344   3.143   4.474 -0.5074  0.1717  0.0770
  559MOL0     H73776   2.714   3.180   4.576  1.2329 -0.5637 -2.0992
  559MOL0     H73777   2.913   3.244   4.689 -2.2196  0.7481 -1.3555
  559MOL0     H73778   3.191   3.067   4.998  1.3609 -3.5648 -1.3349
  559MOL0     H73779   3.093   2.927   4.964  1.9288  1.0315 -2.3111
  559MOL0     H73780   2.896   3.004   5.059 -2.8803  1.9383  1.7097
  559MOL0     H73781   3.032   3.050   5.177 -0.3673 -4.3137 -0.5414
  559MOL0     H73782   2.955   3.280   5.003 -0.2737 -0.0021 -0.6682
  559MOL0     H73783   2.997   3.250   5.167  0.1768 -1.1983  0.4230
  559MOL0     H73784   2.751   3.117   5.145 -0.5459  0.9947  2.6248
  559MOL0     H73785   2.764   3.274   5.220  2.8550 -2.2075  1.4076
  559MOL0     H73786   2.547   3.350   4.879 -1.1083 -1.7007  0.6637
  559MOL0     H73787   2.955   2.842   4.843 -0.0906  0.2563  0.0096
  559MOL0     H73788   2.755   2.777   4.727  3.0833 -2.6056 -2.5057
  560MOL0     O73789   9.225   9.382   6.143 -1.0047  0.8780  0.8309
  560MOL0     C73790   9.342   9.378   6.108  0.2510  0.3765 -0.3475
  560MOL0     O73791   9.448   9.318   6.178  0.3837  0.9249  0.0405
  560MOL0     C73792   9.412   9.233   6.280 -0.2017  0.7049 -0.2642
  560MOL0     C73793   9.453   9.098   6.300 -1.0572  0.1808 -0.4659
  560MOL0     C73794   9.393   9.020   6.406  0.3517  0.0126  0.7718
  560MOL0     C73795   9.297   9.076   6.490 -0.5114  0.7725  0.9426
  560MOL0     O73796   9.227   9.020   6.592 -0.1072  0.3378 -0.2699
  560MOL0     C73797   9.264   8.898   6.651 -0.0609  0.2739 -0.1702
  560MOL0     C73798   9.388   8.910   6.739  0.5054 -0.0250 -0.0586
  560MOL0     C73799   9.454   8.770   6.756 -0.5143  0.0967 -0.1622
  560MOL0     C73800   9.585   8.778   6.843  0.0704 -0.6655  0.6700
  560MOL0     C73801   9.640   8.650   6.890 -0.7075  0.8334 -0.4730
  560MOL0     C73802   9.557   8.558   6.976  0.1614  0.4224  0.8675
  560MOL0     C73803   9.507   8.604   7.110 -0.4572  0.8395 -0.2501
  560MOL0     C73804   9.496   8.489   7.203 -0.3568 -0.6364 -0.1231
  560MOL0     N73805   9.450   8.356   7.148  0.1309 -0.6720 -0.6380
  560MOL0     C73806   9.329   8.340   7.088  0.2755  0.1121 -0.0360
  560MOL0     C73807   9.322   8.211   7.052  0.1361  0.1595  0.3885
  560MOL0     C73808   9.206   8.128   7.008  0.1651 -0.3061 -0.9852
  560MOL0     C73809   9.186   8.128   6.860  0.3849 -0.3601 -0.4123
  560MOL0     C73810   9.056   8.058   6.824 -0.0193  0.0665  0.1524
  560MOL0     C73811   9.056   7.910   6.814 -0.2492 -0.7791  0.4913
  560MOL0     O73812   9.064   7.846   6.945 -0.0610  0.9117  0.5125
  560MOL0     C73813   9.058   7.705   6.945  0.4939 -0.0769  1.3406
  560MOL0     C73814   9.007   7.639   6.836 -0.1354 -0.0698 -0.1886
  560MOL0     C73815   9.027   7.495   6.822 -0.0452 -0.1324 -0.0733
  560MOL0     C73816   9.099   7.430   6.916 -0.0913  0.2961 -1.4536
  560MOL0     C73817   9.123   7.284   6.893  0.1176 -0.2357 -0.1828
  560MOL0     O73818   9.226   7.236   6.967  0.0466 -0.0459  0.4493
  560MOL0     C73819   9.296   7.127   6.925  0.1408 -0.3398 -0.3338
  560MOL0     C73820   9.348   7.129   6.796  0.6132 -0.0461 -0.3767
  560MOL0     C73821   9.407   7.015   6.752  0.5519 -0.6116 -0.3540
  560MOL0     C73822   9.425   6.904   6.830  0.7133  1.1382 -0.0228
  560MOL0     O73823   9.458   6.783   6.774 -0.6057 -0.9760  0.7164
  560MOL0     C73824   9.377   6.660   6.796 -0.4916  0.0674  0.7244
  560MOL0     C73825   9.412   6.555   6.693 -0.4921 -0.2161 -0.6005
  560MOL0     C73826   9.368   6.591   6.545 -0.1773  0.5763 -0.3938
  560MOL0     C73827   9.394   6.469   6.458  0.1103  0.3963  0.1911
  560MOL0     C73828   9.382   6.505   6.307 -0.7129 -0.3024 -0.1312
  560MOL0     C73829   9.448   6.394   6.216 -0.0315 -0.0603  0.7086
  560MOL0     C73830   9.450   6.435   6.067  0.4993  0.4781 -1.0385
  560MOL0     C73831   9.443   6.303   5.980 -0.0231 -0.7439  0.1921
  560MOL0    Cl73832   9.314   6.293   5.847  0.5317 -0.6295 -0.1780
  560MOL0     C73833   9.377   6.907   6.969  0.5349  0.3127  0.2225
  560MOL0     C73834   9.312   7.021   7.009 -0.5220  0.4806 -0.4159
  560MOL0     O73835   9.060   7.213   6.815  0.4771 -0.3409 -0.6820
  560MOL0     C73836   9.155   7.503   7.027  0.0337  0.2304  0.0683
  560MOL0     C73837   9.124   7.633   7.036  0.3336 -0.9505  0.4786
  560MOL0     N73838   9.449   8.153   7.079  0.3822 -0.3251  0.2396
  560MOL0     N73839   9.524   8.244   7.141  0.4010  0.3932 -0.8452
  560MOL0     C73840   9.283   9.209   6.489  0.0162  0.0417  0.1420
  560MOL0     C73841   9.343   9.286   6.390  0.1258 -0.3941  0.7328
  560MOL0     C73842   9.370   9.436   5.982  0.2911 -0.4940  0.4671
  560MOL0     C73843   9.485   9.405   5.917 -0.6224  0.1328 -0.2546
  560MOL0     C73844   9.522   9.467   5.805  0.6090 -0.4726  0.2416
  560MOL0     C73845   9.443   9.557   5.736  0.7383  0.2554 -0.1349
  560MOL0     O73846   9.483   9.628   5.623 -0.3352 -0.3435 -0.0794
  560MOL0     C73847   9.572   9.561   5.537 -0.1193  1.3063 -0.0810
  560MOL0     C73848   9.586   9.644   5.411  0.7701  0.7916  0.6655
  560MOL0     C73849   9.592   9.554   5.280 -0.1794  0.2635  0.4937
  560MOL0     C73850   9.714   9.460   5.277  0.2039 -0.0600 -0.0913
  560MOL0     C73851   9.706   9.346   5.365 -0.7235  1.2499 -0.3998
  560MOL0     C73852   9.693   9.247   5.434  0.2925 -0.0692 -0.3790
  560MOL0     C73853   9.313   9.568   5.792 -0.4619 -0.2896  0.0444
  560MOL0     C73854   9.277   9.518   5.919  0.5073 -0.2243 -0.2318
  560MOL0     H73855   9.518   9.049   6.229 -1.1979 -2.6529  1.2098
  560MOL0     H73856   9.405   8.912   6.400 -1.8331 -0.3471  2.0571
  560MOL0     H73857   9.285   8.822   6.575 -5.2379 -0.8512 -0.7987
  560MOL0     H73858   9.188   8.858   6.718  1.9687 -3.9184 -0.0693
  560MOL0     H73859   9.369   8.963   6.833  2.7547  1.2854 -0.2577
  560MOL0     H73860   9.469   8.969   6.694  1.3333 -1.7992 -0.9569
  560MOL0     H73861   9.490   8.729   6.661  0.7699  3.3029 -1.1963
  560MOL0     H73862   9.379   8.709   6.807  0.5314 -1.5732 -0.5490
  560MOL0     H73863   9.665   8.829   6.789 -1.1198  0.1176 -0.4113
  560MOL0     H73864   9.565   8.837   6.933  0.2141  0.9543 -0.3124
  560MOL0     H73865   9.727   8.684   6.946 -0.7276 -1.1987  0.9305
  560MOL0     H73866   9.663   8.591   6.801 -3.3088 -1.4338  0.2281
  560MOL0     H73867   9.630   8.479   6.992  2.0957  1.8756 -0.3000
  560MOL0     H73868   9.479   8.511   6.916  0.8703 -0.9136  0.9607
  560MOL0     H73869   9.586   8.669   7.147 -0.7611  2.1143 -1.7357
  560MOL0     H73870   9.413   8.659   7.102 -1.3668 -0.8518 -2.6352
  560MOL0     H73871   9.439   8.531   7.286  4.2133  1.1215  2.5321
  560MOL0     H73872   9.593   8.463   7.248  0.3184 -0.2536 -1.3046
  560MOL0     H73873   9.247   8.411   7.081 -0.6712 -0.7177  2.0403
  560MOL0     H73874   9.121   8.168   7.063 -1.2296  1.9896 -4.4290
  560MOL0     H73875   9.230   8.025   7.035  0.8751 -1.0560 -4.0347
  560MOL0     H73876   9.275   8.101   6.802 -0.6519 -2.1231 -1.2760
  560MOL0     H73877   9.172   8.236   6.848  0.6583 -0.1386  1.0589
  560MOL0     H73878   8.982   8.087   6.899  0.0240 -0.6437  0.4785
  560MOL0     H73879   9.015   8.097   6.730 -0.5649 -0.2887  0.2386
  560MOL0     H73880   9.135   7.877   6.746  0.2814  0.1046  0.6654
  560MOL0     H73881   8.955   7.890   6.777  0.6502  1.1100 -3.4087
  560MOL0     H73882   8.944   7.691   6.764  1.2253 -2.0526 -2.9991
  560MOL0     H73883   8.975   7.447   6.739 -0.2050 -0.5075  0.2398
  560MOL0     H73884   9.316   7.214   6.736  1.6832  0.3223 -0.4470
  560MOL0     H73885   9.431   7.012   6.647 -2.4833 -0.8434 -1.1573
  560MOL0     H73886   9.274   6.685   6.768 -0.7441 -2.2541 -0.6467
  560MOL0     H73887   9.385   6.614   6.895  0.3136  2.3149  1.7809
  560MOL0     H73888   9.356   6.465   6.721 -2.3433  0.1184 -2.8554
  560MOL0     H73889   9.519   6.536   6.706 -0.2483  1.8665  0.9453
  560MOL0     H73890   9.425   6.680   6.520  3.5626 -0.9523  1.7507
  560MOL0     H73891   9.262   6.617   6.536 -0.9903 -1.9966  0.6480
  560MOL0     H73892   9.501   6.450   6.466  0.9975  1.7898 -4.9284
  560MOL0     H73893   9.330   6.384   6.483 -0.5568  0.6360 -0.6816
  560MOL0     H73894   9.441   6.595   6.286  0.0420 -0.3009  1.8691
  560MOL0     H73895   9.275   6.525   6.292 -0.3057  0.7969 -1.8458
  560MOL0     H73896   9.383   6.306   6.224 -2.3389  0.9601 -3.5380
  560MOL0     H73897   9.549   6.368   6.248  0.2244 -0.9433 -0.7347
  560MOL0     H73898   9.361   6.496   6.051 -0.8898 -0.2268  2.9910
  560MOL0     H73899   9.532   6.502   6.038 -1.0502  1.6606 -2.9676
  560MOL0     H73900   9.435   6.211   6.039  0.4142  1.1475  3.4392
  560MOL0     H73901   9.530   6.298   5.914 -0.2861 -0.2580 -0.1988
  560MOL0     H73902   9.387   6.824   7.040 -0.3872  1.1609  1.3885
  560MOL0     H73903   9.270   7.020   7.110 -1.2735  2.3939 -0.6809
  560MOL0     H73904   9.228   7.453   7.090  0.7076  0.2377 -0.6771
  560MOL0     H73905   9.149   7.698   7.120  1.4842 -1.6295  0.6672
  560MOL0     H73906   9.220   9.264   6.558 -2.2290  0.1194 -1.8478
  560MOL0     H73907   9.329   9.393   6.400 -0.8953 -0.3655 -0.6737
  560MOL0     H73908   9.554   9.334   5.960 -2.2567 -1.4244 -0.0623
  560MOL0     H73909   9.622   9.437   5.773  0.8058 -0.1367  0.5351
  560MOL0     H73910   9.532   9.462   5.513  4.0985 -0.5967  0.0033
  560MOL0     H73911   9.674   9.550   5.574 -0.7132 -1.4000  0.9405
  560MOL0     H73912   9.506   9.714   5.388  0.3633  0.1134 -0.0307
  560MOL0     H73913   9.683   9.695   5.418  1.8834 -0.8671 -1.3438
  560MOL0     H73914   9.612   9.619   5.194  4.3652 -3.3335 -1.5988
  560MOL0     H73915   9.497   9.509   5.250 -0.9473  3.5691 -2.8410
  560MOL0     H73916   9.736   9.432   5.173 -2.2797 -0.6643 -0.5108
  560MOL0     H73917   9.794   9.524   5.315 -0.5792 -0.5805  2.6600
  560MOL0     H73918   9.675   9.157   5.489  2.9438  0.4195  1.4652
  560MOL0     H73919   9.237   9.614   5.730 -1.6723 -0.0089  1.6758
  560MOL0     H73920   9.178   9.539   5.959  1.1043 -1.5239  2.1160
  561MOL0     O73921   9.631   5.641   4.405 -0.2741 -0.4699 -0.3870
  561MOL0     C73922   9.602   5.524   4.446  0.2560 -1.5416  0.7455
  561MOL0     O73923   9.648   5.473   4.566  0.8618 -0.2969  0.5438
  561MOL0     C73924   9.698   5.557   4.661 -0.4652  0.2190  0.1380
  561MOL0     C73925   9.787   5.506   4.758 -0.1067 -0.6765  0.5946
  561MOL0     C73926   9.823   5.576   4.871  0.4023 -0.9099  0.1781
  561MOL0     C73927   9.765   5.703   4.890 -0.3501 -0.6855  0.2605
  561MOL0     O73928   9.789   5.787   4.992 -0.8318 -1.4467 -0.5525
  561MOL0     C73929   9.924   5.788   5.040 -0.0321  0.4176 -0.8840
  561MOL0     C73930   9.934   5.737   5.184  0.1040 -0.5734  0.5791
  561MOL0     C73931   9.833   5.811   5.276 -0.6269  0.0846 -0.1329
  561MOL0     C73932   9.841   5.747   5.418  0.3472 -0.7334 -0.3799
  561MOL0     C73933   9.764   5.614   5.434  0.2160  0.7593 -0.5801
  561MOL0     C73934   9.790   5.565   5.576 -0.3940  0.2623  0.7465
  561MOL0     C73935   9.744   5.419   5.598  0.0454 -0.5991  0.1444
  561MOL0     C73936   9.812   5.357   5.712  0.0680 -0.1913  0.6516
  561MOL0     N73937   9.782   5.415   5.845  0.5173  0.1713  0.3103
  561MOL0     C73938   9.670   5.392   5.921 -0.8334 -0.4826 -1.0192
  561MOL0     C73939   9.700   5.436   6.044 -0.6927 -1.6183  0.8180
  561MOL0     C73940   9.645   5.426   6.180  1.2090  0.6350 -1.0589
  561MOL0     C73941   9.673   5.294   6.255  1.0768 -0.2695  0.5471
  561MOL0     C73942   9.589   5.184   6.198 -0.2782  1.1868  0.1556
  561MOL0     C73943   9.442   5.191   6.240  0.1335  0.0332  0.3080
  561MOL0     O73944   9.376   5.071   6.208 -0.0997  0.7949 -0.5684
  561MOL0     C73945   9.250   5.034   6.249  1.1305 -1.0953  0.7556
  561MOL0     C73946   9.188   4.943   6.166 -0.2384  0.1387  0.6901
  561MOL0     C73947   9.062   4.896   6.180 -0.6418 -0.1373  0.5452
  561MOL0     C73948   8.979   4.955   6.283 -0.1733  0.5041  0.1595
  561MOL0     C73949   8.846   4.894   6.307  0.3261 -0.6796 -0.0103
  561MOL0     O73950   8.833   4.767   6.269 -0.1087 -0.6559 -0.0868
  561MOL0     C73951   8.721   4.689   6.304  0.1722 -0.6185 -0.1844
  561MOL0     C73952   8.726   4.559   6.360 -0.2739 -0.7038 -0.1312
  561MOL0     C73953   8.614   4.491   6.403 -0.9381 -0.0150 -0.1149
  561MOL0     C73954   8.488   4.551   6.391  0.1634 -0.0804 -0.0564
  561MOL0     O73955   8.369   4.490   6.432  0.2652 -0.2250  0.2546
  561MOL0     C73956   8.360   4.434   6.563 -0.3680 -0.7032 -0.5487
  561MOL0     C73957   8.219   4.376   6.578 -0.6242  0.2219  0.3304
  561MOL0     C73958   8.104   4.467   6.640 -0.5433 -0.4358 -1.1434
  561MOL0     C73959   7.962   4.419   6.592 -0.6679 -0.4655 -0.1954
  561MOL0     C73960   7.844   4.513   6.627  0.2103  0.6376  0.1461
  561MOL0     C73961   7.799   4.494   6.782  0.4275 -0.5425  0.9166
  561MOL0     C73962   7.687   4.594   6.826  0.5685  0.5541 -0.8229
  561MOL0     C73963   7.622   4.561   6.960 -0.7543 -0.6040  0.1307
  561MOL0    Cl73964   7.489   4.687   6.995  0.0559  0.2552 -0.1994
  561MOL0     C73965   8.487   4.679   6.341  0.4055 -0.1178  0.6769
  561MOL0     C73966   8.595   4.749   6.288  0.3353  0.2853 -1.2403
  561MOL0     O73967   8.766   4.971   6.364 -0.2105  0.1477  0.1437
  561MOL0     C73968   9.033   5.051   6.368  0.6372  1.0804 -0.3427
  561MOL0     C73969   9.170   5.091   6.350  1.0825 -0.8017 -0.4449
  561MOL0     N73970   9.827   5.496   6.034 -0.0343  0.0427 -0.5313
  561MOL0     N73971   9.880   5.483   5.920  0.3073 -0.4607 -0.0629
  561MOL0     C73972   9.674   5.756   4.798 -0.0463 -1.5448  0.3182
  561MOL0     C73973   9.630   5.683   4.688  0.0195 -0.0362 -0.4846
  561MOL0     C73974   9.529   5.423   4.362  0.3498 -0.1228  0.1699
  561MOL0     C73975   9.446   5.326   4.426 -0.9955  0.5144  0.6250
  561MOL0     C73976   9.389   5.221   4.358  1.7134  0.2281  0.1713
  561MOL0     C73977   9.388   5.216   4.221  1.0865  0.3961 -0.2005
  561MOL0     O73978   9.311   5.120   4.154 -0.2247  0.3708 -0.6781
  561MOL0     C73979   9.187   5.163   4.104  0.0968  0.3814  0.0378
  561MOL0     C73980   9.098   5.044   4.061  0.3946 -0.7211 -0.4417
  561MOL0     C73981   9.058   4.958   4.183  0.3026 -0.0521  0.4270
  561MOL0     C73982   8.923   4.889   4.142  1.5343 -0.6951  0.5941
  561MOL0     C73983   8.886   4.792   4.243 -1.0176  0.3977  0.0853
  561MOL0     C73984   8.832   4.712   4.320  1.2441 -0.6262  0.2674
  561MOL0     C73985   9.454   5.323   4.154  0.1434  0.8925 -0.0582
  561MOL0     C73986   9.531   5.430   4.221 -0.2487 -0.6697  0.4942
  561MOL0     H73987   9.808   5.403   4.731 -0.7955 -0.0980 -2.5538
  561MOL0     H73988   9.887   5.539   4.950  1.0193  4.1025  2.3896
  561MOL0     H73989   9.962   5.890   5.043  2.3858 -0.3933 -1.3367
  561MOL0     H73990   9.994   5.729   4.979 -1.4619 -2.2717 -0.0599
  561MOL0     H73991  10.037   5.758   5.213  0.9337 -0.1993 -2.3370
  561MOL0     H73992   9.910   5.630   5.184 -2.4632 -0.2156 -3.7115
  561MOL0     H73993   9.733   5.785   5.238 -1.5563  1.4943  1.2079
  561MOL0     H73994   9.850   5.919   5.274 -2.8502  0.5126  0.4171
  561MOL0     H73995   9.945   5.734   5.449  0.6439  0.2269 -0.9533
  561MOL0     H73996   9.796   5.817   5.488  1.8584 -0.6008  0.4924
  561MOL0     H73997   9.809   5.537   5.370 -1.7141  0.0130 -1.1086
  561MOL0     H73998   9.657   5.629   5.417 -0.6701 -2.4672  1.1604
  561MOL0     H73999   9.740   5.631   5.647 -2.1581  0.3459 -0.5167
  561MOL0     H74000   9.898   5.572   5.594 -0.6692  3.7581  1.7782
  561MOL0     H74001   9.635   5.422   5.602  0.0074 -1.8798  0.5921
  561MOL0     H74002   9.776   5.354   5.517  0.3129  0.4021 -0.5749
  561MOL0     H74003   9.919   5.355   5.688 -0.5318  4.0052 -3.9451
  561MOL0     H74004   9.768   5.256   5.711 -0.8813  0.2108 -0.1908
  561MOL0     H74005   9.586   5.324   5.907 -0.4245 -1.4067  0.7124
  561MOL0     H74006   9.535   5.431   6.181  1.1129 -0.8657 -0.9293
  561MOL0     H74007   9.694   5.506   6.235  0.4367  2.3328 -2.7498
  561MOL0     H74008   9.645   5.309   6.360  0.2027  0.0821  0.2715
  561MOL0     H74009   9.778   5.273   6.233  0.5274  0.6322 -3.7525
  561MOL0     H74010   9.597   5.168   6.090  1.5380 -0.2129  0.4522
  561MOL0     H74011   9.623   5.099   6.259  2.0380  2.0262  0.1287
  561MOL0     H74012   9.390   5.267   6.179 -2.4922 -2.7938 -1.2919
  561MOL0     H74013   9.430   5.214   6.346  2.4901 -2.0872  1.1229
  561MOL0     H74014   9.254   4.909   6.086  0.6596 -2.4352  2.4029
  561MOL0     H74015   9.032   4.822   6.108 -1.7329  2.7743 -2.2323
  561MOL0     H74016   8.825   4.515   6.367  0.5635  0.5330 -2.6470
  561MOL0     H74017   8.625   4.395   6.453  0.2757 -0.0465 -0.4026
  561MOL0     H74018   8.392   4.501   6.643  1.2009  0.1501 -1.8533
  561MOL0     H74019   8.437   4.357   6.579 -1.9354 -1.9332  1.7270
  561MOL0     H74020   8.236   4.291   6.644  0.4445 -0.1281 -0.3695
  561MOL0     H74021   8.197   4.324   6.484 -0.1706 -1.6702  1.2231
  561MOL0     H74022   8.123   4.574   6.633  4.4342 -1.0123 -0.6839
  561MOL0     H74023   8.117   4.457   6.749 -1.3723  1.0739 -0.8832
  561MOL0     H74024   7.965   4.400   6.485  0.4686 -0.6904 -0.1373
  561MOL0     H74025   7.962   4.325   6.647  1.1531  0.8548  2.2869
  561MOL0     H74026   7.759   4.493   6.562  0.7293  1.9016 -0.9644
  561MOL0     H74027   7.863   4.616   6.595 -0.6923 -0.6703 -5.6587
  561MOL0     H74028   7.889   4.524   6.836  1.3176 -0.2633 -0.6343
  561MOL0     H74029   7.768   4.392   6.804  1.9616 -1.6157 -1.4722
  561MOL0     H74030   7.729   4.695   6.817 -0.7960  1.4542  1.9667
  561MOL0     H74031   7.610   4.583   6.748 -2.7408  1.0892  2.1301
  561MOL0     H74032   7.693   4.582   7.040  0.4314 -0.0574 -1.0454
  561MOL0     H74033   7.581   4.460   6.971 -2.4319  0.3020  3.3837
  561MOL0     H74034   8.387   4.711   6.314  1.6778  1.3205 -3.0107
  561MOL0     H74035   8.601   4.848   6.244  3.0635  0.8137  0.1111
  561MOL0     H74036   8.981   5.074   6.461  2.2407 -0.1828  0.9184
  561MOL0     H74037   9.199   5.175   6.412 -3.3220  1.4235 -0.9886
  561MOL0     H74038   9.633   5.854   4.822  3.7018  0.4166 -0.6064
  561MOL0     H74039   9.539   5.695   4.630  0.5766  0.0161 -1.3632
  561MOL0     H74040   9.420   5.331   4.531 -0.7704 -0.4983  0.7411
  561MOL0     H74041   9.338   5.142   4.412  1.7629  0.3040  0.3323
  561MOL0     H74042   9.191   5.228   4.017  0.3522  1.9075  1.1490
  561MOL0     H74043   9.138   5.226   4.180  1.2371 -1.1415  2.1579
  561MOL0     H74044   9.013   5.080   4.003  0.9040  0.5570 -0.4298
  561MOL0     H74045   9.161   4.987   3.991 -1.6265 -2.0807 -1.2267
  561MOL0     H74046   9.038   5.031   4.262 -0.9097  1.4136 -1.1253
  561MOL0     H74047   9.130   4.883   4.216  0.7486  1.5012  3.3258
  561MOL0     H74048   8.849   4.970   4.140  2.2724  0.1882  3.3722
  561MOL0     H74049   8.926   4.842   4.044  1.3284 -0.4671  0.4790
  561MOL0     H74050   8.772   4.645   4.377 -1.9364  1.1560 -0.7273
  561MOL0     H74051   9.451   5.326   4.045 -0.1440  2.4920 -0.0349
  561MOL0     H74052   9.577   5.505   4.158  0.2852 -2.9157 -1.9787
  562MOL0     O74053   3.350   4.784   2.284 -0.0736 -0.5462  0.4275
  562MOL0     C74054   3.300   4.723   2.190 -0.2294  0.9184  0.8936
  562MOL0     O74055   3.172   4.676   2.176 -0.5785  0.2384 -0.0342
  562MOL0     C74056   3.072   4.700   2.269  0.0536 -0.2381 -0.2201
  562MOL0     C74057   3.065   4.820   2.339  0.4956  0.5537  0.0811
  562MOL0     C74058   2.952   4.836   2.424  0.0215  0.3569 -0.4367
  562MOL0     C74059   2.849   4.741   2.434 -1.1543  0.9418  0.4640
  562MOL0     O74060   2.737   4.777   2.501  0.5016  1.1178 -0.5643
  562MOL0     C74061   2.705   4.715   2.630 -0.6750 -0.7231  0.6274
  562MOL0     C74062   2.605   4.594   2.619  0.3138 -0.1982 -1.1877
  562MOL0     C74063   2.671   4.460   2.648 -0.5710 -0.3971  0.3641
  562MOL0     C74064   2.589   4.344   2.597 -0.4824  0.0219  0.4141
  562MOL0     C74065   2.639   4.212   2.664  0.4617 -1.1593  1.8006
  562MOL0     C74066   2.627   4.084   2.583  0.5398 -0.3774 -0.0528
  562MOL0     C74067   2.726   4.069   2.468 -0.3556  0.8820  0.3328
  562MOL0     C74068   2.887   4.056   2.493  0.6683 -0.1329 -0.1282
  562MOL0     N74069   2.947   4.189   2.476  0.6423 -0.5875 -0.3654
  562MOL0     C74070   2.985   4.278   2.582  0.2199 -0.0972  0.2556
  562MOL0     C74071   3.067   4.368   2.530  0.0503 -0.9941 -0.3437
  562MOL0     C74072   3.118   4.484   2.618 -0.0169 -0.7180  0.9737
  562MOL0     C74073   3.235   4.568   2.558 -0.8740  0.7692 -0.2493
  562MOL0     C74074   3.372   4.494   2.560  0.1438 -0.3321  0.4560
  562MOL0     C74075   3.400   4.427   2.421 -0.9091 -0.1191  0.6085
  562MOL0     O74076   3.502   4.338   2.457 -0.6711  0.4111 -0.4833
  562MOL0     C74077   3.573   4.292   2.353  0.7734  0.4559  1.0987
  562MOL0     C74078   3.700   4.253   2.392 -0.0768  0.2638  0.1680
  562MOL0     C74079   3.801   4.230   2.305  0.6868 -0.5750  0.7838
  562MOL0     C74080   3.777   4.229   2.169  0.6852  0.8470 -0.9004
  562MOL0     C74081   3.889   4.210   2.076 -0.3794 -0.8500 -0.1215
  562MOL0     O74082   3.982   4.114   2.113 -0.5771 -0.3404 -0.0425
  562MOL0     C74083   4.103   4.112   2.052 -0.7870  0.0824 -1.2551
  562MOL0     C74084   4.183   4.228   2.024  0.1836  0.5275 -0.7747
  562MOL0     C74085   4.301   4.222   1.959  0.2977 -0.3138 -1.0499
  562MOL0     C74086   4.351   4.097   1.919  0.2049  0.6140  0.2971
  562MOL0     O74087   4.471   4.079   1.853 -0.1348  0.6907  0.8200
  562MOL0     C74088   4.571   4.184   1.866  0.4748  0.1638 -0.6417
  562MOL0     C74089   4.573   4.293   1.761 -0.5708  0.9773 -0.2725
  562MOL0     C74090   4.707   4.354   1.756 -0.3364  0.5630  0.2823
  562MOL0     C74091   4.730   4.473   1.844 -0.5844 -0.1395 -0.8742
  562MOL0     C74092   4.879   4.521   1.814  0.5293  0.0601 -1.0861
  562MOL0     C74093   4.887   4.594   1.676  0.1685 -0.0975 -1.1259
  562MOL0     C74094   5.032   4.630   1.639 -0.2769  0.1399 -0.6607
  562MOL0     C74095   5.049   4.762   1.588  0.0404 -0.0355 -0.5578
  562MOL0    Cl74096   5.051   4.881   1.729  0.0197 -0.2216 -0.1968
  562MOL0     C74097   4.270   3.981   1.940 -0.6512 -0.2426 -0.5960
  562MOL0     C74098   4.154   3.986   2.014 -0.6982 -0.7257 -0.6318
  562MOL0     O74099   3.883   4.287   1.976 -0.6295 -0.2976 -0.0792
  562MOL0     C74100   3.643   4.247   2.115  0.6379 -0.4521  0.4321
  562MOL0     C74101   3.539   4.278   2.213  1.1791  0.1063  0.8248
  562MOL0     N74102   3.082   4.339   2.399  0.2445  0.4752 -0.2453
  562MOL0     N74103   3.009   4.237   2.365 -0.2914  1.0419 -0.4656
  562MOL0     C74104   2.866   4.621   2.369  1.1298  1.2245  0.2731
  562MOL0     C74105   2.980   4.603   2.279  0.0725  0.7806 -0.0503
  562MOL0     C74106   3.391   4.690   2.086  0.0770  0.4089 -0.3062
  562MOL0     C74107   3.503   4.766   2.054  0.1977  0.1486 -0.8182
  562MOL0     C74108   3.595   4.733   1.958  0.0381 -0.0402  0.3150
  562MOL0     C74109   3.582   4.609   1.897  0.4923  1.0752 -0.4683
  562MOL0     O74110   3.683   4.555   1.825 -0.1360  0.2592 -0.0264
  562MOL0     C74111   3.730   4.639   1.721 -0.5578 -0.1939 -0.4664
  562MOL0     C74112   3.820   4.562   1.621  0.3075  0.4145  0.0383
  562MOL0     C74113   3.829   4.622   1.482  0.9695  0.5919  0.5872
  562MOL0     C74114   3.941   4.544   1.409 -0.0563 -0.7038  0.6140
  562MOL0     C74115   3.980   4.592   1.274  1.2100  0.4667 -0.3386
  562MOL0     C74116   4.012   4.599   1.156  0.1150 -0.4331 -1.0102
  562MOL0     C74117   3.476   4.532   1.913  0.8998  0.7701 -0.7505
  562MOL0     C74118   3.368   4.571   2.008 -1.0458 -0.2642  1.0012
  562MOL0     H74119   3.137   4.896   2.310  0.3632 -0.7993 -4.6636
  562MOL0     H74120   2.949   4.933   2.472 -1.7949 -0.3064  0.8947
  562MOL0     H74121   2.660   4.787   2.699  0.0069  0.7207 -0.3886
  562MOL0     H74122   2.803   4.698   2.677 -0.6754  0.9078  1.2957
  562MOL0     H74123   2.550   4.597   2.525 -1.3769 -0.4009 -0.2311
  562MOL0     H74124   2.527   4.607   2.695 -0.9417 -2.1315 -2.0955
  562MOL0     H74125   2.708   4.448   2.751  2.6874  1.3192 -0.4834
  562MOL0     H74126   2.765   4.443   2.594  1.1597 -0.3474  3.1516
  562MOL0     H74127   2.484   4.369   2.612  0.1159  4.7954 -1.4861
  562MOL0     H74128   2.610   4.346   2.489 -0.9049  4.3239  0.2369
  562MOL0     H74129   2.576   4.207   2.753 -2.2897 -0.0560  0.0354
  562MOL0     H74130   2.743   4.236   2.687  0.8039 -0.0891 -0.5688
  562MOL0     H74131   2.525   4.084   2.545  0.8368 -0.2996 -0.8645
  562MOL0     H74132   2.629   3.993   2.644  0.3136 -0.0107  0.5095
  562MOL0     H74133   2.691   3.975   2.425  0.2189  0.6594  0.3418
  562MOL0     H74134   2.708   4.141   2.387 -1.2105 -1.2538 -1.4758
  562MOL0     H74135   2.942   3.978   2.439  3.5400  1.0644  0.8954
  562MOL0     H74136   2.907   4.023   2.595  0.3599 -0.6761 -0.2380
  562MOL0     H74137   2.947   4.276   2.684 -0.4738  1.1160  0.0426
  562MOL0     H74138   3.146   4.437   2.713  0.9052 -1.8161  0.1931
  562MOL0     H74139   3.034   4.554   2.618 -0.6463 -1.4202 -0.7432
  562MOL0     H74140   3.244   4.649   2.631  0.8485 -0.0414  0.4831
  562MOL0     H74141   3.209   4.627   2.469 -0.8708  3.9714  1.7026
  562MOL0     H74142   3.458   4.559   2.582 -1.0420  0.3313  3.5249
  562MOL0     H74143   3.357   4.409   2.627  0.1942 -1.6097 -1.0956
  562MOL0     H74144   3.429   4.494   2.340 -2.0804 -2.5331 -1.9749
  562MOL0     H74145   3.315   4.369   2.384 -0.3102  1.0350 -2.9664
  562MOL0     H74146   3.724   4.243   2.498 -0.6591  0.3621  0.3131
  562MOL0     H74147   3.897   4.216   2.354  1.3301 -3.0856 -1.0412
  562MOL0     H74148   4.145   4.324   2.058  2.3474  0.4453  2.2951
  562MOL0     H74149   4.351   4.317   1.942 -4.0266  2.5176  0.4029
  562MOL0     H74150   4.661   4.126   1.844  0.0175 -1.2203  0.9562
  562MOL0     H74151   4.571   4.207   1.973 -0.8007  0.7375 -0.7475
  562MOL0     H74152   4.484   4.357   1.764 -0.2100  1.4603  1.9644
  562MOL0     H74153   4.571   4.244   1.663  2.9463  2.2613 -1.1483
  562MOL0     H74154   4.725   4.390   1.655 -1.7211  0.9587  0.1570
  562MOL0     H74155   4.786   4.283   1.784 -1.0233 -0.1725  0.4051
  562MOL0     H74156   4.667   4.561   1.831 -0.2398  0.5576  1.6090
  562MOL0     H74157   4.723   4.444   1.949  2.3535 -0.4458 -0.6731
  562MOL0     H74158   4.943   4.433   1.802 -0.3810 -0.5877 -1.2414
  562MOL0     H74159   4.905   4.591   1.895  0.1163  1.3758 -2.0500
  562MOL0     H74160   4.819   4.679   1.671 -0.4651 -0.6188 -1.5833
  562MOL0     H74161   4.856   4.533   1.591  0.9813  0.7182 -2.0301
  562MOL0     H74162   5.096   4.623   1.728  0.7019  2.2487 -1.1429
  562MOL0     H74163   5.073   4.554   1.572  1.8006  0.1977  0.4474
  562MOL0     H74164   4.972   4.791   1.515 -1.0018 -1.3294 -0.0127
  562MOL0     H74165   5.149   4.772   1.546  1.3307 -0.5466  2.1689
  562MOL0     H74166   4.300   3.882   1.907  2.2802  0.6748 -1.0111
  562MOL0     H74167   4.093   3.903   2.049 -2.2622  0.6762  0.1332
  562MOL0     H74168   3.641   4.245   2.007  3.6910 -2.3258  0.2901
  562MOL0     H74169   3.442   4.306   2.172  0.8940  0.9589  2.0059
  562MOL0     H74170   2.796   4.537   2.375  1.4611  0.8649 -0.7348
  562MOL0     H74171   3.002   4.512   2.225  2.4963  1.1297  0.2447
  562MOL0     H74172   3.522   4.865   2.094 -0.0269  0.0572 -0.4818
  562MOL0     H74173   3.674   4.796   1.919 -1.1600  0.4809 -1.3443
  562MOL0     H74174   3.782   4.725   1.763 -2.7760  2.1382 -2.1742
  562MOL0     H74175   3.643   4.671   1.662 -0.9905 -1.9672 -0.8446
  562MOL0     H74176   3.916   4.563   1.673  0.6383  1.2866 -0.5697
  562MOL0     H74177   3.781   4.460   1.613 -0.1408  0.3514  2.4183
  562MOL0     H74178   3.855   4.728   1.498 -1.3288  1.3204 -0.1902
  562MOL0     H74179   3.735   4.616   1.428  1.0985  1.3682  0.2546
  562MOL0     H74180   4.034   4.544   1.466  1.3971 -0.6337 -1.6387
  562MOL0     H74181   3.910   4.440   1.397 -0.6617 -0.5419  0.7130
  562MOL0     H74182   4.060   4.621   1.063 -0.0199  1.9749 -0.5726
  562MOL0     H74183   3.476   4.449   1.843  0.5312 -0.2776  0.4554
  562MOL0     H74184   3.282   4.504   2.001 -0.6376 -0.6110 -2.3953
  563MOL0     O74185   0.363   9.940  10.956 -0.1959 -0.7348  0.4787
  563MOL0     C74186   0.398  10.032  10.887  0.7456  0.2512 -0.1643
  563MOL0     O74187   0.329  10.151  10.880 -1.1232 -1.1023  1.3892
  563MOL0     C74188   0.211  10.153  10.929  0.2485 -0.5978 -0.6139
  563MOL0     C74189   0.103  10.122  10.844 -0.4429 -0.3662  0.0198
  563MOL0     C74190  -0.025  10.120  10.904  0.1477  0.1951 -0.7391
  563MOL0     C74191  -0.055  10.147  11.035 -0.2920 -0.9230 -0.6042
  563MOL0     O74192  -0.182  10.142  11.092  0.2453  0.7643  0.0537
  563MOL0     C74193  -0.293  10.114  11.004 -0.0457 -0.5717 -0.2462
  563MOL0     C74194  -0.428  10.145  11.065  0.6449 -0.3206  0.3642
  563MOL0     C74195  -0.437  10.118  11.215  0.2203  0.2824 -0.1516
  563MOL0     C74196  -0.576  10.112  11.268  0.2805  0.3663 -0.6624
  563MOL0     C74197  -0.662   9.995  11.207 -0.9409 -0.4726 -0.9271
  563MOL0     C74198  -0.604   9.865  11.273 -0.2025 -0.0967  0.3874
  563MOL0     C74199  -0.717   9.762  11.278  0.7004  0.6633 -0.9301
  563MOL0     C74200  -0.659   9.620  11.265 -0.0283 -0.0697  0.4052
  563MOL0     N74201  -0.599   9.557  11.379  0.6555 -1.1661  0.1790
  563MOL0     C74202  -0.469   9.559  11.412 -1.6945  0.5107  0.2572
  563MOL0     C74203  -0.469   9.510  11.537 -1.1566 -0.3822 -0.2046
  563MOL0     C74204  -0.364   9.474  11.641 -0.6611  1.0581  0.4069
  563MOL0     C74205  -0.343   9.321  11.646 -0.0991 -0.1456 -0.7386
  563MOL0     C74206  -0.203   9.284  11.606  0.5931  0.1248 -0.6458
  563MOL0     C74207  -0.170   9.122  11.629 -0.0212  0.2284  0.0128
  563MOL0     O74208  -0.224   9.106  11.757  0.6143 -0.0161  0.7129
  563MOL0     C74209  -0.193   8.992  11.828 -0.9225  0.2137  0.0636
  563MOL0     C74210  -0.286   8.969  11.929 -0.2305 -0.1954 -0.9844
  563MOL0     C74211  -0.280   8.847  12.007 -0.2212 -0.1286  0.3282
  563MOL0     C74212  -0.174   8.756  11.987 -0.0743 -0.6215  0.5537
  563MOL0     C74213  -0.152   8.644  12.077  0.6787 -0.3908  1.1962
  563MOL0     O74214  -0.081   8.543  12.026  0.3494  0.4010  0.8337
  563MOL0     C74215  -0.074   8.427  12.115 -0.1459 -0.5424 -0.3145
  563MOL0     C74216  -0.121   8.310  12.063  0.6580  1.4073  0.1742
  563MOL0     C74217  -0.117   8.185  12.137  0.9904 -0.0123 -0.2860
  563MOL0     C74218  -0.057   8.182  12.262  0.5221 -0.0315 -0.3603
  563MOL0     O74219  -0.034   8.071  12.340  0.7612 -0.1538  1.3608
  563MOL0     C74220  -0.032   7.946  12.273  1.3020  0.3956  0.5922
  563MOL0     C74221   0.013   7.817  12.352 -0.0774 -0.9342  0.4880
  563MOL0     C74222  -0.075   7.788  12.474  0.2519  1.0136 -0.6070
  563MOL0     C74223  -0.211   7.734  12.437  0.2632 -0.5348  0.3944
  563MOL0     C74224  -0.266   7.632  12.534  0.5362 -0.1860 -0.2982
  563MOL0     C74225  -0.348   7.510  12.478 -0.2938  0.4433  0.6181
  563MOL0     C74226  -0.369   7.414  12.607 -0.0252  0.2799  0.3837
  563MOL0     C74227  -0.436   7.298  12.540  1.5644 -0.5751  0.7353
  563MOL0    Cl74228  -0.442   7.147  12.660  0.1921  0.0174  0.6629
  563MOL0     C74229  -0.003   8.303  12.318  0.0902 -0.3864  0.0298
  563MOL0     C74230  -0.010   8.423  12.239 -0.3135 -0.0116 -0.6439
  563MOL0     O74231  -0.213   8.637  12.185 -0.3248  0.0717 -0.7128
  563MOL0     C74232  -0.077   8.788  11.886  0.5450  0.0802 -0.2463
  563MOL0     C74233  -0.091   8.897  11.808 -0.7895  0.0812  0.4086
  563MOL0     N74234  -0.597   9.486  11.584 -0.3309 -0.3336  0.5164
  563MOL0     N74235  -0.679   9.518  11.488  0.4385  0.1252  0.7167
  563MOL0     C74236   0.050  10.178  11.117  0.3418 -0.3366  0.1889
  563MOL0     C74237   0.180  10.187  11.069  0.2823 -0.1743 -0.1005
  563MOL0     C74238   0.513  10.005  10.808 -0.1554 -0.0047  0.6663
  563MOL0     C74239   0.575   9.882  10.814  0.1097  0.5107  0.0133
  563MOL0     C74240   0.693   9.866  10.756  0.3805 -0.3259  0.3343
  563MOL0     C74241   0.753   9.965  10.679 -0.3712 -0.1214 -0.2725
  563MOL0     O74242   0.872   9.944  10.621 -0.0967 -0.2832  0.2630
  563MOL0     C74243   0.956  10.040  10.552  0.6931  0.6796 -0.6666
  563MOL0     C74244   0.908  10.055  10.402  0.1861  1.0096 -0.0504
  563MOL0     C74245   0.986   9.984  10.302  0.6395  0.3932  0.6567
  563MOL0     C74246   1.124  10.053  10.275  0.0431  0.7432  0.8589
  563MOL0     C74247   1.108  10.171  10.196 -0.2702 -0.9498 -0.0603
  563MOL0     C74248   1.106  10.280  10.146 -0.0217  0.1955  0.2379
  563MOL0     C74249   0.681  10.084  10.653 -0.5213 -0.0250 -0.2256
  563MOL0     C74250   0.567  10.105  10.719  0.2530 -0.4946 -0.2378
  563MOL0     H74251   0.113  10.104  10.737 -3.1959  2.6218 -0.9151
  563MOL0     H74252  -0.101  10.079  10.839  0.8837 -2.9748  0.2519
  563MOL0     H74253  -0.283  10.007  10.981  2.4739 -0.6223  0.7170
  563MOL0     H74254  -0.279  10.176  10.915  1.3312  1.5097  1.3382
  563MOL0     H74255  -0.512  10.096  11.016  0.3440  0.6777 -0.1381
  563MOL0     H74256  -0.429  10.254  11.061  3.7379 -0.1476  1.2425
  563MOL0     H74257  -0.391  10.195  11.278  0.6382  1.1495 -1.4826
  563MOL0     H74258  -0.381  10.029  11.245  1.2810  0.5470 -1.2674
  563MOL0     H74259  -0.570  10.106  11.377  1.0188  2.5059 -0.5481
  563MOL0     H74260  -0.625  10.208  11.250 -1.3368 -0.6557 -2.0717
  563MOL0     H74261  -0.661   9.988  11.098  3.1882  1.7606 -1.2172
  563MOL0     H74262  -0.759  10.020  11.252  1.2902 -0.0512  4.4445
  563MOL0     H74263  -0.564   9.875  11.374 -4.7389 -0.0265  2.4451
  563MOL0     H74264  -0.529   9.825  11.205  0.5631  1.4934  0.2497
  563MOL0     H74265  -0.772   9.782  11.370  2.1854  3.1586 -0.4783
  563MOL0     H74266  -0.798   9.790  11.210  0.4481 -0.0085 -0.9052
  563MOL0     H74267  -0.584   9.605  11.187  3.4616  1.5492  3.1629
  563MOL0     H74268  -0.749   9.561  11.244  0.9824 -2.1298  1.5255
  563MOL0     H74269  -0.383   9.599  11.359 -1.0599 -0.6174  0.4055
  563MOL0     H74270  -0.407   9.508  11.736 -1.9271 -0.8238  0.5602
  563MOL0     H74271  -0.272   9.521  11.607  0.9075 -2.0512  0.0596
  563MOL0     H74272  -0.418   9.267  11.588  0.5700 -1.1586 -0.6961
  563MOL0     H74273  -0.365   9.295  11.750  1.2258 -0.6740 -0.5682
  563MOL0     H74274  -0.189   9.296  11.498 -1.1587 -3.1746 -1.3654
  563MOL0     H74275  -0.125   9.332  11.666  2.5020 -2.4524 -0.8911
  563MOL0     H74276  -0.064   9.105  11.646 -0.0992 -2.2146 -1.4076
  563MOL0     H74277  -0.207   9.049  11.557  0.0784  2.2492 -2.1907
  563MOL0     H74278  -0.367   9.036  11.958 -1.9300 -2.4623 -0.1392
  563MOL0     H74279  -0.356   8.823  12.081  1.3620 -1.3848  1.6121
  563MOL0     H74280  -0.165   8.298  11.965 -0.5289  2.6093  0.5314
  563MOL0     H74281  -0.145   8.094  12.085  0.8174  0.4702 -1.0501
  563MOL0     H74282   0.046   7.954  12.197  3.6511  0.5468  2.8620
  563MOL0     H74283  -0.133   7.928  12.236  0.3474  2.6994  1.8624
  563MOL0     H74284   0.114   7.844  12.384 -0.2907  0.0758  0.3406
  563MOL0     H74285   0.008   7.732  12.283 -2.7632 -0.7469  0.3648
  563MOL0     H74286  -0.089   7.881  12.530 -2.9504  0.8951 -1.0450
  563MOL0     H74287  -0.018   7.714  12.532 -2.6124 -0.1367  0.9625
  563MOL0     H74288  -0.289   7.811  12.433  0.9252  0.3749  2.9139
  563MOL0     H74289  -0.198   7.682  12.342 -1.7593 -1.4458  0.5658
  563MOL0     H74290  -0.334   7.689  12.599 -0.1306 -1.3998  0.0920
  563MOL0     H74291  -0.188   7.613  12.608  0.2811 -0.8499 -0.1895
  563MOL0     H74292  -0.290   7.456  12.403  3.7172  1.9552  2.3703
  563MOL0     H74293  -0.434   7.556  12.428  0.2771  1.2052  0.3293
  563MOL0     H74294  -0.287   7.387  12.675  0.8629 -0.1193 -0.8255
  563MOL0     H74295  -0.442   7.452  12.679  1.0281 -0.0550  1.6740
  563MOL0     H74296  -0.385   7.281  12.444  1.5184  4.8015 -0.5809
  563MOL0     H74297  -0.538   7.330  12.518  1.8451  0.8271  1.3405
  563MOL0     H74298   0.051   8.305  12.412 -0.4542 -2.1647  0.4078
  563MOL0     H74299   0.043   8.512  12.269  1.0288 -0.0273 -2.7413
  563MOL0     H74300   0.012   8.730  11.865 -1.3389 -2.8929 -0.6463
  563MOL0     H74301  -0.014   8.921  11.735 -0.1325  2.1528  1.7211
  563MOL0     H74302   0.049  10.213  11.220  0.6957  3.8426 -1.0762
  563MOL0     H74303   0.256  10.221  11.139  1.5117 -1.2201 -0.8695
  563MOL0     H74304   0.519   9.802  10.862  0.6520 -2.8348 -4.3556
  563MOL0     H74305   0.743   9.770  10.749 -0.9053 -0.9576 -0.4242
  563MOL0     H74306   1.055   9.993  10.552  1.5526  2.3808  1.0036
  563MOL0     H74307   0.962  10.137  10.601  1.1808  0.4326 -0.2211
  563MOL0     H74308   0.806  10.016  10.399 -0.6871  3.2331 -1.0602
  563MOL0     H74309   0.894  10.156  10.364 -2.5537  0.3219 -1.0728
  563MOL0     H74310   0.935   9.989  10.206  0.4627 -0.6974  0.6775
  563MOL0     H74311   1.005   9.880  10.332 -2.6223 -0.4602  0.1559
  563MOL0     H74312   1.161  10.094  10.369 -3.3561  2.0520  1.7643
  563MOL0     H74313   1.194   9.987  10.222 -1.0057  0.1325  0.2129
  563MOL0     H74314   1.098  10.380  10.110  0.4902  0.3298  0.4968
  563MOL0     H74315   0.723  10.157  10.584  2.1957 -2.1754 -1.0039
  563MOL0     H74316   0.511  10.197  10.703  0.0949 -0.8660 -2.0409
  564MOL0     O74317   6.408   9.941   1.847 -0.3415 -0.5898 -0.7362
  564MOL0     C74318   6.441   9.978   1.737 -0.6028  0.2679 -0.0746
  564MOL0     O74319   6.446   9.893   1.627 -0.5375  0.1606  0.7681
  564MOL0     C74320   6.377   9.771   1.641  0.2050  0.2925 -0.9881
  564MOL0     C74321   6.455   9.657   1.644 -0.0538  0.1809 -0.7439
  564MOL0     C74322   6.402   9.528   1.676  0.5573 -0.1679 -0.2325
  564MOL0     C74323   6.260   9.521   1.697 -0.9678  0.8068 -0.2328
  564MOL0     O74324   6.195   9.396   1.698 -1.2225 -0.7999 -0.2834
  564MOL0     C74325   6.259   9.269   1.688  0.3392 -0.3110 -0.0949
  564MOL0     C74326   6.146   9.164   1.687  0.0210  0.1904 -0.8193
  564MOL0     C74327   6.181   9.009   1.687  0.1437 -0.5400 -0.2322
  564MOL0     C74328   6.280   8.971   1.578  0.6210 -0.2438 -0.5919
  564MOL0     C74329   6.248   8.835   1.520  0.8152 -0.0514  0.1711
  564MOL0     C74330   6.348   8.775   1.422  0.4552 -0.2705 -0.2264
  564MOL0     C74331   6.345   8.861   1.293  0.2826  0.6182 -0.1367
  564MOL0     C74332   6.423   8.798   1.181  0.1548 -0.1851 -0.0637
  564MOL0     N74333   6.560   8.790   1.221  0.4686  0.4444 -0.4217
  564MOL0     C74334   6.626   8.685   1.261 -0.2644 -0.2066  0.0932
  564MOL0     C74335   6.760   8.717   1.258 -0.2573  0.7937 -1.0993
  564MOL0     C74336   6.867   8.624   1.306  0.0277 -0.5630  0.8257
  564MOL0     C74337   7.006   8.671   1.278 -0.2190  0.0988 -0.2117
  564MOL0     C74338   7.110   8.597   1.360 -0.6609  0.4892  0.4741
  564MOL0     C74339   7.251   8.659   1.349  0.0091  0.5903  0.1558
  564MOL0     O74340   7.250   8.772   1.439  0.0017  0.2290  0.5283
  564MOL0     C74341   7.372   8.839   1.438  0.3587 -0.5651 -0.6505
  564MOL0     C74342   7.360   8.967   1.474 -0.2363  0.9559  0.3250
  564MOL0     C74343   7.473   9.050   1.472  0.9100 -0.4954  0.6605
  564MOL0     C74344   7.598   9.005   1.440  0.5211  0.4628  0.0393
  564MOL0     C74345   7.708   9.095   1.445 -0.7073 -0.1215  0.3555
  564MOL0     O74346   7.689   9.217   1.390  0.7345 -0.1004 -0.1692
  564MOL0     C74347   7.815   9.277   1.355  0.1453  0.5229  0.0458
  564MOL0     C74348   7.858   9.221   1.234  0.0700  1.0310  0.2866
  564MOL0     C74349   7.973   9.265   1.174 -0.2186 -0.4661 -0.3300
  564MOL0     C74350   8.054   9.363   1.241  0.7117  0.2686 -0.1453
  564MOL0     O74351   8.171   9.394   1.179 -0.3944  0.0898 -0.3357
  564MOL0     C74352   8.256   9.490   1.238 -0.4129  1.6304  0.2389
  564MOL0     C74353   8.370   9.521   1.133  0.6799 -0.5715 -0.3099
  564MOL0     C74354   8.445   9.387   1.105 -0.1706 -0.2399 -0.0222
  564MOL0     C74355   8.560   9.402   1.008 -0.3228  0.3185 -0.5328
  564MOL0     C74356   8.586   9.260   0.951  0.7446 -1.1205  0.6549
  564MOL0     C74357   8.715   9.266   0.875 -0.4576 -0.5930 -0.4616
  564MOL0     C74358   8.841   9.252   0.963 -0.1181  0.5709  0.5999
  564MOL0     C74359   8.946   9.344   0.923 -0.0200 -0.0038 -0.6484
  564MOL0    Cl74360   9.087   9.299   1.018 -0.0120 -0.1573  0.1062
  564MOL0     C74361   8.013   9.419   1.365  0.2585  1.7070  0.3843
  564MOL0     C74362   7.884   9.369   1.420 -1.2159 -1.5383 -0.8887
  564MOL0     O74363   7.809   9.065   1.511  0.4658 -0.3290 -0.7497
  564MOL0     C74364   7.617   8.871   1.403  0.6047  0.1644  0.1807
  564MOL0     C74365   7.504   8.792   1.407  0.6523  0.7066 -0.8838
  564MOL0     N74366   6.768   8.845   1.222  0.1192 -0.2732 -0.1553
  564MOL0     N74367   6.650   8.885   1.185  1.0703  0.2442 -0.5949
  564MOL0     C74368   6.185   9.635   1.679 -0.5203 -0.7398 -0.2550
  564MOL0     C74369   6.245   9.760   1.655 -0.2853 -0.1012  0.2453
  564MOL0     C74370   6.497  10.109   1.714 -0.1683  0.3393  0.1432
  564MOL0     C74371   6.539  10.142   1.586  0.7129  1.0267  0.3112
  564MOL0     C74372   6.598  10.261   1.557  0.1639 -0.6488 -0.9642
  564MOL0     C74373   6.611  10.354   1.658 -0.6576 -0.0402  0.2105
  564MOL0     O74374   6.658  10.474   1.618  0.6165 -0.5397 -0.8127
  564MOL0     C74375   6.707  10.574   1.704 -1.0312  0.9802  0.1385
  564MOL0     C74376   6.831  10.521   1.759 -0.1089  0.0675 -0.2306
  564MOL0     C74377   6.930  10.475   1.649 -0.8610 -0.3892  0.2580
  564MOL0     C74378   7.044  10.387   1.702  0.3696  0.2535  0.4781
  564MOL0     C74379   7.117  10.456   1.811  0.3047  0.1469 -0.1042
  564MOL0     C74380   7.131  10.523   1.912  0.2833 -0.6594 -0.1879
  564MOL0     C74381   6.583  10.315   1.784 -0.0413 -0.0296 -0.8038
  564MOL0     C74382   6.517  10.198   1.813 -0.1734  0.1013 -0.4520
  564MOL0     H74383   6.563   9.668   1.645 -0.2176  2.1910  0.7856
  564MOL0     H74384   6.474   9.446   1.676  0.4645 -0.2846 -1.7178
  564MOL0     H74385   6.325   9.248   1.773  1.6430  0.2287 -0.9316
  564MOL0     H74386   6.318   9.267   1.596 -1.5129  1.2808 -1.3868
  564MOL0     H74387   6.090   9.183   1.595 -1.5788  2.0410  0.4554
  564MOL0     H74388   6.075   9.173   1.770  0.4794  0.6490 -0.4669
  564MOL0     H74389   6.092   8.949   1.665  0.8712 -1.4485 -0.7690
  564MOL0     H74390   6.219   8.974   1.783  0.9494 -0.8852 -0.6698
  564MOL0     H74391   6.269   9.053   1.506  0.2125  0.5351  0.3389
  564MOL0     H74392   6.382   8.979   1.618  0.5965 -1.6739 -0.1943
  564MOL0     H74393   6.150   8.821   1.472  0.1060 -0.7108  1.7624
  564MOL0     H74394   6.246   8.770   1.608 -1.1363  1.1758  1.1147
  564MOL0     H74395   6.324   8.672   1.394 -0.8145 -0.0123 -0.1786
  564MOL0     H74396   6.445   8.780   1.472 -0.8626  1.8255  2.3983
  564MOL0     H74397   6.242   8.879   1.259  1.8328  3.0191 -4.3256
  564MOL0     H74398   6.393   8.956   1.318  0.8707  0.2707  0.0580
  564MOL0     H74399   6.407   8.865   1.095  0.1153  2.3193  1.7929
  564MOL0     H74400   6.391   8.696   1.156  0.4013 -0.1428 -0.5781
  564MOL0     H74401   6.579   8.590   1.285 -0.3402 -0.1463  0.1812
  564MOL0     H74402   6.842   8.531   1.254 -4.8622  1.6847 -1.4442
  564MOL0     H74403   6.859   8.624   1.415 -1.0826 -0.7243  0.7478
  564MOL0     H74404   7.012   8.778   1.299  0.4267  0.7142 -3.1075
  564MOL0     H74405   7.026   8.659   1.171  1.0662  0.8904 -0.0783
  564MOL0     H74406   7.065   8.596   1.460 -0.1093 -1.0163  0.7230
  564MOL0     H74407   7.119   8.494   1.327  1.3338  1.6112 -2.9579
  564MOL0     H74408   7.271   8.693   1.247  1.3394  1.8346  0.7850
  564MOL0     H74409   7.312   8.571   1.369 -0.3425  0.7723  2.2373
  564MOL0     H74410   7.263   9.011   1.494 -1.2392 -0.3564 -1.4086
  564MOL0     H74411   7.456   9.155   1.493  1.9401 -0.0080 -0.7605
  564MOL0     H74412   7.790   9.154   1.181 -0.0902  1.1399  0.3536
  564MOL0     H74413   8.013   9.230   1.080 -2.0237  0.9291 -1.7035
  564MOL0     H74414   8.290   9.464   1.339 -0.1714 -1.2879 -0.4927
  564MOL0     H74415   8.206   9.586   1.251  0.1557  1.7723  1.4907
  564MOL0     H74416   8.434   9.608   1.152  2.6998 -1.1814 -3.4496
  564MOL0     H74417   8.319   9.560   1.044 -2.2330 -1.1528  0.9882
  564MOL0     H74418   8.373   9.312   1.072 -1.3902  0.1676  1.5849
  564MOL0     H74419   8.482   9.356   1.203 -0.3331  1.9756  0.8007
  564MOL0     H74420   8.537   9.468   0.925  0.3962 -0.3076 -1.2572
  564MOL0     H74421   8.648   9.442   1.058 -1.0536  2.5511 -0.9505
  564MOL0     H74422   8.505   9.234   0.883  1.3090 -0.1654 -0.4055
  564MOL0     H74423   8.588   9.177   1.022  2.2233 -2.6846 -1.1221
  564MOL0     H74424   8.718   9.366   0.830  0.4231 -0.4721 -0.1598
  564MOL0     H74425   8.710   9.200   0.788  3.3471  1.4431 -2.4872
  564MOL0     H74426   8.821   9.246   1.071  0.7984 -0.2048  0.7395
  564MOL0     H74427   8.873   9.149   0.943 -0.3041  0.7009 -0.4243
  564MOL0     H74428   8.916   9.444   0.956 -1.0314 -0.5386  0.1180
  564MOL0     H74429   8.962   9.350   0.815 -1.5887  2.4125 -0.8290
  564MOL0     H74430   8.073   9.484   1.427  0.3930  0.4469  1.6194
  564MOL0     H74431   7.854   9.395   1.521  0.2647  0.8483 -0.9832
  564MOL0     H74432   7.713   8.836   1.366  2.2921  2.5180  2.0142
  564MOL0     H74433   7.526   8.688   1.383  4.5285  1.3605 -0.7774
  564MOL0     H74434   6.079   9.630   1.703  0.0494 -0.9281  2.6327
  564MOL0     H74435   6.189   9.853   1.646 -0.2661 -0.1334 -0.2265
  564MOL0     H74436   6.516  10.077   1.502  2.7193 -2.5767  2.3186
  564MOL0     H74437   6.619  10.288   1.453 -0.4240 -3.9443 -2.0545
  564MOL0     H74438   6.634  10.594   1.782 -1.2258  0.4904  0.0851
  564MOL0     H74439   6.726  10.667   1.650  0.4679  0.5109 -0.1958
  564MOL0     H74440   6.865  10.612   1.809  0.3129  0.3521 -1.0115
  564MOL0     H74441   6.815  10.431   1.819  1.7837  0.0527  0.3000
  564MOL0     H74442   6.983  10.561   1.608 -0.2956 -0.6912  0.3382
  564MOL0     H74443   6.887  10.424   1.562  0.1672  0.6001 -0.8695
  564MOL0     H74444   6.997  10.293   1.731  0.9973 -0.3837 -0.4990
  564MOL0     H74445   7.125  10.369   1.632  0.9653  0.8522  1.0041
  564MOL0     H74446   7.146  10.570   2.007 -4.8211 -2.4978  1.8632
  564MOL0     H74447   6.592  10.381   1.870  1.3253 -1.5735  0.2893
  564MOL0     H74448   6.509  10.164   1.915 -0.0102  0.7439 -0.2177
  565MOL0     O74449   6.156   3.049   8.458 -0.3643 -0.1471  0.2645
  565MOL0     C74450   6.153   3.032   8.333  0.2010  0.7713 -0.3028
  565MOL0     O74451   6.121   2.917   8.264  0.0148  0.3647  0.0183
  565MOL0     C74452   6.069   2.813   8.337  0.2541  0.4461 -0.2490
  565MOL0     C74453   6.090   2.679   8.285  0.0652  0.0346 -0.5548
  565MOL0     C74454   6.020   2.568   8.336 -0.5898  0.3519 -0.2242
  565MOL0     C74455   5.936   2.599   8.448 -0.1262 -0.3766  0.5677
  565MOL0     O74456   5.869   2.495   8.509  0.4930  0.7062  0.6194
  565MOL0     C74457   5.954   2.378   8.533  0.3283  0.2028 -0.0638
  565MOL0     C74458   5.881   2.290   8.629 -0.2603 -0.0481  0.3462
  565MOL0     C74459   5.740   2.252   8.610  0.9411 -0.2760  0.5543
  565MOL0     C74460   5.701   2.212   8.467 -0.4571  0.1056  0.1978
  565MOL0     C74461   5.554   2.211   8.419 -0.6420 -1.0899 -0.0599
  565MOL0     C74462   5.477   2.083   8.467  0.3189 -0.6797 -0.0028
  565MOL0     C74463   5.354   2.045   8.386 -0.4411 -0.2336 -0.4982
  565MOL0     C74464   5.241   2.132   8.411  0.3713 -0.3208 -0.2892
  565MOL0     N74465   5.161   2.081   8.522 -0.1435 -0.2619  0.0635
  565MOL0     C74466   5.161   2.126   8.652 -0.2118 -0.0826  0.1369
  565MOL0     C74467   5.066   2.048   8.722  0.1461 -0.6130 -0.9282
  565MOL0     C74468   5.032   2.059   8.875 -0.8279 -0.0126  0.1597
  565MOL0     C74469   4.878   2.012   8.922 -0.5447 -1.0344  0.1727
  565MOL0     C74470   4.779   2.118   8.879 -0.2699 -0.5167 -0.7559
  565MOL0     C74471   4.635   2.074   8.890  1.2547 -0.6219 -0.2743
  565MOL0     O74472   4.553   2.128   8.783  0.1621  0.3191 -0.4796
  565MOL0     C74473   4.533   2.085   8.657  0.3254  1.6448 -0.9698
  565MOL0     C74474   4.449   2.157   8.571 -0.3745  0.1845 -0.8241
  565MOL0     C74475   4.447   2.127   8.436  0.0394 -0.1281 -0.4350
  565MOL0     C74476   4.521   2.030   8.377  0.8775 -0.2423  0.9963
  565MOL0     C74477   4.502   2.005   8.237 -1.5712  0.0674  0.4109
  565MOL0     O74478   4.558   1.883   8.181 -0.6177 -0.2217 -0.7080
  565MOL0     C74479   4.550   1.868   8.046  0.0368 -0.3078  0.1517
  565MOL0     C74480   4.652   1.922   7.966 -0.5689  1.3911  0.5229
  565MOL0     C74481   4.659   1.901   7.826  1.0470 -0.2988  0.1318
  565MOL0     C74482   4.551   1.834   7.764 -2.1339 -0.1263  0.9279
  565MOL0     O74483   4.551   1.800   7.631  0.5628  0.1676  0.3645
  565MOL0     C74484   4.662   1.819   7.547 -1.0683 -0.0851 -0.5418
  565MOL0     C74485   4.636   1.737   7.424 -0.4591 -0.8834  0.6595
  565MOL0     C74486   4.763   1.720   7.339 -0.2869 -0.6854  0.7140
  565MOL0     C74487   4.736   1.703   7.191  0.6438  0.4568  0.3695
  565MOL0     C74488   4.672   1.828   7.130  0.4501 -0.7595  0.0949
  565MOL0     C74489   4.704   1.862   6.984  0.3193 -0.5132  0.5780
  565MOL0     C74490   4.619   1.972   6.913 -1.0253  0.4461  1.6050
  565MOL0     C74491   4.540   1.901   6.806 -0.4254 -0.5127 -1.4126
  565MOL0    Cl74492   4.618   1.825   6.670 -0.6498  0.0664 -0.1208
  565MOL0     C74493   4.453   1.782   7.842  1.5507  0.0490 -0.6541
  565MOL0     C74494   4.453   1.796   7.982  0.6541  1.4232 -0.4135
  565MOL0     O74495   4.440   2.096   8.175 -0.0903  1.1919  0.4701
  565MOL0     C74496   4.589   1.951   8.469  1.2870  0.1523  0.0548
  565MOL0     C74497   4.596   1.971   8.610 -0.0243 -0.5374  0.1559
  565MOL0     N74498   5.007   1.959   8.629  0.4744  0.4596 -0.7323
  565MOL0     N74499   5.068   1.981   8.514  0.5954 -0.6149 -1.1567
  565MOL0     C74500   5.921   2.728   8.490  0.6404  0.0161 -0.6331
  565MOL0     C74501   5.986   2.828   8.445 -0.2384  0.9796 -1.3243
  565MOL0     C74502   6.213   3.133   8.254 -0.2057 -0.0825  0.3693
  565MOL0     C74503   6.231   3.258   8.313 -0.6867  0.3991  0.5289
  565MOL0     C74504   6.291   3.363   8.237  0.5449  0.3923  0.1029
  565MOL0     C74505   6.326   3.349   8.099 -0.6286 -1.8233  0.0809
  565MOL0     O74506   6.394   3.454   8.038 -0.0023  0.7973  0.3496
  565MOL0     C74507   6.410   3.460   7.897 -0.2231  0.1841  0.2298
  565MOL0     C74508   6.446   3.599   7.851 -0.1146  0.2222  0.2210
  565MOL0     C74509   6.345   3.704   7.898 -0.6151 -0.6748 -0.3484
  565MOL0     C74510   6.407   3.846   7.896  0.5028  0.2042  0.4137
  565MOL0     C74511   6.312   3.955   7.918 -0.3012  0.3978 -0.7590
  565MOL0     C74512   6.234   4.044   7.916 -0.0180 -0.1579 -0.7066
  565MOL0     C74513   6.304   3.218   8.044  0.0931  0.0467  0.5535
  565MOL0     C74514   6.247   3.113   8.121  0.3638  0.1886 -0.6587
  565MOL0     H74515   6.142   2.673   8.190  0.8425 -1.7424 -0.0673
  565MOL0     H74516   6.037   2.471   8.289 -0.9647  0.3038 -0.2596
  565MOL0     H74517   6.047   2.423   8.570 -1.0778  4.4781 -1.1034
  565MOL0     H74518   5.963   2.329   8.436  0.9032 -0.7470  0.4518
  565MOL0     H74519   5.887   2.331   8.730 -0.6310 -1.2754  0.8801
  565MOL0     H74520   5.935   2.195   8.631 -0.6338 -0.2519  1.6635
  565MOL0     H74521   5.682   2.333   8.655  2.9277  1.0563  0.8563
  565MOL0     H74522   5.725   2.169   8.680 -1.2047 -2.2335 -2.0181
  565MOL0     H74523   5.746   2.278   8.393  0.0925 -2.8750 -2.3609
  565MOL0     H74524   5.745   2.114   8.444 -0.0527  0.5055 -0.7800
  565MOL0     H74525   5.553   2.235   8.312  0.1517 -0.2833  0.0972
  565MOL0     H74526   5.511   2.299   8.468  3.0968  1.1191 -0.3322
  565MOL0     H74527   5.469   2.090   8.576  1.3695  0.6217  0.0236
  565MOL0     H74528   5.556   2.010   8.451  1.5191  0.5127  0.2713
  565MOL0     H74529   5.380   2.041   8.280  3.2104 -5.3155  0.2046
  565MOL0     H74530   5.327   1.941   8.408 -2.0242  0.0722 -0.9153
  565MOL0     H74531   5.173   2.145   8.326 -0.2696  1.4708  0.4362
  565MOL0     H74532   5.274   2.232   8.443  2.6809 -0.5584 -1.7160
  565MOL0     H74533   5.225   2.208   8.682 -1.7511  1.1585  0.1343
  565MOL0     H74534   5.066   2.156   8.910  1.6941  0.0681 -2.1355
  565MOL0     H74535   5.089   1.977   8.920 -0.4189  0.9608  1.4767
  565MOL0     H74536   4.862   1.994   9.029  1.7867 -0.8681  0.6058
  565MOL0     H74537   4.855   1.921   8.867 -0.4662 -0.4503 -0.8503
  565MOL0     H74538   4.789   2.208   8.940 -3.0877  0.1511 -1.1170
  565MOL0     H74539   4.800   2.153   8.778 -1.7313 -0.7640 -1.1670
  565MOL0     H74540   4.600   2.109   8.988 -2.3733  0.7050 -1.8500
  565MOL0     H74541   4.626   1.965   8.891 -3.4655 -0.4672 -1.5620
  565MOL0     H74542   4.390   2.234   8.619 -2.9330 -2.9082  1.4647
  565MOL0     H74543   4.376   2.178   8.371 -2.0909 -0.4776  1.4562
  565MOL0     H74544   4.734   1.983   8.003  0.1178  1.2577 -0.7472
  565MOL0     H74545   4.736   1.949   7.767  0.7719  0.7617  0.6250
  565MOL0     H74546   4.748   1.785   7.605 -0.4754  1.8794 -0.1837
  565MOL0     H74547   4.675   1.925   7.521  0.7600  0.0531  0.7187
  565MOL0     H74548   4.556   1.783   7.365  1.5690  0.1639 -1.4152
  565MOL0     H74549   4.585   1.644   7.453 -2.2123  0.5910  2.5781
  565MOL0     H74550   4.827   1.639   7.374 -2.3963 -3.0894 -0.7119
  565MOL0     H74551   4.824   1.810   7.351  0.4465 -1.3666  2.4809
  565MOL0     H74552   4.833   1.689   7.143  0.2940 -0.2529 -0.1481
  565MOL0     H74553   4.676   1.613   7.172  1.4316 -0.1878  0.8599
  565MOL0     H74554   4.682   1.917   7.193 -1.9388 -0.6495  0.4139
  565MOL0     H74555   4.566   1.802   7.126  0.9344 -3.0496 -3.7637
  565MOL0     H74556   4.721   1.770   6.926 -1.1581 -1.1849  1.1430
  565MOL0     H74557   4.807   1.898   6.982  0.9817 -2.0667 -3.1929
  565MOL0     H74558   4.572   2.042   6.983  0.6626  2.2407  1.0320
  565MOL0     H74559   4.677   2.040   6.850 -1.6161 -0.3002  0.2157
  565MOL0     H74560   4.468   1.977   6.774 -0.7235  0.8161  1.9175
  565MOL0     H74561   4.485   1.821   6.855 -0.9186  0.0997 -0.9378
  565MOL0     H74562   4.378   1.720   7.795  0.8303  1.1593 -0.9886
  565MOL0     H74563   4.362   1.758   8.027  0.5148  1.6394 -0.5074
  565MOL0     H74564   4.640   1.867   8.424  1.6319  0.8724 -0.9341
  565MOL0     H74565   4.667   1.924   8.678  2.3209  2.7690  0.2168
  565MOL0     H74566   5.840   2.748   8.559  1.9448 -1.8371  1.5884
  565MOL0     H74567   5.954   2.927   8.478 -0.4694 -0.1868  2.3706
  565MOL0     H74568   6.207   3.274   8.418 -0.6207 -0.3502  0.6615
  565MOL0     H74569   6.312   3.454   8.291  2.0702 -0.2118  0.5933
  565MOL0     H74570   6.327   3.412   7.845  2.1962 -1.2947 -2.5971
  565MOL0     H74571   6.501   3.402   7.877 -0.4412 -0.2933  0.5962
  565MOL0     H74572   6.541   3.633   7.894 -0.1260 -1.3179  1.5671
  565MOL0     H74573   6.455   3.602   7.742 -1.7312 -2.3199 -0.0718
  565MOL0     H74574   6.316   3.682   8.002  2.1707 -0.5607  0.5431
  565MOL0     H74575   6.270   3.700   7.818 -0.0529 -1.6403 -0.8526
  565MOL0     H74576   6.490   3.856   7.966 -1.6882 -2.1551  3.6765
  565MOL0     H74577   6.460   3.854   7.801  3.8369 -1.4505  1.9559
  565MOL0     H74578   6.169   4.125   7.894 -0.0674  0.8114  2.5146
  565MOL0     H74579   6.339   3.187   7.946 -1.2424  4.0241 -1.3722
  565MOL0     H74580   6.225   3.018   8.075  1.4418 -0.6040  0.3902
  566MOL0     O74581   3.063  10.774   9.686  0.3441  0.6930  0.8572
  566MOL0     C74582   3.143  10.779   9.598  0.2416 -0.5456 -0.3542
  566MOL0     O74583   3.225  10.886   9.574 -0.5181  0.6628 -0.0803
  566MOL0     C74584   3.255  10.983   9.677 -0.0608  0.5361 -1.1892
  566MOL0     C74585   3.333  11.092   9.619 -0.1991 -0.1446  1.2770
  566MOL0     C74586   3.380  11.199   9.697 -0.1598  0.1071  1.1225
  566MOL0     C74587   3.352  11.201   9.831  0.6027  0.1206  1.0291
  566MOL0     O74588   3.379  11.304   9.921  0.3481  0.3762 -0.2096
  566MOL0     C74589   3.448  11.419   9.868  0.4111  0.0485  0.1322
  566MOL0     C74590   3.354  11.525   9.809  0.6063 -0.7993 -1.1969
  566MOL0     C74591   3.405  11.672   9.805 -0.8340  0.5960 -0.0248
  566MOL0     C74592   3.455  11.698   9.669 -0.7238  1.0127  0.7382
  566MOL0     C74593   3.557  11.818   9.683  0.3514  0.1902  1.2342
  566MOL0     C74594   3.590  11.893   9.553 -0.6057 -0.6409  0.5165
  566MOL0     C74595   3.630  11.804   9.443  0.4376 -0.3108  0.2718
  566MOL0     C74596   3.694  11.898   9.337 -0.2549  0.3790  0.5532
  566MOL0     N74597   3.683  11.843   9.201 -0.5039  0.6157 -0.2064
  566MOL0     C74598   3.768  11.749   9.150 -0.1797 -0.2690  0.7736
  566MOL0     C74599   3.724  11.743   9.019  0.7982  0.3367  0.7336
  566MOL0     C74600   3.789  11.671   8.901  0.9727 -0.1350 -0.5956
  566MOL0     C74601   3.730  11.543   8.856 -0.1023 -0.1465 -0.7298
  566MOL0     C74602   3.578  11.536   8.854  0.0467 -0.6632  0.3079
  566MOL0     C74603   3.519  11.416   8.783  0.9277 -1.0209 -0.1944
  566MOL0     O74604   3.541  11.416   8.645  0.6518 -0.0822 -0.6809
  566MOL0     C74605   3.484  11.496   8.560  0.2571  0.0861  0.2240
  566MOL0     C74606   3.381  11.587   8.595  0.0570  1.0173 -0.4382
  566MOL0     C74607   3.331  11.671   8.497  0.1963 -0.3712  0.2079
  566MOL0     C74608   3.374  11.660   8.360  0.8832 -0.7464  0.1085
  566MOL0     C74609   3.307  11.737   8.253  0.1052  0.6584  0.0632
  566MOL0     O74610   3.328  11.695   8.123  0.0066 -0.6935 -0.9288
  566MOL0     C74611   3.281  11.766   8.023  0.1997 -0.0873  0.2379
  566MOL0     C74612   3.311  11.897   8.011 -0.5357 -0.3726 -0.5628
  566MOL0     C74613   3.269  11.970   7.904 -0.3612  0.1897  0.2242
  566MOL0     C74614   3.194  11.907   7.803 -0.6649 -0.1254  0.4230
  566MOL0     O74615   3.162  11.953   7.680 -0.7058 -0.5835  0.3959
  566MOL0     C74616   3.027  11.917   7.621 -0.1782  0.3214  0.5474
  566MOL0     C74617   2.998  12.027   7.526  0.6023  0.5260 -0.8830
  566MOL0     C74618   3.097  12.044   7.412  0.1845 -0.3813  0.6406
  566MOL0     C74619   3.116  11.919   7.320 -1.0536  0.5848  0.1325
  566MOL0     C74620   3.212  11.961   7.201  0.8570  0.1615  0.7065
  566MOL0     C74621   3.290  11.844   7.157 -0.8530  0.2540 -0.1813
  566MOL0     C74622   3.408  11.876   7.062  0.2120  0.3983  0.0758
  566MOL0     C74623   3.358  11.892   6.920  0.3812  0.4034  0.0611
  566MOL0    Cl74624   3.467  11.798   6.806  0.4043 -0.0483 -0.1467
  566MOL0     C74625   3.159  11.774   7.818  0.5119  0.4475 -0.0651
  566MOL0     C74626   3.203  11.707   7.931 -0.6587 -0.6129  0.6098
  566MOL0     O74627   3.243  11.833   8.286  0.5198 -0.4116  0.3180
  566MOL0     C74628   3.473  11.569   8.323  0.0950 -0.0589  0.2401
  566MOL0     C74629   3.526  11.487   8.423 -0.0130 -0.9359  0.2608
  566MOL0     N74630   3.629  11.837   8.991 -0.6686  0.3815 -0.6905
  566MOL0     N74631   3.599  11.883   9.104  1.0650  0.4606 -0.1398
  566MOL0     C74632   3.270  11.098   9.885 -0.2611  0.5637  0.8724
  566MOL0     C74633   3.224  10.987   9.813 -0.0525 -0.3725 -0.7459
  566MOL0     C74634   3.151  10.672   9.497  1.3040  0.0960 -0.8965
  566MOL0     C74635   3.066  10.566   9.476 -1.1339 -0.4813  0.8393
  566MOL0     C74636   3.082  10.466   9.384 -0.4671  0.4210  0.0192
  566MOL0     C74637   3.197  10.463   9.313  1.0228 -0.7115 -0.2955
  566MOL0     O74638   3.231  10.362   9.230  0.1074  0.0571 -0.7597
  566MOL0     C74639   3.210  10.399   9.094 -0.6500 -0.0899  0.7646
  566MOL0     C74640   3.206  10.279   9.004 -0.0375 -0.0205  0.6527
  566MOL0     C74641   3.174  10.333   8.861 -0.3006 -0.3859 -0.0489
  566MOL0     C74642   3.171  10.212   8.762  0.4591 -0.1667 -0.8487
  566MOL0     C74643   3.049  10.142   8.781 -0.1106 -0.2677 -0.4905
  566MOL0     C74644   2.944  10.087   8.800 -0.2080  0.7990  0.2100
  566MOL0     C74645   3.291  10.561   9.335  0.1349 -0.6104  0.6633
  566MOL0     C74646   3.267  10.665   9.423 -0.5240  0.3787 -0.1015
  566MOL0     H74647   3.368  11.089   9.517  1.7049 -0.0077  1.8890
  566MOL0     H74648   3.433  11.282   9.653 -0.7282 -1.1402 -2.2204
  566MOL0     H74649   3.523  11.387   9.795  1.5801  0.7986  0.9718
  566MOL0     H74650   3.502  11.460   9.953 -3.4639 -1.4737  3.6908
  566MOL0     H74651   3.272  11.531   9.882  1.4905  0.7694 -0.2767
  566MOL0     H74652   3.314  11.492   9.713 -2.3292  2.8288 -1.4572
  566MOL0     H74653   3.487  11.676   9.877 -0.2447 -0.1139 -0.6389
  566MOL0     H74654   3.320  11.738   9.828 -0.6273  1.8544 -2.4746
  566MOL0     H74655   3.505  11.608   9.633 -2.6477  0.2823 -0.2527
  566MOL0     H74656   3.374  11.721   9.600  1.7588 -0.4998 -2.9773
  566MOL0     H74657   3.647  11.772   9.725  1.3738  2.3068  1.4893
  566MOL0     H74658   3.526  11.891   9.758 -3.5482 -0.9203  0.8864
  566MOL0     H74659   3.672  11.961   9.579 -1.0655 -0.6111  2.0060
  566MOL0     H74660   3.496  11.943   9.527 -0.4090  0.2345  1.3963
  566MOL0     H74661   3.711  11.741   9.479  1.1465  0.3434 -0.1391
  566MOL0     H74662   3.543  11.748   9.407  0.2953  0.5049 -0.7234
  566MOL0     H74663   3.797  11.921   9.364 -0.3488  0.3748  0.9268
  566MOL0     H74664   3.651  11.999   9.337 -1.0896  0.1813 -3.5641
  566MOL0     H74665   3.844  11.692   9.202 -0.0959 -1.7979 -0.9245
  566MOL0     H74666   3.897  11.677   8.922  0.5784  2.0747  1.1801
  566MOL0     H74667   3.782  11.726   8.806  1.2673 -1.8689 -1.6582
  566MOL0     H74668   3.759  11.460   8.920 -3.3555  0.1605  1.3973
  566MOL0     H74669   3.770  11.531   8.755 -0.6148  4.9546 -1.8524
  566MOL0     H74670   3.542  11.541   8.957  1.3724 -2.9933  0.9612
  566MOL0     H74671   3.555  11.631   8.805  4.2958  0.9663  0.9707
  566MOL0     H74672   3.412  11.416   8.805  0.9613 -0.0914  0.0296
  566MOL0     H74673   3.562  11.327   8.830  0.2387 -1.6796 -0.7991
  566MOL0     H74674   3.332  11.604   8.690 -0.6853  0.9241 -0.7985
  566MOL0     H74675   3.267  11.755   8.521  0.8043  0.8580 -2.0697
  566MOL0     H74676   3.361  11.953   8.090 -2.0144 -0.9194  0.8217
  566MOL0     H74677   3.290  12.074   7.885  1.3136  0.4795  3.0830
  566MOL0     H74678   2.954  11.912   7.702 -0.7391  2.5522  0.2678
  566MOL0     H74679   3.029  11.819   7.573  2.8595  1.0037 -0.9653
  566MOL0     H74680   2.990  12.124   7.578  0.3067  1.0637 -1.9027
  566MOL0     H74681   2.897  12.013   7.486 -0.1607  2.5626  0.1211
  566MOL0     H74682   3.195  12.070   7.452  1.1219  0.6443 -2.1478
  566MOL0     H74683   3.056  12.122   7.348 -2.4621 -0.5277  2.0189
  566MOL0     H74684   3.174  11.852   7.385  0.6138  3.6225  1.9938
  566MOL0     H74685   3.019  11.884   7.283 -0.0209  0.7915 -3.0725
  566MOL0     H74686   3.284  12.039   7.231 -1.3948  2.7181 -0.1192
  566MOL0     H74687   3.156  12.007   7.119  0.8119 -3.5506 -1.5617
  566MOL0     H74688   3.223  11.763   7.126  0.2834 -1.3327  1.2864
  566MOL0     H74689   3.352  11.802   7.237  1.7211  2.7261 -0.7293
  566MOL0     H74690   3.441  11.971   7.105 -0.4894  0.1727  1.1564
  566MOL0     H74691   3.492  11.806   7.071 -1.5524 -1.9093 -0.4463
  566MOL0     H74692   3.366  11.996   6.886  0.3249 -0.0156 -1.3109
  566MOL0     H74693   3.258  11.855   6.896  0.8608 -0.6138 -0.4310
  566MOL0     H74694   3.104  11.712   7.748 -1.1425  1.5545  0.2145
  566MOL0     H74695   3.174  11.603   7.935  1.7101 -1.4413 -1.2256
  566MOL0     H74696   3.512  11.560   8.222 -0.6315 -0.5944 -0.0058
  566MOL0     H74697   3.610  11.422   8.400  2.8394  2.1526  1.0710
  566MOL0     H74698   3.239  11.102   9.989 -0.5084  0.6057  0.7962
  566MOL0     H74699   3.179  10.900   9.860 -0.0523  1.1717  2.3783
  566MOL0     H74700   2.974  10.563   9.534 -1.7112 -4.3018  0.0298
  566MOL0     H74701   3.009  10.386   9.380  2.4807 -2.6786  2.1568
  566MOL0     H74702   3.293  10.461   9.061 -0.8169 -0.8202 -1.1412
  566MOL0     H74703   3.118  10.454   9.075 -0.8195  0.3981  2.7562
  566MOL0     H74704   3.299  10.222   9.010 -1.1123 -2.3439 -2.2950
  566MOL0     H74705   3.123  10.216   9.035  0.8636 -0.2290  2.7664
  566MOL0     H74706   3.249  10.404   8.825 -1.8213 -0.0276 -2.8101
  566MOL0     H74707   3.084  10.395   8.854  1.7443  3.0573  1.6121
  566MOL0     H74708   3.178  10.246   8.658  1.7417  1.4887 -0.2633
  566MOL0     H74709   3.259  10.149   8.781 -0.1675 -1.4664 -2.0696
  566MOL0     H74710   2.856  10.029   8.816  1.3084 -1.8219 -0.3482
  566MOL0     H74711   3.385  10.542   9.285 -0.0062 -4.6225  1.6042
  566MOL0     H74712   3.350  10.734   9.436  0.9588 -1.4367  0.4318
  567MOL0     O74713   6.279   1.583   1.236 -0.0320  0.6541 -0.2121
  567MOL0     C74714   6.241   1.632   1.350  0.0285 -0.3710  0.1390
  567MOL0     O74715   6.176   1.570   1.455  0.3245 -0.2760  0.7588
  567MOL0     C74716   6.146   1.434   1.454 -0.6419 -0.2447 -0.0931
  567MOL0     C74717   6.170   1.323   1.360  0.6726 -0.3706 -0.4704
  567MOL0     C74718   6.113   1.196   1.377 -0.2193  0.0140 -1.2517
  567MOL0     C74719   6.053   1.164   1.505 -0.1508 -0.6314 -0.0119
  567MOL0     O74720   6.013   1.038   1.541 -0.2759  0.3478  0.8580
  567MOL0     C74721   5.906   0.985   1.457 -0.6942  0.8286  0.2451
  567MOL0     C74722   5.779   0.981   1.535  0.2743 -0.5172  0.0316
  567MOL0     C74723   5.684   0.928   1.434  0.2911  0.1047  0.5774
  567MOL0     C74724   5.645   1.037   1.335  0.6021 -0.2196 -0.4348
  567MOL0     C74725   5.539   0.985   1.233 -1.2579 -0.3797 -1.1540
  567MOL0     C74726   5.531   1.082   1.114  0.1850  0.1477 -0.5719
  567MOL0     C74727   5.413   1.064   1.022 -0.3488 -0.2459  0.5116
  567MOL0     C74728   5.444   0.922   0.959 -0.1591 -1.0499  0.1717
  567MOL0     N74729   5.352   0.815   0.997  0.2767  0.6250  0.1145
  567MOL0     C74730   5.386   0.677   0.987 -1.1009  0.3661  0.5160
  567MOL0     C74731   5.262   0.614   1.002  0.4901  0.7704 -1.1600
  567MOL0     C74732   5.260   0.461   0.988  0.9829  0.3734  0.0084
  567MOL0     C74733   5.307   0.411   0.853  0.8195 -0.3703  0.3892
  567MOL0     C74734   5.231   0.445   0.719  0.6434 -0.6646 -0.3296
  567MOL0     C74735   5.312   0.425   0.582  0.7507 -0.0031  0.9400
  567MOL0     O74736   5.432   0.496   0.591 -0.3999  0.7342  0.2968
  567MOL0     C74737   5.440   0.632   0.559  0.6418 -0.1504  0.1892
  567MOL0     C74738   5.326   0.720   0.542 -0.0517  0.6904  1.5637
  567MOL0     C74739   5.342   0.859   0.537  0.3387 -1.2640  0.7640
  567MOL0     C74740   5.462   0.909   0.537 -0.6925  0.0936 -0.3626
  567MOL0     C74741   5.489   1.050   0.522  0.9473 -0.8632  0.4148
  567MOL0     O74742   5.421   1.112   0.412 -0.1384 -0.8130 -0.4870
  567MOL0     C74743   5.455   1.237   0.372 -0.4212 -0.2903 -0.1428
  567MOL0     C74744   5.535   1.256   0.259 -0.8446  0.0911 -0.3558
  567MOL0     C74745   5.591   1.384   0.218 -0.0271 -0.8330 -0.1608
  567MOL0     C74746   5.564   1.499   0.290  0.1895  0.2176 -0.3875
  567MOL0     O74747   5.599   1.621   0.241 -0.0807 -0.2289 -1.3669
  567MOL0     C74748   5.710   1.638   0.151 -0.0063  0.4678  0.2582
  567MOL0     C74749   5.758   1.784   0.126 -0.2936 -0.0036 -0.3417
  567MOL0     C74750   5.641   1.856   0.064 -0.0127  0.6713  0.7728
  567MOL0     C74751   5.675   2.000   0.052  1.1667  0.5900  0.2390
  567MOL0     C74752   5.550   2.068  -0.018  0.5770 -0.3134 -0.0420
  567MOL0     C74753   5.437   2.091   0.072 -0.2707  0.2112  1.1911
  567MOL0     C74754   5.327   2.194   0.018 -0.8435  0.9395 -0.4378
  567MOL0     C74755   5.214   2.117  -0.055  0.6140  0.5373 -1.1068
  567MOL0    Cl74756   5.282   2.055  -0.200  0.3325 -0.2516 -0.1839
  567MOL0     C74757   5.487   1.487   0.402  0.0314  0.8398 -1.0057
  567MOL0     C74758   5.442   1.356   0.446  0.6598 -0.9887  0.2479
  567MOL0     O74759   5.580   1.102   0.585  0.9913 -0.7943 -0.2355
  567MOL0     C74760   5.578   0.830   0.543  0.0122  0.3520 -0.1239
  567MOL0     C74761   5.568   0.686   0.552  0.6952 -0.5627  0.6504
  567MOL0     N74762   5.159   0.709   1.008 -0.0196 -0.1730  0.1377
  567MOL0     N74763   5.212   0.823   1.015 -0.2600 -0.6894 -0.0006
  567MOL0     C74764   6.049   1.266   1.598 -0.9342  0.2932 -0.6188
  567MOL0     C74765   6.091   1.401   1.580 -0.5924 -0.9775 -0.0019
  567MOL0     C74766   6.245   1.785   1.347 -0.0062 -0.0217 -0.3363
  567MOL0     C74767   6.282   1.858   1.236  0.2632 -0.4538 -0.0366
  567MOL0     C74768   6.287   1.992   1.244 -0.7795 -0.2244 -0.3475
  567MOL0     C74769   6.270   2.065   1.366  0.5895 -0.6861  0.3116
  567MOL0     O74770   6.271   2.200   1.362  1.1740 -0.1418  0.3262
  567MOL0     C74771   6.390   2.261   1.302 -0.3123  0.0264  0.2274
  567MOL0     C74772   6.388   2.410   1.324 -0.2278 -0.5463 -0.5057
  567MOL0     C74773   6.370   2.443   1.473  0.1711  0.0881 -0.5479
  567MOL0     C74774   6.487   2.409   1.566 -0.2885 -0.5865 -0.6087
  567MOL0     C74775   6.493   2.488   1.696  0.8438  1.4207 -0.1746
  567MOL0     C74776   6.489   2.544   1.811  0.4668  0.7381  0.3493
  567MOL0     C74777   6.221   1.992   1.476  0.3391  0.6372 -0.2018
  567MOL0     C74778   6.224   1.853   1.468  0.2811 -0.2977 -0.3439
  567MOL0     H74779   6.212   1.358   1.267  0.7869  2.1816  0.4515
  567MOL0     H74780   6.140   1.115   1.311  0.2842 -3.1424  2.4398
  567MOL0     H74781   5.923   0.878   1.443  0.1690  0.5433  2.9501
  567MOL0     H74782   5.909   1.030   1.357 -1.3843 -1.8558 -1.0665
  567MOL0     H74783   5.756   1.079   1.577  0.4067  0.5809 -2.3400
  567MOL0     H74784   5.795   0.903   1.611  4.5738 -1.9662 -2.0120
  567MOL0     H74785   5.595   0.894   1.489  0.2382 -1.6595 -0.5140
  567MOL0     H74786   5.712   0.837   1.379  1.1006 -0.0845  1.3000
  567MOL0     H74787   5.623   1.127   1.392  6.4159  0.0014  2.0883
  567MOL0     H74788   5.730   1.065   1.273  1.7731 -2.2038  0.1667
  567MOL0     H74789   5.441   0.972   1.279 -0.3187  2.3464  1.9899
  567MOL0     H74790   5.568   0.887   1.193  0.8239 -0.3724  0.1923
  567MOL0     H74791   5.625   1.080   1.058 -0.4145 -0.4278 -1.5667
  567MOL0     H74792   5.528   1.185   1.152  0.1155  0.5968 -1.7528
  567MOL0     H74793   5.312   1.070   1.065 -0.7702  2.9894 -0.6189
  567MOL0     H74794   5.416   1.138   0.942  1.1149 -2.1818 -1.3266
  567MOL0     H74795   5.547   0.888   0.972 -0.1128 -0.3785  1.8650
  567MOL0     H74796   5.435   0.932   0.851 -4.6176  0.2343  0.4662
  567MOL0     H74797   5.483   0.634   0.966  0.3884  2.0328  3.3142
  567MOL0     H74798   5.155   0.439   1.009  1.0594  1.3625  1.6450
  567MOL0     H74799   5.302   0.400   1.069 -2.6063 -2.8550 -0.2696
  567MOL0     H74800   5.314   0.303   0.869  0.3311  0.0691  5.4370
  567MOL0     H74801   5.407   0.453   0.840  0.6811 -0.6503 -1.9809
  567MOL0     H74802   5.137   0.389   0.715 -0.0592  0.4203  0.4311
  567MOL0     H74803   5.209   0.551   0.735  2.1858 -0.0998 -1.7323
  567MOL0     H74804   5.257   0.453   0.492 -0.1926 -0.8085  1.2509
  567MOL0     H74805   5.338   0.319   0.572  2.0732  0.4262 -0.4893
  567MOL0     H74806   5.228   0.691   0.508  1.2903  1.6280 -4.0763
  567MOL0     H74807   5.267   0.937   0.525  3.4637  2.2018  1.8853
  567MOL0     H74808   5.568   1.174   0.196 -0.2947 -1.2356  1.5685
  567MOL0     H74809   5.652   1.399   0.129  1.3365 -3.2767  0.2603
  567MOL0     H74810   5.690   1.582   0.060  0.6650  0.6313  0.0049
  567MOL0     H74811   5.799   1.584   0.184  0.2058 -2.2242 -4.0177
  567MOL0     H74812   5.835   1.756   0.054 -0.1148  0.8640 -0.5056
  567MOL0     H74813   5.812   1.828   0.210  2.1407 -1.4455 -1.0708
  567MOL0     H74814   5.543   1.834   0.107 -0.4517  0.6529 -0.1998
  567MOL0     H74815   5.618   1.823  -0.038 -3.5043 -0.3541  1.7537
  567MOL0     H74816   5.690   2.053   0.147  2.4032  0.6918  0.0007
  567MOL0     H74817   5.763   2.023  -0.008  0.0488  1.9499 -0.9561
  567MOL0     H74818   5.526   2.012  -0.109  2.9965  2.0134 -2.2959
  567MOL0     H74819   5.576   2.174  -0.029  4.9212 -0.9622  1.8103
  567MOL0     H74820   5.477   2.148   0.156  0.9306  0.5551  0.4085
  567MOL0     H74821   5.398   1.997   0.111  0.2328 -0.3247  0.4300
  567MOL0     H74822   5.273   2.241   0.101  2.1869  3.4379  0.2976
  567MOL0     H74823   5.366   2.278  -0.040  1.0762 -0.7311 -1.7026
  567MOL0     H74824   5.128   2.179  -0.081  0.0339 -0.5546 -1.8696
  567MOL0     H74825   5.170   2.043   0.011  0.3676  3.1304  1.8766
  567MOL0     H74826   5.455   1.572   0.461 -1.6881  0.4175 -1.2762
  567MOL0     H74827   5.389   1.350   0.541  2.1588 -2.0713  1.0695
  567MOL0     H74828   5.672   0.883   0.558  0.9566 -1.7463  2.0072
  567MOL0     H74829   5.641   0.610   0.576  0.8338 -0.6512 -0.0391
  567MOL0     H74830   6.007   1.243   1.696 -0.6900 -3.3083 -1.2452
  567MOL0     H74831   6.069   1.463   1.666 -2.3944 -4.4005  2.2201
  567MOL0     H74832   6.299   1.810   1.140 -2.8910  0.1201 -0.9800
  567MOL0     H74833   6.316   2.049   1.156  0.0573  0.1152  0.1310
  567MOL0     H74834   6.392   2.240   1.195 -1.1496 -0.8777  0.3765
  567MOL0     H74835   6.488   2.230   1.340  0.6302  1.8089 -0.5866
  567MOL0     H74836   6.475   2.460   1.280 -1.1217  0.4115 -1.2443
  567MOL0     H74837   6.304   2.449   1.265  0.4849 -0.0910 -1.2522
  567MOL0     H74838   6.279   2.391   1.504  0.3208 -2.5840 -3.9692
  567MOL0     H74839   6.369   2.552   1.475  2.1364  0.2889  4.6248
  567MOL0     H74840   6.487   2.303   1.592 -0.3725 -0.0798  1.7489
  567MOL0     H74841   6.588   2.413   1.525  0.8011 -2.8678  1.5774
  567MOL0     H74842   6.461   2.581   1.907 -4.3085 -0.0653 -0.4889
  567MOL0     H74843   6.192   2.037   1.570  2.1083 -1.3526  1.3830
  567MOL0     H74844   6.215   1.799   1.562  0.5522 -0.4521 -0.4044
  568MOL0     O74845   7.249   2.834   4.365 -0.7621 -0.1930 -0.0332
  568MOL0     C74846   7.350   2.764   4.336 -0.2123 -0.5979 -0.7585
  568MOL0     O74847   7.352   2.644   4.273 -0.1938 -0.0047 -0.0998
  568MOL0     C74848   7.242   2.581   4.230  0.3069  0.3604  0.6982
  568MOL0     C74849   7.270   2.473   4.144 -0.0254  0.5882  0.0864
  568MOL0     C74850   7.173   2.381   4.102  0.3506  0.0407 -0.8176
  568MOL0     C74851   7.036   2.392   4.138  0.0947 -1.2892 -0.1005
  568MOL0     O74852   6.936   2.304   4.121  1.0537 -0.7756 -0.1724
  568MOL0     C74853   6.955   2.159   4.121 -0.1425 -0.2261  1.2471
  568MOL0     C74854   6.842   2.104   4.039  0.4758 -0.2279  0.5027
  568MOL0     C74855   6.847   1.949   4.028  0.5921  0.6089  0.3334
  568MOL0     C74856   6.962   1.896   3.945 -0.2453  0.2162  0.2387
  568MOL0     C74857   6.953   1.743   3.922  0.3416  0.9456 -0.1300
  568MOL0     C74858   6.924   1.657   4.047  0.2749 -0.7265  0.3256
  568MOL0     C74859   6.925   1.507   4.026 -0.8112  0.4832 -0.2388
  568MOL0     C74860   6.893   1.440   4.155  0.7016  0.5827 -0.6228
  568MOL0     N74861   6.891   1.295   4.145  1.2154 -0.4866 -0.0510
  568MOL0     C74862   6.789   1.217   4.096 -1.0986  0.3514  0.3577
  568MOL0     C74863   6.817   1.086   4.134 -0.4839 -0.6206 -0.6570
  568MOL0     C74864   6.751   0.960   4.095 -0.4359 -0.4976  0.9645
  568MOL0     C74865   6.638   0.934   4.197 -0.7665 -0.0180  0.7725
  568MOL0     C74866   6.682   0.843   4.309  0.1781 -0.5205 -0.1512
  568MOL0     C74867   6.602   0.866   4.435 -0.0984 -0.6598  0.5794
  568MOL0     O74868   6.476   0.792   4.420  0.2057 -0.3849  0.0568
  568MOL0     C74869   6.372   0.851   4.496  1.0067 -0.9812  0.3106
  568MOL0     C74870   6.252   0.833   4.443  0.0715  0.7687 -0.9303
  568MOL0     C74871   6.132   0.889   4.490  0.1810  0.1662 -0.5318
  568MOL0     C74872   6.133   0.971   4.603  0.1230 -0.7566  0.2855
  568MOL0     C74873   6.006   1.038   4.656 -0.2246  0.1657 -0.5893
  568MOL0     O74874   5.883   0.982   4.615 -0.0928  0.3015  0.5019
  568MOL0     C74875   5.764   0.986   4.682 -0.6431 -0.1666 -0.2067
  568MOL0     C74876   5.650   0.967   4.610 -0.5854  0.4722  0.1456
  568MOL0     C74877   5.532   0.944   4.679 -0.6295  0.6318  0.4656
  568MOL0     C74878   5.522   0.927   4.814 -0.7551 -0.8168 -0.4540
  568MOL0     O74879   5.398   0.910   4.876 -0.4797 -0.6526  0.3453
  568MOL0     C74880   5.352   1.028   4.943 -0.4675 -0.8575 -0.0680
  568MOL0     C74881   5.206   1.037   4.955  0.4810 -0.5062 -0.9123
  568MOL0     C74882   5.132   1.063   4.825  0.0565 -0.4287  0.9967
  568MOL0     C74883   4.979   1.042   4.856 -0.4426 -0.0766  1.1694
  568MOL0     C74884   4.903   1.080   4.739 -0.6032 -0.2824  0.0756
  568MOL0     C74885   4.945   1.034   4.600 -0.2752  0.4525  0.2745
  568MOL0     C74886   4.962   0.880   4.585  0.4774  0.7761 -0.2799
  568MOL0     C74887   5.005   0.832   4.443  0.2642 -1.0388  0.1577
  568MOL0    Cl74888   5.185   0.876   4.421 -0.6401 -0.3446 -0.3381
  568MOL0     C74889   5.640   0.965   4.883 -0.9284  0.3814 -0.0537
  568MOL0     C74890   5.763   0.980   4.823  0.3893 -0.0664  0.1361
  568MOL0     O74891   6.018   1.121   4.745 -0.5602 -0.1766  0.4244
  568MOL0     C74892   6.263   1.005   4.653 -0.7560 -0.0976  0.2202
  568MOL0     C74893   6.387   0.957   4.593  0.1837 -1.3355  0.0338
  568MOL0     N74894   6.922   1.092   4.220  0.1443 -0.7759 -0.0384
  568MOL0     N74895   6.959   1.212   4.226 -0.2096 -0.6455 -0.1192
  568MOL0     C74896   7.006   2.516   4.197 -0.6383 -0.4337 -0.7056
  568MOL0     C74897   7.104   2.604   4.247  0.8897 -0.2824 -0.0975
  568MOL0     C74898   7.473   2.816   4.381  0.3677  0.7378 -0.2394
  568MOL0     C74899   7.591   2.740   4.345 -0.1006 -0.8621 -1.2091
  568MOL0     C74900   7.709   2.787   4.403  1.0467 -0.4371  0.3934
  568MOL0     C74901   7.721   2.900   4.484  0.7133  0.1519 -0.7970
  568MOL0     O74902   7.841   2.926   4.536 -0.4788  0.3087  0.3799
  568MOL0     C74903   7.854   2.987   4.669 -0.7819 -0.0899  0.4312
  568MOL0     C74904   7.973   3.098   4.680  0.8014  1.1197  0.5447
  568MOL0     C74905   8.030   3.132   4.812 -0.6860  0.9544  0.0492
  568MOL0     C74906   8.163   3.057   4.846  0.2201  0.3939  0.3708
  568MOL0     C74907   8.201   3.099   4.981  0.2110 -0.2148 -0.1185
  568MOL0     C74908   8.209   3.141   5.093  0.2765  1.5587 -0.1754
  568MOL0     C74909   7.606   2.982   4.496 -0.3084 -0.4989 -0.7727
  568MOL0     C74910   7.486   2.947   4.430 -0.4724  1.1469  0.1347
  568MOL0     H74911   7.372   2.455   4.111  0.4121  2.1285  0.5358
  568MOL0     H74912   7.199   2.294   4.042 -1.3934 -0.5841 -0.7227
  568MOL0     H74913   6.956   2.127   4.225  1.2816  0.8818  1.6133
  568MOL0     H74914   7.053   2.125   4.087  0.1959  1.7173  0.1342
  568MOL0     H74915   6.851   2.122   3.931  1.7346 -0.8515  0.4877
  568MOL0     H74916   6.745   2.133   4.080  1.4363  1.2133  1.8395
  568MOL0     H74917   6.752   1.921   3.980  1.1966 -1.9318  0.4901
  568MOL0     H74918   6.832   1.895   4.122 -1.7638  0.7986  0.1210
  568MOL0     H74919   6.969   1.953   3.852 -0.8469 -0.8663 -0.4966
  568MOL0     H74920   7.055   1.918   3.999  0.0949 -0.1130 -0.2023
  568MOL0     H74921   7.046   1.709   3.877  1.5955  1.2935  2.0679
  568MOL0     H74922   6.875   1.732   3.846 -3.4360  0.9983  3.3872
  568MOL0     H74923   6.822   1.679   4.080 -0.0668  0.5185 -1.3863
  568MOL0     H74924   6.996   1.684   4.125  0.7765 -1.8245  0.2598
  568MOL0     H74925   6.850   1.476   3.952 -0.6105  1.1008 -0.7092
  568MOL0     H74926   7.024   1.473   3.993 -1.6589 -3.6891  0.8312
  568MOL0     H74927   6.798   1.467   4.201  2.0067  0.5063  2.3659
  568MOL0     H74928   6.973   1.460   4.227 -0.3863 -5.3445  2.8823
  568MOL0     H74929   6.711   1.254   4.030 -1.0331  2.7770  1.5352
  568MOL0     H74930   6.818   0.873   4.094 -3.6313 -3.1825 -1.2963
  568MOL0     H74931   6.714   0.978   3.994 -0.2312  1.9964  1.2798
  568MOL0     H74932   6.554   0.890   4.141 -0.0551  1.9298 -1.9832
  568MOL0     H74933   6.600   1.030   4.234 -0.7677  0.2772  0.0103
  568MOL0     H74934   6.674   0.737   4.281  3.8811 -0.9189 -0.2612
  568MOL0     H74935   6.788   0.860   4.328 -0.1412 -0.1061  1.3658
  568MOL0     H74936   6.594   0.974   4.450  0.8782 -0.7919  2.2682
  568MOL0     H74937   6.653   0.833   4.526 -0.6746  0.2031  1.2288
  568MOL0     H74938   6.253   0.761   4.361  2.8219 -0.8692  0.4082
  568MOL0     H74939   6.037   0.857   4.448 -1.2854  0.1909  2.5085
  568MOL0     H74940   5.650   0.981   4.502  0.4934  0.2670  0.1022
  568MOL0     H74941   5.433   0.942   4.635 -0.4227  0.6871 -0.0074
  568MOL0     H74942   5.377   1.120   4.889 -0.1262 -0.8719  0.0676
  568MOL0     H74943   5.404   1.020   5.039 -2.1928 -2.9892  0.7848
  568MOL0     H74944   5.191   1.114   5.031  0.7719 -0.6513 -0.7054
  568MOL0     H74945   5.164   0.944   4.993 -0.3685  0.4148  0.5101
  568MOL0     H74946   5.181   1.001   4.749  1.0588  0.8861  0.5266
  568MOL0     H74947   5.149   1.167   4.796 -1.0726 -0.9050 -1.6492
  568MOL0     H74948   4.955   0.937   4.877 -2.3989  0.0427 -0.2039
  568MOL0     H74949   4.953   1.118   4.929 -1.0171  3.4893 -2.3830
  568MOL0     H74950   4.880   1.187   4.738  0.8588  0.0762  1.6140
  568MOL0     H74951   4.805   1.033   4.751 -0.6692 -0.1084  0.2183
  568MOL0     H74952   5.032   1.080   4.553 -1.5260  1.1549 -1.4701
  568MOL0     H74953   4.871   1.074   4.530  1.7920  2.1717 -1.0115
  568MOL0     H74954   5.026   0.843   4.666  0.3003 -0.9752 -0.8971
  568MOL0     H74955   4.864   0.834   4.603  1.5471 -0.7895  2.0234
  568MOL0     H74956   4.937   0.889   4.380 -0.3447 -2.7426 -0.7905
  568MOL0     H74957   4.983   0.725   4.437 -0.6389 -0.9462  1.3243
  568MOL0     H74958   5.632   0.986   4.989 -1.7868 -0.4349  0.0583
  568MOL0     H74959   5.854   0.987   4.881 -1.8068  1.2915  3.7385
  568MOL0     H74960   6.271   1.053   4.750  1.8509 -2.7359  1.4996
  568MOL0     H74961   6.481   0.978   4.643  0.1751 -0.6849 -0.2229
  568MOL0     H74962   6.905   2.546   4.220 -1.6166 -3.4970 -0.5809
  568MOL0     H74963   7.078   2.679   4.321 -1.7010 -3.2338  2.2760
  568MOL0     H74964   7.590   2.641   4.301 -2.2814 -0.4801 -2.1556
  568MOL0     H74965   7.805   2.743   4.377  0.6708 -3.8409  3.8634
  568MOL0     H74966   7.875   2.917   4.750  2.1857 -0.1650 -0.2988
  568MOL0     H74967   7.768   3.050   4.693 -1.8570 -0.5898 -1.8171
  568MOL0     H74968   8.052   3.078   4.608  1.6666  0.9396  1.5177
  568MOL0     H74969   7.931   3.189   4.637  1.8656  1.1832 -0.4129
  568MOL0     H74970   7.961   3.087   4.884  1.5141 -1.4031  0.8537
  568MOL0     H74971   8.042   3.239   4.831  0.2777  0.8194  0.2731
  568MOL0     H74972   8.147   2.949   4.836  0.0084  0.6136 -2.8214
  568MOL0     H74973   8.244   3.083   4.777 -1.0793 -0.0353 -1.3929
  568MOL0     H74974   8.233   3.181   5.189  1.6461  0.3725 -0.0003
  568MOL0     H74975   7.603   3.077   4.549  2.9833  0.3946 -1.9342
  568MOL0     H74976   7.402   3.016   4.435 -0.6871  0.8103  1.9529
  569MOL0     O74977   3.035   5.223   2.639 -0.5830 -0.3719 -0.9614
  569MOL0     C74978   3.089   5.213   2.531  0.4825 -0.5217  0.5882
  569MOL0     O74979   3.013   5.210   2.409  0.0318 -0.8757  0.3641
  569MOL0     C74980   2.878   5.235   2.400 -0.1491  1.2667 -0.0849
  569MOL0     C74981   2.784   5.198   2.501  0.1103  0.2441 -0.4986
  569MOL0     C74982   2.643   5.220   2.482 -0.2132  0.2028  0.8266
  569MOL0     C74983   2.597   5.280   2.357 -0.0009  0.1923  0.0247
  569MOL0     O74984   2.468   5.290   2.328 -0.8093 -0.2050 -0.4282
  569MOL0     C74985   2.380   5.373   2.405 -0.9191  0.2053 -0.0497
  569MOL0     C74986   2.236   5.340   2.380 -0.4913  0.3667  1.1795
  569MOL0     C74987   2.185   5.349   2.232  0.1874 -0.0554  0.9569
  569MOL0     C74988   2.218   5.485   2.172  0.5387 -0.7421 -0.4726
  569MOL0     C74989   2.137   5.597   2.240  0.9692 -0.4639 -0.8670
  569MOL0     C74990   2.108   5.723   2.154  0.6450 -1.0598  0.0111
  569MOL0     C74991   2.043   5.691   2.016  0.4203 -0.3881  0.1291
  569MOL0     C74992   1.984   5.824   1.961 -0.1293  0.2485  0.0092
  569MOL0     N74993   1.936   5.800   1.828  0.4695 -0.0387  0.7583
  569MOL0     C74994   1.807   5.763   1.792  0.2494  0.4893 -0.5421
  569MOL0     C74995   1.813   5.754   1.659  0.4552  0.8433  0.0124
  569MOL0     C74996   1.703   5.686   1.573  1.2884  0.4218  0.3456
  569MOL0     C74997   1.649   5.794   1.477  0.6661  0.4220  0.7082
  569MOL0     C74998   1.743   5.820   1.366 -0.2309  0.1669 -0.7356
  569MOL0     C74999   1.687   5.870   1.236 -0.0733  0.4928 -0.2707
  569MOL0     O75000   1.596   5.977   1.252  0.4954 -0.6412 -0.1225
  569MOL0     C75001   1.539   6.024   1.138  0.0848 -0.1671  0.5875
  569MOL0     C75002   1.566   5.981   1.005  0.5965 -0.0099 -1.2187
  569MOL0     C75003   1.507   6.050   0.899  0.0274  0.4297 -0.5746
  569MOL0     C75004   1.409   6.157   0.926 -0.5974 -0.2690 -0.8442
  569MOL0     C75005   1.343   6.235   0.823 -0.6278 -1.0093 -0.4624
  569MOL0     O75006   1.378   6.213   0.697 -0.2837  0.1829  0.1296
  569MOL0     C75007   1.344   6.278   0.585 -0.7859 -0.8069  0.6608
  569MOL0     C75008   1.389   6.215   0.465  0.3393  0.0899  0.8698
  569MOL0     C75009   1.355   6.279   0.342  0.8492  0.1267  0.3716
  569MOL0     C75010   1.298   6.408   0.333 -1.1914  0.7417  0.4003
  569MOL0     O75011   1.283   6.464   0.211 -0.4556 -0.3159  1.1490
  569MOL0     C75012   1.185   6.568   0.195  0.9326  0.4198 -0.9034
  569MOL0     C75013   1.149   6.620   0.050 -0.1978  0.3835  0.3285
  569MOL0     C75014   1.101   6.518  -0.049  0.2376  0.7483 -0.3090
  569MOL0     C75015   1.121   6.566  -0.192 -0.0977 -0.2631 -0.0770
  569MOL0     C75016   1.095   6.449  -0.289  0.2540 -0.2285 -1.4219
  569MOL0     C75017   1.075   6.481  -0.434 -0.3437  0.2589  0.3128
  569MOL0     C75018   1.089   6.349  -0.531  0.1871  0.3899 -0.4361
  569MOL0     C75019   1.152   6.382  -0.671  0.0075  0.3125  0.3538
  569MOL0    Cl75020   1.021   6.387  -0.798  0.4168 -0.3402  0.2811
  569MOL0     C75021   1.266   6.473   0.457 -0.2488 -0.1862 -0.3171
  569MOL0     C75022   1.293   6.412   0.576 -0.2789  0.6452 -0.0551
  569MOL0     O75023   1.251   6.312   0.855  0.3464 -0.0525 -0.0804
  569MOL0     C75024   1.379   6.192   1.055 -0.4187  0.6341  0.3420
  569MOL0     C75025   1.451   6.131   1.154 -0.2723  0.5711  0.8952
  569MOL0     N75026   1.940   5.797   1.625 -0.7561  0.2402  0.7451
  569MOL0     N75027   2.019   5.812   1.722  0.3060 -0.1211 -0.8377
  569MOL0     C75028   2.691   5.297   2.259 -0.2414 -0.7059 -0.4540
  569MOL0     C75029   2.830   5.279   2.283  0.1420  0.2722  0.2311
  569MOL0     C75030   3.235   5.216   2.529 -0.3026  0.6753 -0.3968
  569MOL0     C75031   3.296   5.146   2.428  0.1183  0.1761 -0.7854
  569MOL0     C75032   3.432   5.147   2.420 -0.1846  0.0598 -0.6090
  569MOL0     C75033   3.516   5.209   2.516 -0.1018 -0.4990 -0.4343
  569MOL0     O75034   3.652   5.188   2.514 -0.3603  0.2135  0.1695
  569MOL0     C75035   3.728   5.217   2.630  0.2738  0.5319 -0.2560
  569MOL0     C75036   3.867   5.169   2.607  0.6031  0.4353 -0.5455
  569MOL0     C75037   3.922   5.147   2.747  0.6066  0.5737 -0.1314
  569MOL0     C75038   4.071   5.172   2.763 -0.4123  0.3342  0.9614
  569MOL0     C75039   4.151   5.080   2.686  0.2565  0.1802 -0.1334
  569MOL0     C75040   4.219   4.988   2.634 -0.5077  0.2895  0.2637
  569MOL0     C75041   3.447   5.269   2.626  0.2132 -0.4468 -0.3948
  569MOL0     C75042   3.308   5.278   2.632  0.4062  0.3609  0.2579
  569MOL0     H75043   2.820   5.151   2.592  0.8201  1.8955  0.0969
  569MOL0     H75044   2.570   5.185   2.554 -1.1359 -0.2308 -0.2767
  569MOL0     H75045   2.398   5.480   2.394  2.5230 -0.3070 -0.3871
  569MOL0     H75046   2.400   5.343   2.508  0.6695 -2.4384 -1.0050
  569MOL0     H75047   2.180   5.407   2.445 -0.0249  1.1274  0.8020
  569MOL0     H75048   2.208   5.238   2.410  0.5956 -0.5870 -0.7786
  569MOL0     H75049   2.078   5.338   2.213  0.6400 -2.8876 -0.6039
  569MOL0     H75050   2.225   5.270   2.167 -0.5714  0.8174 -0.6301
  569MOL0     H75051   2.323   5.515   2.180  0.6106 -1.5632  3.3998
  569MOL0     H75052   2.203   5.484   2.063  2.2763 -0.8958 -0.7400
  569MOL0     H75053   2.187   5.632   2.331 -1.2033  1.2497 -0.2523
  569MOL0     H75054   2.043   5.553   2.273  0.3692  2.7914  2.3846
  569MOL0     H75055   2.201   5.767   2.115  0.3955 -1.2211 -0.7633
  569MOL0     H75056   2.060   5.809   2.201 -1.0952 -0.0081 -3.3945
  569MOL0     H75057   2.116   5.639   1.953  0.6761 -0.8620  0.8005
  569MOL0     H75058   1.960   5.622   2.032  0.6250 -0.9216 -1.0083
  569MOL0     H75059   2.059   5.904   1.958 -0.1331  0.3738  2.2670
  569MOL0     H75060   1.907   5.845   2.036  1.2265 -3.6157  2.7494
  569MOL0     H75061   1.730   5.736   1.864  0.0770  0.3317 -0.7805
  569MOL0     H75062   1.629   5.647   1.644  2.1713 -0.5697  0.7585
  569MOL0     H75063   1.727   5.594   1.519  0.1038 -2.5135  4.2706
  569MOL0     H75064   1.611   5.881   1.532 -0.7873  0.4756 -0.3386
  569MOL0     H75065   1.562   5.745   1.433  0.2151 -0.1903  2.2266
  569MOL0     H75066   1.819   5.885   1.410 -0.4614 -0.2694  0.3423
  569MOL0     H75067   1.801   5.730   1.340  4.2363  2.9846 -1.6339
  569MOL0     H75068   1.650   5.787   1.176  0.0081  1.2189 -1.3546
  569MOL0     H75069   1.772   5.908   1.179  2.1506 -1.8788  1.2505
  569MOL0     H75070   1.640   5.906   0.980 -0.5376 -1.8198  0.6107
  569MOL0     H75071   1.538   6.021   0.799  1.5632 -2.1199  0.5364
  569MOL0     H75072   1.443   6.122   0.463 -2.0149 -1.5746 -4.3558
  569MOL0     H75073   1.386   6.237   0.247 -2.7928 -0.8644 -0.5629
  569MOL0     H75074   1.199   6.661   0.250 -0.8748  1.7556 -2.5722
  569MOL0     H75075   1.095   6.515   0.229  2.9670 -1.9980  1.1012
  569MOL0     H75076   1.246   6.661   0.023 -0.4418  1.8855  1.6312
  569MOL0     H75077   1.077   6.702   0.054  0.8703  1.3058  1.3723
  569MOL0     H75078   0.999   6.491  -0.019  1.8260 -1.6878  3.8974
  569MOL0     H75079   1.145   6.418  -0.041  0.2335  0.7442 -0.3321
  569MOL0     H75080   1.066   6.659  -0.212  1.7393  0.9901  0.3815
  569MOL0     H75081   1.224   6.601  -0.208  0.1125 -0.5535  0.5982
  569MOL0     H75082   1.002   6.402  -0.254  0.5574  1.2001  1.7432
  569MOL0     H75083   1.170   6.371  -0.275 -1.9354 -1.9519  3.2354
  569MOL0     H75084   1.157   6.543  -0.471 -2.0923  2.8173  0.4044
  569MOL0     H75085   0.983   6.540  -0.440  1.2376  2.7071 -1.9117
  569MOL0     H75086   1.148   6.269  -0.485 -3.8370 -1.7768  1.4879
  569MOL0     H75087   0.987   6.311  -0.540 -0.1474  0.8893  0.9262
  569MOL0     H75088   1.228   6.306  -0.695  0.0485  0.6628 -0.6679
  569MOL0     H75089   1.208   6.476  -0.677 -2.0975  1.7009  1.5506
  569MOL0     H75090   1.228   6.573   0.471  2.1901  0.8890 -0.9427
  569MOL0     H75091   1.272   6.460   0.671 -0.4210  0.2291  0.1274
  569MOL0     H75092   1.322   6.279   1.087  0.0107  1.5112 -1.1923
  569MOL0     H75093   1.434   6.149   1.260 -0.2988  0.4972  0.9034
  569MOL0     H75094   2.647   5.341   2.170 -0.6937  0.2276  0.2112
  569MOL0     H75095   2.896   5.288   2.197 -0.3472 -1.4616 -0.3706
  569MOL0     H75096   3.239   5.082   2.361 -1.8271  0.8746  0.1051
  569MOL0     H75097   3.479   5.109   2.330  0.9784  3.7351 -1.7009
  569MOL0     H75098   3.688   5.151   2.707  0.8174 -1.3115 -1.4849
  569MOL0     H75099   3.727   5.324   2.652  1.7435  0.5960 -0.3829
  569MOL0     H75100   3.865   5.078   2.546  0.9387  2.5096 -3.9063
  569MOL0     H75101   3.928   5.241   2.551  1.4843  0.1939  0.0838
  569MOL0     H75102   3.900   5.047   2.787 -1.5195  1.0291 -0.0273
  569MOL0     H75103   3.879   5.221   2.816  3.1589  1.5913  0.4622
  569MOL0     H75104   4.096   5.270   2.721  1.1585 -0.3495  0.2149
  569MOL0     H75105   4.099   5.175   2.869 -3.9349 -2.5833  2.1831
  569MOL0     H75106   4.278   4.916   2.582  1.0306  0.2913  1.9073
  569MOL0     H75107   3.506   5.300   2.712 -2.3797  0.4502  1.2113
  569MOL0     H75108   3.257   5.323   2.716  2.2513  0.5063  1.3369
  570MOL0     O75109   5.414   4.983   2.809  0.7062 -0.3866 -0.5573
  570MOL0     C75110   5.348   4.963   2.701  0.9063  0.5685 -0.4760
  570MOL0     O75111   5.387   5.009   2.579 -0.1265  0.6292 -0.7832
  570MOL0     C75112   5.512   5.053   2.566 -0.7969 -0.4526  0.4846
  570MOL0     C75113   5.550   5.179   2.531 -0.8487 -0.2459  0.4220
  570MOL0     C75114   5.685   5.228   2.519  0.6251  0.1854  0.5242
  570MOL0     C75115   5.785   5.130   2.519 -0.4030  1.3395  0.3994
  570MOL0     O75116   5.913   5.170   2.508  0.2697 -0.9285  1.0726
  570MOL0     C75117   5.989   5.200   2.620  0.4835 -0.3384 -0.4394
  570MOL0     C75118   5.939   5.342   2.669 -0.2628  0.0231 -0.6721
  570MOL0     C75119   6.040   5.396   2.781  0.1799  0.0150 -0.5357
  570MOL0     C75120   6.088   5.546   2.755 -0.1044  0.3086  0.4571
  570MOL0     C75121   6.141   5.609   2.887 -0.8817  0.4551 -1.0270
  570MOL0     C75122   6.271   5.543   2.939  1.1883 -0.4604 -1.2233
  570MOL0     C75123   6.318   5.619   3.059  0.4720 -0.4250 -0.8430
  570MOL0     C75124   6.461   5.575   3.101 -0.7582 -0.0271 -0.6015
  570MOL0     N75125   6.530   5.671   3.186  0.3359  0.4345  0.4685
  570MOL0     C75126   6.480   5.739   3.291 -0.3204  0.2614 -0.5659
  570MOL0     C75127   6.585   5.796   3.353  0.3592 -0.3381 -0.8426
  570MOL0     C75128   6.568   5.907   3.465 -0.1167  0.5250  0.1849
  570MOL0     C75129   6.615   5.862   3.603  0.1030 -0.2974  0.5590
  570MOL0     C75130   6.765   5.868   3.602  0.2472  0.6967 -1.0818
  570MOL0     C75131   6.833   5.803   3.720 -0.3919  0.2737  0.1323
  570MOL0     O75132   6.974   5.834   3.711 -0.5320  0.2498  0.9566
  570MOL0     C75133   7.055   5.808   3.821 -0.3273 -0.2183  0.2460
  570MOL0     C75134   7.192   5.789   3.790  0.3825  0.2689  1.0005
  570MOL0     C75135   7.282   5.760   3.894 -1.1603  0.2286  0.9844
  570MOL0     C75136   7.245   5.744   4.029 -0.2934 -0.3608  0.5165
  570MOL0     C75137   7.351   5.727   4.134  0.1405  1.1244 -0.4803
  570MOL0     O75138   7.299   5.723   4.257  0.1034 -0.3893 -0.2253
  570MOL0     C75139   7.368   5.713   4.376  0.8834  0.4756 -0.3677
  570MOL0     C75140   7.372   5.822   4.463 -0.0048 -0.4015 -0.3286
  570MOL0     C75141   7.452   5.825   4.581  1.2280 -0.6354 -0.2217
  570MOL0     C75142   7.526   5.705   4.613 -0.7179  0.9711  0.8133
  570MOL0     O75143   7.616   5.690   4.713  0.1331 -0.0289 -0.9021
  570MOL0     C75144   7.739   5.764   4.699  0.1587  0.2887 -0.1219
  570MOL0     C75145   7.840   5.681   4.630 -0.2636  1.2225  0.9465
  570MOL0     C75146   7.976   5.746   4.616 -0.5622 -0.0670  0.3717
  570MOL0     C75147   8.070   5.728   4.748  0.3203  0.2023 -0.0051
  570MOL0     C75148   8.226   5.755   4.723 -0.0510  0.7664 -0.1790
  570MOL0     C75149   8.241   5.902   4.705 -1.1863  0.1835 -0.3236
  570MOL0     C75150   8.382   5.950   4.707  0.1031  0.7005  0.0900
  570MOL0     C75151   8.395   6.090   4.656  0.5385 -0.8597  0.2863
  570MOL0    Cl75152   8.564   6.133   4.679 -0.3690 -0.2522  0.0536
  570MOL0     C75153   7.509   5.594   4.528 -0.5127 -0.5204 -0.7365
  570MOL0     C75154   7.437   5.598   4.416 -0.3202 -0.5045 -0.1613
  570MOL0     O75155   7.470   5.711   4.099  0.4282  0.1273 -0.5198
  570MOL0     C75156   7.105   5.756   4.050  0.3682 -0.5361  0.2098
  570MOL0     C75157   7.014   5.788   3.950  0.4850 -0.2750  1.1078
  570MOL0     N75158   6.694   5.765   3.282 -0.0354 -0.4739 -0.2508
  570MOL0     N75159   6.663   5.689   3.181  0.2660 -0.5687 -0.4404
  570MOL0     C75160   5.752   4.996   2.563  0.0582  0.2749  0.2331
  570MOL0     C75161   5.612   4.959   2.570 -1.0241  0.7694 -1.3566
  570MOL0     C75162   5.227   4.875   2.716 -0.4712 -0.8905  0.9439
  570MOL0     C75163   5.188   4.823   2.837  0.3934  0.2777  0.6709
  570MOL0     C75164   5.082   4.745   2.839  0.9540 -0.2373 -0.0125
  570MOL0     C75165   4.994   4.728   2.725 -0.8907 -0.1652 -1.4797
  570MOL0     O75166   4.885   4.652   2.748  0.1375  0.0051  0.4590
  570MOL0     C75167   4.812   4.618   2.628 -0.0134 -0.3132 -0.8643
  570MOL0     C75168   4.669   4.564   2.666  0.9987 -0.2561 -0.5513
  570MOL0     C75169   4.598   4.679   2.742  0.5529 -0.3280  0.2448
  570MOL0     C75170   4.445   4.634   2.773  0.3795 -0.7228  0.9278
  570MOL0     C75171   4.377   4.628   2.642  0.1820  0.0796  0.0780
  570MOL0     C75172   4.321   4.623   2.535  0.2950 -0.3495 -0.2806
  570MOL0     C75173   5.037   4.784   2.605  0.1155 -0.1062  0.4286
  570MOL0     C75174   5.156   4.855   2.605 -0.1342  1.1813 -0.1809
  570MOL0     H75175   5.458   5.237   2.522 -0.7293  0.0352  0.9993
  570MOL0     H75176   5.709   5.334   2.513  2.3098 -0.1947  0.1580
  570MOL0     H75177   6.095   5.222   2.604  0.1296  3.2836  1.2225
  570MOL0     H75178   5.984   5.122   2.696 -0.8688 -0.5962 -0.7670
  570MOL0     H75179   5.840   5.336   2.716 -0.2282 -1.1629 -0.7213
  570MOL0     H75180   5.943   5.405   2.579  0.9338 -0.1770 -0.7757
  570MOL0     H75181   6.131   5.335   2.785  2.0332  2.6223 -0.4601
  570MOL0     H75182   5.983   5.390   2.874 -1.1403 -0.5377 -1.3405
  570MOL0     H75183   6.166   5.549   2.679 -1.6357  3.0643 -1.1745
  570MOL0     H75184   6.003   5.599   2.712  1.3571 -0.6211 -4.1091
  570MOL0     H75185   6.067   5.617   2.967  0.8392  1.5743  0.5467
  570MOL0     H75186   6.156   5.713   2.855 -1.6471 -0.1585 -3.5858
  570MOL0     H75187   6.343   5.556   2.858  2.8079 -2.1574 -0.1293
  570MOL0     H75188   6.259   5.438   2.966  1.3478 -0.1500  0.1505
  570MOL0     H75189   6.320   5.728   3.042 -0.3545 -0.1425  0.6722
  570MOL0     H75190   6.255   5.586   3.142  1.1874 -0.2280 -0.2045
  570MOL0     H75191   6.520   5.552   3.012  5.1023  2.3723  2.1479
  570MOL0     H75192   6.460   5.484   3.161  0.3212  1.1608  1.3484
  570MOL0     H75193   6.379   5.759   3.325 -0.9362 -1.4785 -1.2691
  570MOL0     H75194   6.464   5.939   3.459 -0.4967 -0.8230 -0.9962
  570MOL0     H75195   6.628   5.996   3.443 -1.3889  1.3309 -0.0860
  570MOL0     H75196   6.578   5.761   3.624 -1.3387  0.1104  0.0957
  570MOL0     H75197   6.577   5.923   3.686 -2.0251 -0.5539 -0.1713
  570MOL0     H75198   6.793   5.795   3.525 -0.1542 -2.3301  1.4490
  570MOL0     H75199   6.805   5.970   3.597  1.5662  0.1592 -2.7241
  570MOL0     H75200   6.824   5.694   3.721 -1.1992  0.2963  2.7130
  570MOL0     H75201   6.784   5.830   3.814 -2.4032 -3.7059  0.4180
  570MOL0     H75202   7.222   5.787   3.686 -2.3964 -1.8264  0.1025
  570MOL0     H75203   7.386   5.748   3.865 -0.4629  3.2577  1.8361
  570MOL0     H75204   7.309   5.909   4.449  0.2197 -0.5663 -2.8664
  570MOL0     H75205   7.446   5.915   4.641  0.7013 -0.4827 -0.4972
  570MOL0     H75206   7.775   5.790   4.799  0.2741 -0.7039  0.1046
  570MOL0     H75207   7.741   5.864   4.654  1.0325  0.5126  0.4065
  570MOL0     H75208   7.801   5.668   4.529 -1.0462  0.2837  1.3487
  570MOL0     H75209   7.853   5.577   4.663  2.2547  0.6804 -1.3514
  570MOL0     H75210   7.957   5.853   4.607  3.7158  1.0648  1.9905
  570MOL0     H75211   8.026   5.696   4.533  0.3668 -2.2865  2.1386
  570MOL0     H75212   8.026   5.793   4.824  1.0307 -2.7611  3.1184
  570MOL0     H75213   8.066   5.623   4.778 -0.8017  0.1036 -0.4342
  570MOL0     H75214   8.247   5.707   4.627  0.8733 -0.3896  0.5769
  570MOL0     H75215   8.282   5.705   4.802  0.7446 -0.1814 -1.3171
  570MOL0     H75216   8.187   5.944   4.790 -0.9710  0.2294 -0.2083
  570MOL0     H75217   8.192   5.949   4.619  0.0163  0.7897 -0.6968
  570MOL0     H75218   8.402   5.938   4.814  1.7561 -0.8803 -0.3479
  570MOL0     H75219   8.445   5.883   4.648 -0.1238  0.7124 -0.1704
  570MOL0     H75220   8.333   6.162   4.709  2.6461  0.5476  0.9580
  570MOL0     H75221   8.369   6.095   4.550  0.2503 -2.4329  0.2581
  570MOL0     H75222   7.552   5.503   4.567 -0.9199 -0.5941 -0.4594
  570MOL0     H75223   7.436   5.508   4.354 -1.4683 -0.6071 -0.0198
  570MOL0     H75224   7.076   5.738   4.153  0.5938 -1.5126  0.1128
  570MOL0     H75225   6.909   5.780   3.976  0.5351 -1.6866  0.9804
  570MOL0     H75226   5.831   4.927   2.591 -0.0936  0.7026  1.8110
  570MOL0     H75227   5.571   4.861   2.591 -1.1435  1.0936 -0.0132
  570MOL0     H75228   5.250   4.833   2.926 -0.3065  3.4062  0.9153
  570MOL0     H75229   5.046   4.684   2.921 -1.1121 -0.0189 -0.7031
  570MOL0     H75230   4.875   4.547   2.574 -0.3518 -0.6059 -0.8813
  570MOL0     H75231   4.805   4.707   2.565  5.3313  1.3281  0.3927
  570MOL0     H75232   4.617   4.533   2.575 -0.6143  0.9788 -0.0807
  570MOL0     H75233   4.678   4.478   2.733  0.7573  0.4293  0.3830
  570MOL0     H75234   4.624   4.770   2.687  2.6418 -1.0706 -0.0850
  570MOL0     H75235   4.643   4.685   2.842 -1.5920  0.7292  1.2151
  570MOL0     H75236   4.445   4.538   2.826  3.8491 -1.2263  0.2628
  570MOL0     H75237   4.402   4.713   2.835  1.0392  2.7116 -2.5890
  570MOL0     H75238   4.275   4.607   2.440 -1.5756 -0.1035  0.5431
  570MOL0     H75239   5.000   4.746   2.510  0.9600 -2.1077  0.8451
  570MOL0     H75240   5.198   4.887   2.511  0.9216 -1.5575 -0.7517
  571MOL0     O75241   7.963   6.115   4.398 -0.4535  0.5742 -0.3620
  571MOL0     C75242   7.918   6.176   4.495 -0.8002 -1.2525 -0.1999
  571MOL0     O75243   7.791   6.167   4.546  0.9377 -0.7298  0.8990
  571MOL0     C75244   7.681   6.135   4.462  0.1906  0.2819 -0.3360
  571MOL0     C75245   7.670   6.018   4.379  0.9854 -0.7853 -0.1485
  571MOL0     C75246   7.562   5.990   4.294  0.3221 -0.4231 -0.1318
  571MOL0     C75247   7.460   6.084   4.281 -0.6559 -0.0487 -0.7258
  571MOL0     O75248   7.368   6.067   4.179  0.4990 -0.9990  0.2606
  571MOL0     C75249   7.324   6.193   4.123  0.4822 -0.3834 -0.6669
  571MOL0     C75250   7.265   6.189   3.983  0.4163  0.5864  0.6108
  571MOL0     C75251   7.353   6.129   3.873  0.1604 -0.2880 -0.7305
  571MOL0     C75252   7.312   6.159   3.722 -0.1741  0.1633  0.3700
  571MOL0     C75253   7.391   6.082   3.615 -0.0478  0.8484  0.6265
  571MOL0     C75254   7.348   6.109   3.469  0.2927  0.5621  0.7438
  571MOL0     C75255   7.389   6.247   3.419  0.0236 -0.2555  0.4863
  571MOL0     C75256   7.359   6.239   3.273 -0.6940 -0.4600 -0.3436
  571MOL0     N75257   7.338   6.372   3.223  0.3229 -0.7388  0.2134
  571MOL0     C75258   7.231   6.417   3.147 -0.1494  0.1939  0.4391
  571MOL0     C75259   7.251   6.549   3.119  0.4257  0.6879  0.0937
  571MOL0     C75260   7.161   6.637   3.034 -0.3478 -0.0865 -0.7826
  571MOL0     C75261   7.167   6.611   2.882  1.0718  0.1148  0.6494
  571MOL0     C75262   7.299   6.648   2.810 -0.7048  0.7958  0.2983
  571MOL0     C75263   7.304   6.795   2.768 -0.2722 -0.1811 -0.4212
  571MOL0     O75264   7.284   6.887   2.882  0.7369  0.2415  1.1221
  571MOL0     C75265   7.392   6.981   2.885  0.4373 -0.1118  0.4014
  571MOL0     C75266   7.440   7.050   2.772 -0.1554  0.4923  1.2718
  571MOL0     C75267   7.543   7.140   2.779 -0.3390  0.8303 -0.4515
  571MOL0     C75268   7.600   7.157   2.912 -0.1327  0.8376  0.2689
  571MOL0     C75269   7.721   7.253   2.921  0.2743  1.1441 -0.1315
  571MOL0     O75270   7.756   7.305   2.796  0.3459 -0.3420 -0.4893
  571MOL0     C75271   7.864   7.381   2.795 -1.2298 -0.5846  0.3681
  571MOL0     C75272   7.972   7.335   2.712  0.4729 -1.1899 -0.3598
  571MOL0     C75273   8.089   7.406   2.703  0.9709  0.4885 -0.1882
  571MOL0     C75274   8.101   7.538   2.773  0.6333 -0.7387  0.4579
  571MOL0     O75275   8.219   7.610   2.761 -0.2291 -0.0403  1.0055
  571MOL0     C75276   8.246   7.710   2.858  0.1810  1.2279  0.1856
  571MOL0     C75277   8.379   7.771   2.825 -0.1444 -0.2554 -0.0905
  571MOL0     C75278   8.409   7.892   2.913  0.5522  0.1268 -0.5021
  571MOL0     C75279   8.514   7.981   2.845  0.6902  0.0170  0.3908
  571MOL0     C75280   8.523   8.118   2.907 -0.0211 -0.5287  0.9177
  571MOL0     C75281   8.602   8.218   2.828  0.3657 -0.2646  0.4723
  571MOL0     C75282   8.747   8.185   2.813 -0.0376 -1.1138 -0.1047
  571MOL0     C75283   8.824   8.300   2.769 -0.0021 -0.8437  0.3392
  571MOL0    Cl75284   8.751   8.375   2.611 -0.2303  0.1869 -0.4901
  571MOL0     C75285   7.992   7.581   2.862 -0.2863 -0.4128  0.0901
  571MOL0     C75286   7.877   7.506   2.864  0.4765  0.4536  0.1429
  571MOL0     O75287   7.786   7.235   3.025  0.4387 -0.0725 -0.6134
  571MOL0     C75288   7.553   7.092   3.030  0.5921 -1.1489 -0.7319
  571MOL0     C75289   7.447   7.001   3.012  0.7127 -0.6345  0.1705
  571MOL0     N75290   7.362   6.587   3.193  0.7000  0.0931 -0.0652
  571MOL0     N75291   7.412   6.482   3.254 -0.2355  0.0094  0.5602
  571MOL0     C75292   7.466   6.198   4.371  0.6874  0.1936  0.4996
  571MOL0     C75293   7.571   6.213   4.467  0.4760 -0.2034  1.2264
  571MOL0     C75294   8.018   6.260   4.572 -0.5191  1.1379 -0.1684
  571MOL0     C75295   7.986   6.300   4.699  0.0461 -0.1725 -0.1938
  571MOL0     C75296   8.089   6.364   4.779  0.8663  1.0184 -0.2570
  571MOL0     C75297   8.203   6.412   4.723  0.5898 -0.9442 -0.5908
  571MOL0     O75298   8.283   6.483   4.811 -0.7407  0.2633  0.2959
  571MOL0     C75299   8.390   6.556   4.748  0.5021 -0.0934 -0.7353
  571MOL0     C75300   8.468   6.645   4.842  0.0230 -0.0642  0.0549
  571MOL0     C75301   8.543   6.577   4.956 -0.9954 -0.4448 -0.0093
  571MOL0     C75302   8.459   6.488   5.056 -0.1338  0.9961  0.3855
  571MOL0     C75303   8.533   6.468   5.182  0.7859  0.7817 -0.0395
  571MOL0     C75304   8.606   6.467   5.271  0.0856 -0.2718 -0.3141
  571MOL0     C75305   8.233   6.369   4.593  1.0803 -0.1571 -0.0575
  571MOL0     C75306   8.142   6.290   4.515 -0.4682 -0.0592 -0.5706
  571MOL0     H75307   7.758   5.956   4.391  2.8837  1.3192 -2.3471
  571MOL0     H75308   7.543   5.910   4.223 -3.4431  1.1094 -1.0652
  571MOL0     H75309   7.395   6.276   4.133 -3.1737  2.9794  0.0528
  571MOL0     H75310   7.242   6.233   4.184  0.7781  1.8011 -1.6221
  571MOL0     H75311   7.239   6.291   3.955  2.5261  1.9808  3.2884
  571MOL0     H75312   7.178   6.125   3.999  0.8074  0.5254  2.8118
  571MOL0     H75313   7.369   6.022   3.885 -2.4035 -0.4657  2.8854
  571MOL0     H75314   7.452   6.174   3.887  0.8313 -2.1451  0.9926
  571MOL0     H75315   7.204   6.141   3.710 -0.0377 -0.0518 -0.5911
  571MOL0     H75316   7.319   6.268   3.711 -2.3296  0.1885 -1.7527
  571MOL0     H75317   7.368   5.975   3.624 -0.1065  0.9524  1.8625
  571MOL0     H75318   7.500   6.090   3.628  0.1797 -0.4420 -0.2457
  571MOL0     H75319   7.239   6.115   3.463  0.3831  1.8587  0.1355
  571MOL0     H75320   7.384   6.024   3.410  1.8934 -0.6359  3.2626
  571MOL0     H75321   7.329   6.322   3.472  0.7523 -0.8156  2.1734
  571MOL0     H75322   7.494   6.274   3.430  0.3568 -0.9098 -0.8362
  571MOL0     H75323   7.266   6.187   3.250  0.4521 -1.4165 -3.2742
  571MOL0     H75324   7.443   6.188   3.223 -0.1080  3.3512 -3.7573
  571MOL0     H75325   7.157   6.354   3.097  2.2218 -1.7763 -0.8201
  571MOL0     H75326   7.179   6.744   3.051  2.5721 -0.5021 -0.7814
  571MOL0     H75327   7.059   6.618   3.071  0.4430 -0.6679  1.2020
  571MOL0     H75328   7.089   6.672   2.835 -1.3797 -2.8162  0.6072
  571MOL0     H75329   7.151   6.507   2.853 -0.8237 -0.0435  2.0472
  571MOL0     H75330   7.389   6.621   2.866 -0.3608 -2.9539 -1.7050
  571MOL0     H75331   7.289   6.583   2.722 -0.8337 -0.6393  1.3355
  571MOL0     H75332   7.231   6.824   2.692 -0.4498  0.8494  0.1232
  571MOL0     H75333   7.406   6.802   2.730 -0.5436 -2.6187 -1.8411
  571MOL0     H75334   7.386   7.022   2.682  1.9237 -0.1911  0.1554
  571MOL0     H75335   7.585   7.185   2.690 -0.1932  0.1248 -0.7422
  571MOL0     H75336   7.980   7.234   2.671  0.6410 -1.4250  0.2391
  571MOL0     H75337   8.169   7.342   2.665  0.1775  0.0923 -1.2351
  571MOL0     H75338   8.263   7.665   2.956  0.8549  0.6355 -0.1965
  571MOL0     H75339   8.167   7.785   2.872 -1.6517 -0.4788 -0.3941
  571MOL0     H75340   8.365   7.813   2.725  3.7781  0.6022 -0.4514
  571MOL0     H75341   8.451   7.689   2.822 -3.8196 -3.7978 -2.3490
  571MOL0     H75342   8.441   7.860   3.013  0.1684  3.1421  0.7047
  571MOL0     H75343   8.313   7.942   2.927 -0.3768 -1.2895 -1.5030
  571MOL0     H75344   8.602   7.926   2.878  0.3478 -0.7977 -0.0176
  571MOL0     H75345   8.500   7.985   2.737 -1.7694 -2.5362  0.5022
  571MOL0     H75346   8.566   8.098   3.006  2.9043 -0.7043 -0.2937
  571MOL0     H75347   8.423   8.162   2.916 -0.3445 -0.7831 -1.1122
  571MOL0     H75348   8.598   8.318   2.874  3.2542 -0.0359  0.3983
  571MOL0     H75349   8.558   8.232   2.729  2.2326 -2.0553 -0.6861
  571MOL0     H75350   8.790   8.161   2.911 -0.3054  4.8312  1.8927
  571MOL0     H75351   8.768   8.102   2.745  0.2791 -0.7686 -0.4369
  571MOL0     H75352   8.929   8.275   2.753  0.6828  1.3473  0.9873
  571MOL0     H75353   8.810   8.377   2.846 -2.5802 -0.8198 -0.0496
  571MOL0     H75354   7.992   7.673   2.918 -0.4305 -1.6344  2.1972
  571MOL0     H75355   7.800   7.546   2.929  0.7721  0.8844  0.2323
  571MOL0     H75356   7.584   7.110   3.133 -2.3913  2.0617 -0.2421
  571MOL0     H75357   7.397   6.959   3.098 -0.2292 -1.5247 -0.7855
  571MOL0     H75358   7.373   6.253   4.380 -0.5223 -1.7168  0.2517
  571MOL0     H75359   7.563   6.305   4.523  1.1898 -0.6786  2.1431
  571MOL0     H75360   7.898   6.259   4.747  0.8435 -0.0142  1.4582
  571MOL0     H75361   8.080   6.400   4.881 -1.9051  4.3887 -1.5131
  571MOL0     H75362   8.345   6.620   4.671 -1.1006  2.0051  1.7897
  571MOL0     H75363   8.453   6.486   4.692 -1.6193 -1.1392 -1.9515
  571MOL0     H75364   8.545   6.703   4.791 -3.0009  1.5508 -3.0887
  571MOL0     H75365   8.397   6.723   4.871 -3.5975 -2.4472 -1.6376
  571MOL0     H75366   8.569   6.657   5.026 -3.0863  0.9521 -0.7228
  571MOL0     H75367   8.631   6.527   4.916 -1.3246 -1.6875  0.7768
  571MOL0     H75368   8.364   6.533   5.085 -0.5172  1.2575 -1.1464
  571MOL0     H75369   8.431   6.390   5.016  1.1343  0.5324  0.5737
  571MOL0     H75370   8.663   6.470   5.361 -1.8619 -2.3936  1.0976
  571MOL0     H75371   8.325   6.398   4.542  2.1893  2.0782  2.9073
  571MOL0     H75372   8.185   6.253   4.422  2.9215  2.5017 -0.2045
  572MOL0     O75373   5.036   2.548   2.846 -0.1966  0.2515  0.2823
  572MOL0     C75374   4.933   2.534   2.778 -0.2735 -0.1725  0.1535
  572MOL0     O75375   4.899   2.622   2.675  0.1751 -0.3330 -0.0940
  572MOL0     C75376   4.977   2.722   2.660  0.6685  0.5611 -0.2063
  572MOL0     C75377   5.069   2.704   2.562 -0.3387  0.8151 -0.7461
  572MOL0     C75378   5.157   2.811   2.532  0.3345  0.3600  0.8842
  572MOL0     C75379   5.160   2.913   2.619  0.6173 -0.7472  0.0964
  572MOL0     O75380   5.262   2.993   2.582 -0.5414 -0.7149  0.0826
  572MOL0     C75381   5.266   3.120   2.650  0.3356  0.1880 -0.2643
  572MOL0     C75382   5.386   3.193   2.581  0.5667 -0.4758  0.1665
  572MOL0     C75383   5.527   3.140   2.606  0.1476  0.3108 -0.9453
  572MOL0     C75384   5.647   3.235   2.579 -0.5307  0.1013 -0.4977
  572MOL0     C75385   5.776   3.158   2.628  0.4276  0.7548  1.2160
  572MOL0     C75386   5.894   3.244   2.650 -0.4758 -0.6698  0.3070
  572MOL0     C75387   6.025   3.163   2.693 -0.4553 -1.0094  0.3863
  572MOL0     C75388   6.145   3.253   2.675 -0.6005  0.6096  0.3146
  572MOL0     N75389   6.138   3.385   2.734  0.2955 -0.4628  0.6548
  572MOL0     C75390   6.097   3.499   2.661 -0.7253 -0.3245 -0.5174
  572MOL0     C75391   6.108   3.600   2.754 -1.1357  0.1143  0.5846
  572MOL0     C75392   6.082   3.739   2.693  0.1250 -0.2754  0.0696
  572MOL0     C75393   6.203   3.821   2.734 -0.6971  0.2203  0.4946
  572MOL0     C75394   6.206   3.944   2.649 -0.1867  0.2731 -0.3956
  572MOL0     C75395   6.298   4.057   2.704 -0.0380  0.0142  0.3257
  572MOL0     O75396   6.440   4.014   2.692  0.1130 -0.3193 -0.0749
  572MOL0     C75397   6.535   4.106   2.734 -0.5554 -0.1072  0.5671
  572MOL0     C75398   6.633   4.169   2.652  1.5859 -0.0491  0.0366
  572MOL0     C75399   6.725   4.254   2.696  0.3352 -0.2177 -0.4974
  572MOL0     C75400   6.739   4.262   2.836  0.7174  0.5490  0.2528
  572MOL0     C75401   6.854   4.337   2.894 -0.2649 -0.2398 -1.7265
  572MOL0     O75402   6.937   4.391   2.797 -0.2614 -0.4754 -0.1431
  572MOL0     C75403   7.063   4.409   2.845  0.7495  0.0404  0.3984
  572MOL0     C75404   7.101   4.519   2.923 -0.5889 -0.5325  0.5878
  572MOL0     C75405   7.229   4.533   2.959 -0.4371  0.3456 -0.2716
  572MOL0     C75406   7.325   4.440   2.913 -1.0582  0.1337 -1.1225
  572MOL0     O75407   7.458   4.471   2.956 -0.3038  0.0697  0.2716
  572MOL0     C75408   7.559   4.441   2.870  0.4202 -0.1400 -0.4026
  572MOL0     C75409   7.691   4.482   2.949  0.1038  0.4657 -0.6037
  572MOL0     C75410   7.716   4.366   3.047  0.6666  0.0257 -0.2354
  572MOL0     C75411   7.852   4.403   3.112 -0.0442 -0.6220  0.3303
  572MOL0     C75412   7.880   4.289   3.210 -0.5724  0.6536  0.2856
  572MOL0     C75413   8.001   4.355   3.294  0.3915  0.0810 -0.5782
  572MOL0     C75414   8.069   4.250   3.380 -0.2002 -0.9583  0.4367
  572MOL0     C75415   7.976   4.165   3.464  0.6192  0.1862 -1.0958
  572MOL0    Cl75416   7.983   3.997   3.393 -0.1063  0.0779 -0.1491
  572MOL0     C75417   7.290   4.341   2.834 -0.5096 -0.6532  0.0809
  572MOL0     C75418   7.155   4.326   2.792 -1.1570  0.5723 -0.6230
  572MOL0     O75419   6.871   4.351   3.016 -0.0567 -0.2211 -0.5222
  572MOL0     C75420   6.657   4.191   2.915  0.3978 -0.2844 -0.4625
  572MOL0     C75421   6.554   4.113   2.869 -0.3179 -0.8068  0.3985
  572MOL0     N75422   6.166   3.550   2.868  0.0046 -0.1013 -0.4797
  572MOL0     N75423   6.176   3.419   2.855  0.4734  0.0474  0.0240
  572MOL0     C75424   5.075   2.931   2.727  0.2982  0.0310 -0.4526
  572MOL0     C75425   4.974   2.829   2.749  0.1695 -0.2436  0.1530
  572MOL0     C75426   4.846   2.416   2.794 -0.1264  0.7190 -0.4310
  572MOL0     C75427   4.901   2.299   2.836 -0.1084 -0.2389 -0.6272
  572MOL0     C75428   4.826   2.194   2.870 -0.3949 -0.2778 -0.8670
  572MOL0     C75429   4.687   2.205   2.876 -0.4066 -1.0575 -0.2192
  572MOL0     O75430   4.622   2.102   2.933 -0.2387  0.7203  0.7762
  572MOL0     C75431   4.537   2.025   2.848 -0.2410  1.0735 -0.2430
  572MOL0     C75432   4.586   1.879   2.844  0.8105 -0.5483 -0.0585
  572MOL0     C75433   4.536   1.781   2.954  0.5603  0.5643 -0.1385
  572MOL0     C75434   4.648   1.712   3.019  0.1053  0.6850  0.1594
  572MOL0     C75435   4.718   1.830   3.084 -0.0853 -0.4196  0.4097
  572MOL0     C75436   4.789   1.920   3.123 -0.7843 -1.1776 -0.7876
  572MOL0     C75437   4.624   2.317   2.819  0.4208  0.9139 -0.8013
  572MOL0     C75438   4.704   2.424   2.783  0.8432  0.6822 -0.3254
  572MOL0     H75439   5.086   2.618   2.497 -2.0411  0.5167 -0.8428
  572MOL0     H75440   5.220   2.788   2.446 -1.0118  0.0851 -0.0591
  572MOL0     H75441   5.292   3.110   2.756  2.8191 -1.6599 -0.9551
  572MOL0     H75442   5.177   3.180   2.628 -0.7472  0.3550  3.7062
  572MOL0     H75443   5.391   3.293   2.626  1.6683 -0.9720  1.2227
  572MOL0     H75444   5.369   3.207   2.474  0.0107 -4.8783 -0.4805
  572MOL0     H75445   5.540   3.047   2.549 -1.3022  1.5645 -3.4567
  572MOL0     H75446   5.526   3.132   2.715  1.4383 -2.8756 -1.0433
  572MOL0     H75447   5.670   3.254   2.474  3.7811 -0.7453  0.1039
  572MOL0     H75448   5.631   3.332   2.626 -0.0363 -0.6408  1.3218
  572MOL0     H75449   5.814   3.085   2.556  1.3197  0.6301  1.7857
  572MOL0     H75450   5.755   3.103   2.720 -1.4029 -3.0020 -1.2164
  572MOL0     H75451   5.881   3.318   2.729  4.3967  2.1895 -1.1218
  572MOL0     H75452   5.913   3.307   2.562  0.7321 -0.5980  0.5948
  572MOL0     H75453   6.016   3.158   2.802 -1.0796  2.5540  0.6250
  572MOL0     H75454   6.031   3.059   2.660 -1.8285 -0.5358 -1.5407
  572MOL0     H75455   6.156   3.249   2.566 -1.5602 -2.5647  0.2201
  572MOL0     H75456   6.229   3.196   2.714 -0.5413 -0.4089 -1.1763
  572MOL0     H75457   6.068   3.514   2.558 -1.1087  0.3566 -0.3192
  572MOL0     H75458   5.993   3.775   2.746  1.7852  0.4464  2.5444
  572MOL0     H75459   6.071   3.742   2.585 -4.2566  0.4060  0.3722
  572MOL0     H75460   6.296   3.763   2.722 -1.0255 -0.1987 -0.0849
  572MOL0     H75461   6.197   3.832   2.842 -3.1934 -1.3654  0.5916
  572MOL0     H75462   6.242   3.918   2.549 -2.7609  0.6205 -1.4698
  572MOL0     H75463   6.102   3.976   2.641 -1.4816 -3.4032 -0.0160
  572MOL0     H75464   6.259   4.091   2.800 -1.5526  2.2479 -0.9804
  572MOL0     H75465   6.290   4.150   2.646 -3.8037 -0.4427 -0.1234
  572MOL0     H75466   6.624   4.151   2.546 -1.1101 -0.5015  0.2681
  572MOL0     H75467   6.787   4.315   2.631  1.8561 -0.3791  0.7620
  572MOL0     H75468   7.033   4.600   2.948 -1.7992 -1.1526 -0.5970
  572MOL0     H75469   7.258   4.603   3.037  1.6188  0.3469 -0.9821
  572MOL0     H75470   7.542   4.500   2.780 -2.5439 -2.2072 -1.3399
  572MOL0     H75471   7.559   4.337   2.836 -2.4752 -0.7575  1.1354
  572MOL0     H75472   7.674   4.583   2.989 -0.1894  0.3668 -0.4800
  572MOL0     H75473   7.778   4.489   2.883 -0.1237 -0.1745 -0.9679
  572MOL0     H75474   7.715   4.267   3.001 -0.9832  0.1935 -0.6430
  572MOL0     H75475   7.637   4.371   3.122  0.2755 -0.5147 -0.5993
  572MOL0     H75476   7.934   4.407   3.039 -1.6778  4.5998 -1.7178
  572MOL0     H75477   7.849   4.505   3.152 -0.0194 -0.8463  0.9179
  572MOL0     H75478   7.924   4.209   3.150 -0.6914  1.8783 -1.5015
  572MOL0     H75479   7.797   4.260   3.274 -0.2823 -0.3614  0.2145
  572MOL0     H75480   7.967   4.441   3.351 -3.1828 -1.6676  0.2279
  572MOL0     H75481   8.073   4.385   3.218 -1.6794  0.4682 -2.5250
  572MOL0     H75482   8.125   4.191   3.307 -0.5225  0.1960 -0.7932
  572MOL0     H75483   8.159   4.295   3.422 -0.0611  1.3626 -2.0464
  572MOL0     H75484   7.871   4.196   3.463 -0.5045 -3.1640 -3.3168
  572MOL0     H75485   8.015   4.152   3.565 -1.7523 -1.6722 -0.3235
  572MOL0     H75486   7.357   4.268   2.792 -3.1712 -1.7615 -2.6266
  572MOL0     H75487   7.136   4.240   2.728 -1.2070 -0.0979  0.2642
  572MOL0     H75488   6.678   4.196   3.022  0.6599 -0.8598 -0.4837
  572MOL0     H75489   6.486   4.072   2.944 -0.8977  0.5735  0.6648
  572MOL0     H75490   5.079   3.008   2.803 -3.1537 -1.6952  1.6994
  572MOL0     H75491   4.907   2.832   2.834  0.6067  1.4563  0.4788
  572MOL0     H75492   5.007   2.287   2.853 -0.1857 -2.1804 -1.2430
  572MOL0     H75493   4.861   2.097   2.905 -0.5527  0.3324  1.1076
  572MOL0     H75494   4.543   2.059   2.744  3.7952  1.9672  0.1259
  572MOL0     H75495   4.432   2.018   2.877  0.3919  0.2271  2.0933
  572MOL0     H75496   4.552   1.835   2.749 -0.4326  0.3135 -0.0368
  572MOL0     H75497   4.695   1.870   2.833  0.7276 -0.1440 -1.4028
  572MOL0     H75498   4.479   1.699   2.910  0.5375  0.3774  0.2371
  572MOL0     H75499   4.471   1.834   3.025 -2.0643 -1.3769 -0.9461
  572MOL0     H75500   4.622   1.636   3.093  3.3348 -1.5374 -0.7338
  572MOL0     H75501   4.728   1.673   2.955  0.6701  2.8592 -0.5747
  572MOL0     H75502   4.859   1.999   3.138 -1.4037 -0.4264 -1.6880
  572MOL0     H75503   4.515   2.319   2.828  0.5292  0.7815  0.8736
  572MOL0     H75504   4.659   2.518   2.753 -2.3038  0.3591  2.7203
  573MOL0     O75505   0.730   0.844   3.560 -0.5194  0.2679 -0.3955
  573MOL0     C75506   0.732   0.969   3.557 -0.1975  0.3701 -0.0627
  573MOL0     O75507   0.688   1.051   3.454 -0.3694 -0.4396  0.5372
  573MOL0     C75508   0.620   0.993   3.359  0.0053  0.9192  1.1985
  573MOL0     C75509   0.691   0.972   3.239 -0.0965 -0.6980  0.5379
  573MOL0     C75510   0.631   0.915   3.126  0.4553  0.3556 -0.3748
  573MOL0     C75511   0.498   0.880   3.125 -0.2358  0.6496 -0.0323
  573MOL0     O75512   0.441   0.813   3.021  0.2650  0.5100  0.2225
  573MOL0     C75513   0.507   0.812   2.893  0.1546 -0.1470 -0.4815
  573MOL0     C75514   0.562   0.669   2.853  0.7740 -0.1734 -0.5506
  573MOL0     C75515   0.472   0.556   2.892 -0.2280 -0.2792  0.8945
  573MOL0     C75516   0.555   0.422   2.878  0.3984  0.3252 -0.1286
  573MOL0     C75517   0.482   0.303   2.886 -0.3065  0.1723 -0.3814
  573MOL0     C75518   0.554   0.172   2.845 -0.1607 -0.1642 -0.5704
  573MOL0     C75519   0.666   0.157   2.950  0.2835 -0.5260  0.0984
  573MOL0     C75520   0.738   0.019   2.920  0.6317  1.0390 -0.1936
  573MOL0     N75521   0.803   0.027   2.785  0.0858 -0.1946  0.1870
  573MOL0     C75522   0.923   0.088   2.758  0.2814  0.1425  0.0253
  573MOL0     C75523   0.939   0.062   2.620 -0.5922  1.0131 -1.0709
  573MOL0     C75524   1.047   0.087   2.526 -0.4806  0.0160 -0.2911
  573MOL0     C75525   1.187   0.049   2.591  0.6329  0.1032 -0.0931
  573MOL0     C75526   1.310   0.047   2.497  0.3035  0.2013  0.0290
  573MOL0     C75527   1.337   0.174   2.428 -0.1377 -0.0489  0.1167
  573MOL0     O75528   1.246   0.171   2.314  0.5051  0.2563  0.1630
  573MOL0     C75529   1.261   0.100   2.197 -0.5312  0.7304 -0.8285
  573MOL0     C75530   1.150   0.086   2.116  0.3930  0.2309  0.2847
  573MOL0     C75531   1.156   0.039   1.985  0.0671  1.2190  0.0632
  573MOL0     C75532   1.279  -0.020   1.933 -0.8804 -0.6223 -0.4514
  573MOL0     C75533   1.298  -0.075   1.799  1.1413  0.2120  0.2702
  573MOL0     O75534   1.421  -0.119   1.752 -0.6585 -0.2364  0.1172
  573MOL0     C75535   1.417  -0.190   1.644 -0.1034  0.8496 -0.3890
  573MOL0     C75536   1.434  -0.329   1.655  0.5875 -0.2182 -0.2083
  573MOL0     C75537   1.433  -0.409   1.537  0.2861  0.0851 -0.9414
  573MOL0     C75538   1.399  -0.348   1.419  0.4503  1.0337  0.6488
  573MOL0     O75539   1.392  -0.414   1.301  1.0644 -0.3974 -0.5628
  573MOL0     C75540   1.356  -0.547   1.308 -0.1013 -0.6541 -0.0527
  573MOL0     C75541   1.346  -0.593   1.164 -0.1843 -0.1665 -0.3916
  573MOL0     C75542   1.312  -0.738   1.164  0.1155  0.4635  0.1672
  573MOL0     C75543   1.244  -0.766   1.026  0.0688  0.1599  0.5449
  573MOL0     C75544   1.195  -0.911   1.020 -0.7945  0.1179 -1.1891
  573MOL0     C75545   1.179  -0.952   0.872  0.4781 -0.1012 -0.1400
  573MOL0     C75546   1.156  -1.105   0.849 -0.5031  1.0342 -0.1022
  573MOL0     C75547   1.153  -1.126   0.699 -1.0098  0.2579  0.2128
  573MOL0    Cl75548   0.983  -1.121   0.640 -0.5773  0.6499  0.1467
  573MOL0     C75549   1.391  -0.211   1.406  0.0034 -0.2686  0.2534
  573MOL0     C75550   1.397  -0.132   1.521 -1.1311  0.1186  0.4503
  573MOL0     O75551   1.187  -0.080   1.734 -0.5912  0.9831  0.0793
  573MOL0     C75552   1.383  -0.017   2.023 -0.4650 -0.1124 -0.0116
  573MOL0     C75553   1.384   0.052   2.149 -1.4019 -0.8037 -0.4345
  573MOL0     N75554   0.830  -0.008   2.579  0.8020 -0.0309 -0.3540
  573MOL0     N75555   0.749  -0.031   2.679 -0.6380  0.3709  0.0289
  573MOL0     C75556   0.418   0.896   3.239  0.2440 -0.0586 -0.5512
  573MOL0     C75557   0.486   0.941   3.359  0.0566  0.3978 -0.1985
  573MOL0     C75558   0.801   1.036   3.658  1.4780 -0.8532 -0.5708
  573MOL0     C75559   0.869   0.961   3.752 -1.4055  1.0755 -0.4321
  573MOL0     C75560   0.924   1.031   3.861 -0.4492  0.4243 -0.0898
  573MOL0     C75561   0.928   1.169   3.867  0.0694 -0.2224 -0.4034
  573MOL0     O75562   0.973   1.229   3.985 -0.5794  0.2414 -0.4722
  573MOL0     C75563   1.043   1.353   3.990 -0.0725 -0.8958  0.0451
  573MOL0     C75564   0.985   1.429   4.112 -0.3898  0.1143  0.3637
  573MOL0     C75565   1.037   1.578   4.126  0.8903 -0.8376  0.4142
  573MOL0     C75566   0.999   1.650   4.251 -0.0226 -0.9123 -1.1035
  573MOL0     C75567   1.041   1.593   4.379 -0.2357  0.6312 -0.2022
  573MOL0     C75568   1.058   1.549   4.486  0.4318  0.9006 -0.7641
  573MOL0     C75569   0.873   1.244   3.762  0.1564 -0.4505 -0.3229
  573MOL0     C75570   0.803   1.180   3.658 -0.4196 -0.3213 -0.2168
  573MOL0     H75571   0.798   0.993   3.236 -0.0570 -0.9190  0.3935
  573MOL0     H75572   0.700   0.874   3.052  0.5723 -1.7149  0.8055
  573MOL0     H75573   0.591   0.881   2.884 -2.4967  3.4906  0.3578
  573MOL0     H75574   0.438   0.849   2.817  2.9521  0.4566 -2.9096
  573MOL0     H75575   0.660   0.661   2.900 -0.0024  2.0902  1.6770
  573MOL0     H75576   0.597   0.661   2.750 -0.6432 -4.6103 -0.8951
  573MOL0     H75577   0.389   0.553   2.821 -0.0761 -1.2599  0.7496
  573MOL0     H75578   0.421   0.568   2.988 -0.9911 -0.3277  0.4999
  573MOL0     H75579   0.604   0.423   2.781 -1.0253 -1.6931 -0.9398
  573MOL0     H75580   0.630   0.402   2.955 -0.7910 -4.3211  0.1579
  573MOL0     H75581   0.395   0.302   2.820 -0.4174 -0.8867 -0.2428
  573MOL0     H75582   0.443   0.307   2.988  0.2112  2.6833 -0.2210
  573MOL0     H75583   0.579   0.193   2.740  0.2120 -0.4965 -0.5539
  573MOL0     H75584   0.489   0.084   2.841 -2.0530  1.2131 -1.6340
  573MOL0     H75585   0.732   0.242   2.938 -2.0781  1.0030 -4.2521
  573MOL0     H75586   0.625   0.159   3.052  1.4534  2.2730  0.5874
  573MOL0     H75587   0.657  -0.052   2.939  0.6796  0.8551 -0.6705
  573MOL0     H75588   0.818  -0.007   2.989 -1.6577 -0.4855  2.0426
  573MOL0     H75589   1.004   0.128   2.818  0.3700 -1.9903  1.4471
  573MOL0     H75590   1.052   0.194   2.506  2.3913  0.2823  1.2656
  573MOL0     H75591   1.033   0.041   2.428 -1.8221 -0.4875  0.1126
  573MOL0     H75592   1.186  -0.053   2.630 -0.3878  0.8492  2.0070
  573MOL0     H75593   1.210   0.118   2.673  0.6072 -1.6829  1.4910
  573MOL0     H75594   1.395   0.017   2.558  0.7153  0.4815 -0.4005
  573MOL0     H75595   1.304  -0.033   2.422 -2.4674  1.4709 -1.2772
  573MOL0     H75596   1.439   0.166   2.388 -0.0497  3.2000 -0.6344
  573MOL0     H75597   1.319   0.260   2.494 -0.7497 -0.0721 -0.0190
  573MOL0     H75598   1.056   0.127   2.152 -0.4187  0.4221 -1.9215
  573MOL0     H75599   1.074   0.047   1.914  0.0427 -1.1806 -0.2874
  573MOL0     H75600   1.446  -0.386   1.747  3.4900  3.3173  1.8767
  573MOL0     H75601   1.449  -0.516   1.550 -1.4848 -0.1223 -0.0976
  573MOL0     H75602   1.263  -0.564   1.362 -0.6264 -2.1149 -1.3467
  573MOL0     H75603   1.432  -0.607   1.358  2.4312  1.0298 -1.5709
  573MOL0     H75604   1.430  -0.568   1.099  1.1804  3.4795  2.4031
  573MOL0     H75605   1.266  -0.539   1.113  0.0855 -0.0996 -0.7481
  573MOL0     H75606   1.242  -0.777   1.239 -1.5940  1.2584 -0.9600
  573MOL0     H75607   1.408  -0.791   1.165  1.0630  1.9050 -3.1818
  573MOL0     H75608   1.155  -0.704   1.009 -2.0862 -3.4107 -2.5122
  573MOL0     H75609   1.316  -0.764   0.944 -0.1666 -1.3367  0.2863
  573MOL0     H75610   1.114  -0.937   1.089  1.8581 -0.6378  1.8897
  573MOL0     H75611   1.278  -0.970   1.060 -0.7960  0.7296 -0.2522
  573MOL0     H75612   1.258  -0.917   0.805  1.3885 -1.7564  0.0353
  573MOL0     H75613   1.085  -0.899   0.849  0.7389 -0.5330 -2.3935
  573MOL0     H75614   1.238  -1.169   0.881  0.1790  1.3026 -1.2690
  573MOL0     H75615   1.059  -1.137   0.888 -1.1305  1.7689 -1.0141
  573MOL0     H75616   1.189  -1.223   0.663  0.3193  0.6413  0.4814
  573MOL0     H75617   1.202  -1.052   0.636 -0.4950 -0.7750 -0.6311
  573MOL0     H75618   1.385  -0.170   1.305 -1.0182 -3.4620 -1.1011
  573MOL0     H75619   1.369  -0.029   1.503 -2.0185 -0.1396  0.2962
  573MOL0     H75620   1.481  -0.057   2.001 -0.1687 -0.2944  1.5355
  573MOL0     H75621   1.478   0.065   2.201  0.8883  3.1831 -4.7882
  573MOL0     H75622   0.319   0.853   3.241  0.4818 -0.6094 -0.4341
  573MOL0     H75623   0.424   0.948   3.449  0.7234  0.6127  0.2503
  573MOL0     H75624   0.874   0.853   3.748  2.1592  1.0761  0.5971
  573MOL0     H75625   0.953   0.966   3.943  1.6225  0.4942 -0.7065
  573MOL0     H75626   1.019   1.415   3.903  1.8567 -1.1653 -0.7225
  573MOL0     H75627   1.150   1.335   3.995 -0.1981 -1.4316  1.1349
  573MOL0     H75628   0.881   1.443   4.081  0.7718 -0.8107 -5.0303
  573MOL0     H75629   1.000   1.369   4.202 -1.8638 -0.9247 -0.0433
  573MOL0     H75630   0.987   1.633   4.045 -1.9172 -4.5328 -0.6706
  573MOL0     H75631   1.143   1.570   4.103  0.6584 -1.6924 -0.4384
  573MOL0     H75632   1.048   1.747   4.261  0.5430 -1.3211  0.3438
  573MOL0     H75633   0.894   1.680   4.262  0.6144  1.3089 -0.5982
  573MOL0     H75634   1.078   1.528   4.590  1.2282  1.1180 -0.8666
  573MOL0     H75635   0.862   1.350   3.782  2.5675 -0.0752 -0.7841
  573MOL0     H75636   0.756   1.246   3.586  1.6705 -0.1305 -1.5144
  574MOL0     O75637   8.053   1.869   4.937  0.2971 -0.0457 -0.4292
  574MOL0     C75638   8.045   1.777   4.853 -1.0830  0.0326 -0.0133
  574MOL0     O75639   8.081   1.783   4.725  0.0170 -0.2790  0.2309
  574MOL0     C75640   8.166   1.881   4.669  0.2753 -0.6737  0.6491
  574MOL0     C75641   8.288   1.932   4.713  0.6445 -0.0815  0.3390
  574MOL0     C75642   8.359   2.019   4.639 -0.2113 -0.0702  0.1225
  574MOL0     C75643   8.306   2.077   4.526 -0.2537 -0.4577  0.4789
  574MOL0     O75644   8.391   2.180   4.473  0.0320  0.5003 -0.4018
  574MOL0     C75645   8.315   2.264   4.380  0.4562 -0.8244  0.0013
  574MOL0     C75646   8.411   2.383   4.347 -0.5902  0.3355  0.1022
  574MOL0     C75647   8.529   2.332   4.278 -0.2589 -0.2332  0.0883
  574MOL0     C75648   8.613   2.447   4.209  0.5063 -0.1992 -0.0204
  574MOL0     C75649   8.754   2.410   4.185  1.0152  0.3433  0.2608
  574MOL0     C75650   8.778   2.326   4.061  0.5169  0.6265  0.3324
  574MOL0     C75651   8.927   2.353   4.011 -0.4867  0.6074 -0.1813
  574MOL0     C75652   8.946   2.262   3.885 -0.5175 -0.2645 -0.3709
  574MOL0     N75653   8.900   2.328   3.760 -0.3922 -0.7672 -0.1784
  574MOL0     C75654   8.979   2.410   3.677 -0.9720 -0.7832 -0.9227
  574MOL0     C75655   8.906   2.471   3.591 -0.2875  0.8604 -0.6770
  574MOL0     C75656   8.957   2.541   3.464  0.5379 -0.0636 -0.0233
  574MOL0     C75657   8.998   2.687   3.497 -0.3354  0.2363  0.3232
  574MOL0     C75658   9.002   2.770   3.367 -0.7840  0.4264 -0.8453
  574MOL0     C75659   9.094   2.734   3.252  0.3807 -1.0296 -0.3051
  574MOL0     O75660   9.228   2.737   3.284 -0.4739  0.3463 -0.0478
  574MOL0     C75661   9.329   2.772   3.189  0.4375 -0.2829 -0.5850
  574MOL0     C75662   9.319   2.762   3.051 -0.9637 -0.0305 -0.7745
  574MOL0     C75663   9.421   2.806   2.963  0.7690 -0.3742  0.0647
  574MOL0     C75664   9.548   2.848   3.011 -0.6292  0.4761 -0.1729
  574MOL0     C75665   9.667   2.858   2.935  0.4869 -0.2635 -0.6076
  574MOL0     O75666   9.782   2.790   2.996  0.0992 -0.4472  0.0698
  574MOL0     C75667   9.847   2.713   2.906  0.5648 -0.3900 -0.3135
  574MOL0     C75668   9.966   2.750   2.845  0.9699  0.2175  0.1606
  574MOL0     C75669  10.034   2.663   2.749 -0.4076 -1.2254 -0.2864
  574MOL0     C75670   9.975   2.542   2.729 -0.5606 -0.4958 -0.1442
  574MOL0     O75671  10.018   2.449   2.643  0.6425 -0.1188  0.6327
  574MOL0     C75672  10.141   2.481   2.575  0.4682 -0.0245  0.0411
  574MOL0     C75673  10.188   2.360   2.489  0.0444  0.0374 -0.0448
  574MOL0     C75674  10.206   2.226   2.570 -0.7095 -0.0605  1.0390
  574MOL0     C75675  10.281   2.124   2.485 -0.3205  1.1471  1.3121
  574MOL0     C75676  10.262   1.991   2.554  0.0001  0.2987  0.0391
  574MOL0     C75677  10.363   1.878   2.514  0.0009  0.9489  0.0283
  574MOL0     C75678  10.513   1.902   2.554 -0.2458 -0.1625  0.1196
  574MOL0     C75679  10.603   1.790   2.501 -0.2682 -0.5822 -0.0134
  574MOL0    Cl75680  10.760   1.815   2.585 -0.1796  0.5290  0.4498
  574MOL0     C75681   9.851   2.496   2.803 -0.7038 -0.6222 -0.1897
  574MOL0     C75682   9.792   2.586   2.886  0.3033  0.0491 -0.0197
  574MOL0     O75683   9.660   2.906   2.819  0.4884 -0.0181  0.0810
  574MOL0     C75684   9.556   2.853   3.156  0.5418 -0.7812  0.3061
  574MOL0     C75685   9.445   2.823   3.239  0.6655 -0.7957  0.8487
  574MOL0     N75686   8.779   2.423   3.629 -1.2748 -0.1632 -0.0976
  574MOL0     N75687   8.775   2.328   3.723  0.5259 -0.3851  0.8149
  574MOL0     C75688   8.180   2.035   4.476  1.2449 -0.5234  0.5296
  574MOL0     C75689   8.108   1.936   4.544  0.5568 -0.1319 -0.4225
  574MOL0     C75690   7.989   1.654   4.898  0.1530  0.3808 -0.0035
  574MOL0     C75691   8.021   1.532   4.825  0.6528 -0.0288  0.8284
  574MOL0     C75692   7.993   1.412   4.868  0.3163  0.9688 -0.2547
  574MOL0     C75693   7.925   1.389   4.988 -0.7072 -1.0682 -0.1378
  574MOL0     O75694   7.894   1.260   5.027 -0.7991  0.0068 -1.0551
  574MOL0     C75695   7.892   1.228   5.164  0.3276 -0.5627  0.1239
  574MOL0     C75696   7.966   1.095   5.185  0.2456  0.4113 -0.0753
  574MOL0     C75697   7.898   0.973   5.105  0.3092  0.1905 -0.7615
  574MOL0     C75698   7.799   0.913   5.193 -0.2232 -0.0906  0.3685
  574MOL0     C75699   7.807   0.769   5.175 -0.1385  0.3346  0.9427
  574MOL0     C75700   7.799   0.645   5.161  0.3303  0.0772 -0.8030
  574MOL0     C75701   7.888   1.501   5.062 -0.1970 -0.3740  1.0666
  574MOL0     C75702   7.926   1.633   5.022 -0.0526  0.5015  0.5765
  574MOL0     H75703   8.314   1.886   4.808 -2.2451  2.5875  2.6693
  574MOL0     H75704   8.460   2.048   4.665 -0.5912  0.6459  0.8565
  574MOL0     H75705   8.224   2.308   4.421 -1.4007 -3.0110 -1.4776
  574MOL0     H75706   8.285   2.199   4.297 -0.7472 -2.1498  1.4193
  574MOL0     H75707   8.436   2.438   4.438  1.7291 -2.6336  1.4177
  574MOL0     H75708   8.357   2.455   4.285 -2.7329  1.0298  2.5952
  574MOL0     H75709   8.503   2.258   4.201  0.6376 -1.2074  0.6937
  574MOL0     H75710   8.589   2.276   4.351 -1.6220 -0.7366  0.8758
  574MOL0     H75711   8.563   2.491   4.122 -2.6312  0.6229  2.0123
  574MOL0     H75712   8.621   2.528   4.283 -0.4420  1.9678 -2.1564
  574MOL0     H75713   8.806   2.355   4.264  1.9951  0.9578  0.0599
  574MOL0     H75714   8.799   2.508   4.169  1.6359 -0.1705 -1.4709
  574MOL0     H75715   8.703   2.363   3.990 -0.9054 -2.7949 -0.1578
  574MOL0     H75716   8.772   2.220   4.085  0.4422  0.3462 -0.8520
  574MOL0     H75717   8.944   2.458   3.988  2.2404  0.0997 -0.7807
  574MOL0     H75718   8.996   2.323   4.091 -1.1198  0.9606  0.5099
  574MOL0     H75719   8.897   2.167   3.910 -1.8494  0.5286  0.1173
  574MOL0     H75720   9.055   2.247   3.884 -0.2989  1.2082 -0.2822
  574MOL0     H75721   9.087   2.423   3.682 -0.9815 -0.8453 -0.4270
  574MOL0     H75722   8.882   2.525   3.387  0.4904 -3.3800  0.5583
  574MOL0     H75723   9.042   2.482   3.429 -1.6476 -1.7079 -2.9666
  574MOL0     H75724   9.095   2.679   3.548 -0.4341 -1.7136  0.2601
  574MOL0     H75725   8.930   2.733   3.569 -3.1041  1.8277 -3.0397
  574MOL0     H75726   8.897   2.777   3.337 -1.2995 -1.9479  0.2390
  574MOL0     H75727   9.004   2.874   3.402  1.3951 -0.8260  3.3590
  574MOL0     H75728   9.073   2.802   3.168  0.0043  0.6195  1.0674
  574MOL0     H75729   9.058   2.638   3.214 -4.0067 -0.5004  1.8739
  574MOL0     H75730   9.239   2.723   2.988 -0.8181  1.3453 -1.8632
  574MOL0     H75731   9.414   2.785   2.856  0.4404 -0.7478  0.1572
  574MOL0     H75732  10.003   2.852   2.856  5.0904 -1.2898  2.3353
  574MOL0     H75733  10.116   2.707   2.692  0.5052 -3.1552 -0.5251
  574MOL0     H75734  10.220   2.511   2.645 -0.7484 -2.8336  2.8620
  574MOL0     H75735  10.119   2.573   2.519  2.0474 -0.0905 -0.7352
  574MOL0     H75736  10.285   2.372   2.440  0.0435 -5.6737 -2.1689
  574MOL0     H75737  10.112   2.367   2.410 -0.5750  0.3766  0.5666
  574MOL0     H75738  10.104   2.188   2.577  0.5703 -3.7866  1.5642
  574MOL0     H75739  10.247   2.242   2.670  2.6507  2.6844 -0.5704
  574MOL0     H75740  10.253   2.113   2.380  1.2684  0.8192  0.8882
  574MOL0     H75741  10.386   2.153   2.498 -0.3774  1.5699  0.8504
  574MOL0     H75742  10.160   1.953   2.541  0.2630 -0.9563  1.4457
  574MOL0     H75743  10.272   2.005   2.662  1.6967 -0.5246  0.0245
  574MOL0     H75744  10.361   1.867   2.405  0.1571  1.8734 -0.0730
  574MOL0     H75745  10.336   1.780   2.556 -1.6892  0.3030 -2.3279
  574MOL0     H75746  10.554   1.994   2.511 -1.7433  0.6548  0.3942
  574MOL0     H75747  10.512   1.908   2.663 -1.9077 -0.2884  0.1241
  574MOL0     H75748  10.609   1.783   2.392 -3.6683 -0.6094 -0.2862
  574MOL0     H75749  10.564   1.690   2.524 -0.3150 -0.1138  2.2052
  574MOL0     H75750   9.807   2.397   2.801  1.2063 -1.7329  3.1979
  574MOL0     H75751   9.692   2.563   2.920 -0.3292  0.4861 -1.5351
  574MOL0     H75752   9.644   2.890   3.208 -1.4729  0.0522  3.3974
  574MOL0     H75753   9.450   2.838   3.347 -0.1834  1.8104  0.5941
  574MOL0     H75754   8.139   2.068   4.381 -2.3269 -0.0085  2.0841
  574MOL0     H75755   8.023   1.889   4.496  0.5532 -2.8924  2.0296
  574MOL0     H75756   8.087   1.530   4.739 -1.0750 -2.7001 -0.5930
  574MOL0     H75757   8.020   1.325   4.809 -0.0238  0.3114  0.5537
  574MOL0     H75758   7.788   1.223   5.198  0.8730 -4.8608  1.7943
  574MOL0     H75759   7.940   1.304   5.226 -0.0918  2.7700 -3.2624
  574MOL0     H75760   8.068   1.121   5.155 -0.2789  0.7543 -1.6394
  574MOL0     H75761   7.977   1.076   5.293 -0.9345  0.1356  0.0098
  574MOL0     H75762   7.970   0.897   5.075  0.7841  0.4213 -0.2165
  574MOL0     H75763   7.838   1.006   5.020 -3.0951 -1.9569  0.5744
  574MOL0     H75764   7.831   0.919   5.297  1.4753 -3.5049  0.1936
  574MOL0     H75765   7.698   0.954   5.184 -2.4594 -4.9296  0.4218
  574MOL0     H75766   7.809   0.539   5.160  0.0519 -0.0307  1.8984
  574MOL0     H75767   7.817   1.492   5.144 -3.6849 -2.2655 -1.8599
  574MOL0     H75768   7.888   1.712   5.086  0.7251  0.4017  1.1726
  575MOL0     O75769   5.940  11.300   6.999  0.1698  0.1517  0.7322
  575MOL0     C75770   5.835  11.271   7.061 -0.8219 -1.1429 -0.6984
  575MOL0     O75771   5.771  11.360   7.143  0.7426 -0.5870  0.0022
  575MOL0     C75772   5.813  11.487   7.171 -0.3178  0.5252 -0.2645
  575MOL0     C75773   5.795  11.534   7.304 -0.7490 -0.3422 -0.7087
  575MOL0     C75774   5.836  11.659   7.339  0.1775 -1.2517  0.1105
  575MOL0     C75775   5.865  11.751   7.242  1.1171 -0.2980 -1.0264
  575MOL0     O75776   5.878  11.873   7.290 -0.8516 -0.0768 -0.5020
  575MOL0     C75777   5.910  11.977   7.200 -0.5830  0.7009  0.5324
  575MOL0     C75778   5.967  12.076   7.299  0.2083 -0.0342  1.0245
  575MOL0     C75779   6.094  12.048   7.383  0.8791 -0.1991  0.6274
  575MOL0     C75780   6.109  12.145   7.493  0.1136 -0.2942 -0.8770
  575MOL0     C75781   6.226  12.132   7.588 -0.6710  0.1556 -0.1952
  575MOL0     C75782   6.238  12.012   7.672  0.5857 -0.1013  0.4368
  575MOL0     C75783   6.115  11.975   7.741  0.4439  0.9668  0.2465
  575MOL0     C75784   6.140  11.849   7.836  0.6333  0.6964  1.1614
  575MOL0     N75785   6.198  11.726   7.775 -0.5339  0.0622  0.2932
  575MOL0     C75786   6.117  11.660   7.690 -0.6599  0.7072  0.6664
  575MOL0     C75787   6.201  11.568   7.639 -0.3875  1.0786  0.0311
  575MOL0     C75788   6.166  11.488   7.521 -0.5185  0.3322  0.3578
  575MOL0     C75789   6.080  11.371   7.549 -0.6633 -0.3062 -0.5586
  575MOL0     C75790   6.048  11.291   7.421  0.0476 -0.2726  0.2191
  575MOL0     C75791   5.947  11.181   7.442  0.8609 -1.5538  0.5804
  575MOL0     O75792   6.010  11.101   7.541  1.1149 -0.5158  0.4311
  575MOL0     C75793   5.963  10.978   7.569 -0.2384 -0.0699 -0.2606
  575MOL0     C75794   6.005  10.910   7.686  0.0260  0.0835 -1.4107
  575MOL0     C75795   5.940  10.792   7.737 -0.0555 -0.2231 -0.1639
  575MOL0     C75796   5.846  10.731   7.647  0.0446  0.0476 -0.2221
  575MOL0     C75797   5.796  10.600   7.692  0.3649 -0.5733 -0.3591
  575MOL0     O75798   5.830  10.560   7.819 -0.5406  0.3062  0.4312
  575MOL0     C75799   5.796  10.436   7.865  0.5554 -0.2716  0.3589
  575MOL0     C75800   5.791  10.317   7.785 -0.7161  0.3777 -0.6930
  575MOL0     C75801   5.779  10.190   7.846 -0.9172  1.0496  0.8096
  575MOL0     C75802   5.777  10.182   7.980  0.2309  0.1939 -0.3023
  575MOL0     O75803   5.772  10.059   8.037 -0.8067  0.2815 -0.5315
  575MOL0     C75804   5.837  10.037   8.161 -0.4104 -0.4791  0.0993
  575MOL0     C75805   5.896   9.897   8.164 -0.4298  0.3055  0.2263
  575MOL0     C75806   5.808   9.776   8.143 -0.2747 -0.7331 -0.0777
  575MOL0     C75807   5.880   9.643   8.148 -0.0916 -0.6172  0.2840
  575MOL0     C75808   5.791   9.522   8.147  0.2888 -0.0234  0.4774
  575MOL0     C75809   5.861   9.405   8.082  0.8682  0.8392 -0.3026
  575MOL0     C75810   5.961   9.334   8.172 -0.5792  0.1476 -0.5143
  575MOL0     C75811   5.902   9.224   8.272 -0.1772  0.2782  0.2325
  575MOL0    Cl75812   6.043   9.161   8.359 -0.1148  0.0103 -0.2190
  575MOL0     C75813   5.782  10.301   8.058  0.8971  0.3053  0.0002
  575MOL0     C75814   5.790  10.430   8.012  0.3428 -0.1440  0.2561
  575MOL0     O75815   5.725  10.542   7.609  0.2101  0.0193 -0.2559
  575MOL0     C75816   5.808  10.791   7.527  0.3051 -0.1654 -0.3805
  575MOL0     C75817   5.869  10.910   7.494  0.2981  0.6424  0.3656
  575MOL0     N75818   6.313  11.557   7.713  0.6162  0.0448 -1.2472
  575MOL0     N75819   6.315  11.661   7.799  0.1892  0.7232 -0.3868
  575MOL0     C75820   5.866  11.716   7.109 -0.4523  0.6094  0.6666
  575MOL0     C75821   5.854  11.584   7.075  0.9920  1.0087 -0.0616
  575MOL0     C75822   5.783  11.142   7.062  1.2825  0.5065  0.1278
  575MOL0     C75823   5.657  11.116   7.106  0.5890  0.8603  0.0142
  575MOL0     C75824   5.602  10.993   7.110  0.2123  1.7977  0.5171
  575MOL0     C75825   5.679  10.881   7.068  0.1857 -0.0381 -0.0202
  575MOL0     O75826   5.607  10.763   7.078 -0.8634 -0.7128 -0.1910
  575MOL0     C75827   5.684  10.649   7.133  0.4275  0.4880  0.1066
  575MOL0     C75828   5.632  10.531   7.056 -0.6642  0.0315  0.5235
  575MOL0     C75829   5.671  10.528   6.913 -0.0673  0.6493  0.3385
  575MOL0     C75830   5.565  10.567   6.805  0.9281 -0.7060 -0.0796
  575MOL0     C75831   5.448  10.477   6.807 -1.1811  0.7291  0.7996
  575MOL0     C75832   5.348  10.413   6.824 -0.9388 -0.2140 -0.1776
  575MOL0     C75833   5.814  10.897   7.031 -0.3403 -0.0066  0.1588
  575MOL0     C75834   5.858  11.032   7.016 -0.1737  0.4282  1.3745
  575MOL0     H75835   5.766  11.462   7.381 -1.2255  0.4494 -0.1374
  575MOL0     H75836   5.842  11.670   7.447  1.5700  1.1733 -0.1604
  575MOL0     H75837   5.833  12.016   7.134  1.1034 -1.6269 -3.1548
  575MOL0     H75838   5.991  11.952   7.131 -2.1358 -3.1471 -0.1410
  575MOL0     H75839   5.888  12.088   7.374  0.0884  1.5880  0.6728
  575MOL0     H75840   5.980  12.170   7.245  1.1241 -0.9370 -0.3770
  575MOL0     H75841   6.177  12.063   7.314 -0.9294 -1.6530 -2.0140
  575MOL0     H75842   6.111  11.946   7.420  0.7885 -1.6846 -3.0427
  575MOL0     H75843   6.119  12.244   7.447  1.3961 -0.0859 -0.1912
  575MOL0     H75844   6.022  12.133   7.559 -0.8817 -1.0673 -2.2776
  575MOL0     H75845   6.217  12.220   7.653 -1.4409  0.5845 -0.8701
  575MOL0     H75846   6.318  12.147   7.530 -0.1047 -0.0436  0.6220
  575MOL0     H75847   6.315  12.041   7.743  0.4426 -0.1981  0.6300
  575MOL0     H75848   6.281  11.926   7.619 -0.8234 -0.0739 -0.8054
  575MOL0     H75849   6.095  12.053   7.815 -2.4077  2.6584 -2.0883
  575MOL0     H75850   6.019  11.958   7.692 -1.3421 -1.5894  4.1199
  575MOL0     H75851   6.045  11.811   7.875  0.3418  0.1736 -0.0040
  575MOL0     H75852   6.220  11.878   7.905  0.3047  0.3291  1.6951
  575MOL0     H75853   6.031  11.702   7.638 -0.2829 -1.5266 -2.0441
  575MOL0     H75854   6.260  11.456   7.474 -0.7148 -0.7839  0.7189
  575MOL0     H75855   6.125  11.561   7.450 -3.6732  0.0957  1.7645
  575MOL0     H75856   5.982  11.409   7.580 -1.4436 -0.9972 -2.1045
  575MOL0     H75857   6.109  11.309   7.634 -2.6710 -2.3272 -1.2529
  575MOL0     H75858   6.004  11.359   7.347  1.2838 -1.0013 -1.2620
  575MOL0     H75859   6.141  11.244   7.386  0.0599  0.5316 -0.9104
  575MOL0     H75860   5.951  11.133   7.344  0.8816 -1.2470  0.4288
  575MOL0     H75861   5.849  11.226   7.462  1.2055  0.6967 -2.1016
  575MOL0     H75862   6.066  10.980   7.742  0.3934  0.4715 -2.2794
  575MOL0     H75863   5.974  10.747   7.829  1.8765  1.9842  0.2955
  575MOL0     H75864   5.789  10.315   7.676  0.5354  1.0096 -0.7415
  575MOL0     H75865   5.775  10.092   7.799 -0.6814  0.1965  2.4801
  575MOL0     H75866   5.773  10.047   8.249 -1.0326 -2.3082 -0.1183
  575MOL0     H75867   5.918  10.111   8.174 -2.3469  1.9526 -0.8323
  575MOL0     H75868   5.941   9.873   8.260  0.3470  0.4847 -0.0868
  575MOL0     H75869   5.972   9.904   8.086 -1.5218  0.7925 -0.8335
  575MOL0     H75870   5.766   9.784   8.042  1.7324  2.5339 -0.7795
  575MOL0     H75871   5.738   9.776   8.227  1.7040 -1.2447  1.6481
  575MOL0     H75872   5.956   9.634   8.070 -0.0126 -0.0084  0.2836
  575MOL0     H75873   5.945   9.653   8.236  1.3461  2.2082 -0.9624
  575MOL0     H75874   5.694   9.538   8.099 -0.9592 -2.5516  1.9241
  575MOL0     H75875   5.776   9.476   8.246  1.0797 -3.6491 -0.9110
  575MOL0     H75876   5.899   9.436   7.984 -2.3273  0.8768 -1.6248
  575MOL0     H75877   5.782   9.337   8.051  2.0486 -0.0443 -1.4643
  575MOL0     H75878   6.019   9.273   8.102  1.2781 -0.2245  1.2485
  575MOL0     H75879   6.026   9.402   8.227 -0.8821 -0.8932  1.2136
  575MOL0     H75880   5.833   9.153   8.225 -0.7111  2.4485 -2.5252
  575MOL0     H75881   5.845   9.275   8.351 -0.6788  2.2910 -1.3276
  575MOL0     H75882   5.795  10.282   8.164 -0.6197 -0.2843  0.1140
  575MOL0     H75883   5.788  10.504   8.091  0.7486 -0.7913  0.8838
  575MOL0     H75884   5.730  10.747   7.465 -0.6823  0.5764  0.3086
  575MOL0     H75885   5.839  10.953   7.400  1.4048  1.0657  0.1898
  575MOL0     H75886   5.882  11.779   7.022 -2.6509 -0.2497 -0.4341
  575MOL0     H75887   5.864  11.565   6.968  0.1062  0.8764 -0.1343
  575MOL0     H75888   5.606  11.205   7.140 -1.0647  0.1312 -0.4618
  575MOL0     H75889   5.499  10.994   7.144 -0.1235 -0.4758 -0.2629
  575MOL0     H75890   5.652  10.634   7.237  0.8070 -1.5087 -0.0217
  575MOL0     H75891   5.790  10.672   7.123  0.1499  0.6240 -4.0064
  575MOL0     H75892   5.667  10.443   7.110 -0.4259  0.7767  1.6293
  575MOL0     H75893   5.524  10.534   7.069 -0.5174  0.2684  1.7789
  575MOL0     H75894   5.696  10.426   6.884 -0.1464  0.9587 -0.8791
  575MOL0     H75895   5.747  10.604   6.890 -2.1457  1.8714 -3.3666
  575MOL0     H75896   5.526  10.662   6.843  2.4053  0.1029 -0.5106
  575MOL0     H75897   5.608  10.594   6.708  2.9120 -0.4052  0.8383
  575MOL0     H75898   5.256  10.369   6.857 -1.5386  0.3961 -0.9824
  575MOL0     H75899   5.884  10.817   7.013 -1.2562 -0.9488  0.6712
  575MOL0     H75900   5.954  11.049   6.967 -0.8278  1.8905  0.5369
  576MOL0     O75901   0.934   3.709   3.155  0.0512 -0.4742  0.1613
  576MOL0     C75902   1.012   3.806   3.176  0.5055 -0.3569  0.2209
  576MOL0     O75903   0.972   3.937   3.191 -0.0276 -0.0843  0.2491
  576MOL0     C75904   0.835   3.981   3.197  0.2381  0.2278  0.7650
  576MOL0     C75905   0.808   4.104   3.136  0.8995  0.1781  0.0724
  576MOL0     C75906   0.668   4.140   3.121 -0.4822  0.6030 -0.3384
  576MOL0     C75907   0.571   4.066   3.183  0.1479  0.1762  0.1705
  576MOL0     O75908   0.440   4.095   3.158  0.6283  0.1603 -0.5274
  576MOL0     C75909   0.389   4.012   3.044  0.4577  0.2814 -0.1340
  576MOL0     C75910   0.308   4.111   2.957  0.0525  0.8611 -0.6084
  576MOL0     C75911   0.180   4.159   3.033 -0.1942  0.2603 -0.8429
  576MOL0     C75912   0.096   4.237   2.926  0.7833 -0.2444  0.3140
  576MOL0     C75913  -0.034   4.285   2.993 -0.0135 -0.5688  0.1521
  576MOL0     C75914  -0.021   4.389   3.104 -0.3746 -0.2965  0.8706
  576MOL0     C75915  -0.037   4.535   3.051  1.0538  0.0943  0.4073
  576MOL0     C75916   0.011   4.640   3.140  0.0012 -0.5574 -0.0037
  576MOL0     N75917   0.150   4.631   3.173 -0.5898  1.2285  0.5007
  576MOL0     C75918   0.201   4.621   3.301 -0.7908  0.2796 -0.4170
  576MOL0     C75919   0.330   4.632   3.281  0.0972 -0.1079 -0.1199
  576MOL0     C75920   0.436   4.612   3.386  0.6161  0.1252  0.3271
  576MOL0     C75921   0.564   4.684   3.361 -0.2260  0.1540  0.4027
  576MOL0     C75922   0.674   4.662   3.459  0.1776 -0.0091  0.3046
  576MOL0     C75923   0.629   4.651   3.607  0.6463  0.1457 -0.1895
  576MOL0     O75924   0.579   4.782   3.650  1.0146 -0.2912  0.1608
  576MOL0     C75925   0.539   4.801   3.782  0.0301 -0.4696  0.0736
  576MOL0     C75926   0.537   4.937   3.827  0.4219 -0.4043 -0.1387
  576MOL0     C75927   0.517   4.978   3.959 -0.3935  0.3160  0.0128
  576MOL0     C75928   0.499   4.872   4.057  0.4909 -0.1100 -0.3763
  576MOL0     C75929   0.467   4.900   4.199 -0.1396  1.0134 -0.3198
  576MOL0     O75930   0.516   5.019   4.244 -0.1237 -0.3831 -0.4380
  576MOL0     C75931   0.462   5.084   4.362 -0.7478  0.3666 -0.7941
  576MOL0     C75932   0.478   5.221   4.369 -0.2452  0.9786 -0.3536
  576MOL0     C75933   0.452   5.283   4.490 -1.5273 -0.4147 -0.0035
  576MOL0     C75934   0.431   5.211   4.611 -0.1638  0.9876  0.2807
  576MOL0     O75935   0.422   5.282   4.735  0.6448 -1.2291 -0.1674
  576MOL0     C75936   0.513   5.393   4.756 -0.2511  0.4831  0.5180
  576MOL0     C75937   0.453   5.463   4.880  0.1098  0.0478  0.1169
  576MOL0     C75938   0.544   5.580   4.922 -0.5383 -1.0833  0.1396
  576MOL0     C75939   0.490   5.661   5.038 -0.0957 -0.0154 -0.8777
  576MOL0     C75940   0.594   5.770   5.102 -0.1419  0.2440 -0.5960
  576MOL0     C75941   0.529   5.857   5.214  0.8985  0.9391  0.6572
  576MOL0     C75942   0.629   5.898   5.320  0.8186 -0.7062  0.8226
  576MOL0     C75943   0.570   5.977   5.437  0.0110  0.4809  0.4936
  576MOL0    Cl75944   0.529   6.134   5.363 -0.3328  0.4712  0.2593
  576MOL0     C75945   0.403   5.076   4.605  0.1273 -0.5924  0.2465
  576MOL0     C75946   0.423   5.015   4.482  0.3977 -0.0339 -0.3665
  576MOL0     O75947   0.391   4.825   4.253  0.8965  0.1513  0.5514
  576MOL0     C75948   0.506   4.738   4.021  1.8854 -0.8009 -0.3271
  576MOL0     C75949   0.519   4.703   3.884  0.5713  0.3566 -0.1811
  576MOL0     N75950   0.357   4.651   3.148 -0.7004 -0.3593 -0.0212
  576MOL0     N75951   0.246   4.654   3.082  0.2686 -0.0709  0.2328
  576MOL0     C75952   0.599   3.957   3.261 -0.7292 -0.1093  0.4735
  576MOL0     C75953   0.732   3.910   3.257 -0.0416  1.5029 -0.1966
  576MOL0     C75954   1.158   3.765   3.177 -0.5629  0.4020 -0.8604
  576MOL0     C75955   1.255   3.839   3.252 -0.6426  0.7439  0.0493
  576MOL0     C75956   1.391   3.819   3.241 -0.0666 -0.0687  0.0269
  576MOL0     C75957   1.443   3.731   3.153 -0.5200  0.9704 -0.2632
  576MOL0     O75958   1.579   3.699   3.164  0.9784  0.1830  0.0519
  576MOL0     C75959   1.642   3.629   3.061  0.1274 -0.1539 -0.7930
  576MOL0     C75960   1.798   3.652   3.083  0.4434 -0.1455 -0.0931
  576MOL0     C75961   1.887   3.553   3.005  0.0568  0.3664  0.1202
  576MOL0     C75962   1.878   3.400   3.062 -0.4591 -0.0528 -0.3781
  576MOL0     C75963   1.919   3.313   2.953  0.2075  0.6857 -0.3114
  576MOL0     C75964   1.960   3.243   2.860 -0.0022 -0.0963  0.0824
  576MOL0     C75965   1.348   3.655   3.077 -0.8955  0.6045  0.2461
  576MOL0     C75966   1.210   3.669   3.089  0.6763 -0.3471 -0.2684
  576MOL0     H75967   0.877   4.158   3.071 -0.9805  0.9167 -1.4032
  576MOL0     H75968   0.643   4.229   3.063 -0.4461 -0.6803 -2.4242
  576MOL0     H75969   0.316   3.938   3.080  0.4131 -0.0301 -0.8401
  576MOL0     H75970   0.472   3.972   2.985 -0.1053 -1.1191 -0.0349
  576MOL0     H75971   0.278   4.062   2.864 -0.5159 -0.1994  0.1177
  576MOL0     H75972   0.373   4.196   2.933 -2.8766  3.5066  0.1009
  576MOL0     H75973   0.207   4.234   3.107 -1.1956  0.9235 -1.1370
  576MOL0     H75974   0.126   4.077   3.081 -0.5056  0.8727 -0.1292
  576MOL0     H75975   0.147   4.329   2.896 -0.4897  0.9550  1.6810
  576MOL0     H75976   0.075   4.169   2.843 -1.5460  1.8967 -0.9702
  576MOL0     H75977  -0.085   4.202   3.044 -1.4220  0.4908  0.5207
  576MOL0     H75978  -0.093   4.334   2.914  2.6711  0.5706 -1.2776
  576MOL0     H75979   0.067   4.381   3.170  1.2766  0.4691 -1.1256
  576MOL0     H75980  -0.110   4.380   3.167 -0.9067 -3.7645 -0.1464
  576MOL0     H75981   0.028   4.550   2.965  2.2087  1.0933  1.4054
  576MOL0     H75982  -0.141   4.549   3.021  0.9954 -1.0602  0.0220
  576MOL0     H75983  -0.045   4.639   3.234 -1.1207  1.7654 -0.5715
  576MOL0     H75984  -0.015   4.736   3.093 -0.2173  0.8708  2.8225
  576MOL0     H75985   0.154   4.610   3.398 -0.8818  0.0050 -0.4916
  576MOL0     H75986   0.454   4.505   3.393 -0.1245 -0.1784 -1.6442
  576MOL0     H75987   0.391   4.662   3.473  3.7585  4.1032 -0.0321
  576MOL0     H75988   0.537   4.789   3.344  0.8558  0.2742 -0.7239
  576MOL0     H75989   0.611   4.660   3.265  1.4208 -0.4883  1.3379
  576MOL0     H75990   0.727   4.578   3.415 -0.0764  0.5273 -1.0608
  576MOL0     H75991   0.746   4.745   3.454  2.2887 -1.8334 -1.9703
  576MOL0     H75992   0.713   4.625   3.673  0.0585 -2.7959 -0.4783
  576MOL0     H75993   0.552   4.577   3.630  0.6962  0.3552  0.6872
  576MOL0     H75994   0.565   5.015   3.757 -2.6622 -2.0453 -3.5185
  576MOL0     H75995   0.520   5.082   3.989 -1.3931  0.4285 -0.2315
  576MOL0     H75996   0.495   5.270   4.274 -0.9873  3.5261  0.7575
  576MOL0     H75997   0.454   5.391   4.499  1.4176 -0.4596  0.9093
  576MOL0     H75998   0.522   5.462   4.671 -0.9384 -3.5542 -3.1895
  576MOL0     H75999   0.612   5.350   4.777 -0.9846 -1.3786  0.3262
  576MOL0     H76000   0.453   5.391   4.963  0.5439 -2.7082 -2.1359
  576MOL0     H76001   0.348   5.490   4.864  0.3886  0.1292 -1.7231
  576MOL0     H76002   0.557   5.657   4.846 -3.1122 -0.2306  0.4566
  576MOL0     H76003   0.643   5.543   4.951 -0.6354 -0.8021  0.8386
  576MOL0     H76004   0.398   5.717   5.019  0.4149  1.0559 -0.3158
  576MOL0     H76005   0.476   5.584   5.113  1.5859 -0.0718 -0.5874
  576MOL0     H76006   0.620   5.834   5.017 -3.1515  0.4597 -1.4721
  576MOL0     H76007   0.685   5.725   5.143  0.4008  1.3891 -0.5103
  576MOL0     H76008   0.476   5.776   5.264  1.8782 -1.4608 -1.8819
  576MOL0     H76009   0.462   5.934   5.175 -0.1025 -1.4847 -2.8909
  576MOL0     H76010   0.665   5.804   5.363 -1.6828 -1.3202  1.8051
  576MOL0     H76011   0.701   5.962   5.268  0.3578 -2.7152 -2.6435
  576MOL0     H76012   0.636   5.986   5.524  0.1344  2.9589  0.2283
  576MOL0     H76013   0.484   5.923   5.478  0.0318 -0.6409 -0.8922
  576MOL0     H76014   0.349   5.023   4.683 -2.6851 -0.4456 -1.4632
  576MOL0     H76015   0.408   4.908   4.473  0.3478  0.0974 -2.2260
  576MOL0     H76016   0.480   4.659   4.090 -1.9388  0.1548 -0.4322
  576MOL0     H76017   0.522   4.596   3.867  1.4632  0.2173  0.7823
  576MOL0     H76018   0.518   3.904   3.311 -0.2625 -2.1074 -0.7650
  576MOL0     H76019   0.757   3.822   3.316  0.5424  1.1495 -0.9593
  576MOL0     H76020   1.219   3.915   3.321 -1.0276  0.7624 -0.1657
  576MOL0     H76021   1.470   3.868   3.297 -1.4846 -0.2304  2.2969
  576MOL0     H76022   1.617   3.671   2.964 -2.3348  0.0092 -0.1571
  576MOL0     H76023   1.622   3.521   3.070 -0.8137 -0.0685 -1.6332
  576MOL0     H76024   1.827   3.757   3.071  1.3988 -0.6541 -3.2799
  576MOL0     H76025   1.822   3.616   3.183  0.7330 -2.8629 -1.0566
  576MOL0     H76026   1.990   3.586   3.012 -0.1830  0.9750  0.9570
  576MOL0     H76027   1.848   3.568   2.904  0.0315  2.9938  0.4499
  576MOL0     H76028   1.944   3.402   3.149 -3.6431  2.6008  2.2506
  576MOL0     H76029   1.782   3.361   3.098 -1.2964 -0.0053 -2.4310
  576MOL0     H76030   1.989   3.184   2.776  0.2367 -0.1627  0.2119
  576MOL0     H76031   1.379   3.589   2.997 -1.7890  1.3256 -0.7131
  576MOL0     H76032   1.134   3.623   3.027  1.3385  0.5228 -1.7767
  577MOL0     O76033  10.208   4.308  10.847 -0.3502 -0.1052  0.2047
  577MOL0     C76034  10.281   4.222  10.898 -0.1547  0.1305  0.5302
  577MOL0     O76035  10.248   4.100  10.952 -0.3346 -0.0930 -0.1161
  577MOL0     C76036  10.120   4.051  10.940  0.1500 -0.6170 -0.1301
  577MOL0     C76037  10.006   4.132  10.982  0.1267 -0.1952 -0.1595
  577MOL0     C76038   9.878   4.078  10.998 -0.0763 -0.5773 -0.0170
  577MOL0     C76039   9.858   3.947  10.952 -0.0438 -0.0217  0.2091
  577MOL0     O76040   9.734   3.897  10.951 -0.0863 -0.1816  0.5565
  577MOL0     C76041   9.639   3.953  11.041 -0.6293 -0.7811  0.5736
  577MOL0     C76042   9.529   3.837  11.048 -1.2983  0.3062 -0.0130
  577MOL0     C76043   9.460   3.815  10.915 -0.6964 -1.4049 -0.3515
  577MOL0     C76044   9.354   3.707  10.923 -0.2554  0.3003  0.4365
  577MOL0     C76045   9.412   3.567  10.933  0.5990  0.5193 -0.4113
  577MOL0     C76046   9.312   3.464  10.999  0.3770 -1.0307 -0.8619
  577MOL0     C76047   9.166   3.453  10.934 -0.3340  0.0519 -0.2405
  577MOL0     C76048   9.154   3.375  10.800 -0.2310  0.0722 -0.3400
  577MOL0     N76049   9.018   3.329  10.781 -0.3613 -0.3379 -0.0218
  577MOL0     C76050   8.911   3.412  10.764 -0.2417 -0.2208 -0.2921
  577MOL0     C76051   8.801   3.329  10.756 -0.3754 -0.5219  0.3887
  577MOL0     C76052   8.653   3.351  10.726  0.6786 -0.3008  0.8797
  577MOL0     C76053   8.605   3.494  10.770 -0.7066 -0.4520  0.6626
  577MOL0     C76054   8.592   3.500  10.923 -0.3294 -0.6383  0.5224
  577MOL0     C76055   8.575   3.650  10.968  0.2467  0.1686 -0.0635
  577MOL0     O76056   8.702   3.723  10.976  0.4876  0.4784 -0.3776
  577MOL0     C76057   8.797   3.675  11.062 -0.9624 -0.6353 -0.9322
  577MOL0     C76058   8.917   3.750  11.052 -0.0216  0.4767  0.2074
  577MOL0     C76059   9.020   3.731  11.146 -0.3355  0.6658 -0.5398
  577MOL0     C76060   9.014   3.627  11.250  0.0429  0.2057  1.1430
  577MOL0     C76061   9.129   3.582  11.321 -0.1844 -0.5264 -0.3728
  577MOL0     O76062   9.248   3.650  11.315 -0.7561  0.4354 -0.9136
  577MOL0     C76063   9.348   3.613  11.399  0.1248  0.0306 -0.0475
  577MOL0     C76064   9.334   3.614  11.533 -0.5204 -0.1074 -0.9417
  577MOL0     C76065   9.446   3.585  11.618 -0.2554 -0.3685  0.6008
  577MOL0     C76066   9.569   3.535  11.559 -0.3871  0.8509  0.7395
  577MOL0     O76067   9.677   3.501  11.645 -0.5025 -0.9107  0.3757
  577MOL0     C76068   9.787   3.597  11.631  0.0424 -0.2659  0.7761
  577MOL0     C76069   9.891   3.588  11.739 -0.7117 -0.2653 -0.0480
  577MOL0     C76070   9.863   3.639  11.888  0.4560 -0.2028  0.4234
  577MOL0     C76071   9.960   3.581  11.988 -0.8306  0.0861  0.0752
  577MOL0     C76072  10.093   3.660  11.980 -0.5030 -0.2144 -0.1617
  577MOL0     C76073  10.201   3.618  12.080 -0.0474 -0.0390  1.3842
  577MOL0     C76074  10.313   3.718  12.125  0.7232 -0.8824  1.0095
  577MOL0     C76075  10.252   3.841  12.183  0.2500 -0.9051 -0.3944
  577MOL0    Cl76076  10.379   3.934  12.258  0.1084 -0.4592  0.3780
  577MOL0     C76077   9.570   3.523  11.417  0.7203 -0.6518  0.1724
  577MOL0     C76078   9.463   3.557  11.340  0.5406  0.2778  0.8901
  577MOL0     O76079   9.115   3.479  11.384  0.5637 -0.7841  1.3042
  577MOL0     C76080   8.893   3.559  11.257  1.0074 -0.1173  0.3347
  577MOL0     C76081   8.795   3.579  11.162  0.9066  0.0611  0.3107
  577MOL0     N76082   8.844   3.197  10.779  0.5812  0.4286  0.3943
  577MOL0     N76083   8.972   3.196  10.794 -0.3027  0.3150  0.4579
  577MOL0     C76084   9.963   3.867  10.901  0.2743  0.7910 -0.5420
  577MOL0     C76085  10.097   3.925  10.901  0.7620  0.4666 -0.2917
  577MOL0     C76086  10.416   4.279  10.942 -0.2959 -0.4104  0.7298
  577MOL0     C76087  10.499   4.207  11.019  0.3061 -0.3605 -0.3994
  577MOL0     C76088  10.613   4.256  11.080 -0.1773 -1.0339 -1.0256
  577MOL0     C76089  10.658   4.388  11.048  0.8132  0.0463  0.5298
  577MOL0     O76090  10.764   4.452  11.109  0.5454  0.4315 -0.1831
  577MOL0     C76091  10.865   4.382  11.168 -0.9866  0.3756  0.0467
  577MOL0     C76092  10.985   4.406  11.079 -0.0777 -0.1828  0.2146
  577MOL0     C76093  11.115   4.357  11.146 -0.4962  0.0354 -0.1417
  577MOL0     C76094  11.246   4.422  11.100 -0.1301  0.2638 -0.5462
  577MOL0     C76095  11.276   4.410  10.958  0.3101  0.2106 -0.4557
  577MOL0     C76096  11.327   4.372  10.856 -0.8095 -0.3228  0.4757
  577MOL0     C76097  10.583   4.468  10.967 -0.2574  0.5337 -0.4692
  577MOL0     C76098  10.457   4.413  10.919 -0.3710 -0.1560 -0.2800
  577MOL0     H76099  10.024   4.231  11.023 -0.8395 -0.1901  0.2871
  577MOL0     H76100   9.791   4.133  11.032  2.0149  2.0178  1.4990
  577MOL0     H76101   9.599   4.045  10.998  0.5199 -1.3121 -1.8440
  577MOL0     H76102   9.672   3.970  11.144 -1.4645  0.3207  0.6734
  577MOL0     H76103   9.460   3.866  11.127  1.0184 -0.9536  2.6446
  577MOL0     H76104   9.592   3.750  11.069 -2.5466 -0.4045  0.9034
  577MOL0     H76105   9.536   3.784  10.844 -1.4155  0.3190 -1.9740
  577MOL0     H76106   9.423   3.911  10.877 -0.0782 -2.0141 -2.6157
  577MOL0     H76107   9.288   3.738  11.005  1.3473  1.6713  1.2652
  577MOL0     H76108   9.285   3.705  10.838 -0.0448 -0.1358  0.2739
  577MOL0     H76109   9.504   3.566  10.992  0.7786 -0.9451 -0.6688
  577MOL0     H76110   9.441   3.529  10.834 -0.8689 -2.7112  0.2653
  577MOL0     H76111   9.292   3.504  11.099 -2.5334 -2.0109 -0.9595
  577MOL0     H76112   9.351   3.362  11.004  3.3824 -0.0533 -1.7097
  577MOL0     H76113   9.104   3.381  10.987 -2.2399  1.9794  0.2560
  577MOL0     H76114   9.116   3.550  10.942  0.3809  0.2541  3.5181
  577MOL0     H76115   9.229   3.296  10.790 -0.0787  0.3115 -1.2004
  577MOL0     H76116   9.181   3.443  10.719 -1.5044  4.3567  2.4775
  577MOL0     H76117   8.912   3.519  10.751 -3.7005 -0.1296 -0.7826
  577MOL0     H76118   8.599   3.272  10.779 -0.9075 -0.0813 -0.3451
  577MOL0     H76119   8.644   3.338  10.618  2.5248 -0.6411  0.7304
  577MOL0     H76120   8.506   3.516  10.731 -0.5399  3.2798  1.9282
  577MOL0     H76121   8.679   3.562  10.725 -1.6329 -0.0341 -0.2757
  577MOL0     H76122   8.504   3.445  10.958 -0.2922 -3.1915 -2.8389
  577MOL0     H76123   8.684   3.459  10.966  0.6872  0.7528 -0.2611
  577MOL0     H76124   8.535   3.647  11.070  1.0187  0.9027  0.2808
  577MOL0     H76125   8.507   3.708  10.905 -1.8681 -2.0064  0.0847
  577MOL0     H76126   8.919   3.839  10.990  3.8188  0.9675  0.7357
  577MOL0     H76127   9.111   3.789  11.152  0.9910 -1.2972 -0.8407
  577MOL0     H76128   9.234   3.629  11.571  0.2018 -2.9510  2.7653
  577MOL0     H76129   9.445   3.593  11.726 -4.7031  0.0100  0.6958
  577MOL0     H76130   9.759   3.702  11.620 -1.5721 -0.9325 -4.2750
  577MOL0     H76131   9.851   3.559  11.551  1.9498  0.7145  1.7601
  577MOL0     H76132   9.979   3.644  11.707 -1.0286 -0.6398 -1.6576
  577MOL0     H76133   9.911   3.480  11.737  0.6475 -0.0194 -1.0884
  577MOL0     H76134   9.762   3.605  11.914 -1.0618  2.9403 -0.8163
  577MOL0     H76135   9.875   3.747  11.893 -1.7361  0.1225 -0.4094
  577MOL0     H76136   9.917   3.569  12.088  2.8332 -2.2151  1.6085
  577MOL0     H76137   9.982   3.479  11.954 -2.7581 -0.3344 -0.0195
  577MOL0     H76138  10.077   3.768  11.996 -2.2410 -0.4220 -0.2682
  577MOL0     H76139  10.145   3.652  11.884  0.2994 -2.6603  0.4220
  577MOL0     H76140  10.256   3.533  12.040  0.2134  1.4437 -1.6630
  577MOL0     H76141  10.164   3.576  12.174 -0.0176  0.3673  1.5842
  577MOL0     H76142  10.369   3.676  12.209  1.7217 -0.0242  0.8065
  577MOL0     H76143  10.380   3.740  12.042  0.0536 -0.0504  0.6726
  577MOL0     H76144  10.190   3.800  12.264  1.2039  1.3361  1.5922
  577MOL0     H76145  10.198   3.904  12.113  1.5685 -0.0121 -0.6509
  577MOL0     H76146   9.665   3.488  11.378  0.9349  0.9617 -0.8304
  577MOL0     H76147   9.456   3.556  11.231 -3.2255 -0.2540  1.0070
  577MOL0     H76148   8.877   3.484  11.333  0.7940 -1.6285 -1.1494
  577MOL0     H76149   8.701   3.528  11.184  1.2174 -0.7808 -0.2670
  577MOL0     H76150   9.948   3.765  10.866  1.6098  0.5819 -0.5643
  577MOL0     H76151  10.176   3.852  10.887 -0.4382 -2.1128  4.1967
  577MOL0     H76152  10.475   4.105  11.049  0.0386 -0.9571 -2.4799
  577MOL0     H76153  10.683   4.195  11.137 -0.5100 -1.2000 -0.7941
  577MOL0     H76154  10.871   4.274  11.180  1.2729  0.5867  1.3168
  577MOL0     H76155  10.886   4.432  11.263 -0.2506 -0.9553  0.6006
  577MOL0     H76156  10.965   4.355  10.985 -0.9681  4.3220 -2.3309
  577MOL0     H76157  10.989   4.513  11.058 -2.9052  0.8756  3.9161
  577MOL0     H76158  11.127   4.249  11.133  2.2355  0.2098  0.3962
  577MOL0     H76159  11.112   4.368  11.255  2.0618  1.4446 -0.1467
  577MOL0     H76160  11.245   4.525  11.136 -0.4504 -0.0239  0.3132
  577MOL0     H76161  11.319   4.377  11.168 -1.4213  0.4316  1.0341
  577MOL0     H76162  11.374   4.341  10.765  1.8989  1.4807  1.1723
  577MOL0     H76163  10.616   4.570  10.946 -0.4254  1.3931  2.8293
  577MOL0     H76164  10.373   4.471  10.882 -0.6293 -1.3611 -1.6569
  578MOL0     O76165   8.552   6.870   1.719 -0.9492  0.0390 -0.3478
  578MOL0     C76166   8.671   6.833   1.716  0.4161  0.2920  0.2448
  578MOL0     O76167   8.775   6.892   1.784 -0.1016 -0.3785 -0.4008
  578MOL0     C76168   8.761   7.010   1.848 -0.0321 -0.0302 -0.7855
  578MOL0     C76169   8.674   7.039   1.954 -1.1424  0.7207 -0.1940
  578MOL0     C76170   8.680   7.167   2.025  0.7364  0.2294  0.1667
  578MOL0     C76171   8.786   7.248   1.996  0.7125 -0.3218 -0.6346
  578MOL0     O76172   8.812   7.363   2.066  1.0577  0.3634  0.5292
  578MOL0     C76173   8.743   7.391   2.188 -1.2903 -1.1314 -0.5060
  578MOL0     C76174   8.791   7.528   2.234  0.0060  0.0568  0.4344
  578MOL0     C76175   8.935   7.532   2.266 -0.5770  0.2339  0.3378
  578MOL0     C76176   8.981   7.668   2.307  0.1338 -1.3871  0.0639
  578MOL0     C76177   9.111   7.684   2.390  0.3584  0.7014 -0.3588
  578MOL0     C76178   9.096   7.641   2.537  1.0309 -0.0897 -0.7472
  578MOL0     C76179   9.216   7.660   2.614 -0.9788  0.4009 -0.3013
  578MOL0     C76180   9.292   7.798   2.595 -0.1003  0.5202 -1.2795
  578MOL0     N76181   9.208   7.912   2.614  0.3827  0.4893  0.2919
  578MOL0     C76182   9.191   8.016   2.531  0.3894 -0.2201 -0.7275
  578MOL0     C76183   9.126   8.113   2.594  0.6182 -1.1584 -0.3959
  578MOL0     C76184   9.110   8.253   2.526  0.1742 -0.2777  0.0433
  578MOL0     C76185   9.247   8.320   2.485  0.0215  0.3940 -0.0998
  578MOL0     C76186   9.233   8.451   2.417  0.7785 -0.1565 -0.7036
  578MOL0     C76187   9.358   8.505   2.358 -0.6662  0.5741 -0.1610
  578MOL0     O76188   9.423   8.399   2.283  0.0553 -0.2089  1.5217
  578MOL0     C76189   9.542   8.405   2.215  0.3901 -0.8257 -0.4328
  578MOL0     C76190   9.623   8.517   2.226  0.4267  0.2299 -0.0034
  578MOL0     C76191   9.743   8.524   2.161  0.2924 -0.2361  1.2130
  578MOL0     C76192   9.790   8.417   2.079  0.0658 -0.1575 -0.3511
  578MOL0     C76193   9.915   8.435   2.008 -0.1522 -0.3806  0.6931
  578MOL0     O76194   9.925   8.346   1.895 -0.5651 -0.6413  0.0171
  578MOL0     C76195  10.034   8.355   1.804  0.5292 -0.2248 -0.5025
  578MOL0     C76196  10.058   8.466   1.725 -0.6774 -0.4020 -0.5759
  578MOL0     C76197  10.171   8.473   1.645 -0.0841 -0.0366 -0.4770
  578MOL0     C76198  10.257   8.363   1.631 -0.8898  0.3407 -0.5714
  578MOL0     O76199  10.374   8.357   1.554  0.2188 -0.0246  0.7752
  578MOL0     C76200  10.379   8.454   1.446 -0.0537 -0.5751  0.8825
  578MOL0     C76201  10.507   8.429   1.356  0.8030 -0.3033 -0.2382
  578MOL0     C76202  10.500   8.287   1.295 -0.3189  0.5967  0.4905
  578MOL0     C76203  10.626   8.232   1.226 -0.4656  0.7917 -0.5132
  578MOL0     C76204  10.602   8.105   1.142  0.2470  0.2977 -0.1511
  578MOL0     C76205  10.715   8.050   1.061 -0.3311 -0.6894 -0.4825
  578MOL0     C76206  10.679   7.914   0.991  0.0396  0.1117  0.3972
  578MOL0     C76207  10.714   7.808   1.095 -0.5288  1.1039 -0.4804
  578MOL0    Cl76208  10.887   7.793   1.069 -0.3032  0.2349  0.2162
  578MOL0     C76209  10.221   8.246   1.716 -0.1724 -0.6088  1.1021
  578MOL0     C76210  10.109   8.242   1.792 -0.8596  0.4153 -0.5568
  578MOL0     O76211  10.000   8.525   2.032  0.2065 -0.1165  0.1543
  578MOL0     C76212   9.711   8.303   2.063  0.3071 -0.0368 -0.9201
  578MOL0     C76213   9.581   8.298   2.128  0.2277  0.0107  1.2592
  578MOL0     N76214   9.101   8.063   2.724  0.0492  0.2966 -0.1201
  578MOL0     N76215   9.148   7.941   2.732 -0.9294 -0.9050 -0.5179
  578MOL0     C76216   8.871   7.229   1.890  0.5520  0.6619  0.2874
  578MOL0     C76217   8.860   7.108   1.813 -1.3100 -0.5415 -0.1724
  578MOL0     C76218   8.704   6.715   1.630  1.2094  0.1832  0.0415
  578MOL0     C76219   8.834   6.677   1.586  0.6747  0.6859 -0.4539
  578MOL0     C76220   8.851   6.575   1.489  0.8684 -0.2511  0.6071
  578MOL0     C76221   8.749   6.505   1.431 -0.0545 -0.3631 -0.3810
  578MOL0     O76222   8.770   6.418   1.332 -0.5252  0.3204  0.2670
  578MOL0     C76223   8.693   6.289   1.342  0.0266 -0.4560  1.0991
  578MOL0     C76224   8.789   6.180   1.345  0.8498  0.5290  0.4012
  578MOL0     C76225   8.896   6.169   1.224  0.0651 -0.4130 -0.7409
  578MOL0     C76226   8.998   6.079   1.254 -0.7720  0.3674 -0.5612
  578MOL0     C76227   8.968   5.936   1.223 -0.0358 -0.1622 -0.0531
  578MOL0     C76228   8.942   5.821   1.190 -0.5831 -0.5605 -0.5562
  578MOL0     C76229   8.612   6.545   1.470 -0.8376 -0.5013 -0.2075
  578MOL0     C76230   8.591   6.645   1.568 -0.2708  0.2981 -0.0705
  578MOL0     H76231   8.600   6.963   1.970 -0.0150 -0.2334  0.6675
  578MOL0     H76232   8.604   7.172   2.102  0.2603 -1.6069 -0.1218
  578MOL0     H76233   8.766   7.321   2.269 -2.3042 -2.5778 -1.4117
  578MOL0     H76234   8.635   7.388   2.171 -1.0524  0.5680 -2.7209
  578MOL0     H76235   8.727   7.560   2.316 -1.5127  2.0518 -1.4277
  578MOL0     H76236   8.778   7.592   2.146 -0.2897 -1.9959 -1.1118
  578MOL0     H76237   9.004   7.491   2.191 -0.6126  0.1546  0.3475
  578MOL0     H76238   8.944   7.461   2.349 -1.4045 -1.1487 -0.7187
  578MOL0     H76239   8.997   7.726   2.215 -0.2131 -3.1318 -1.1398
  578MOL0     H76240   8.890   7.708   2.353 -0.5988 -2.1827 -0.6491
  578MOL0     H76241   9.145   7.788   2.388  2.4140  0.2869  3.6080
  578MOL0     H76242   9.190   7.625   2.344  2.4370  0.8172  2.7768
  578MOL0     H76243   9.069   7.535   2.535 -1.7202  0.4566  1.6911
  578MOL0     H76244   9.013   7.688   2.590  0.0066 -1.3313 -1.1990
  578MOL0     H76245   9.201   7.645   2.721  2.0516  1.8922  0.4426
  578MOL0     H76246   9.275   7.575   2.580 -2.7482 -0.7101 -0.7246
  578MOL0     H76247   9.340   7.800   2.497  2.0530 -0.1302 -0.2891
  578MOL0     H76248   9.368   7.799   2.673 -1.3754  0.9236  0.0079
  578MOL0     H76249   9.230   8.019   2.429  2.6110  2.6654  0.0743
  578MOL0     H76250   9.048   8.320   2.587 -2.8791 -0.6188 -2.4293
  578MOL0     H76251   9.048   8.229   2.439 -0.2759  2.6910 -0.5745
  578MOL0     H76252   9.294   8.241   2.426 -3.9867  0.6840 -4.3445
  578MOL0     H76253   9.312   8.339   2.570  1.4781  0.7231 -1.2500
  578MOL0     H76254   9.152   8.449   2.343  0.2209 -0.7665 -0.0891
  578MOL0     H76255   9.201   8.523   2.492 -3.0959 -3.5239  1.2741
  578MOL0     H76256   9.438   8.536   2.426 -0.5765 -0.0981  0.0483
  578MOL0     H76257   9.345   8.589   2.289  0.4026  1.2096  0.3850
  578MOL0     H76258   9.599   8.609   2.277 -2.8983  0.4673 -1.7015
  578MOL0     H76259   9.800   8.616   2.175 -2.8563  2.0884  0.0928
  578MOL0     H76260   9.993   8.553   1.729 -0.8028 -0.5321  0.6693
  578MOL0     H76261  10.190   8.565   1.591 -0.8996 -1.3474 -3.1972
  578MOL0     H76262  10.372   8.560   1.473  1.3697 -0.4148  0.7152
  578MOL0     H76263  10.296   8.433   1.378  0.2703 -2.4128  1.0210
  578MOL0     H76264  10.602   8.457   1.403  0.1163 -0.5718  1.3674
  578MOL0     H76265  10.485   8.500   1.276  0.9156 -1.0206 -0.9230
  578MOL0     H76266  10.429   8.285   1.212  2.3341  2.0765 -2.0280
  578MOL0     H76267  10.476   8.216   1.375  2.8374 -0.9661  0.2104
  578MOL0     H76268  10.676   8.302   1.159  0.1976  0.3041 -0.5394
  578MOL0     H76269  10.690   8.220   1.313  0.3708  2.7288 -0.8183
  578MOL0     H76270  10.522   8.137   1.074 -0.0216  1.1192  0.5357
  578MOL0     H76271  10.552   8.024   1.195  1.1016  1.7539  3.1293
  578MOL0     H76272  10.797   8.033   1.132 -2.5518 -1.8888  1.9991
  578MOL0     H76273  10.736   8.124   0.984  1.4607  0.0325  0.6239
  578MOL0     H76274  10.570   7.908   0.980 -0.3038 -0.1571  3.2758
  578MOL0     H76275  10.730   7.912   0.894 -1.7344 -1.4099 -0.5546
  578MOL0     H76276  10.662   7.715   1.072 -1.0541  0.0753  3.9791
  578MOL0     H76277  10.678   7.830   1.196  1.4686  1.3836  0.2146
  578MOL0     H76278  10.292   8.164   1.711 -1.4910 -1.8103  1.4175
  578MOL0     H76279  10.094   8.152   1.851  2.1110  1.4117  2.0541
  578MOL0     H76280   9.740   8.220   1.999 -0.6714 -1.2380  0.1375
  578MOL0     H76281   9.513   8.214   2.119 -0.8616  0.6922  2.8127
  578MOL0     H76282   8.939   7.307   1.859 -1.0270  1.8529 -0.3067
  578MOL0     H76283   8.918   7.108   1.722 -2.5161 -1.1091 -0.9623
  578MOL0     H76284   8.915   6.725   1.639  0.8659 -2.8822  2.9556
  578MOL0     H76285   8.950   6.557   1.448  2.0605  0.5056  2.9751
  578MOL0     H76286   8.621   6.287   1.260  1.7143 -2.1241 -0.4172
  578MOL0     H76287   8.638   6.282   1.437 -3.1047  3.1108 -0.2227
  578MOL0     H76288   8.841   6.179   1.441  0.8040 -2.4451  0.4804
  578MOL0     H76289   8.735   6.085   1.348  3.3799 -1.0150 -0.5093
  578MOL0     H76290   8.935   6.270   1.203 -2.5018  0.3401 -2.4056
  578MOL0     H76291   8.847   6.138   1.131  1.6629  1.9588 -2.5181
  578MOL0     H76292   9.094   6.093   1.203  0.2716 -2.6135  0.3526
  578MOL0     H76293   9.024   6.092   1.359  0.7370 -0.2133 -0.8346
  578MOL0     H76294   8.922   5.720   1.159  0.1790 -0.8332 -0.1875
  578MOL0     H76295   8.530   6.485   1.430 -0.9003 -0.6384  0.1270
  578MOL0     H76296   8.488   6.676   1.580  0.4022  1.9099  2.3001
  579MOL0     O76297   5.716   2.052   9.648  0.7141  0.2614 -0.0607
  579MOL0     C76298   5.706   1.945   9.592  0.3509 -0.3388  0.8866
  579MOL0     O76299   5.717   1.924   9.462  0.1687 -0.0487  0.0462
  579MOL0     C76300   5.742   2.033   9.387  0.5051 -0.4827 -0.0774
  579MOL0     C76301   5.640   2.085   9.311 -0.8135 -0.2005 -0.3874
  579MOL0     C76302   5.656   2.204   9.236  0.2037  0.3475  0.4842
  579MOL0     C76303   5.770   2.283   9.259 -0.1452 -0.3323 -1.1860
  579MOL0     O76304   5.794   2.405   9.192 -0.0195  0.2546  0.1314
  579MOL0     C76305   5.733   2.425   9.065 -0.3274 -0.0795  0.5357
  579MOL0     C76306   5.803   2.548   9.000  0.7007 -1.0235 -0.3511
  579MOL0     C76307   5.955   2.540   8.977 -0.4966 -0.0600 -0.3150
  579MOL0     C76308   6.005   2.658   8.890 -1.1349 -0.5320  0.5143
  579MOL0     C76309   6.149   2.644   8.867  0.3952  0.1800  0.4921
  579MOL0     C76310   6.206   2.751   8.772  0.6459 -0.2800 -0.3682
  579MOL0     C76311   6.351   2.769   8.829 -0.0357 -0.4496 -0.7549
  579MOL0     C76312   6.429   2.849   8.730  0.1360 -0.7375  0.1459
  579MOL0     N76313   6.537   2.918   8.806 -0.6111  0.3584 -0.1235
  579MOL0     C76314   6.665   2.867   8.821  1.4357 -0.2980 -0.0498
  579MOL0     C76315   6.727   2.985   8.864 -0.5118  0.4629  0.0334
  579MOL0     C76316   6.873   2.979   8.922  0.3596  0.1455 -0.8830
  579MOL0     C76317   6.891   3.009   9.077  0.0557  0.0526  0.2423
  579MOL0     C76318   7.027   3.037   9.117  0.1316  0.0569 -1.1054
  579MOL0     C76319   7.028   3.075   9.269  0.0474 -0.4057 -0.5510
  579MOL0     O76320   7.142   3.156   9.301  0.2626  0.1612 -0.1563
  579MOL0     C76321   7.142   3.214   9.429  0.4188  0.2207 -0.9974
  579MOL0     C76322   7.225   3.321   9.439 -0.0747 -0.0300 -0.7376
  579MOL0     C76323   7.252   3.364   9.567 -0.1115 -1.2435 -0.1916
  579MOL0     C76324   7.181   3.329   9.684 -0.0407  0.9531  0.0117
  579MOL0     C76325   7.204   3.392   9.813 -0.0274 -0.1439 -0.3828
  579MOL0     O76326   7.319   3.472   9.822  0.1718 -0.5188  0.4542
  579MOL0     C76327   7.312   3.540   9.936 -0.5645  0.3723  0.4357
  579MOL0     C76328   7.375   3.500  10.055  0.2459  0.1236  0.4158
  579MOL0     C76329   7.379   3.578  10.165  0.2974  0.6176  0.1611
  579MOL0     C76330   7.317   3.703  10.167  0.8223  0.6551  0.5429
  579MOL0     O76331   7.314   3.799  10.276  0.8553  0.3402  0.1978
  579MOL0     C76332   7.392   3.760  10.385  0.6052  0.1132  0.4333
  579MOL0     C76333   7.401   3.887  10.460 -0.2373  0.2028 -0.0868
  579MOL0     C76334   7.495   3.869  10.581  0.5170  0.3008  0.4599
  579MOL0     C76335   7.486   3.978  10.689  0.6811 -0.4737 -0.6746
  579MOL0     C76336   7.591   3.931  10.788  0.1138 -0.3806 -0.4415
  579MOL0     C76337   7.681   4.044  10.828  0.2214  0.1683  0.3527
  579MOL0     C76338   7.610   4.155  10.906 -0.4978  0.5446 -0.3673
  579MOL0     C76339   7.716   4.267  10.960 -0.3223  0.9927  0.4742
  579MOL0    Cl76340   7.855   4.196  11.057 -0.5045  0.4114  0.2325
  579MOL0     C76341   7.248   3.742  10.055  0.6473 -0.5492 -1.3298
  579MOL0     C76342   7.245   3.660   9.937  0.8871  0.1649 -1.0164
  579MOL0     O76343   7.125   3.377   9.904  0.3355 -0.2507 -0.3832
  579MOL0     C76344   7.094   3.222   9.671 -0.3662  0.0414  0.4299
  579MOL0     C76345   7.074   3.160   9.543  0.2269 -0.9471  0.0785
  579MOL0     N76346   6.640   3.094   8.865  0.6143  0.0475  0.4408
  579MOL0     N76347   6.523   3.054   8.828  0.6484 -0.1644 -0.6526
  579MOL0     C76348   5.877   2.237   9.338 -0.1187  0.4435  0.1032
  579MOL0     C76349   5.858   2.110   9.407 -0.0820  0.3635 -0.7330
  579MOL0     C76350   5.686   1.833   9.687 -0.2304  0.1612 -0.6466
  579MOL0     C76351   5.643   1.853   9.827 -0.8398 -0.2240  0.2885
  579MOL0     C76352   5.621   1.748   9.901 -0.5986  0.3332  0.2150
  579MOL0     C76353   5.642   1.612   9.855 -0.3841  0.6338  0.1954
  579MOL0     O76354   5.618   1.500   9.940 -0.6804 -0.2906  0.3474
  579MOL0     C76355   5.483   1.489   9.966 -0.4213 -0.4317 -0.6146
  579MOL0     C76356   5.464   1.364  10.054  0.7622  0.0827  0.1420
  579MOL0     C76357   5.466   1.238   9.964  0.0498  0.2838 -0.1064
  579MOL0     C76358   5.461   1.109  10.041  0.1883 -0.2532 -0.2215
  579MOL0     C76359   5.591   1.086  10.111  0.3150  0.4741  0.6558
  579MOL0     C76360   5.713   1.072  10.129  0.1110 -0.1814  0.8858
  579MOL0     C76361   5.692   1.592   9.725 -1.0474 -1.0007  0.0532
  579MOL0     C76362   5.712   1.701   9.643 -0.5147  0.0146 -0.3620
  579MOL0     H76363   5.536   2.058   9.297 -0.4323 -0.5839 -3.1648
  579MOL0     H76364   5.579   2.247   9.173 -1.0459 -0.6023  1.3100
  579MOL0     H76365   5.625   2.442   9.068 -0.2764  0.6970 -0.8966
  579MOL0     H76366   5.743   2.352   8.984  0.3132  1.2873 -0.6768
  579MOL0     H76367   5.784   2.639   9.058 -2.4136 -0.7570 -1.6148
  579MOL0     H76368   5.758   2.565   8.902 -1.6732  1.6455  1.0371
  579MOL0     H76369   5.979   2.445   8.929 -0.9229 -0.0994 -0.4597
  579MOL0     H76370   6.006   2.537   9.074  0.0450  0.0678 -0.5919
  579MOL0     H76371   5.955   2.646   8.793  0.1888 -0.9932 -0.1326
  579MOL0     H76372   5.977   2.754   8.936 -0.7022  0.4726 -1.2380
  579MOL0     H76373   6.170   2.545   8.825  2.1307  1.3285 -1.5905
  579MOL0     H76374   6.187   2.643   8.969 -0.7302 -2.4031  0.9718
  579MOL0     H76375   6.152   2.846   8.774 -1.0675 -0.8758 -5.4707
  579MOL0     H76376   6.207   2.703   8.674  0.0397 -2.3877  0.5868
  579MOL0     H76377   6.350   2.828   8.922 -2.9746 -0.9725 -0.3241
  579MOL0     H76378   6.409   2.678   8.849  0.9911  0.5799  1.1686
  579MOL0     H76379   6.364   2.923   8.683  2.2113  0.1411 -1.4667
  579MOL0     H76380   6.463   2.793   8.642  0.2141  0.3984 -0.5606
  579MOL0     H76381   6.701   2.766   8.805 -1.1518 -1.1349 -1.3125
  579MOL0     H76382   6.941   3.039   8.860  0.9308  0.1060 -0.3026
  579MOL0     H76383   6.905   2.875   8.917 -0.2321 -0.0397 -0.8320
  579MOL0     H76384   6.871   2.918   9.136  1.5754 -0.5289 -0.1042
  579MOL0     H76385   6.827   3.094   9.104 -0.7583 -0.6678  0.6562
  579MOL0     H76386   7.084   2.946   9.097  0.4020 -0.3152  1.0817
  579MOL0     H76387   7.056   3.119   9.052 -0.7819 -0.3571 -2.0665
  579MOL0     H76388   7.026   2.983   9.328 -0.2111  1.9407  3.4925
  579MOL0     H76389   6.937   3.131   9.293 -0.0437 -0.5322 -0.5997
  579MOL0     H76390   7.275   3.362   9.351 -2.5289 -0.3819 -2.3960
  579MOL0     H76391   7.313   3.451   9.587 -4.1685  2.1531 -1.1772
  579MOL0     H76392   7.428   3.406  10.063 -4.1349 -2.6213  0.7979
  579MOL0     H76393   7.458   3.532  10.223 -1.8368 -1.8634  1.2609
  579MOL0     H76394   7.492   3.725  10.357 -0.6215 -1.6451 -2.2550
  579MOL0     H76395   7.340   3.689  10.450 -0.9049  1.4123  0.7141
  579MOL0     H76396   7.299   3.910  10.493 -0.1856 -3.9091  3.7338
  579MOL0     H76397   7.433   3.973  10.400 -0.1929  2.2643  2.6529
  579MOL0     H76398   7.599   3.872  10.546  0.0957  0.9352 -0.8100
  579MOL0     H76399   7.472   3.777  10.636  0.6339 -1.5188 -2.3400
  579MOL0     H76400   7.498   4.079  10.648 -2.0185 -0.4020 -1.4861
  579MOL0     H76401   7.388   3.973  10.738 -0.5049 -2.1209 -3.0222
  579MOL0     H76402   7.657   3.851  10.754  0.4726 -0.4937  0.5114
  579MOL0     H76403   7.536   3.893  10.875 -1.2757  0.8308 -0.7418
  579MOL0     H76404   7.721   4.089  10.737 -2.2181 -0.1693 -0.9778
  579MOL0     H76405   7.769   4.006  10.880  0.6916  1.0116  0.1842
  579MOL0     H76406   7.534   4.197  10.839 -1.0432 -1.8370 -1.3502
  579MOL0     H76407   7.587   4.096  10.996  2.0744 -3.1142 -1.8408
  579MOL0     H76408   7.667   4.338  11.027  1.1048  1.1094  1.4230
  579MOL0     H76409   7.758   4.319  10.873  0.4779 -0.2940  0.0589
  579MOL0     H76410   7.196   3.838  10.047 -0.6881 -1.1813 -0.5633
  579MOL0     H76411   7.190   3.696   9.850 -2.1491  2.1966  1.5145
  579MOL0     H76412   7.039   3.183   9.756 -0.6287 -0.0257  0.2353
  579MOL0     H76413   6.999   3.083   9.531 -1.8002  1.2489 -2.9028
  579MOL0     H76414   5.959   2.306   9.354  1.5425 -1.5591  0.7394
  579MOL0     H76415   5.932   2.079   9.480 -0.9148  3.2953  1.5396
  579MOL0     H76416   5.625   1.950   9.872  0.1004 -0.5898  1.4916
  579MOL0     H76417   5.609   1.762  10.008  0.5113  2.1000  0.1564
  579MOL0     H76418   5.427   1.479   9.872 -2.0621 -2.0452  0.4731
  579MOL0     H76419   5.442   1.577  10.016 -1.8100 -0.6999 -1.2295
  579MOL0     H76420   5.547   1.359  10.126 -1.6716 -1.9884  3.1111
  579MOL0     H76421   5.362   1.365  10.094 -1.2411 -3.1606 -4.1135
  579MOL0     H76422   5.552   1.244   9.896 -0.8326  1.0930 -1.1929
  579MOL0     H76423   5.376   1.252   9.903 -0.5804  1.9011  1.1124
  579MOL0     H76424   5.371   1.101  10.103 -0.9711  0.3911 -1.7484
  579MOL0     H76425   5.441   1.025   9.975 -0.3877  0.3753 -0.8667
  579MOL0     H76426   5.817   1.053  10.143  0.6034 -1.0330 -2.9255
  579MOL0     H76427   5.691   1.495   9.676  0.6449 -0.1216 -1.8651
  579MOL0     H76428   5.744   1.674   9.543 -0.7289 -0.9390 -0.1762
  580MOL0     O76429   9.050   5.753   7.889  0.0653 -0.6087 -0.1311
  580MOL0     C76430   9.161   5.803   7.873 -1.1506  0.2758  0.5258
  580MOL0     O76431   9.186   5.881   7.774 -0.1072  0.3087 -0.4612
  580MOL0     C76432   9.174   5.842   7.642  0.0645  0.9104 -0.4657
  580MOL0     C76433   9.101   5.723   7.599  0.5086  0.0995  0.7689
  580MOL0     C76434   9.082   5.706   7.469 -0.1015  0.4384 -0.2836
  580MOL0     C76435   9.124   5.791   7.376 -0.6341 -0.4189  0.7471
  580MOL0     O76436   9.099   5.734   7.252 -0.9302  0.0964 -0.0573
  580MOL0     C76437   9.193   5.775   7.148  0.0160 -0.0854  0.0026
  580MOL0     C76438   9.328   5.716   7.172  0.1823  0.7263 -0.4774
  580MOL0     C76439   9.311   5.567   7.227 -0.4391  0.6267 -0.3728
  580MOL0     C76440   9.458   5.520   7.260  0.2765 -0.0967  0.5994
  580MOL0     C76441   9.479   5.402   7.359 -0.3864 -0.8586  0.1697
  580MOL0     C76442   9.393   5.289   7.315 -0.6039 -0.0374  0.0773
  580MOL0     C76443   9.442   5.165   7.389  0.6584 -0.2587 -0.0927
  580MOL0     C76444   9.367   5.044   7.362  0.4477  0.3633 -1.2279
  580MOL0     N76445   9.439   4.931   7.435 -0.3373  0.5076 -0.3616
  580MOL0     C76446   9.377   4.802   7.442  0.5429 -0.3185 -0.3457
  580MOL0     C76447   9.449   4.744   7.548  0.1066  0.0599  1.1799
  580MOL0     C76448   9.420   4.599   7.592  0.1083  0.3164 -0.6339
  580MOL0     C76449   9.281   4.544   7.559  0.0190 -0.0273 -0.8631
  580MOL0     C76450   9.264   4.394   7.601  0.3529  0.2110 -0.4401
  580MOL0     C76451   9.358   4.293   7.540  0.3246 -0.4843  0.8224
  580MOL0     O76452   9.352   4.274   7.395  0.5569  0.4939 -0.6108
  580MOL0     C76453   9.446   4.179   7.336 -0.3156 -0.0638 -0.0331
  580MOL0     C76454   9.553   4.114   7.405  0.8182  0.0173  0.3024
  580MOL0     C76455   9.629   4.014   7.343  0.0864  0.4217  0.7466
  580MOL0     C76456   9.608   3.982   7.209  1.2472  0.3704 -0.1987
  580MOL0     C76457   9.677   3.874   7.137  0.4195  0.2967  0.0699
  580MOL0     O76458   9.625   3.830   7.009  0.2504  0.5454  0.2474
  580MOL0     C76459   9.669   3.709   6.951  0.4652  0.4893 -0.7687
  580MOL0     C76460   9.570   3.627   6.903 -0.0984  0.6722 -1.1196
  580MOL0     C76461   9.598   3.505   6.848 -0.6405 -0.6384 -0.3753
  580MOL0     C76462   9.735   3.453   6.852  0.3342 -0.1338 -0.3910
  580MOL0     O76463   9.761   3.328   6.815  0.3397 -0.4098  0.1927
  580MOL0     C76464   9.691   3.243   6.911 -0.1144  0.7951  0.0689
  580MOL0     C76465   9.751   3.100   6.916 -0.9682  0.6460  0.6157
  580MOL0     C76466   9.764   3.042   6.769  0.3129 -0.7598  0.0659
  580MOL0     C76467   9.635   2.981   6.714 -0.9034  0.4625 -0.1135
  580MOL0     C76468   9.618   2.832   6.761  0.6728  1.1997  0.6840
  580MOL0     C76469   9.513   2.770   6.675  1.1817  0.3146 -0.3845
  580MOL0     C76470   9.561   2.748   6.527  0.9459  0.1779 -0.5538
  580MOL0     C76471   9.443   2.713   6.444  0.6451  0.5771 -0.7278
  580MOL0    Cl76472   9.313   2.608   6.521 -0.2070 -0.3202 -0.0678
  580MOL0     C76473   9.833   3.547   6.885  0.8175  0.0524  0.8667
  580MOL0     C76474   9.801   3.673   6.928  0.6572 -0.1475 -0.4578
  580MOL0     O76475   9.776   3.828   7.186 -0.5795  1.0934  0.6053
  580MOL0     C76476   9.518   4.062   7.134  0.6628  0.0954  0.0825
  580MOL0     C76477   9.441   4.164   7.198 -0.3202  0.2312 -0.6988
  580MOL0     N76478   9.547   4.830   7.593  0.9563  0.7432  0.5215
  580MOL0     N76479   9.532   4.945   7.539 -0.1198 -0.9099  0.7153
  580MOL0     C76480   9.199   5.901   7.415  0.0222  0.5662 -0.3741
  580MOL0     C76481   9.212   5.933   7.546 -0.6077  0.2757  0.4446
  580MOL0     C76482   9.267   5.799   7.977  0.2261  0.3008  0.1774
  580MOL0     C76483   9.397   5.853   7.957 -0.5515 -0.2798  0.1986
  580MOL0     C76484   9.498   5.839   8.054  0.3901  0.3334  0.1541
  580MOL0     C76485   9.471   5.774   8.174  0.3759  0.3639 -0.1639
  580MOL0     O76486   9.565   5.758   8.268  0.0747  0.0343  0.1652
  580MOL0     C76487   9.704   5.749   8.239  0.2771  0.4077  0.7115
  580MOL0     C76488   9.736   5.607   8.190  0.2449  0.3109 -0.0397
  580MOL0     C76489   9.878   5.622   8.124 -0.1953 -0.7084  0.4930
  580MOL0     C76490   9.918   5.484   8.061 -0.3391 -0.1708  0.0636
  580MOL0     C76491  10.008   5.498   7.952 -0.2395  0.5371  1.0163
  580MOL0     C76492  10.078   5.503   7.853  0.1748  0.3520 -0.1833
  580MOL0     C76493   9.342   5.729   8.203 -0.4347  0.5542  0.9706
  580MOL0     C76494   9.241   5.745   8.101 -0.2378 -0.8607  0.4040
  580MOL0     H76495   9.064   5.645   7.665  3.4402 -1.7239  0.4608
  580MOL0     H76496   9.012   5.629   7.437  1.6347 -1.2407 -0.2545
  580MOL0     H76497   9.198   5.883   7.131  1.8326 -0.1164  0.2240
  580MOL0     H76498   9.168   5.737   7.048  0.0527  0.6975 -0.3064
  580MOL0     H76499   9.365   5.783   7.250 -1.0931  0.5878  0.2886
  580MOL0     H76500   9.386   5.725   7.080 -0.0947  1.3745 -0.5993
  580MOL0     H76501   9.268   5.503   7.150 -4.5513  1.2023  1.2315
  580MOL0     H76502   9.260   5.554   7.323  0.8748 -3.0878 -0.0017
  580MOL0     H76503   9.505   5.494   7.164  1.8324  0.1655  1.2513
  580MOL0     H76504   9.515   5.599   7.310  0.0139  0.8654 -0.5931
  580MOL0     H76505   9.455   5.432   7.461 -0.7862 -2.7780  0.6697
  580MOL0     H76506   9.586   5.377   7.356 -0.2811 -0.3559 -0.4774
  580MOL0     H76507   9.410   5.261   7.211 -1.3885 -1.8242  0.3908
  580MOL0     H76508   9.289   5.301   7.347 -0.3714 -2.3600  1.9363
  580MOL0     H76509   9.547   5.149   7.363 -0.1447 -0.4711 -3.7280
  580MOL0     H76510   9.434   5.185   7.496 -1.0276  1.9553 -0.5705
  580MOL0     H76511   9.380   5.024   7.256  1.3719  1.2693 -1.3025
  580MOL0     H76512   9.264   5.064   7.394  0.0533 -1.7670 -1.0122
  580MOL0     H76513   9.288   4.758   7.398 -0.0536  0.0755  0.4633
  580MOL0     H76514   9.423   4.606   7.701 -2.1294  1.6984 -0.5917
  580MOL0     H76515   9.496   4.532   7.550  1.2046 -0.9052  2.9456
  580MOL0     H76516   9.242   4.552   7.457 -3.3586  1.3456  0.3977
  580MOL0     H76517   9.210   4.605   7.616  2.1761  0.5399  1.3812
  580MOL0     H76518   9.276   4.405   7.709  4.3698  2.1097 -0.8947
  580MOL0     H76519   9.164   4.360   7.575  0.3348 -0.6302  0.7114
  580MOL0     H76520   9.324   4.200   7.586 -2.8932  0.9787  1.7359
  580MOL0     H76521   9.458   4.322   7.574  0.6500  1.7258 -1.7378
  580MOL0     H76522   9.576   4.132   7.510  0.9993  1.7417 -0.0091
  580MOL0     H76523   9.712   3.959   7.385  3.1800  3.2439 -1.1563
  580MOL0     H76524   9.470   3.669   6.902 -1.4423 -2.2613 -2.1769
  580MOL0     H76525   9.510   3.452   6.812 -1.5621  0.8060 -0.3285
  580MOL0     H76526   9.587   3.237   6.878 -0.6684 -1.5776  1.9382
  580MOL0     H76527   9.689   3.283   7.013 -0.3230 -2.0948  1.2939
  580MOL0     H76528   9.690   3.041   6.986 -0.6646  1.3081  1.4556
  580MOL0     H76529   9.847   3.089   6.967 -0.5089  0.2746 -0.3203
  580MOL0     H76530   9.837   2.960   6.771  0.0829 -1.0590 -2.0144
  580MOL0     H76531   9.802   3.109   6.692  0.3312  0.0719  0.7908
  580MOL0     H76532   9.553   3.036   6.761  0.5078  2.1308  0.5052
  580MOL0     H76533   9.656   3.001   6.609  1.5014  1.4258  0.4784
  580MOL0     H76534   9.571   2.835   6.860 -1.2839 -3.7819  0.1873
  580MOL0     H76535   9.704   2.765   6.766 -0.9109 -1.0066 -0.0185
  580MOL0     H76536   9.425   2.835   6.680 -0.3562 -1.3909 -3.0573
  580MOL0     H76537   9.486   2.675   6.722 -0.5254  1.0742  0.2539
  580MOL0     H76538   9.617   2.830   6.481  0.6789  1.0908  0.6990
  580MOL0     H76539   9.627   2.661   6.534 -2.0245 -2.2117 -0.2603
  580MOL0     H76540   9.482   2.661   6.356  0.7647  1.4157 -1.1724
  580MOL0     H76541   9.386   2.796   6.403 -1.1003 -0.4931 -0.5981
  580MOL0     H76542   9.934   3.511   6.871  0.0696 -1.7989 -0.0441
  580MOL0     H76543   9.895   3.716   6.961  1.2710 -2.2722  0.7567
  580MOL0     H76544   9.481   4.054   7.032  1.8152  4.4270 -0.8916
  580MOL0     H76545   9.363   4.212   7.139 -0.4145 -0.8340 -1.4716
  580MOL0     H76546   9.245   5.967   7.342  1.6192  1.1025  1.0622
  580MOL0     H76547   9.253   6.028   7.582  1.2865 -1.4769  3.3454
  580MOL0     H76548   9.439   5.895   7.866 -1.8884  0.9746  0.1119
  580MOL0     H76549   9.596   5.879   8.030  0.9876 -0.8422  0.5501
  580MOL0     H76550   9.754   5.771   8.333  0.3665 -0.0872  0.7819
  580MOL0     H76551   9.730   5.831   8.171  0.7265  1.7323  2.4032
  580MOL0     H76552   9.729   5.540   8.276 -2.8218  3.3468  2.3376
  580MOL0     H76553   9.658   5.582   8.118  0.4794  0.6524 -0.4200
  580MOL0     H76554   9.954   5.647   8.198 -0.2060  0.0968  0.2415
  580MOL0     H76555   9.885   5.691   8.039 -0.4200 -3.7820 -2.2250
  580MOL0     H76556   9.972   5.420   8.132 -0.9279  0.8661  1.4959
  580MOL0     H76557   9.829   5.424   8.041 -0.4429  0.4297 -1.3706
  580MOL0     H76558  10.160   5.529   7.789  3.1547 -2.3898  2.1922
  580MOL0     H76559   9.332   5.684   8.301  0.5815  2.3107  1.9253
  580MOL0     H76560   9.137   5.724   8.126 -1.4410  2.3800 -1.2746
  581MOL0     O76561   5.340   6.557   0.743  0.0298 -0.4122  0.3898
  581MOL0     C76562   5.410   6.530   0.641  0.3055 -0.2213 -0.1747
  581MOL0     O76563   5.386   6.435   0.543 -0.1698  0.1785 -0.0361
  581MOL0     C76564   5.259   6.378   0.553  0.3709  0.4775 -0.5986
  581MOL0     C76565   5.231   6.277   0.658 -1.1768 -1.4268  0.1081
  581MOL0     C76566   5.099   6.254   0.684 -1.1263 -0.3407  0.0799
  581MOL0     C76567   4.993   6.306   0.615 -0.4050  0.3134 -0.5389
  581MOL0     O76568   4.865   6.280   0.637 -1.1303  0.0283  0.3210
  581MOL0     C76569   4.815   6.218   0.758  0.0950 -0.5225  0.5791
  581MOL0     C76570   4.664   6.242   0.769  0.4111 -0.6177 -0.0314
  581MOL0     C76571   4.627   6.389   0.783  0.3091 -1.7011  0.7776
  581MOL0     C76572   4.474   6.402   0.757  0.0900 -0.3611  0.4951
  581MOL0     C76573   4.375   6.299   0.817 -0.2998 -0.6707 -0.2611
  581MOL0     C76574   4.230   6.333   0.770 -0.1566  0.1868 -1.3500
  581MOL0     C76575   4.194   6.241   0.642  0.4147  0.0691  0.8842
  581MOL0     C76576   4.054   6.291   0.595  0.5458  0.7916  0.9103
  581MOL0     N76577   4.011   6.233   0.461  0.3003  0.0670 -0.9722
  581MOL0     C76578   4.092   6.228   0.349 -0.6694  1.1373 -0.2343
  581MOL0     C76579   4.012   6.164   0.255 -0.4350  0.1417 -0.6980
  581MOL0     C76580   4.045   6.131   0.114  0.2935 -0.1595  0.3818
  581MOL0     C76581   3.948   6.210   0.019  0.4020  0.4557  0.0178
  581MOL0     C76582   3.812   6.135  -0.005  1.1202  0.7009  0.6750
  581MOL0     C76583   3.725   6.222  -0.103  1.0127 -0.1219  0.9333
  581MOL0     O76584   3.777   6.206  -0.242  0.1156 -0.1223  0.1766
  581MOL0     C76585   3.780   6.322  -0.322  0.0641  0.1073 -0.2615
  581MOL0     C76586   3.888   6.359  -0.393  0.3794  0.4790  0.0405
  581MOL0     C76587   3.879   6.475  -0.478  0.2184 -0.3654  0.0438
  581MOL0     C76588   3.755   6.533  -0.497 -0.0872  0.9195  0.0858
  581MOL0     C76589   3.744   6.645  -0.602  0.8368  0.4437 -0.0278
  581MOL0     O76590   3.623   6.717  -0.608  0.0771 -0.5776  0.8610
  581MOL0     C76591   3.620   6.810  -0.702  0.4435 -0.2378 -0.1766
  581MOL0     C76592   3.651   6.940  -0.670  1.1299 -0.7355 -0.2135
  581MOL0     C76593   3.607   7.038  -0.758  0.0006 -0.9493  0.0342
  581MOL0     C76594   3.567   7.006  -0.887  0.0175 -0.5066  0.5231
  581MOL0     O76595   3.525   7.112  -0.962  0.1090  0.5433  0.3807
  581MOL0     C76596   3.492   7.090  -1.102 -0.0438  0.1091  0.1238
  581MOL0     C76597   3.498   7.209  -1.194  0.4088 -0.1056  0.5769
  581MOL0     C76598   3.531   7.169  -1.340  0.7082 -0.2609 -0.0284
  581MOL0     C76599   3.559   7.288  -1.442  0.2262 -0.3099  0.3503
  581MOL0     C76600   3.634   7.232  -1.566 -0.6399  0.7918  0.6618
  581MOL0     C76601   3.540   7.134  -1.652  0.4042  0.5889 -0.3501
  581MOL0     C76602   3.584   7.108  -1.791  1.5006 -0.0845 -0.8168
  581MOL0     C76603   3.475   7.046  -1.878 -0.2628 -0.0985  0.3289
  581MOL0    Cl76604   3.409   6.896  -1.806  0.5271 -0.1778  0.3239
  581MOL0     C76605   3.537   6.878  -0.925 -0.2035 -0.3565 -0.1831
  581MOL0     C76606   3.569   6.784  -0.827  0.9516  0.2082  0.8447
  581MOL0     O76607   3.840   6.664  -0.677  0.0546 -0.2549 -0.2586
  581MOL0     C76608   3.642   6.500  -0.420 -0.0121  0.5700  0.6911
  581MOL0     C76609   3.656   6.396  -0.329  0.6407  0.7186 -0.1059
  581MOL0     N76610   3.887   6.145   0.317 -0.2260  0.1227  0.2862
  581MOL0     N76611   3.881   6.196   0.436 -0.8329  0.4612  0.6075
  581MOL0     C76612   5.022   6.395   0.501  0.1930 -0.5258 -0.7472
  581MOL0     C76613   5.150   6.429   0.477 -0.8713  0.0819 -0.6790
  581MOL0     C76614   5.549   6.585   0.640  0.4060  0.3473  0.0896
  581MOL0     C76615   5.606   6.633   0.518 -0.0176  0.7586 -0.0393
  581MOL0     C76616   5.743   6.670   0.524 -0.2286  0.4823 -0.1549
  581MOL0     C76617   5.821   6.657   0.641  0.3717  0.5036 -0.1626
  581MOL0     O76618   5.952   6.711   0.627  0.4719  0.5634 -0.0804
  581MOL0     C76619   6.045   6.725   0.740  0.6368  0.6670  0.5344
  581MOL0     C76620   6.103   6.592   0.781 -0.4966  0.3239 -0.3135
  581MOL0     C76621   6.247   6.592   0.840 -0.1400  0.4186  0.7883
  581MOL0     C76622   6.351   6.558   0.732  1.0299 -0.6111  0.9826
  581MOL0     C76623   6.490   6.568   0.781 -0.3700 -0.5780 -0.1957
  581MOL0     C76624   6.593   6.589   0.838 -0.1171 -0.3456 -0.0970
  581MOL0     C76625   5.767   6.613   0.759  1.0239 -0.0217  0.4417
  581MOL0     C76626   5.631   6.567   0.752 -0.3053  0.0371 -0.2258
  581MOL0     H76627   5.298   6.218   0.720 -1.4291  0.1873  2.0317
  581MOL0     H76628   5.091   6.194   0.774  6.1707 -2.8880 -0.2821
  581MOL0     H76629   4.855   6.264   0.849 -0.7562  3.0310 -0.7052
  581MOL0     H76630   4.838   6.111   0.749 -3.3050 -1.5746  2.6657
  581MOL0     H76631   4.611   6.188   0.848 -0.7018 -2.0699 -1.6820
  581MOL0     H76632   4.627   6.202   0.674  2.5109 -2.5291 -0.1365
  581MOL0     H76633   4.674   6.448   0.704 -1.4590 -1.6000 -0.2344
  581MOL0     H76634   4.642   6.433   0.882  4.7536 -1.8585  0.3758
  581MOL0     H76635   4.442   6.505   0.774  0.3127  0.0266 -1.3495
  581MOL0     H76636   4.473   6.404   0.648 -1.2331 -3.2580  0.3558
  581MOL0     H76637   4.383   6.302   0.926 -1.9470 -0.5809 -0.1133
  581MOL0     H76638   4.402   6.196   0.791 -1.2520 -0.4918 -2.1578
  581MOL0     H76639   4.206   6.435   0.739 -1.8800 -0.3829 -2.0299
  581MOL0     H76640   4.172   6.314   0.860 -0.1225 -4.1482 -2.0132
  581MOL0     H76641   4.267   6.241   0.560  0.2086 -2.4398  0.6424
  581MOL0     H76642   4.200   6.138   0.676  1.5769 -0.6623 -1.3435
  581MOL0     H76643   4.058   6.400   0.599 -0.9954  0.8676  0.7504
  581MOL0     H76644   3.979   6.264   0.669  0.8050 -2.9302  0.0476
  581MOL0     H76645   4.189   6.272   0.329 -1.3931  0.8824 -5.6519
  581MOL0     H76646   4.039   6.023   0.101  1.9043 -0.0586 -1.7197
  581MOL0     H76647   4.148   6.150   0.082 -0.2443  1.4148 -0.5399
  581MOL0     H76648   3.995   6.196  -0.079 -1.7830 -1.4209 -0.8500
  581MOL0     H76649   3.938   6.315   0.048 -0.5672  0.2016  0.6359
  581MOL0     H76650   3.832   6.034  -0.044  0.5087  0.6748  0.4157
  581MOL0     H76651   3.762   6.115   0.090 -2.7639  1.0012 -1.1125
  581MOL0     H76652   3.719   6.324  -0.064 -1.0979  0.4400 -0.7015
  581MOL0     H76653   3.624   6.182  -0.108  0.4812  1.1782  0.9423
  581MOL0     H76654   3.975   6.296  -0.380 -2.4988 -3.2833  4.1957
  581MOL0     H76655   3.967   6.517  -0.526 -0.6089  1.3628 -0.0401
  581MOL0     H76656   3.685   6.968  -0.571 -5.0611  4.2249  1.1386
  581MOL0     H76657   3.624   7.144  -0.742  0.2095  0.0694 -5.1870
  581MOL0     H76658   3.392   7.048  -1.111  0.1244 -0.5824  1.1949
  581MOL0     H76659   3.565   7.015  -1.134  1.3908  0.6791  1.8716
  581MOL0     H76660   3.580   7.272  -1.158 -0.4514  0.9826  0.6975
  581MOL0     H76661   3.406   7.267  -1.207  1.1185  0.7750 -0.7255
  581MOL0     H76662   3.446   7.112  -1.377 -1.3649  2.1004  0.8039
  581MOL0     H76663   3.622   7.108  -1.334  0.5002 -0.4461  1.7644
  581MOL0     H76664   3.466   7.345  -1.442 -0.5424 -1.2143 -3.5967
  581MOL0     H76665   3.636   7.357  -1.407  0.5973 -1.2086  1.3552
  581MOL0     H76666   3.732   7.185  -1.550 -1.4869 -2.4576 -2.2963
  581MOL0     H76667   3.657   7.312  -1.637 -2.5366  0.7674 -0.0392
  581MOL0     H76668   3.448   7.193  -1.664  1.0011  1.9411  1.4015
  581MOL0     H76669   3.525   7.037  -1.603  0.8863  0.3801 -0.6099
  581MOL0     H76670   3.598   7.204  -1.842 -1.2941  1.0441  0.3467
  581MOL0     H76671   3.672   7.044  -1.778  0.3014 -1.8599 -1.2032
  581MOL0     H76672   3.532   7.017  -1.967  1.6059  2.1404  0.7252
  581MOL0     H76673   3.394   7.118  -1.891 -0.1421  0.5935  2.8365
  581MOL0     H76674   3.487   6.850  -1.017 -2.2330 -0.0800  0.7837
  581MOL0     H76675   3.539   6.682  -0.847  1.7381  0.1783 -0.2336
  581MOL0     H76676   3.548   6.553  -0.428  1.4909  3.1391 -1.8792
  581MOL0     H76677   3.568   6.367  -0.271  0.4913  0.5105 -0.4353
  581MOL0     H76678   4.936   6.425   0.444  0.0670 -0.1090 -0.3425
  581MOL0     H76679   5.177   6.506   0.406 -0.0595  2.6050  2.1075
  581MOL0     H76680   5.545   6.642   0.429  0.4715  1.4668 -0.3087
  581MOL0     H76681   5.790   6.709   0.434  1.1584 -2.5062 -0.8462
  581MOL0     H76682   5.989   6.767   0.824  0.6316  2.5175 -0.3432
  581MOL0     H76683   6.120   6.796   0.705 -1.3995  2.8208  0.2492
  581MOL0     H76684   6.035   6.545   0.853  0.6918 -0.0529  0.5915
  581MOL0     H76685   6.100   6.526   0.694 -0.5471  0.1039 -0.1448
  581MOL0     H76686   6.245   6.526   0.927 -2.8214 -1.1736 -0.3712
  581MOL0     H76687   6.273   6.692   0.876  1.0715 -0.2417  1.8618
  581MOL0     H76688   6.331   6.456   0.698  1.7286 -0.6544  0.6730
  581MOL0     H76689   6.326   6.612   0.640 -1.3877 -0.6681  1.5417
  581MOL0     H76690   6.680   6.613   0.897  1.1091  0.2959 -2.0653
  581MOL0     H76691   5.810   6.606   0.859 -1.0491  0.9853  1.4853
  581MOL0     H76692   5.601   6.507   0.837  1.2346  0.7406  0.8582
  582MOL0     O76693   5.994   5.370   7.914  0.6330 -0.0867 -0.2251
  582MOL0     C76694   6.072   5.438   7.847 -0.1921 -0.3403  0.3746
  582MOL0     O76695   6.197   5.406   7.813  0.1677 -0.7532  0.3936
  582MOL0     C76696   6.268   5.308   7.884 -0.6596 -0.4276 -0.4910
  582MOL0     C76697   6.358   5.221   7.823 -0.0197  0.0842 -0.2835
  582MOL0     C76698   6.422   5.124   7.902 -0.2389  1.0713 -0.6404
  582MOL0     C76699   6.413   5.121   8.041  0.1086 -0.2920  0.3034
  582MOL0     O76700   6.483   5.022   8.108 -0.4095  0.4878  0.3118
  582MOL0     C76701   6.433   4.981   8.231  0.4178  0.0375  0.5547
  582MOL0     C76702   6.483   4.845   8.284 -0.9042  0.0630 -0.3884
  582MOL0     C76703   6.400   4.777   8.396  0.3527  0.1520  0.2700
  582MOL0     C76704   6.476   4.656   8.463 -0.7769 -0.5023 -0.1094
  582MOL0     C76705   6.393   4.543   8.516  1.1638  1.0302  0.7003
  582MOL0     C76706   6.353   4.572   8.662 -0.0809  0.1061 -0.2160
  582MOL0     C76707   6.235   4.479   8.714  0.9662  0.0092 -0.1794
  582MOL0     C76708   6.093   4.500   8.664 -1.2127 -0.9931  0.6367
  582MOL0     N76709   6.017   4.400   8.743 -0.6118  0.2324  0.0177
  582MOL0     C76710   5.967   4.280   8.700  0.7664  0.5740 -0.1047
  582MOL0     C76711   5.890   4.229   8.802 -0.2033  0.4285  1.2023
  582MOL0     C76712   5.830   4.088   8.819 -0.3402 -2.0789  0.0650
  582MOL0     C76713   5.940   3.980   8.850  0.3257 -0.6911  0.1239
  582MOL0     C76714   5.996   3.980   8.991  0.5405  0.7059 -0.1676
  582MOL0     C76715   6.099   4.081   9.030 -1.6482 -0.2180  0.7553
  582MOL0     O76716   6.208   4.062   8.925  0.4527  0.6954 -0.0976
  582MOL0     C76717   6.310   4.152   8.932 -0.4595 -1.5358  0.6144
  582MOL0     C76718   6.334   4.270   9.010  0.8846 -0.3901 -0.0268
  582MOL0     C76719   6.439   4.361   8.986 -0.0976  0.0397  0.1935
  582MOL0     C76720   6.545   4.327   8.901  0.0768  0.3507 -0.4273
  582MOL0     C76721   6.652   4.425   8.885  0.3573  0.3227  0.1789
  582MOL0     O76722   6.622   4.547   8.926  0.1075  0.1136 -0.5626
  582MOL0     C76723   6.718   4.646   8.907  1.3742 -0.2202  0.4619
  582MOL0     C76724   6.755   4.721   9.029  0.2022  0.9870  0.2180
  582MOL0     C76725   6.838   4.835   9.019 -0.6046  0.4062 -0.6442
  582MOL0     C76726   6.882   4.866   8.892 -0.6958  0.5124 -0.1728
  582MOL0     O76727   6.956   4.986   8.886  0.1968  0.2778  0.5471
  582MOL0     C76728   7.086   4.988   8.825  0.8432  0.1429 -0.4206
  582MOL0     C76729   7.154   5.114   8.831 -0.3019  0.5802  0.2527
  582MOL0     C76730   7.287   5.112   8.761 -0.2828 -0.4653  0.6931
  582MOL0     C76731   7.352   5.255   8.777  0.0538 -0.2516  0.3863
  582MOL0     C76732   7.369   5.333   8.645  0.4558 -0.3088 -0.2716
  582MOL0     C76733   7.386   5.485   8.671 -0.0542  0.0878 -0.6521
  582MOL0     C76734   7.523   5.527   8.607 -0.6896 -0.0100 -0.2721
  582MOL0     C76735   7.579   5.645   8.676  0.0352 -0.6814 -0.1265
  582MOL0    Cl76736   7.710   5.723   8.598 -0.0596 -0.3035  0.3048
  582MOL0     C76737   6.857   4.793   8.771  0.1576  0.9117  0.0378
  582MOL0     C76738   6.768   4.690   8.783  0.7563 -0.1149  0.2450
  582MOL0     O76739   6.744   4.389   8.815  0.3927 -0.7495 -0.7584
  582MOL0     C76740   6.527   4.205   8.830  0.2960  0.4726  0.5127
  582MOL0     C76741   6.408   4.122   8.841 -1.0636 -0.1246  0.8976
  582MOL0     N76742   5.890   4.325   8.900 -0.1332 -0.4619  0.3083
  582MOL0     N76743   5.965   4.426   8.862  0.2325  0.0296 -0.1703
  582MOL0     C76744   6.331   5.214   8.103 -0.2859 -0.1095 -0.7283
  582MOL0     C76745   6.261   5.302   8.022 -0.1510 -0.1199 -0.7476
  582MOL0     C76746   6.016   5.557   7.776  0.5044  0.1163 -0.0419
  582MOL0     C76747   6.100   5.658   7.730 -0.3015  0.7984 -0.1119
  582MOL0     C76748   6.046   5.769   7.668 -0.0883 -0.2240  0.0248
  582MOL0     C76749   5.907   5.774   7.636 -0.7634 -0.2068  1.1028
  582MOL0     O76750   5.856   5.851   7.542 -0.5989 -0.6098  0.5662
  582MOL0     C76751   5.940   5.921   7.456 -1.1702 -0.4464  0.2722
  582MOL0     C76752   6.004   6.050   7.519  0.4029 -0.2585  0.8634
  582MOL0     C76753   6.106   6.118   7.435 -0.4839  0.0492 -0.7367
  582MOL0     C76754   6.062   6.207   7.323  0.0351 -1.1719  0.1492
  582MOL0     C76755   5.990   6.146   7.218 -0.4398  0.2002  0.5045
  582MOL0     C76756   5.949   6.093   7.112  0.1757 -0.1332 -0.8240
  582MOL0     C76757   5.819   5.684   7.685 -0.1459 -0.7612 -0.4896
  582MOL0     C76758   5.874   5.578   7.763 -0.5176  0.8610  0.7059
  582MOL0     H76759   6.378   5.224   7.716  2.3997 -2.6623 -0.0245
  582MOL0     H76760   6.490   5.051   7.859 -1.4690  0.5499 -1.7725
  582MOL0     H76761   6.327   4.966   8.213  0.5185  0.2010 -0.2275
  582MOL0     H76762   6.454   5.061   8.303 -1.2701  0.7799  0.2756
  582MOL0     H76763   6.583   4.866   8.323 -1.5042  2.8710 -0.1506
  582MOL0     H76764   6.510   4.774   8.205 -0.1113 -1.7988  1.4635
  582MOL0     H76765   6.315   4.741   8.336 -1.0530  3.3957  0.1241
  582MOL0     H76766   6.368   4.850   8.470 -1.2150 -1.3780  1.1918
  582MOL0     H76767   6.546   4.615   8.389 -0.6339  0.6815 -0.6518
  582MOL0     H76768   6.554   4.680   8.535  2.0432  0.3422 -3.1944
  582MOL0     H76769   6.434   4.441   8.521 -1.9526 -0.5863 -2.4859
  582MOL0     H76770   6.305   4.529   8.454 -1.6297  1.4627  4.2332
  582MOL0     H76771   6.315   4.671   8.688  0.5240 -0.1015  1.6219
  582MOL0     H76772   6.445   4.553   8.718 -0.4030 -1.0472 -0.0523
  582MOL0     H76773   6.269   4.376   8.697 -1.0323 -0.9583  1.2361
  582MOL0     H76774   6.235   4.495   8.822 -0.8599 -2.4466  0.2609
  582MOL0     H76775   6.079   4.477   8.558  1.2549 -0.7245  0.1986
  582MOL0     H76776   6.068   4.606   8.669  0.8694 -0.4268  0.1170
  582MOL0     H76777   5.996   4.235   8.606  2.8298 -0.5319  0.9855
  582MOL0     H76778   5.787   4.054   8.725 -0.5680  1.2520 -1.1803
  582MOL0     H76779   5.759   4.080   8.902  2.0437 -0.0537  2.5276
  582MOL0     H76780   6.023   3.990   8.778 -1.2098 -1.7964 -1.8970
  582MOL0     H76781   5.890   3.885   8.835 -3.0069  1.1590 -1.6606
  582MOL0     H76782   5.909   3.981   9.057 -0.7555  1.5449 -1.8301
  582MOL0     H76783   6.031   3.877   9.002  1.9272  1.2258  0.5176
  582MOL0     H76784   6.139   4.084   9.132 -1.0296  2.6540  0.4929
  582MOL0     H76785   6.061   4.181   9.009  0.6247  0.6521  0.4461
  582MOL0     H76786   6.259   4.311   9.076 -0.1179 -0.5904 -1.0078
  582MOL0     H76787   6.439   4.439   9.061  2.0208  3.6217 -3.1275
  582MOL0     H76788   6.708   4.688   9.121 -3.6095  0.8514 -1.5632
  582MOL0     H76789   6.870   4.899   9.101 -0.6309  1.1879 -1.2311
  582MOL0     H76790   7.075   4.969   8.718  0.2173  0.4921 -0.4263
  582MOL0     H76791   7.152   4.914   8.871  0.2134  0.1517  0.5185
  582MOL0     H76792   7.164   5.135   8.938 -1.7612  4.9650 -0.2858
  582MOL0     H76793   7.091   5.194   8.792 -0.9210  1.2852  2.5163
  582MOL0     H76794   7.276   5.098   8.654 -0.2546  2.2117  0.2553
  582MOL0     H76795   7.361   5.034   8.782 -0.6199 -0.2049  3.2000
  582MOL0     H76796   7.287   5.320   8.836  1.1571 -0.3235  1.7178
  582MOL0     H76797   7.455   5.251   8.812 -0.0671  1.4934  1.0552
  582MOL0     H76798   7.272   5.327   8.596 -1.1222 -2.1509  2.7745
  582MOL0     H76799   7.443   5.286   8.578 -1.9911 -1.2449 -2.4851
  582MOL0     H76800   7.392   5.505   8.778  0.6275 -4.4998  0.3950
  582MOL0     H76801   7.307   5.543   8.624 -1.2867 -2.3212 -1.7641
  582MOL0     H76802   7.595   5.449   8.635 -0.4866  0.3413  0.2034
  582MOL0     H76803   7.524   5.539   8.499 -0.9755 -1.1788 -0.4170
  582MOL0     H76804   7.615   5.626   8.777  1.7556 -1.5667 -0.8701
  582MOL0     H76805   7.504   5.725   8.667  0.0590 -0.8133 -2.0456
  582MOL0     H76806   6.890   4.821   8.672  2.2417  3.9524  1.4411
  582MOL0     H76807   6.735   4.631   8.698  1.7473  0.0257 -0.2485
  582MOL0     H76808   6.609   4.168   8.770 -0.0370 -0.2756  0.5060
  582MOL0     H76809   6.396   4.033   8.780  0.7292  0.5476 -0.5170
  582MOL0     H76810   6.319   5.221   8.211  1.8848 -0.8050 -0.4000
  582MOL0     H76811   6.203   5.374   8.078  1.3674  1.0307 -0.5847
  582MOL0     H76812   6.208   5.645   7.731 -0.1680  1.7808  0.1643
  582MOL0     H76813   6.121   5.837   7.631 -0.7182  0.7330  0.4554
  582MOL0     H76814   5.873   5.956   7.377 -0.5408  0.3487  0.0749
  582MOL0     H76815   6.019   5.859   7.410 -3.3487 -0.1424 -4.5039
  582MOL0     H76816   5.920   6.120   7.531 -2.4989 -3.2669 -0.3564
  582MOL0     H76817   6.046   6.033   7.619  1.8833 -1.7060  0.0515
  582MOL0     H76818   6.173   6.037   7.407 -0.2418 -0.1184  0.2869
  582MOL0     H76819   6.170   6.177   7.502 -1.4320  1.1142 -0.7362
  582MOL0     H76820   5.997   6.284   7.367  0.0140 -1.3725  0.4748
  582MOL0     H76821   6.147   6.262   7.282 -1.6988  2.8113  1.3617
  582MOL0     H76822   5.915   6.064   7.014 -1.7793  2.8101 -1.1603
  582MOL0     H76823   5.712   5.690   7.669 -1.2360  4.2419  5.0159
  582MOL0     H76824   5.804   5.517   7.819 -1.9079  1.5447 -0.2615
  583MOL0     O76825   2.111   3.778   2.542 -0.1158 -0.7207  0.0892
  583MOL0     C76826   2.176   3.884   2.559 -0.3308  0.3783  0.8916
  583MOL0     O76827   2.250   3.948   2.457  0.0899 -0.0602  0.0017
  583MOL0     C76828   2.242   3.886   2.335 -0.1927 -0.4912  0.3700
  583MOL0     C76829   2.304   3.755   2.317 -0.2112  0.0016  0.6852
  583MOL0     C76830   2.291   3.694   2.192  0.2847  0.3834 -0.2785
  583MOL0     C76831   2.234   3.756   2.081 -0.3715  0.6741  0.2896
  583MOL0     O76832   2.226   3.697   1.958  0.4238  0.2441  1.0642
  583MOL0     C76833   2.323   3.595   1.924  0.9499  0.4383 -0.2065
  583MOL0     C76834   2.266   3.526   1.789 -0.6585 -0.9368 -0.3584
  583MOL0     C76835   2.364   3.423   1.747  0.1598 -1.0662 -0.7557
  583MOL0     C76836   2.327   3.282   1.796 -1.3334 -0.0860 -0.0111
  583MOL0     C76837   2.407   3.173   1.721  0.6637 -0.4185  0.0935
  583MOL0     C76838   2.551   3.142   1.768  0.7675 -1.3240  0.1882
  583MOL0     C76839   2.632   3.064   1.663  0.0579 -0.3466 -0.7324
  583MOL0     C76840   2.766   3.009   1.713  0.0911 -0.7106 -0.5523
  583MOL0     N76841   2.872   2.949   1.624  0.1983 -0.1216  0.0634
  583MOL0     C76842   2.899   2.816   1.609 -0.1534  0.7271 -0.8979
  583MOL0     C76843   2.993   2.817   1.511 -0.3965  0.7239 -0.2560
  583MOL0     C76844   3.054   2.696   1.464 -1.1852  0.3945  0.3795
  583MOL0     C76845   3.204   2.689   1.503 -0.1055 -1.1840 -0.3284
  583MOL0     C76846   3.289   2.643   1.397 -0.0257  0.6294  0.0424
  583MOL0     C76847   3.426   2.674   1.435 -0.5277 -0.2604  0.8259
  583MOL0     O76848   3.466   2.631   1.572  0.0670  0.0256 -0.5519
  583MOL0     C76849   3.597   2.652   1.604 -0.6798 -0.3756  0.1620
  583MOL0     C76850   3.645   2.584   1.716 -0.6262 -0.1266  0.6838
  583MOL0     C76851   3.771   2.615   1.773  0.7770 -0.0136 -0.5655
  583MOL0     C76852   3.849   2.723   1.730  0.8310 -0.0175 -0.9998
  583MOL0     C76853   3.977   2.769   1.785  0.0123 -1.0424 -0.0947
  583MOL0     O76854   4.045   2.872   1.726 -0.6833  0.0615  0.6784
  583MOL0     C76855   4.166   2.907   1.782 -0.6660  0.2293 -0.7574
  583MOL0     C76856   4.198   2.914   1.920 -0.2415 -0.5726 -0.2508
  583MOL0     C76857   4.311   2.975   1.969 -0.3073  0.4617 -0.7148
  583MOL0     C76858   4.400   3.038   1.885  0.6342 -0.0124  0.9511
  583MOL0     O76859   4.505   3.099   1.945  0.4591 -0.6856 -0.2919
  583MOL0     C76860   4.609   3.157   1.869  0.1019 -0.1044  0.6854
  583MOL0     C76861   4.704   3.058   1.805 -0.1056  0.6248 -0.2443
  583MOL0     C76862   4.837   3.119   1.753  0.8224 -0.0804  0.3782
  583MOL0     C76863   4.808   3.252   1.670  0.3364 -0.6815  0.2994
  583MOL0     C76864   4.913   3.302   1.572 -0.3179 -0.6282 -0.2652
  583MOL0     C76865   4.951   3.218   1.452  0.3118  0.2366 -0.1412
  583MOL0     C76866   5.059   3.300   1.380 -0.2533  0.5108 -0.3635
  583MOL0     C76867   5.098   3.233   1.253 -0.5637  0.1162  0.1464
  583MOL0    Cl76868   4.952   3.253   1.138 -0.3034  0.1030  0.2114
  583MOL0     C76869   4.365   3.032   1.742 -0.6612 -0.5154 -0.1338
  583MOL0     C76870   4.254   2.963   1.694  0.7826 -0.1777 -0.0731
  583MOL0     O76871   4.025   2.695   1.873 -0.4063 -0.1199  0.2365
  583MOL0     C76872   3.796   2.792   1.612 -0.3809  0.2580 -0.6224
  583MOL0     C76873   3.681   2.753   1.543 -0.6734  0.0494 -1.6260
  583MOL0     N76874   3.012   2.943   1.470  0.5475 -0.4417 -0.4065
  583MOL0     N76875   2.930   3.019   1.530  1.0849 -0.1314 -0.3137
  583MOL0     C76876   2.186   3.885   2.101  0.3308  0.0968  0.6673
  583MOL0     C76877   2.177   3.947   2.221 -0.0516  0.5457  0.1946
  583MOL0     C76878   2.201   3.927   2.701 -0.2092  1.0296  0.2373
  583MOL0     C76879   2.294   4.025   2.733  0.0830 -0.1167  0.2364
  583MOL0     C76880   2.318   4.072   2.865  0.9357 -0.3583 -0.8125
  583MOL0     C76881   2.263   4.004   2.972 -0.8067 -0.6260 -0.3204
  583MOL0     O76882   2.284   4.050   3.101  0.3472 -0.8154 -0.1153
  583MOL0     C76883   2.165   4.094   3.179  0.6210  0.1517 -0.4800
  583MOL0     C76884   2.191   4.162   3.311 -0.3311 -0.1164  0.3204
  583MOL0     C76885   2.283   4.079   3.401  0.4940 -0.0249  0.6718
  583MOL0     C76886   2.208   3.973   3.486 -0.3061  0.0577  0.7593
  583MOL0     C76887   2.171   3.860   3.402 -0.5827  0.9609  0.3379
  583MOL0     C76888   2.121   3.771   3.338  0.4434 -0.2602  0.7964
  583MOL0     C76889   2.176   3.899   2.939 -0.2884 -0.6969 -1.5716
  583MOL0     C76890   2.148   3.862   2.811  0.0544  0.3296 -0.0373
  583MOL0     H76891   2.356   3.703   2.397  3.6889  2.7961  0.2530
  583MOL0     H76892   2.322   3.590   2.185  1.2704  0.7222 -1.2296
  583MOL0     H76893   2.334   3.521   2.004  4.2554 -0.0163 -0.9026
  583MOL0     H76894   2.420   3.636   1.895  2.0863 -3.1486 -2.0734
  583MOL0     H76895   2.269   3.600   1.709 -0.9329 -1.1528 -0.5687
  583MOL0     H76896   2.165   3.486   1.800 -1.1225  0.7993  2.9308
  583MOL0     H76897   2.461   3.458   1.781 -1.1848  3.2933 -0.8145
  583MOL0     H76898   2.383   3.431   1.639  1.0014  0.5247 -0.5178
  583MOL0     H76899   2.356   3.277   1.901 -0.9522  1.4502 -0.0265
  583MOL0     H76900   2.218   3.275   1.791 -1.2829 -0.9536 -0.1072
  583MOL0     H76901   2.405   3.206   1.617 -1.5805  0.3218  0.3056
  583MOL0     H76902   2.346   3.082   1.720 -3.0139  1.8459 -0.4758
  583MOL0     H76903   2.556   3.076   1.855  1.7256 -0.8460  0.5174
  583MOL0     H76904   2.600   3.240   1.778  0.3806 -0.9171 -1.5501
  583MOL0     H76905   2.571   2.981   1.626 -3.6689  1.5648  0.5223
  583MOL0     H76906   2.656   3.121   1.572  2.3991  0.0288  0.0435
  583MOL0     H76907   2.755   2.928   1.785  2.5772 -0.0873  0.6274
  583MOL0     H76908   2.822   3.088   1.763  0.7232 -0.5168 -1.5347
  583MOL0     H76909   2.877   2.735   1.678 -2.0649  2.5297  0.7715
  583MOL0     H76910   3.039   2.687   1.356 -1.4572 -1.3264  0.5323
  583MOL0     H76911   3.006   2.611   1.512 -1.9502  0.1871 -0.7277
  583MOL0     H76912   3.218   2.633   1.596  2.4292 -1.3857 -0.7551
  583MOL0     H76913   3.234   2.789   1.536 -1.0857  0.7332 -4.5595
  583MOL0     H76914   3.286   2.534   1.402  1.1304  0.6442  1.9875
  583MOL0     H76915   3.264   2.687   1.300 -1.8893  1.2412  0.7549
  583MOL0     H76916   3.435   2.783   1.434 -5.3135  0.3534  1.0857
  583MOL0     H76917   3.508   2.648   1.367  0.4927 -0.0105  1.9355
  583MOL0     H76918   3.600   2.495   1.760 -1.9957  1.9421  3.8486
  583MOL0     H76919   3.809   2.541   1.842  2.2816 -0.3730 -1.7110
  583MOL0     H76920   4.128   2.871   1.991 -2.8006  0.3695 -2.0452
  583MOL0     H76921   4.323   2.973   2.077  1.1582  1.5239 -0.8229
  583MOL0     H76922   4.667   3.223   1.934 -0.7602 -0.7074  2.1242
  583MOL0     H76923   4.566   3.224   1.793  0.7321 -1.8441 -1.3156
  583MOL0     H76924   4.666   3.004   1.717  2.7063  1.1315 -1.9121
  583MOL0     H76925   4.732   2.985   1.882 -0.0991 -0.3236 -1.1136
  583MOL0     H76926   4.893   3.046   1.694  4.8732  1.9905  1.3083
  583MOL0     H76927   4.902   3.149   1.836  2.5044  0.4961 -1.0953
  583MOL0     H76928   4.705   3.244   1.635  0.8178 -1.0413 -1.0893
  583MOL0     H76929   4.792   3.333   1.742 -0.8722 -0.7050  0.0701
  583MOL0     H76930   4.996   3.331   1.636 -1.6080  0.2720  1.0888
  583MOL0     H76931   4.867   3.394   1.535 -2.2941 -1.0702  0.9377
  583MOL0     H76932   4.866   3.211   1.384 -0.8805 -2.5802  1.4585
  583MOL0     H76933   4.991   3.120   1.480 -0.9390 -0.7644 -1.7217
  583MOL0     H76934   5.021   3.402   1.364  0.5482  0.7918 -0.5306
  583MOL0     H76935   5.152   3.302   1.438  2.2023  0.4738 -3.9719
  583MOL0     H76936   5.128   3.130   1.274  3.2463  1.4499  2.3228
  583MOL0     H76937   5.186   3.285   1.214 -1.1321  0.9615 -0.0257
  583MOL0     H76938   4.421   3.096   1.674 -3.5341  3.5052  0.8893
  583MOL0     H76939   4.232   2.972   1.588  1.7135  0.9004 -0.1960
  583MOL0     H76940   3.857   2.865   1.561  0.0455  1.4243  1.4725
  583MOL0     H76941   3.646   2.814   1.461 -0.4457  0.6601 -1.2725
  583MOL0     H76942   2.128   3.928   2.021 -1.7420  0.2132  2.1624
  583MOL0     H76943   2.106   4.029   2.226 -0.5312  0.4664 -3.2511
  583MOL0     H76944   2.352   4.069   2.653  1.5214 -1.7139  0.3386
  583MOL0     H76945   2.386   4.152   2.893 -3.4810  2.8082  2.1847
  583MOL0     H76946   2.089   4.016   3.193  2.0319 -0.8854  1.9548
  583MOL0     H76947   2.123   4.176   3.120 -0.7369  0.3755  0.7317
  583MOL0     H76948   2.248   4.250   3.281  2.2424 -2.7778 -3.5727
  583MOL0     H76949   2.103   4.195   3.366 -1.0786  0.5086 -1.1933
  583MOL0     H76950   2.311   4.158   3.472 -0.4459  2.5373 -1.6239
  583MOL0     H76951   2.368   4.027   3.356  1.6662 -0.2132  2.9621
  583MOL0     H76952   2.285   3.931   3.551 -0.9039 -1.7395  0.3600
  583MOL0     H76953   2.138   4.017   3.558 -0.1369 -2.1908  2.4037
  583MOL0     H76954   2.078   3.698   3.273  2.7235 -1.4265  0.4932
  583MOL0     H76955   2.134   3.840   3.020  0.0844 -2.2447 -2.4638
  583MOL0     H76956   2.064   3.794   2.806 -2.3796  3.2088 -1.3864
  584MOL0     O76957   0.635   0.332   2.337 -0.7570 -0.1475 -0.4792
  584MOL0     C76958   0.531   0.275   2.290  0.6315 -0.1658 -1.0285
  584MOL0     O76959   0.448   0.331   2.205 -0.1671 -0.1145 -0.1219
  584MOL0     C76960   0.444   0.463   2.165 -0.2541 -0.3546  0.7841
  584MOL0     C76961   0.562   0.544   2.143  0.1554 -0.0228  0.3262
  584MOL0     C76962   0.544   0.669   2.082  0.0217  0.5355 -0.4127
  584MOL0     C76963   0.423   0.716   2.032  0.1922  1.7508 -0.8421
  584MOL0     O76964   0.415   0.839   1.964 -0.1974 -0.4326  0.1717
  584MOL0     C76965   0.294   0.861   1.888  0.0105  0.2745 -0.0088
  584MOL0     C76966   0.313   0.981   1.793  0.0833  0.6527 -1.1514
  584MOL0     C76967   0.442   0.975   1.704  0.1307  0.2545  0.2611
  584MOL0     C76968   0.397   1.023   1.564 -0.3464 -0.3142  0.4076
  584MOL0     C76969   0.515   1.066   1.479 -0.9802 -0.1244 -0.5714
  584MOL0     C76970   0.526   1.006   1.322  0.1045  0.3526  0.4875
  584MOL0     C76971   0.412   1.047   1.221  0.7102 -0.6081 -0.5274
  584MOL0     C76972   0.438   0.976   1.087 -0.2347  0.1049  0.1263
  584MOL0     N76973   0.548   1.031   1.009  0.4526 -0.3930 -1.0845
  584MOL0     C76974   0.540   1.070   0.877 -0.3806  0.3517 -0.4382
  584MOL0     C76975   0.666   1.112   0.850 -0.0804  0.9935  0.1531
  584MOL0     C76976   0.698   1.166   0.718 -0.6348 -0.2089  0.3803
  584MOL0     C76977   0.617   1.284   0.685 -0.2628 -0.5052 -0.5686
  584MOL0     C76978   0.704   1.409   0.667 -0.4852 -0.3664  0.0821
  584MOL0     C76979   0.782   1.473   0.788 -0.1423  0.1888  0.0841
  584MOL0     O76980   0.688   1.501   0.898 -0.3284  0.2442  0.7355
  584MOL0     C76981   0.737   1.467   1.030 -0.3269  0.2607  0.5362
  584MOL0     C76982   0.865   1.494   1.077 -0.4566  0.3715  0.0770
  584MOL0     C76983   0.900   1.438   1.200  0.3091 -0.2583 -0.7524
  584MOL0     C76984   0.811   1.370   1.283  0.4547 -0.1441  0.2122
  584MOL0     C76985   0.841   1.331   1.424 -0.6012 -1.0166 -0.7329
  584MOL0     O76986   0.812   1.211   1.473  0.3852  0.0375  0.6846
  584MOL0     C76987   0.843   1.192   1.601 -0.1478 -0.0957 -0.7110
  584MOL0     C76988   0.750   1.225   1.701 -0.0435  0.5774  0.8222
  584MOL0     C76989   0.791   1.229   1.834 -0.3776 -0.3334  0.0464
  584MOL0     C76990   0.914   1.181   1.875 -0.1928 -0.7300 -0.4852
  584MOL0     O76991   0.935   1.176   2.011 -0.1630  0.3989 -0.1512
  584MOL0     C76992   1.063   1.133   2.061 -0.2462  0.6199 -0.0294
  584MOL0     C76993   1.055   1.073   2.204  0.0525  0.2952  0.3000
  584MOL0     C76994   1.045   1.161   2.325  0.4079 -0.0277 -0.3235
  584MOL0     C76995   0.951   1.279   2.325 -0.5183 -0.9491 -0.0615
  584MOL0     C76996   0.796   1.253   2.328 -1.0248  0.1348  0.2696
  584MOL0     C76997   0.735   1.395   2.310 -0.6670 -0.3900  0.9230
  584MOL0     C76998   0.583   1.385   2.293 -0.1079 -1.0054 -1.0883
  584MOL0     C76999   0.508   1.389   2.426  0.5985  0.0675  0.5786
  584MOL0    Cl77000   0.337   1.353   2.401 -0.2033  0.4185 -0.5454
  584MOL0     C77001   1.002   1.144   1.775  0.7442  0.8398  0.0727
  584MOL0     C77002   0.974   1.151   1.642  0.8280 -1.0339  0.1932
  584MOL0     O77003   0.914   1.412   1.485 -0.2219  0.5265 -0.0254
  584MOL0     C77004   0.684   1.347   1.235  0.0878  0.0885  1.3907
  584MOL0     C77005   0.648   1.396   1.109  0.4543  1.2008 -0.4316
  584MOL0     N77006   0.750   1.090   0.963 -0.2072  0.4345  1.1578
  584MOL0     N77007   0.673   1.044   1.060  0.0520 -0.3234 -0.7028
  584MOL0     C77008   0.307   0.638   2.057  1.3789 -0.7387 -0.2026
  584MOL0     C77009   0.324   0.511   2.112  1.0964 -0.6896 -0.5169
  584MOL0     C77010   0.497   0.130   2.310 -0.4526  0.3178 -0.3069
  584MOL0     C77011   0.570   0.045   2.399  0.4461  0.1173  0.0666
  584MOL0     C77012   0.549  -0.091   2.412  0.0928  0.2842  0.6375
  584MOL0     C77013   0.425  -0.139   2.372 -0.3641 -0.7588  0.5770
  584MOL0     O77014   0.371  -0.264   2.389 -0.8275  0.8624  0.3136
  584MOL0     C77015   0.452  -0.361   2.460  0.7032 -1.1199 -0.0993
  584MOL0     C77016   0.551  -0.432   2.370  0.3748 -0.9948  0.6633
  584MOL0     C77017   0.585  -0.576   2.418 -0.3670 -0.5385 -0.7378
  584MOL0     C77018   0.698  -0.641   2.341 -0.1622 -0.0936  0.2251
  584MOL0     C77019   0.798  -0.715   2.425  0.3850  0.5657  0.4481
  584MOL0     C77020   0.868  -0.775   2.501  0.8483 -1.0945 -0.0358
  584MOL0     C77021   0.346  -0.059   2.294  0.0727  0.1705  0.3931
  584MOL0     C77022   0.381   0.074   2.260 -0.0059 -0.4388  0.5090
  584MOL0     H77023   0.659   0.503   2.168 -0.2793 -1.5436 -0.3845
  584MOL0     H77024   0.633   0.729   2.065  0.1405  0.8903  1.2766
  584MOL0     H77025   0.196   0.862   1.936  0.8161  2.0621  1.7541
  584MOL0     H77026   0.290   0.775   1.821 -0.3097  0.9723 -0.8991
  584MOL0     H77027   0.324   1.063   1.863 -0.8161  0.6180 -0.9593
  584MOL0     H77028   0.222   1.003   1.737 -0.2929  1.7478 -0.1380
  584MOL0     H77029   0.462   0.870   1.683 -2.7643 -0.1989 -0.6238
  584MOL0     H77030   0.527   1.027   1.750 -0.6419 -1.4413  3.9668
  584MOL0     H77031   0.345   0.941   1.514 -0.2106  0.7116 -1.5030
  584MOL0     H77032   0.335   1.111   1.586  4.4684  3.1009  1.9975
  584MOL0     H77033   0.600   1.028   1.536 -0.1325  0.0444 -1.7016
  584MOL0     H77034   0.520   1.175   1.471 -0.7002 -0.2771 -4.1388
  584MOL0     H77035   0.510   0.899   1.335 -1.7011  0.1468 -2.4178
  584MOL0     H77036   0.622   1.033   1.277 -0.2571  0.0262 -0.5187
  584MOL0     H77037   0.315   1.014   1.261  2.2700 -3.7566  1.0328
  584MOL0     H77038   0.404   1.156   1.219 -2.8955 -0.6410  2.2999
  584MOL0     H77039   0.344   0.963   1.034  0.0975  1.0019 -0.7010
  584MOL0     H77040   0.475   0.877   1.117  2.5973 -0.0004 -3.1300
  584MOL0     H77041   0.458   1.067   0.806 -1.8855 -1.3937  1.2394
  584MOL0     H77042   0.682   1.088   0.643  1.3274  2.0868 -2.6706
  584MOL0     H77043   0.804   1.192   0.731 -0.4561 -0.7684  0.0932
  584MOL0     H77044   0.536   1.305   0.755 -3.2065 -1.5834 -3.3983
  584MOL0     H77045   0.562   1.252   0.596 -1.5303 -0.9388  0.3368
  584MOL0     H77046   0.780   1.396   0.589  1.2053  0.4738  1.5157
  584MOL0     H77047   0.629   1.480   0.630 -1.0975 -1.4166 -0.7568
  584MOL0     H77048   0.831   1.569   0.767  1.0501 -0.7326 -1.5515
  584MOL0     H77049   0.859   1.398   0.809  3.0673  2.2009 -3.2322
  584MOL0     H77050   0.933   1.525   0.998 -3.4050 -2.3723 -3.9618
  584MOL0     H77051   0.998   1.459   1.242 -0.1597 -1.0736  0.8387
  584MOL0     H77052   0.648   1.248   1.672  0.8838  3.6513 -0.4223
  584MOL0     H77053   0.730   1.276   1.911  0.7381 -0.0441  0.7785
  584MOL0     H77054   1.132   1.218   2.066  3.3242 -2.0732  1.4271
  584MOL0     H77055   1.116   1.064   1.995 -1.1683  1.4964 -1.7495
  584MOL0     H77056   1.146   1.014   2.218  0.0438  0.5937  1.6560
  584MOL0     H77057   0.972   1.002   2.200 -0.8330  1.3060 -3.2826
  584MOL0     H77058   1.146   1.203   2.337 -0.7825  3.1664 -0.5465
  584MOL0     H77059   1.022   1.098   2.411  0.2958 -1.0884 -1.1113
  584MOL0     H77060   0.970   1.339   2.415 -1.5502  1.2420 -1.2384
  584MOL0     H77061   0.976   1.332   2.233 -2.1183  0.2373  0.1446
  584MOL0     H77062   0.765   1.214   2.425  2.0179  1.1643  1.7867
  584MOL0     H77063   0.762   1.192   2.243  0.3578  5.2041 -4.5212
  584MOL0     H77064   0.785   1.450   2.230  0.2960  0.5025  2.1018
  584MOL0     H77065   0.765   1.447   2.401 -0.1909  0.4143  0.3247
  584MOL0     H77066   0.549   1.470   2.234 -2.3457 -0.0367  1.4187
  584MOL0     H77067   0.559   1.300   2.227  0.7286  0.3102 -3.1665
  584MOL0     H77068   0.501   1.492   2.459 -0.8221  1.1198 -2.6119
  584MOL0     H77069   0.554   1.317   2.495  1.2125 -1.2684 -1.1440
  584MOL0     H77070   1.105   1.117   1.800  0.4465  0.9465  1.5438
  584MOL0     H77071   1.038   1.126   1.557  2.0811  0.0411  0.7929
  584MOL0     H77072   0.619   1.291   1.301 -0.0061 -1.8315 -0.2434
  584MOL0     H77073   0.549   1.375   1.070 -0.3116 -0.1058  2.0042
  584MOL0     H77074   0.210   0.671   2.022  1.4093  0.5210  0.8167
  584MOL0     H77075   0.236   0.451   2.130 -1.7739  3.5463  1.4128
  584MOL0     H77076   0.648   0.100   2.451  0.1210  0.7968 -0.1453
  584MOL0     H77077   0.605  -0.148   2.485 -2.5107 -2.9068  0.3979
  584MOL0     H77078   0.384  -0.428   2.513  0.5512 -1.3507 -0.5896
  584MOL0     H77079   0.513  -0.313   2.537 -0.9349 -0.1947  0.6936
  584MOL0     H77080   0.510  -0.418   2.269 -1.7429 -0.5228  1.5518
  584MOL0     H77081   0.643  -0.374   2.377 -0.9083  0.9411  2.9307
  584MOL0     H77082   0.495  -0.637   2.407 -0.0641 -0.7184 -2.5521
  584MOL0     H77083   0.608  -0.562   2.524 -1.6350  1.3791 -0.6654
  584MOL0     H77084   0.642  -0.711   2.279 -1.0039 -0.2049  1.0823
  584MOL0     H77085   0.749  -0.566   2.280 -2.6557  0.8959 -0.7310
  584MOL0     H77086   0.919  -0.812   2.588  0.3591  3.3115  2.4055
  584MOL0     H77087   0.255  -0.099   2.251  0.6995 -0.9142  0.0464
  584MOL0     H77088   0.309   0.129   2.201  3.3197  0.3348 -3.2200
  585MOL0     O77089   6.582  10.670   3.743  0.2499 -0.4878 -0.5233
  585MOL0     C77090   6.549  10.689   3.633 -0.2829  0.6308  0.8111
  585MOL0     O77091   6.419  10.701   3.594  1.4097  0.1648 -1.1508
  585MOL0     C77092   6.319  10.755   3.683 -0.8096  0.4425 -0.1079
  585MOL0     C77093   6.350  10.875   3.747 -0.8038  0.2001  0.5690
  585MOL0     C77094   6.250  10.944   3.809 -0.1509 -0.0785  0.3545
  585MOL0     C77095   6.124  10.887   3.822  0.9935  0.7642  0.7568
  585MOL0     O77096   6.035  10.968   3.883 -0.1587  0.5734  0.4439
  585MOL0     C77097   5.900  10.921   3.887 -0.0193  0.2670 -1.1472
  585MOL0     C77098   5.807  11.016   3.962 -1.0703 -0.9815  0.6741
  585MOL0     C77099   5.848  11.043   4.105  0.4077  1.2480  0.5716
  585MOL0     C77100   5.878  10.918   4.190  0.7740 -1.6507  0.0983
  585MOL0     C77101   5.969  10.921   4.312  0.2237 -0.3884 -0.5428
  585MOL0     C77102   6.106  10.924   4.274 -0.3086  0.8950  0.7912
  585MOL0     C77103   6.190  10.876   4.395 -0.4770 -0.5859 -0.1465
  585MOL0     C77104   6.337  10.893   4.352  0.4715 -0.5096  0.6218
  585MOL0     N77105   6.418  10.929   4.452  0.3547  0.4080  1.6235
  585MOL0     C77106   6.453  11.056   4.495  0.3659 -1.0553  0.0116
  585MOL0     C77107   6.531  11.040   4.603 -0.1972  0.7333 -0.3896
  585MOL0     C77108   6.592  11.156   4.671  0.3067 -0.1160 -0.1923
  585MOL0     C77109   6.732  11.181   4.607  0.4762 -1.5740  0.9115
  585MOL0     C77110   6.851  11.083   4.648 -0.2275 -0.1394  0.7422
  585MOL0     C77111   6.985  11.142   4.613  0.1414  0.2333  0.2735
  585MOL0     O77112   7.001  11.286   4.636 -0.0459 -0.8022  0.3065
  585MOL0     C77113   7.010  11.324   4.761  0.2110  0.6295 -0.7226
  585MOL0     C77114   7.096  11.265   4.854  1.1127 -0.7380  0.4477
  585MOL0     C77115   7.129  11.333   4.971 -0.3853 -0.6331 -0.4218
  585MOL0     C77116   7.076  11.455   5.010 -0.0912  0.7137 -0.5566
  585MOL0     C77117   7.113  11.518   5.139  0.4945 -1.1869 -0.5656
  585MOL0     O77118   7.009  11.574   5.214 -0.0248  0.6992  0.4337
  585MOL0     C77119   7.051  11.652   5.318 -1.0819 -0.0963  1.3093
  585MOL0     C77120   7.113  11.606   5.434 -0.5165  0.1978  0.2506
  585MOL0     C77121   7.165  11.698   5.531  0.3575 -0.5127 -0.2764
  585MOL0     C77122   7.168  11.836   5.494  0.8276  0.6787  0.5140
  585MOL0     O77123   7.209  11.942   5.569 -0.1164 -0.0159 -0.2015
  585MOL0     C77124   7.261  11.929   5.703 -0.1294  0.1405 -0.2262
  585MOL0     C77125   7.402  11.912   5.670 -1.4409 -0.1965  0.2900
  585MOL0     C77126   7.444  11.774   5.656 -0.3745 -0.8236  0.1183
  585MOL0     C77127   7.589  11.771   5.646  1.2606 -0.8264 -0.8169
  585MOL0     C77128   7.627  11.625   5.622  0.4107 -0.3203  0.7321
  585MOL0     C77129   7.730  11.602   5.524  0.0342 -0.8035  0.1553
  585MOL0     C77130   7.863  11.658   5.580 -0.1045  0.3992 -0.5314
  585MOL0     C77131   7.972  11.626   5.479  0.1118  0.0290 -1.0637
  585MOL0    Cl77132   7.927  11.706   5.324  0.1044 -0.0622  0.2411
  585MOL0     C77133   7.109  11.878   5.378  0.3458 -0.2104  0.3210
  585MOL0     C77134   7.049  11.794   5.294  0.4056  0.4299 -0.0352
  585MOL0     O77135   7.233  11.506   5.173 -0.0758  0.5179  0.4274
  585MOL0     C77136   6.972  11.509   4.920 -0.8082  0.0959  0.7037
  585MOL0     C77137   6.948  11.449   4.800  0.6393  0.2380  0.6080
  585MOL0     N77138   6.536  10.902   4.632 -0.0773  0.1364 -0.0355
  585MOL0     N77139   6.471  10.834   4.535  0.8859  0.0181 -0.3298
  585MOL0     C77140   6.096  10.762   3.762  0.1915 -0.9789  0.7397
  585MOL0     C77141   6.190  10.688   3.686 -0.3091 -0.1299 -0.0206
  585MOL0     C77142   6.661  10.682   3.535  0.8198 -0.7134 -0.2400
  585MOL0     C77143   6.631  10.727   3.403  0.0605  0.5329  0.1357
  585MOL0     C77144   6.735  10.732   3.307 -0.0925  0.5864 -0.5583
  585MOL0     C77145   6.868  10.697   3.336 -1.3141  0.3437 -0.5326
  585MOL0     O77146   6.965  10.706   3.238  0.5088  0.1303 -0.2668
  585MOL0     C77147   7.062  10.601   3.228 -0.2467  0.2971 -0.0109
  585MOL0     C77148   7.200  10.648   3.168  0.6088  0.4782 -0.0553
  585MOL0     C77149   7.304  10.538   3.192 -0.3205 -0.1928 -0.9601
  585MOL0     C77150   7.449  10.573   3.172  0.1254 -0.2216  0.0962
  585MOL0     C77151   7.469  10.620   3.031 -0.2027 -0.2827  0.4061
  585MOL0     C77152   7.509  10.654   2.917 -0.4172  0.0740 -0.0127
  585MOL0     C77153   6.896  10.661   3.472 -0.2181  0.4712 -1.1888
  585MOL0     C77154   6.795  10.660   3.575 -0.6230 -0.0515 -0.1164
  585MOL0     H77155   6.453  10.911   3.745  0.2026 -1.9557  4.3234
  585MOL0     H77156   6.266  11.050   3.826  0.2830 -0.1512  0.4190
  585MOL0     H77157   5.891  10.819   3.924  1.0952  0.8220  0.8069
  585MOL0     H77158   5.864  10.923   3.784 -0.9477  0.6140 -0.8309
  585MOL0     H77159   5.705  10.975   3.963 -0.0590 -3.7734  0.2003
  585MOL0     H77160   5.794  11.110   3.909  0.7652 -1.6084 -1.0266
  585MOL0     H77161   5.766  11.103   4.144 -0.3475  1.7233 -1.5877
  585MOL0     H77162   5.941  11.102   4.108 -0.5336  2.7304  2.6099
  585MOL0     H77163   5.780  10.885   4.227 -0.6491  1.1068 -0.9770
  585MOL0     H77164   5.906  10.837   4.122  3.2285 -0.0404 -0.9094
  585MOL0     H77165   5.955  10.836   4.380 -1.1682  0.4878  0.3191
  585MOL0     H77166   5.950  11.020   4.353  0.0696 -0.4199 -0.5395
  585MOL0     H77167   6.140  11.022   4.240  0.9025  0.4601  0.7111
  585MOL0     H77168   6.114  10.856   4.189 -2.4367  0.4938  0.8532
  585MOL0     H77169   6.173  10.948   4.475 -5.0217  0.1480 -1.5082
  585MOL0     H77170   6.156  10.775   4.418 -2.7574 -0.0184 -0.8207
  585MOL0     H77171   6.351  10.951   4.261 -0.9738 -3.8586 -1.9500
  585MOL0     H77172   6.375  10.795   4.322  3.8922  1.1479 -1.1188
  585MOL0     H77173   6.430  11.154   4.454  0.1945 -1.1315 -0.0746
  585MOL0     H77174   6.615  11.143   4.778 -0.0470  3.9318  0.5306
  585MOL0     H77175   6.524  11.241   4.663 -0.3112 -0.7979 -4.4015
  585MOL0     H77176   6.762  11.282   4.633  2.0446 -1.4577 -1.1083
  585MOL0     H77177   6.721  11.173   4.499 -2.0478 -1.0971  1.0789
  585MOL0     H77178   6.839  11.079   4.757  2.0979 -0.6141  1.0295
  585MOL0     H77179   6.840  10.987   4.596  3.4796  1.4248 -3.5728
  585MOL0     H77180   6.978  11.126   4.505  2.3927  0.2470  0.0728
  585MOL0     H77181   7.061  11.080   4.661 -1.4353 -0.7853  1.5276
  585MOL0     H77182   7.150  11.175   4.829  1.5724 -0.4135  0.2536
  585MOL0     H77183   7.207  11.277   5.022 -1.1778  0.2807  1.9646
  585MOL0     H77184   7.119  11.500   5.453  1.1725 -0.0170 -1.1863
  585MOL0     H77185   7.206  11.663   5.626  1.4962 -0.2580 -0.6514
  585MOL0     H77186   7.232  11.840   5.760 -0.0444 -0.0182 -0.4301
  585MOL0     H77187   7.251  12.018   5.766  3.5229  2.4102 -2.4600
  585MOL0     H77188   7.456  11.952   5.757 -1.0085 -3.5668  1.7462
  585MOL0     H77189   7.424  11.974   5.583 -0.7997  2.3902  2.1461
  585MOL0     H77190   7.403  11.725   5.567 -1.2931 -2.5245  1.4226
  585MOL0     H77191   7.410  11.719   5.744 -1.0050 -2.5087 -1.1301
  585MOL0     H77192   7.635  11.837   5.573 -0.1558  0.0895 -0.9334
  585MOL0     H77193   7.635  11.787   5.744  3.8644 -1.4085 -1.8621
  585MOL0     H77194   7.534  11.579   5.587 -1.0562  1.6920  1.7908
  585MOL0     H77195   7.666  11.583   5.715 -0.6223  4.4594  3.6726
  585MOL0     H77196   7.699  11.653   5.432 -0.1521  1.0806  1.2283
  585MOL0     H77197   7.735  11.495   5.503 -3.1434 -0.8032 -1.2166
  585MOL0     H77198   7.860  11.763   5.610  3.3229 -0.3369  3.2111
  585MOL0     H77199   7.884  11.609   5.675  1.9538 -1.5420 -1.8713
  585MOL0     H77200   7.977  11.519   5.458  0.5965 -0.1646 -0.0100
  585MOL0     H77201   8.069  11.654   5.522  0.0857 -0.9744 -0.3087
  585MOL0     H77202   7.131  11.979   5.346  0.6847  0.0129  1.2354
  585MOL0     H77203   7.008  11.840   5.205 -1.2619 -0.7722  0.0556
  585MOL0     H77204   6.914  11.600   4.936  0.6891  1.0973  0.6299
  585MOL0     H77205   6.892  11.479   4.713  0.4839 -1.0176  0.2454
  585MOL0     H77206   5.993  10.728   3.757 -0.7833  1.8928 -1.1713
  585MOL0     H77207   6.156  10.599   3.633  3.2881 -0.5904 -1.8154
  585MOL0     H77208   6.532  10.759   3.373 -0.0363  1.2960  1.2493
  585MOL0     H77209   6.713  10.765   3.206 -0.3658  1.4624 -0.2191
  585MOL0     H77210   7.022  10.511   3.180 -0.7865 -0.1757  1.2958
  585MOL0     H77211   7.079  10.582   3.334  0.2265 -0.9104 -0.2837
  585MOL0     H77212   7.192  10.672   3.062  2.3166 -1.3701 -0.6740
  585MOL0     H77213   7.230  10.742   3.214 -1.1330  2.2708 -2.3413
  585MOL0     H77214   7.273  10.454   3.129  0.4543 -0.4546 -0.9999
  585MOL0     H77215   7.283  10.509   3.295  2.2171 -2.7780 -1.0663
  585MOL0     H77216   7.477  10.659   3.234  1.8037  0.9124 -2.1062
  585MOL0     H77217   7.502  10.479   3.186 -1.6074 -1.8647 -3.1706
  585MOL0     H77218   7.540  10.685   2.819  1.6419  1.3747  0.9758
  585MOL0     H77219   7.002  10.645   3.490  0.0924  2.4976 -1.0381
  585MOL0     H77220   6.831  10.650   3.676  0.6884  1.0433 -0.4501
  586MOL0     O77221   9.543   5.337   0.115 -0.0230 -0.3155  0.4443
  586MOL0     C77222   9.556   5.244   0.189 -1.1149 -0.3877 -0.1973
  586MOL0     O77223   9.652   5.153   0.175  0.4231  0.3963  0.5486
  586MOL0     C77224   9.753   5.167   0.084  0.0447  0.4933  0.3100
  586MOL0     C77225   9.730   5.136  -0.056  0.3991 -0.6025 -0.6967
  586MOL0     C77226   9.827   5.143  -0.159 -0.6404  0.5154 -0.1254
  586MOL0     C77227   9.962   5.137  -0.115 -0.7314  0.0155  1.3039
  586MOL0     O77228  10.042   5.115  -0.225 -1.1708  0.5452  0.1846
  586MOL0     C77229  10.172   5.052  -0.222  0.4035  0.6435  0.6406
  586MOL0     C77230  10.210   5.003  -0.356 -0.6002 -0.9057 -1.6191
  586MOL0     C77231  10.162   4.857  -0.383 -0.0471 -0.4215  0.3040
  586MOL0     C77232  10.161   4.812  -0.538  0.3003 -0.1062  0.7446
  586MOL0     C77233  10.065   4.693  -0.553 -0.4633 -0.7928  0.0504
  586MOL0     C77234  10.084   4.650  -0.700 -0.9851  0.3175 -0.1777
  586MOL0     C77235   9.988   4.543  -0.747  0.2265 -1.0020 -0.5594
  586MOL0     C77236   9.840   4.590  -0.761  0.4660  1.5504 -0.2872
  586MOL0     N77237   9.747   4.475  -0.741  0.1238 -0.1440  0.1855
  586MOL0     C77238   9.715   4.369  -0.819 -0.7375  0.0549 -0.5155
  586MOL0     C77239   9.627   4.297  -0.751  0.2134  0.5690  0.2758
  586MOL0     C77240   9.578   4.158  -0.780  0.4452 -0.5255 -0.1039
  586MOL0     C77241   9.420   4.161  -0.799  0.7020  0.2329 -0.0127
  586MOL0     C77242   9.375   4.251  -0.911  0.6847  0.2391 -0.5765
  586MOL0     C77243   9.437   4.242  -1.052 -0.0234  0.3023  0.5093
  586MOL0     O77244   9.444   4.102  -1.082 -0.1970  0.8131  0.0752
  586MOL0     C77245   9.346   4.050  -1.166  0.8053 -0.3571 -0.2976
  586MOL0     C77246   9.301   3.920  -1.138  0.9460  0.0301 -0.2023
  586MOL0     C77247   9.193   3.861  -1.220 -0.2121 -0.0946  0.2047
  586MOL0     C77248   9.157   3.927  -1.343 -0.0187  0.5230 -0.4717
  586MOL0     C77249   9.056   3.885  -1.428 -0.2679 -0.7982  0.5202
  586MOL0     O77250   8.954   3.804  -1.375  0.5591  0.0300 -1.0145
  586MOL0     C77251   8.868   3.748  -1.469  0.0051  0.2063  0.8783
  586MOL0     C77252   8.760   3.808  -1.530  0.5675  0.4061 -0.4231
  586MOL0     C77253   8.683   3.737  -1.630  0.9372  0.7184  0.2215
  586MOL0     C77254   8.701   3.602  -1.649  0.5975  0.5662  0.0020
  586MOL0     O77255   8.612   3.536  -1.733 -0.5889  0.4684 -0.2034
  586MOL0     C77256   8.634   3.402  -1.774 -0.2159  0.6610  0.0047
  586MOL0     C77257   8.525   3.350  -1.875  0.9758 -0.2644  0.1055
  586MOL0     C77258   8.500   3.453  -1.989 -0.1403 -0.2652 -0.0303
  586MOL0     C77259   8.394   3.383  -2.083 -0.3615 -0.3405  1.0963
  586MOL0     C77260   8.414   3.441  -2.222 -0.8347 -0.4266 -0.2375
  586MOL0     C77261   8.546   3.412  -2.288  0.9784 -0.0658  0.1577
  586MOL0     C77262   8.564   3.475  -2.432  0.4262  0.0707  0.2535
  586MOL0     C77263   8.629   3.400  -2.534 -0.4535 -1.4617  0.2466
  586MOL0    Cl77264   8.811   3.458  -2.552  0.1317 -0.5432 -0.3492
  586MOL0     C77265   8.811   3.545  -1.584 -0.0063 -0.4153  0.1223
  586MOL0     C77266   8.891   3.613  -1.493  0.6290 -0.1489 -0.6980
  586MOL0     O77267   9.069   3.907  -1.549  0.6584 -0.1283  0.0714
  586MOL0     C77268   9.209   4.051  -1.367 -0.2524 -0.0725 -0.2155
  586MOL0     C77269   9.300   4.117  -1.278 -0.0177  0.8430  0.5277
  586MOL0     N77270   9.575   4.369  -0.646 -0.4281  0.2383  0.3688
  586MOL0     N77271   9.654   4.472  -0.643  0.0977  1.0377 -0.2355
  586MOL0     C77272   9.993   5.156   0.024 -0.9077 -0.6248  0.3579
  586MOL0     C77273   9.890   5.189   0.114  0.7668  1.2396 -0.6983
  586MOL0     C77274   9.480   5.229   0.315  0.0567 -0.1033  0.0138
  586MOL0     C77275   9.377   5.322   0.341  0.1121  0.2696 -0.4538
  586MOL0     C77276   9.314   5.314   0.467  0.6130  0.0902 -0.3291
  586MOL0     C77277   9.331   5.213   0.557 -0.2491 -0.0144 -0.2811
  586MOL0     O77278   9.252   5.208   0.668 -0.6990  0.3336  0.3325
  586MOL0     C77279   9.264   5.095   0.759  1.8554  0.0866  0.9810
  586MOL0     C77280   9.157   5.093   0.868  0.7924  0.4279 -0.1497
  586MOL0     C77281   9.150   4.945   0.926  0.2819  1.1351  0.7155
  586MOL0     C77282   9.085   4.954   1.068 -0.7197  1.2718 -0.0971
  586MOL0     C77283   9.118   4.830   1.135  0.2566  1.2136 -1.2888
  586MOL0     C77284   9.159   4.741   1.216 -0.4465 -0.2797 -0.0757
  586MOL0     C77285   9.428   5.115   0.523  1.8238  0.0513 -0.9026
  586MOL0     C77286   9.500   5.120   0.402  0.5428 -0.4885 -0.5608
  586MOL0     H77287   9.623   5.127  -0.071 -0.7007  1.2502  4.1945
  586MOL0     H77288   9.796   5.138  -0.263  1.8682 -1.4853 -0.8910
  586MOL0     H77289  10.184   4.970  -0.150 -4.1912 -0.5009  0.3862
  586MOL0     H77290  10.250   5.122  -0.189 -0.9741  2.4702  0.1686
  586MOL0     H77291  10.319   4.997  -0.349 -0.6706 -0.4640  3.8095
  586MOL0     H77292  10.173   5.078  -0.427 -1.8667  1.2353  1.1065
  586MOL0     H77293  10.061   4.850  -0.341 -0.6632  2.6450 -0.4235
  586MOL0     H77294  10.223   4.800  -0.313  1.4189 -0.7329 -1.1926
  586MOL0     H77295  10.131   4.889  -0.610  1.1406 -0.6784 -0.2465
  586MOL0     H77296  10.266   4.786  -0.553  0.3168  0.5455 -0.3960
  586MOL0     H77297   9.962   4.718  -0.529 -0.4689  0.0308 -0.7664
  586MOL0     H77298  10.088   4.610  -0.485  0.0071  0.1154  1.0399
  586MOL0     H77299  10.187   4.616  -0.714 -1.6016 -0.6003 -3.1470
  586MOL0     H77300  10.066   4.732  -0.770 -1.1429  0.4964  0.0666
  586MOL0     H77301  10.015   4.507  -0.847 -0.7581 -1.3049 -0.7311
  586MOL0     H77302   9.993   4.456  -0.681 -0.2422  1.0992  2.4287
  586MOL0     H77303   9.818   4.645  -0.854 -0.6485 -1.0443 -1.6697
  586MOL0     H77304   9.829   4.667  -0.684  2.1629  2.7114 -1.1291
  586MOL0     H77305   9.763   4.341  -0.913 -1.2173  0.7786 -0.9905
  586MOL0     H77306   9.611   4.099  -0.694  4.4377  1.8786  0.2679
  586MOL0     H77307   9.617   4.125  -0.877  0.5102  1.8112 -0.9346
  586MOL0     H77308   9.363   4.180  -0.708 -0.3119 -0.3645 -0.4932
  586MOL0     H77309   9.391   4.063  -0.839  3.1944  0.3621 -2.4580
  586MOL0     H77310   9.274   4.215  -0.933  0.6879  0.0099 -0.2229
  586MOL0     H77311   9.365   4.354  -0.873 -2.0488 -0.5732  1.2625
  586MOL0     H77312   9.541   4.274  -1.064 -0.4529  2.2497  1.5392
  586MOL0     H77313   9.382   4.306  -1.121 -0.2729  0.1957  0.6050
  586MOL0     H77314   9.336   3.857  -1.057 -0.0582 -2.0349 -1.2904
  586MOL0     H77315   9.142   3.771  -1.188 -1.6523  0.4513 -0.4855
  586MOL0     H77316   8.732   3.911  -1.513  0.4592  0.2614  0.3003
  586MOL0     H77317   8.596   3.784  -1.674  1.2828  0.7548 -0.4378
  586MOL0     H77318   8.620   3.330  -1.693 -2.8331 -2.2743 -2.7633
  586MOL0     H77319   8.724   3.381  -1.832  1.6700  2.1243  2.2137
  586MOL0     H77320   8.429   3.343  -1.823 -1.0799 -1.7125 -3.4456
  586MOL0     H77321   8.552   3.258  -1.927  1.7118  0.8961 -1.6790
  586MOL0     H77322   8.591   3.479  -2.043 -0.6993 -3.5383 -2.9264
  586MOL0     H77323   8.442   3.538  -1.953 -0.5341 -1.5821  2.7929
  586MOL0     H77324   8.408   3.274  -2.092  0.6210 -0.1242 -0.4893
  586MOL0     H77325   8.295   3.386  -2.037 -1.0606 -1.9623 -0.1881
  586MOL0     H77326   8.415   3.549  -2.205 -0.3524 -0.2025 -1.5736
  586MOL0     H77327   8.328   3.402  -2.277 -2.7008  0.0862  2.1432
  586MOL0     H77328   8.546   3.306  -2.313  0.6783  0.7285 -3.8617
  586MOL0     H77329   8.633   3.457  -2.238  0.6893  0.5913  0.0757
  586MOL0     H77330   8.461   3.501  -2.460 -0.8715 -1.4653  3.1020
  586MOL0     H77331   8.612   3.572  -2.422  0.4578 -0.1510  3.4327
  586MOL0     H77332   8.574   3.409  -2.628 -0.0890  3.7820  0.2228
  586MOL0     H77333   8.629   3.295  -2.504  0.3710 -1.2086  1.1726
  586MOL0     H77334   8.836   3.445  -1.618  0.8668  0.3547 -1.6794
  586MOL0     H77335   8.952   3.554  -1.426 -3.7749 -0.8429  3.2675
  586MOL0     H77336   9.151   4.110  -1.438  0.0781  1.4695  0.7552
  586MOL0     H77337   9.344   4.213  -1.303 -1.8832  1.6574  0.2038
  586MOL0     H77338  10.098   5.146   0.049 -0.7557 -1.4429 -0.5337
  586MOL0     H77339   9.912   5.186   0.220  2.0172 -0.2581 -0.9708
  586MOL0     H77340   9.363   5.406   0.273  1.4218  1.7600  1.0191
  586MOL0     H77341   9.242   5.392   0.491 -0.1287 -1.0077  1.2127
  586MOL0     H77342   9.355   5.097   0.819  0.9574  0.3305  2.3645
  586MOL0     H77343   9.262   5.007   0.694 -1.2791  0.9575 -0.2611
  586MOL0     H77344   9.177   5.173   0.940  1.8676  1.0480 -1.1014
  586MOL0     H77345   9.056   5.124   0.840  1.2492  1.0848 -1.1344
  586MOL0     H77346   9.250   4.902   0.936 -0.1593 -0.6066 -1.6123
  586MOL0     H77347   9.093   4.868   0.874 -0.2558 -1.3029  4.4896
  586MOL0     H77348   9.134   5.038   1.119 -0.2347  1.3657 -0.7066
  586MOL0     H77349   8.977   4.966   1.056 -0.8315  0.4067 -0.0504
  586MOL0     H77350   9.176   4.677   1.300 -1.0606 -2.5856 -1.6338
  586MOL0     H77351   9.457   5.039   0.595  2.0326 -1.7720 -2.8160
  586MOL0     H77352   9.576   5.046   0.380  1.5617  1.1364 -3.0172
  587MOL0     O77353   9.139   2.201   3.509  0.4143 -0.4457 -0.2539
  587MOL0     C77354   9.101   2.101   3.454 -0.5876  0.3633  0.1362
  587MOL0     O77355   9.086   2.086   3.324 -0.0004  0.2900 -0.1786
  587MOL0     C77356   9.144   2.179   3.234 -0.0493  0.4551  0.3639
  587MOL0     C77357   9.094   2.188   3.102 -0.1775 -0.6918 -0.0646
  587MOL0     C77358   9.130   2.274   3.012 -0.6817 -0.7371  0.2370
  587MOL0     C77359   9.244   2.350   3.034  0.7561  0.1255  0.2344
  587MOL0     O77360   9.287   2.431   2.929  0.4339  0.7624 -0.0901
  587MOL0     C77361   9.433   2.431   2.902 -1.4540 -0.5803 -0.3496
  587MOL0     C77362   9.492   2.294   2.875 -0.9143 -0.5257 -0.9435
  587MOL0     C77363   9.456   2.231   2.736  0.0866 -0.1547 -0.5126
  587MOL0     C77364   9.529   2.293   2.614 -0.7204 -0.9162  0.0928
  587MOL0     C77365   9.456   2.257   2.485 -0.7793 -0.8150 -0.2769
  587MOL0     C77366   9.456   2.109   2.457 -0.1842 -0.2324 -0.2497
  587MOL0     C77367   9.386   2.088   2.332  0.7542  0.3823 -0.2889
  587MOL0     C77368   9.404   1.953   2.275 -0.6910  1.0321  1.3921
  587MOL0     N77369   9.368   1.840   2.367 -0.3157 -0.3851 -0.2078
  587MOL0     C77370   9.245   1.830   2.427 -0.2669 -0.3637  0.4434
  587MOL0     C77371   9.242   1.704   2.473  0.3419  0.3258  0.0772
  587MOL0     C77372   9.124   1.646   2.551  0.3702 -1.1719  0.1748
  587MOL0     C77373   9.053   1.530   2.472  0.5213 -0.6604  0.0054
  587MOL0     C77374   8.970   1.458   2.582 -0.3294  0.4980 -0.3434
  587MOL0     C77375   8.871   1.540   2.654  0.1220 -0.8437  0.5855
  587MOL0     O77376   8.770   1.570   2.560  0.0523  0.3312  0.0281
  587MOL0     C77377   8.648   1.554   2.629 -0.7147  0.0847 -0.2973
  587MOL0     C77378   8.608   1.427   2.682 -0.0675  0.4808 -0.1399
  587MOL0     C77379   8.475   1.408   2.734 -0.2602  0.8768 -0.1088
  587MOL0     C77380   8.387   1.520   2.733  0.0370 -0.1676  0.6154
  587MOL0     C77381   8.252   1.516   2.789  1.1937  0.9894 -0.5407
  587MOL0     O77382   8.175   1.629   2.807 -0.2523  0.6894 -0.8228
  587MOL0     C77383   8.052   1.623   2.874 -0.4854 -0.3761  1.1251
  587MOL0     C77384   8.021   1.547   2.988 -0.2068 -0.1228  0.2354
  587MOL0     C77385   7.897   1.549   3.044 -0.4636 -0.3110 -0.0772
  587MOL0     C77386   7.801   1.631   2.979 -0.1816  0.8237  0.4527
  587MOL0     O77387   7.683   1.650   3.042 -0.5159  0.5440  0.6549
  587MOL0     C77388   7.591   1.544   3.012  0.1346  0.8471 -0.5872
  587MOL0     C77389   7.457   1.548   3.103 -1.4104 -0.5970 -0.5969
  587MOL0     C77390   7.481   1.527   3.257  0.6108 -0.1374  0.3723
  587MOL0     C77391   7.474   1.652   3.352 -0.3242  0.1582  0.2050
  587MOL0     C77392   7.339   1.666   3.418  0.2966  0.4364 -0.1831
  587MOL0     C77393   7.321   1.808   3.465 -0.0710  0.6742 -0.1629
  587MOL0     C77394   7.271   1.903   3.357  0.4478 -0.3383  0.2796
  587MOL0     C77395   7.286   2.052   3.398  0.2896  0.4934 -0.5320
  587MOL0    Cl77396   7.451   2.094   3.458  0.1531 -0.2123  0.1310
  587MOL0     C77397   7.828   1.691   2.856 -0.0893 -0.6185  0.1833
  587MOL0     C77398   7.951   1.696   2.806  0.6160 -0.0735  0.4223
  587MOL0     O77399   8.216   1.399   2.805 -0.6587 -0.3784 -0.2332
  587MOL0     C77400   8.440   1.648   2.700 -0.0034 -0.0416  0.1629
  587MOL0     C77401   8.574   1.663   2.656  0.1173  0.2469  1.2088
  587MOL0     N77402   9.355   1.639   2.431 -0.2344 -0.3255 -0.2979
  587MOL0     N77403   9.426   1.715   2.360 -0.6220 -0.4465 -0.1963
  587MOL0     C77404   9.318   2.337   3.152  0.7003  1.2857 -0.1504
  587MOL0     C77405   9.264   2.253   3.257  0.8849  0.7023 -0.3824
  587MOL0     C77406   9.084   1.973   3.530  0.6771 -0.1165 -0.1127
  587MOL0     C77407   9.029   1.971   3.662 -0.4960  0.2539  0.5293
  587MOL0     C77408   9.032   1.853   3.732 -0.8693 -0.8111  0.2461
  587MOL0     C77409   9.075   1.733   3.691  0.0121 -0.1898  0.0705
  587MOL0     O77410   9.043   1.622   3.769 -0.2991  0.0512 -0.2020
  587MOL0     C77411   9.142   1.524   3.783 -0.2746  0.3816 -0.4294
  587MOL0     C77412   9.274   1.583   3.828 -0.8138 -1.2076 -0.3257
  587MOL0     C77413   9.264   1.639   3.981 -0.2727  0.4159  0.3052
  587MOL0     C77414   9.200   1.540   4.075  0.6603  0.5673  0.7759
  587MOL0     C77415   9.211   1.575   4.217 -0.2407  1.6257 -1.0365
  587MOL0     C77416   9.207   1.608   4.337  0.4836  0.3259  1.3701
  587MOL0     C77417   9.134   1.732   3.563 -0.6295  0.2009  0.0006
  587MOL0     C77418   9.143   1.854   3.488  0.1153  0.8070  0.9852
  587MOL0     H77419   9.002   2.136   3.075 -0.2921 -0.3231 -0.3928
  587MOL0     H77420   9.082   2.264   2.915 -2.8971  1.9974  0.9062
  587MOL0     H77421   9.487   2.483   2.981 -0.6042  0.1643 -1.3847
  587MOL0     H77422   9.446   2.484   2.807  0.6828  0.2057  0.3001
  587MOL0     H77423   9.459   2.230   2.958 -0.4424 -0.9051 -1.0406
  587MOL0     H77424   9.599   2.314   2.871 -1.0481  0.5850  0.3858
  587MOL0     H77425   9.349   2.234   2.716 -0.5540 -0.8446  2.3431
  587MOL0     H77426   9.480   2.126   2.752  0.1305  0.1098  1.3243
  587MOL0     H77427   9.523   2.402   2.620  0.2301 -0.7984 -0.8472
  587MOL0     H77428   9.636   2.273   2.612 -0.6241 -0.6673  1.6791
  587MOL0     H77429   9.492   2.327   2.409 -1.4136  1.7822  1.6615
  587MOL0     H77430   9.349   2.280   2.483 -1.0467 -2.0289 -0.2335
  587MOL0     H77431   9.409   2.056   2.540  1.6027  1.0224  1.6440
  587MOL0     H77432   9.560   2.077   2.467 -1.0031 -2.5625  1.9831
  587MOL0     H77433   9.278   2.108   2.342  0.5386 -0.4183 -0.9623
  587MOL0     H77434   9.422   2.160   2.258 -0.4145  3.2145  1.7055
  587MOL0     H77435   9.507   1.951   2.238 -0.8723  3.6384  0.5772
  587MOL0     H77436   9.346   1.953   2.182  0.0917  0.9233  0.8987
  587MOL0     H77437   9.168   1.904   2.447 -0.3983 -0.0148 -1.2158
  587MOL0     H77438   9.046   1.722   2.557 -0.4300 -1.7332 -1.9782
  587MOL0     H77439   9.159   1.619   2.651  1.3471 -3.0074 -0.6168
  587MOL0     H77440   9.140   1.465   2.459 -0.0530 -2.7385  4.5335
  587MOL0     H77441   8.977   1.557   2.399  0.7481 -0.9092 -0.3252
  587MOL0     H77442   8.914   1.382   2.529 -0.4862  3.1187 -4.3507
  587MOL0     H77443   9.035   1.410   2.656  2.5624  3.5539 -0.6593
  587MOL0     H77444   8.911   1.634   2.692 -0.3654  1.0026 -2.9708
  587MOL0     H77445   8.832   1.491   2.743 -0.8828 -0.1717  0.5296
  587MOL0     H77446   8.668   1.340   2.657 -0.9445  0.0868 -0.9291
  587MOL0     H77447   8.427   1.313   2.752 -0.8032  1.3653  1.1481
  587MOL0     H77448   8.104   1.495   3.036  1.0203 -2.1451 -3.6122
  587MOL0     H77449   7.864   1.508   3.139 -1.7546 -1.8179 -1.1237
  587MOL0     H77450   7.640   1.448   3.027  0.7000  0.9717 -1.5115
  587MOL0     H77451   7.562   1.544   2.906  0.0062 -1.6518 -0.6173
  587MOL0     H77452   7.390   1.470   3.065 -3.7796  0.3640  1.2945
  587MOL0     H77453   7.403   1.643   3.100 -1.1237 -0.1392  3.1749
  587MOL0     H77454   7.576   1.474   3.271  1.2331  1.1114  1.0282
  587MOL0     H77455   7.408   1.453   3.290 -0.9819  0.3762 -1.7568
  587MOL0     H77456   7.550   1.642   3.430 -0.2958 -0.3195  0.1164
  587MOL0     H77457   7.502   1.733   3.285  3.2471 -2.1656 -1.3910
  587MOL0     H77458   7.318   1.597   3.500  3.9929  0.9543  1.3972
  587MOL0     H77459   7.254   1.640   3.354  0.2943 -2.6291  0.9182
  587MOL0     H77460   7.418   1.840   3.506 -2.3662  2.1153  5.0430
  587MOL0     H77461   7.248   1.785   3.544 -0.6043 -3.5174 -1.6076
  587MOL0     H77462   7.333   1.890   3.268  1.1663  0.2558  0.6798
  587MOL0     H77463   7.166   1.883   3.333  1.0443 -2.0468 -1.0902
  587MOL0     H77464   7.206   2.057   3.472 -1.3975  0.3756 -2.2707
  587MOL0     H77465   7.267   2.129   3.323  3.0712 -0.6561 -2.5826
  587MOL0     H77466   7.753   1.754   2.811 -0.2366 -1.7858 -1.2754
  587MOL0     H77467   7.982   1.765   2.728 -1.3045  0.9827  0.5068
  587MOL0     H77468   8.385   1.741   2.691  1.9300  1.2864  1.3838
  587MOL0     H77469   8.613   1.759   2.622  2.8804 -1.3615 -0.5438
  587MOL0     H77470   9.411   2.390   3.164  0.4419  1.9382 -0.9633
  587MOL0     H77471   9.314   2.252   3.353  0.2550  1.1472 -0.0424
  587MOL0     H77472   8.986   2.065   3.695  0.2274  0.1534  1.8271
  587MOL0     H77473   8.993   1.848   3.834 -1.4928 -0.1227  0.0449
  587MOL0     H77474   9.161   1.465   3.693  1.5140  0.5037 -0.1601
  587MOL0     H77475   9.105   1.456   3.860 -0.0067  2.2970  1.4807
  587MOL0     H77476   9.349   1.504   3.832 -0.7118 -1.0718  0.7059
  587MOL0     H77477   9.296   1.664   3.758 -0.6564 -0.2072  0.8469
  587MOL0     H77478   9.195   1.724   3.974 -1.4482 -0.4726  0.7891
  587MOL0     H77479   9.355   1.684   4.021 -0.3588  1.1681 -0.3192
  587MOL0     H77480   9.095   1.524   4.051  1.2883 -0.4065 -1.6086
  587MOL0     H77481   9.244   1.440   4.063 -4.0613 -1.6000 -0.9032
  587MOL0     H77482   9.217   1.628   4.442 -1.3848 -2.1455  2.1011
  587MOL0     H77483   9.157   1.629   3.538  0.4130  1.1567 -3.4991
  587MOL0     H77484   9.186   1.857   3.388 -2.0715  2.6971  0.0025
  588MOL0     O77485   6.966   1.051   6.466 -0.6241  0.2166  0.1247
  588MOL0     C77486   6.861   1.001   6.493  0.9565  0.3264  0.5073
  588MOL0     O77487   6.802   1.020   6.610 -0.0251  0.1693 -0.0256
  588MOL0     C77488   6.823   1.121   6.689 -1.5892 -0.2058 -0.3927
  588MOL0     C77489   6.814   1.254   6.657 -1.0046  0.0691 -0.8706
  588MOL0     C77490   6.840   1.356   6.754  0.3069 -0.1206 -0.4825
  588MOL0     C77491   6.859   1.315   6.887  0.7547 -0.0007 -0.2276
  588MOL0     O77492   6.867   1.408   6.990 -0.7843 -0.2752 -0.1532
  588MOL0     C77493   7.002   1.417   7.044 -0.0137  0.6924  0.5144
  588MOL0     C77494   6.995   1.422   7.192  0.2021 -0.3777 -0.6906
  588MOL0     C77495   7.106   1.341   7.245 -0.5909 -0.2849 -0.3722
  588MOL0     C77496   7.238   1.423   7.235  0.5545 -0.6055  0.3761
  588MOL0     C77497   7.360   1.326   7.250  0.3371  0.2014  0.3680
  588MOL0     C77498   7.492   1.391   7.221 -0.1229 -0.2359 -0.1739
  588MOL0     C77499   7.613   1.295   7.249 -0.0803 -0.5755  0.5091
  588MOL0     C77500   7.729   1.336   7.148 -0.5497  1.4468  0.3129
  588MOL0     N77501   7.839   1.242   7.176  0.6830  0.4592  0.4047
  588MOL0     C77502   7.966   1.277   7.205 -0.4132 -0.1431 -0.0833
  588MOL0     C77503   8.042   1.171   7.194  0.1732  0.2105  0.0877
  588MOL0     C77504   8.196   1.156   7.216 -0.7523  0.3861  0.3423
  588MOL0     C77505   8.274   1.211   7.094 -0.0667  0.4132 -0.0151
  588MOL0     C77506   8.264   1.121   6.965 -0.1302 -0.2600  0.0021
  588MOL0     C77507   8.131   1.131   6.900 -0.1277  0.7991  0.5349
  588MOL0     O77508   8.154   1.096   6.764  0.2293  0.0239  0.7427
  588MOL0     C77509   8.071   1.174   6.689 -0.3672  0.0851 -0.2694
  588MOL0     C77510   8.124   1.302   6.652 -0.6819  0.3927  0.0349
  588MOL0     C77511   8.034   1.402   6.601 -0.1776 -0.5836 -0.5968
  588MOL0     C77512   7.898   1.373   6.574 -1.1791 -0.5488  0.3774
  588MOL0     C77513   7.796   1.478   6.534 -0.7093  0.4243  0.6831
  588MOL0     O77514   7.674   1.433   6.478  0.4394 -0.0473 -0.3955
  588MOL0     C77515   7.598   1.530   6.423 -0.0965  0.8068  0.5206
  588MOL0     C77516   7.571   1.658   6.472  0.6277  0.5967 -0.0699
  588MOL0     C77517   7.502   1.751   6.395  0.3050 -0.4044  0.5305
  588MOL0     C77518   7.430   1.706   6.280  0.1249 -1.2731  0.1615
  588MOL0     O77519   7.345   1.779   6.201  0.3264  0.1167  0.1786
  588MOL0     C77520   7.259   1.873   6.255  0.3126 -0.8263  0.5901
  588MOL0     C77521   7.296   2.009   6.201  0.4701  0.1460 -0.6267
  588MOL0     C77522   7.236   2.113   6.290 -0.9655 -0.3371 -0.3215
  588MOL0     C77523   7.297   2.256   6.268 -0.6886  0.5246  0.4068
  588MOL0     C77524   7.260   2.326   6.141 -0.5294  0.3962  0.7869
  588MOL0     C77525   7.276   2.481   6.149  0.2421  0.3123 -1.6398
  588MOL0     C77526   7.236   2.555   6.024  0.7516 -0.2629 -0.1345
  588MOL0     C77527   7.241   2.709   6.049  0.3719  0.0790  0.3363
  588MOL0    Cl77528   7.123   2.775   6.175 -0.1465 -0.1277  0.0650
  588MOL0     C77529   7.455   1.577   6.228 -1.1246  0.1069 -0.4503
  588MOL0     C77530   7.543   1.496   6.302  0.3701 -0.1471  0.9034
  588MOL0     O77531   7.834   1.588   6.553 -0.0088  0.7124 -0.0920
  588MOL0     C77532   7.853   1.241   6.601  0.0590  0.0818 -0.2421
  588MOL0     C77533   7.939   1.145   6.652  0.6724  1.3094 -0.4665
  588MOL0     N77534   7.955   1.061   7.167 -0.1066  0.7509 -0.3179
  588MOL0     N77535   7.836   1.108   7.166  0.4295 -1.0682  0.1942
  588MOL0     C77536   6.857   1.177   6.925 -0.1079  0.7831 -0.6489
  588MOL0     C77537   6.855   1.086   6.821 -0.0509  1.3341 -0.1327
  588MOL0     C77538   6.782   0.939   6.384 -0.2613 -0.4230 -0.5894
  588MOL0     C77539   6.832   0.953   6.257  0.3195 -0.4819  0.4837
  588MOL0     C77540   6.763   0.899   6.153 -0.7316 -0.3597 -0.4020
  588MOL0     C77541   6.646   0.831   6.166  1.1570 -0.7760  0.5829
  588MOL0     O77542   6.582   0.785   6.050  0.7466 -0.1528  0.5843
  588MOL0     C77543   6.476   0.682   6.061 -0.2235 -0.6274  0.0450
  588MOL0     C77544   6.444   0.629   5.921 -0.0339  0.4841  0.6154
  588MOL0     C77545   6.310   0.545   5.924 -0.3733 -0.7835  0.7153
  588MOL0     C77546   6.285   0.469   5.795 -0.0336 -0.3326  0.4250
  588MOL0     C77547   6.153   0.404   5.781 -1.1448 -0.5945  0.3273
  588MOL0     C77548   6.038   0.361   5.760 -0.0601 -0.5177  0.1087
  588MOL0     C77549   6.585   0.828   6.285 -1.1199 -0.5666 -0.2281
  588MOL0     C77550   6.658   0.875   6.406  0.0248  0.1937  0.4160
  588MOL0     H77551   6.795   1.283   6.554  0.2482  0.5570 -0.9804
  588MOL0     H77552   6.831   1.460   6.725  1.6686  0.5262  1.2717
  588MOL0     H77553   7.052   1.508   7.012 -1.2327  2.0752  2.3100
  588MOL0     H77554   7.070   1.338   7.011  0.0693 -0.8569  3.8860
  588MOL0     H77555   6.902   1.370   7.217 -0.4156  1.4705  1.1048
  588MOL0     H77556   6.994   1.525   7.227 -3.3657 -0.1016 -1.2292
  588MOL0     H77557   7.127   1.251   7.186 -0.7953 -1.4804  1.3213
  588MOL0     H77558   7.100   1.312   7.350 -0.0503 -0.3470 -0.3557
  588MOL0     H77559   7.239   1.485   7.144  1.6709  0.5283  1.1284
  588MOL0     H77560   7.236   1.498   7.314 -1.6764  2.9019 -2.6697
  588MOL0     H77561   7.354   1.247   7.174 -1.0736  0.0410  0.6158
  588MOL0     H77562   7.352   1.281   7.349 -3.5380  1.8207  0.9985
  588MOL0     H77563   7.511   1.481   7.282  0.0689  0.2274 -0.9025
  588MOL0     H77564   7.489   1.433   7.120  3.1632 -1.2362 -0.7759
  588MOL0     H77565   7.653   1.295   7.351  2.0487 -0.9692 -0.2940
  588MOL0     H77566   7.582   1.192   7.235 -3.4631  0.1289  1.8000
  588MOL0     H77567   7.741   1.441   7.178 -0.1069  1.7518 -0.8830
  588MOL0     H77568   7.708   1.329   7.041 -0.4585 -2.7325  0.3946
  588MOL0     H77569   7.983   1.383   7.225 -1.7017  0.4904 -2.0557
  588MOL0     H77570   8.226   1.054   7.240  4.2022  1.3609 -0.5957
  588MOL0     H77571   8.201   1.212   7.310 -5.6435 -0.8793  1.6581
  588MOL0     H77572   8.379   1.201   7.120  0.0047 -1.5278 -0.8689
  588MOL0     H77573   8.254   1.318   7.079 -1.2380  0.1702 -0.2837
  588MOL0     H77574   8.331   1.168   6.893  0.4148 -1.1429 -0.0822
  588MOL0     H77575   8.290   1.015   6.978 -3.5758 -1.0124  2.1273
  588MOL0     H77576   8.095   1.232   6.922  0.0206  0.7811  0.8686
  588MOL0     H77577   8.055   1.067   6.945 -1.5778  0.9318 -1.5753
  588MOL0     H77578   8.229   1.309   6.677 -0.1716  0.6907 -1.9918
  588MOL0     H77579   8.071   1.500   6.570 -0.6591  0.2251  1.2448
  588MOL0     H77580   7.581   1.679   6.578 -0.8531 -1.8558  0.6556
  588MOL0     H77581   7.462   1.842   6.439 -1.2675 -2.3595  3.5146
  588MOL0     H77582   7.257   1.875   6.364 -0.0491  1.0501  0.5846
  588MOL0     H77583   7.156   1.843   6.234 -0.1320  1.3136 -0.6475
  588MOL0     H77584   7.263   2.014   6.097  1.2672 -1.1931 -0.9576
  588MOL0     H77585   7.404   2.025   6.194  0.7053 -1.8880 -2.4014
  588MOL0     H77586   7.240   2.089   6.396  0.4458  1.6870  0.1561
  588MOL0     H77587   7.129   2.118   6.269 -0.7007 -0.2638 -1.7753
  588MOL0     H77588   7.271   2.315   6.356 -2.1487 -0.1487  0.4550
  588MOL0     H77589   7.405   2.238   6.262 -0.0632  3.9456 -0.6475
  588MOL0     H77590   7.158   2.296   6.114 -0.2724  0.3540 -0.1776
  588MOL0     H77591   7.326   2.298   6.058 -1.7917  0.4363 -0.2713
  588MOL0     H77592   7.375   2.517   6.178 -0.9805  2.6902 -0.0505
  588MOL0     H77593   7.205   2.516   6.225  0.2929 -1.2711 -0.8027
  588MOL0     H77594   7.289   2.527   5.932  0.0660  0.8167 -0.8734
  588MOL0     H77595   7.132   2.536   5.996 -0.0644  0.4447  2.2264
  588MOL0     H77596   7.208   2.738   5.949 -1.5893 -4.9205 -0.7561
  588MOL0     H77597   7.336   2.759   6.069  0.8482 -1.1120  1.1580
  588MOL0     H77598   7.415   1.556   6.130 -3.3438  0.9072  0.2214
  588MOL0     H77599   7.580   1.402   6.263  0.1400  1.2983 -3.3163
  588MOL0     H77600   7.746   1.225   6.594 -0.2279  1.7077 -0.0838
  588MOL0     H77601   7.905   1.046   6.679  0.4033  1.4068 -0.4404
  588MOL0     H77602   6.871   1.143   7.027  1.8465 -1.1218 -1.4839
  588MOL0     H77603   6.871   0.979   6.835 -1.3152  0.8542 -1.9623
  588MOL0     H77604   6.938   0.971   6.246  0.6004  0.0527  3.3296
  588MOL0     H77605   6.817   0.896   6.059  2.4910  2.1890  1.1837
  588MOL0     H77606   6.381   0.717   6.103 -1.7390 -3.8616 -0.3527
  588MOL0     H77607   6.513   0.609   6.134 -0.9359 -1.7600 -0.6943
  588MOL0     H77608   6.437   0.716   5.854  1.8580  1.1211  1.1763
  588MOL0     H77609   6.534   0.571   5.897 -1.1006 -1.2092  0.5954
  588MOL0     H77610   6.227   0.616   5.933  1.5426  1.9633 -1.4814
  588MOL0     H77611   6.297   0.478   6.010 -0.6829  0.2909  1.5346
  588MOL0     H77612   6.305   0.543   5.716  2.2755 -0.6099  0.6808
  588MOL0     H77613   6.373   0.404   5.791  1.1855  1.0635  2.6277
  588MOL0     H77614   5.934   0.335   5.748 -0.1192 -1.2720  1.8938
  588MOL0     H77615   6.483   0.798   6.307 -1.6352  0.8475 -0.5939
  588MOL0     H77616   6.614   0.868   6.505 -1.1609 -1.4270 -0.1856
  589MOL0     O77617   9.722   3.926   5.547 -0.0277  0.2495  0.7371
  589MOL0     C77618   9.759   3.824   5.613 -0.1979 -0.0217  0.7926
  589MOL0     O77619   9.722   3.692   5.592 -0.4933 -0.4140  0.8943
  589MOL0     C77620   9.614   3.674   5.500  0.5282  0.2782  0.3823
  589MOL0     C77621   9.618   3.633   5.364  0.4660 -0.3036  0.5771
  589MOL0     C77622   9.504   3.634   5.282  0.0238  0.0891 -0.0401
  589MOL0     C77623   9.383   3.636   5.351 -0.1114 -0.0754  0.1753
  589MOL0     O77624   9.259   3.622   5.293 -0.1645  1.1258  0.0746
  589MOL0     C77625   9.208   3.489   5.305  0.6355  0.7489 -0.3737
  589MOL0     C77626   9.298   3.379   5.261 -0.1108 -1.4904  0.5026
  589MOL0     C77627   9.246   3.242   5.271 -0.3475 -0.0650  0.8376
  589MOL0     C77628   9.341   3.136   5.205 -0.0018  0.7860 -0.5714
  589MOL0     C77629   9.329   2.998   5.283  0.4836  0.4526  0.4515
  589MOL0     C77630   9.396   3.006   5.427 -0.1805 -0.6527  0.3497
  589MOL0     C77631   9.398   2.878   5.504 -0.5079 -0.1276 -0.0395
  589MOL0     C77632   9.508   2.784   5.454 -0.4825  0.4524  1.0194
  589MOL0     N77633   9.648   2.842   5.459  0.0662  0.1733 -0.0291
  589MOL0     C77634   9.719   2.839   5.579 -0.0959  0.9078  1.4124
  589MOL0     C77635   9.838   2.902   5.547  0.7330  0.1642 -0.1233
  589MOL0     C77636   9.964   2.918   5.639 -0.3260 -0.2184  0.0034
  589MOL0     C77637  10.066   2.811   5.634  0.5481 -0.2513  0.4421
  589MOL0     C77638  10.121   2.780   5.493  0.4941 -0.3104 -0.4593
  589MOL0     C77639  10.271   2.716   5.495 -1.2755  0.9491 -0.7827
  589MOL0     O77640  10.378   2.805   5.531  0.3727 -0.5401  0.7244
  589MOL0     C77641  10.505   2.741   5.533 -0.0542  0.6086 -0.7687
  589MOL0     C77642  10.615   2.818   5.575 -1.0917 -0.0395  1.1268
  589MOL0     C77643  10.741   2.763   5.564 -1.2086  0.2339  0.1483
  589MOL0     C77644  10.775   2.638   5.514  1.2045 -0.2405 -0.1726
  589MOL0     C77645  10.917   2.598   5.505 -0.3284  0.3779 -0.4529
  589MOL0     O77646  10.941   2.471   5.443  0.0447 -0.2111 -0.6870
  589MOL0     C77647  11.066   2.420   5.446 -1.1512 -0.2907 -0.0259
  589MOL0     C77648  11.156   2.456   5.346  0.0475  0.2302  0.8646
  589MOL0     C77649  11.283   2.391   5.339 -0.3690  0.5321 -0.5327
  589MOL0     C77650  11.315   2.280   5.417 -0.5084 -0.3619  0.2935
  589MOL0     O77651  11.427   2.218   5.382 -0.3477  1.3570 -0.5379
  589MOL0     C77652  11.398   2.081   5.346 -0.0684  0.2999  0.2262
  589MOL0     C77653  11.531   2.005   5.346 -0.1873  0.2294  0.1434
  589MOL0     C77654  11.527   1.860   5.280  1.2049  0.6246  0.0618
  589MOL0     C77655  11.448   1.764   5.377  0.2589  0.4800  0.8117
  589MOL0     C77656  11.543   1.670   5.433 -0.4162 -0.3746 -0.6186
  589MOL0     C77657  11.648   1.728   5.527 -0.5332 -0.0047  0.3921
  589MOL0     C77658  11.599   1.804   5.655 -0.2997  0.1342 -0.5958
  589MOL0     C77659  11.533   1.715   5.749  0.7750  0.0296 -0.3539
  589MOL0    Cl77660  11.479   1.809   5.882 -0.6339  0.0579  0.3414
  589MOL0     C77661  11.227   2.247   5.527 -0.0203  0.0825 -0.7515
  589MOL0     C77662  11.106   2.313   5.536 -0.3213 -0.2001  0.0361
  589MOL0     O77663  10.994   2.693   5.528 -0.3673 -0.0133 -0.4853
  589MOL0     C77664  10.660   2.554   5.475  0.2039  0.0935  0.3838
  589MOL0     C77665  10.525   2.602   5.485 -0.8174 -0.3238 -0.0809
  589MOL0     N77666   9.832   2.931   5.406  0.2876  0.4161 -0.3361
  589MOL0     N77667   9.714   2.905   5.355 -1.0744  0.9626  0.3115
  589MOL0     C77668   9.371   3.676   5.484 -0.3708  0.4202 -0.1286
  589MOL0     C77669   9.492   3.688   5.562  0.5345 -1.0524 -0.1887
  589MOL0     C77670   9.869   3.847   5.709  0.6976  0.1893 -0.6316
  589MOL0     C77671   9.955   3.749   5.755 -1.4230  0.6823 -1.3567
  589MOL0     C77672  10.070   3.778   5.832  0.6409  0.5635 -0.7593
  589MOL0     C77673  10.094   3.905   5.869  0.8145  0.3304 -0.8511
  589MOL0     O77674  10.209   3.920   5.950  0.6913  0.6847 -0.9483
  589MOL0     C77675  10.296   4.030   5.918 -0.0938 -0.0211  0.7585
  589MOL0     C77676  10.393   3.986   5.803 -0.3307 -0.4139 -0.7592
  589MOL0     C77677  10.463   4.110   5.765  0.1553  0.7893 -0.3169
  589MOL0     C77678  10.597   4.080   5.708  0.3605 -0.7698  0.3727
  589MOL0     C77679  10.643   4.207   5.656 -0.3950 -1.0377  1.1253
  589MOL0     C77680  10.677   4.313   5.611  0.6299 -0.4879  0.0738
  589MOL0     C77681  10.007   4.008   5.833  0.8032  0.5988  1.0142
  589MOL0     C77682   9.906   3.976   5.746  0.0500 -0.2521 -0.6807
  589MOL0     H77683   9.719   3.617   5.326  0.7539 -0.4410  1.3835
  589MOL0     H77684   9.507   3.635   5.174 -0.1109  4.6295 -0.1629
  589MOL0     H77685   9.109   3.479   5.259 -0.0627  1.8122  0.8242
  589MOL0     H77686   9.188   3.459   5.408  1.3830 -1.8787 -0.9287
  589MOL0     H77687   9.384   3.407   5.322  1.8588 -1.6103 -2.0539
  589MOL0     H77688   9.319   3.397   5.155  1.3364 -1.6107  0.7460
  589MOL0     H77689   9.142   3.236   5.237 -0.8105 -2.4447  2.4364
  589MOL0     H77690   9.238   3.236   5.380  1.6442  0.3394  1.0322
  589MOL0     H77691   9.327   3.139   5.097 -1.5460 -0.3388 -0.4349
  589MOL0     H77692   9.448   3.161   5.213  0.2500  0.3589 -2.2130
  589MOL0     H77693   9.365   2.907   5.234 -0.9735  0.9267 -1.6453
  589MOL0     H77694   9.220   2.984   5.282  0.7680 -2.7658  1.9856
  589MOL0     H77695   9.325   3.062   5.490 -0.8004 -1.0753  0.0351
  589MOL0     H77696   9.492   3.059   5.422 -0.7790  0.4608  0.3231
  589MOL0     H77697   9.416   2.896   5.611 -1.1762  2.9909 -0.3784
  589MOL0     H77698   9.298   2.835   5.493 -0.5851  0.5045 -2.2359
  589MOL0     H77699   9.473   2.751   5.356  0.4519  0.5246  0.6498
  589MOL0     H77700   9.516   2.691   5.510  1.2074 -0.1885 -0.1983
  589MOL0     H77701   9.678   2.797   5.670 -3.5124  0.1052 -0.3341
  589MOL0     H77702   9.924   2.917   5.741  0.2608 -2.7094  0.2835
  589MOL0     H77703  10.003   3.015   5.606  0.1759 -0.7594 -1.0644
  589MOL0     H77704  10.011   2.727   5.678 -2.3943 -0.2679 -2.7909
  589MOL0     H77705  10.153   2.840   5.694  0.7657 -1.9536  0.9874
  589MOL0     H77706  10.072   2.693   5.449  1.5530 -3.1089  3.3026
  589MOL0     H77707  10.118   2.874   5.437  1.0955  1.4674  2.2805
  589MOL0     H77708  10.284   2.675   5.394  3.4782 -0.7391  0.2273
  589MOL0     H77709  10.273   2.628   5.560 -2.3180 -0.0643 -2.0756
  589MOL0     H77710  10.590   2.919   5.606 -4.8287  0.4120 -2.3903
  589MOL0     H77711  10.821   2.815   5.616 -2.1071  1.1577  0.6314
  589MOL0     H77712  11.128   2.536   5.278 -2.4883 -2.1047 -1.0560
  589MOL0     H77713  11.346   2.422   5.257 -2.4022  2.3199 -1.5269
  589MOL0     H77714  11.366   2.083   5.242  0.9654 -4.4481 -0.3746
  589MOL0     H77715  11.321   2.031   5.406  0.6641 -0.1816  0.7787
  589MOL0     H77716  11.589   1.995   5.438 -1.1508 -1.8025  0.5773
  589MOL0     H77717  11.597   2.068   5.285  4.7096 -3.2921  1.2928
  589MOL0     H77718  11.628   1.833   5.248  0.4939  2.0585 -4.0266
  589MOL0     H77719  11.462   1.859   5.192 -2.2889 -1.6359  2.4210
  589MOL0     H77720  11.386   1.817   5.449  0.7820  2.6769 -0.2628
  589MOL0     H77721  11.380   1.718   5.305 -0.2234  3.8222 -1.0888
  589MOL0     H77722  11.583   1.623   5.343 -0.9353 -0.7225 -0.6719
  589MOL0     H77723  11.487   1.597   5.493 -0.5668  1.1607  1.2106
  589MOL0     H77724  11.719   1.778   5.460  0.5153 -0.2283  1.3009
  589MOL0     H77725  11.709   1.646   5.564 -1.4192 -1.4636 -1.2189
  589MOL0     H77726  11.680   1.851   5.711  0.2632  0.6888 -1.8218
  589MOL0     H77727  11.528   1.882   5.624  0.3104  1.4769  1.2727
  589MOL0     H77728  11.598   1.638   5.792 -1.8556 -1.1060  1.8486
  589MOL0     H77729  11.452   1.661   5.698  1.7374 -1.2041 -0.6402
  589MOL0     H77730  11.244   2.155   5.582 -3.8341 -1.3236 -1.5924
  589MOL0     H77731  11.040   2.280   5.615  0.8836  3.1817  2.7335
  589MOL0     H77732  10.676   2.454   5.436  1.7425 -0.3143  1.9321
  589MOL0     H77733  10.442   2.542   5.450 -1.0654  1.2025 -2.3250
  589MOL0     H77734   9.275   3.684   5.534  0.2295 -2.2500  1.6547
  589MOL0     H77735   9.483   3.708   5.668  3.9312  0.5027 -0.0467
  589MOL0     H77736   9.958   3.649   5.713  1.5618  0.9072 -1.8454
  589MOL0     H77737  10.137   3.699   5.866 -0.0339  0.0319 -0.6388
  589MOL0     H77738  10.355   4.061   6.004  2.2837  0.2883 -0.8900
  589MOL0     H77739  10.248   4.124   5.889 -2.5336 -1.9086 -1.8912
  589MOL0     H77740  10.451   3.909   5.855 -1.8119 -0.8206  0.3491
  589MOL0     H77741  10.349   3.946   5.711  2.7937 -5.0221 -0.6027
  589MOL0     H77742  10.479   4.166   5.858 -3.2651  3.1608 -0.9642
  589MOL0     H77743  10.399   4.174   5.705 -0.3396  1.0872  0.5139
  589MOL0     H77744  10.673   4.037   5.774  2.6072 -0.1271 -1.6449
  589MOL0     H77745  10.578   4.008   5.628 -1.2786  0.4667 -0.4261
  589MOL0     H77746  10.691   4.407   5.562 -0.0641 -0.7468 -0.6317
  589MOL0     H77747  10.033   4.103   5.879 -1.3939  1.8326 -0.0720
  589MOL0     H77748   9.866   4.072   5.715 -0.3023 -0.7759 -1.9295
  590MOL0     O77749   9.899   0.107   5.393 -0.1734 -0.3880  0.3346
  590MOL0     C77750   9.929   0.019   5.473 -0.6476 -0.2036 -0.7795
  590MOL0     O77751  10.026   0.034   5.574 -0.0165  1.1171  0.5973
  590MOL0     C77752  10.113   0.139   5.593  0.3218  0.2209  0.3465
  590MOL0     C77753  10.177   0.144   5.711  0.1708 -0.0760  0.0635
  590MOL0     C77754  10.262   0.251   5.746 -0.2411  1.0819  1.2507
  590MOL0     C77755  10.281   0.353   5.657  0.3668  0.5971  0.7601
  590MOL0     O77756  10.364   0.464   5.673  0.3812 -0.1915  0.1830
  590MOL0     C77757  10.422   0.476   5.809  1.0551 -0.2455 -0.8267
  590MOL0     C77758  10.540   0.580   5.821 -0.7215  0.3635  1.0190
  590MOL0     C77759  10.500   0.728   5.781 -1.3111  0.3429 -0.2316
  590MOL0     C77760  10.407   0.779   5.896 -0.4833 -0.7007 -0.2083
  590MOL0     C77761  10.361   0.915   5.873  0.5516  0.3418 -0.0169
  590MOL0     C77762  10.465   1.019   5.912  0.0937  0.5864 -0.2176
  590MOL0     C77763  10.405   1.163   5.900  0.1037 -0.2701 -0.0239
  590MOL0     C77764  10.500   1.274   5.957 -0.2173  0.0662 -0.6691
  590MOL0     N77765  10.649   1.252   5.947  0.7831 -0.6693  0.7682
  590MOL0     C77766  10.728   1.181   6.028 -1.0648  0.0926  0.2756
  590MOL0     C77767  10.860   1.205   5.992  1.2463  0.5855 -0.1261
  590MOL0     C77768  10.983   1.146   6.055 -0.2049  0.3985  1.0232
  590MOL0     C77769  10.996   1.176   6.203 -0.4705 -0.0914 -0.0604
  590MOL0     C77770  11.033   1.322   6.238  0.3331  0.6645 -0.6820
  590MOL0     C77771  11.067   1.333   6.386 -0.2322 -0.2830  0.6836
  590MOL0     O77772  10.951   1.352   6.474 -0.2288  0.2816  0.2784
  590MOL0     C77773  10.976   1.362   6.608 -0.7301 -0.3235 -0.2945
  590MOL0     C77774  10.860   1.346   6.685 -0.1220 -0.7105 -0.6890
  590MOL0     C77775  10.870   1.355   6.826 -0.6669  0.1573 -0.1855
  590MOL0     C77776  10.995   1.388   6.885  0.6620  0.4117 -0.5391
  590MOL0     C77777  11.014   1.401   7.037 -0.1640 -0.3065  0.2145
  590MOL0     O77778  11.112   1.481   7.077  0.3446 -0.3511  0.2734
  590MOL0     C77779  11.133   1.477   7.212 -0.5442  0.3187 -0.1284
  590MOL0     C77780  11.121   1.609   7.261 -0.7378  0.0749  0.0966
  590MOL0     C77781  11.155   1.637   7.394 -0.0472  0.0345 -0.5833
  590MOL0     C77782  11.206   1.538   7.482  1.0699 -0.0549 -0.0760
  590MOL0     O77783  11.259   1.579   7.601  0.0704  0.4121 -0.0899
  590MOL0     C77784  11.176   1.546   7.713 -0.1308 -0.7249 -0.8794
  590MOL0     C77785  11.037   1.614   7.714 -0.6200 -0.6312  0.3483
  590MOL0     C77786  10.954   1.601   7.846  0.4091 -0.7767  0.0981
  590MOL0     C77787  10.862   1.717   7.881  0.3139  1.2912 -0.3767
  590MOL0     C77788  10.744   1.719   7.789  0.5551 -1.0304 -0.0977
  590MOL0     C77789  10.641   1.828   7.793 -0.0312 -0.1470  0.0289
  590MOL0     C77790  10.544   1.823   7.914  0.0804 -0.4781  0.2298
  590MOL0     C77791  10.469   1.957   7.924 -0.4235  0.0224  0.2187
  590MOL0    Cl77792  10.354   1.938   8.064 -0.0824  0.2189  0.1411
  590MOL0     C77793  11.214   1.407   7.424 -0.3922  0.4939 -0.4995
  590MOL0     C77794  11.183   1.371   7.294  0.5143 -0.1859 -0.1548
  590MOL0     O77795  10.926   1.356   7.099 -0.0451  0.6144 -0.3926
  590MOL0     C77796  11.106   1.404   6.806 -0.5357 -0.3712 -0.5844
  590MOL0     C77797  11.099   1.389   6.664  0.3339 -0.4627  0.5968
  590MOL0     N77798  10.850   1.282   5.878 -0.5573  0.3095  1.2121
  590MOL0     N77799  10.730   1.304   5.846  0.3844  0.7037  0.2108
  590MOL0     C77800  10.218   0.348   5.532 -0.1373 -1.0317  0.0050
  590MOL0     C77801  10.135   0.240   5.494  0.2468  0.0091  0.2483
  590MOL0     C77802   9.840  -0.093   5.493  0.6822 -0.8645  0.6323
  590MOL0     C77803   9.792  -0.161   5.379 -0.0018  0.7897  0.0120
  590MOL0     C77804   9.696  -0.265   5.398  0.4988  0.1089 -0.2937
  590MOL0     C77805   9.646  -0.294   5.525  0.2572  0.0664  1.0149
  590MOL0     O77806   9.556  -0.397   5.565 -0.3549  0.1173  0.1416
  590MOL0     C77807   9.469  -0.459   5.469 -0.7834  0.6232 -0.1532
  590MOL0     C77808   9.398  -0.571   5.550  0.4836 -0.2412  0.3549
  590MOL0     C77809   9.300  -0.500   5.653 -0.4196  0.1940  0.2753
  590MOL0     C77810   9.167  -0.436   5.606 -0.9043  0.3458 -1.0844
  590MOL0     C77811   9.097  -0.548   5.543 -0.1166  0.7630 -0.0321
  590MOL0     C77812   9.032  -0.635   5.488 -0.8073 -1.0206  1.1816
  590MOL0     C77813   9.698  -0.222   5.632  0.1473 -0.2855  0.7392
  590MOL0     C77814   9.792  -0.129   5.619 -0.1205  0.1976 -0.5018
  590MOL0     H77815  10.150   0.067   5.783 -4.0363  0.8088 -0.3423
  590MOL0     H77816  10.303   0.247   5.847 -1.3063  1.8738  1.7365
  590MOL0     H77817  10.463   0.380   5.842  2.6876  1.9551  4.8334
  590MOL0     H77818  10.347   0.504   5.884  2.1090  1.7947 -0.4713
  590MOL0     H77819  10.612   0.546   5.746 -1.8153 -0.3753  0.2761
  590MOL0     H77820  10.599   0.588   5.913 -0.3103  1.2396  0.6960
  590MOL0     H77821  10.442   0.726   5.689 -0.5182 -0.2917 -0.7379
  590MOL0     H77822  10.586   0.792   5.759 -0.6860 -0.5781 -0.5167
  590MOL0     H77823  10.322   0.712   5.905  2.0543 -4.2000 -0.2827
  590MOL0     H77824  10.452   0.783   5.996 -1.4088  0.2717  0.1878
  590MOL0     H77825  10.274   0.937   5.936 -0.1975 -0.8049 -0.6136
  590MOL0     H77826  10.327   0.924   5.769 -1.5762 -4.3503  0.0029
  590MOL0     H77827  10.534   0.999   5.829 -3.2239  0.1498 -3.0907
  590MOL0     H77828  10.509   0.990   6.008  0.8404  0.1576 -0.6775
  590MOL0     H77829  10.396   1.191   5.795 -1.5880  2.6661  0.7959
  590MOL0     H77830  10.310   1.161   5.954  0.4715 -2.3308  0.6292
  590MOL0     H77831  10.475   1.278   6.064  2.0033  1.6388 -0.1377
  590MOL0     H77832  10.475   1.366   5.904  1.4503  0.4150 -0.9109
  590MOL0     H77833  10.690   1.125   6.113  0.4563 -1.8757 -0.2554
  590MOL0     H77834  11.070   1.178   5.997  0.4644 -1.9918  0.5669
  590MOL0     H77835  10.983   1.037   6.040 -2.4833  0.2559  1.6375
  590MOL0     H77836  11.081   1.115   6.236  2.0153  2.1446 -1.8673
  590MOL0     H77837  10.907   1.142   6.257  0.9738 -1.8580  1.3479
  590MOL0     H77838  11.125   1.344   6.183 -0.3639  1.7944 -1.4404
  590MOL0     H77839  10.951   1.390   6.215 -1.0755 -1.3064 -1.7859
  590MOL0     H77840  11.136   1.418   6.385 -1.3947  0.6909  0.5793
  590MOL0     H77841  11.110   1.243   6.430 -0.6090  0.6135  3.0570
  590MOL0     H77842  10.765   1.333   6.635 -0.3103  4.7482 -2.3931
  590MOL0     H77843  10.782   1.330   6.884 -0.0676 -4.2599 -0.8561
  590MOL0     H77844  11.076   1.683   7.196  1.3946  0.6077 -0.8634
  590MOL0     H77845  11.140   1.735   7.438 -0.4135  0.6351 -1.9993
  590MOL0     H77846  11.233   1.582   7.799 -0.7581 -0.2664 -0.6463
  590MOL0     H77847  11.170   1.437   7.726 -1.8289 -0.6523 -0.7525
  590MOL0     H77848  10.972   1.569   7.638 -0.2579 -0.3945 -0.1105
  590MOL0     H77849  11.049   1.721   7.695 -0.6884 -0.6219  0.3568
  590MOL0     H77850  11.024   1.599   7.931 -0.1239 -1.0666  0.5377
  590MOL0     H77851  10.902   1.505   7.854 -3.1772  0.8654 -1.4650
  590MOL0     H77852  10.833   1.708   7.986  2.3560  4.5381  0.6225
  590MOL0     H77853  10.913   1.814   7.880  1.6988  0.5968 -0.1169
  590MOL0     H77854  10.678   1.633   7.808 -1.9091  0.9999  1.2422
  590MOL0     H77855  10.777   1.718   7.685 -0.3037 -1.0149 -0.3800
  590MOL0     H77856  10.589   1.820   7.697  3.3758 -1.8770 -1.8736
  590MOL0     H77857  10.698   1.922   7.794 -0.1252 -0.0871  0.8661
  590MOL0     H77858  10.476   1.740   7.893  0.7514 -0.9399 -0.1677
  590MOL0     H77859  10.604   1.802   8.003  1.0482  0.5294 -0.1480
  590MOL0     H77860  10.414   1.967   7.830 -0.2827  1.9877  0.3039
  590MOL0     H77861  10.534   2.043   7.940  1.4260 -0.9726 -1.4967
  590MOL0     H77862  11.271   1.342   7.490  1.4832  2.4828 -0.0325
  590MOL0     H77863  11.210   1.272   7.260 -1.9481 -1.7530  2.0223
  590MOL0     H77864  11.201   1.402   6.859 -1.6374 -1.9904  1.4588
  590MOL0     H77865  11.193   1.385   6.610  1.0664 -2.4658  1.8947
  590MOL0     H77866  10.230   0.427   5.459  0.9269 -0.4219  0.7985
  590MOL0     H77867  10.100   0.237   5.391  1.3649  1.4622 -0.2304
  590MOL0     H77868   9.822  -0.149   5.275 -0.7454  2.1268 -0.0642
  590MOL0     H77869   9.652  -0.323   5.317  0.7194  0.5163 -0.7100
  590MOL0     H77870   9.531  -0.498   5.387 -0.3850 -0.4893  0.6506
  590MOL0     H77871   9.412  -0.369   5.445 -1.6851  0.7540  2.2277
  590MOL0     H77872   9.341  -0.637   5.485 -0.9384  0.8800  0.4128
  590MOL0     H77873   9.482  -0.629   5.591  0.9619 -0.3386 -0.7408
  590MOL0     H77874   9.363  -0.426   5.703 -1.2432  1.0125  0.1058
  590MOL0     H77875   9.264  -0.576   5.724  0.1986 -0.8391 -0.4788
  590MOL0     H77876   9.116  -0.401   5.696  0.0803 -0.8569 -0.0142
  590MOL0     H77877   9.177  -0.351   5.538  0.7300  0.8122 -0.3243
  590MOL0     H77878   8.966  -0.706   5.443  0.5047 -1.5204  0.0189
  590MOL0     H77879   9.670  -0.260   5.730 -1.7103 -1.1158 -0.0751
  590MOL0     H77880   9.821  -0.079   5.710 -1.3592 -2.3330  1.4074
  591MOL0     O77881   0.348  11.059   1.984  0.5682 -0.0622 -0.5745
  591MOL0     C77882   0.270  11.150   1.996  0.3222  0.1163  0.0482
  591MOL0     O77883   0.187  11.167   2.099 -0.3623  0.4412  0.3337
  591MOL0     C77884   0.171  11.071   2.196 -0.0334  1.0704  0.2508
  591MOL0     C77885   0.075  11.110   2.299 -0.2058 -0.7072 -0.8915
  591MOL0     C77886   0.051  11.030   2.407 -0.2444 -0.4524 -0.5130
  591MOL0     C77887   0.092  10.898   2.416 -0.9591 -0.6893 -0.2235
  591MOL0     O77888   0.076  10.822   2.537 -0.8227  0.0516  0.6976
  591MOL0     C77889  -0.032  10.729   2.522 -1.2413 -0.2066 -0.1125
  591MOL0     C77890   0.028  10.589   2.549  0.2912 -0.1048 -0.1146
  591MOL0     C77891  -0.083  10.488   2.605 -0.4627  0.9568 -0.4311
  591MOL0     C77892  -0.220  10.487   2.537  0.7306 -0.1423  0.4752
  591MOL0     C77893  -0.213  10.438   2.388  0.0685 -0.4326  0.6954
  591MOL0     C77894  -0.355  10.447   2.331 -0.6932 -0.2896 -0.0263
  591MOL0     C77895  -0.358  10.439   2.182  0.5674 -1.1530 -0.5696
  591MOL0     C77896  -0.288  10.327   2.111 -0.3386 -0.0093  0.6510
  591MOL0     N77897  -0.155  10.362   2.062 -0.4202  0.6056  0.6666
  591MOL0     C77898  -0.110  10.463   1.981  1.1155  0.5993 -0.0074
  591MOL0     C77899   0.020  10.483   1.999  0.0065  0.9467 -1.0286
  591MOL0     C77900   0.115  10.575   1.921 -0.1813  0.4730 -0.4386
  591MOL0     C77901   0.051  10.713   1.913 -0.1417 -1.4193 -0.4764
  591MOL0     C77902   0.128  10.814   1.824 -1.0028  0.0980 -0.2552
  591MOL0     C77903   0.148  10.765   1.674 -0.1103 -0.2463 -1.3199
  591MOL0     O77904   0.024  10.756   1.608 -0.3446  0.3661 -0.3704
  591MOL0     C77905  -0.017  10.845   1.519 -0.1887 -0.0425 -0.2951
  591MOL0     C77906   0.003  10.980   1.539 -0.0001  1.2302 -0.0786
  591MOL0     C77907  -0.043  11.077   1.452  0.6040  0.7117 -1.2405
  591MOL0     C77908  -0.133  11.039   1.351 -0.3350 -0.5367 -0.2245
  591MOL0     C77909  -0.194  11.151   1.270 -1.1128  0.1358  0.0428
  591MOL0     O77910  -0.309  11.113   1.203 -0.6806 -0.0847 -0.3374
  591MOL0     C77911  -0.390  11.204   1.126  0.1315  0.5478 -0.1688
  591MOL0     C77912  -0.393  11.345   1.139 -0.1936 -0.1878 -0.0121
  591MOL0     C77913  -0.453  11.425   1.045  0.5160  0.3855  0.0974
  591MOL0     C77914  -0.506  11.369   0.928  0.8278 -0.1337 -0.2698
  591MOL0     O77915  -0.566  11.446   0.826  0.6555  0.3017 -0.3228
  591MOL0     C77916  -0.682  11.519   0.870  1.0975 -0.2125  0.0582
  591MOL0     C77917  -0.823  11.465   0.824 -0.3115  0.4113 -0.6741
  591MOL0     C77918  -0.935  11.568   0.842 -0.5210 -0.8857 -0.2174
  591MOL0     C77919  -1.057  11.519   0.761 -0.2525  0.2994 -0.6191
  591MOL0     C77920  -1.181  11.572   0.827  0.1198 -0.0752  0.3647
  591MOL0     C77921  -1.252  11.472   0.916 -0.1120  0.1030 -0.0494
  591MOL0     C77922  -1.323  11.353   0.841  0.8070  0.1069  0.4772
  591MOL0     C77923  -1.429  11.286   0.939 -0.4249 -0.2064 -0.0260
  591MOL0    Cl77924  -1.365  11.191   1.057  0.0786 -0.1461 -0.1535
  591MOL0     C77925  -0.524  11.230   0.928 -0.1481 -1.4711 -0.2188
  591MOL0     C77926  -0.458  11.147   1.021 -0.4209  0.7709  0.3002
  591MOL0     O77927  -0.147  11.266   1.278 -0.2339  0.2501  0.3627
  591MOL0     C77928  -0.178  10.908   1.337 -0.2136 -0.7395 -0.9444
  591MOL0     C77929  -0.119  10.810   1.424 -0.0756 -0.4661 -0.8935
  591MOL0     N77930   0.060  10.383   2.093 -0.0540 -0.1867  0.2491
  591MOL0     N77931  -0.045  10.316   2.120  0.0284 -0.0992  0.0776
  591MOL0     C77932   0.170  10.845   2.302  0.1463  0.5093  0.6567
  591MOL0     C77933   0.214  10.933   2.199 -0.3624 -0.1314  0.2605
  591MOL0     C77934   0.260  11.242   1.882  0.4941  0.2400  0.7870
  591MOL0     C77935   0.200  11.368   1.884  0.2575 -0.4007 -0.9958
  591MOL0     C77936   0.191  11.455   1.771  0.0484  0.5883 -1.0182
  591MOL0     C77937   0.241  11.407   1.644  0.1538  0.0012 -1.1544
  591MOL0     O77938   0.225  11.470   1.523 -0.3137 -0.8367 -0.1399
  591MOL0     C77939   0.156  11.601   1.520  0.5765  0.2547  0.2277
  591MOL0     C77940   0.126  11.630   1.374  0.1387  0.4553 -0.4300
  591MOL0     C77941   0.091  11.781   1.368 -0.0399 -0.3827  0.3576
  591MOL0     C77942  -0.017  11.800   1.263 -0.5756 -0.4498  0.2088
  591MOL0     C77943   0.050  11.806   1.133  0.3546 -0.0160 -0.8559
  591MOL0     C77944   0.116  11.815   1.028 -0.1791 -0.3685  0.2893
  591MOL0     C77945   0.306  11.286   1.638  0.5139  0.6812  0.4574
  591MOL0     C77946   0.308  11.192   1.752 -0.2832 -0.0213  0.1277
  591MOL0     H77947   0.031  11.209   2.302  1.4180  0.0320  0.8504
  591MOL0     H77948  -0.002  11.077   2.489  0.5581  0.7050 -0.6282
  591MOL0     H77949  -0.095  10.739   2.433  1.4231  2.2432 -1.9095
  591MOL0     H77950  -0.101  10.742   2.605 -2.3688  0.2931 -1.1016
  591MOL0     H77951   0.112  10.597   2.617  0.0732 -0.8058  0.2491
  591MOL0     H77952   0.055  10.545   2.452  2.1261 -2.8175  1.4981
  591MOL0     H77953  -0.097  10.504   2.712  0.7508  0.8547 -0.2448
  591MOL0     H77954  -0.045  10.385   2.600  1.5099  1.0897  4.9568
  591MOL0     H77955  -0.278  10.413   2.592 -2.6748  0.7050 -1.6924
  591MOL0     H77956  -0.270  10.583   2.553 -2.7091 -1.1825 -2.7913
  591MOL0     H77957  -0.189  10.332   2.380 -0.3038 -0.3937 -1.4604
  591MOL0     H77958  -0.154  10.497   2.318  0.8440 -2.1621 -0.1534
  591MOL0     H77959  -0.408  10.536   2.367 -1.1230 -0.1918 -0.8805
  591MOL0     H77960  -0.415  10.361   2.361 -2.1756 -0.1790 -2.4202
  591MOL0     H77961  -0.459  10.402   2.161  0.9250 -2.3268 -0.3461
  591MOL0     H77962  -0.329  10.536   2.142  0.0947 -1.5955 -2.0379
  591MOL0     H77963  -0.348  10.312   2.021 -1.0261 -1.5797  1.3333
  591MOL0     H77964  -0.297  10.238   2.174 -2.6587 -0.0004  0.4130
  591MOL0     H77965  -0.172  10.521   1.913  0.1412  2.0338  2.0130
  591MOL0     H77966   0.114  10.524   1.825 -1.5780 -3.1495  1.3155
  591MOL0     H77967   0.217  10.575   1.960  0.5542  0.3762 -2.2917
  591MOL0     H77968   0.042  10.752   2.015  0.1433 -0.7124 -0.7180
  591MOL0     H77969  -0.053  10.716   1.880 -1.1208 -0.6414  2.3472
  591MOL0     H77970   0.062  10.901   1.819  2.6945  3.2380  0.7102
  591MOL0     H77971   0.227  10.834   1.866 -0.9961 -0.5236  0.0319
  591MOL0     H77972   0.208  10.675   1.689  2.0026  1.0647 -1.5789
  591MOL0     H77973   0.216  10.829   1.618  1.6943 -1.4553 -0.5957
  591MOL0     H77974   0.078  11.010   1.612  0.2839 -0.3340  0.3207
  591MOL0     H77975  -0.022  11.182   1.466 -1.0583  0.7104  2.1836
  591MOL0     H77976  -0.343  11.406   1.214 -0.7243  3.4499 -2.3608
  591MOL0     H77977  -0.462  11.533   1.054 -0.1226  0.2632  1.2226
  591MOL0     H77978  -0.680  11.615   0.817  0.1841  0.2271  0.8037
  591MOL0     H77979  -0.680  11.536   0.978  1.0197 -3.0333  0.5730
  591MOL0     H77980  -0.845  11.371   0.877  2.2444  0.1168  0.0356
  591MOL0     H77981  -0.808  11.450   0.717  3.9009  1.8194 -0.4902
  591MOL0     H77982  -0.895  11.660   0.800 -0.0680 -2.0744 -2.5765
  591MOL0     H77983  -0.958  11.593   0.946  0.9892 -0.9702  0.1619
  591MOL0     H77984  -1.045  11.557   0.659  1.4429  0.9652 -0.2074
  591MOL0     H77985  -1.056  11.411   0.746 -1.3628  0.2881 -0.6612
  591MOL0     H77986  -1.241  11.611   0.744  2.6820  0.5305 -1.3223
  591MOL0     H77987  -1.155  11.662   0.883  1.2947 -0.2848  0.1720
  591MOL0     H77988  -1.335  11.533   0.953  0.7181  0.5883  1.0716
  591MOL0     H77989  -1.189  11.439   0.999  0.9213 -2.7576 -1.8251
  591MOL0     H77990  -1.363  11.366   0.740 -0.2236  0.2057  0.8845
  591MOL0     H77991  -1.238  11.288   0.819  1.4502  1.5165 -1.5966
  591MOL0     H77992  -1.504  11.228   0.885 -0.2041 -0.7719  0.2644
  591MOL0     H77993  -1.485  11.368   0.986 -0.4510 -0.7279  0.8683
  591MOL0     H77994  -0.582  11.189   0.845 -2.3292 -0.0715  0.5417
  591MOL0     H77995  -0.463  11.038   1.027 -0.3643  0.7355 -0.2680
  591MOL0     H77996  -0.247  10.874   1.260 -3.0658  0.6288  0.8414
  591MOL0     H77997  -0.156  10.708   1.419  0.2900 -1.1068  4.2523
  591MOL0     H77998   0.195  10.740   2.313  5.4404  1.4600  0.0944
  591MOL0     H77999   0.274  10.885   2.122 -1.3669  0.8523 -1.1982
  591MOL0     H78000   0.160  11.393   1.982 -0.1537 -3.7961 -0.1817
  591MOL0     H78001   0.129  11.544   1.780 -2.1112 -0.7328 -2.0323
  591MOL0     H78002   0.222  11.683   1.550  1.1838  0.8590 -2.5010
  591MOL0     H78003   0.069  11.595   1.586  0.1082 -1.8062 -0.5044
  591MOL0     H78004   0.218  11.623   1.317 -0.3151 -2.7107 -0.9286
  591MOL0     H78005   0.050  11.566   1.328  2.9587 -0.9970 -3.4430
  591MOL0     H78006   0.173  11.850   1.344 -0.6423  2.2870  4.7658
  591MOL0     H78007   0.063  11.821   1.466 -1.5614  4.2120 -1.6543
  591MOL0     H78008  -0.077  11.711   1.240  0.1985 -0.6922 -0.9529
  591MOL0     H78009  -0.073  11.892   1.279  0.6031  0.3652 -0.2556
  591MOL0     H78010   0.177  11.822   0.941 -1.0940 -1.4046 -0.4672
  591MOL0     H78011   0.346  11.255   1.543  0.9307  2.9732 -0.1643
  591MOL0     H78012   0.349  11.093   1.741 -0.4022 -0.6637  3.9399
  592MOL0     O78013  10.186   4.042   4.974  0.0058 -0.5437 -0.1970
  592MOL0     C78014  10.200   3.980   4.873  0.2855 -0.2843  0.1727
  592MOL0     O78015  10.157   4.017   4.752  0.5140 -0.5998  0.8980
  592MOL0     C78016  10.098   4.141   4.726  0.0148  1.2905  0.3218
  592MOL0     C78017  10.028   4.225   4.812 -0.5678  0.2671 -0.2904
  592MOL0     C78018   9.969   4.346   4.765 -0.6157 -0.5539 -0.1282
  592MOL0     C78019   9.985   4.380   4.623  0.1838  0.6555 -0.4110
  592MOL0     O78020   9.940   4.496   4.557 -0.0466 -0.5476 -0.8784
  592MOL0     C78021   9.821   4.558   4.600 -0.0789  0.3196  1.0831
  592MOL0     C78022   9.699   4.478   4.549  0.2838  0.5948  0.3725
  592MOL0     C78023   9.662   4.338   4.610  0.2205  1.0108 -0.7184
  592MOL0     C78024   9.616   4.353   4.761 -0.5300 -0.8221 -0.1213
  592MOL0     C78025   9.629   4.217   4.839  0.4589 -0.1201  0.2856
  592MOL0     C78026   9.572   4.224   4.979 -1.1811  0.0856  0.1183
  592MOL0     C78027   9.459   4.124   5.005 -0.4221 -0.2344 -0.2594
  592MOL0     C78028   9.328   4.168   4.928  0.0208 -0.5202 -0.6589
  592MOL0     N78029   9.257   4.056   4.877 -0.2177  0.1987  0.5949
  592MOL0     C78030   9.278   3.976   4.765  0.3518 -0.0327  0.0657
  592MOL0     C78031   9.175   3.877   4.773 -0.5937 -0.3670  0.4819
  592MOL0     C78032   9.148   3.775   4.662  0.6212  0.2034 -0.0488
  592MOL0     C78033   9.160   3.636   4.718 -0.3134  0.0134  0.7054
  592MOL0     C78034   9.303   3.612   4.764 -1.3136  0.2606  0.2014
  592MOL0     C78035   9.415   3.635   4.658 -0.7680  0.1608 -0.2922
  592MOL0     O78036   9.380   3.597   4.525  1.4609 -0.7594 -0.3113
  592MOL0     C78037   9.351   3.465   4.490 -0.4583 -0.2326 -1.2818
  592MOL0     C78038   9.297   3.463   4.365  0.7342  0.2256 -0.4936
  592MOL0     C78039   9.251   3.344   4.302  0.5389 -0.7163  0.7687
  592MOL0     C78040   9.268   3.226   4.372 -0.0824  1.2533 -0.2667
  592MOL0     C78041   9.205   3.101   4.315 -0.4203  0.0154 -0.3764
  592MOL0     O78042   9.250   2.982   4.384  0.0942 -0.0427 -0.2392
  592MOL0     C78043   9.232   2.862   4.321  0.4562 -0.0484  0.1138
  592MOL0     C78044   9.113   2.810   4.271 -0.2738  0.3149 -0.2036
  592MOL0     C78045   9.118   2.689   4.211  0.3380 -0.0433 -0.2725
  592MOL0     C78046   9.236   2.614   4.205  0.4024 -0.4763  0.2258
  592MOL0     O78047   9.217   2.490   4.149  0.4796 -1.0166  0.5824
  592MOL0     C78048   9.338   2.419   4.100  0.0110 -0.9291 -0.1832
  592MOL0     C78049   9.318   2.278   4.061 -0.3980  0.1772  0.1641
  592MOL0     C78050   9.447   2.197   4.061  0.1537 -0.2704 -0.5373
  592MOL0     C78051   9.417   2.045   4.060  0.1084  0.6218  0.9068
  592MOL0     C78052   9.357   1.997   3.921  0.9943 -0.7722 -0.4018
  592MOL0     C78053   9.451   2.046   3.802  0.1755  0.5794  0.4513
  592MOL0     C78054   9.411   1.969   3.673 -0.0988  0.2011 -0.1597
  592MOL0     C78055   9.486   2.001   3.550 -0.0862  0.3257 -0.1915
  592MOL0    Cl78056   9.642   1.935   3.549  0.0833  0.4821  0.2545
  592MOL0     C78057   9.354   2.673   4.251 -0.4931  0.2734 -0.4902
  592MOL0     C78058   9.351   2.796   4.314 -0.5330  0.9216 -0.9068
  592MOL0     O78059   9.129   3.101   4.215 -0.9757 -0.3515 -0.8025
  592MOL0     C78060   9.329   3.225   4.501 -0.5895  0.0962  1.7785
  592MOL0     C78061   9.370   3.343   4.564 -0.1819 -0.4953  0.0208
  592MOL0     N78062   9.112   3.893   4.891  0.6855 -0.6269 -0.0530
  592MOL0     N78063   9.166   3.988   4.958  0.1522  0.6453  0.7001
  592MOL0     C78064  10.072   4.301   4.545  0.0738  0.5378 -0.4515
  592MOL0     C78065  10.135   4.185   4.595  0.0400 -0.5598 -0.5588
  592MOL0     C78066  10.281   3.862   4.874 -0.3800  0.4155  0.0442
  592MOL0     C78067  10.331   3.796   4.760  0.8189 -0.1961  0.2340
  592MOL0     C78068  10.426   3.698   4.769 -0.9836  0.6055 -0.5374
  592MOL0     C78069  10.473   3.655   4.895 -0.7350 -0.9317 -0.3162
  592MOL0     O78070  10.575   3.564   4.889 -0.6532  0.1884  0.3881
  592MOL0     C78071  10.620   3.508   5.012 -0.3952 -0.4820 -0.1973
  592MOL0     C78072  10.535   3.397   5.054 -0.4668  0.4072 -0.5992
  592MOL0     C78073  10.555   3.275   4.954 -0.8426  0.4775  0.1282
  592MOL0     C78074  10.677   3.196   5.005 -0.0011  0.1078 -0.0050
  592MOL0     C78075  10.683   3.060   4.953 -0.4644  0.9457  0.1854
  592MOL0     C78076  10.677   2.940   4.931  0.3824 -0.1411  0.0803
  592MOL0     C78077  10.420   3.711   5.012  0.3098 -0.3068  1.1598
  592MOL0     C78078  10.329   3.817   4.997 -0.2288  0.1638  0.6208
  592MOL0     H78079  10.009   4.194   4.914  2.6819 -0.6683  0.1485
  592MOL0     H78080   9.914   4.408   4.835 -0.2323  0.6739 -0.8600
  592MOL0     H78081   9.804   4.651   4.544 -0.1862  0.6568  1.6618
  592MOL0     H78082   9.813   4.582   4.707 -1.2085  0.4435  0.9793
  592MOL0     H78083   9.711   4.451   4.443  0.9099  0.3275  0.5093
  592MOL0     H78084   9.604   4.533   4.556 -0.1705  0.1584 -1.6883
  592MOL0     H78085   9.751   4.275   4.608 -1.0556 -1.0207  1.3050
  592MOL0     H78086   9.589   4.278   4.555  1.6740  0.2799 -1.9009
  592MOL0     H78087   9.692   4.410   4.815  3.3158 -3.5329 -2.1207
  592MOL0     H78088   9.518   4.401   4.760 -0.1861 -0.1093 -0.2248
  592MOL0     H78089   9.737   4.195   4.840  0.9001  1.7972 -0.4845
  592MOL0     H78090   9.577   4.136   4.787  1.0460  0.4424 -1.2525
  592MOL0     H78091   9.523   4.322   4.988 -2.0639 -0.3689  0.4523
  592MOL0     H78092   9.647   4.216   5.057 -3.1028  1.6065  2.2649
  592MOL0     H78093   9.481   4.018   4.988  1.0548 -0.1455  0.9676
  592MOL0     H78094   9.424   4.127   5.109  0.8084  0.9031  0.1494
  592MOL0     H78095   9.353   4.247   4.856  5.9058 -0.3246  1.0280
  592MOL0     H78096   9.254   4.197   5.003 -0.3514  2.4613 -2.0563
  592MOL0     H78097   9.360   3.983   4.694  1.5836  1.3243  1.5283
  592MOL0     H78098   9.221   3.796   4.583  2.5802 -2.5498  0.8825
  592MOL0     H78099   9.052   3.785   4.611  0.6868  2.4456  0.1879
  592MOL0     H78100   9.139   3.576   4.629 -1.5689  0.9181  0.3679
  592MOL0     H78101   9.094   3.611   4.802  1.4046  1.7501  2.6897
  592MOL0     H78102   9.322   3.677   4.850  0.0187 -1.1967  1.0948
  592MOL0     H78103   9.301   3.513   4.812 -0.1490  0.2830  0.3442
  592MOL0     H78104   9.500   3.572   4.685 -1.0547 -0.5069 -0.9139
  592MOL0     H78105   9.467   3.730   4.667  2.8970 -1.8225  2.2144
  592MOL0     H78106   9.263   3.557   4.324 -2.0078 -0.6220 -0.3843
  592MOL0     H78107   9.210   3.343   4.202  0.0320 -2.2124  0.9603
  592MOL0     H78108   9.016   2.857   4.286 -1.4077 -2.4026  1.6955
  592MOL0     H78109   9.030   2.645   4.164  0.6385 -2.2174  1.0481
  592MOL0     H78110   9.414   2.419   4.179  0.5902  2.5482 -0.5971
  592MOL0     H78111   9.380   2.476   4.017 -0.5973  0.2075  0.2652
  592MOL0     H78112   9.268   2.266   3.964 -1.7804  0.4153  0.8231
  592MOL0     H78113   9.253   2.235   4.138 -0.1744  0.4066  0.4849
  592MOL0     H78114   9.502   2.223   4.151 -0.4237 -2.6839  0.5964
  592MOL0     H78115   9.503   2.228   3.972  0.4397  0.7432 -0.0187
  592MOL0     H78116   9.514   1.996   4.071 -0.0950 -0.3570 -1.2002
  592MOL0     H78117   9.355   2.005   4.141 -0.3690 -1.8143 -0.5568
  592MOL0     H78118   9.259   2.044   3.906  0.5644 -1.8749 -1.1657
  592MOL0     H78119   9.350   1.889   3.910  1.1583 -0.6362 -2.1066
  592MOL0     H78120   9.556   2.031   3.826 -0.1697 -0.4792  1.3887
  592MOL0     H78121   9.417   2.149   3.790  1.2060  0.7432 -1.5485
  592MOL0     H78122   9.418   1.861   3.688 -1.8812 -0.0013 -0.5660
  592MOL0     H78123   9.304   1.975   3.651 -0.1730  0.0822  0.1557
  592MOL0     H78124   9.488   2.109   3.538 -3.3592  0.7319  1.7181
  592MOL0     H78125   9.434   1.968   3.460 -2.5636  3.1715  0.0325
  592MOL0     H78126   9.439   2.614   4.219 -0.0165  0.4710  0.3682
  592MOL0     H78127   9.442   2.840   4.354  0.7346 -1.1789 -1.3479
  592MOL0     H78128   9.345   3.132   4.554  2.8222  0.3957  1.4752
  592MOL0     H78129   9.428   3.358   4.655  0.7867  4.2174 -1.0972
  592MOL0     H78130  10.105   4.340   4.449 -0.9417  0.4130 -0.8734
  592MOL0     H78131  10.204   4.124   4.538  1.2739  0.1132  0.1777
  592MOL0     H78132  10.297   3.798   4.657  0.2951  0.9856  0.4165
  592MOL0     H78133  10.473   3.654   4.681  1.5106  1.5096  0.2519
  592MOL0     H78134  10.614   3.584   5.091 -4.9674 -2.4731  1.7970
  592MOL0     H78135  10.720   3.469   4.992 -0.8931 -0.6715 -2.5434
  592MOL0     H78136  10.560   3.375   5.158  0.5803  1.4395 -0.6139
  592MOL0     H78137  10.431   3.431   5.063 -0.7269 -0.8938  2.6030
  592MOL0     H78138  10.560   3.306   4.849  3.7677 -0.8256 -0.2856
  592MOL0     H78139  10.482   3.194   4.965 -1.1611  0.6749 -0.5083
  592MOL0     H78140  10.768   3.248   4.975  0.0881 -0.5058 -0.8481
  592MOL0     H78141  10.663   3.187   5.113 -2.1448  0.8734 -0.1695
  592MOL0     H78142  10.676   2.836   4.905  0.8088  0.2913 -1.7747
  592MOL0     H78143  10.463   3.688   5.109  2.0413 -1.1509  0.2376
  592MOL0     H78144  10.300   3.872   5.086 -0.3875  0.7479  0.2166
  593MOL0     O78145   2.216   7.950   9.648 -0.0763 -0.1909  0.2669
  593MOL0     C78146   2.202   8.056   9.585 -0.3151  0.6095 -0.3450
  593MOL0     O78147   2.157   8.178   9.640 -0.7353 -0.4969  0.0093
  593MOL0     C78148   2.159   8.218   9.773 -0.5611 -0.2767  0.4160
  593MOL0     C78149   2.083   8.323   9.823  0.7419  0.8859  0.8753
  593MOL0     C78150   2.089   8.377   9.953  0.5591  0.3750 -0.6638
  593MOL0     C78151   2.179   8.312  10.048 -0.2222  0.4813  0.3775
  593MOL0     O78152   2.180   8.349  10.180  0.7245  0.8352  0.4491
  593MOL0     C78153   2.196   8.229  10.270 -0.4299  0.5728  0.0859
  593MOL0     C78154   2.102   8.233  10.392  0.0956 -0.3896 -0.1169
  593MOL0     C78155   2.103   8.111  10.481  0.2350 -0.3224 -1.1098
  593MOL0     C78156   2.027   8.147  10.611  0.1219 -0.1083 -0.1464
  593MOL0     C78157   2.063   8.053  10.725 -0.5210  0.0790 -1.0457
  593MOL0     C78158   2.035   8.099  10.873 -0.4217  0.9507  0.6899
  593MOL0     C78159   2.102   8.230  10.915  0.1370  0.0899 -0.0703
  593MOL0     C78160   2.086   8.261  11.061  0.4775 -0.8832  0.7071
  593MOL0     N78161   1.949   8.312  11.093  0.6167  0.2254 -0.9277
  593MOL0     C78162   1.889   8.424  11.035  0.8708  0.8279 -0.1564
  593MOL0     C78163   1.774   8.449  11.108  0.0621  0.3105  0.4192
  593MOL0     C78164   1.679   8.568  11.100 -0.1767  0.2697 -0.0708
  593MOL0     C78165   1.718   8.671  11.197  0.0128 -0.4853 -0.9711
  593MOL0     C78166   1.626   8.797  11.185  0.5917 -0.6670 -0.0924
  593MOL0     C78167   1.700   8.930  11.230  0.3577  0.2300  1.2317
  593MOL0     O78168   1.770   8.928  11.352  0.4651 -0.2347  0.1533
  593MOL0     C78169   1.800   9.048  11.414  0.7769 -0.9226 -0.7894
  593MOL0     C78170   1.692   9.121  11.483 -0.2565  0.4310  0.1876
  593MOL0     C78171   1.718   9.237  11.552 -0.1998  0.3261 -0.1111
  593MOL0     C78172   1.850   9.290  11.553  0.3539 -0.2367 -0.3212
  593MOL0     C78173   1.882   9.423  11.618  1.1973  0.2630 -0.5685
  593MOL0     O78174   1.770   9.492  11.667 -0.2177  0.0487 -0.3400
  593MOL0     C78175   1.784   9.628  11.690  0.6245 -0.4932  0.5733
  593MOL0     C78176   1.840   9.715  11.593  0.0368 -0.0496  0.1562
  593MOL0     C78177   1.855   9.855  11.618  0.9290  0.6564 -0.2615
  593MOL0     C78178   1.814   9.913  11.740 -0.3549  0.7293 -0.3792
  593MOL0     O78179   1.837  10.048  11.750 -0.4306 -0.7270  0.0476
  593MOL0     C78180   1.796  10.112  11.878  0.0583 -0.3180  0.4768
  593MOL0     C78181   1.640  10.148  11.873  0.2879  0.3523 -0.6244
  593MOL0     C78182   1.561  10.148  12.004 -0.2710  0.4054  0.5027
  593MOL0     C78183   1.632  10.232  12.106 -0.6307 -1.0354 -0.6692
  593MOL0     C78184   1.538  10.244  12.224 -0.7864  0.1421 -0.6560
  593MOL0     C78185   1.593  10.340  12.330 -0.2252 -0.0978 -0.0228
  593MOL0     C78186   1.561  10.485  12.302  0.8817 -0.0985  0.8158
  593MOL0     C78187   1.653  10.577  12.377  0.9604 -1.0899 -0.5880
  593MOL0    Cl78188   1.615  10.742  12.387  0.7725  0.6532  0.0153
  593MOL0     C78189   1.761   9.825  11.844 -1.3928  0.1795  0.0678
  593MOL0     C78190   1.735   9.688  11.806  0.9689 -0.6442 -0.3319
  593MOL0     O78191   1.997   9.465  11.604 -0.5229  0.3812 -0.1685
  593MOL0     C78192   1.946   9.222  11.490 -0.9222  1.0873 -0.0732
  593MOL0     C78193   1.927   9.092  11.426 -0.0269 -1.1304  0.2146
  593MOL0     N78194   1.764   8.348  11.204 -0.1927 -0.6394 -0.1486
  593MOL0     N78195   1.862   8.263  11.188  0.3281  0.1251 -0.3909
  593MOL0     C78196   2.258   8.212   9.999 -0.3134  0.3438  0.7987
  593MOL0     C78197   2.246   8.156   9.861  0.1136  0.5312  0.2399
  593MOL0     C78198   2.211   8.070   9.436  1.0522 -0.2301 -0.2441
  593MOL0     C78199   2.220   8.191   9.361 -0.4493  0.9020 -0.6365
  593MOL0     C78200   2.202   8.182   9.222 -0.0382 -0.3756 -0.9817
  593MOL0     C78201   2.183   8.059   9.156 -0.4592  0.0922 -0.3649
  593MOL0     O78202   2.158   8.058   9.023 -0.2642  1.0206 -0.1331
  593MOL0     C78203   2.228   7.951   8.956  0.3572  0.3566 -0.0103
  593MOL0     C78204   2.269   8.017   8.823 -0.8297  0.5303  0.2419
  593MOL0     C78205   2.368   8.127   8.860  0.7100 -0.9466  0.6989
  593MOL0     C78206   2.394   8.201   8.739 -0.3836  0.4275  0.3603
  593MOL0     C78207   2.455   8.333   8.772  0.5044  1.4418 -0.7063
  593MOL0     C78208   2.494   8.452   8.787 -0.1802  0.7466  0.6033
  593MOL0     C78209   2.182   7.942   9.234  0.4919 -0.0675 -0.7733
  593MOL0     C78210   2.191   7.943   9.374  0.0671  0.1687 -0.6252
  593MOL0     H78211   2.020   8.379   9.755 -2.1586 -0.9138  1.9027
  593MOL0     H78212   2.024   8.458   9.983  1.6288  0.5329  1.4286
  593MOL0     H78213   2.298   8.224  10.310 -0.3465  0.3493 -0.1486
  593MOL0     H78214   2.185   8.130  10.226  2.9544  1.3542 -3.0835
  593MOL0     H78215   1.998   8.251  10.360  0.9608  1.1441 -2.3114
  593MOL0     H78216   2.122   8.323  10.451 -1.0705  0.5598 -1.0947
  593MOL0     H78217   2.208   8.082  10.495 -0.5195 -1.7815  2.7203
  593MOL0     H78218   2.054   8.030  10.427  0.6575 -0.4846 -1.2590
  593MOL0     H78219   2.073   8.245  10.627  1.3643 -0.2982 -2.1840
  593MOL0     H78220   1.920   8.143  10.587  0.1413  1.7179 -0.7193
  593MOL0     H78221   2.172   8.041  10.718 -0.6269 -1.2529 -0.6846
  593MOL0     H78222   2.016   7.955  10.714 -3.9924  1.7256 -2.1796
  593MOL0     H78223   2.078   8.023  10.940 -1.5324 -0.3154  0.0066
  593MOL0     H78224   1.927   8.108  10.884 -0.6307 -1.1266  0.7848
  593MOL0     H78225   2.209   8.221  10.891 -0.1057 -0.3719 -1.0031
  593MOL0     H78226   2.048   8.308  10.861 -1.7976 -0.5549  0.8552
  593MOL0     H78227   2.164   8.333  11.087  0.4468 -0.4134 -0.4523
  593MOL0     H78228   2.106   8.173  11.123  1.9710 -1.8000 -0.9884
  593MOL0     H78229   1.939   8.490  10.965  3.5249  1.9245  2.5258
  593MOL0     H78230   1.581   8.533  11.133 -0.5855  1.5661  0.1572
  593MOL0     H78231   1.666   8.612  11.000 -1.8737  3.1295  1.2712
  593MOL0     H78232   1.819   8.711  11.188  0.6762 -2.2847 -1.8843
  593MOL0     H78233   1.710   8.638  11.301 -0.2598 -4.2044 -2.0085
  593MOL0     H78234   1.575   8.821  11.091  0.4431  0.0335  0.1640
  593MOL0     H78235   1.547   8.773  11.256 -0.6263  2.1601 -0.3691
  593MOL0     H78236   1.620   9.004  11.235  0.8220  0.8123  0.3544
  593MOL0     H78237   1.764   8.970  11.150  1.2204  0.0886  1.8408
  593MOL0     H78238   1.590   9.086  11.486  0.5223 -2.0933  3.8250
  593MOL0     H78239   1.643   9.304  11.591  1.5042  2.4278 -0.2614
  593MOL0     H78240   1.856   9.677  11.493 -4.5555 -2.7444  0.1485
  593MOL0     H78241   1.894   9.915  11.537  1.9812 -0.5249 -0.6490
  593MOL0     H78242   1.849  10.206  11.899  2.2931 -1.4025  0.0005
  593MOL0     H78243   1.818  10.046  11.962  0.0087  2.2807  2.6562
  593MOL0     H78244   1.592  10.074  11.808  1.6480 -1.1031 -0.0434
  593MOL0     H78245   1.630  10.246  11.826  1.1047 -0.7671 -3.3698
  593MOL0     H78246   1.538  10.049  12.045 -1.9688 -1.6599 -4.5788
  593MOL0     H78247   1.467  10.196  11.976  1.1955  2.5998 -0.9868
  593MOL0     H78248   1.727  10.189  12.136  1.2981  2.4812 -1.1958
  593MOL0     H78249   1.650  10.332  12.065 -2.9382  0.0322  0.7172
  593MOL0     H78250   1.527  10.148  12.276  1.7718 -0.3809 -0.9420
  593MOL0     H78251   1.436  10.271  12.196 -1.8941 -2.6092  0.4014
  593MOL0     H78252   1.701  10.327  12.335 -0.1811 -0.1247 -0.9328
  593MOL0     H78253   1.560  10.311  12.430 -1.1509 -0.7679 -0.5056
  593MOL0     H78254   1.562  10.511  12.196  0.9172  0.6863  1.0044
  593MOL0     H78255   1.460  10.514  12.330  0.1328  0.0716 -1.8058
  593MOL0     H78256   1.747  10.574  12.320  0.4050 -2.4122 -1.4778
  593MOL0     H78257   1.672  10.549  12.481  0.5308 -0.3826 -0.3142
  593MOL0     H78258   1.722   9.872  11.934 -2.1776  1.2328 -0.8017
  593MOL0     H78259   1.668   9.632  11.871 -1.5728  0.0824 -2.1593
  593MOL0     H78260   2.049   9.254  11.501 -0.6799  1.6150 -2.9579
  593MOL0     H78261   2.009   9.036  11.382  1.6065  1.4824 -0.2746
  593MOL0     H78262   2.324   8.151  10.060  0.3088  1.1161  0.9144
  593MOL0     H78263   2.296   8.062   9.840  0.1014  0.6258 -0.2354
  593MOL0     H78264   2.235   8.290   9.403  1.0390  1.5937 -2.6735
  593MOL0     H78265   2.201   8.280   9.175 -0.3230  0.0653 -0.0833
  593MOL0     H78266   2.156   7.871   8.934 -2.2456  2.0812  1.6166
  593MOL0     H78267   2.319   7.920   9.009  1.1320  3.1939  0.4525
  593MOL0     H78268   2.331   7.947   8.766  2.2664  0.2957  3.5519
  593MOL0     H78269   2.179   8.055   8.773 -1.3023 -0.4787  0.2886
  593MOL0     H78270   2.462   8.084   8.897 -0.1050 -1.6450  2.0378
  593MOL0     H78271   2.321   8.197   8.929  0.7253 -2.5114  2.3827
  593MOL0     H78272   2.465   8.148   8.675 -3.8318 -1.8531 -1.9591
  593MOL0     H78273   2.298   8.217   8.689 -1.3584 -0.3448  1.8909
  593MOL0     H78274   2.536   8.549   8.798  3.0600 -0.8920  5.7983
  593MOL0     H78275   2.158   7.847   9.187  0.6931  0.5221 -2.0976
  593MOL0     H78276   2.196   7.846   9.421  2.2170  0.8909  0.7948
  594MOL0     O78277  10.515   5.809   0.893 -0.0370 -0.5621 -0.3893
  594MOL0     C78278  10.496   5.887   0.795  0.6831  0.3934  0.1370
  594MOL0     O78279  10.398   5.985   0.796  1.1303 -0.6655 -0.6973
  594MOL0     C78280  10.310   5.982   0.908  1.2611 -0.5887 -0.2695
  594MOL0     C78281  10.193   5.906   0.883 -0.0623 -0.5543 -1.7441
  594MOL0     C78282  10.100   5.883   0.985 -0.0258 -0.4822  1.4944
  594MOL0     C78283  10.124   5.941   1.109  0.3927 -0.6156  0.2335
  594MOL0     O78284  10.037   5.895   1.201  0.1783  0.1890  0.0111
  594MOL0     C78285   9.939   5.998   1.243 -0.0635  0.2765 -0.0091
  594MOL0     C78286   9.824   5.995   1.144 -0.2149 -0.2525  0.4079
  594MOL0     C78287   9.745   5.859   1.130 -0.4470 -0.2322  1.1831
  594MOL0     C78288   9.673   5.852   1.001  0.1268  0.3215 -0.1176
  594MOL0     C78289   9.531   5.899   1.018  0.6805  0.5865  0.2805
  594MOL0     C78290   9.435   5.786   1.062 -0.0462 -0.4502 -1.0286
  594MOL0     C78291   9.311   5.843   1.100  0.3866 -0.4575  0.9800
  594MOL0     C78292   9.223   5.886   0.983  0.9794  0.2791 -0.2822
  594MOL0     N78293   9.144   5.774   0.919  0.0159 -0.1305 -0.9517
  594MOL0     C78294   9.129   5.645   0.966  0.0970 -0.5810  0.0641
  594MOL0     C78295   9.047   5.589   0.876  0.4542 -0.1706 -0.3297
  594MOL0     C78296   8.988   5.448   0.890 -0.1427 -0.9889 -0.5089
  594MOL0     C78297   8.862   5.459   0.967 -1.2115 -0.7068  0.2719
  594MOL0     C78298   8.743   5.520   0.898 -0.0572  0.9195  0.6113
  594MOL0     C78299   8.689   5.641   0.966  0.6098  0.8009 -0.4098
  594MOL0     O78300   8.591   5.607   1.074  0.4105  0.0316  0.1530
  594MOL0     C78301   8.537   5.712   1.149  0.1778 -0.4244 -0.3691
  594MOL0     C78302   8.569   5.846   1.126  0.3523 -0.5575 -0.9297
  594MOL0     C78303   8.502   5.951   1.200  0.1507  0.2439 -0.9631
  594MOL0     C78304   8.400   5.916   1.284 -0.8282  0.4398  0.0914
  594MOL0     C78305   8.345   6.024   1.364 -1.2477 -0.3722 -0.6743
  594MOL0     O78306   8.238   5.984   1.429 -0.4699 -0.9286  0.6047
  594MOL0     C78307   8.162   6.073   1.497 -0.2544 -0.9091 -0.3608
  594MOL0     C78308   8.020   6.064   1.475 -0.4831  0.4458 -0.3300
  594MOL0     C78309   7.930   6.161   1.525  0.0532 -0.6048 -0.8078
  594MOL0     C78310   7.982   6.276   1.597 -0.2257  0.4942 -1.1645
  594MOL0     O78311   7.909   6.373   1.667  1.1070 -0.6497 -0.1168
  594MOL0     C78312   7.908   6.504   1.607 -0.7666  0.2865 -0.2302
  594MOL0     C78313   7.823   6.508   1.474 -0.0883 -0.3400 -0.0899
  594MOL0     C78314   7.762   6.647   1.462 -0.0545 -0.0154  0.9166
  594MOL0     C78315   7.667   6.637   1.349  0.7207 -0.4527  0.5766
  594MOL0     C78316   7.650   6.774   1.287 -1.2589 -0.4892 -0.3359
  594MOL0     C78317   7.535   6.766   1.188 -0.4062 -0.2040 -0.3486
  594MOL0     C78318   7.541   6.885   1.101  0.5136  0.3252  0.1680
  594MOL0     C78319   7.444   6.898   0.981 -0.4770 -0.5626 -0.1810
  594MOL0    Cl78320   7.443   7.064   0.932 -0.2155  0.3693 -0.4469
  594MOL0     C78321   8.115   6.273   1.629  0.2029  0.4257  0.3075
  594MOL0     C78322   8.213   6.179   1.578  1.1586  0.8242 -0.7240
  594MOL0     O78323   8.397   6.137   1.362  0.9054 -0.6962 -0.0135
  594MOL0     C78324   8.360   5.779   1.300 -0.8176 -0.5943 -0.6675
  594MOL0     C78325   8.437   5.681   1.245 -0.7930  0.3017 -0.9874
  594MOL0     N78326   9.015   5.679   0.778  0.0176 -0.0913  0.0164
  594MOL0     N78327   9.076   5.793   0.810  0.1058  0.8603  0.1723
  594MOL0     C78328  10.243   6.014   1.141 -0.2062  0.4339  0.1911
  594MOL0     C78329  10.330   6.035   1.035  1.1120  0.2952  0.1965
  594MOL0     C78330  10.580   5.872   0.672 -0.8743  0.5536  0.8198
  594MOL0     C78331  10.577   5.967   0.568  0.0827  0.2247 -0.2572
  594MOL0     C78332  10.665   5.959   0.458 -0.3396 -0.1642 -0.4406
  594MOL0     C78333  10.772   5.861   0.459  0.1155 -0.8761  0.4083
  594MOL0     O78334  10.862   5.848   0.356  0.1230  0.5849  0.0199
  594MOL0     C78335  10.918   5.961   0.271 -0.0756  1.0494 -0.8886
  594MOL0     C78336  11.007   6.041   0.360 -0.3958 -0.3379  0.1551
  594MOL0     C78337  11.046   6.179   0.306 -0.2123 -0.6678  0.4669
  594MOL0     C78338  11.129   6.164   0.186 -0.7672 -0.7163  1.3897
  594MOL0     C78339  11.174   6.291   0.137 -0.1200  0.5586 -0.6645
  594MOL0     C78340  11.210   6.396   0.090 -0.2069 -0.5761  0.4290
  594MOL0     C78341  10.788   5.769   0.565  0.9941  0.4997 -0.8212
  594MOL0     C78342  10.684   5.770   0.664  0.5686  0.9107 -0.0641
  594MOL0     H78343  10.189   5.873   0.779  0.6709 -2.3489 -1.2488
  594MOL0     H78344  10.007   5.828   0.973 -2.2048  2.2660  4.2698
  594MOL0     H78345   9.982   6.098   1.254  2.1476 -0.6740  0.6680
  594MOL0     H78346   9.917   5.957   1.342 -1.0765  1.3621  0.2330
  594MOL0     H78347   9.858   6.020   1.043 -0.5939 -1.6926 -0.1079
  594MOL0     H78348   9.743   6.066   1.164 -2.2715 -2.6838  1.2377
  594MOL0     H78349   9.684   5.843   1.219 -0.3822 -0.5652  1.1690
  594MOL0     H78350   9.828   5.790   1.109 -0.7601 -0.0273 -0.9762
  594MOL0     H78351   9.719   5.904   0.917 -0.4973  0.2761 -0.5022
  594MOL0     H78352   9.670   5.744   0.982  1.6524  0.1990  0.2525
  594MOL0     H78353   9.488   5.932   0.922 -5.2018 -0.5873  2.1040
  594MOL0     H78354   9.519   5.974   1.097 -0.7054 -1.8679  2.5405
  594MOL0     H78355   9.480   5.736   1.148  0.4348  2.8837  0.8132
  594MOL0     H78356   9.426   5.716   0.978  0.9306  0.4922 -1.9476
  594MOL0     H78357   9.256   5.772   1.162 -2.7732  0.5759 -0.4204
  594MOL0     H78358   9.327   5.924   1.173  2.7812 -1.8450  2.1379
  594MOL0     H78359   9.271   5.932   0.896 -1.8379  2.5089 -0.8215
  594MOL0     H78360   9.154   5.966   1.013 -0.8071 -1.2316 -0.1988
  594MOL0     H78361   9.165   5.608   1.061  1.2838  1.3196  0.4174
  594MOL0     H78362   9.046   5.375   0.948  0.2167 -1.1950 -1.1161
  594MOL0     H78363   8.982   5.406   0.789 -1.0408  3.0712 -2.3134
  594MOL0     H78364   8.882   5.509   1.063  1.1937  1.8682 -1.4306
  594MOL0     H78365   8.827   5.359   0.995 -3.7485  0.0761  0.1982
  594MOL0     H78366   8.764   5.541   0.792 -1.3553 -1.1674 -0.1292
  594MOL0     H78367   8.676   5.434   0.905  0.2964  0.7319  2.0170
  594MOL0     H78368   8.638   5.715   0.904  0.1560  2.8912  2.2465
  594MOL0     H78369   8.774   5.702   0.999  0.2276  0.7081  0.8030
  594MOL0     H78370   8.649   5.889   1.066  1.0866  2.5652  1.9364
  594MOL0     H78371   8.554   6.046   1.200 -2.6518  1.9932  2.0879
  594MOL0     H78372   7.987   5.983   1.410 -2.0539 -1.6404  2.8030
  594MOL0     H78373   7.823   6.147   1.512 -0.2351 -0.5492  1.1248
  594MOL0     H78374   8.012   6.524   1.583  0.0840 -1.9590  1.2866
  594MOL0     H78375   7.877   6.572   1.687 -0.6690 -2.5792  2.4322
  594MOL0     H78376   7.752   6.425   1.482  2.0754 -2.5505 -2.2218
  594MOL0     H78377   7.892   6.489   1.391 -1.8298 -3.0340 -1.0477
  594MOL0     H78378   7.850   6.708   1.439  2.2132 -2.9907  1.1389
  594MOL0     H78379   7.711   6.687   1.550  0.2970 -1.0333  1.6019
  594MOL0     H78380   7.687   6.573   1.263 -3.4425 -1.4155  0.0940
  594MOL0     H78381   7.579   6.599   1.402  1.6558  1.0635  3.4172
  594MOL0     H78382   7.745   6.808   1.245  0.7264 -2.9758  1.8343
  594MOL0     H78383   7.622   6.844   1.367  0.2516 -1.2941  0.9282
  594MOL0     H78384   7.448   6.777   1.254 -0.0527  1.9049 -0.1380
  594MOL0     H78385   7.525   6.668   1.140  3.2284  0.2805 -2.4983
  594MOL0     H78386   7.510   6.964   1.169  0.0256  0.4625 -0.2087
  594MOL0     H78387   7.645   6.901   1.071  0.5695  1.2653  0.8174
  594MOL0     H78388   7.351   6.860   1.024 -0.9891  2.4905  1.7078
  594MOL0     H78389   7.476   6.837   0.896 -0.0361  0.4108 -0.7367
  594MOL0     H78390   8.159   6.351   1.690 -1.8885  1.7822  0.2079
  594MOL0     H78391   8.317   6.187   1.608  0.0678  0.6367  3.7433
  594MOL0     H78392   8.302   5.748   1.386 -0.0874  4.0293  1.8695
  594MOL0     H78393   8.423   5.579   1.278  1.1168  0.3747  0.2122
  594MOL0     H78394  10.257   6.056   1.240 -0.8526 -1.2564  1.0284
  594MOL0     H78395  10.416   6.100   1.048  1.5484  0.5277 -2.9640
  594MOL0     H78396  10.496   6.037   0.554 -0.3760 -0.4258 -0.9835
  594MOL0     H78397  10.653   6.020   0.369  3.1137 -2.3971 -2.7051
  594MOL0     H78398  10.829   6.018   0.242 -1.9267 -0.9519  0.5196
  594MOL0     H78399  10.966   5.922   0.181 -0.8663  2.1335 -1.8131
  594MOL0     H78400  10.942   6.056   0.446  0.9112 -2.8291  1.7125
  594MOL0     H78401  11.083   5.978   0.408 -3.0806 -2.8186  1.4920
  594MOL0     H78402  11.099   6.248   0.372 -1.1179 -0.0738  0.5895
  594MOL0     H78403  10.955   6.236   0.283  0.5181  0.2289 -0.2797
  594MOL0     H78404  11.222   6.112   0.212 -0.8701 -1.8115 -0.2751
  594MOL0     H78405  11.077   6.111   0.105 -0.8027 -0.5269  1.2870
  594MOL0     H78406  11.236   6.477   0.025 -0.0127 -2.2440 -1.6939
  594MOL0     H78407  10.872   5.700   0.574 -0.4887 -1.1515  1.8555
  594MOL0     H78408  10.683   5.706   0.751 -2.6770  1.6165  0.5487
  595MOL0     O78409   1.005   3.108   3.627 -0.3595 -0.5534 -0.2540
  595MOL0     C78410   0.907   3.140   3.698  0.1643 -0.3029 -0.2123
  595MOL0     O78411   0.776   3.107   3.682  0.0821 -0.6636 -0.0882
  595MOL0     C78412   0.752   2.985   3.630  0.2732  0.2634  0.3903
  595MOL0     C78413   0.836   2.880   3.623 -0.8773  0.5721  0.1313
  595MOL0     C78414   0.797   2.769   3.545  0.8445  0.4635 -0.5869
  595MOL0     C78415   0.663   2.749   3.490  1.2066 -0.1161 -0.2006
  595MOL0     O78416   0.635   2.638   3.421  0.1779  0.0388  0.1870
  595MOL0     C78417   0.662   2.626   3.287  0.5573  0.2498  0.0813
  595MOL0     C78418   0.608   2.738   3.205  0.3080  0.7714  0.0738
  595MOL0     C78419   0.459   2.724   3.192 -0.0515  0.2615 -0.2459
  595MOL0     C78420   0.413   2.797   3.067  0.1581 -0.3160  0.1495
  595MOL0     C78421   0.262   2.798   3.060  0.1412 -0.4971 -0.0766
  595MOL0     C78422   0.198   2.671   3.018 -0.0975  0.1818  1.1646
  595MOL0     C78423   0.052   2.684   3.006 -0.8359 -0.1840 -0.4759
  595MOL0     C78424  -0.020   2.569   2.930  0.0164 -0.1876  0.4714
  595MOL0     N78425  -0.034   2.437   3.005  0.1930 -0.1884 -0.1354
  595MOL0     C78426  -0.091   2.426   3.135 -0.7336 -0.6663  0.2974
  595MOL0     C78427  -0.107   2.292   3.151 -0.3531  0.0596 -0.1332
  595MOL0     C78428  -0.164   2.232   3.276 -0.1822  0.7772 -0.3726
  595MOL0     C78429  -0.313   2.187   3.268 -0.3085 -0.4336 -0.0903
  595MOL0     C78430  -0.407   2.308   3.291  0.7621 -0.2938 -1.3751
  595MOL0     C78431  -0.540   2.266   3.344 -0.5093 -1.0691  0.0402
  595MOL0     O78432  -0.627   2.373   3.333  0.4971  0.4819 -0.1389
  595MOL0     C78433  -0.763   2.347   3.363 -0.6503 -1.1698  0.1320
  595MOL0     C78434  -0.810   2.227   3.413 -0.5877  0.5772 -0.2446
  595MOL0     C78435  -0.948   2.199   3.424  0.8892 -0.4755 -0.8189
  595MOL0     C78436  -1.048   2.302   3.402 -1.1359  0.2945 -1.3448
  595MOL0     C78437  -1.194   2.282   3.417 -0.2281  0.5646  0.4700
  595MOL0     O78438  -1.268   2.390   3.437  0.0997 -0.1725  0.4430
  595MOL0     C78439  -1.404   2.383   3.449 -0.3203  0.6544  1.0353
  595MOL0     C78440  -1.478   2.381   3.330  0.1852  0.0717  0.0269
  595MOL0     C78441  -1.612   2.356   3.335 -0.1172 -0.3876 -0.4459
  595MOL0     C78442  -1.676   2.332   3.456  0.3897 -0.2974 -0.6269
  595MOL0     O78443  -1.808   2.311   3.474 -0.1244  0.0711 -0.4263
  595MOL0     C78444  -1.887   2.420   3.428 -0.2459  0.3422 -0.7556
  595MOL0     C78445  -2.008   2.451   3.507  0.0317  0.9633  0.0278
  595MOL0     C78446  -1.970   2.550   3.620  0.0333  0.3394 -0.0326
  595MOL0     C78447  -2.082   2.568   3.721 -0.3512 -0.2086  0.4798
  595MOL0     C78448  -2.120   2.713   3.707  0.0263 -0.0451 -0.3984
  595MOL0     C78449  -2.218   2.754   3.817 -0.0494  0.6505 -0.1152
  595MOL0     C78450  -2.284   2.895   3.792 -0.4581  0.1841  0.5409
  595MOL0     C78451  -2.403   2.925   3.883  0.4766 -0.5555 -0.7233
  595MOL0    Cl78452  -2.559   2.821   3.862  0.3115 -0.3855  0.0208
  595MOL0     C78453  -1.602   2.333   3.575  0.0753 -0.4948  0.6466
  595MOL0     C78454  -1.468   2.351   3.571 -0.1565 -0.0575  0.8318
  595MOL0     O78455  -1.237   2.170   3.404  0.5507  0.4129 -0.5181
  595MOL0     C78456  -0.990   2.422   3.353 -0.4509 -0.0086 -0.9069
  595MOL0     C78457  -0.852   2.443   3.345 -0.7676 -0.1405  0.8770
  595MOL0     N78458  -0.068   2.223   3.036  0.2444 -0.2706  1.0136
  595MOL0     N78459  -0.016   2.313   2.951  1.3783  0.7934  0.2439
  595MOL0     C78460   0.572   2.850   3.520  1.1475 -0.4562 -0.5777
  595MOL0     C78461   0.622   2.964   3.589  0.2424 -0.1658 -0.3899
  595MOL0     C78462   0.939   3.237   3.811 -0.2233  0.2613 -0.0934
  595MOL0     C78463   0.834   3.297   3.869 -0.1952 -0.6585 -0.7183
  595MOL0     C78464   0.843   3.388   3.970  0.0660 -0.1471 -0.1325
  595MOL0     C78465   0.974   3.416   4.025 -0.3369 -0.0616  0.2129
  595MOL0     O78466   0.973   3.514   4.124 -0.5862  0.0518 -0.6645
  595MOL0     C78467   1.097   3.585   4.144  0.1079 -0.4587  0.4411
  595MOL0     C78468   1.091   3.725   4.188 -0.3075 -0.0974  0.3061
  595MOL0     C78469   1.043   3.808   4.065  0.1298 -0.6462  0.0284
  595MOL0     C78470   1.001   3.955   4.090 -0.1444 -0.0299 -0.1568
  595MOL0     C78471   0.896   3.967   4.194  0.5610  0.2723 -0.5127
  595MOL0     C78472   0.797   3.973   4.266  0.1970 -0.1063  0.2422
  595MOL0     C78473   1.082   3.354   3.966  0.2739  0.0005 -0.5471
  595MOL0     C78474   1.066   3.268   3.864 -0.0834 -0.9039  1.0530
  595MOL0     H78475   0.940   2.884   3.653 -0.0082 -0.5589 -2.4351
  595MOL0     H78476   0.864   2.687   3.520  1.1258  1.1680 -2.2906
  595MOL0     H78477   0.631   2.526   3.253  0.2085 -0.2903  1.9179
  595MOL0     H78478   0.769   2.636   3.268  0.1226  0.6209 -2.7327
  595MOL0     H78479   0.648   2.723   3.105 -3.6868  5.2635 -2.6258
  595MOL0     H78480   0.638   2.827   3.261  0.3225 -0.3906  2.0174
  595MOL0     H78481   0.407   2.780   3.270  1.2228  0.7040  0.3127
  595MOL0     H78482   0.424   2.620   3.188  2.0607 -0.4592 -1.1881
  595MOL0     H78483   0.438   2.903   3.068  0.3596 -0.3551 -0.5111
  595MOL0     H78484   0.464   2.761   2.978  0.0278  0.8408 -0.4096
  595MOL0     H78485   0.237   2.863   2.975  1.9230  1.3923  0.7520
  595MOL0     H78486   0.215   2.824   3.156  1.7379 -1.8107  1.1170
  595MOL0     H78487   0.224   2.591   3.088  0.7570  1.1428  1.9894
  595MOL0     H78488   0.242   2.638   2.923 -0.5926 -1.5120  1.4893
  595MOL0     H78489   0.017   2.690   3.109  1.4216  0.5073  0.3195
  595MOL0     H78490   0.037   2.781   2.958  0.1293 -0.0280 -0.4992
  595MOL0     H78491   0.036   2.558   2.837  3.3245  1.5714  2.0648
  595MOL0     H78492  -0.119   2.606   2.900  0.9714  0.8496 -1.6128
  595MOL0     H78493  -0.112   2.504   3.208 -0.5175  0.2058 -0.5507
  595MOL0     H78494  -0.148   2.298   3.362  4.3395  0.5695 -0.8088
  595MOL0     H78495  -0.109   2.137   3.286 -1.1931  0.2100 -0.0617
  595MOL0     H78496  -0.328   2.111   3.345 -0.8382 -1.1805 -0.9048
  595MOL0     H78497  -0.326   2.148   3.166 -0.5587  2.0548 -1.0813
  595MOL0     H78498  -0.360   2.377   3.361 -0.2004 -2.1434  1.2882
  595MOL0     H78499  -0.430   2.348   3.192  0.2734  1.5104 -0.5766
  595MOL0     H78500  -0.530   2.243   3.451  2.1913 -0.1374  0.0808
  595MOL0     H78501  -0.587   2.178   3.299  0.8292 -1.6000 -0.3649
  595MOL0     H78502  -0.750   2.144   3.448 -1.1301  1.3477  2.7440
  595MOL0     H78503  -0.988   2.106   3.461  3.7468 -3.0837 -3.6604
  595MOL0     H78504  -1.428   2.403   3.235  0.5244 -0.5133  0.0639
  595MOL0     H78505  -1.677   2.358   3.248 -2.0062  3.0519  0.8368
  595MOL0     H78506  -1.912   2.413   3.322 -1.9359 -1.0925 -0.3136
  595MOL0     H78507  -1.819   2.506   3.428  0.3107 -0.0660  0.8600
  595MOL0     H78508  -2.045   2.364   3.562  0.4927  0.0897 -1.0029
  595MOL0     H78509  -2.089   2.496   3.449 -0.2033  1.3409  0.6465
  595MOL0     H78510  -1.935   2.647   3.581  1.5750  0.7926  2.2785
  595MOL0     H78511  -1.888   2.501   3.672  1.2194  0.1054 -2.0012
  595MOL0     H78512  -2.169   2.509   3.692  0.0396 -1.5825  1.9883
  595MOL0     H78513  -2.038   2.547   3.819  1.0425 -1.0883 -0.2939
  595MOL0     H78514  -2.152   2.746   3.608  2.0784  1.4765 -0.6117
  595MOL0     H78515  -2.034   2.777   3.727 -1.0891  1.3188  0.2191
  595MOL0     H78516  -2.157   2.755   3.908  1.2538 -7.3221 -0.2219
  595MOL0     H78517  -2.295   2.677   3.824 -1.5068  2.1595  1.4050
  595MOL0     H78518  -2.209   2.975   3.798 -0.8663  0.5364  1.0307
  595MOL0     H78519  -2.323   2.890   3.689 -1.1120 -0.8594  0.8221
  595MOL0     H78520  -2.419   3.033   3.877 -1.9342 -0.7726  0.4082
  595MOL0     H78521  -2.371   2.898   3.984  1.2895 -2.9175 -1.5430
  595MOL0     H78522  -1.640   2.322   3.676  2.5501 -1.6317  1.5379
  595MOL0     H78523  -1.415   2.338   3.665 -0.5217  1.2216  1.2362
  595MOL0     H78524  -1.050   2.508   3.325  0.9361  1.2793 -0.0754
  595MOL0     H78525  -0.804   2.535   3.313  0.2337 -2.0169 -3.8783
  595MOL0     H78526   0.474   2.865   3.477  2.4794  0.0365 -3.7506
  595MOL0     H78527   0.556   3.050   3.594  1.5640  0.8179  0.9315
  595MOL0     H78528   0.733   3.296   3.829 -0.8961 -0.8548  0.9776
  595MOL0     H78529   0.754   3.430   4.015  0.0783 -1.8686  1.6129
  595MOL0     H78530   1.158   3.593   4.054  0.3494 -0.6867  0.5853
  595MOL0     H78531   1.151   3.527   4.219 -0.0959 -1.7889 -0.4182
  595MOL0     H78532   1.023   3.727   4.273 -0.0574 -0.8015  0.5307
  595MOL0     H78533   1.191   3.759   4.217  0.7785 -2.6940 -0.1344
  595MOL0     H78534   0.954   3.755   4.028  2.1850 -2.8405 -2.0916
  595MOL0     H78535   1.114   3.807   3.983 -0.5477  0.2943 -0.5828
  595MOL0     H78536   1.095   4.001   4.122 -0.2734  2.8615 -3.3334
  595MOL0     H78537   0.968   4.000   3.996 -0.1513  0.4679  0.0823
  595MOL0     H78538   0.704   3.988   4.317 -1.6120  1.5434 -3.2178
  595MOL0     H78539   1.180   3.359   4.011 -0.0500  2.4583  0.0177
  595MOL0     H78540   1.152   3.213   3.826  1.7892  0.6913  2.6983
  596MOL0     O78541   8.068   9.837   4.451  0.1424 -0.2442 -0.7427
  596MOL0     C78542   8.018   9.841   4.337  0.3333  0.5553  0.6217
  596MOL0     O78543   7.934   9.751   4.284 -0.0976 -0.1773 -0.2004
  596MOL0     C78544   7.921   9.640   4.363 -0.2416  0.1656  0.3253
  596MOL0     C78545   7.805   9.627   4.434  0.0157  0.1704  0.5954
  596MOL0     C78546   7.779   9.502   4.507 -0.3187 -0.5399  0.0441
  596MOL0     C78547   7.884   9.409   4.515 -0.3129  0.5109 -1.1700
  596MOL0     O78548   7.885   9.283   4.574  0.0294 -0.7100  0.0025
  596MOL0     C78549   7.830   9.275   4.711  0.8854  0.8744 -0.2412
  596MOL0     C78550   7.821   9.128   4.746  0.5095  0.3925  0.2680
  596MOL0     C78551   7.776   9.089   4.884 -0.3734  0.2976 -0.5160
  596MOL0     C78552   7.800   8.939   4.925 -0.3110  0.2751  0.8970
  596MOL0     C78553   7.698   8.841   4.867  0.0615  0.0491  0.3750
  596MOL0     C78554   7.701   8.695   4.904 -0.2771  0.3367 -0.3311
  596MOL0     C78555   7.826   8.632   4.838 -0.7391  0.1978  0.7923
  596MOL0     C78556   7.809   8.486   4.878 -0.8686  0.1685  1.5152
  596MOL0     N78557   7.689   8.412   4.820 -0.4947  0.1362  0.6106
  596MOL0     C78558   7.650   8.401   4.685 -0.2924 -0.4103  1.2370
  596MOL0     C78559   7.550   8.306   4.682 -0.3001 -0.6693 -0.3024
  596MOL0     C78560   7.477   8.248   4.569 -0.2843  0.5860 -0.2560
  596MOL0     C78561   7.349   8.181   4.613 -0.2703 -0.3191  0.1769
  596MOL0     C78562   7.236   8.161   4.513 -0.0574  1.0147  0.8180
  596MOL0     C78563   7.120   8.075   4.569 -0.3500 -0.4923  0.8478
  596MOL0     O78564   7.068   8.132   4.690  0.0326  0.1942  1.3577
  596MOL0     C78565   6.951   8.202   4.686 -0.0023  0.7202  0.4374
  596MOL0     C78566   6.899   8.225   4.809  0.2810 -0.3810  0.4742
  596MOL0     C78567   6.785   8.288   4.820  0.1474 -0.5020 -0.5884
  596MOL0     C78568   6.712   8.336   4.709  0.4690 -1.1547 -0.3438
  596MOL0     C78569   6.581   8.386   4.725  0.6148 -0.3263 -0.0220
  596MOL0     O78570   6.527   8.450   4.618 -0.3895  0.5813  0.8748
  596MOL0     C78571   6.395   8.501   4.624 -0.1024 -0.5333  0.0810
  596MOL0     C78572   6.360   8.601   4.722  1.2166 -0.0715  0.0629
  596MOL0     C78573   6.221   8.634   4.737 -0.0816  0.5512  0.0809
  596MOL0     C78574   6.124   8.578   4.656  0.1590 -0.4135  0.7562
  596MOL0     O78575   5.988   8.594   4.686  0.9438 -0.6494 -0.2138
  596MOL0     C78576   5.948   8.677   4.796  0.0929 -0.0020 -0.2711
  596MOL0     C78577   5.810   8.647   4.849  0.7444 -0.7840  0.0749
  596MOL0     C78578   5.708   8.735   4.777  0.1001 -0.9928 -1.1740
  596MOL0     C78579   5.574   8.724   4.856 -0.3224 -0.3795 -0.2784
  596MOL0     C78580   5.462   8.785   4.769 -0.3874 -0.6038  0.3886
  596MOL0     C78581   5.326   8.749   4.827  0.2837 -0.6159  0.3465
  596MOL0     C78582   5.216   8.834   4.752 -0.6663 -0.3148 -0.4186
  596MOL0     C78583   5.182   8.977   4.810  0.0810  0.4435  0.2180
  596MOL0    Cl78584   5.319   9.099   4.823 -0.0186 -0.1539  0.2810
  596MOL0     C78585   6.164   8.492   4.547  1.0451 -0.2477 -0.2792
  596MOL0     C78586   6.297   8.446   4.537  1.3130 -0.3750  0.0076
  596MOL0     O78587   6.520   8.365   4.829  0.3573 -0.2343 -0.3452
  596MOL0     C78588   6.759   8.313   4.580 -1.3026 -0.4453  0.7084
  596MOL0     C78589   6.887   8.251   4.572  0.8328  0.1828 -0.5266
  596MOL0     N78590   7.537   8.265   4.812  0.0293 -0.2239 -1.3779
  596MOL0     N78591   7.608   8.332   4.889  0.4494  1.0438 -1.2205
  596MOL0     C78592   8.005   9.425   4.438  1.2189  0.2106 -0.6058
  596MOL0     C78593   8.023   9.538   4.364  0.4513 -0.2825 -0.5387
  596MOL0     C78594   8.056   9.944   4.247  0.2293 -0.0473  0.3223
  596MOL0     C78595   7.966   9.983   4.158  0.3987  0.3447  0.2839
  596MOL0     C78596   7.977  10.099   4.079 -1.0161  0.4137 -0.5253
  596MOL0     C78597   8.094  10.178   4.084 -0.3443 -0.8115  0.1598
  596MOL0     O78598   8.112  10.298   4.010 -0.0664  0.3001  0.3493
  596MOL0     C78599   8.037  10.318   3.895  0.5353 -0.4139 -0.5840
  596MOL0     C78600   7.949  10.435   3.922 -0.0318 -0.5834 -0.3256
  596MOL0     C78601   7.851  10.483   3.810 -0.0051 -0.3316 -0.8078
  596MOL0     C78602   7.791  10.378   3.715  0.0427 -0.1619  0.3003
  596MOL0     C78603   7.733  10.266   3.791  0.1186  0.3531  0.0703
  596MOL0     C78604   7.667  10.180   3.851 -0.8841 -0.1876  0.7406
  596MOL0     C78605   8.179  10.152   4.189 -1.4640 -0.1389  0.5067
  596MOL0     C78606   8.172  10.032   4.268 -0.0026  0.0551  0.4307
  596MOL0     H78607   7.734   9.708   4.452  1.9794  1.7428  1.5924
  596MOL0     H78608   7.680   9.485   4.546  0.5372 -2.6375  1.4780
  596MOL0     H78609   7.732   9.319   4.732  0.8031 -0.8153  3.6734
  596MOL0     H78610   7.906   9.328   4.769  0.6994  3.3967 -2.0720
  596MOL0     H78611   7.915   9.079   4.721 -0.9884 -1.8595 -1.2671
  596MOL0     H78612   7.749   9.098   4.670  0.3634  0.4043  0.4016
  596MOL0     H78613   7.668   9.105   4.891 -0.2013  2.4780 -1.7540
  596MOL0     H78614   7.834   9.152   4.952 -1.6116 -0.2898  1.1225
  596MOL0     H78615   7.909   8.926   4.918 -0.1032  1.9793  0.6480
  596MOL0     H78616   7.777   8.948   5.032  1.0669 -0.5721  1.2909
  596MOL0     H78617   7.702   8.862   4.759 -1.0438  1.6594  0.6154
  596MOL0     H78618   7.597   8.872   4.896 -0.7833 -2.5822  0.4671
  596MOL0     H78619   7.608   8.651   4.866 -0.4119 -1.2205  1.6557
  596MOL0     H78620   7.712   8.685   5.012 -0.7787  2.6020 -0.0099
  596MOL0     H78621   7.829   8.639   4.729  0.7002  0.9858  0.8666
  596MOL0     H78622   7.920   8.676   4.870  0.0184 -0.6281 -0.2472
  596MOL0     H78623   7.810   8.469   4.986  2.7648 -1.8232  1.3138
  596MOL0     H78624   7.899   8.432   4.848 -1.0982 -0.9121  2.6669
  596MOL0     H78625   7.686   8.466   4.605  1.1729  1.0596  2.9896
  596MOL0     H78626   7.543   8.174   4.522  0.5732 -0.3529  2.2707
  596MOL0     H78627   7.447   8.324   4.496  0.4715  1.1577  0.0089
  596MOL0     H78628   7.307   8.256   4.680 -3.9722 -1.3333 -0.7930
  596MOL0     H78629   7.372   8.087   4.663 -1.6925 -0.9691 -0.3302
  596MOL0     H78630   7.207   8.252   4.460  2.1813  0.6443 -1.1955
  596MOL0     H78631   7.278   8.100   4.433  2.4423 -0.1936  2.8934
  596MOL0     H78632   7.160   7.977   4.597  1.5283  0.7128  2.7080
  596MOL0     H78633   7.049   8.069   4.486  0.0677 -1.6203  0.5528
  596MOL0     H78634   6.949   8.185   4.897  1.3395  1.0925  0.5801
  596MOL0     H78635   6.758   8.314   4.922 -1.1926 -2.5376 -0.3567
  596MOL0     H78636   6.436   8.648   4.782  0.7205  1.3572 -0.3859
  596MOL0     H78637   6.209   8.705   4.818  1.5921  1.8344 -0.7266
  596MOL0     H78638   5.957   8.783   4.769  2.7285 -0.2049 -0.4529
  596MOL0     H78639   6.021   8.659   4.875 -0.0324  0.5590 -0.0237
  596MOL0     H78640   5.802   8.679   4.953 -1.9520 -0.8370 -0.0503
  596MOL0     H78641   5.803   8.538   4.840 -0.8787 -0.7072  0.2348
  596MOL0     H78642   5.691   8.690   4.679 -3.3174  1.5325 -1.9158
  596MOL0     H78643   5.733   8.841   4.780  0.5348 -1.1080 -0.6102
  596MOL0     H78644   5.568   8.627   4.905 -1.7054 -0.2752 -0.1955
  596MOL0     H78645   5.590   8.796   4.937 -1.6489 -1.7984  1.3118
  596MOL0     H78646   5.458   8.743   4.668 -1.0660 -3.6946  1.5922
  596MOL0     H78647   5.468   8.894   4.773 -2.4644 -0.4490  0.1813
  596MOL0     H78648   5.322   8.761   4.936  1.3884  1.8246  0.2017
  596MOL0     H78649   5.303   8.644   4.808 -1.9308 -0.6704  2.7138
  596MOL0     H78650   5.231   8.843   4.644  0.4106 -0.3985 -0.2884
  596MOL0     H78651   5.126   8.772   4.761 -2.5839  2.0201 -2.1435
  596MOL0     H78652   5.144   8.973   4.912 -0.9777  2.9171 -0.0086
  596MOL0     H78653   5.103   9.028   4.754 -0.5208  2.3140  2.6269
  596MOL0     H78654   6.075   8.469   4.490  1.0712 -1.1836  0.0348
  596MOL0     H78655   6.313   8.382   4.450  2.5458 -0.6057  0.3889
  596MOL0     H78656   6.703   8.320   4.487 -2.1155 -2.6070  0.9906
  596MOL0     H78657   6.931   8.239   4.473 -0.0239 -0.1757 -0.8807
  596MOL0     H78658   8.085   9.354   4.455  1.9421  1.3065  0.8353
  596MOL0     H78659   8.113   9.547   4.304  0.2175 -0.3322 -0.9014
  596MOL0     H78660   7.874   9.925   4.156  0.6354 -0.0338 -1.6521
  596MOL0     H78661   7.889  10.118   4.019  0.6521  0.3660 -3.1249
  596MOL0     H78662   7.985  10.229   3.858 -2.4180  0.3946  1.2272
  596MOL0     H78663   8.093  10.354   3.809  0.0068  1.4216 -0.2000
  596MOL0     H78664   7.905  10.418   4.021 -1.1063 -2.3543 -1.0597
  596MOL0     H78665   8.020  10.517   3.940  0.6304 -0.3726 -3.3456
  596MOL0     H78666   7.903  10.554   3.745  0.6484  0.8117  0.9026
  596MOL0     H78667   7.770  10.536   3.861  0.5524  3.1268 -3.1682
  596MOL0     H78668   7.709  10.424   3.659  2.3579  3.7692 -0.2657
  596MOL0     H78669   7.858  10.353   3.632 -2.0885  0.4735 -1.7189
  596MOL0     H78670   7.614  10.106   3.908  2.3710 -2.0577  1.6034
  596MOL0     H78671   8.255  10.229   4.197 -1.3603  0.3198 -3.1614
  596MOL0     H78672   8.229  10.005   4.356 -2.2099  1.1264  2.2824
  597MOL0     O78673   0.805   5.065   0.201  0.9097 -0.3229  0.4685
  597MOL0     C78674   0.881   5.117   0.124 -0.1833  0.1832 -0.2246
  597MOL0     O78675   0.868   5.251   0.076  0.2351 -0.1420 -0.1593
  597MOL0     C78676   0.769   5.334   0.118  0.4394  1.0141  0.1880
  597MOL0     C78677   0.772   5.416   0.234  0.2356  0.0131  0.3119
  597MOL0     C78678   0.672   5.505   0.255 -0.2089 -0.4353  1.3458
  597MOL0     C78679   0.552   5.504   0.175 -0.9685  0.3129 -0.2666
  597MOL0     O78680   0.445   5.577   0.197 -0.0378 -0.7644  0.4578
  597MOL0     C78681   0.397   5.620   0.326 -0.8528 -0.1547 -0.1347
  597MOL0     C78682   0.250   5.663   0.321 -0.6423 -0.0713  0.9610
  597MOL0     C78683   0.207   5.790   0.237  0.3027 -0.2146 -0.2257
  597MOL0     C78684   0.089   5.870   0.283  0.4234  0.9426  0.3110
  597MOL0     C78685   0.102   5.959   0.402 -0.5747 -0.1348 -1.2576
  597MOL0     C78686  -0.032   6.026   0.447  1.0446 -0.1026  0.2603
  597MOL0     C78687   0.002   6.146   0.536  0.4495  0.6002 -0.0456
  597MOL0     C78688   0.003   6.117   0.680  0.2130 -0.5222 -1.0157
  597MOL0     N78689  -0.118   6.046   0.732 -0.0995  0.2040 -0.2899
  597MOL0     C78690  -0.249   6.063   0.694 -0.2798  0.0727  0.1785
  597MOL0     C78691  -0.323   5.999   0.781  0.0621 -0.5650  0.2379
  597MOL0     C78692  -0.468   6.010   0.784 -0.2771  0.6990 -0.4969
  597MOL0     C78693  -0.497   6.126   0.881  0.8067 -0.2104 -0.2283
  597MOL0     C78694  -0.651   6.141   0.907 -0.7050  0.5856  0.0004
  597MOL0     C78695  -0.731   6.213   0.797  0.0359 -0.0358  0.3967
  597MOL0     O78696  -0.861   6.226   0.856 -0.2261 -0.2596 -0.2406
  597MOL0     C78697  -0.878   6.339   0.938  1.0728 -0.5825  0.1282
  597MOL0     C78698  -0.880   6.318   1.079  0.7738  0.2614  0.5879
  597MOL0     C78699  -0.881   6.435   1.159  0.1695  0.7302 -0.3432
  597MOL0     C78700  -0.890   6.568   1.113 -0.0597 -0.4830  0.3850
  597MOL0     C78701  -0.876   6.681   1.211  0.2131  0.5525 -0.2637
  597MOL0     O78702  -0.873   6.803   1.157  0.4124 -0.2301 -0.8173
  597MOL0     C78703  -0.924   6.900   1.235  0.4851  0.2441 -0.0341
  597MOL0     C78704  -0.868   6.944   1.358 -0.9510  0.0328  1.4110
  597MOL0     C78705  -0.924   7.053   1.412 -0.1617 -0.3979  0.1281
  597MOL0     C78706  -1.044   7.117   1.367 -0.0771  0.1108 -0.2775
  597MOL0     O78707  -1.091   7.216   1.449  0.0814 -0.4084 -0.5999
  597MOL0     C78708  -1.232   7.212   1.478  0.1298  0.0205  0.0158
  597MOL0     C78709  -1.275   7.315   1.590  0.2507  0.8163 -0.5848
  597MOL0     C78710  -1.193   7.296   1.720 -0.5991  0.8284  0.7186
  597MOL0     C78711  -1.268   7.214   1.816  0.4417 -0.2633  0.1886
  597MOL0     C78712  -1.185   7.168   1.939  0.8399 -0.8542 -0.2398
  597MOL0     C78713  -1.267   7.083   2.031  0.9110 -0.0178  0.4558
  597MOL0     C78714  -1.199   7.062   2.167  0.1929  0.0868  0.1478
  597MOL0     C78715  -1.069   6.981   2.168  0.6393 -0.3614 -0.3115
  597MOL0    Cl78716  -1.098   6.801   2.184 -0.1444  0.6581 -0.2751
  597MOL0     C78717  -1.104   7.076   1.246  0.2069 -0.0231 -0.3209
  597MOL0     C78718  -1.042   6.970   1.191 -0.2146 -0.3122  0.1892
  597MOL0     O78719  -0.889   6.653   1.331  0.7137  0.2916  0.1127
  597MOL0     C78720  -0.897   6.578   0.976 -0.1662  1.2289 -0.0627
  597MOL0     C78721  -0.884   6.465   0.890 -0.6900 -0.9791 -0.1838
  597MOL0     N78722  -0.242   5.937   0.867  0.5181  0.5134 -0.8423
  597MOL0     N78723  -0.120   5.963   0.846  0.9855 -0.3440  0.6833
  597MOL0     C78724   0.549   5.424   0.067 -0.8823 -0.0951 -0.2613
  597MOL0     C78725   0.665   5.344   0.031  0.5213  0.3421  0.2249
  597MOL0     C78726   1.015   5.041   0.107 -1.0390 -0.1123 -0.8352
  597MOL0     C78727   1.033   4.907   0.155  0.2446 -0.1644  0.6695
  597MOL0     C78728   1.152   4.843   0.156 -0.7691 -0.5390  0.8440
  597MOL0     C78729   1.260   4.903   0.085 -0.9182 -0.0136  0.3290
  597MOL0     O78730   1.367   4.825   0.069 -0.6488  0.3189  0.6801
  597MOL0     C78731   1.431   4.834  -0.054  1.7718  0.3252  0.7614
  597MOL0     C78732   1.555   4.744  -0.073  0.7036  0.3824  0.6693
  597MOL0     C78733   1.681   4.791  -0.004  0.3718 -0.0767  0.9123
  597MOL0     C78734   1.774   4.855  -0.105 -0.0721  0.8342  0.5188
  597MOL0     C78735   1.860   4.755  -0.160 -1.0621  0.5091 -0.8461
  597MOL0     C78736   1.921   4.663  -0.205 -0.1940  0.0295  0.0302
  597MOL0     C78737   1.252   5.034   0.032  0.8566 -0.9124  0.6321
  597MOL0     C78738   1.130   5.102   0.044 -0.4102  0.2129 -0.3636
  597MOL0     H78739   0.856   5.412   0.303  0.2185 -0.2147  0.3189
  597MOL0     H78740   0.669   5.561   0.348 -0.7563  0.8861  0.5722
  597MOL0     H78741   0.457   5.700   0.371  2.4353 -0.6757 -3.1363
  597MOL0     H78742   0.405   5.525   0.381 -0.4303 -1.3559 -2.1776
  597MOL0     H78743   0.223   5.679   0.426 -1.1290 -1.3064  1.0392
  597MOL0     H78744   0.193   5.579   0.281 -1.6761  0.8588  0.4365
  597MOL0     H78745   0.190   5.764   0.132  1.0941 -0.5383 -0.2888
  597MOL0     H78746   0.288   5.863   0.227  2.4373 -2.7030 -3.6750
  597MOL0     H78747   0.069   5.943   0.205 -0.7066  3.5036  2.7978
  597MOL0     H78748   0.011   5.794   0.293  0.0822  1.3059  0.4193
  597MOL0     H78749   0.169   6.040   0.371  2.2443 -3.3747 -4.5203
  597MOL0     H78750   0.149   5.910   0.487 -2.3959  0.8564  0.3947
  597MOL0     H78751  -0.093   5.949   0.496  1.6277 -1.5921 -1.2361
  597MOL0     H78752  -0.089   6.056   0.359 -0.8958 -0.2211  1.4064
  597MOL0     H78753   0.104   6.179   0.515  0.1595  1.1867 -0.5704
  597MOL0     H78754  -0.057   6.231   0.502 -0.4868  0.0717  0.2233
  597MOL0     H78755   0.016   6.212   0.732 -1.4094 -0.4096 -0.7464
  597MOL0     H78756   0.096   6.062   0.696  0.3298  0.2866  1.5493
  597MOL0     H78757  -0.289   6.126   0.615  0.2828  0.9901  0.6221
  597MOL0     H78758  -0.498   5.917   0.833 -2.6808  1.8097  0.2943
  597MOL0     H78759  -0.517   6.017   0.686  2.1960 -0.2762 -1.8786
  597MOL0     H78760  -0.462   6.223   0.845 -1.4472 -0.1086 -2.4295
  597MOL0     H78761  -0.451   6.108   0.978 -1.7347 -0.1131  1.0788
  597MOL0     H78762  -0.701   6.044   0.919  0.7673 -0.1781  0.2230
  597MOL0     H78763  -0.649   6.202   0.997  0.1143 -0.6087  0.8228
  597MOL0     H78764  -0.731   6.154   0.705 -3.8580  0.5994 -0.1584
  597MOL0     H78765  -0.694   6.312   0.768  0.2541  0.6082  2.6390
  597MOL0     H78766  -0.863   6.219   1.119 -0.3568 -0.3938 -0.4915
  597MOL0     H78767  -0.877   6.435   1.268 -0.3407  1.7024 -0.3111
  597MOL0     H78768  -0.778   6.901   1.399 -0.5977 -2.3757 -1.5475
  597MOL0     H78769  -0.870   7.082   1.502  1.3173  0.1296 -0.8946
  597MOL0     H78770  -1.260   7.110   1.507  0.3225  0.6246  2.5670
  597MOL0     H78771  -1.275   7.245   1.383  0.4762  0.4838  0.0192
  597MOL0     H78772  -1.384   7.319   1.590  0.1581 -0.1164 -3.3525
  597MOL0     H78773  -1.243   7.417   1.563  1.1493  0.8769  0.6105
  597MOL0     H78774  -1.174   7.389   1.775 -0.8676  0.9522  0.6075
  597MOL0     H78775  -1.098   7.248   1.697 -0.0868  0.7215  2.8800
  597MOL0     H78776  -1.365   7.262   1.835 -0.1258 -0.8634 -1.0933
  597MOL0     H78777  -1.303   7.121   1.771  0.8173 -0.1356 -0.3694
  597MOL0     H78778  -1.159   7.260   1.991 -0.0970 -1.4712  1.3988
  597MOL0     H78779  -1.095   7.118   1.901 -0.2575 -2.0434 -1.3618
  597MOL0     H78780  -1.272   6.981   1.991 -5.5408 -0.3914  1.1983
  597MOL0     H78781  -1.371   7.114   2.038  1.4476  2.5083 -1.5488
  597MOL0     H78782  -1.175   7.161   2.207 -3.2194  1.1201 -0.0762
  597MOL0     H78783  -1.274   7.011   2.228 -0.6541  0.9223 -0.1643
  597MOL0     H78784  -1.010   7.019   2.252 -3.3580  3.6443  1.1389
  597MOL0     H78785  -1.012   7.003   2.078  0.2784  0.7623 -0.2860
  597MOL0     H78786  -1.193   7.127   1.210 -0.5563 -1.9039 -1.2048
  597MOL0     H78787  -1.079   6.937   1.095  0.8155  1.3749 -0.8512
  597MOL0     H78788  -0.918   6.673   0.930 -5.1036  1.8327  2.7050
  597MOL0     H78789  -0.882   6.496   0.786 -4.1747 -1.4728 -0.5421
  597MOL0     H78790   0.465   5.427  -0.001 -0.5930 -1.9320 -0.7530
  597MOL0     H78791   0.655   5.287  -0.061  1.5223 -2.4758  1.7186
  597MOL0     H78792   0.941   4.860   0.189  0.2409 -1.0487 -0.4960
  597MOL0     H78793   1.144   4.738   0.186  1.1458 -1.2461 -0.9114
  597MOL0     H78794   1.454   4.938  -0.079 -1.9011  0.9507 -0.6367
  597MOL0     H78795   1.351   4.797  -0.118 -1.1515  0.5394  3.9860
  597MOL0     H78796   1.531   4.653  -0.016 -3.9893  1.7966  1.3623
  597MOL0     H78797   1.564   4.733  -0.181 -2.5239 -0.8548  0.4280
  597MOL0     H78798   1.732   4.708   0.044 -1.1948 -1.4767  0.2682
  597MOL0     H78799   1.657   4.863   0.075  0.8654  2.5369 -1.1560
  597MOL0     H78800   1.726   4.910  -0.187 -0.5987  1.2326  1.0759
  597MOL0     H78801   1.831   4.931  -0.050  0.3264  0.6271  0.3909
  597MOL0     H78802   1.979   4.588  -0.256 -0.0799  0.5872 -0.6577
  597MOL0     H78803   1.332   5.086  -0.021 -1.4970 -0.1527 -2.4962
  597MOL0     H78804   1.130   5.204   0.008  0.1115  0.3960  0.1243
  598MOL0     O78805  11.249   5.791   0.159 -0.0711  0.1952 -0.3323
  598MOL0     C78806  11.217   5.703   0.069 -0.3363 -1.1366 -0.9141
  598MOL0     O78807  11.171   5.583   0.094 -0.6778  0.2923  0.1021
  598MOL0     C78808  11.153   5.553   0.229  0.6943 -0.6656 -1.4416
  598MOL0     C78809  11.240   5.547   0.335 -0.4329  0.1544  0.3155
  598MOL0     C78810  11.200   5.526   0.465 -0.0385 -0.1558 -0.7730
  598MOL0     C78811  11.066   5.520   0.500 -1.6192 -1.1309 -0.1705
  598MOL0     O78812  11.024   5.500   0.623  0.4361  0.2833  0.1003
  598MOL0     C78813  11.096   5.558   0.728 -0.2062 -0.6900 -0.1425
  598MOL0     C78814  11.031   5.494   0.852  0.3093 -1.2827  0.1023
  598MOL0     C78815  11.074   5.558   0.995  0.4451  0.6551  0.3131
  598MOL0     C78816  10.996   5.676   1.048  0.6703 -0.3812  0.0962
  598MOL0     C78817  11.085   5.756   1.144 -0.7671  1.6070  0.9047
  598MOL0     C78818  11.060   5.702   1.286  0.1135  0.0596 -0.0901
  598MOL0     C78819  11.153   5.774   1.381 -0.4729  0.2025  0.0099
  598MOL0     C78820  11.289   5.782   1.341 -0.2903 -0.1429 -1.3541
  598MOL0     N78821  11.341   5.650   1.288 -0.0599  0.3748 -0.7373
  598MOL0     C78822  11.350   5.525   1.357  0.1289  0.6243 -0.1853
  598MOL0     C78823  11.429   5.445   1.278  0.2560 -0.8619 -0.3521
  598MOL0     C78824  11.457   5.305   1.308 -1.7587  0.6205  0.2772
  598MOL0     C78825  11.576   5.296   1.398 -0.2513 -0.6543 -0.3130
  598MOL0     C78826  11.610   5.152   1.433  0.4613 -1.0331 -0.1814
  598MOL0     C78827  11.751   5.135   1.485  0.5515  0.2576  0.7925
  598MOL0     O78828  11.826   5.138   1.362 -0.1362  0.2416  0.0821
  598MOL0     C78829  11.965   5.145   1.367  0.7180 -0.0108 -0.2420
  598MOL0     C78830  12.040   5.150   1.247  0.1296 -0.6355  0.4235
  598MOL0     C78831  12.177   5.123   1.243  0.4747 -0.3815 -0.0115
  598MOL0     C78832  12.234   5.089   1.365 -0.0383  0.3189  1.0408
  598MOL0     C78833  12.382   5.054   1.364 -0.3316 -0.8701 -0.2811
  598MOL0     O78834  12.438   4.996   1.476  0.2607 -0.1526 -0.2419
  598MOL0     C78835  12.568   4.960   1.488 -0.9482 -0.4301 -1.1511
  598MOL0     C78836  12.632   4.865   1.413 -0.5199 -0.7080  0.2725
  598MOL0     C78837  12.764   4.837   1.431  0.2883  0.3738  0.4599
  598MOL0     C78838  12.840   4.896   1.536  0.1779  0.0723  0.3388
  598MOL0     O78839  12.970   4.850   1.551  0.2670  0.0605 -0.5051
  598MOL0     C78840  13.021   4.808   1.675  0.1011 -0.3364  0.3589
  598MOL0     C78841  13.164   4.789   1.664 -0.2733  0.1062 -0.1742
  598MOL0     C78842  13.216   4.708   1.780 -0.6388  0.1299 -0.3919
  598MOL0     C78843  13.313   4.584   1.758  0.7021 -0.8078 -1.1010
  598MOL0     C78844  13.350   4.515   1.893  0.7591  0.2680  0.0636
  598MOL0     C78845  13.342   4.360   1.881 -0.6292 -0.0880 -0.0282
  598MOL0     C78846  13.364   4.284   2.012  0.0824  0.0833  0.3461
  598MOL0     C78847  13.332   4.127   1.993 -0.2750  0.3592  0.4317
  598MOL0    Cl78848  13.166   4.089   2.017  0.6451  0.3553  0.2769
  598MOL0     C78849  12.777   4.995   1.605 -0.3835  0.1822  0.0312
  598MOL0     C78850  12.646   5.029   1.583 -0.7648 -1.0945 -0.5802
  598MOL0     O78851  12.446   5.092   1.262  0.3383 -0.8752  0.6712
  598MOL0     C78852  12.167   5.092   1.485  0.2708  1.1065 -0.8919
  598MOL0     C78853  12.029   5.112   1.487  0.0989  0.1365  0.4098
  598MOL0     N78854  11.464   5.514   1.168  0.3527  0.0101  0.9176
  598MOL0     N78855  11.413   5.640   1.177  0.4365  0.0812  0.1674
  598MOL0     C78856  10.973   5.522   0.390  0.7258  0.3855 -0.1588
  598MOL0     C78857  11.017   5.542   0.261 -0.1573  0.6814 -0.9904
  598MOL0     C78858  11.241   5.738  -0.072 -0.7000 -1.2243 -0.3700
  598MOL0     C78859  11.198   5.663  -0.177  0.9755 -1.3209  0.6849
  598MOL0     C78860  11.208   5.710  -0.306  0.0434 -0.8351 -0.3561
  598MOL0     C78861  11.268   5.835  -0.338 -0.4788  0.5470 -0.9022
  598MOL0     O78862  11.272   5.899  -0.459 -0.2407 -0.0863  0.8227
  598MOL0     C78863  11.208   5.836  -0.571 -0.2072  0.4749 -0.7470
  598MOL0     C78864  11.286   5.730  -0.652 -0.9989  0.6859  1.0883
  598MOL0     C78865  11.414   5.795  -0.711  0.1771 -0.1727 -0.7322
  598MOL0     C78866  11.381   5.901  -0.814  0.0836  0.3428  0.3738
  598MOL0     C78867  11.305   5.840  -0.927  0.9702  0.0776 -0.0267
  598MOL0     C78868  11.244   5.803  -1.024 -1.2497  0.7390 -0.2581
  598MOL0     C78869  11.324   5.907  -0.233 -0.0711  0.5602 -0.2197
  598MOL0     C78870  11.300   5.859  -0.097  0.1234 -0.8596 -0.4923
  598MOL0     H78871  11.341   5.575   0.308 -0.2023 -1.3960 -0.5310
  598MOL0     H78872  11.283   5.512   0.534  1.1543 -5.5539 -2.8179
  598MOL0     H78873  11.080   5.666   0.722  3.9453  0.0473 -1.9825
  598MOL0     H78874  11.204   5.552   0.742 -0.5212 -0.5992  3.0955
  598MOL0     H78875  11.054   5.387   0.852  4.5795 -0.5433  1.0664
  598MOL0     H78876  10.923   5.507   0.837  0.2347 -0.2982  1.2624
  598MOL0     H78877  11.179   5.584   0.983  1.1702 -2.1332  0.0396
  598MOL0     H78878  11.088   5.481   1.071  3.4717 -0.4971 -1.2468
  598MOL0     H78879  10.975   5.737   0.960  4.7043 -0.4041 -1.0615
  598MOL0     H78880  10.900   5.642   1.089  1.1171 -1.4014  0.3371
  598MOL0     H78881  11.061   5.862   1.134 -1.7442  1.3995  0.9323
  598MOL0     H78882  11.188   5.740   1.114 -1.2134 -0.3793  0.2898
  598MOL0     H78883  11.087   5.596   1.289 -1.4442 -0.4004 -1.0738
  598MOL0     H78884  10.959   5.713   1.328  0.7155  3.0518  0.8071
  598MOL0     H78885  11.120   5.874   1.412 -2.0273  0.5128 -2.4347
  598MOL0     H78886  11.159   5.720   1.476 -0.8700  0.6346  0.2877
  598MOL0     H78887  11.353   5.808   1.427 -1.8295  0.1234 -0.2435
  598MOL0     H78888  11.309   5.854   1.261  1.4960  0.4175 -0.4633
  598MOL0     H78889  11.321   5.501   1.459 -0.6644  1.5579 -0.1741
  598MOL0     H78890  11.491   5.266   1.212  1.5518  3.2545  0.1818
  598MOL0     H78891  11.360   5.264   1.339 -0.8381  0.5619  3.4991
  598MOL0     H78892  11.553   5.343   1.494 -1.3776 -4.8155  1.6852
  598MOL0     H78893  11.658   5.358   1.360 -0.5024  0.7010  1.2260
  598MOL0     H78894  11.537   5.120   1.508  0.4259 -0.9207 -0.1674
  598MOL0     H78895  11.599   5.083   1.349 -2.3393 -0.1054 -0.6828
  598MOL0     H78896  11.762   5.041   1.539 -3.7970 -0.1851  1.2549
  598MOL0     H78897  11.776   5.221   1.548 -1.0642  1.4456 -0.1218
  598MOL0     H78898  11.989   5.170   1.153  1.7474 -0.3410 -0.4488
  598MOL0     H78899  12.236   5.110   1.153  2.1568 -1.4417  1.1750
  598MOL0     H78900  12.593   4.810   1.327  2.4855  0.0099 -1.6982
  598MOL0     H78901  12.816   4.762   1.373 -2.2273  0.3737 -2.0013
  598MOL0     H78902  12.971   4.714   1.701 -1.4112 -0.0779 -1.3727
  598MOL0     H78903  13.009   4.881   1.756  1.6311 -0.3724  0.6362
  598MOL0     H78904  13.221   4.881   1.649 -0.8106  0.2162 -1.7408
  598MOL0     H78905  13.190   4.731   1.574 -0.5027 -0.2051 -0.0413
  598MOL0     H78906  13.129   4.666   1.831 -1.1827  1.0623 -0.5432
  598MOL0     H78907  13.260   4.778   1.852  3.7165 -0.4170 -2.1777
  598MOL0     H78908  13.264   4.524   1.681  1.9659 -2.6394 -0.5254
  598MOL0     H78909  13.414   4.618   1.732  0.8503  0.3803  0.8248
  598MOL0     H78910  13.285   4.547   1.975  0.3861 -4.9112  2.1633
  598MOL0     H78911  13.450   4.544   1.924  0.0177  0.3892  2.5532
  598MOL0     H78912  13.426   4.310   1.831 -0.1305  0.5432  0.1764
  598MOL0     H78913  13.250   4.326   1.832 -0.5565 -0.7629  0.2945
  598MOL0     H78914  13.465   4.298   2.051 -0.1974  1.4827  0.6201
  598MOL0     H78915  13.293   4.334   2.079 -1.0321 -2.2582  1.0297
  598MOL0     H78916  13.386   4.070   2.069  3.1635 -0.5767 -2.4066
  598MOL0     H78917  13.363   4.092   1.894 -2.0474  1.3835 -0.5250
  598MOL0     H78918  12.830   5.039   1.689  2.4054  2.2655 -2.5874
  598MOL0     H78919  12.596   5.096   1.652 -2.8441 -3.4789  0.4001
  598MOL0     H78920  12.215   5.084   1.582  1.5431  4.0319 -1.1997
  598MOL0     H78921  11.982   5.092   1.583  0.1036  0.6204  0.5170
  598MOL0     H78922  10.865   5.517   0.398  0.7277  1.4085  0.8094
  598MOL0     H78923  10.936   5.542   0.189  0.4621 -2.3410 -1.8564
  598MOL0     H78924  11.151   5.566  -0.162 -1.8964 -0.1413  0.1419
  598MOL0     H78925  11.158   5.644  -0.375 -2.5340  2.6773 -2.1946
  598MOL0     H78926  11.185   5.920  -0.637 -4.3794  1.4800  1.6264
  598MOL0     H78927  11.114   5.796  -0.533 -0.1473 -0.4576 -1.5294
  598MOL0     H78928  11.315   5.652  -0.581  4.0927  0.2297 -1.0382
  598MOL0     H78929  11.222   5.686  -0.729  0.1155  1.7211 -0.4987
  598MOL0     H78930  11.468   5.717  -0.767 -0.7772  0.3221 -2.4348
  598MOL0     H78931  11.480   5.841  -0.637 -0.9610 -0.8668  0.7538
  598MOL0     H78932  11.329   5.990  -0.777 -0.2851 -0.3877  1.6689
  598MOL0     H78933  11.476   5.933  -0.857  0.6530 -2.4346 -0.6634
  598MOL0     H78934  11.186   5.780  -1.112 -2.0469 -2.6279  0.9732
  598MOL0     H78935  11.371   6.002  -0.253  0.7104  0.4905  1.1326
  598MOL0     H78936  11.335   5.918  -0.013 -0.0169 -2.4394  0.7056
  599MOL0     O78937   4.004   8.669   4.284  0.1635 -0.4763  0.8943
  599MOL0     C78938   4.000   8.541   4.267 -0.1188  0.1280  0.1959
  599MOL0     O78939   4.065   8.445   4.346  0.6403  0.2513  0.3944
  599MOL0     C78940   4.132   8.483   4.458 -0.1819 -0.2998 -0.1593
  599MOL0     C78941   4.236   8.569   4.448 -0.1274 -0.3402 -0.2727
  599MOL0     C78942   4.306   8.613   4.560 -1.1991 -0.2651 -0.4875
  599MOL0     C78943   4.270   8.553   4.681  0.1234 -1.2704  0.1591
  599MOL0     O78944   4.322   8.600   4.798  0.4922  0.4573 -0.2831
  599MOL0     C78945   4.453   8.556   4.836  0.1968  0.5950 -0.2728
  599MOL0     C78946   4.562   8.625   4.764  0.1969 -0.6338 -0.6796
  599MOL0     C78947   4.692   8.637   4.849 -0.1039 -0.5863 -0.3680
  599MOL0     C78948   4.681   8.728   4.971  0.2876 -0.6205  0.2905
  599MOL0     C78949   4.814   8.752   5.028  0.5029  0.7270 -0.4884
  599MOL0     C78950   4.838   8.702   5.179 -0.3661 -0.1735 -0.5546
  599MOL0     C78951   4.979   8.738   5.236  0.5246 -0.0601 -0.5581
  599MOL0     C78952   4.963   8.827   5.359  0.5437 -0.4979 -0.3744
  599MOL0     N78953   5.084   8.914   5.362  0.3080  0.2051  0.8635
  599MOL0     C78954   5.159   8.962   5.254 -0.1888 -0.0405 -0.3963
  599MOL0     C78955   5.243   9.050   5.310 -0.6383  1.0931 -0.3882
  599MOL0     C78956   5.347   9.129   5.235  0.2910  0.5085 -0.0120
  599MOL0     C78957   5.445   9.213   5.321 -0.0183 -0.1803 -0.6068
  599MOL0     C78958   5.581   9.242   5.255 -0.2336 -0.6134 -0.6518
  599MOL0     C78959   5.661   9.350   5.329  0.7366  0.1792 -0.3795
  599MOL0     O78960   5.646   9.475   5.268 -0.0647 -0.0866  0.0454
  599MOL0     C78961   5.670   9.583   5.356 -0.3079  0.8510 -0.3926
  599MOL0     C78962   5.719   9.572   5.488  0.8721  0.4240 -0.3993
  599MOL0     C78963   5.739   9.684   5.564  0.8254  0.5135 -0.9116
  599MOL0     C78964   5.720   9.814   5.511 -0.2502  0.3831  0.2704
  599MOL0     C78965   5.739   9.924   5.600 -0.7029  0.8854 -0.8130
  599MOL0     O78966   5.781   9.896   5.726  0.0301  0.0757  0.7636
  599MOL0     C78967   5.851   9.994   5.793 -0.6189 -0.4505  0.2022
  599MOL0     C78968   5.953  10.076   5.740 -0.0898 -0.0607 -0.5295
  599MOL0     C78969   6.027  10.157   5.825 -0.9178  0.9110 -0.1777
  599MOL0     C78970   5.996  10.161   5.963 -0.4760 -0.5740  0.1148
  599MOL0     O78971   6.089  10.227   6.037  0.3419 -0.3669  0.3156
  599MOL0     C78972   6.042  10.317   6.137  0.1097  0.5189 -1.0260
  599MOL0     C78973   6.099  10.262   6.267  0.8684  0.3532 -0.0519
  599MOL0     C78974   6.253  10.262   6.276 -0.3436  0.6386 -0.7918
  599MOL0     C78975   6.290  10.411   6.319  0.4108 -0.5770  0.0301
  599MOL0     C78976   6.440  10.415   6.322 -0.3065  0.2426 -0.2221
  599MOL0     C78977   6.498  10.510   6.433 -0.0828 -1.0112  0.7308
  599MOL0     C78978   6.651  10.499   6.440  0.3549  0.1614 -0.1025
  599MOL0     C78979   6.715  10.615   6.534 -1.4458  0.7426  0.4374
  599MOL0    Cl78980   6.657  10.779   6.486  0.1947 -0.7804  0.3274
  599MOL0     C78981   5.902  10.078   6.014  0.3160 -0.8068 -0.1091
  599MOL0     C78982   5.831   9.994   5.925  0.6617 -0.3206  0.2602
  599MOL0     O78983   5.729  10.037   5.558 -0.0887 -0.2232  0.0475
  599MOL0     C78984   5.666   9.825   5.379  0.2018  0.0798 -1.3698
  599MOL0     C78985   5.644   9.706   5.309 -0.5694  0.1435  0.1603
  599MOL0     N78986   5.223   9.057   5.444  0.3032  0.1785 -0.4734
  599MOL0     N78987   5.122   8.983   5.475 -0.9618  0.6322 -0.3800
  599MOL0     C78988   4.175   8.452   4.699 -0.2206 -0.5620  0.6331
  599MOL0     C78989   4.110   8.414   4.581  0.1276  0.1240 -0.5016
  599MOL0     C78990   3.917   8.492   4.148  0.1178  0.3171 -0.2293
  599MOL0     C78991   3.898   8.352   4.121 -0.6206  0.2398 -0.0671
  599MOL0     C78992   3.812   8.314   4.015  0.2856 -0.4479  1.5277
  599MOL0     C78993   3.752   8.413   3.934 -0.0551  0.3651 -0.4135
  599MOL0     O78994   3.661   8.373   3.845  0.4579 -0.4344  0.6930
  599MOL0     C78995   3.675   8.439   3.716  0.9986 -0.0563 -0.7905
  599MOL0     C78996   3.795   8.394   3.643 -0.2837 -0.0129 -0.2017
  599MOL0     C78997   3.815   8.466   3.512 -0.2751  0.2535 -0.0466
  599MOL0     C78998   3.920   8.401   3.417 -0.3122  0.6287  0.1137
  599MOL0     C78999   3.875   8.268   3.376  0.6433 -0.2371 -1.0762
  599MOL0     C79000   3.835   8.152   3.372 -0.5910 -0.5740 -0.2328
  599MOL0     C79001   3.773   8.549   3.964 -0.1500  1.0871 -0.2948
  599MOL0     C79002   3.864   8.593   4.064  0.4551  0.4981 -0.0514
  599MOL0     H79003   4.258   8.607   4.348  4.1195 -3.2488 -0.6995
  599MOL0     H79004   4.394   8.676   4.567  0.5366 -2.6875  3.1728
  599MOL0     H79005   4.475   8.449   4.829  3.0271  1.0630  0.2171
  599MOL0     H79006   4.451   8.557   4.945 -1.1742 -0.2822 -0.2568
  599MOL0     H79007   4.519   8.724   4.749  2.0454  0.2591 -0.3045
  599MOL0     H79008   4.574   8.577   4.667 -1.3986 -2.1358 -0.1938
  599MOL0     H79009   4.777   8.657   4.784  0.2809 -0.4063  0.1768
  599MOL0     H79010   4.724   8.540   4.888  1.1728  0.9321  2.8234
  599MOL0     H79011   4.643   8.826   4.942 -0.7939 -1.4383 -1.2070
  599MOL0     H79012   4.612   8.681   5.042  1.1151 -1.2964  0.6709
  599MOL0     H79013   4.828   8.860   5.031 -3.7630  1.4581  1.9799
  599MOL0     H79014   4.893   8.705   4.968  1.2132 -3.0780  2.9207
  599MOL0     H79015   4.821   8.594   5.187 -1.2589 -0.2944 -3.0406
  599MOL0     H79016   4.754   8.749   5.231 -0.4251 -0.8805  0.0117
  599MOL0     H79017   5.008   8.644   5.284 -0.1836  0.0932  0.1767
  599MOL0     H79018   5.033   8.772   5.147  0.0983 -1.1721 -1.2648
  599MOL0     H79019   4.942   8.778   5.454 -1.2478  2.1669  0.7384
  599MOL0     H79020   4.874   8.889   5.342  0.8339 -0.1261 -0.5640
  599MOL0     H79021   5.147   8.936   5.149 -0.5038 -2.0471  0.0831
  599MOL0     H79022   5.292   9.205   5.179 -1.8343  0.7256  2.1717
  599MOL0     H79023   5.402   9.058   5.173 -0.1535  0.7785 -0.7234
  599MOL0     H79024   5.455   9.158   5.415 -1.0991 -0.5478 -0.6946
  599MOL0     H79025   5.381   9.299   5.345 -0.8874 -1.2403  1.0685
  599MOL0     H79026   5.650   9.157   5.257 -0.3967 -0.7996 -1.9495
  599MOL0     H79027   5.574   9.283   5.154  0.6351 -2.8535 -1.6888
  599MOL0     H79028   5.767   9.324   5.325  1.2664  2.2089 -1.0993
  599MOL0     H79029   5.624   9.356   5.432  0.0518  2.9094 -0.6942
  599MOL0     H79030   5.742   9.475   5.532  1.3523  0.8937  0.4130
  599MOL0     H79031   5.768   9.679   5.668  0.9609 -0.5320 -0.9922
  599MOL0     H79032   5.983  10.081   5.636 -1.7510  3.1108 -0.9842
  599MOL0     H79033   6.111  10.214   5.786 -0.8400 -1.3646 -3.7210
  599MOL0     H79034   5.933  10.317   6.141 -0.0019  0.6216 -3.2650
  599MOL0     H79035   6.080  10.419   6.125  0.0826  0.7087  0.3387
  599MOL0     H79036   6.058  10.164   6.292  3.1697 -0.0199  2.6848
  599MOL0     H79037   6.056  10.318   6.350  3.6858  0.0541  1.7280
  599MOL0     H79038   6.306  10.236   6.184  0.1933  0.4035 -0.4220
  599MOL0     H79039   6.289  10.195   6.355  1.9019  1.2434 -1.2262
  599MOL0     H79040   6.256  10.473   6.235  0.4795 -1.0561 -0.3598
  599MOL0     H79041   6.238  10.435   6.412  1.7514  1.0720  0.4025
  599MOL0     H79042   6.480  10.450   6.226 -1.9662 -0.4970 -1.2295
  599MOL0     H79043   6.480  10.315   6.342  0.2523  0.3072 -0.9395
  599MOL0     H79044   6.475  10.461   6.528 -3.5607 -0.7879  0.1479
  599MOL0     H79045   6.454  10.610   6.426 -0.0600 -1.1165 -1.9232
  599MOL0     H79046   6.679  10.399   6.475  0.6875  0.4121  0.3589
  599MOL0     H79047   6.692  10.499   6.339  1.9220  0.0806  0.5028
  599MOL0     H79048   6.824  10.608   6.532 -1.4295  1.0306 -1.5549
  599MOL0     H79049   6.689  10.609   6.640  2.0346 -0.5469  1.3455
  599MOL0     H79050   5.878  10.093   6.119 -0.9163 -1.4206 -0.2876
  599MOL0     H79051   5.753   9.936   5.974  0.0406 -0.8405 -1.3059
  599MOL0     H79052   5.647   9.923   5.337 -0.9141  0.7627  0.6144
  599MOL0     H79053   5.602   9.711   5.209 -2.3791 -1.1930  0.7931
  599MOL0     H79054   4.141   8.414   4.795 -6.1854 -1.0942 -1.2539
  599MOL0     H79055   4.048   8.325   4.588 -0.8628  0.6468 -2.1074
  599MOL0     H79056   3.961   8.277   4.169  1.2544 -0.1109 -2.8443
  599MOL0     H79057   3.780   8.213   3.995 -1.9932  0.4458  0.2831
  599MOL0     H79058   3.681   8.548   3.723  2.7763 -0.0534 -1.8002
  599MOL0     H79059   3.585   8.409   3.660  0.2768 -0.5212  0.5867
  599MOL0     H79060   3.876   8.412   3.714  0.5609  0.9874 -1.3846
  599MOL0     H79061   3.787   8.286   3.623 -2.2596  0.4685 -2.5677
  599MOL0     H79062   3.844   8.570   3.528  0.8120  0.5458 -3.1923
  599MOL0     H79063   3.723   8.488   3.457  0.2600  4.0868  0.2984
  599MOL0     H79064   3.934   8.459   3.325  0.5657 -1.2350 -0.9828
  599MOL0     H79065   4.005   8.404   3.485 -2.3982  1.3097  2.8837
  599MOL0     H79066   3.810   8.048   3.367 -0.4137 -0.6954  1.0403
  599MOL0     H79067   3.718   8.626   3.910  0.1589  2.2569  0.9973
  599MOL0     H79068   3.903   8.695   4.072  2.0759 -0.1437  0.7174
  600MOL0     O79069   9.111   2.699   1.584 -0.4099  0.0172 -0.6514
  600MOL0     C79070   9.003   2.740   1.571  0.8700 -0.6618 -0.1106
  600MOL0     O79071   8.925   2.720   1.463  0.5425  0.3090  0.2174
  600MOL0     C79072   8.974   2.686   1.345 -0.5903 -0.2298  1.1362
  600MOL0     C79073   9.094   2.716   1.284 -1.0533 -0.1387 -0.8049
  600MOL0     C79074   9.122   2.663   1.149  0.2511 -0.2334 -0.7073
  600MOL0     C79075   9.039   2.576   1.082 -0.8976 -0.5404  0.4618
  600MOL0     O79076   9.074   2.534   0.956  0.1443 -0.1738  0.2021
  600MOL0     C79077   8.992   2.437   0.887  0.0427 -0.6187  0.1519
  600MOL0     C79078   9.089   2.369   0.789 -1.0444  0.4498 -0.1685
  600MOL0     C79079   9.202   2.292   0.867  0.7134  0.2292 -0.1210
  600MOL0     C79080   9.305   2.232   0.769  0.7952  0.3723  1.0681
  600MOL0     C79081   9.410   2.337   0.714 -0.8044 -0.0860  0.9162
  600MOL0     C79082   9.522   2.274   0.620  1.1440  0.9622 -0.4571
  600MOL0     C79083   9.555   2.383   0.517 -0.6094  0.6083  0.3371
  600MOL0     C79084   9.675   2.340   0.423  0.5901 -0.4067 -0.6636
  600MOL0     N79085   9.745   2.457   0.367  0.1164 -0.1204  0.1954
  600MOL0     C79086   9.781   2.576   0.441  0.0009 -0.0059  0.0520
  600MOL0     C79087   9.837   2.662   0.352 -0.3180  1.3441 -0.2507
  600MOL0     C79088   9.885   2.800   0.367 -0.5760  0.0031 -0.7164
  600MOL0     C79089   9.782   2.913   0.362  0.6128  0.4750 -0.2336
  600MOL0     C79090   9.700   2.910   0.506  0.1200  0.6886 -0.1733
  600MOL0     C79091   9.792   2.952   0.628  0.9446 -0.2334 -0.6019
  600MOL0     O79092   9.865   3.072   0.583 -0.9909  0.2366 -0.3197
  600MOL0     C79093   9.974   3.122   0.651 -0.2233  0.0926 -0.2406
  600MOL0     C79094  10.004   3.102   0.788  0.6374  0.1179  0.2278
  600MOL0     C79095  10.136   3.145   0.833  0.9227 -0.3660 -0.4718
  600MOL0     C79096  10.229   3.207   0.753 -0.1093 -0.7562 -0.1177
  600MOL0     C79097  10.367   3.224   0.800 -0.5069  1.0962  1.0441
  600MOL0     O79098  10.385   3.185   0.922 -0.8326 -0.4178 -0.1247
  600MOL0     C79099  10.511   3.193   0.980  0.0545  0.6424 -0.5380
  600MOL0     C79100  10.572   3.308   1.016 -0.4343  0.0524 -0.7455
  600MOL0     C79101  10.686   3.312   1.095 -1.0290 -0.3409 -0.0209
  600MOL0     C79102  10.760   3.190   1.106  0.4249 -0.5584 -0.4202
  600MOL0     O79103  10.864   3.198   1.194 -0.1500 -0.1010 -0.3501
  600MOL0     C79104  10.944   3.078   1.200 -0.9657 -0.1551 -0.0915
  600MOL0     C79105  11.069   3.104   1.292 -0.3169  0.6550  0.5076
  600MOL0     C79106  11.149   2.971   1.294 -0.3007  0.4728 -0.3391
  600MOL0     C79107  11.295   2.984   1.336  0.0768 -0.9449 -0.0437
  600MOL0     C79108  11.345   2.869   1.410  0.1038 -0.0478  0.4264
  600MOL0     C79109  11.497   2.861   1.434 -0.5632 -0.9228 -0.4941
  600MOL0     C79110  11.540   2.798   1.558  0.6254  0.7168 -0.3530
  600MOL0     C79111  11.681   2.741   1.563 -0.9389  0.9776  0.6474
  600MOL0    Cl79112  11.796   2.865   1.497  0.2741  0.6968 -0.2610
  600MOL0     C79113  10.702   3.076   1.065  0.5925  0.5038 -0.1138
  600MOL0     C79114  10.574   3.073   1.002 -1.2139 -1.0831  0.4453
  600MOL0     O79115  10.449   3.291   0.726 -0.0826 -0.6568 -0.2203
  600MOL0     C79116  10.196   3.243   0.626  0.0231  0.5076  0.2833
  600MOL0     C79117  10.067   3.198   0.576 -0.7965  0.5290 -0.0424
  600MOL0     N79118   9.832   2.598   0.227 -0.1834 -0.6093  0.0844
  600MOL0     N79119   9.779   2.473   0.234 -0.5222  0.0138 -0.0361
  600MOL0     C79120   8.913   2.552   1.150 -0.6198 -0.0720 -0.2234
  600MOL0     C79121   8.883   2.610   1.274 -0.4313  0.0606  0.4818
  600MOL0     C79122   8.937   2.825   1.682 -1.5181  0.0983 -0.5335
  600MOL0     C79123   8.824   2.904   1.665 -0.2295  0.3332 -0.8753
  600MOL0     C79124   8.780   2.984   1.770 -0.5735 -1.7030 -0.6031
  600MOL0     C79125   8.855   2.997   1.885  0.3701 -0.2444 -0.2443
  600MOL0     O79126   8.828   3.090   1.986  0.0024  0.5124 -0.2353
  600MOL0     C79127   8.753   3.208   1.971  0.7970  1.1866  0.4140
  600MOL0     C79128   8.838   3.316   2.047  0.8583  0.6769  0.3223
  600MOL0     C79129   8.944   3.387   1.955 -0.2365  0.9424  1.4900
  600MOL0     C79130   9.038   3.473   2.040  0.0170  0.2402  0.0928
  600MOL0     C79131   8.977   3.611   2.064  1.4910 -0.2533  0.0046
  600MOL0     C79132   8.913   3.712   2.091 -0.6813 -0.4522  0.8893
  600MOL0     C79133   8.970   2.918   1.908 -0.4784  1.1850 -0.8853
  600MOL0     C79134   9.010   2.832   1.807  0.0608 -0.0166 -0.3380
  600MOL0     H79135   9.169   2.772   1.338 -2.4736  0.3925  0.6751
  600MOL0     H79136   9.222   2.674   1.108  0.3384 -0.4312 -0.5494
  600MOL0     H79137   8.898   2.481   0.850  0.8470 -0.3957 -1.7445
  600MOL0     H79138   8.953   2.357   0.951 -3.5402  0.0178 -1.0002
  600MOL0     H79139   9.128   2.447   0.722 -3.2015  1.9562  0.2422
  600MOL0     H79140   9.040   2.297   0.723  1.6882 -0.1970 -1.6491
  600MOL0     H79141   9.163   2.210   0.929 -0.7356  1.8848  1.2781
  600MOL0     H79142   9.257   2.352   0.939 -0.2150 -0.8665  1.5752
  600MOL0     H79143   9.371   2.159   0.815  1.2790  0.7457  0.9704
  600MOL0     H79144   9.255   2.187   0.683  0.5964  2.9418 -0.2451
  600MOL0     H79145   9.462   2.400   0.787  3.3771 -1.0714 -0.8780
  600MOL0     H79146   9.356   2.410   0.653 -0.6889 -0.1616  0.7194
  600MOL0     H79147   9.487   2.182   0.573  3.0889  1.6730 -3.5678
  600MOL0     H79148   9.614   2.252   0.673  0.2484 -2.2021 -0.0415
  600MOL0     H79149   9.476   2.410   0.446  1.9049  1.0605 -2.4486
  600MOL0     H79150   9.594   2.465   0.578  0.8946  1.4431 -1.6379
  600MOL0     H79151   9.639   2.276   0.342  0.3674 -1.1505  0.0176
  600MOL0     H79152   9.737   2.277   0.487 -0.6744 -0.8468  0.1614
  600MOL0     H79153   9.766   2.610   0.543 -0.0512 -0.9055  0.3471
  600MOL0     H79154   9.949   2.819   0.280 -2.1773  0.1177 -1.9129
  600MOL0     H79155   9.953   2.804   0.453  1.7133 -1.9728 -2.2781
  600MOL0     H79156   9.715   2.906   0.275  0.3099 -0.3511  0.0525
  600MOL0     H79157   9.836   3.004   0.339  1.2479 -0.1476 -1.2860
  600MOL0     H79158   9.626   2.989   0.499 -0.3694  0.2931  0.5036
  600MOL0     H79159   9.647   2.814   0.507 -0.9846  1.2859  0.2275
  600MOL0     H79160   9.846   2.870   0.677  2.6686 -0.6216 -2.9594
  600MOL0     H79161   9.723   2.981   0.708 -0.8043 -2.1044 -1.3545
  600MOL0     H79162   9.927   3.057   0.850 -1.8547  1.1212 -1.9542
  600MOL0     H79163  10.172   3.122   0.932 -0.9385  4.4414  1.6467
  600MOL0     H79164  10.523   3.399   0.985 -1.9669 -0.7722 -0.8696
  600MOL0     H79165  10.729   3.396   1.149  0.0131  0.1028 -1.4780
  600MOL0     H79166  10.981   3.048   1.102  0.9297  1.4788  0.0628
  600MOL0     H79167  10.877   3.006   1.248 -0.3611  0.5851  1.9927
  600MOL0     H79168  11.040   3.138   1.392 -2.0631  0.0655  0.2284
  600MOL0     H79169  11.136   3.173   1.240  1.2865  0.6695  2.4561
  600MOL0     H79170  11.149   2.914   1.201  6.9019  0.7370 -1.0828
  600MOL0     H79171  11.096   2.918   1.374  0.0315  2.3934  1.2441
  600MOL0     H79172  11.358   2.997   1.248 -2.2690  0.3832 -1.6213
  600MOL0     H79173  11.297   3.063   1.412 -2.0691 -2.0316  1.2489
  600MOL0     H79174  11.321   2.778   1.354  2.0767  0.5023 -1.4304
  600MOL0     H79175  11.290   2.863   1.505 -1.7227  2.8159 -0.3423
  600MOL0     H79176  11.540   2.961   1.425 -2.5710 -0.1944 -3.0362
  600MOL0     H79177  11.536   2.802   1.351  0.4319 -0.0505 -0.6642
  600MOL0     H79178  11.540   2.873   1.638  0.2139  1.6318 -1.1888
  600MOL0     H79179  11.459   2.729   1.582 -1.1739  2.5145 -0.9849
  600MOL0     H79180  11.693   2.647   1.507  1.9054  0.0409  2.6214
  600MOL0     H79181  11.714   2.724   1.666 -0.6243 -1.1493  0.2354
  600MOL0     H79182  10.741   2.977   1.087  0.9818  0.3390 -1.4771
  600MOL0     H79183  10.517   2.985   0.973 -3.6128 -0.7318  3.5158
  600MOL0     H79184  10.267   3.302   0.570  0.2056 -1.2644 -1.4407
  600MOL0     H79185  10.044   3.214   0.471 -0.2942 -0.8822 -0.3870
  600MOL0     H79186   8.844   2.482   1.103 -0.5589 -0.3276  0.0618
  600MOL0     H79187   8.791   2.576   1.320  0.0703 -1.5355  0.3481
  600MOL0     H79188   8.772   2.898   1.570  1.4371 -0.4959 -1.7885
  600MOL0     H79189   8.690   3.043   1.757  2.3454  3.0156 -2.2023
  600MOL0     H79190   8.653   3.199   2.016  0.2159  4.2610 -0.0512
  600MOL0     H79191   8.738   3.241   1.868 -1.8555 -0.4474  0.1556
  600MOL0     H79192   8.765   3.390   2.082 -1.1994 -1.2236  0.2535
  600MOL0     H79193   8.901   3.275   2.127  0.2562 -2.1747 -0.5521
  600MOL0     H79194   8.895   3.444   1.875  1.2862 -1.3140 -1.2348
  600MOL0     H79195   8.998   3.305   1.907  0.0844  0.8882  1.9395
  600MOL0     H79196   9.056   3.425   2.137 -3.3273 -3.3715 -0.7979
  600MOL0     H79197   9.130   3.485   1.983  0.8159 -2.7180  0.6038
  600MOL0     H79198   8.846   3.794   2.105 -2.0093 -1.9317  4.1549
  600MOL0     H79199   9.015   2.932   2.006 -5.2014 -1.3771  2.0473
  600MOL0     H79200   9.108   2.786   1.812  0.3859  0.6144 -0.7596
  601MOL0     O79201   7.386   0.466   2.766  0.3023 -0.5029  0.4516
  601MOL0     C79202   7.361   0.499   2.649  0.6546 -0.2592 -0.3097
  601MOL0     O79203   7.256   0.438   2.569 -0.0391  0.0925 -0.7225
  601MOL0     C79204   7.133   0.413   2.616 -0.2687  0.1664 -0.0065
  601MOL0     C79205   7.056   0.331   2.544  0.9956 -0.7969  1.0468
  601MOL0     C79206   6.925   0.312   2.564 -0.5647  0.6867 -0.2512
  601MOL0     C79207   6.859   0.361   2.673  0.0767 -0.2736 -0.2514
  601MOL0     O79208   6.733   0.319   2.696  0.4158  0.0820  0.1315
  601MOL0     C79209   6.636   0.419   2.744 -0.0682  0.4823 -0.2194
  601MOL0     C79210   6.640   0.556   2.685 -0.6003 -0.5409  0.8661
  601MOL0     C79211   6.544   0.649   2.745 -0.5002  0.8884  0.5327
  601MOL0     C79212   6.536   0.781   2.679 -0.0535 -0.2462 -0.8953
  601MOL0     C79213   6.489   0.890   2.774  0.6748  0.8949  0.5411
  601MOL0     C79214   6.490   1.030   2.692  0.7264 -0.1999  0.1158
  601MOL0     C79215   6.464   1.142   2.784 -0.1887 -0.1801  0.0583
  601MOL0     C79216   6.411   1.262   2.696 -0.0603  0.4269 -0.0627
  601MOL0     N79217   6.367   1.376   2.784 -0.0226 -0.8370 -0.7281
  601MOL0     C79218   6.448   1.469   2.838  0.3912 -0.3179 -0.7214
  601MOL0     C79219   6.365   1.570   2.867 -1.3611 -0.7418  0.0491
  601MOL0     C79220   6.413   1.710   2.874  0.8505 -0.4088 -0.3904
  601MOL0     C79221   6.367   1.793   2.997  0.5096 -0.3712 -0.6490
  601MOL0     C79222   6.434   1.931   3.014 -0.1020  0.2058 -0.9400
  601MOL0     C79223   6.397   2.006   3.138  0.2930 -0.1734 -0.7153
  601MOL0     O79224   6.251   1.996   3.131 -0.7930 -0.2007 -0.0965
  601MOL0     C79225   6.173   2.091   3.184  0.0241 -0.3685 -0.6060
  601MOL0     C79226   6.047   2.111   3.133 -0.0762  1.0892  0.7844
  601MOL0     C79227   5.974   2.221   3.175  0.0255 -0.3052  0.1836
  601MOL0     C79228   6.018   2.314   3.271 -0.6810 -0.0532  1.0325
  601MOL0     C79229   5.931   2.418   3.321  1.1659  0.0189 -1.0508
  601MOL0     O79230   5.976   2.498   3.416 -0.3232  0.8146 -0.3100
  601MOL0     C79231   5.909   2.598   3.488 -1.1850  0.3439 -0.1592
  601MOL0     C79232   5.766   2.616   3.497  0.0241 -0.0550 -0.2707
  601MOL0     C79233   5.718   2.716   3.571 -0.6745  0.0364 -0.2309
  601MOL0     C79234   5.790   2.786   3.649  0.0511 -0.4595  0.9885
  601MOL0     O79235   5.739   2.896   3.716 -0.5453  0.2949  0.2676
  601MOL0     C79236   5.826   3.014   3.697 -0.4517 -0.2807 -0.4610
  601MOL0     C79237   5.729   3.130   3.694 -0.7406 -0.3723  0.1708
  601MOL0     C79238   5.647   3.149   3.833 -0.5704  0.1140  0.4699
  601MOL0     C79239   5.588   3.290   3.839  0.5557 -0.0732 -0.2927
  601MOL0     C79240   5.560   3.340   3.985 -0.1119  0.0892  0.1828
  601MOL0     C79241   5.440   3.260   4.053 -0.1566 -0.4741 -0.0854
  601MOL0     C79242   5.437   3.292   4.203 -0.2078 -0.3831 -0.4532
  601MOL0     C79243   5.313   3.213   4.261  0.8451  0.3017 -0.3091
  601MOL0    Cl79244   5.328   3.220   4.443  0.2630 -0.1763 -0.1744
  601MOL0     C79245   5.920   2.750   3.665 -0.5342  0.2548  0.1528
  601MOL0     C79246   5.991   2.667   3.578  0.8943  0.1245 -0.3096
  601MOL0     O79247   5.821   2.419   3.280  0.3876  0.1382 -0.2145
  601MOL0     C79248   6.150   2.287   3.320 -0.0205 -0.2665  0.5866
  601MOL0     C79249   6.229   2.182   3.278  0.8970  0.1100 -0.7132
  601MOL0     N79250   6.235   1.538   2.853  0.3196 -0.4913  0.4265
  601MOL0     N79251   6.232   1.417   2.799  0.0543  0.9912 -0.0899
  601MOL0     C79252   6.932   0.451   2.754 -0.6873  0.8729  0.2224
  601MOL0     C79253   7.066   0.480   2.719  0.4411  0.7361  0.1099
  601MOL0     C79254   7.453   0.609   2.604  1.2352  0.4046 -0.2878
  601MOL0     C79255   7.520   0.686   2.701  0.4616 -0.7164 -0.2087
  601MOL0     C79256   7.603   0.789   2.657  0.3614  0.0895  0.0439
  601MOL0     C79257   7.640   0.799   2.521  0.9301 -0.2248  0.4093
  601MOL0     O79258   7.742   0.889   2.490 -0.9830 -0.5862  0.7787
  601MOL0     C79259   7.881   0.844   2.497  0.5416 -0.0805  0.6671
  601MOL0     C79260   7.969   0.961   2.484 -0.0811 -0.6340 -0.3671
  601MOL0     C79261   7.959   1.059   2.605  0.0876  0.7504 -0.1869
  601MOL0     C79262   8.016   1.202   2.573  1.3108  0.0637 -0.4840
  601MOL0     C79263   7.907   1.296   2.548 -0.5363  0.4423  0.4727
  601MOL0     C79264   7.806   1.363   2.523  0.1690  0.5016  0.5038
  601MOL0     C79265   7.582   0.712   2.433  0.8054 -0.6081  0.6335
  601MOL0     C79266   7.491   0.624   2.470  0.5061  0.4764  0.5543
  601MOL0     H79267   7.104   0.277   2.463  4.5936  0.8106  1.8879
  601MOL0     H79268   6.868   0.251   2.495 -0.5155  1.6794 -1.1997
  601MOL0     H79269   6.638   0.418   2.854 -5.3686 -0.1383  0.1455
  601MOL0     H79270   6.540   0.370   2.724  1.0446 -1.7710 -0.2937
  601MOL0     H79271   6.609   0.541   2.581 -0.0515 -3.8647  1.0820
  601MOL0     H79272   6.740   0.599   2.676 -1.4984  1.5897  0.4806
  601MOL0     H79273   6.566   0.657   2.852  1.4143 -2.2119  0.4915
  601MOL0     H79274   6.445   0.602   2.747 -0.1628  0.0513 -0.8601
  601MOL0     H79275   6.634   0.818   2.648 -0.0951  2.4681  1.7817
  601MOL0     H79276   6.475   0.787   2.588 -0.1095 -1.5694 -0.9748
  601MOL0     H79277   6.566   0.890   2.852  2.3945 -2.8152 -0.9239
  601MOL0     H79278   6.390   0.863   2.813 -0.8081  0.0524 -3.3308
  601MOL0     H79279   6.420   1.019   2.609 -0.3278  0.1394  0.9348
  601MOL0     H79280   6.584   1.051   2.641  2.5633 -4.3596  1.3044
  601MOL0     H79281   6.385   1.109   2.852 -1.6069  0.8541 -1.0311
  601MOL0     H79282   6.550   1.173   2.845 -1.5952  2.1874  0.9656
  601MOL0     H79283   6.328   1.242   2.627 -0.5839 -0.3632  0.7714
  601MOL0     H79284   6.497   1.293   2.636  1.1089  2.3583  2.4054
  601MOL0     H79285   6.557   1.473   2.836  0.5774 -2.2904  1.2591
  601MOL0     H79286   6.371   1.762   2.787  1.3325 -2.3171 -1.8333
  601MOL0     H79287   6.521   1.712   2.859  1.1158  3.9590  0.7813
  601MOL0     H79288   6.375   1.724   3.081  1.6363 -1.1892 -1.4047
  601MOL0     H79289   6.260   1.814   2.985  0.5719 -1.5480 -6.0952
  601MOL0     H79290   6.542   1.917   3.016  0.0831  1.5242 -0.8543
  601MOL0     H79291   6.414   1.985   2.922  1.6096  0.6098 -1.1037
  601MOL0     H79292   6.425   2.111   3.123 -2.4735  0.4845 -1.8879
  601MOL0     H79293   6.438   1.970   3.233 -0.7417  0.8286  0.1397
  601MOL0     H79294   6.025   2.065   3.037 -4.0376  2.9020  0.6124
  601MOL0     H79295   5.880   2.230   3.122 -0.1027  1.3016  0.6318
  601MOL0     H79296   5.690   2.559   3.445  3.1028 -1.7480 -3.3241
  601MOL0     H79297   5.612   2.741   3.565 -0.5934  0.1687 -1.4035
  601MOL0     H79298   5.892   3.007   3.610 -1.7777 -0.4376 -1.4820
  601MOL0     H79299   5.889   3.025   3.786 -3.2745  1.1696  1.5098
  601MOL0     H79300   5.656   3.111   3.614 -0.6333  0.3877 -0.1123
  601MOL0     H79301   5.772   3.229   3.677 -1.8557  0.0363 -0.4130
  601MOL0     H79302   5.708   3.127   3.921 -3.2495  1.2574  2.7344
  601MOL0     H79303   5.567   3.075   3.825 -0.2079 -0.1519 -1.2720
  601MOL0     H79304   5.643   3.366   3.781 -1.6618  0.8070 -1.3502
  601MOL0     H79305   5.495   3.281   3.782  1.0574 -3.1736 -0.8048
  601MOL0     H79306   5.530   3.444   3.969 -0.6288  0.3225  2.2845
  601MOL0     H79307   5.654   3.336   4.040  0.9236  1.5239 -1.3949
  601MOL0     H79308   5.449   3.151   4.040 -5.2672 -1.0045 -1.2728
  601MOL0     H79309   5.349   3.279   3.995  1.0757  4.7724 -0.8068
  601MOL0     H79310   5.532   3.248   4.231 -0.3589  0.1871  1.0475
  601MOL0     H79311   5.432   3.398   4.232 -2.8525 -0.4603 -0.3867
  601MOL0     H79312   5.299   3.109   4.228  0.4675  0.0693  0.5441
  601MOL0     H79313   5.218   3.257   4.230  0.4123  0.3234  0.9747
  601MOL0     H79314   5.989   2.801   3.732  1.6169  1.1993 -2.6052
  601MOL0     H79315   6.099   2.656   3.572  0.5878 -3.9378 -1.6632
  601MOL0     H79316   6.199   2.353   3.391  1.7257 -0.7038 -0.1707
  601MOL0     H79317   6.330   2.166   3.313  0.4907 -3.1319 -0.7115
  601MOL0     H79318   6.900   0.476   2.855  0.8696 -0.1923  1.0333
  601MOL0     H79319   7.128   0.542   2.783  2.0382 -1.3223  0.6684
  601MOL0     H79320   7.488   0.685   2.805 -2.2076 -0.3851 -0.9296
  601MOL0     H79321   7.635   0.860   2.732 -2.4350  4.4829 -2.4892
  601MOL0     H79322   7.906   0.768   2.423 -1.0852 -0.2639  0.2908
  601MOL0     H79323   7.891   0.798   2.596 -1.6502 -2.7863 -0.2469
  601MOL0     H79324   8.073   0.927   2.472  0.0482  0.1739 -1.8058
  601MOL0     H79325   7.933   1.023   2.401 -0.8084  0.8393  0.9975
  601MOL0     H79326   8.016   1.017   2.688  0.4094 -2.9913 -2.1066
  601MOL0     H79327   7.854   1.055   2.637 -0.0395  0.0652 -0.6659
  601MOL0     H79328   8.062   1.233   2.668  1.5835  0.6123 -0.7860
  601MOL0     H79329   8.085   1.210   2.489 -0.3521  0.5278 -1.8713
  601MOL0     H79330   7.723   1.428   2.502 -1.2401 -1.1359  0.7684
  601MOL0     H79331   7.617   0.724   2.331  2.4490  0.5327  1.2869
  601MOL0     H79332   7.449   0.563   2.390 -0.6267  2.3211 -0.3191
  602MOL0     O79333   2.296   5.241   1.905 -0.1198 -0.1284 -0.2874
  602MOL0     C79334   2.386   5.159   1.927  0.2379 -0.6248 -0.1688
  602MOL0     O79335   2.379   5.051   2.010  0.1371  0.3581 -0.1422
  602MOL0     C79336   2.258   5.000   2.057  0.1426 -0.5472 -0.1925
  602MOL0     C79337   2.143   4.964   1.982  0.4519  0.3225  0.0309
  602MOL0     C79338   2.029   4.922   2.054 -0.0055  0.2301  0.0067
  602MOL0     C79339   2.029   4.905   2.193 -0.8954  0.2865  0.2954
  602MOL0     O79340   1.936   4.860   2.272  0.4438  0.0038  0.2087
  602MOL0     C79341   1.863   4.752   2.217 -0.6420 -0.3060  0.7407
  602MOL0     C79342   1.818   4.641   2.310  0.0168 -0.7601 -0.7227
  602MOL0     C79343   1.724   4.689   2.417  0.2806 -0.6431 -0.9902
  602MOL0     C79344   1.662   4.567   2.485  0.1712 -1.0493  0.0061
  602MOL0     C79345   1.616   4.594   2.626  0.6569 -0.0493 -0.2452
  602MOL0     C79346   1.501   4.698   2.658 -0.4519  0.7355 -0.1300
  602MOL0     C79347   1.514   4.730   2.807 -0.0318  0.9617 -0.6258
  602MOL0     C79348   1.392   4.801   2.866 -0.6619 -0.6394  0.2837
  602MOL0     N79349   1.446   4.889   2.974 -0.5599 -0.3643  0.3744
  602MOL0     C79350   1.516   5.006   2.947  0.1567 -0.6478  0.2099
  602MOL0     C79351   1.585   5.030   3.058 -0.0152  0.6213 -0.6837
  602MOL0     C79352   1.673   5.157   3.081 -0.8976  0.4209 -0.5632
  602MOL0     C79353   1.826   5.135   3.089  0.7571 -0.2190 -0.1213
  602MOL0     C79354   1.875   5.160   3.236  0.4611 -0.3156 -0.6016
  602MOL0     C79355   2.023   5.144   3.248  0.5243  0.2928 -0.0280
  602MOL0     O79356   2.071   5.261   3.173  0.9160 -0.4969  0.1834
  602MOL0     C79357   2.181   5.329   3.215  0.6493  0.3477 -0.3263
  602MOL0     C79358   2.230   5.335   3.353  0.5653  0.0313  0.5530
  602MOL0     C79359   2.341   5.417   3.381  0.0647  0.3834  0.2363
  602MOL0     C79360   2.403   5.488   3.280 -0.2195 -0.2208  1.7360
  602MOL0     C79361   2.489   5.596   3.307  0.4205 -0.6774  0.1181
  602MOL0     O79362   2.494   5.633   3.438  0.4027 -0.4446 -0.2680
  602MOL0     C79363   2.566   5.740   3.492 -0.3750  0.0091  0.8763
  602MOL0     C79364   2.563   5.874   3.447 -0.8894 -0.7221 -0.1296
  602MOL0     C79365   2.653   5.971   3.509 -0.5810  0.0071  0.3869
  602MOL0     C79366   2.730   5.942   3.619 -0.0615 -0.1494 -0.1072
  602MOL0     O79367   2.824   6.035   3.666 -0.0313  0.3400 -0.5635
  602MOL0     C79368   2.962   6.011   3.633 -0.6912  0.1755 -0.8984
  602MOL0     C79369   3.056   6.016   3.756 -0.0228  0.0632 -0.2226
  602MOL0     C79370   3.198   5.970   3.722 -0.1707 -0.4163 -0.6078
  602MOL0     C79371   3.289   6.070   3.649  0.4202  0.3146 -0.1412
  602MOL0     C79372   3.425   6.012   3.633 -0.1089 -0.0314  0.0523
  602MOL0     C79373   3.444   5.943   3.497  0.2367  0.4440 -1.0413
  602MOL0     C79374   3.568   5.877   3.467 -0.8185  0.7311  1.3142
  602MOL0     C79375   3.545   5.784   3.351  0.6077  0.2665 -0.4817
  602MOL0    Cl79376   3.457   5.642   3.423 -0.1408  0.4216  0.0564
  602MOL0     C79377   2.731   5.813   3.671 -0.1744  0.1728  0.1552
  602MOL0     C79378   2.660   5.714   3.594 -0.5585 -0.0884  0.0619
  602MOL0     O79379   2.542   5.665   3.221  0.5469  0.9913 -0.6215
  602MOL0     C79380   2.353   5.482   3.153  0.3462 -0.3146 -0.3438
  602MOL0     C79381   2.247   5.402   3.114  0.3345  0.0752  0.9090
  602MOL0     N79382   1.574   4.923   3.143  0.2867 -0.8400 -0.7502
  602MOL0     N79383   1.488   4.843   3.092  0.2377  0.2388 -0.1352
  602MOL0     C79384   2.146   4.935   2.267 -0.4131  0.3059 -0.4985
  602MOL0     C79385   2.253   4.992   2.194 -0.4517  0.1949  0.8371
  602MOL0     C79386   2.509   5.158   1.841  0.2543  0.4822  0.5804
  602MOL0     C79387   2.628   5.142   1.900 -1.1477 -0.5955  1.3493
  602MOL0     C79388   2.748   5.156   1.828 -0.0920 -0.2431 -0.3841
  602MOL0     C79389   2.757   5.173   1.688 -0.4175 -0.2548  0.0603
  602MOL0     O79390   2.865   5.171   1.606  0.3176  0.3679  0.1317
  602MOL0     C79391   2.986   5.110   1.650  0.0983  1.0627  0.4059
  602MOL0     C79392   3.107   5.184   1.594  0.4769  0.1360  0.4917
  602MOL0     C79393   3.107   5.323   1.660  0.0797  0.4329 -0.2894
  602MOL0     C79394   3.228   5.408   1.636 -0.3894  0.1234  0.6191
  602MOL0     C79395   3.354   5.336   1.639  0.6392 -0.6196  0.2502
  602MOL0     C79396   3.461   5.285   1.626 -0.7435  0.5720  0.3856
  602MOL0     C79397   2.628   5.188   1.631 -1.0456 -0.3732  0.0249
  602MOL0     C79398   2.510   5.185   1.705  0.0632  0.0563 -0.2678
  602MOL0     H79399   2.140   4.966   1.874 -1.2610 -4.4591 -0.2761
  602MOL0     H79400   1.941   4.899   1.994 -1.1358  2.7389  0.6013
  602MOL0     H79401   1.922   4.707   2.138  0.0575 -3.5820  2.9356
  602MOL0     H79402   1.779   4.801   2.167  1.6483 -0.4416 -3.6780
  602MOL0     H79403   1.907   4.611   2.366  0.1461  1.7917  0.5467
  602MOL0     H79404   1.756   4.573   2.250  0.5758 -1.2369 -0.7586
  602MOL0     H79405   1.648   4.754   2.375  0.3833 -1.6771 -2.8684
  602MOL0     H79406   1.786   4.750   2.484  4.1873 -2.1760 -2.8650
  602MOL0     H79407   1.576   4.535   2.425 -1.0489 -1.2391  1.7593
  602MOL0     H79408   1.743   4.494   2.491  1.9114  0.7307 -0.7899
  602MOL0     H79409   1.706   4.626   2.680  2.0902 -2.5642 -1.0098
  602MOL0     H79410   1.575   4.501   2.667 -3.0912  0.7619 -1.6653
  602MOL0     H79411   1.409   4.640   2.648 -0.4081 -0.2579  3.8625
  602MOL0     H79412   1.507   4.786   2.592 -0.6923  0.0492 -1.0971
  602MOL0     H79413   1.517   4.640   2.869  1.8820  0.5770 -1.2243
  602MOL0     H79414   1.597   4.799   2.822  0.1098  0.6741 -0.0418
  602MOL0     H79415   1.323   4.729   2.912 -1.2996 -0.1643  0.0755
  602MOL0     H79416   1.333   4.868   2.803  0.5187 -1.3392 -1.6581
  602MOL0     H79417   1.509   5.069   2.859 -2.0865 -1.2283 -0.0902
  602MOL0     H79418   1.645   5.215   3.169  0.1409  0.2009 -0.0656
  602MOL0     H79419   1.658   5.230   3.001  2.8556  4.1897  1.7373
  602MOL0     H79420   1.872   5.207   3.021  0.0326 -0.8096 -1.2857
  602MOL0     H79421   1.861   5.038   3.051 -0.1707 -0.2086 -1.0397
  602MOL0     H79422   1.840   5.258   3.269  1.1426 -0.3927  0.3746
  602MOL0     H79423   1.834   5.088   3.307 -0.4279 -0.1534 -0.9288
  602MOL0     H79424   2.055   5.053   3.198  0.7610 -0.0304  0.7060
  602MOL0     H79425   2.053   5.148   3.353 -2.5829  3.3980  0.9349
  602MOL0     H79426   2.178   5.281   3.432  1.9734 -1.7694  0.3005
  602MOL0     H79427   2.373   5.413   3.485  0.8579  2.6704  0.1292
  602MOL0     H79428   2.510   5.883   3.353 -1.6130 -0.6612  0.2819
  602MOL0     H79429   2.674   6.063   3.456  1.3944 -0.8477 -0.4179
  602MOL0     H79430   2.988   6.095   3.568 -0.1421 -0.5761 -1.6815
  602MOL0     H79431   2.983   5.917   3.581  1.8256  0.0099  0.2399
  602MOL0     H79432   3.018   5.939   3.823  2.2379 -1.6889 -0.8274
  602MOL0     H79433   3.058   6.116   3.799  0.2350  0.5266 -1.2796
  602MOL0     H79434   3.199   5.877   3.665  2.3284 -1.4516  0.9369
  602MOL0     H79435   3.235   5.945   3.822  2.3951  0.3544 -1.2961
  602MOL0     H79436   3.241   6.098   3.555 -0.6792  2.5679  1.0137
  602MOL0     H79437   3.303   6.158   3.711 -0.2769 -1.6449  3.0402
  602MOL0     H79438   3.442   5.936   3.710 -0.8256  0.0535  0.3081
  602MOL0     H79439   3.495   6.095   3.644 -2.1768  1.6504  1.4491
  602MOL0     H79440   3.424   6.030   3.433 -0.4673  2.4429  1.6742
  602MOL0     H79441   3.359   5.877   3.476 -0.5149  1.8687 -2.8520
  602MOL0     H79442   3.649   5.945   3.437 -0.5029  1.2375  3.1977
  602MOL0     H79443   3.610   5.822   3.551  3.6868  0.7132 -0.6544
  602MOL0     H79444   3.631   5.734   3.305  1.6338 -1.0949  2.6486
  602MOL0     H79445   3.481   5.822   3.271 -0.7206  1.2168  0.9786
  602MOL0     H79446   2.795   5.792   3.756 -0.2404 -0.9701 -0.0515
  602MOL0     H79447   2.677   5.612   3.627 -0.2760 -0.6984 -1.8768
  602MOL0     H79448   2.377   5.560   3.082  0.3028  1.7057  1.7571
  602MOL0     H79449   2.221   5.392   3.009 -0.6674 -0.2240  1.1705
  602MOL0     H79450   2.151   4.923   2.375  0.2267  0.5840 -0.4988
  602MOL0     H79451   2.347   5.024   2.239 -0.8171  2.0939  0.3095
  602MOL0     H79452   2.638   5.122   2.006  1.6933 -0.9752  1.0969
  602MOL0     H79453   2.834   5.134   1.890 -0.3700 -4.5653 -1.2665
  602MOL0     H79454   2.974   5.011   1.603 -2.2313  0.8874  1.2364
  602MOL0     H79455   2.999   5.100   1.758 -0.4425  3.3436  0.7163
  602MOL0     H79456   3.193   5.120   1.615  0.6901 -0.2480 -1.4318
  602MOL0     H79457   3.104   5.201   1.486  1.3504 -1.3372  0.2109
  602MOL0     H79458   3.104   5.311   1.769  1.4192 -3.9786 -0.5178
  602MOL0     H79459   3.023   5.380   1.620 -1.5722 -1.7482 -0.1181
  602MOL0     H79460   3.215   5.454   1.537  1.0800  0.0538  0.3638
  602MOL0     H79461   3.235   5.500   1.695  2.0462 -0.1886  0.9159
  602MOL0     H79462   3.564   5.255   1.629 -0.3226  1.6236 -1.9121
  602MOL0     H79463   2.626   5.199   1.523  1.2899 -1.9034 -0.2515
  602MOL0     H79464   2.409   5.189   1.665  1.0559 -0.2610 -3.0183
  603MOL0     O79465   9.208   8.755   4.334 -0.5395  0.0366 -0.6114
  603MOL0     C79466   9.163   8.848   4.407  0.0152 -0.2884  0.1925
  603MOL0     O79467   9.194   8.856   4.541 -0.6168 -0.6369  0.0321
  603MOL0     C79468   9.307   8.795   4.592  0.8830 -0.3212 -0.5815
  603MOL0     C79469   9.435   8.793   4.538  0.0035 -0.5983 -0.6087
  603MOL0     C79470   9.540   8.721   4.608 -0.3715 -0.3466  0.0179
  603MOL0     C79471   9.519   8.676   4.737  0.6205 -1.0337 -0.0304
  603MOL0     O79472   9.617   8.612   4.803 -0.7713 -0.2891  0.0469
  603MOL0     C79473   9.612   8.502   4.896  1.2036  0.0834  0.3669
  603MOL0     C79474   9.519   8.393   4.854 -0.8670  0.2914  0.4017
  603MOL0     C79475   9.536   8.275   4.955 -0.3968 -0.2270  0.7247
  603MOL0     C79476   9.443   8.170   4.922  0.1435 -0.4413  0.0398
  603MOL0     C79477   9.412   8.094   5.053 -0.6297 -0.1447  1.0216
  603MOL0     C79478   9.339   7.967   5.011 -0.2322  0.6524 -0.2401
  603MOL0     C79479   9.284   7.907   5.138  0.4493 -0.0085 -0.2510
  603MOL0     C79480   9.189   7.788   5.105 -0.6528  0.2086 -0.6394
  603MOL0     N79481   9.274   7.662   5.074 -0.5081 -0.2447 -0.2165
  603MOL0     C79482   9.345   7.622   4.966 -0.2233 -0.4254 -0.2158
  603MOL0     C79483   9.383   7.497   5.001  0.0876 -0.0230  0.0932
  603MOL0     C79484   9.468   7.417   4.919 -0.2492  1.4360  0.8952
  603MOL0     C79485   9.408   7.365   4.792 -0.9419  0.6150  0.3504
  603MOL0     C79486   9.394   7.212   4.786 -0.3008 -0.1392  0.1189
  603MOL0     C79487   9.337   7.169   4.654  0.9849  0.5841  0.0522
  603MOL0     O79488   9.191   7.158   4.641  1.1392 -0.6424 -0.1320
  603MOL0     C79489   9.126   7.153   4.513 -0.5812  0.1333 -0.6205
  603MOL0     C79490   8.986   7.156   4.505 -0.1000 -0.6115 -0.4021
  603MOL0     C79491   8.923   7.154   4.384 -0.2202 -0.5397  0.8660
  603MOL0     C79492   8.995   7.139   4.270 -0.6043  0.5765  0.4693
  603MOL0     C79493   8.929   7.134   4.145  0.6146  0.4208  0.5041
  603MOL0     O79494   8.997   7.085   4.035 -0.1468 -0.4064  0.4506
  603MOL0     C79495   8.956   7.082   3.904 -0.6035 -0.8350  0.2072
  603MOL0     C79496   9.060   7.041   3.827  0.0617  0.6135  0.7376
  603MOL0     C79497   9.049   7.027   3.690  0.2851 -0.4451 -0.1349
  603MOL0     C79498   8.927   7.063   3.630 -0.3406 -0.4101 -0.0796
  603MOL0     O79499   8.936   7.061   3.492  0.7255  0.1665  0.3827
  603MOL0     C79500   8.811   7.074   3.425 -0.6266 -0.9550 -0.2931
  603MOL0     C79501   8.825   7.065   3.276 -0.8375  0.1030  0.8373
  603MOL0     C79502   8.706   7.081   3.191 -0.3949  0.0448 -1.1178
  603MOL0     C79503   8.744   7.096   3.042  0.5988  0.2204 -0.4376
  603MOL0     C79504   8.804   6.967   2.988 -0.5357 -1.0943  0.2775
  603MOL0     C79505   8.835   6.968   2.839 -0.3605 -0.2637  0.0327
  603MOL0     C79506   8.707   6.987   2.757  0.1261 -0.6244  0.1090
  603MOL0     C79507   8.602   6.878   2.759 -0.2137  0.0437 -0.6174
  603MOL0    Cl79508   8.665   6.708   2.723  0.3362 -0.4741  0.3059
  603MOL0     C79509   8.827   7.114   3.709  0.1571  0.9770 -0.4447
  603MOL0     C79510   8.830   7.116   3.851  0.4380  0.1697 -0.4370
  603MOL0     O79511   8.811   7.176   4.140  0.3612 -0.1057  0.6100
  603MOL0     C79512   9.134   7.138   4.270  0.3078  0.0450 -0.1604
  603MOL0     C79513   9.202   7.156   4.391  0.5036  0.7681  0.5867
  603MOL0     N79514   9.339   7.461   5.127 -0.1393  0.7221 -0.1601
  603MOL0     N79515   9.269   7.560   5.166 -0.1358 -0.3806  0.6165
  603MOL0     C79516   9.397   8.684   4.788 -0.5026  0.4842 -0.6947
  603MOL0     C79517   9.296   8.748   4.719 -0.0266 -0.7485 -1.1233
  603MOL0     C79518   9.074   8.949   4.346 -0.7583 -0.8668 -0.7967
  603MOL0     C79519   8.995   8.919   4.231 -0.2465  0.6719  0.4797
  603MOL0     C79520   8.912   9.005   4.167 -0.3771  0.0755 -0.0743
  603MOL0     C79521   8.900   9.139   4.220  0.4550  0.7601  0.6013
  603MOL0     O79522   8.822   9.235   4.161  0.2738  0.1124  0.3334
  603MOL0     C79523   8.723   9.204   4.067  0.5369 -0.4577  0.4468
  603MOL0     C79524   8.763   9.234   3.916 -0.2124 -0.0521 -0.8229
  603MOL0     C79525   8.642   9.192   3.827 -0.2267 -0.5730 -0.2481
  603MOL0     C79526   8.659   9.259   3.692 -0.0693  0.3532  0.2174
  603MOL0     C79527   8.741   9.168   3.614 -0.7663  0.5592  0.3383
  603MOL0     C79528   8.818   9.094   3.551  0.5576 -0.5061 -0.5567
  603MOL0     C79529   8.970   9.177   4.328 -0.2522 -0.0936 -0.4595
  603MOL0     C79530   9.060   9.083   4.392 -0.9889 -0.7539 -0.9280
  603MOL0     H79531   9.472   8.830   4.443  5.2977 -0.4124  1.1968
  603MOL0     H79532   9.643   8.714   4.574  0.5896 -3.3403  2.9932
  603MOL0     H79533   9.581   8.545   4.992  4.4432 -1.9867  2.5254
  603MOL0     H79534   9.713   8.463   4.880 -0.5138 -3.5348 -3.3111
  603MOL0     H79535   9.554   8.360   4.756 -0.6557 -1.4852  1.0357
  603MOL0     H79536   9.416   8.426   4.839 -0.6391 -0.0972 -2.6141
  603MOL0     H79537   9.504   8.315   5.052 -3.9556 -0.2246 -0.3161
  603MOL0     H79538   9.644   8.258   4.968 -0.4281 -0.2510  0.9655
  603MOL0     H79539   9.350   8.224   4.901  1.5711  1.5499 -1.5097
  603MOL0     H79540   9.485   8.111   4.840  0.6877 -0.3771  0.2649
  603MOL0     H79541   9.360   8.159   5.123  0.1463  2.7796 -0.9368
  603MOL0     H79542   9.507   8.057   5.092 -0.6926 -1.4184  0.0707
  603MOL0     H79543   9.404   7.891   4.966  0.8595  0.2211  1.9279
  603MOL0     H79544   9.257   7.978   4.940 -1.2047 -0.9332  0.5982
  603MOL0     H79545   9.370   7.893   5.204  0.9347  0.7455 -0.7074
  603MOL0     H79546   9.218   7.983   5.182  2.4211  1.6041  0.0445
  603MOL0     H79547   9.119   7.813   5.025  0.7231  0.6305 -1.7359
  603MOL0     H79548   9.129   7.769   5.195  2.4847  1.7830  2.0163
  603MOL0     H79549   9.377   7.662   4.871  0.1018  1.5859  0.6874
  603MOL0     H79550   9.506   7.336   4.983 -1.0745  1.5852  1.5924
  603MOL0     H79551   9.562   7.464   4.889 -0.1478  0.5525 -0.2659
  603MOL0     H79552   9.457   7.394   4.699 -1.6033 -1.3672 -0.6639
  603MOL0     H79553   9.309   7.411   4.784 -2.4252 -2.4409 -0.0914
  603MOL0     H79554   9.486   7.155   4.802  0.8062  1.3742 -0.6620
  603MOL0     H79555   9.327   7.170   4.862  0.1137  1.5663  1.4989
  603MOL0     H79556   9.373   7.067   4.642 -1.8157 -0.5497  0.4523
  603MOL0     H79557   9.380   7.223   4.569  0.6326 -0.2299 -0.6543
  603MOL0     H79558   8.939   7.160   4.603  0.0122  1.5126 -0.3680
  603MOL0     H79559   8.816   7.167   4.376  0.0264  0.6859 -0.8428
  603MOL0     H79560   9.157   7.015   3.869 -0.1249 -1.2499  0.1200
  603MOL0     H79561   9.135   6.985   3.638 -0.2016 -1.3118 -0.2471
  603MOL0     H79562   8.762   7.169   3.448 -0.4896 -0.8515 -0.4278
  603MOL0     H79563   8.747   6.997   3.469  0.4970 -0.9375  1.4437
  603MOL0     H79564   8.875   6.971   3.250 -0.1204  0.5259  0.6624
  603MOL0     H79565   8.889   7.152   3.260 -0.3911 -0.1728  1.0997
  603MOL0     H79566   8.647   7.169   3.220 -0.3043  0.2845 -1.6425
  603MOL0     H79567   8.633   7.001   3.210  0.6479 -0.5047  0.7918
  603MOL0     H79568   8.659   7.129   2.981  1.8793  2.8442 -0.9850
  603MOL0     H79569   8.815   7.180   3.038  0.1596  0.6802  0.9139
  603MOL0     H79570   8.748   6.879   3.021  0.3524 -1.4086  1.0155
  603MOL0     H79571   8.900   6.956   3.040 -0.6869  1.2180  1.1649
  603MOL0     H79572   8.880   6.874   2.806 -0.8353  0.1278 -1.8394
  603MOL0     H79573   8.909   7.044   2.811 -0.7986  0.6604  1.2782
  603MOL0     H79574   8.664   7.085   2.780  2.1267 -0.1343  2.2211
  603MOL0     H79575   8.740   6.976   2.654 -2.4008 -1.2545 -0.7034
  603MOL0     H79576   8.512   6.898   2.700 -0.5938  1.7423  0.4618
  603MOL0     H79577   8.559   6.882   2.859  0.5180 -0.9357 -0.2450
  603MOL0     H79578   8.737   7.138   3.653  0.6303 -1.2207 -2.3166
  603MOL0     H79579   8.749   7.155   3.912 -0.7518  1.1146 -2.5334
  603MOL0     H79580   9.188   7.110   4.180  0.8953 -2.4573  0.8659
  603MOL0     H79581   9.308   7.133   4.384 -0.3443 -3.9749 -0.4628
  603MOL0     H79582   9.385   8.668   4.895  1.5443 -0.9660 -0.6382
  603MOL0     H79583   9.208   8.792   4.765  0.9970  0.8930 -0.6493
  603MOL0     H79584   9.030   8.834   4.173  0.2347  0.9521  0.3590
  603MOL0     H79585   8.870   8.977   4.071  0.0586  2.2066 -0.9556
  603MOL0     H79586   8.639   9.270   4.090  0.5342 -0.3586  0.1536
  603MOL0     H79587   8.697   9.098   4.074  3.4792 -1.2452  1.1551
  603MOL0     H79588   8.791   9.340   3.918 -2.6835  0.7187  2.7883
  603MOL0     H79589   8.845   9.164   3.894 -0.3697 -0.6573  0.4327
  603MOL0     H79590   8.547   9.233   3.861  0.4428 -1.3305  2.9255
  603MOL0     H79591   8.620   9.086   3.813 -0.6325 -0.4136 -0.8443
  603MOL0     H79592   8.563   9.259   3.640  1.1914 -2.7990 -2.5061
  603MOL0     H79593   8.692   9.363   3.694  0.7336  0.1814 -1.5843
  603MOL0     H79594   8.877   9.035   3.484  2.7885  3.9036 -2.9407
  603MOL0     H79595   8.974   9.282   4.357  5.4859  0.2245 -1.3023
  603MOL0     H79596   9.120   9.126   4.472 -1.2397  0.0145 -1.1354
  604MOL0     O79597  10.865   3.561   2.897  0.6326  0.4734 -0.2539
  604MOL0     C79598  10.742   3.586   2.871 -0.8866 -0.5726 -0.2467
  604MOL0     O79599  10.653   3.657   2.953  0.0114  0.4913  0.3132
  604MOL0     C79600  10.715   3.681   3.075  0.1243 -0.8029 -0.9655
  604MOL0     C79601  10.710   3.587   3.180  0.1420 -0.4655 -0.0086
  604MOL0     C79602  10.776   3.600   3.302 -0.3626 -0.0167 -0.2950
  604MOL0     C79603  10.849   3.722   3.323  0.7513  0.0985  0.5121
  604MOL0     O79604  10.914   3.753   3.442 -0.1518  0.7859  0.0118
  604MOL0     C79605  11.024   3.668   3.472  0.0035  0.3643  0.8634
  604MOL0     C79606  11.146   3.718   3.397  0.6946 -0.7505 -0.3351
  604MOL0     C79607  11.276   3.649   3.451  0.4775 -0.8109 -0.0264
  604MOL0     C79608  11.344   3.722   3.566 -0.0245  0.1617  0.7791
  604MOL0     C79609  11.448   3.634   3.632 -0.9169 -0.1748  1.5233
  604MOL0     C79610  11.535   3.703   3.736  0.3326  0.5677  0.9285
  604MOL0     C79611  11.461   3.700   3.869  0.0439  0.1814  0.0367
  604MOL0     C79612  11.535   3.765   3.984  0.2473 -0.0745  0.4715
  604MOL0     N79613  11.545   3.909   3.984  0.2744  0.0258  0.7075
  604MOL0     C79614  11.516   3.985   4.087  0.9432  0.5790  0.6144
  604MOL0     C79615  11.543   4.111   4.043 -0.3406 -0.5023  0.7800
  604MOL0     C79616  11.532   4.238   4.119  0.5674  0.3654  0.2332
  604MOL0     C79617  11.629   4.267   4.230 -0.0971 -0.0524 -1.2784
  604MOL0     C79618  11.741   4.352   4.179 -1.8053 -0.9252  0.3572
  604MOL0     C79619  11.848   4.291   4.097  0.9134  1.0327  0.3900
  604MOL0     O79620  11.952   4.385   4.061  0.3269 -0.5280  0.2248
  604MOL0     C79621  12.069   4.367   4.132  0.1400  0.0380 -0.2258
  604MOL0     C79622  12.186   4.385   4.065  0.1085  0.6070 -0.3847
  604MOL0     C79623  12.312   4.370   4.120  0.0117  0.7879 -1.1757
  604MOL0     C79624  12.323   4.325   4.252 -0.9274  0.2030  0.2592
  604MOL0     C79625  12.459   4.295   4.317 -0.8682  0.1229  1.0310
  604MOL0     O79626  12.467   4.229   4.440 -0.0321  0.9631  0.0302
  604MOL0     C79627  12.594   4.199   4.494 -0.3861 -0.3506  0.3106
  604MOL0     C79628  12.603   4.086   4.579 -0.6313  0.2653  0.1521
  604MOL0     C79629  12.728   4.047   4.635  1.2012  0.0966  0.7744
  604MOL0     C79630  12.841   4.126   4.621  0.9176  0.0915  1.1020
  604MOL0     O79631  12.964   4.098   4.682  0.5254 -0.4563  0.2589
  604MOL0     C79632  13.008   3.974   4.744 -0.1570  0.2146 -0.3317
  604MOL0     C79633  13.157   3.963   4.739  0.2133 -0.4927  0.8956
  604MOL0     C79634  13.198   3.905   4.606  0.7983  0.4468 -1.1920
  604MOL0     C79635  13.356   3.899   4.608  0.3405  0.4066  0.1335
  604MOL0     C79636  13.415   3.816   4.491  0.4109  0.0195 -0.6045
  604MOL0     C79637  13.440   3.888   4.349  0.4967  0.3177  0.1043
  604MOL0     C79638  13.519   4.020   4.351 -0.6088  0.5087  0.0615
  604MOL0     C79639  13.669   4.023   4.366 -0.4470 -0.3878  1.3162
  604MOL0    Cl79640  13.737   3.915   4.479 -0.2234 -0.4177  0.4573
  604MOL0     C79641  12.824   4.247   4.547 -1.5243  0.1106  0.0625
  604MOL0     C79642  12.712   4.277   4.475 -0.6535 -1.0926 -0.8809
  604MOL0     O79643  12.554   4.324   4.240 -0.1842 -0.5396 -0.3653
  604MOL0     C79644  12.205   4.310   4.331  0.8407  0.1771 -0.0104
  604MOL0     C79645  12.078   4.320   4.269  0.6195 -0.3155 -0.8379
  604MOL0     N79646  11.603   4.100   3.913 -0.2733 -0.3630  0.4218
  604MOL0     N79647  11.611   3.975   3.879  0.3662 -0.4024 -0.0538
  604MOL0     C79648  10.841   3.825   3.225 -0.9478 -0.5452 -0.1255
  604MOL0     C79649  10.785   3.808   3.100  0.4588  0.6766  0.7646
  604MOL0     C79650  10.694   3.532   2.743  0.3178 -0.1944 -0.1893
  604MOL0     C79651  10.780   3.455   2.653 -0.0093 -0.1497  0.0119
  604MOL0     C79652  10.718   3.402   2.537  0.0692 -0.0319 -0.1221
  604MOL0     C79653  10.581   3.426   2.492  0.4576 -0.7170 -0.7390
  604MOL0     O79654  10.535   3.391   2.369  0.8418  0.0303  0.1662
  604MOL0     C79655  10.589   3.263   2.322 -0.1133 -0.5108 -0.0871
  604MOL0     C79656  10.494   3.209   2.227  0.2012  0.3517 -0.8413
  604MOL0     C79657  10.448   3.303   2.103 -1.1655 -0.4851 -1.4617
  604MOL0     C79658  10.340   3.230   2.034 -0.2657 -0.2844 -0.2788
  604MOL0     C79659  10.305   3.294   1.908 -0.0743 -0.9077  0.1375
  604MOL0     C79660  10.259   3.347   1.808 -0.6680 -0.4684  0.0167
  604MOL0     C79661  10.506   3.519   2.579 -1.2478 -0.7456  0.1281
  604MOL0     C79662  10.566   3.578   2.699 -0.0875 -1.0467 -0.9230
  604MOL0     H79663  10.653   3.500   3.151  0.9665 -1.4020  1.0470
  604MOL0     H79664  10.762   3.514   3.367 -3.3985  0.2618 -0.4098
  604MOL0     H79665  11.001   3.567   3.439 -0.7361  0.4625  1.0655
  604MOL0     H79666  11.036   3.663   3.581  0.6511  0.0243  0.7811
  604MOL0     H79667  11.156   3.824   3.422  0.5146 -1.2722  2.2662
  604MOL0     H79668  11.134   3.711   3.289  2.8500 -2.1544 -0.5547
  604MOL0     H79669  11.349   3.665   3.372 -3.7969  2.5944 -3.8552
  604MOL0     H79670  11.255   3.543   3.466  0.2487 -0.6293  1.0224
  604MOL0     H79671  11.379   3.820   3.532 -0.5880  0.2324  0.3930
  604MOL0     H79672  11.274   3.748   3.646 -1.7926  0.2620 -0.7329
  604MOL0     H79673  11.519   3.612   3.552  1.5219 -1.6785  3.8927
  604MOL0     H79674  11.411   3.536   3.664  1.5307 -1.2685  1.2515
  604MOL0     H79675  11.555   3.803   3.698 -0.5876  0.0926 -0.8934
  604MOL0     H79676  11.632   3.651   3.734 -0.6724 -1.4255 -1.8494
  604MOL0     H79677  11.357   3.732   3.863 -0.1881 -0.2969  1.2259
  604MOL0     H79678  11.455   3.598   3.909 -1.0988  2.0462  5.4411
  604MOL0     H79679  11.637   3.726   3.975 -0.5680 -2.2687 -0.0860
  604MOL0     H79680  11.486   3.739   4.078  2.3449 -0.5647  1.5046
  604MOL0     H79681  11.492   3.952   4.187  1.9634  1.5961  1.2215
  604MOL0     H79682  11.437   4.237   4.173  0.4480  1.1289  0.0528
  604MOL0     H79683  11.534   4.318   4.045 -2.8554 -0.1187 -0.5262
  604MOL0     H79684  11.666   4.175   4.276  2.1262  0.6023 -1.6548
  604MOL0     H79685  11.573   4.329   4.300  0.1011 -0.7827 -0.4588
  604MOL0     H79686  11.701   4.438   4.124 -3.4887 -1.0485  1.3093
  604MOL0     H79687  11.785   4.385   4.274 -0.7209 -0.5691 -0.2525
  604MOL0     H79688  11.809   4.263   3.999  1.6143 -1.7259  0.7906
  604MOL0     H79689  11.875   4.195   4.142  0.8119  1.1129  0.6263
  604MOL0     H79690  12.181   4.397   3.958 -1.6375  1.3668 -0.2376
  604MOL0     H79691  12.402   4.384   4.060  0.1965 -2.1123 -1.7184
  604MOL0     H79692  12.518   4.021   4.600 -0.1228  0.1511  2.0698
  604MOL0     H79693  12.737   3.954   4.691 -2.1032 -0.6979  0.2188
  604MOL0     H79694  12.965   3.885   4.697 -2.3056  1.3869 -0.7455
  604MOL0     H79695  12.979   3.980   4.849  1.5409 -2.8406  0.4384
  604MOL0     H79696  13.196   3.895   4.815  6.5085 -2.6597 -3.4648
  604MOL0     H79697  13.199   4.063   4.752 -1.0841  0.1928  0.1107
  604MOL0     H79698  13.161   3.979   4.534  1.4852  0.8060 -1.1896
  604MOL0     H79699  13.161   3.803   4.591 -0.2518  0.7103 -0.4857
  604MOL0     H79700  13.399   3.999   4.612  1.6203 -0.1676  1.4001
  604MOL0     H79701  13.382   3.847   4.701  0.7093 -2.5987 -1.4997
  604MOL0     H79702  13.346   3.733   4.476  0.1924 -0.0555  0.7082
  604MOL0     H79703  13.507   3.769   4.527  1.4893  0.8149 -2.1860
  604MOL0     H79704  13.342   3.911   4.305  0.3274  0.4496  0.5508
  604MOL0     H79705  13.487   3.822   4.275  1.3117  0.6974  0.2777
  604MOL0     H79706  13.497   4.063   4.253 -0.9249 -1.0470 -0.5727
  604MOL0     H79707  13.495   4.087   4.435  1.2774  0.5321  0.6381
  604MOL0     H79708  13.696   4.123   4.400  2.3471 -0.2100 -0.9963
  604MOL0     H79709  13.715   4.007   4.268  0.0608 -1.7402  1.7569
  604MOL0     H79710  12.900   4.320   4.522 -1.5323 -0.7979 -3.1292
  604MOL0     H79711  12.715   4.366   4.412  0.0744  1.4148  2.4412
  604MOL0     H79712  12.219   4.299   4.438  1.5290  2.6400  0.2058
  604MOL0     H79713  11.994   4.319   4.338  3.9519 -1.3612  3.6771
  604MOL0     H79714  10.892   3.918   3.247 -2.5206  0.1164  0.8803
  604MOL0     H79715  10.775   3.876   3.016 -0.7072 -2.5644 -1.9251
  604MOL0     H79716  10.883   3.445   2.684 -0.8344 -2.1641  2.5237
  604MOL0     H79717  10.782   3.355   2.462 -2.1338  0.0656 -2.1758
  604MOL0     H79718  10.595   3.197   2.410  0.3102  0.4769  0.6385
  604MOL0     H79719  10.686   3.265   2.271 -1.2639  1.7846 -2.4014
  604MOL0     H79720  10.522   3.112   2.187 -1.2881  0.5669 -2.5602
  604MOL0     H79721  10.399   3.193   2.280  0.7677  0.2817  0.1695
  604MOL0     H79722  10.538   3.319   2.043 -1.1918  0.7144 -1.1983
  604MOL0     H79723  10.410   3.396   2.146 -0.5255 -1.3429  1.1215
  604MOL0     H79724  10.375   3.132   1.999  0.0980  0.6656 -2.6979
  604MOL0     H79725  10.252   3.215   2.097  0.3306 -0.1431  0.6090
  604MOL0     H79726  10.226   3.390   1.715 -2.9206 -0.1733  0.8945
  604MOL0     H79727  10.408   3.542   2.540 -1.8642 -3.1230  0.1237
  604MOL0     H79728  10.502   3.649   2.749  0.8530 -0.2236 -0.8588
  605MOL0     O79729   7.232   4.354   6.604  0.1976  0.0129 -0.0476
  605MOL0     C79730   7.341   4.402   6.588 -0.1114  0.5813  0.3311
  605MOL0     O79731   7.460   4.356   6.638 -0.7528  0.1269 -1.0479
  605MOL0     C79732   7.464   4.290   6.765 -0.7607  0.0131 -0.4259
  605MOL0     C79733   7.568   4.208   6.789  0.2537 -0.0784  0.4633
  605MOL0     C79734   7.576   4.140   6.911 -0.1064 -0.4609  0.2127
  605MOL0     C79735   7.494   4.153   7.024  1.1154 -0.5142 -0.4818
  605MOL0     O79736   7.514   4.083   7.138 -0.7358  0.4750  0.8406
  605MOL0     C79737   7.412   4.081   7.239 -0.6238 -0.7898  0.4750
  605MOL0     C79738   7.461   3.970   7.338 -0.4036 -0.3374 -0.3423
  605MOL0     C79739   7.577   4.038   7.418  1.0500 -0.0075  0.0759
  605MOL0     C79740   7.715   4.044   7.356  0.0955  0.3350 -0.4555
  605MOL0     C79741   7.801   4.132   7.443 -0.9462  0.3406  0.5348
  605MOL0     C79742   7.862   4.051   7.561 -0.1294  0.0393 -0.3260
  605MOL0     C79743   7.962   4.151   7.619  1.2661  0.4459  1.4991
  605MOL0     C79744   8.086   4.078   7.674 -0.6146  0.4533  0.0451
  605MOL0     N79745   8.177   4.025   7.576 -0.8640 -0.2239 -1.2306
  605MOL0     C79746   8.166   3.903   7.519  1.3452 -0.3261  0.6950
  605MOL0     C79747   8.266   3.903   7.434 -0.1451  0.6815  0.2307
  605MOL0     C79748   8.297   3.794   7.347 -0.0355  1.0495 -0.1711
  605MOL0     C79749   8.192   3.692   7.332 -0.0711  0.2796  0.4193
  605MOL0     C79750   8.208   3.612   7.196 -0.2010 -0.6979 -0.2472
  605MOL0     C79751   8.071   3.548   7.167  0.1989  0.1628 -0.6179
  605MOL0     O79752   7.999   3.646   7.095  0.5527  0.3775  0.2778
  605MOL0     C79753   7.862   3.645   7.081 -0.0882  1.2466  0.8587
  605MOL0     C79754   7.782   3.537   7.100  0.2519  0.3285 -0.8665
  605MOL0     C79755   7.647   3.552   7.088  0.7301  0.0918 -0.0533
  605MOL0     C79756   7.580   3.673   7.058 -0.5527  0.0815  0.5080
  605MOL0     C79757   7.434   3.681   7.071 -0.8200  0.7011 -0.0000
  605MOL0     O79758   7.385   3.793   7.019  0.1657  0.2089  0.0695
  605MOL0     C79759   7.257   3.836   7.054 -0.7962  0.0570  0.5083
  605MOL0     C79760   7.187   3.926   6.974  0.0779  0.7770  0.2805
  605MOL0     C79761   7.058   3.968   6.998 -0.2341 -0.1663  0.0667
  605MOL0     C79762   6.987   3.922   7.103 -0.5647  0.2493  0.2345
  605MOL0     O79763   6.857   3.967   7.129 -0.2723  0.0401  0.3017
  605MOL0     C79764   6.822   4.098   7.077  0.0586 -0.5605  0.3190
  605MOL0     C79765   6.677   4.115   7.131 -0.1734  0.2109  1.2212
  605MOL0     C79766   6.656   4.192   7.255  0.3017  1.4248 -0.2557
  605MOL0     C79767   6.556   4.305   7.236 -0.4618 -0.3935 -0.8464
  605MOL0     C79768   6.511   4.372   7.361 -0.5646 -0.4197  0.2016
  605MOL0     C79769   6.397   4.465   7.324 -0.7924  0.4933  0.5921
  605MOL0     C79770   6.356   4.551   7.441 -0.7725 -0.4861  0.0316
  605MOL0     C79771   6.279   4.681   7.389  0.5209  0.4315 -0.9227
  605MOL0    Cl79772   6.098   4.669   7.427 -0.6503  0.4873  0.1873
  605MOL0     C79773   7.052   3.841   7.189 -0.3662  0.5677 -0.4370
  605MOL0     C79774   7.184   3.795   7.170 -0.7058 -0.4732 -0.3860
  605MOL0     O79775   7.375   3.597   7.138 -0.4762  0.0106 -1.0907
  605MOL0     C79776   7.667   3.783   7.036  0.3239 -0.4714  0.1836
  605MOL0     C79777   7.804   3.766   7.047 -0.0490  0.0310  0.3171
  605MOL0     N79778   8.318   4.031   7.420  0.6744  0.5358 -0.6434
  605MOL0     N79779   8.271   4.098   7.513 -0.0850 -0.7117  0.9513
  605MOL0     C79780   7.394   4.248   6.995  0.4333 -1.3155  0.9659
  605MOL0     C79781   7.377   4.318   6.867  0.0245  0.5532  0.1887
  605MOL0     C79782   7.360   4.506   6.479 -0.0255 -0.6106  0.8507
  605MOL0     C79783   7.492   4.530   6.412  0.5708 -0.5617  0.5090
  605MOL0     C79784   7.502   4.618   6.304  0.5759 -0.4885  0.2197
  605MOL0     C79785   7.389   4.681   6.263  1.2049  0.2497  0.2466
  605MOL0     O79786   7.375   4.764   6.154  0.2288  0.3541  0.4598
  605MOL0     C79787   7.469   4.745   6.044  0.9359 -0.6369  0.5451
  605MOL0     C79788   7.450   4.821   5.916 -0.1154 -0.2058  0.0799
  605MOL0     C79789   7.502   4.968   5.947 -0.3620  0.0189  0.2937
  605MOL0     C79790   7.518   5.031   5.802  0.0335  0.1043  0.0393
  605MOL0     C79791   7.566   5.169   5.822  1.2842  0.6484  0.0409
  605MOL0     C79792   7.619   5.277   5.829 -1.4761  0.3029 -0.0309
  605MOL0     C79793   7.264   4.663   6.319 -0.0426 -0.6002  0.4102
  605MOL0     C79794   7.249   4.581   6.434  0.0126 -0.3684  0.2940
  605MOL0     H79795   7.635   4.201   6.703  0.5060 -0.1285  0.6625
  605MOL0     H79796   7.660   4.071   6.910 -2.2131 -3.2023 -0.9958
  605MOL0     H79797   7.318   4.053   7.191 -1.0003  0.1989  0.6040
  605MOL0     H79798   7.400   4.186   7.270  0.5976  1.1517 -4.6456
  605MOL0     H79799   7.493   3.883   7.279 -0.0718  0.4686 -1.3889
  605MOL0     H79800   7.374   3.960   7.403 -0.6969  1.2650 -0.4467
  605MOL0     H79801   7.583   3.986   7.514 -3.1657  0.8583  1.0234
  605MOL0     H79802   7.545   4.138   7.449 -0.2722  0.5609 -2.8108
  605MOL0     H79803   7.757   3.943   7.350 -1.0236 -0.1092 -1.1326
  605MOL0     H79804   7.711   4.069   7.249 -0.4633  2.7979  0.0818
  605MOL0     H79805   7.749   4.221   7.480  2.5528  2.2119  1.3528
  605MOL0     H79806   7.882   4.179   7.387 -2.1149  4.4137  1.9125
  605MOL0     H79807   7.917   3.963   7.528 -1.9510 -0.4052 -2.4952
  605MOL0     H79808   7.780   4.004   7.617 -2.5202  0.6957 -3.0114
  605MOL0     H79809   7.985   4.232   7.549 -5.1587  1.5552  0.0290
  605MOL0     H79810   7.901   4.202   7.694 -0.1680  2.2249 -0.7323
  605MOL0     H79811   8.053   3.988   7.727  4.9326 -1.3076  1.2037
  605MOL0     H79812   8.137   4.139   7.749 -0.8579  1.3133 -0.4737
  605MOL0     H79813   8.086   3.830   7.527  1.5869 -0.8262 -1.1316
  605MOL0     H79814   8.383   3.746   7.395  0.9248 -1.1393 -3.6831
  605MOL0     H79815   8.312   3.831   7.245  0.9093 -1.3310 -0.9755
  605MOL0     H79816   8.097   3.745   7.327 -1.0548 -1.3899  0.6840
  605MOL0     H79817   8.188   3.618   7.413  2.3111 -0.8137 -0.3634
  605MOL0     H79818   8.226   3.682   7.114 -2.0743  0.4405  0.2536
  605MOL0     H79819   8.277   3.528   7.202  0.6215 -0.2692 -2.5322
  605MOL0     H79820   8.026   3.509   7.259  0.9718  0.5429 -0.0597
  605MOL0     H79821   8.097   3.459   7.110  1.0193 -0.8155  1.2177
  605MOL0     H79822   7.816   3.438   7.129  2.4376  1.3564  0.3206
  605MOL0     H79823   7.599   3.457   7.111 -1.7268  0.6073 -2.4402
  605MOL0     H79824   7.241   3.959   6.885 -0.3543 -1.3989 -0.8593
  605MOL0     H79825   7.014   4.023   6.915  0.2654 -4.2780 -3.2838
  605MOL0     H79826   6.822   4.092   6.968 -1.3150  0.3369  0.2507
  605MOL0     H79827   6.883   4.180   7.118 -0.6627  0.1962 -0.0939
  605MOL0     H79828   6.613   4.026   7.125 -0.1706  0.2958 -0.7182
  605MOL0     H79829   6.642   4.190   7.059  0.6861  1.3083  1.9228
  605MOL0     H79830   6.745   4.242   7.295  1.4590 -0.4889 -0.2775
  605MOL0     H79831   6.626   4.122   7.334  2.3737 -1.9105 -2.1556
  605MOL0     H79832   6.599   4.381   7.170  3.1510  0.2777  1.9674
  605MOL0     H79833   6.466   4.265   7.189 -0.7236 -1.7388  0.7399
  605MOL0     H79834   6.595   4.419   7.414 -0.2029  0.0034 -0.7213
  605MOL0     H79835   6.486   4.304   7.443  3.9237 -3.6176 -0.6961
  605MOL0     H79836   6.309   4.416   7.281 -0.2363 -0.8011  0.8782
  605MOL0     H79837   6.431   4.539   7.251 -0.6350  2.6184  2.7047
  605MOL0     H79838   6.298   4.494   7.514 -1.6807 -1.8255 -1.6411
  605MOL0     H79839   6.443   4.583   7.498  1.1612  0.9035 -3.3650
  605MOL0     H79840   6.297   4.710   7.286 -0.9244 -0.0070 -1.3235
  605MOL0     H79841   6.320   4.763   7.448 -1.0588  1.6752 -1.4864
  605MOL0     H79842   7.011   3.799   7.280  0.8191  0.0377 -0.1264
  605MOL0     H79843   7.233   3.742   7.250  1.7593  1.8370 -0.2288
  605MOL0     H79844   7.630   3.885   7.028  1.7043  0.2509  2.2713
  605MOL0     H79845   7.868   3.851   7.026  1.0812 -1.2454 -1.7741
  605MOL0     H79846   7.322   4.281   7.069  2.3228  3.8789  0.9146
  605MOL0     H79847   7.298   4.390   6.848 -0.3785  0.8400  2.6324
  605MOL0     H79848   7.576   4.470   6.445  0.6168 -1.2377 -0.7629
  605MOL0     H79849   7.593   4.636   6.249 -0.0180  0.7291 -0.3904
  605MOL0     H79850   7.459   4.642   6.011 -0.3645 -0.1374 -0.7016
  605MOL0     H79851   7.574   4.764   6.072  0.8546 -1.2157  1.2895
  605MOL0     H79852   7.501   4.783   5.827 -3.6075 -0.1579 -2.1053
  605MOL0     H79853   7.350   4.816   5.873 -0.3417 -1.3332  0.6949
  605MOL0     H79854   7.590   4.961   6.012 -1.1056 -0.8754  1.2345
  605MOL0     H79855   7.431   5.015   6.016  0.9747  0.0287  1.7288
  605MOL0     H79856   7.576   4.966   5.737  0.4368 -2.6567  2.8904
  605MOL0     H79857   7.414   5.044   5.771  0.4830  4.2446 -0.3913
  605MOL0     H79858   7.664   5.374   5.829 -4.3913  1.7819 -0.9136
  605MOL0     H79859   7.190   4.728   6.274  3.9314  1.6566 -3.6406
  605MOL0     H79860   7.163   4.580   6.499  0.3856 -0.6623  0.7936
  606MOL0     O79861   4.384   1.603   1.086 -0.3705  0.3382 -0.0788
  606MOL0     C79862   4.476   1.526   1.110 -0.4627  0.9941 -0.6955
  606MOL0     O79863   4.560   1.535   1.217 -0.4539 -0.1125 -0.2225
  606MOL0     C79864   4.518   1.633   1.300 -0.1936 -0.4277  0.1036
  606MOL0     C79865   4.446   1.597   1.408  0.3832  0.1798  1.0201
  606MOL0     C79866   4.430   1.695   1.499  0.3977  0.3137  0.1379
  606MOL0     C79867   4.490   1.823   1.497  0.0855  0.5686 -0.2512
  606MOL0     O79868   4.474   1.918   1.594  0.0090  0.8983  0.0508
  606MOL0     C79869   4.591   1.964   1.659 -0.1368  0.4189  0.3181
  606MOL0     C79870   4.687   1.849   1.707  0.0805 -0.3880 -0.4344
  606MOL0     C79871   4.639   1.786   1.837 -0.0315  0.3637  0.5906
  606MOL0     C79872   4.745   1.697   1.887 -0.0431  1.0784  0.6275
  606MOL0     C79873   4.704   1.650   2.023 -0.8774 -0.2585  0.7022
  606MOL0     C79874   4.819   1.614   2.118 -0.2222  0.0665  0.6316
  606MOL0     C79875   4.858   1.472   2.094 -0.7106  0.0435 -0.2290
  606MOL0     C79876   4.947   1.422   2.202  1.0182  1.0317  0.1052
  606MOL0     N79877   5.078   1.491   2.214  0.2959  0.1671 -0.3017
  606MOL0     C79878   5.111   1.604   2.289 -0.3538 -0.1317  0.0367
  606MOL0     C79879   5.237   1.641   2.243  0.9696 -0.5368  0.4164
  606MOL0     C79880   5.305   1.765   2.282  0.6102 -0.5602 -0.9628
  606MOL0     C79881   5.455   1.735   2.280 -0.0074 -0.0413  0.8133
  606MOL0     C79882   5.548   1.857   2.299 -0.2507 -0.3401  0.1655
  606MOL0     C79883   5.684   1.809   2.255 -0.5130  0.5432 -0.3501
  606MOL0     O79884   5.780   1.911   2.268  0.1880  0.6971  0.5801
  606MOL0     C79885   5.888   1.910   2.186  0.0682 -0.2569 -0.8069
  606MOL0     C79886   5.962   2.027   2.177 -0.7076 -0.4054 -0.2691
  606MOL0     C79887   6.082   2.036   2.099  0.2142  0.3859 -0.8809
  606MOL0     C79888   6.126   1.916   2.041  0.3940 -0.0526  0.5943
  606MOL0     C79889   6.255   1.915   1.966  0.9414  1.0135  0.8117
  606MOL0     O79890   6.338   2.015   2.000 -0.2327  0.1430  0.3424
  606MOL0     C79891   6.447   2.054   1.926  0.0485  0.3266 -0.0170
  606MOL0     C79892   6.532   2.155   2.000 -0.0309  0.1467 -0.3835
  606MOL0     C79893   6.648   2.208   1.936  0.1726  0.3838  0.2293
  606MOL0     C79894   6.678   2.171   1.812 -0.4625  0.0652  0.9963
  606MOL0     O79895   6.797   2.220   1.761  0.3333 -0.7912  0.1441
  606MOL0     C79896   6.883   2.120   1.716 -0.7323 -0.6483  0.1992
  606MOL0     C79897   6.903   2.141   1.573  0.1113 -0.3645  0.3442
  606MOL0     C79898   7.014   2.050   1.515 -0.8956  0.5198  0.5903
  606MOL0     C79899   7.039   2.089   1.374 -0.3755 -0.9816 -0.6594
  606MOL0     C79900   7.109   1.971   1.301 -0.6181  0.7158  0.5555
  606MOL0     C79901   7.189   2.045   1.182 -0.7354 -0.0100 -0.4654
  606MOL0     C79902   7.321   2.103   1.234  0.3465  0.4384  0.2153
  606MOL0     C79903   7.386   2.218   1.157  0.5911 -0.6279 -0.1633
  606MOL0    Cl79904   7.526   2.265   1.255  0.4800  0.1423  0.1379
  606MOL0     C79905   6.595   2.092   1.737  1.2688 -0.2610  0.9170
  606MOL0     C79906   6.481   2.030   1.788  0.4805 -0.2253  0.7337
  606MOL0     O79907   6.263   1.834   1.865 -0.1003 -0.5012 -0.0249
  606MOL0     C79908   6.057   1.798   2.054  0.6873  0.7110  0.0867
  606MOL0     C79909   5.936   1.797   2.123  0.1734  0.1203 -0.5690
  606MOL0     N79910   5.278   1.548   2.162  0.2090  0.6331  0.0365
  606MOL0     N79911   5.189   1.458   2.142 -0.7133 -0.0860 -0.1738
  606MOL0     C79912   4.567   1.856   1.385 -0.2722  0.2402  0.1132
  606MOL0     C79913   4.585   1.765   1.289  0.3349  1.0973 -0.3072
  606MOL0     C79914   4.486   1.412   1.016  0.5506 -1.0261  0.5171
  606MOL0     C79915   4.582   1.314   1.051  0.6336  1.0856 -0.1571
  606MOL0     C79916   4.585   1.192   0.984 -0.2573  0.5536  0.1269
  606MOL0     C79917   4.503   1.158   0.873 -0.4037  0.8953  0.4879
  606MOL0     O79918   4.521   1.040   0.800 -0.2321  0.6682 -1.0873
  606MOL0     C79919   4.407   1.001   0.724  0.6316  0.6479 -0.3877
  606MOL0     C79920   4.430   0.848   0.693 -0.0241 -1.0187  0.1919
  606MOL0     C79921   4.424   0.756   0.818 -0.5100  0.7735 -0.2811
  606MOL0     C79922   4.548   0.701   0.861 -0.4954 -0.5982 -0.2034
  606MOL0     C79923   4.514   0.616   0.971  0.7894 -1.1897 -0.5629
  606MOL0     C79924   4.481   0.549   1.070 -1.2331  0.2598  1.1479
  606MOL0     C79925   4.408   1.265   0.838  0.0411  0.9983 -0.4474
  606MOL0     C79926   4.405   1.383   0.910  0.1016 -0.6973  0.1799
  606MOL0     H79927   4.394   1.502   1.417  4.3417 -2.2789  0.0378
  606MOL0     H79928   4.359   1.677   1.580  1.7033  2.0949  1.7553
  606MOL0     H79929   4.575   2.035   1.741  0.3011  1.7509 -0.7284
  606MOL0     H79930   4.657   2.013   1.587  1.1922 -2.4875 -0.6138
  606MOL0     H79931   4.781   1.903   1.720  0.1952 -0.4552 -0.9695
  606MOL0     H79932   4.710   1.771   1.635  3.0551  1.0007 -1.1263
  606MOL0     H79933   4.552   1.720   1.830  1.9862 -2.2776 -2.1367
  606MOL0     H79934   4.629   1.874   1.902 -1.9644  2.8037 -2.7000
  606MOL0     H79935   4.752   1.606   1.827 -0.2259  0.9384  0.8182
  606MOL0     H79936   4.844   1.745   1.892  0.4752  0.2070 -0.6791
  606MOL0     H79937   4.642   1.561   2.009 -1.7449  0.3516  0.5596
  606MOL0     H79938   4.646   1.733   2.063  1.0988  0.9140  1.2872
  606MOL0     H79939   4.772   1.622   2.217 -2.4788  3.5512 -0.5085
  606MOL0     H79940   4.899   1.688   2.114 -0.9751  1.2390  3.8943
  606MOL0     H79941   4.768   1.410   2.089 -0.2293 -0.9453  1.9556
  606MOL0     H79942   4.915   1.455   2.002 -0.1289 -1.0083  0.3060
  606MOL0     H79943   4.963   1.316   2.182  1.6011  1.2597 -0.6747
  606MOL0     H79944   4.891   1.417   2.296 -2.8422  1.8283 -1.9270
  606MOL0     H79945   5.052   1.656   2.364 -2.9493  0.7697 -2.4123
  606MOL0     H79946   5.269   1.807   2.376  2.7610  2.5460 -1.3715
  606MOL0     H79947   5.267   1.838   2.210 -0.0979 -1.8900 -1.9785
  606MOL0     H79948   5.477   1.683   2.186 -2.5998 -2.0966  1.2147
  606MOL0     H79949   5.491   1.667   2.357  1.1829 -2.3747 -1.6374
  606MOL0     H79950   5.523   1.934   2.226  1.7050 -0.2767 -0.5021
  606MOL0     H79951   5.547   1.894   2.401  5.0758  0.6966  0.1453
  606MOL0     H79952   5.683   1.785   2.148  3.3216  1.5391 -0.7739
  606MOL0     H79953   5.715   1.723   2.316 -1.0421  1.1243  0.7683
  606MOL0     H79954   5.930   2.111   2.238  2.1469  0.3278  0.3463
  606MOL0     H79955   6.137   2.128   2.086 -0.4593  0.8827 -0.3111
  606MOL0     H79956   6.483   2.170   2.096 -2.9492 -1.5798 -1.4578
  606MOL0     H79957   6.708   2.285   1.984  1.4086 -1.3757  1.6187
  606MOL0     H79958   6.852   2.016   1.731  2.2771 -1.4599  1.7064
  606MOL0     H79959   6.979   2.122   1.768 -0.9536  2.2510  0.6808
  606MOL0     H79960   6.938   2.244   1.561 -1.4722  0.1014 -0.5307
  606MOL0     H79961   6.817   2.135   1.505 -0.0250  1.1467  0.3382
  606MOL0     H79962   6.981   1.946   1.524  2.0152 -0.3380  3.5466
  606MOL0     H79963   7.107   2.060   1.573 -0.7573  0.8975  0.3089
  606MOL0     H79964   6.944   2.110   1.325 -1.0844 -0.7138  0.7679
  606MOL0     H79965   7.098   2.181   1.375  0.4000 -1.4694 -0.4169
  606MOL0     H79966   7.038   1.892   1.274 -1.2233  1.6520 -0.6717
  606MOL0     H79967   7.188   1.926   1.362 -2.3552 -1.0015  1.6530
  606MOL0     H79968   7.129   2.125   1.137 -2.8537 -0.8629  0.6878
  606MOL0     H79969   7.219   1.974   1.105 -1.3465 -0.5016 -0.2644
  606MOL0     H79970   7.318   2.146   1.335  1.9336  1.4371 -0.1293
  606MOL0     H79971   7.386   2.016   1.244  0.4806  0.7209  2.2572
  606MOL0     H79972   7.312   2.294   1.130  0.7908 -0.2294  0.3706
  606MOL0     H79973   7.432   2.181   1.066 -1.4197  1.6966 -2.2789
  606MOL0     H79974   6.619   2.078   1.631 -0.1171  2.5824  0.1260
  606MOL0     H79975   6.416   1.973   1.723 -2.7936  0.8911  2.7576
  606MOL0     H79976   6.080   1.703   2.008  1.4360 -0.2639  2.3443
  606MOL0     H79977   5.883   1.702   2.134  0.3636  0.2721  3.0225
  606MOL0     H79978   4.622   1.949   1.373  2.1819 -0.5355  3.6987
  606MOL0     H79979   4.656   1.779   1.208  2.9032 -1.5671  1.3034
  606MOL0     H79980   4.653   1.329   1.131  0.4066  1.1256  0.0395
  606MOL0     H79981   4.660   1.116   1.006  1.6001  0.8529 -4.1075
  606MOL0     H79982   4.392   1.057   0.632 -1.1621 -1.1841 -1.3012
  606MOL0     H79983   4.319   1.009   0.789 -0.4049 -1.4611 -1.4300
  606MOL0     H79984   4.346   0.822   0.627 -1.6248  3.7819 -0.0995
  606MOL0     H79985   4.518   0.836   0.629 -2.2449  0.1275 -3.3931
  606MOL0     H79986   4.352   0.677   0.793  0.1742  0.5384 -1.5505
  606MOL0     H79987   4.384   0.818   0.899 -0.3326  0.4202  0.0815
  606MOL0     H79988   4.595   0.646   0.779  1.8530 -0.1797  0.7759
  606MOL0     H79989   4.618   0.781   0.887 -1.0581 -0.2136  0.1727
  606MOL0     H79990   4.466   0.482   1.152  0.9449 -1.6386  0.1135
  606MOL0     H79991   4.348   1.262   0.748  0.4046  0.0573 -0.6735
  606MOL0     H79992   4.322   1.448   0.886  0.2150  0.6428  2.9452
  607MOL0     O79993   9.513   7.014   4.399  0.1726  0.2066  0.1851
  607MOL0     C79994   9.623   7.003   4.339 -0.1453  0.5961 -0.7860
  607MOL0     O79995   9.744   7.047   4.378 -0.9269 -0.1450 -0.7672
  607MOL0     C79996   9.747   7.082   4.504 -0.3642  0.7544 -0.8141
  607MOL0     C79997   9.729   6.973   4.610 -0.0517  1.5261 -0.1085
  607MOL0     C79998   9.738   6.996   4.745 -0.5974 -0.0572  0.3455
  607MOL0     C79999   9.778   7.128   4.791 -0.0645 -1.2854  0.0866
  607MOL0     O80000   9.799   7.176   4.918  0.7481 -0.3978  0.0852
  607MOL0     C80001   9.767   7.079   5.028 -0.4426 -0.9072 -0.6569
  607MOL0     C80002   9.795   7.136   5.171 -0.4930 -0.4246  0.5090
  607MOL0     C80003   9.736   7.049   5.280 -0.0742  0.9067 -0.1681
  607MOL0     C80004   9.747   7.111   5.423  0.0781 -0.5144  0.4438
  607MOL0     C80005   9.670   7.023   5.523  0.3537  0.2858  0.6250
  607MOL0     C80006   9.666   7.073   5.669  0.7479 -0.3987 -0.0450
  607MOL0     C80007   9.578   6.975   5.752  0.0063 -0.2272  0.0716
  607MOL0     C80008   9.590   7.011   5.901 -0.0449  0.3205 -0.0704
  607MOL0     N80009   9.528   7.143   5.933 -0.2243 -0.3166 -0.0774
  607MOL0     C80010   9.389   7.153   5.921 -0.1840 -0.0570 -0.1614
  607MOL0     C80011   9.361   7.262   5.989  0.5114  0.4190  0.3332
  607MOL0     C80012   9.220   7.311   6.019 -0.7159  0.0969  0.5929
  607MOL0     C80013   9.146   7.359   5.894  0.3960 -0.2628  0.6174
  607MOL0     C80014   9.004   7.385   5.930  1.1789 -0.1934  0.4609
  607MOL0     C80015   8.935   7.431   5.799  0.4305  0.5336  1.0823
  607MOL0     O80016   8.951   7.566   5.763 -0.2202 -0.6307 -0.1672
  607MOL0     C80017   8.921   7.609   5.633  1.0396  0.7298  0.4607
  607MOL0     C80018   8.931   7.741   5.625  0.8176 -0.7219  1.1919
  607MOL0     C80019   8.912   7.808   5.502  0.0411 -0.9410 -0.5145
  607MOL0     C80020   8.879   7.737   5.385 -0.6666 -0.1098 -0.5041
  607MOL0     C80021   8.846   7.812   5.263  0.4895 -0.3770  0.1786
  607MOL0     O80022   8.791   7.937   5.281  0.0514  0.0896 -0.2530
  607MOL0     C80023   8.770   8.045   5.195 -0.1065  0.8954  0.3608
  607MOL0     C80024   8.711   8.149   5.259  0.4708 -0.4169 -0.1290
  607MOL0     C80025   8.669   8.267   5.187  0.2850  0.7215  0.2541
  607MOL0     C80026   8.694   8.273   5.048 -0.7627  0.0376  0.3932
  607MOL0     O80027   8.638   8.366   4.961 -1.2155  0.5319  0.2605
  607MOL0     C80028   8.618   8.497   5.008  0.1622  0.2344  0.8404
  607MOL0     C80029   8.560   8.564   4.885 -0.2650  0.3494  0.8127
  607MOL0     C80030   8.429   8.494   4.852 -0.4413  0.1067  0.2628
  607MOL0     C80031   8.310   8.531   4.949 -0.8329 -0.0799  0.6470
  607MOL0     C80032   8.200   8.430   4.935  0.8597 -0.1117 -0.5121
  607MOL0     C80033   8.224   8.327   5.050  0.1360 -0.8340 -0.1154
  607MOL0     C80034   8.124   8.209   5.063  0.4454  0.3685 -1.0182
  607MOL0     C80035   8.106   8.136   4.926 -0.0044 -0.6907 -0.2982
  607MOL0    Cl80036   8.263   8.080   4.885  0.2336 -0.2535 -0.2324
  607MOL0     C80037   8.769   8.173   4.978  0.1437 -0.2322 -0.4582
  607MOL0     C80038   8.799   8.055   5.059  1.1320 -0.9422  0.5459
  607MOL0     O80039   8.855   7.749   5.157  0.4944  0.1695  0.2453
  607MOL0     C80040   8.895   7.596   5.389  0.3428 -0.6573 -1.0411
  607MOL0     C80041   8.904   7.530   5.515  0.4908 -0.4303  0.2459
  607MOL0     N80042   9.474   7.311   6.049  0.1376  0.0559 -0.5948
  607MOL0     N80043   9.580   7.238   6.021  0.6769 -0.0827  0.3521
  607MOL0     C80044   9.805   7.221   4.690 -0.2132  0.3904 -0.2976
  607MOL0     C80045   9.783   7.206   4.555 -0.6638  1.0996  0.3468
  607MOL0     C80046   9.632   6.957   4.202 -1.0275  0.4557  0.6496
  607MOL0     C80047   9.524   6.872   4.160 -0.4847  0.3561 -0.2580
  607MOL0     C80048   9.528   6.830   4.031 -0.7474 -0.5180  1.4313
  607MOL0     C80049   9.638   6.859   3.938  0.8968 -0.7648 -0.8451
  607MOL0     O80050   9.642   6.792   3.814  1.0322  0.4067  0.3075
  607MOL0     C80051   9.756   6.813   3.729  0.4220  0.5390 -0.4153
  607MOL0     C80052   9.743   6.742   3.591 -0.1098 -0.5954 -0.2422
  607MOL0     C80053   9.652   6.811   3.479 -0.3750  0.5806 -0.4934
  607MOL0     C80054   9.511   6.758   3.458  0.0802 -0.3527  0.5010
  607MOL0     C80055   9.510   6.615   3.414 -0.4394 -0.0791  0.4780
  607MOL0     C80056   9.500   6.501   3.390 -0.8118 -0.1694  0.6167
  607MOL0     C80057   9.739   6.942   3.983 -1.1085 -0.7458 -0.2542
  607MOL0     C80058   9.738   6.985   4.111 -0.0399 -1.1488 -0.0873
  607MOL0     H80059   9.709   6.869   4.585 -1.6065  0.4692  4.6089
  607MOL0     H80060   9.724   6.917   4.819 -1.8713 -0.8534 -0.6865
  607MOL0     H80061   9.835   6.993   5.021 -1.6114 -2.0702  1.3632
  607MOL0     H80062   9.661   7.055   5.019 -0.2922 -1.4434 -1.0810
  607MOL0     H80063   9.753   7.238   5.172  0.3693 -0.0197 -1.2750
  607MOL0     H80064   9.901   7.161   5.180 -0.0161 -1.3572 -1.7137
  607MOL0     H80065   9.795   6.957   5.277  0.9705  1.5636 -0.0544
  607MOL0     H80066   9.629   7.032   5.263  0.2150 -0.9333 -0.4308
  607MOL0     H80067   9.854   7.108   5.447  0.3516 -2.1080 -0.8567
  607MOL0     H80068   9.710   7.214   5.414 -1.0867 -0.9699 -0.2796
  607MOL0     H80069   9.699   6.918   5.529  0.7791  0.2174 -1.6395
  607MOL0     H80070   9.564   7.022   5.494  0.2326 -3.5393  0.7997
  607MOL0     H80071   9.622   7.173   5.658  1.9097  0.0174 -1.1655
  607MOL0     H80072   9.766   7.081   5.713  0.0384  0.5088  1.4943
  607MOL0     H80073   9.474   6.974   5.716  0.0714 -3.1020 -0.3010
  607MOL0     H80074   9.626   6.878   5.740 -0.6954 -0.4988 -0.6884
  607MOL0     H80075   9.697   7.018   5.924  0.1741 -0.7155 -0.6838
  607MOL0     H80076   9.534   6.934   5.955  2.7765 -0.7202  1.6236
  607MOL0     H80077   9.327   7.086   5.862 -0.5581 -0.4396  0.6475
  607MOL0     H80078   9.232   7.400   6.080  6.6594  1.0251 -1.2463
  607MOL0     H80079   9.160   7.233   6.067 -2.9926  1.0942 -0.5009
  607MOL0     H80080   9.150   7.269   5.833 -0.1990 -0.9621  1.5825
  607MOL0     H80081   9.177   7.446   5.835  1.0995 -1.2759 -0.5340
  607MOL0     H80082   8.952   7.295   5.965  0.2165 -0.9210 -2.4990
  607MOL0     H80083   9.016   7.466   6.002  3.1131  3.4789 -3.5627
  607MOL0     H80084   8.829   7.416   5.824  0.2658  0.6479  0.4737
  607MOL0     H80085   8.954   7.363   5.716 -0.9842  0.4910  0.7627
  607MOL0     H80086   8.935   7.802   5.715 -3.1128  0.1355  0.9737
  607MOL0     H80087   8.908   7.917   5.498 -3.6402 -0.9489 -0.8317
  607MOL0     H80088   8.676   8.155   5.361 -1.0730  1.2548 -0.6946
  607MOL0     H80089   8.595   8.323   5.243  0.0990 -1.3069  2.1421
  607MOL0     H80090   8.718   8.538   5.029  2.0982 -2.4243 -2.2608
  607MOL0     H80091   8.550   8.515   5.092 -0.6471  3.3608 -0.3668
  607MOL0     H80092   8.628   8.550   4.801 -0.5513 -0.1063  0.6537
  607MOL0     H80093   8.547   8.673   4.882 -0.3153  0.3290 -1.3016
  607MOL0     H80094   8.437   8.385   4.861  0.7046  0.2533  1.3421
  607MOL0     H80095   8.403   8.505   4.747 -1.4496  1.9605  0.6563
  607MOL0     H80096   8.354   8.525   5.049 -0.2176  0.1397  0.3955
  607MOL0     H80097   8.263   8.627   4.928 -0.2835 -0.4157 -2.7381
  607MOL0     H80098   8.187   8.396   4.831 -2.1508 -0.3252 -0.1476
  607MOL0     H80099   8.100   8.470   4.954 -0.7413 -0.6047 -6.0957
  607MOL0     H80100   8.217   8.380   5.145 -2.5768 -2.2843  0.5809
  607MOL0     H80101   8.327   8.296   5.031  0.3348 -0.9010  0.9985
  607MOL0     H80102   8.158   8.138   5.139  1.6366 -0.9439 -2.7073
  607MOL0     H80103   8.024   8.238   5.098 -1.2196 -2.7834 -2.7637
  607MOL0     H80104   8.063   8.197   4.846  0.6708 -1.0962 -0.9878
  607MOL0     H80105   8.026   8.063   4.944 -0.4406  0.1721  1.4914
  607MOL0     H80106   8.798   8.181   4.874  3.2152  3.1318  0.4538
  607MOL0     H80107   8.852   7.976   5.007 -0.1247 -0.5421 -1.4353
  607MOL0     H80108   8.892   7.521   5.311  0.0560  0.4751 -2.1626
  607MOL0     H80109   8.904   7.421   5.523 -0.0339 -0.3816  1.0490
  607MOL0     H80110   9.865   7.299   4.737  1.3762 -1.0543  0.1641
  607MOL0     H80111   9.778   7.290   4.486 -1.0741 -0.2178 -1.2856
  607MOL0     H80112   9.441   6.844   4.224 -0.9694 -0.4449 -1.2082
  607MOL0     H80113   9.436   6.796   3.983  0.1761 -0.3888 -0.5199
  607MOL0     H80114   9.848   6.780   3.778  1.2401  0.7873 -1.7492
  607MOL0     H80115   9.761   6.920   3.705 -0.5530  1.0371  1.4001
  607MOL0     H80116   9.845   6.750   3.555 -0.4698  1.0695 -0.9753
  607MOL0     H80117   9.717   6.636   3.596  0.6446 -0.7184  2.3861
  607MOL0     H80118   9.717   6.807   3.391  3.0779  2.6735  1.7071
  607MOL0     H80119   9.641   6.917   3.503 -1.2445  0.4479 -0.2927
  607MOL0     H80120   9.451   6.766   3.549  0.1519 -0.2360  0.5384
  607MOL0     H80121   9.468   6.813   3.374  0.1040  0.4731  1.0216
  607MOL0     H80122   9.489   6.399   3.360 -1.1208 -0.4542  1.6636
  607MOL0     H80123   9.820   6.966   3.915 -1.9902  0.7002 -0.8515
  607MOL0     H80124   9.812   7.057   4.143 -0.8138  0.1760 -1.1569
  608MOL0     O80125   5.112   4.159   1.338  0.2820 -0.2894  0.0584
  608MOL0     C80126   5.159   4.228   1.430  0.8324  0.3456  0.9755
  608MOL0     O80127   5.144   4.191   1.561  0.2841 -0.0280  0.6866
  608MOL0     C80128   5.082   4.075   1.596  0.5632 -0.0487 -0.2412
  608MOL0     C80129   5.134   3.977   1.691  0.5442 -0.6858  0.2423
  608MOL0     C80130   5.053   3.876   1.737 -0.1403 -0.7396  0.1907
  608MOL0     C80131   4.919   3.854   1.687 -0.3444 -0.3781 -0.0178
  608MOL0     O80132   4.847   3.735   1.702 -0.2547 -0.5964  0.3188
  608MOL0     C80133   4.713   3.727   1.677 -0.1930 -0.2194 -0.5771
  608MOL0     C80134   4.649   3.675   1.800  0.0130 -0.6305 -0.8007
  608MOL0     C80135   4.534   3.589   1.778 -0.6894 -0.6233 -0.0752
  608MOL0     C80136   4.446   3.574   1.902  0.6087  0.4976 -0.6202
  608MOL0     C80137   4.338   3.467   1.896  0.0989  0.0474  0.1748
  608MOL0     C80138   4.198   3.530   1.895  0.0258  0.2977  0.3937
  608MOL0     C80139   4.088   3.425   1.920  0.2519 -0.4976 -0.6148
  608MOL0     C80140   4.060   3.328   1.809 -0.0307 -0.2531 -0.2265
  608MOL0     N80141   3.950   3.247   1.860  0.5541 -0.7158 -0.3368
  608MOL0     C80142   3.837   3.228   1.797 -0.1177 -0.2796  0.1183
  608MOL0     C80143   3.757   3.166   1.882 -0.2385  0.8082 -0.3375
  608MOL0     C80144   3.618   3.127   1.864  0.6674 -0.8637  0.2131
  608MOL0     C80145   3.612   2.991   1.799  0.3533 -0.7349  0.0618
  608MOL0     C80146   3.470   2.945   1.767  0.7908  0.8308  0.4163
  608MOL0     C80147   3.385   2.901   1.893  0.1608 -0.0826  0.6624
  608MOL0     O80148   3.255   2.869   1.841 -0.9276  0.1549 -1.2777
  608MOL0     C80149   3.146   2.904   1.916  0.0386 -0.5334  0.0841
  608MOL0     C80150   3.051   2.821   1.978  0.3035 -0.2849 -0.7902
  608MOL0     C80151   2.946   2.869   2.057  0.2821  0.6299 -0.5661
  608MOL0     C80152   2.920   3.008   2.060  0.5324 -0.2728 -0.4313
  608MOL0     C80153   2.798   3.059   2.134  0.0872  0.0474 -0.1995
  608MOL0     O80154   2.775   3.193   2.146 -0.4424  0.2601 -0.2918
  608MOL0     C80155   2.663   3.226   2.217 -0.2846  0.4329 -0.8563
  608MOL0     C80156   2.532   3.221   2.158  0.2400  0.5347  0.3509
  608MOL0     C80157   2.429   3.269   2.229  1.4654  0.5561  0.4689
  608MOL0     C80158   2.439   3.343   2.344  0.0665 -0.5450 -0.5724
  608MOL0     O80159   2.334   3.399   2.405 -0.0586 -0.3489 -0.7757
  608MOL0     C80160   2.333   3.443   2.539  0.2703  0.2370 -0.7530
  608MOL0     C80161   2.190   3.449   2.602  0.6587  0.7833  0.7665
  608MOL0     C80162   2.187   3.519   2.742  1.0768  0.3893 -0.0593
  608MOL0     C80163   2.295   3.461   2.830  1.1720  0.6288 -0.3809
  608MOL0     C80164   2.305   3.538   2.967  0.4192 -0.2885  0.2686
  608MOL0     C80165   2.415   3.473   3.044 -0.1092 -0.1864 -0.8891
  608MOL0     C80166   2.411   3.516   3.194  0.3781  0.4713 -0.1680
  608MOL0     C80167   2.297   3.460   3.272 -0.2987  0.5431  1.0791
  608MOL0    Cl80168   2.274   3.279   3.241 -0.0989 -0.4209  0.0041
  608MOL0     C80169   2.571   3.352   2.400  0.0429 -0.3702 -1.0150
  608MOL0     C80170   2.682   3.284   2.343  0.1826  0.2983 -0.1064
  608MOL0     O80171   2.720   2.971   2.167 -0.6828  0.5386  0.6755
  608MOL0     C80172   3.003   3.094   1.989 -0.6408 -0.9775 -0.7153
  608MOL0     C80173   3.116   3.041   1.922 -1.2980 -0.1122 -0.1130
  608MOL0     N80174   3.832   3.137   2.001  0.3094  0.1996  0.6445
  608MOL0     N80175   3.944   3.195   1.983 -1.1448  0.2377  0.1853
  608MOL0     C80176   4.866   3.962   1.610 -0.1685  0.6042 -0.3679
  608MOL0     C80177   4.945   4.075   1.568 -0.6174  0.1459 -0.4159
  608MOL0     C80178   5.236   4.350   1.406 -0.1688 -0.6230  0.1642
  608MOL0     C80179   5.276   4.419   1.520 -1.0702  0.2245  0.7574
  608MOL0     C80180   5.367   4.523   1.509 -0.2424 -0.3733  1.9239
  608MOL0     C80181   5.423   4.556   1.379  0.9733 -0.2560  0.3778
  608MOL0     O80182   5.498   4.668   1.379 -0.1190 -0.5808  0.8650
  608MOL0     C80183   5.585   4.702   1.275 -0.4386  0.7974  0.9238
  608MOL0     C80184   5.698   4.595   1.266  0.4095  0.4356 -0.1554
  608MOL0     C80185   5.810   4.640   1.358 -1.2252  0.0046  0.5063
  608MOL0     C80186   5.948   4.599   1.301 -0.7865 -0.7548  0.7328
  608MOL0     C80187   6.046   4.715   1.316 -0.1053  0.3072 -0.3022
  608MOL0     C80188   6.127   4.804   1.321  0.4294 -0.2648 -0.4224
  608MOL0     C80189   5.377   4.485   1.270  0.7373  0.2559  0.0801
  608MOL0     C80190   5.289   4.383   1.286 -0.9924 -0.3004  0.7880
  608MOL0     H80191   5.240   3.988   1.714  0.3557 -0.2118  0.9297
  608MOL0     H80192   5.104   3.810   1.806 -4.7087 -7.2053 -1.7190
  608MOL0     H80193   4.690   3.649   1.603 -0.5980  0.4407 -1.1615
  608MOL0     H80194   4.668   3.819   1.639 -2.2099 -0.4770  0.9609
  608MOL0     H80195   4.636   3.755   1.874 -2.7364  0.4567 -2.2908
  608MOL0     H80196   4.725   3.615   1.850  0.8751  1.3903  0.4351
  608MOL0     H80197   4.573   3.490   1.755  0.5351 -0.8158  2.4849
  608MOL0     H80198   4.468   3.621   1.696 -0.7658  1.0750  0.5981
  608MOL0     H80199   4.513   3.532   1.978  0.2001  2.8090  1.1492
  608MOL0     H80200   4.397   3.670   1.920 -1.9519 -0.3712 -2.3910
  608MOL0     H80201   4.359   3.395   1.976 -0.7426 -3.3380 -2.4435
  608MOL0     H80202   4.348   3.403   1.808 -1.3592  1.3261 -0.9797
  608MOL0     H80203   4.181   3.584   1.801 -0.7964  0.8728  0.8540
  608MOL0     H80204   4.193   3.618   1.959  0.7975  2.0717 -1.8362
  608MOL0     H80205   4.122   3.376   2.012  0.4905  0.5294 -0.1478
  608MOL0     H80206   3.993   3.477   1.937  1.1798  0.5199  1.9955
  608MOL0     H80207   4.154   3.280   1.779  1.9885  3.1973 -0.0024
  608MOL0     H80208   4.021   3.368   1.716 -3.5603 -2.1102  0.2746
  608MOL0     H80209   3.813   3.265   1.698 -0.8571 -1.0419  0.0001
  608MOL0     H80210   3.569   3.209   1.812 -1.0974 -1.1103  1.4250
  608MOL0     H80211   3.578   3.121   1.965 -1.5629 -3.6637 -0.6957
  608MOL0     H80212   3.671   2.926   1.864 -0.3306 -1.5184 -0.0891
  608MOL0     H80213   3.677   2.994   1.711  0.1875  0.5736 -0.0294
  608MOL0     H80214   3.405   3.014   1.711  0.9078 -1.4588 -2.8189
  608MOL0     H80215   3.473   2.849   1.713  1.0682 -0.7482  3.0685
  608MOL0     H80216   3.372   2.990   1.956  0.4079  1.2516 -1.0784
  608MOL0     H80217   3.424   2.813   1.945  0.2695 -0.5155 -0.1345
  608MOL0     H80218   3.055   2.712   1.978  0.3815 -0.2845 -1.3429
  608MOL0     H80219   2.887   2.793   2.107 -0.8557  2.0230  0.3056
  608MOL0     H80220   2.514   3.178   2.060  0.5239  0.4505  0.3343
  608MOL0     H80221   2.334   3.251   2.180  1.6535 -3.4377  1.2658
  608MOL0     H80222   2.389   3.537   2.540 -2.0626  1.6855 -0.4674
  608MOL0     H80223   2.391   3.374   2.602 -1.7277 -2.0663 -1.3031
  608MOL0     H80224   2.144   3.351   2.613  3.8716 -0.6683  2.7828
  608MOL0     H80225   2.138   3.509   2.526  1.3849 -1.3635 -1.5925
  608MOL0     H80226   2.085   3.506   2.777  1.2043 -4.9972 -0.8938
  608MOL0     H80227   2.207   3.624   2.720 -0.9030  1.1594  1.5140
  608MOL0     H80228   2.286   3.352   2.836  1.0474  0.6940  0.8954
  608MOL0     H80229   2.388   3.473   2.775  0.2575 -1.3160 -2.5399
  608MOL0     H80230   2.207   3.541   3.016  0.1702  0.7052 -0.2600
  608MOL0     H80231   2.334   3.641   2.943 -2.1750  0.5631  0.4586
  608MOL0     H80232   2.519   3.488   3.012  1.0375 -1.0334  2.1008
  608MOL0     H80233   2.412   3.364   3.038  3.3013 -0.3598 -1.6825
  608MOL0     H80234   2.500   3.484   3.248 -0.5593  0.1861  1.2496
  608MOL0     H80235   2.397   3.623   3.208  0.5511  0.9505 -2.9922
  608MOL0     H80236   2.206   3.509   3.235  1.6771  2.4494 -1.6597
  608MOL0     H80237   2.307   3.466   3.381  0.0899 -4.2288  1.5233
  608MOL0     H80238   2.589   3.421   2.482  2.5159  0.3470 -2.0681
  608MOL0     H80239   2.778   3.294   2.393  1.3428  0.4313 -2.2084
  608MOL0     H80240   2.978   3.199   1.989 -0.2652 -0.8859 -1.4585
  608MOL0     H80241   3.185   3.107   1.872  0.2571 -2.3976 -1.1775
  608MOL0     H80242   4.760   3.969   1.585  0.0311  0.4175 -1.2990
  608MOL0     H80243   4.898   4.138   1.493 -1.0261  1.9228  1.2746
  608MOL0     H80244   5.250   4.391   1.621 -2.7938  0.0964  0.3119
  608MOL0     H80245   5.404   4.585   1.591  1.3509  0.1750  0.8433
  608MOL0     H80246   5.626   4.803   1.281  0.2288  0.6031 -0.0822
  608MOL0     H80247   5.535   4.709   1.178  2.2694  3.5787 -0.4291
  608MOL0     H80248   5.661   4.494   1.284 -0.1425  0.6912  0.1640
  608MOL0     H80249   5.746   4.598   1.167  5.3089 -0.0064  1.9157
  608MOL0     H80250   5.785   4.598   1.456 -0.5579  0.1422  0.7431
  608MOL0     H80251   5.808   4.744   1.393 -2.0372  0.0643  0.3034
  608MOL0     H80252   5.977   4.518   1.368 -0.6252  0.4056  2.1175
  608MOL0     H80253   5.943   4.570   1.196  0.9025 -0.0711  0.4288
  608MOL0     H80254   6.191   4.889   1.328  0.6994 -0.3169 -1.9228
  608MOL0     H80255   5.396   4.518   1.168  0.8934 -2.2367 -0.7622
  608MOL0     H80256   5.260   4.316   1.205  0.7790 -1.2545  0.8824
  609MOL0     O80257   3.759   8.816   3.533 -0.6485  0.0898  0.2990
  609MOL0     C80258   3.789   8.905   3.455  0.2332  0.5370 -0.3339
  609MOL0     O80259   3.886   8.908   3.357  0.2714  0.1176 -0.9965
  609MOL0     C80260   3.977   8.810   3.329  0.3171 -0.6216 -0.5556
  609MOL0     C80261   3.954   8.721   3.228  0.2360  0.5344  0.1107
  609MOL0     C80262   4.055   8.629   3.190 -0.1595 -0.2030  0.2592
  609MOL0     C80263   4.183   8.636   3.249  0.4633  0.1155  0.4713
  609MOL0     O80264   4.265   8.539   3.212  0.2371 -0.9716 -0.1590
  609MOL0     C80265   4.399   8.524   3.263  0.3190 -0.1897 -0.1617
  609MOL0     C80266   4.507   8.600   3.187  0.3974  0.4135 -0.2955
  609MOL0     C80267   4.492   8.609   3.026 -0.6408 -0.1528 -0.6501
  609MOL0     C80268   4.505   8.755   2.975  0.4027 -0.2407  0.4316
  609MOL0     C80269   4.372   8.827   2.969  0.4573 -0.4966  0.7615
  609MOL0     C80270   4.385   8.983   2.945 -0.0722  0.2627 -0.7137
  609MOL0     C80271   4.394   9.021   2.804  0.5834 -0.5232 -0.9567
  609MOL0     C80272   4.397   9.178   2.799  0.6073 -1.0148  0.3666
  609MOL0     N80273   4.395   9.231   2.669 -0.1190  0.1025  0.8026
  609MOL0     C80274   4.299   9.210   2.565 -0.7144  0.2816 -0.6194
  609MOL0     C80275   4.358   9.260   2.451 -0.5013  0.6163 -0.0980
  609MOL0     C80276   4.304   9.252   2.312  0.3143 -0.8708 -0.4967
  609MOL0     C80277   4.400   9.283   2.201 -0.2428  0.4084  0.1184
  609MOL0     C80278   4.440   9.429   2.197 -0.1639 -0.3854 -0.3578
  609MOL0     C80279   4.481   9.472   2.059 -0.1271  0.7399  0.5522
  609MOL0     O80280   4.492   9.609   2.066  0.2976 -1.4474 -0.2198
  609MOL0     C80281   4.507   9.679   1.943 -0.6029 -0.0194 -0.1913
  609MOL0     C80282   4.576   9.799   1.952 -0.2001  0.8009 -0.1058
  609MOL0     C80283   4.585   9.886   1.842  0.4043 -0.5821 -0.3249
  609MOL0     C80284   4.532   9.850   1.716  0.5411 -0.5061 -0.7615
  609MOL0     C80285   4.547   9.942   1.605 -0.2793  0.7676  1.3033
  609MOL0     O80286   4.594  10.071   1.638  0.3618  0.8111  0.7928
  609MOL0     C80287   4.638  10.173   1.553 -0.2782  0.0301  0.6207
  609MOL0     C80288   4.570  10.207   1.433  0.6635  0.7059 -0.1799
  609MOL0     C80289   4.614  10.312   1.360 -0.5104  0.3527 -0.3320
  609MOL0     C80290   4.727  10.396   1.400 -0.4323 -0.5044  0.4994
  609MOL0     O80291   4.761  10.517   1.339  0.5612  0.3445  0.4675
  609MOL0     C80292   4.648  10.592   1.277  0.1946 -0.2443 -0.2020
  609MOL0     C80293   4.549  10.657   1.372 -0.1783 -0.0991 -0.4833
  609MOL0     C80294   4.639  10.748   1.463  0.7738 -0.5315  0.3186
  609MOL0     C80295   4.552  10.835   1.565  0.8985  0.4807  0.6856
  609MOL0     C80296   4.615  10.930   1.665  0.0585  1.0091 -0.0971
  609MOL0     C80297   4.497  11.014   1.728 -0.2059  1.2156 -0.7219
  609MOL0     C80298   4.532  11.079   1.856  0.2517  0.9023  0.2961
  609MOL0     C80299   4.423  11.176   1.894 -0.8758 -0.0190 -0.9571
  609MOL0    Cl80300   4.435  11.315   1.764 -0.1686 -0.0321 -0.0425
  609MOL0     C80301   4.797  10.360   1.518 -1.2429 -0.1555  0.8029
  609MOL0     C80302   4.755  10.251   1.590 -0.3118 -0.0988 -0.7715
  609MOL0     O80303   4.503   9.904   1.494 -0.1943 -1.8738  0.4038
  609MOL0     C80304   4.464   9.730   1.715  0.1727 -0.1728 -0.3380
  609MOL0     C80305   4.459   9.636   1.823 -0.1292 -0.3735  0.1094
  609MOL0     N80306   4.489   9.312   2.487  0.3037 -0.0081 -1.2443
  609MOL0     N80307   4.504   9.300   2.617 -0.0640 -0.5599 -0.3387
  609MOL0     C80308   4.212   8.734   3.353  0.0959 -1.3918  0.3922
  609MOL0     C80309   4.102   8.822   3.388  0.5791  0.3833 -0.0332
  609MOL0     C80310   3.726   9.037   3.475 -0.3785  0.8898  0.4993
  609MOL0     C80311   3.619   9.047   3.566 -0.0634 -1.0498  0.3438
  609MOL0     C80312   3.572   9.171   3.616 -0.4223  0.1954 -0.1048
  609MOL0     C80313   3.606   9.291   3.555  0.1651  0.5812  0.3851
  609MOL0     O80314   3.549   9.408   3.594 -0.5933 -0.2818 -0.0175
  609MOL0     C80315   3.556   9.441   3.738 -0.2555 -1.3204  0.3454
  609MOL0     C80316   3.555   9.593   3.754  0.6580 -0.0988 -0.4426
  609MOL0     C80317   3.516   9.641   3.894 -0.4346 -0.1855  1.5363
  609MOL0     C80318   3.544   9.795   3.905  0.3264 -0.7630 -0.4331
  609MOL0     C80319   3.467   9.861   4.009  0.1788  0.3153  0.0871
  609MOL0     C80320   3.381   9.908   4.082 -0.9840 -0.3073 -0.2404
  609MOL0     C80321   3.698   9.279   3.448  0.2167 -0.2204  0.1478
  609MOL0     C80322   3.756   9.159   3.415 -0.0597 -0.3197  0.0172
  609MOL0     H80323   3.853   8.720   3.188  1.6652  1.1651 -3.9705
  609MOL0     H80324   4.031   8.547   3.123 -0.3803 -0.7269  0.9669
  609MOL0     H80325   4.428   8.419   3.259  1.2784  0.0945 -1.1388
  609MOL0     H80326   4.404   8.555   3.368  4.6804 -0.3142 -0.1469
  609MOL0     H80327   4.612   8.575   3.204  0.2085  0.2251  0.6511
  609MOL0     H80328   4.493   8.704   3.219 -1.6820  0.5583 -1.4882
  609MOL0     H80329   4.399   8.561   2.994 -1.0330 -0.1715  0.4795
  609MOL0     H80330   4.581   8.556   2.992 -1.7721 -1.3189 -1.8958
  609MOL0     H80331   4.567   8.820   3.037  0.3690  0.5354 -0.3186
  609MOL0     H80332   4.541   8.758   2.872  0.9865 -0.5433  0.6251
  609MOL0     H80333   4.334   8.823   3.071  2.3033  1.5358  1.6017
  609MOL0     H80334   4.313   8.786   2.886  2.2478 -2.5353  0.3949
  609MOL0     H80335   4.475   9.031   2.987 -0.2417  0.2071 -0.2889
  609MOL0     H80336   4.296   9.035   2.980 -1.4114  0.1215 -3.6497
  609MOL0     H80337   4.482   8.976   2.759 -0.6056 -5.4131  0.9788
  609MOL0     H80338   4.305   8.976   2.758  0.3909 -2.3200  1.0220
  609MOL0     H80339   4.492   9.206   2.847  0.6350  0.3683 -0.4666
  609MOL0     H80340   4.313   9.212   2.860 -1.3664 -0.0992 -2.6533
  609MOL0     H80341   4.219   9.136   2.563  2.5661 -3.6195 -1.0596
  609MOL0     H80342   4.218   9.320   2.303 -0.1725 -1.3094  0.5694
  609MOL0     H80343   4.266   9.150   2.300  3.9449 -3.0216  3.4406
  609MOL0     H80344   4.338   9.247   2.118 -1.8787 -2.8363  2.5506
  609MOL0     H80345   4.483   9.212   2.201 -0.5562 -0.0942 -2.8096
  609MOL0     H80346   4.364   9.495   2.240  0.8699  0.4157  0.2988
  609MOL0     H80347   4.525   9.451   2.262 -0.4588  1.8405 -0.6441
  609MOL0     H80348   4.407   9.436   1.986  0.3436  1.5125 -0.3143
  609MOL0     H80349   4.582   9.437   2.039  0.5975  2.6094  0.8067
  609MOL0     H80350   4.627   9.819   2.046 -0.2709  0.5398 -0.0092
  609MOL0     H80351   4.636   9.981   1.854  2.3388 -1.6844  0.6689
  609MOL0     H80352   4.481  10.151   1.407  0.1838 -0.7007  3.8562
  609MOL0     H80353   4.568  10.333   1.264 -3.1373  0.0046  0.7642
  609MOL0     H80354   4.588  10.530   1.210  2.3194 -1.9303 -0.6554
  609MOL0     H80355   4.699  10.673   1.225  4.9159 -1.2405  2.2746
  609MOL0     H80356   4.487  10.579   1.416 -1.8691  1.2370 -0.3989
  609MOL0     H80357   4.478  10.727   1.327 -0.0940 -0.4813 -1.2251
  609MOL0     H80358   4.679  10.818   1.389 -0.1696  0.6549  0.8966
  609MOL0     H80359   4.708  10.687   1.522 -0.7687 -1.7844  0.8941
  609MOL0     H80360   4.477  10.889   1.507  0.1000 -1.0269  0.2674
  609MOL0     H80361   4.481  10.769   1.615 -0.1607  0.9660 -0.1388
  609MOL0     H80362   4.677  10.995   1.603 -0.2083  0.5908 -0.8138
  609MOL0     H80363   4.679  10.877   1.736  0.3713  0.3621 -0.8506
  609MOL0     H80364   4.408  10.954   1.751 -0.0228  1.6072  1.1454
  609MOL0     H80365   4.477  11.088   1.650  0.8352 -1.0016 -3.2505
  609MOL0     H80366   4.530  10.995   1.926 -1.0770 -0.6913 -1.5396
  609MOL0     H80367   4.632  11.123   1.848  0.1663  0.8241 -1.6288
  609MOL0     H80368   4.455  11.212   1.992  0.3350 -2.0690 -0.5499
  609MOL0     H80369   4.323  11.131   1.892 -1.8788  1.8834  1.0079
  609MOL0     H80370   4.874  10.432   1.543 -2.4889  1.9661 -1.1177
  609MOL0     H80371   4.787  10.236   1.693 -2.6286  0.9789  0.1821
  609MOL0     H80372   4.419   9.692   1.623  4.2472 -2.3825 -1.6964
  609MOL0     H80373   4.405   9.542   1.821  2.1513 -1.7293 -0.9536
  609MOL0     H80374   4.312   8.738   3.395  0.1646 -1.7390  0.2618
  609MOL0     H80375   4.118   8.896   3.466  1.3012  2.1314 -1.7588
  609MOL0     H80376   3.568   8.964   3.613 -0.3327  0.0722  2.1501
  609MOL0     H80377   3.506   9.181   3.701  2.6076  2.3392  2.2210
  609MOL0     H80378   3.646   9.397   3.782  1.0856  1.1506  0.2894
  609MOL0     H80379   3.466   9.398   3.782 -1.7771 -0.1834 -1.4946
  609MOL0     H80380   3.651   9.641   3.732  2.9333 -3.7896  0.5579
  609MOL0     H80381   3.480   9.635   3.685  2.0380  0.8226 -1.4453
  609MOL0     H80382   3.560   9.594   3.983 -0.1850  1.4541  2.3263
  609MOL0     H80383   3.407   9.629   3.900 -0.5829 -0.2362 -0.5990
  609MOL0     H80384   3.652   9.816   3.904  0.2146  0.3855  2.6444
  609MOL0     H80385   3.516   9.849   3.814  3.6475 -1.0435 -1.7815
  609MOL0     H80386   3.316   9.949   4.157 -1.2263  0.7137 -0.9682
  609MOL0     H80387   3.730   9.370   3.397 -0.5087  1.2100  2.1479
  609MOL0     H80388   3.841   9.170   3.348  1.3746  1.5860  2.0022
  610MOL0     O80389   7.741   7.480   5.935 -0.6721  0.6578 -0.3731
  610MOL0     C80390   7.719   7.600   5.945  0.6121 -0.7691  1.4735
  610MOL0     O80391   7.617   7.656   5.870  0.2403 -0.3760  1.3034
  610MOL0     C80392   7.566   7.570   5.766 -0.4130 -1.2264  0.9897
  610MOL0     C80393   7.432   7.531   5.758  0.0860 -0.2995  0.0792
  610MOL0     C80394   7.383   7.441   5.663  0.6063  0.3176 -0.3779
  610MOL0     C80395   7.465   7.396   5.560  0.3609  0.1959  0.1304
  610MOL0     O80396   7.417   7.339   5.442  0.8190  0.5966  0.6543
  610MOL0     C80397   7.311   7.244   5.442  0.3150  0.4923 -1.1267
  610MOL0     C80398   7.285   7.161   5.320  0.0996  0.3605  0.0364
  610MOL0     C80399   7.243   7.248   5.196 -0.4005  0.3022 -0.3400
  610MOL0     C80400   7.220   7.148   5.083  0.2234 -0.1820 -1.6803
  610MOL0     C80401   7.166   7.215   4.957 -0.4568 -0.7672 -0.1495
  610MOL0     C80402   7.035   7.304   4.963  0.7750 -0.4952 -0.2558
  610MOL0     C80403   6.907   7.241   5.012 -0.2455  0.9464 -0.7506
  610MOL0     C80404   6.797   7.341   5.029 -0.0749 -0.5728 -0.2044
  610MOL0     N80405   6.816   7.442   5.133 -0.7399  0.1355  0.8488
  610MOL0     C80406   6.861   7.435   5.258  0.1495  0.1479  0.0666
  610MOL0     C80407   6.894   7.561   5.296  0.6634 -0.0376  0.6348
  610MOL0     C80408   6.957   7.586   5.418  0.6062 -0.3313 -0.5389
  610MOL0     C80409   7.110   7.553   5.404 -0.2729 -1.0122  0.1014
  610MOL0     C80410   7.189   7.651   5.305 -0.7885 -0.3349 -0.2425
  610MOL0     C80411   7.316   7.698   5.375 -1.2165 -0.3880 -0.2786
  610MOL0     O80412   7.267   7.778   5.481 -0.3807 -0.6532  0.2373
  610MOL0     C80413   7.360   7.856   5.550  0.3463  0.6860 -0.6746
  610MOL0     C80414   7.504   7.830   5.566  0.5075 -0.1467  0.1922
  610MOL0     C80415   7.570   7.916   5.651 -0.2887 -0.3520  0.4237
  610MOL0     C80416   7.505   8.019   5.723 -0.3880 -0.5836 -0.6596
  610MOL0     C80417   7.570   8.089   5.834  0.2559 -0.3775 -0.5791
  610MOL0     O80418   7.506   8.177   5.909 -1.8927  0.0198  0.2791
  610MOL0     C80419   7.571   8.220   6.020 -0.1574 -0.3223  0.1508
  610MOL0     C80420   7.674   8.311   6.023  0.4559 -0.1661  0.3812
  610MOL0     C80421   7.750   8.329   6.131 -0.9815 -0.0959  0.0286
  610MOL0     C80422   7.725   8.260   6.255 -1.1723  0.2023  0.3955
  610MOL0     O80423   7.801   8.307   6.354 -0.0911 -0.3580 -0.3427
  610MOL0     C80424   7.758   8.254   6.485  0.4607  0.1498 -0.1138
  610MOL0     C80425   7.810   8.106   6.504 -0.4830 -1.3516 -0.5884
  610MOL0     C80426   7.715   8.045   6.609 -0.5260 -1.1785 -0.4996
  610MOL0     C80427   7.771   7.914   6.666 -0.0251  0.8211  0.2243
  610MOL0     C80428   7.668   7.822   6.724 -0.1565 -0.4733 -0.2169
  610MOL0     C80429   7.717   7.689   6.772 -0.5794 -0.7267 -0.5056
  610MOL0     C80430   7.610   7.580   6.800 -0.3382  0.5016  0.1456
  610MOL0     C80431   7.682   7.447   6.807 -0.1204 -0.0547 -0.0460
  610MOL0    Cl80432   7.800   7.452   6.933  0.0740 -0.0615 -0.1860
  610MOL0     C80433   7.617   8.166   6.251  1.0214 -0.5944 -0.3135
  610MOL0     C80434   7.541   8.155   6.137 -0.0352  0.6288 -0.6207
  610MOL0     O80435   7.688   8.052   5.843 -0.0642 -0.9536  0.4103
  610MOL0     C80436   7.365   8.035   5.710 -0.1093  0.1835  0.1533
  610MOL0     C80437   7.299   7.956   5.614  1.0307  0.6737  0.0239
  610MOL0     N80438   6.857   7.649   5.198  0.4275 -0.2095 -0.3601
  610MOL0     N80439   6.815   7.578   5.097  0.3049  0.9948  0.5662
  610MOL0     C80440   7.593   7.446   5.558  0.9099  0.2749  0.7168
  610MOL0     C80441   7.645   7.517   5.665 -0.3754  1.2017 -0.5007
  610MOL0     C80442   7.801   7.679   6.049 -0.0033 -0.3678  0.5280
  610MOL0     C80443   7.905   7.620   6.109  0.0652  0.0518 -0.3627
  610MOL0     C80444   7.988   7.689   6.199 -0.3127  1.1510 -0.8772
  610MOL0     C80445   7.972   7.822   6.222 -0.4126  0.0171 -0.5761
  610MOL0     O80446   8.051   7.895   6.303  0.0155 -0.0181 -0.8174
  610MOL0     C80447   8.190   7.859   6.314  0.0957  0.1671  0.1789
  610MOL0     C80448   8.208   7.777   6.453 -0.8078  0.0061 -1.0631
  610MOL0     C80449   8.160   7.843   6.580  1.2227 -0.0117  0.1961
  610MOL0     C80450   8.206   7.988   6.593 -0.7855 -0.2730 -0.8959
  610MOL0     C80451   8.129   8.041   6.705  0.1053  0.6340 -0.8244
  610MOL0     C80452   8.085   8.094   6.804  1.0429 -0.0846 -0.6995
  610MOL0     C80453   7.862   7.891   6.163 -0.6059 -0.6188  0.6000
  610MOL0     C80454   7.782   7.818   6.079  0.1029  0.4807  0.4450
  610MOL0     H80455   7.362   7.563   5.834  0.5661 -0.3981  0.5695
  610MOL0     H80456   7.278   7.414   5.666  1.0200 -1.4064  2.6210
  610MOL0     H80457   7.215   7.293   5.463 -0.2020  0.1652 -2.6165
  610MOL0     H80458   7.322   7.180   5.530 -1.9764  1.4527 -0.0442
  610MOL0     H80459   7.205   7.089   5.339  1.0725 -0.6357  0.5260
  610MOL0     H80460   7.376   7.101   5.309 -1.2854 -1.5752 -1.4433
  610MOL0     H80461   7.322   7.319   5.169  0.0902  0.5982  1.7395
  610MOL0     H80462   7.143   7.291   5.212 -0.7734 -0.9240  0.8181
  610MOL0     H80463   7.312   7.091   5.065  0.4520  0.3014 -2.0700
  610MOL0     H80464   7.151   7.074   5.126  0.6161 -0.3335 -1.3029
  610MOL0     H80465   7.136   7.139   4.885 -0.1628  0.8279 -2.0218
  610MOL0     H80466   7.238   7.282   4.909 -4.0143  3.5173 -0.1969
  610MOL0     H80467   7.008   7.328   4.860 -3.0206 -0.3737  0.6328
  610MOL0     H80468   7.058   7.395   5.019  0.6038  0.2094 -1.3103
  610MOL0     H80469   6.874   7.167   4.939 -1.0641 -0.6740  1.1705
  610MOL0     H80470   6.923   7.194   5.110  0.0251  2.7732  0.1172
  610MOL0     H80471   6.700   7.294   5.044 -0.5718  1.0475  2.1609
  610MOL0     H80472   6.788   7.393   4.933  3.2784 -1.6824 -1.2559
  610MOL0     H80473   6.869   7.339   5.308  0.8342 -0.2633 -0.8068
  610MOL0     H80474   6.921   7.521   5.498 -1.2065 -0.9965 -1.8383
  610MOL0     H80475   6.946   7.688   5.457 -1.7319 -1.7811  3.0857
  610MOL0     H80476   7.123   7.450   5.367  0.2311 -0.2082 -2.1430
  610MOL0     H80477   7.149   7.563   5.506 -2.0650  0.7267  0.6592
  610MOL0     H80478   7.209   7.605   5.207 -4.5767 -0.8821 -0.9157
  610MOL0     H80479   7.134   7.740   5.277  1.5403  0.9415 -1.0859
  610MOL0     H80480   7.371   7.765   5.307 -0.3614 -1.5094 -0.7251
  610MOL0     H80481   7.377   7.615   5.411 -0.6585  1.9892  5.1360
  610MOL0     H80482   7.547   7.740   5.524  0.2125 -1.5259  2.6372
  610MOL0     H80483   7.670   7.876   5.666  0.1070  0.6836  0.6606
  610MOL0     H80484   7.700   8.367   5.934 -0.6601 -0.1818  0.0350
  610MOL0     H80485   7.838   8.393   6.139 -1.3905  0.6550 -1.1725
  610MOL0     H80486   7.651   8.247   6.504  0.7864 -1.3232  1.3247
  610MOL0     H80487   7.795   8.323   6.562  0.7830 -0.7018  0.5086
  610MOL0     H80488   7.912   8.112   6.541 -0.4261  1.0490 -0.9932
  610MOL0     H80489   7.796   8.042   6.416 -3.0762 -3.0836  0.9402
  610MOL0     H80490   7.614   8.036   6.569 -1.0849 -2.3574  1.0962
  610MOL0     H80491   7.702   8.106   6.699  0.2928  2.8517 -2.8657
  610MOL0     H80492   7.817   7.866   6.580  0.4321  0.9683  0.3867
  610MOL0     H80493   7.847   7.943   6.740 -0.5955  0.8775  0.8054
  610MOL0     H80494   7.599   7.789   6.647  0.8420 -1.4602 -0.7216
  610MOL0     H80495   7.617   7.881   6.801 -0.2875 -0.9956  0.1013
  610MOL0     H80496   7.770   7.709   6.865  0.7982 -0.1342 -1.3783
  610MOL0     H80497   7.800   7.655   6.708  0.7619  2.1100 -0.3841
  610MOL0     H80498   7.549   7.607   6.887 -0.6705  2.9596 -0.7665
  610MOL0     H80499   7.545   7.583   6.711  1.6810  1.9152 -1.3715
  610MOL0     H80500   7.735   7.426   6.713  0.2881  4.3089 -0.9996
  610MOL0     H80501   7.613   7.364   6.825 -0.3752  0.2603  0.4480
  610MOL0     H80502   7.579   8.109   6.335  0.0144  0.1636 -0.2359
  610MOL0     H80503   7.457   8.086   6.134 -0.2659  0.8144  1.0543
  610MOL0     H80504   7.305   8.101   5.772 -1.9423 -1.6777  0.4843
  610MOL0     H80505   7.197   7.986   5.589  1.7164  1.4758 -2.0336
  610MOL0     H80506   7.649   7.426   5.466 -1.2279 -1.5579 -0.2761
  610MOL0     H80507   7.752   7.533   5.659 -0.1135  0.2287  0.9735
  610MOL0     H80508   7.931   7.518   6.082  1.3791  0.0548  0.7595
  610MOL0     H80509   8.069   7.640   6.252 -0.7941 -1.0562 -2.0736
  610MOL0     H80510   8.253   7.948   6.323  1.5620 -0.3761 -3.1743
  610MOL0     H80511   8.217   7.801   6.225  1.6674 -0.7092  1.1704
  610MOL0     H80512   8.151   7.684   6.447 -2.3328  0.6395  1.8822
  610MOL0     H80513   8.313   7.755   6.474 -0.3018  1.2079 -2.2018
  610MOL0     H80514   8.198   7.792   6.669  0.2162  1.4885  1.5491
  610MOL0     H80515   8.051   7.845   6.576  1.1557  1.1602  1.5650
  610MOL0     H80516   8.313   7.988   6.616 -1.5355  0.6535  3.3465
  610MOL0     H80517   8.185   8.047   6.503 -1.6653 -1.2028 -1.3206
  610MOL0     H80518   8.058   8.142   6.896 -0.5095  2.9152 -2.5609
  610MOL0     H80519   7.852   7.997   6.185 -1.0671 -0.3694 -0.7111
  610MOL0     H80520   7.695   7.855   6.026  0.9952 -1.6567 -2.8608
  611MOL0     O80521   4.340   2.296  10.414 -0.2976 -0.2345 -0.4313
  611MOL0     C80522   4.370   2.249  10.526  0.7499  1.2528  1.0798
  611MOL0     O80523   4.460   2.309  10.611 -0.1471  0.6752 -0.7799
  611MOL0     C80524   4.507   2.434  10.593  0.1358  0.0846 -0.0986
  611MOL0     C80525   4.472   2.535  10.681 -0.9721 -0.6464  0.2054
  611MOL0     C80526   4.541   2.655  10.672  0.2307  0.5719 -1.2902
  611MOL0     C80527   4.627   2.687  10.577  1.0801  0.3759 -0.3045
  611MOL0     O80528   4.696   2.810  10.563  0.1213 -0.2849 -0.5346
  611MOL0     C80529   4.628   2.933  10.599  0.2302  1.1221  0.2454
  611MOL0     C80530   4.521   2.985  10.496 -0.4434  0.5814 -0.6775
  611MOL0     C80531   4.586   3.076  10.391  0.9489  0.5208  0.6798
  611MOL0     C80532   4.480   3.134  10.290  0.4306  0.0621 -0.8048
  611MOL0     C80533   4.539   3.232  10.189 -0.5231 -0.4346 -0.4704
  611MOL0     C80534   4.617   3.358  10.249 -1.1163 -0.2087  0.2016
  611MOL0     C80535   4.545   3.442  10.362  0.0110  0.2613  0.0441
  611MOL0     C80536   4.626   3.558  10.422 -0.5760 -1.1612  0.2139
  611MOL0     N80537   4.707   3.511  10.532  0.4804 -0.7808 -0.2343
  611MOL0     C80538   4.649   3.466  10.656  0.2290 -0.1364  0.3753
  611MOL0     C80539   4.763   3.434  10.727  0.3730  0.1258 -0.1565
  611MOL0     C80540   4.757   3.378  10.870  0.2127  0.1910  0.5335
  611MOL0     C80541   4.788   3.222  10.867 -0.0520 -0.2798  1.0389
  611MOL0     C80542   4.917   3.181  10.802 -1.5895 -0.1746 -0.4586
  611MOL0     C80543   4.941   3.032  10.831 -0.0671  0.1130 -0.0851
  611MOL0     O80544   5.032   3.021  10.943 -0.1836  1.0591  0.0685
  611MOL0     C80545   5.154   2.975  10.921  0.4483 -0.9553 -0.5449
  611MOL0     C80546   5.236   3.002  10.812 -0.3899  0.3134 -0.6685
  611MOL0     C80547   5.357   2.945  10.801  0.2211 -0.5130  0.1161
  611MOL0     C80548   5.404   2.849  10.890  0.5283 -0.2182  1.0794
  611MOL0     C80549   5.528   2.777  10.879 -1.0617  1.0584 -0.0562
  611MOL0     O80550   5.622   2.826  10.794  0.6512 -0.3391  0.3023
  611MOL0     C80551   5.738   2.757  10.764  0.4344  0.8452  0.3990
  611MOL0     C80552   5.845   2.742  10.851 -0.8035  0.6701 -0.2899
  611MOL0     C80553   5.969   2.676  10.816  0.1159 -0.9118  0.2070
  611MOL0     C80554   5.985   2.653  10.683 -0.1801  0.6862  1.2078
  611MOL0     O80555   6.099   2.609  10.626 -0.1552  0.0582 -0.2614
  611MOL0     C80556   6.225   2.617  10.692 -0.4435  0.5652  0.2258
  611MOL0     C80557   6.233   2.491  10.765 -0.4016  0.5252  0.3894
  611MOL0     C80558   6.338   2.471  10.870 -0.7146  1.1708  0.5723
  611MOL0     C80559   6.480   2.451  10.804 -0.3099 -0.3564  0.7976
  611MOL0     C80560   6.600   2.448  10.894 -0.4468  0.6450  0.0448
  611MOL0     C80561   6.723   2.380  10.841 -0.8408  0.9053 -0.1471
  611MOL0     C80562   6.828   2.391  10.964  0.4095 -0.2434 -0.5350
  611MOL0     C80563   6.914   2.516  10.951 -0.2208 -0.7894  0.3378
  611MOL0    Cl80564   6.844   2.670  11.017  0.1692 -0.0502 -0.3707
  611MOL0     C80565   5.880   2.662  10.589 -0.6600  0.4806 -0.3568
  611MOL0     C80566   5.755   2.708  10.632 -0.2463 -0.7758  0.0951
  611MOL0     O80567   5.538   2.670  10.932 -0.1727  0.6448  0.1305
  611MOL0     C80568   5.334   2.840  11.008  0.2513  0.3515  0.9446
  611MOL0     C80569   5.202   2.894  11.022 -0.0047 -1.1372 -0.0835
  611MOL0     N80570   4.881   3.477  10.661 -0.1030  0.3706  0.3826
  611MOL0     N80571   4.846   3.512  10.543  0.1565  0.2728 -0.8499
  611MOL0     C80572   4.659   2.585  10.483  0.2762  0.3905  0.2711
  611MOL0     C80573   4.599   2.467  10.496  0.6171  0.3200  0.5700
  611MOL0     C80574   4.316   2.118  10.569 -0.7434  0.9255  0.2728
  611MOL0     C80575   4.332   2.078  10.710  0.1452  0.4629  0.0935
  611MOL0     C80576   4.271   1.955  10.749 -0.2333 -0.0430  0.7308
  611MOL0     C80577   4.197   1.874  10.656  0.0037  0.0182  0.1709
  611MOL0     O80578   4.137   1.761  10.682  0.7582 -0.8182 -0.8111
  611MOL0     C80579   4.122   1.720  10.817  0.5940  0.6282 -0.2879
  611MOL0     C80580   4.037   1.601  10.822  0.2133  0.1562 -1.0060
  611MOL0     C80581   3.901   1.627  10.770  0.1107  0.7218  1.0374
  611MOL0     C80582   3.798   1.525  10.801  0.0393  0.4361 -0.0677
  611MOL0     C80583   3.684   1.538  10.710 -1.3084 -0.8286 -0.7557
  611MOL0     C80584   3.580   1.573  10.671 -0.0483  0.0945 -0.2697
  611MOL0     C80585   4.189   1.922  10.521  0.2249 -0.5240 -0.5232
  611MOL0     C80586   4.255   2.031  10.477  0.2927  0.3718  0.1703
  611MOL0     H80587   4.393   2.510  10.751 -1.0064 -5.2059 -1.1326
  611MOL0     H80588   4.526   2.735  10.743 -1.5831 -0.2044 -0.7285
  611MOL0     H80589   4.713   2.999  10.619 -0.1654  1.6635  0.1716
  611MOL0     H80590   4.574   2.931  10.694 -0.5452  0.0760 -0.1929
  611MOL0     H80591   4.448   3.042  10.555  0.8687 -0.0789  1.7038
  611MOL0     H80592   4.477   2.896  10.451  1.5123 -0.8164  0.0633
  611MOL0     H80593   4.658   3.019  10.332  0.8131  2.8336 -1.8921
  611MOL0     H80594   4.658   3.148  10.432  0.5219 -0.3325  3.0901
  611MOL0     H80595   4.432   3.047  10.244 -0.7192 -0.4405  1.2478
  611MOL0     H80596   4.404   3.185  10.350 -0.7306  0.3614 -2.4491
  611MOL0     H80597   4.454   3.278  10.137  0.9319  0.0575 -2.5157
  611MOL0     H80598   4.609   3.180  10.123  3.3331  0.9784  2.1861
  611MOL0     H80599   4.644   3.424  10.166  0.7077  0.1800  1.0409
  611MOL0     H80600   4.714   3.327  10.290 -1.1140  1.5823  1.7123
  611MOL0     H80601   4.452   3.474  10.314  0.7269  1.3328 -0.6832
  611MOL0     H80602   4.514   3.380  10.446 -2.5306 -0.1753 -1.1028
  611MOL0     H80603   4.566   3.649  10.432  0.0340 -0.2651 -3.0621
  611MOL0     H80604   4.696   3.600  10.350  0.1518  1.5445  2.2953
  611MOL0     H80605   4.547   3.442  10.683  0.4795 -2.9628 -0.7843
  611MOL0     H80606   4.658   3.406  10.908  0.4637  1.1478  0.4827
  611MOL0     H80607   4.832   3.429  10.931 -0.9472  3.7551 -0.7575
  611MOL0     H80608   4.713   3.173  10.804  0.8842  2.2772 -2.3170
  611MOL0     H80609   4.779   3.174  10.965  4.9198 -1.3795  1.2237
  611MOL0     H80610   4.916   3.214  10.697 -0.2449 -2.6179 -1.3235
  611MOL0     H80611   5.000   3.244  10.836 -1.0916  0.1671 -2.2028
  611MOL0     H80612   4.979   2.980  10.743  0.1533  0.3104 -0.1091
  611MOL0     H80613   4.844   2.987  10.853 -1.0806  2.0422 -0.4188
  611MOL0     H80614   5.205   3.073  10.735 -1.2984 -1.4232 -1.9789
  611MOL0     H80615   5.407   2.969  10.708  1.0499 -2.4844  0.0101
  611MOL0     H80616   5.829   2.766  10.956 -1.1103 -1.5985  0.2505
  611MOL0     H80617   6.044   2.657  10.892  1.2840  1.5293 -0.2278
  611MOL0     H80618   6.213   2.692  10.770  1.2537  0.5377  0.5401
  611MOL0     H80619   6.310   2.639  10.627 -1.9740  3.0156 -1.1093
  611MOL0     H80620   6.240   2.409  10.693  1.9285  1.8614 -1.0497
  611MOL0     H80621   6.145   2.471  10.827  1.3357 -0.3317  2.7496
  611MOL0     H80622   6.324   2.372  10.916 -0.8340  0.4686 -0.9199
  611MOL0     H80623   6.323   2.544  10.950 -3.1790  0.0618  1.2174
  611MOL0     H80624   6.475   2.361  10.743  2.7012 -2.4014  3.2609
  611MOL0     H80625   6.498   2.522  10.722  1.8424 -1.3359  0.3495
  611MOL0     H80626   6.565   2.403  10.987 -3.0937  1.7644 -0.3154
  611MOL0     H80627   6.633   2.547  10.927 -0.5319  0.2065  1.5185
  611MOL0     H80628   6.765   2.428  10.751  0.5940 -3.0203 -1.7905
  611MOL0     H80629   6.705   2.275  10.819  0.8217  0.5864 -0.1554
  611MOL0     H80630   6.780   2.372  11.061  0.3313 -4.7378 -1.2562
  611MOL0     H80631   6.889   2.304  10.941 -1.5670 -1.4103 -1.5955
  611MOL0     H80632   6.936   2.545  10.848  2.4764  1.5178  1.4313
  611MOL0     H80633   7.011   2.493  10.998  1.8305  2.8681 -1.6247
  611MOL0     H80634   5.878   2.638  10.483  1.3982  1.5308 -0.6984
  611MOL0     H80635   5.662   2.702  10.576 -0.9748 -2.4103  1.3792
  611MOL0     H80636   5.381   2.777  11.083  0.4836  0.6722  1.0711
  611MOL0     H80637   5.142   2.879  11.111 -3.4429  1.3066 -1.7686
  611MOL0     H80638   4.742   2.599  10.415 -0.7066 -0.5752 -1.1937
  611MOL0     H80639   4.639   2.385  10.438  3.0082  2.7492 -1.4846
  611MOL0     H80640   4.372   2.141  10.788 -2.3203 -1.4764  3.1635
  611MOL0     H80641   4.272   1.923  10.853  0.8701 -3.1372 -0.1520
  611MOL0     H80642   4.069   1.790  10.882  1.3844  0.7878  0.2027
  611MOL0     H80643   4.222   1.702  10.856 -0.1595 -1.0776  0.9878
  611MOL0     H80644   4.086   1.523  10.763 -1.7394  0.5004 -3.2266
  611MOL0     H80645   4.030   1.571  10.927 -1.0434  1.1952 -0.7671
  611MOL0     H80646   3.907   1.611  10.662 -1.8176 -1.7793  1.2066
  611MOL0     H80647   3.854   1.725  10.788 -0.9981  0.1455  1.4000
  611MOL0     H80648   3.836   1.422  10.806 -0.9877  0.1014  1.2262
  611MOL0     H80649   3.757   1.548  10.899 -0.3983  3.2154 -0.8182
  611MOL0     H80650   3.484   1.610  10.641 -1.9045 -0.4004  4.3189
  611MOL0     H80651   4.140   1.854  10.452  0.3807  0.1205 -1.2804
  611MOL0     H80652   4.251   2.060  10.372  0.7426 -0.3184 -0.0469
  612MOL0     O80653   5.497   6.426   0.172 -0.2839  0.3357 -0.5394
  612MOL0     C80654   5.489   6.529   0.112  0.8843  0.6156  0.0113
  612MOL0     O80655   5.373   6.579   0.064 -0.2044 -0.6991 -0.0295
  612MOL0     C80656   5.246   6.539   0.097  0.1343  0.3654 -0.4569
  612MOL0     C80657   5.146   6.642   0.119  0.0844  0.6509  1.6862
  612MOL0     C80658   5.023   6.602   0.148  0.9375 -0.2327  0.5324
  612MOL0     C80659   4.983   6.470   0.153 -0.6863  0.0524  0.2004
  612MOL0     O80660   4.846   6.444   0.183 -0.2052 -0.6691  0.3102
  612MOL0     C80661   4.787   6.331   0.118  0.1805  0.7836 -1.0147
  612MOL0     C80662   4.663   6.291   0.201  0.5251  0.2227 -0.9581
  612MOL0     C80663   4.583   6.192   0.123  0.7910 -0.2541 -0.2361
  612MOL0     C80664   4.458   6.128   0.205  0.5644 -0.0343 -0.5866
  612MOL0     C80665   4.478   5.976   0.208 -0.1693  0.0380  1.4670
  612MOL0     C80666   4.584   5.931   0.306 -0.4553 -0.7677 -0.3408
  612MOL0     C80667   4.594   5.774   0.293 -0.9140 -0.6863 -0.4463
  612MOL0     C80668   4.664   5.714   0.165  0.2031 -0.0404 -0.3103
  612MOL0     N80669   4.791   5.783   0.142 -0.3865 -0.2777  0.3693
  612MOL0     C80670   4.915   5.767   0.209  1.0798 -0.3972 -0.1095
  612MOL0     C80671   4.991   5.853   0.137 -0.1391  0.4615  0.3480
  612MOL0     C80672   5.135   5.855   0.177 -0.1902 -0.3886 -0.4350
  612MOL0     C80673   5.220   5.798   0.060  0.4455  0.0649  0.1210
  612MOL0     C80674   5.368   5.812   0.093 -0.4204  0.8910  0.0294
  612MOL0     C80675   5.428   5.733   0.205 -0.3569 -0.4704  0.2629
  612MOL0     O80676   5.578   5.719   0.207 -1.1014  0.0693 -0.0023
  612MOL0     C80677   5.631   5.596   0.170 -0.7452  0.0011 -0.7444
  612MOL0     C80678   5.556   5.500   0.098 -0.3926  0.2505 -1.1009
  612MOL0     C80679   5.619   5.376   0.057  0.2109 -0.8356 -0.5392
  612MOL0     C80680   5.760   5.365   0.070 -0.5469 -0.3783  0.3282
  612MOL0     C80681   5.833   5.259   0.023 -0.8810  0.2693 -0.7411
  612MOL0     O80682   5.749   5.153  -0.013  0.4121  0.4780 -0.0754
  612MOL0     C80683   5.796   5.024  -0.010 -0.0489 -0.0646  0.6225
  612MOL0     C80684   5.717   4.927  -0.076 -0.1447 -0.9300 -0.1320
  612MOL0     C80685   5.753   4.792  -0.091 -0.1829 -1.1355 -0.1228
  612MOL0     C80686   5.855   4.741  -0.019 -1.2837 -0.5980  0.6310
  612MOL0     O80687   5.858   4.602  -0.025  0.4268 -0.3057 -0.0204
  612MOL0     C80688   5.940   4.542   0.077 -0.3501  0.3447 -0.5752
  612MOL0     C80689   5.939   4.388   0.068  0.7147  0.6101 -0.2616
  612MOL0     C80690   5.983   4.324  -0.071 -0.5608 -0.4393  0.0083
  612MOL0     C80691   6.000   4.188  -0.080  0.6262  0.5946  0.5061
  612MOL0     C80692   5.879   4.092  -0.073  0.4775  0.2574 -0.7429
  612MOL0     C80693   5.753   4.122  -0.154 -0.5326  0.2258  0.0247
  612MOL0     C80694   5.674   3.999  -0.147  0.9408  0.2223  0.1555
  612MOL0     C80695   5.548   4.013  -0.247  0.3474  0.6687 -0.4618
  612MOL0    Cl80696   5.438   3.863  -0.263  0.1317  0.0753  0.1093
  612MOL0     C80697   5.943   4.828   0.052 -0.4297  0.4951 -0.2252
  612MOL0     C80698   5.916   4.969   0.053  0.8191 -0.2282 -0.2786
  612MOL0     O80699   5.953   5.252   0.027  0.1448 -0.9134 -0.1936
  612MOL0     C80700   5.832   5.469   0.134  0.5896  0.7079 -0.5750
  612MOL0     C80701   5.770   5.585   0.176 -0.1128  0.0476  0.5854
  612MOL0     N80702   4.925   5.921   0.038  0.2745 -0.2703  0.2295
  612MOL0     N80703   4.806   5.876   0.040  1.1135  0.3071 -0.1620
  612MOL0     C80704   5.072   6.369   0.125  0.1704  0.8091 -1.4434
  612MOL0     C80705   5.208   6.402   0.101  0.7223 -0.0288 -0.2599
  612MOL0     C80706   5.615   6.606   0.100 -0.5291 -0.0814 -0.6514
  612MOL0     C80707   5.741   6.557   0.144 -0.8039  0.3624  1.8081
  612MOL0     C80708   5.861   6.618   0.138  0.2954  1.1632  0.2376
  612MOL0     C80709   5.864   6.758   0.087 -0.2112 -0.3183 -0.0706
  612MOL0     O80710   5.985   6.833   0.086  0.7879  0.2469  0.1117
  612MOL0     C80711   6.098   6.754   0.056  0.0519  0.1352  0.5179
  612MOL0     C80712   6.181   6.733   0.174  0.9064 -0.0630  0.1876
  612MOL0     C80713   6.293   6.625   0.149  0.0312 -0.2479  0.7200
  612MOL0     C80714   6.384   6.617   0.268  0.1568  0.6966  0.5153
  612MOL0     C80715   6.329   6.531   0.366 -0.9343 -0.1570  0.4661
  612MOL0     C80716   6.276   6.447   0.435  0.2368 -0.5248  0.3005
  612MOL0     C80717   5.746   6.816   0.049  0.7197 -0.5902 -0.2394
  612MOL0     C80718   5.623   6.742   0.060 -0.7822 -0.2158  0.5350
  612MOL0     H80719   5.162   6.749   0.113 -0.8405  0.8631  2.7283
  612MOL0     H80720   4.948   6.679   0.160  1.1720  0.0285  0.3061
  612MOL0     H80721   4.843   6.239   0.099 -0.1770  0.8038 -2.2040
  612MOL0     H80722   4.746   6.375   0.027 -1.4222 -2.8976 -2.2467
  612MOL0     H80723   4.611   6.386   0.211  1.6342  0.6655  0.9402
  612MOL0     H80724   4.690   6.253   0.300 -0.5884  1.1098 -0.2921
  612MOL0     H80725   4.650   6.111   0.093  3.1662  1.9219 -1.1572
  612MOL0     H80726   4.545   6.235   0.029 -3.0382 -2.6925 -0.0190
  612MOL0     H80727   4.443   6.162   0.308 -3.0999 -0.5159 -0.8161
  612MOL0     H80728   4.361   6.141   0.156 -0.6546 -1.9637  1.1590
  612MOL0     H80729   4.496   5.929   0.111  0.8534 -0.6289  1.9524
  612MOL0     H80730   4.384   5.926   0.233  2.1130 -4.8436  1.3821
  612MOL0     H80731   4.553   5.974   0.402  2.8571  4.4054 -1.1884
  612MOL0     H80732   4.686   5.962   0.282 -0.4374 -1.6057 -1.3724
  612MOL0     H80733   4.657   5.740   0.376  3.2848  1.9889 -2.1952
  612MOL0     H80734   4.495   5.729   0.307 -1.6982  1.0887  0.0394
  612MOL0     H80735   4.602   5.710   0.076  0.1237 -0.1220 -0.2509
  612MOL0     H80736   4.684   5.608   0.183  4.0362 -0.2320 -4.0442
  612MOL0     H80737   4.939   5.690   0.281  2.4233  1.5981  1.6690
  612MOL0     H80738   5.147   5.782   0.258  1.7209 -0.0518 -0.3803
  612MOL0     H80739   5.176   5.951   0.210 -0.2703 -0.0273 -1.3837
  612MOL0     H80740   5.199   5.846  -0.036 -1.5290 -0.8787  0.0391
  612MOL0     H80741   5.191   5.695   0.038 -0.5758  0.3059  0.2928
  612MOL0     H80742   5.416   5.765   0.006  2.0342  1.0979  1.1779
  612MOL0     H80743   5.393   5.918   0.101  0.3738  0.6456  1.0960
  612MOL0     H80744   5.373   5.639   0.211 -3.3497  1.2322  4.7712
  612MOL0     H80745   5.397   5.793   0.291  1.1341 -1.0543  1.2445
  612MOL0     H80746   5.451   5.496   0.072 -0.7948 -3.1316  0.4489
  612MOL0     H80747   5.571   5.294   0.003  0.6872 -1.6623  0.2605
  612MOL0     H80748   5.630   4.967  -0.128  1.6472  0.0470 -2.5753
  612MOL0     H80749   5.688   4.730  -0.151 -0.9567  0.1401 -0.6533
  612MOL0     H80750   5.912   4.563   0.180  2.6996 -0.6422  0.5844
  612MOL0     H80751   6.044   4.575   0.069  0.4916 -2.1413 -1.0738
  612MOL0     H80752   5.836   4.352   0.085  0.9171 -0.2576 -0.7923
  612MOL0     H80753   6.002   4.343   0.146  1.7446  1.4753 -0.5719
  612MOL0     H80754   6.077   4.371  -0.101  0.6507 -2.7951 -0.0844
  612MOL0     H80755   5.901   4.333  -0.143 -1.5240 -3.0519  0.6593
  612MOL0     H80756   6.045   4.178  -0.179  0.7562  1.2311  0.4942
  612MOL0     H80757   6.088   4.150  -0.026  1.6395 -0.2498 -1.6201
  612MOL0     H80758   5.850   4.101   0.032  1.0038  1.2517 -0.6728
  612MOL0     H80759   5.907   3.988  -0.094  0.9321  0.2632 -0.1803
  612MOL0     H80760   5.783   4.150  -0.256  2.7198 -1.8071  0.2655
  612MOL0     H80761   5.699   4.204  -0.108  0.5316  0.0742  1.6383
  612MOL0     H80762   5.722   3.910  -0.188 -3.5814 -1.6962 -1.7529
  612MOL0     H80763   5.636   3.979  -0.047 -0.2470  2.8414  0.3082
  612MOL0     H80764   5.590   4.020  -0.348 -2.9351 -0.7959 -2.0610
  612MOL0     H80765   5.498   4.107  -0.221  0.8719  0.1396  3.0507
  612MOL0     H80766   6.024   4.788   0.113 -0.1755 -0.6585 -1.2585
  612MOL0     H80767   5.972   5.026   0.126  0.7419  2.4605 -2.1920
  612MOL0     H80768   5.940   5.458   0.141  0.2973 -3.1024  0.2741
  612MOL0     H80769   5.821   5.664   0.229 -3.0752  0.4008  3.2059
  612MOL0     H80770   5.047   6.264   0.135 -2.8103  1.6593  2.1069
  612MOL0     H80771   5.278   6.323   0.076  1.3467  0.8490 -1.3775
  612MOL0     H80772   5.751   6.451   0.165  1.9262 -0.1493 -1.2363
  612MOL0     H80773   5.955   6.567   0.158  2.1331  2.4485 -3.9947
  612MOL0     H80774   6.139   6.813  -0.026 -7.0588  1.8577 -2.5240
  612MOL0     H80775   6.064   6.657   0.018 -0.6980 -0.4453  2.5571
  612MOL0     H80776   6.234   6.826   0.200 -0.8144  1.0473 -0.1496
  612MOL0     H80777   6.114   6.708   0.256 -0.4516 -2.0222 -1.4277
  612MOL0     H80778   6.339   6.646   0.052  0.9142 -0.0099  1.1741
  612MOL0     H80779   6.253   6.525   0.130 -1.8668  0.1966  2.0800
  612MOL0     H80780   6.483   6.588   0.231  0.3656  1.1895  0.6832
  612MOL0     H80781   6.391   6.721   0.301 -2.0538  1.8779 -2.3347
  612MOL0     H80782   6.234   6.363   0.486  0.1374 -0.8031 -0.2303
  612MOL0     H80783   5.742   6.920   0.016 -2.3564 -0.9967 -1.4189
  612MOL0     H80784   5.534   6.792   0.024  0.5298  2.1662  0.4188
  613MOL0     O80785   3.650   2.268   1.112 -0.9051  0.4142 -0.6575
  613MOL0     C80786   3.647   2.202   1.216 -0.3971  0.9291  0.8766
  613MOL0     O80787   3.586   2.075   1.229 -0.0575 -0.1375 -0.0347
  613MOL0     C80788   3.547   1.990   1.124 -0.1101  0.6333 -0.5078
  613MOL0     C80789   3.620   1.967   0.999  0.5059 -0.9468  0.4085
  613MOL0     C80790   3.570   1.888   0.896  0.7550  0.1860  0.3479
  613MOL0     C80791   3.451   1.818   0.914  0.3302  0.8597  0.0829
  613MOL0     O80792   3.396   1.738   0.816  0.5678 -0.4807  0.8967
  613MOL0     C80793   3.277   1.789   0.756  0.3340 -0.2449  0.6985
  613MOL0     C80794   3.205   1.698   0.669 -0.2177 -0.0017  0.2361
  613MOL0     C80795   3.083   1.768   0.620 -0.1355  0.1957  0.0875
  613MOL0     C80796   3.013   1.694   0.511 -0.0719  0.2138 -0.2695
  613MOL0     C80797   2.878   1.750   0.474 -0.0585 -0.2039  0.3303
  613MOL0     C80798   2.883   1.890   0.414 -0.3256  0.9554 -0.1766
  613MOL0     C80799   2.748   1.931   0.344 -0.1242 -0.4550  0.2020
  613MOL0     C80800   2.720   2.084   0.351  0.5338  0.3880  0.0621
  613MOL0     N80801   2.586   2.120   0.315  0.4350 -0.2721 -0.3057
  613MOL0     C80802   2.541   2.096   0.184 -0.9421 -0.9821  0.3532
  613MOL0     C80803   2.419   2.163   0.173  1.1461 -0.0210  0.2038
  613MOL0     C80804   2.307   2.174   0.065  1.0739 -0.5111 -0.6892
  613MOL0     C80805   2.267   2.050  -0.003 -0.6281  0.0061  0.0734
  613MOL0     C80806   2.120   2.043  -0.051 -0.7394  0.3451 -0.0860
  613MOL0     C80807   2.091   1.898  -0.099 -0.5268  0.1637  0.9035
  613MOL0     O80808   2.200   1.851  -0.182 -1.2187  0.1893  0.6597
  613MOL0     C80809   2.187   1.868  -0.317 -0.3620  0.3545  0.1806
  613MOL0     C80810   2.297   1.833  -0.401  0.1784 -0.6821 -0.0635
  613MOL0     C80811   2.275   1.824  -0.539  0.4353 -1.3147  0.6432
  613MOL0     C80812   2.144   1.845  -0.596  0.2951  0.3806  0.6105
  613MOL0     C80813   2.121   1.839  -0.741  0.2199 -0.3720 -0.0025
  613MOL0     O80814   2.208   1.758  -0.801  0.4342  0.3518  0.8566
  613MOL0     C80815   2.209   1.748  -0.942 -0.9024  0.0246 -0.0857
  613MOL0     C80816   2.228   1.861  -1.022 -1.2045  0.3754 -0.6034
  613MOL0     C80817   2.218   1.853  -1.163 -0.1306 -1.6734  0.5214
  613MOL0     C80818   2.219   1.729  -1.223 -0.3854  0.0036 -0.0236
  613MOL0     O80819   2.221   1.728  -1.360  0.3166 -0.3805  0.1665
  613MOL0     C80820   2.145   1.646  -1.440  0.2516  0.2055  0.0022
  613MOL0     C80821   2.189   1.666  -1.584  0.0258 -0.8985 -0.4787
  613MOL0     C80822   2.081   1.602  -1.664 -0.3820  0.1480 -0.0098
  613MOL0     C80823   2.128   1.614  -1.812 -0.1637  0.3341 -0.8501
  613MOL0     C80824   2.000   1.592  -1.905 -0.5690 -0.1084  0.1001
  613MOL0     C80825   2.046   1.606  -2.044  0.2469 -0.5075  0.9584
  613MOL0     C80826   2.132   1.481  -2.087 -1.2090 -0.5940  1.1638
  613MOL0     C80827   2.040   1.363  -2.105  0.0524 -0.3948 -0.4246
  613MOL0    Cl80828   2.119   1.206  -2.136  0.2235  0.2807 -0.3223
  613MOL0     C80829   2.223   1.611  -1.139 -0.6599  0.4788 -1.0715
  613MOL0     C80830   2.206   1.618  -1.008 -0.5434  0.5378 -1.2286
  613MOL0     O80831   2.023   1.888  -0.802  0.0201 -0.2334  0.6747
  613MOL0     C80832   2.041   1.879  -0.513 -0.2132 -0.2730  1.1037
  613MOL0     C80833   2.063   1.899  -0.381 -0.3507  0.6695 -0.0860
  613MOL0     N80834   2.388   2.209   0.299  0.5575  0.5297 -0.5723
  613MOL0     N80835   2.485   2.182   0.380 -0.7329  0.5208  0.2142
  613MOL0     C80836   3.395   1.818   1.042 -0.2596  0.3584  0.0776
  613MOL0     C80837   3.438   1.903   1.140  0.1949 -0.7478  0.0412
  613MOL0     C80838   3.715   2.256   1.327  0.6343  0.0237 -0.9834
  613MOL0     C80839   3.725   2.395   1.355  0.4899  0.8391 -0.3829
  613MOL0     C80840   3.813   2.438   1.461 -1.4103  0.0205 -0.3843
  613MOL0     C80841   3.890   2.343   1.532  0.3836 -1.3918 -0.1673
  613MOL0     O80842   3.987   2.389   1.616 -0.4064 -0.5144  0.4835
  613MOL0     C80843   4.116   2.326   1.625  0.6300 -0.7290  0.6539
  613MOL0     C80844   4.222   2.428   1.657 -0.8120 -0.5832 -0.0352
  613MOL0     C80845   4.209   2.551   1.569  0.7858 -0.0524 -0.3447
  613MOL0     C80846   4.338   2.603   1.502 -0.4114 -0.1280  1.0698
  613MOL0     C80847   4.303   2.720   1.427  0.2351  0.7940 -0.1495
  613MOL0     C80848   4.283   2.815   1.358  0.2672  0.1654  0.5012
  613MOL0     C80849   3.857   2.208   1.526 -0.9920 -0.3894  0.1629
  613MOL0     C80850   3.768   2.174   1.426  0.2092 -0.1025 -0.1880
  613MOL0     H80851   3.720   2.007   0.981  0.1902 -0.1842  0.3126
  613MOL0     H80852   3.623   1.875   0.803  2.0485 -0.3038  1.1300
  613MOL0     H80853   3.293   1.879   0.696  2.1248  0.1051  1.6424
  613MOL0     H80854   3.215   1.801   0.845  1.1137 -1.9006  1.5027
  613MOL0     H80855   3.177   1.614   0.733 -1.0438 -1.0959 -1.4751
  613MOL0     H80856   3.267   1.663   0.586  1.1960 -3.8691  2.6383
  613MOL0     H80857   3.087   1.875   0.598  0.7619 -0.3223 -2.6200
  613MOL0     H80858   3.011   1.764   0.702 -0.0731  1.5144  0.2249
  613MOL0     H80859   3.077   1.698   0.423  1.9068 -1.4429  1.0115
  613MOL0     H80860   2.995   1.598   0.562 -0.5928  1.6666  2.5285
  613MOL0     H80861   2.810   1.744   0.559  0.8473  0.5284  1.1338
  613MOL0     H80862   2.828   1.690   0.398 -0.5734 -0.5966  0.9654
  613MOL0     H80863   2.966   1.892   0.343 -1.0134  0.8883 -0.9946
  613MOL0     H80864   2.898   1.959   0.498  3.1488 -0.8117  0.8565
  613MOL0     H80865   2.744   1.891   0.242 -0.7280  0.2243 -0.0413
  613MOL0     H80866   2.670   1.872   0.394 -0.1851  0.5134  1.2823
  613MOL0     H80867   2.801   2.137   0.300  0.5781  0.0720 -0.1966
  613MOL0     H80868   2.745   2.121   0.451  3.5797  2.0062 -1.1732
  613MOL0     H80869   2.594   2.037   0.110  0.2927  2.6616 -1.9313
  613MOL0     H80870   2.336   2.253  -0.004 -1.3886 -0.6597 -1.9936
  613MOL0     H80871   2.226   2.226   0.117  2.1476  0.5997 -0.0722
  613MOL0     H80872   2.269   1.975   0.076 -1.6665 -4.3540 -3.6035
  613MOL0     H80873   2.336   2.024  -0.084 -0.4284 -2.6314  1.0069
  613MOL0     H80874   2.055   2.074   0.031 -3.4523 -1.0268 -1.5774
  613MOL0     H80875   2.106   2.115  -0.132 -0.4802 -0.4030 -0.8092
  613MOL0     H80876   1.990   1.904  -0.139 -0.8460  2.7348  1.8950
  613MOL0     H80877   2.082   1.831  -0.013  1.1146 -0.6216  0.4881
  613MOL0     H80878   2.393   1.806  -0.357  0.3866 -0.1100 -0.1628
  613MOL0     H80879   2.360   1.807  -0.605 -1.8182 -0.0242 -2.8460
  613MOL0     H80880   2.251   1.959  -0.982  0.4201  0.1266 -0.8756
  613MOL0     H80881   2.223   1.942  -1.225  0.4335 -0.0205  2.7921
  613MOL0     H80882   2.039   1.663  -1.417  0.0220 -1.1106  0.0089
  613MOL0     H80883   2.162   1.537  -1.440 -0.9240 -0.1166 -3.3754
  613MOL0     H80884   2.289   1.629  -1.606  1.1706  0.9777  1.2549
  613MOL0     H80885   2.192   1.775  -1.599  1.9410 -0.7876  0.4520
  613MOL0     H80886   1.986   1.645  -1.630  0.5309  1.6222  0.7858
  613MOL0     H80887   2.071   1.496  -1.641  0.1025 -0.1657 -1.1583
  613MOL0     H80888   2.172   1.713  -1.830  1.1765 -0.8075 -4.8277
  613MOL0     H80889   2.206   1.540  -1.830 -0.4774  0.0949 -1.2530
  613MOL0     H80890   1.925   1.667  -1.878  2.2763  2.1084  2.6136
  613MOL0     H80891   1.957   1.495  -1.878 -0.9247 -0.1589 -0.6362
  613MOL0     H80892   2.092   1.705  -2.043  0.5377 -0.6164  3.1496
  613MOL0     H80893   1.961   1.606  -2.113  1.6810  0.0887 -0.8697
  613MOL0     H80894   2.177   1.506  -2.183 -0.5382 -0.1710  1.5769
  613MOL0     H80895   2.227   1.469  -2.035  0.5153  1.5379 -1.2566
  613MOL0     H80896   1.967   1.384  -2.184  1.0334  3.4608 -0.4994
  613MOL0     H80897   1.988   1.354  -2.010 -0.6808  0.2329 -0.7542
  613MOL0     H80898   2.226   1.509  -1.177 -0.3678  1.1925 -3.0971
  613MOL0     H80899   2.195   1.524  -0.954  4.0644  1.2108  1.4111
  613MOL0     H80900   1.944   1.891  -0.562  1.9111 -0.3222 -3.6789
  613MOL0     H80901   1.974   1.925  -0.325  1.4786  2.8876  2.0095
  613MOL0     H80902   3.311   1.750   1.045 -0.3021  0.1998 -2.3776
  613MOL0     H80903   3.377   1.908   1.229  0.7127  3.8680  0.3877
  613MOL0     H80904   3.668   2.475   1.308 -0.7890 -1.5009 -3.1246
  613MOL0     H80905   3.828   2.541   1.491  0.4500 -0.8496  1.9486
  613MOL0     H80906   4.134   2.288   1.524 -1.5396 -2.1818  0.7479
  613MOL0     H80907   4.121   2.240   1.694 -3.1993 -0.3606  1.6026
  613MOL0     H80908   4.218   2.452   1.764 -0.3498 -1.1845  0.1213
  613MOL0     H80909   4.324   2.395   1.636 -1.6694 -2.1984 -1.8797
  613MOL0     H80910   4.174   2.635   1.630  0.3252  0.8864 -1.8271
  613MOL0     H80911   4.130   2.537   1.495 -0.3451 -1.4578  1.0865
  613MOL0     H80912   4.410   2.638   1.577 -0.8268 -0.6441  1.7185
  613MOL0     H80913   4.370   2.530   1.428  0.3455 -0.6908  1.9393
  613MOL0     H80914   4.268   2.909   1.309  1.0366  0.0903  0.1118
  613MOL0     H80915   3.908   2.145   1.598  2.5601 -1.7541 -3.2073
  613MOL0     H80916   3.740   2.069   1.418 -0.5439  0.0249  0.5920
  614MOL0     O80917   8.701  11.328   1.458  0.2956 -0.3856  0.1162
  614MOL0     C80918   8.666  11.442   1.451 -0.5830  0.2941 -0.3290
  614MOL0     O80919   8.747  11.558   1.417  0.6143  0.4588 -0.8964
  614MOL0     C80920   8.876  11.570   1.417  0.4324 -0.2016 -0.7792
  614MOL0     C80921   8.917  11.701   1.394 -0.2814 -0.3796  0.3493
  614MOL0     C80922   9.049  11.733   1.410 -0.2665  0.2009  0.2855
  614MOL0     C80923   9.147  11.635   1.429  0.2479  0.4961 -0.3487
  614MOL0     O80924   9.284  11.656   1.431  0.0331 -0.0088 -0.9351
  614MOL0     C80925   9.332  11.794   1.445 -0.1465  0.8432  0.9135
  614MOL0     C80926   9.485  11.785   1.457 -0.4604 -0.4350  0.8395
  614MOL0     C80927   9.540  11.928   1.458  0.3560 -0.1655 -0.7446
  614MOL0     C80928   9.691  11.935   1.421  1.2761 -1.3670  0.1248
  614MOL0     C80929   9.767  12.066   1.460 -0.5474  1.3220 -0.4733
  614MOL0     C80930   9.916  12.046   1.420  0.0150 -0.5585 -0.1237
  614MOL0     C80931  10.004  11.974   1.528 -0.1857 -0.2871  0.9008
  614MOL0     C80932  10.157  11.990   1.507 -0.4950 -0.4084 -1.1467
  614MOL0     N80933  10.204  11.929   1.383  0.5852 -0.3226  1.0219
  614MOL0     C80934  10.212  11.993   1.253  0.3540 -0.7398 -0.4030
  614MOL0     C80935  10.300  11.912   1.174  0.2975 -0.4612 -0.5762
  614MOL0     C80936  10.327  11.959   1.032  0.5818  0.7491  0.4487
  614MOL0     C80937  10.476  11.999   1.006 -0.2159  0.0298 -0.4857
  614MOL0     C80938  10.502  12.128   1.064 -0.1746 -0.8864  0.3425
  614MOL0     C80939  10.597  12.221   0.990  0.1986 -0.8025 -0.8493
  614MOL0     O80940  10.607  12.334   1.080  0.1679  0.1346  1.0178
  614MOL0     C80941  10.684  12.439   1.041 -0.0543 -0.7522 -0.3592
  614MOL0     C80942  10.727  12.461   0.909 -0.2089 -0.7175 -0.0497
  614MOL0     C80943  10.803  12.569   0.881 -0.7242  0.3561 -0.4342
  614MOL0     C80944  10.839  12.665   0.977 -0.6557  1.1528 -0.2555
  614MOL0     C80945  10.916  12.788   0.941  0.5129  0.3391 -0.4658
  614MOL0     O80946  10.933  12.882   1.038  0.2881  0.7356  0.5359
  614MOL0     C80947  11.022  12.982   1.032 -0.2797  0.4063 -0.2226
  614MOL0     C80948  10.996  13.112   1.047 -0.5315 -0.6185 -0.8311
  614MOL0     C80949  11.104  13.200   1.074  0.0089 -0.0223 -0.0402
  614MOL0     C80950  11.238  13.153   1.061 -1.1402 -0.8290  0.7498
  614MOL0     O80951  11.327  13.257   1.051  0.3413  0.2600  0.1246
  614MOL0     C80952  11.464  13.222   1.079 -0.8925  0.4064 -0.1005
  614MOL0     C80953  11.556  13.347   1.087 -0.2877 -0.0233 -0.0193
  614MOL0     C80954  11.541  13.426   1.220  0.9003 -0.4243 -0.6295
  614MOL0     C80955  11.612  13.562   1.209 -0.1011 -0.2983 -0.7236
  614MOL0     C80956  11.561  13.658   1.311 -0.2294  0.0756 -0.3360
  614MOL0     C80957  11.657  13.779   1.312 -0.1656 -0.0852  0.1356
  614MOL0     C80958  11.644  13.866   1.190 -0.8114 -0.5504 -0.2316
  614MOL0     C80959  11.779  13.928   1.149  0.5590  1.0053  0.9058
  614MOL0    Cl80960  11.837  14.025   1.294 -0.2029 -0.7575  0.0851
  614MOL0     C80961  11.263  13.018   1.041  0.1169 -0.5597 -0.2599
  614MOL0     C80962  11.150  12.936   1.028 -0.2792  0.3663 -0.3321
  614MOL0     O80963  10.949  12.800   0.821  0.0534 -0.0068  0.6056
  614MOL0     C80964  10.795  12.638   1.107  0.2810  0.0861 -0.6443
  614MOL0     C80965  10.720  12.520   1.148  0.4456 -0.0846 -0.1123
  614MOL0     N80966  10.346  11.811   1.263  0.1917  0.4280 -0.9981
  614MOL0     N80967  10.291  11.823   1.388 -0.8351 -0.2295  0.1594
  614MOL0     C80968   9.100  11.505   1.434 -0.3094 -0.1799  0.7361
  614MOL0     C80969   8.964  11.470   1.440  0.3086 -0.0353  0.2922
  614MOL0     C80970   8.537  11.472   1.521 -0.4705  1.1875  0.1401
  614MOL0     C80971   8.453  11.560   1.461  0.4969 -0.7012 -0.0963
  614MOL0     C80972   8.353  11.623   1.539  1.2398 -0.2462 -0.0470
  614MOL0     C80973   8.336  11.596   1.676  0.0399  0.0919 -0.2786
  614MOL0     O80974   8.231  11.658   1.754  0.0693  0.4175  0.7193
  614MOL0     C80975   8.215  11.798   1.752  0.3039 -1.0012  0.2452
  614MOL0     C80976   8.338  11.874   1.798 -0.1425 -0.2217 -0.1522
  614MOL0     C80977   8.364  11.842   1.951  0.3666 -0.4349  1.1202
  614MOL0     C80978   8.501  11.886   2.002 -0.5805 -0.3184 -0.8287
  614MOL0     C80979   8.500  11.892   2.151 -0.6206  0.1537  0.1772
  614MOL0     C80980   8.482  11.898   2.269 -0.4664  0.5509 -0.2217
  614MOL0     C80981   8.424  11.499   1.735  0.6326  1.0406 -0.2961
  614MOL0     C80982   8.522  11.442   1.663  0.4136  0.5778 -0.4947
  614MOL0     H80983   8.848  11.780   1.368  1.0731  1.0450  0.8945
  614MOL0     H80984   9.075  11.836   1.387 -3.4894  0.6350 -2.1476
  614MOL0     H80985   9.296  11.834   1.540  1.2133  0.8368  1.4549
  614MOL0     H80986   9.310  11.859   1.360  0.1487 -1.8965 -1.4318
  614MOL0     H80987   9.534  11.738   1.371  0.7096  1.0954  0.6145
  614MOL0     H80988   9.502  11.735   1.552  4.5601 -0.5802  0.1234
  614MOL0     H80989   9.536  11.964   1.561  3.5839 -2.6119  0.4215
  614MOL0     H80990   9.477  11.990   1.393 -0.1755 -0.6707 -0.7157
  614MOL0     H80991   9.743  11.851   1.469  2.5395  1.4779  4.4066
  614MOL0     H80992   9.686  11.914   1.314 -0.9532 -1.6384  0.2435
  614MOL0     H80993   9.762  12.105   1.562  0.4415  2.9972 -1.0368
  614MOL0     H80994   9.741  12.154   1.401  1.3266  2.0212 -0.3238
  614MOL0     H80995   9.968  12.139   1.396  0.9094 -1.4419 -1.8349
  614MOL0     H80996   9.917  11.986   1.328 -0.0794 -1.4384  0.4410
  614MOL0     H80997   9.977  12.015   1.626 -0.7178  2.1609 -0.1939
  614MOL0     H80998   9.979  11.868   1.529  3.6907 -1.3697  2.5251
  614MOL0     H80999  10.206  11.949   1.596 -0.3883  1.1728 -0.4504
  614MOL0     H81000  10.180  12.097   1.501  0.6229 -0.4030  1.6675
  614MOL0     H81001  10.164  12.088   1.234  2.6157  1.0011  1.8291
  614MOL0     H81002  10.258  12.039   1.004  0.3982  1.0943  1.8307
  614MOL0     H81003  10.300  11.872   0.971 -5.4488  3.0055 -0.7498
  614MOL0     H81004  10.494  12.006   0.898 -1.9279 -0.0703 -0.8134
  614MOL0     H81005  10.546  11.933   1.058  1.2033  2.1110  0.3886
  614MOL0     H81006  10.404  12.172   1.081 -0.5547 -1.4779 -0.2388
  614MOL0     H81007  10.542  12.126   1.166 -4.4221 -1.6203  2.1926
  614MOL0     H81008  10.552  12.256   0.896 -1.2949 -0.9564 -0.2187
  614MOL0     H81009  10.693  12.171   0.974  0.4638 -1.2741  1.8083
  614MOL0     H81010  10.699  12.394   0.828  1.2754 -0.2614 -0.9825
  614MOL0     H81011  10.828  12.578   0.776 -1.0615  2.0758 -0.3945
  614MOL0     H81012  10.894  13.147   1.062  0.3898  1.3904  1.2324
  614MOL0     H81013  11.090  13.307   1.083 -0.0588  0.2961 -3.0506
  614MOL0     H81014  11.494  13.145   1.008 -1.0719 -0.0821  0.3495
  614MOL0     H81015  11.465  13.173   1.176  0.9949  0.2170 -0.1797
  614MOL0     H81016  11.530  13.418   1.008  2.4836  0.6086 -0.4657
  614MOL0     H81017  11.662  13.326   1.067 -0.0576 -2.3561  2.9040
  614MOL0     H81018  11.576  13.389   1.316  2.0171  3.4870  0.6524
  614MOL0     H81019  11.435  13.453   1.230  0.8640 -0.2497 -1.3636
  614MOL0     H81020  11.720  13.545   1.207  0.0015  0.3059 -2.3104
  614MOL0     H81021  11.607  13.600   1.106  1.7549 -0.3861 -0.8778
  614MOL0     H81022  11.567  13.617   1.413  1.5948  3.1683  0.9320
  614MOL0     H81023  11.457  13.679   1.285  0.3505  3.3206 -0.4312
  614MOL0     H81024  11.761  13.758   1.337  0.0332  0.3579 -0.2933
  614MOL0     H81025  11.619  13.839   1.396  0.2912 -2.0709  1.8173
  614MOL0     H81026  11.602  13.813   1.104 -2.4620  3.0634 -1.8690
  614MOL0     H81027  11.573  13.946   1.210 -0.5481 -0.5903  0.9841
  614MOL0     H81028  11.744  14.002   1.075  0.6391  0.8316  0.6930
  614MOL0     H81029  11.848  13.852   1.111 -0.4971  0.6067 -0.2949
  614MOL0     H81030  11.352  12.959   1.022 -1.4087 -2.9930 -0.1676
  614MOL0     H81031  11.180  12.836   0.998  2.4586  1.3797 -1.3251
  614MOL0     H81032  10.835  12.710   1.178 -1.2425  0.2607  0.0691
  614MOL0     H81033  10.699  12.503   1.253 -3.0389  3.5429  0.0269
  614MOL0     H81034   9.182  11.436   1.449  0.3602  0.2773 -0.5861
  614MOL0     H81035   8.937  11.365   1.433 -0.0161  0.1220 -1.0588
  614MOL0     H81036   8.476  11.594   1.360  0.2132  0.0679  0.0871
  614MOL0     H81037   8.296  11.705   1.496  3.8343  1.7284  0.0075
  614MOL0     H81038   8.125  11.840   1.798  1.5068  0.9028  0.9879
  614MOL0     H81039   8.196  11.833   1.650 -1.1479  2.1205  1.4454
  614MOL0     H81040   8.438  11.860   1.756  1.8706  1.8714  3.4133
  614MOL0     H81041   8.311  11.981   1.797  0.5629  0.0090  1.7954
  614MOL0     H81042   8.351  11.734   1.964 -3.0818 -0.1940  0.6953
  614MOL0     H81043   8.288  11.878   2.021  0.2509 -0.0014  0.7782
  614MOL0     H81044   8.580  11.815   1.976 -2.9595 -4.5491  2.2907
  614MOL0     H81045   8.520  11.987   1.963  0.9115 -0.0339  0.5436
  614MOL0     H81046   8.491  11.899   2.376  1.6634  0.4780 -0.3666
  614MOL0     H81047   8.419  11.485   1.843  0.6502  1.2997 -0.2609
  614MOL0     H81048   8.599  11.379   1.706 -0.8990 -0.5430  0.3070
  615MOL0     O81049  11.368  10.253   2.831  0.5173  0.0582  0.5045
  615MOL0     C81050  11.320  10.207   2.929 -0.4028  0.0211 -0.6156
  615MOL0     O81051  11.186  10.205   2.961  0.0285  0.4599  0.0034
  615MOL0     C81052  11.098  10.286   2.891  0.2588  0.1174  0.6466
  615MOL0     C81053  11.114  10.423   2.873 -0.4014 -1.0381  1.0461
  615MOL0     C81054  11.001  10.492   2.824 -0.0877 -1.6487  0.5545
  615MOL0     C81055  10.879  10.428   2.800 -0.2223  0.0392 -0.2086
  615MOL0     O81056  10.762  10.481   2.777 -0.2315  0.3639  0.6656
  615MOL0     C81057  10.720  10.574   2.879 -0.0389  0.9681  0.4147
  615MOL0     C81058  10.585  10.632   2.828 -0.1251 -0.5188 -0.2418
  615MOL0     C81059  10.576  10.714   2.705 -0.7860 -0.3856  1.0491
  615MOL0     C81060  10.675  10.837   2.687 -0.4260 -1.2040  0.7033
  615MOL0     C81061  10.679  10.891   2.539 -0.2120  1.0092 -0.5226
  615MOL0     C81062  10.731  10.783   2.435 -0.9179  0.3435  0.2313
  615MOL0     C81063  10.876  10.742   2.469 -0.3310  0.4838 -0.4045
  615MOL0     C81064  10.973  10.868   2.471 -0.4341  0.4643 -0.1430
  615MOL0     N81065  10.996  10.926   2.342  0.7466 -0.8591 -0.6669
  615MOL0     C81066  11.102  10.891   2.266 -0.1330 -0.7493 -0.1237
  615MOL0     C81067  11.079  10.969   2.153 -0.0582  0.1139  0.1389
  615MOL0     C81068  11.171  10.962   2.033 -0.4373 -0.6815 -0.1055
  615MOL0     C81069  11.136  11.038   1.898  0.6644 -0.2291 -0.4898
  615MOL0     C81070  11.149  11.191   1.895 -0.4999 -0.8738  0.3126
  615MOL0     C81071  11.119  11.238   1.755 -1.0561 -0.4243  0.5760
  615MOL0     O81072  11.205  11.355   1.746 -0.1575 -0.3250 -0.8418
  615MOL0     C81073  11.177  11.454   1.655 -0.1257  0.1569  0.5059
  615MOL0     C81074  11.084  11.550   1.679  0.1736 -0.8474  0.7288
  615MOL0     C81075  11.059  11.654   1.592 -0.2939  0.8075  0.3621
  615MOL0     C81076  11.101  11.645   1.459  1.4090  0.9114 -0.3045
  615MOL0     C81077  11.079  11.748   1.355  0.6505 -0.1124  0.3304
  615MOL0     O81078  11.092  11.724   1.219 -0.1676 -0.0703 -0.7350
  615MOL0     C81079  11.051  11.820   1.135 -0.0824 -0.3333  0.6741
  615MOL0     C81080  11.151  11.915   1.095 -1.0006  0.2102  0.1161
  615MOL0     C81081  11.124  12.004   0.985  0.2595  0.1140  0.7545
  615MOL0     C81082  10.998  12.017   0.934  0.2370 -0.7709 -0.1233
  615MOL0     O81083  10.965  12.100   0.829  0.0763 -0.1042  0.4827
  615MOL0     C81084  11.075  12.150   0.734 -0.3706  0.0120 -0.8514
  615MOL0     C81085  11.027  12.182   0.586  0.2323 -0.3505 -0.1113
  615MOL0     C81086  10.879  12.238   0.597 -0.0335 -1.0671 -0.6826
  615MOL0     C81087  10.805  12.204   0.470 -0.1268  0.7220  0.1840
  615MOL0     C81088  10.702  12.302   0.406  0.2017  0.3858  0.0540
  615MOL0     C81089  10.793  12.413   0.342 -0.6878 -0.0110 -0.4907
  615MOL0     C81090  10.707  12.513   0.265  0.1849  0.4089  0.0545
  615MOL0     C81091  10.604  12.591   0.350  0.3936  1.5108  1.2676
  615MOL0    Cl81092  10.691  12.662   0.492  0.0381  0.0408 -0.3590
  615MOL0     C81093  10.896  11.931   0.993 -0.1147  0.7579  1.0017
  615MOL0     C81094  10.924  11.836   1.085  0.5338  0.3977  1.4765
  615MOL0     O81095  11.053  11.859   1.408  0.1149 -0.6388 -0.1833
  615MOL0     C81096  11.207  11.548   1.437  0.3575 -0.9998 -0.3158
  615MOL0     C81097  11.244  11.460   1.538  0.2954  0.1719 -1.3483
  615MOL0     N81098  10.968  11.059   2.175  1.0578  0.3841  0.9102
  615MOL0     N81099  10.922  11.026   2.286  0.0546 -0.4197 -0.4176
  615MOL0     C81100  10.874  10.297   2.804  0.6519  0.7459 -0.7498
  615MOL0     C81101  10.976  10.226   2.860 -0.3119  0.5121 -0.5879
  615MOL0     C81102  11.415  10.164   3.031 -1.0268 -1.1014 -0.0159
  615MOL0     C81103  11.388  10.051   3.106  0.2544  0.0516 -0.1638
  615MOL0     C81104  11.476  10.022   3.214  0.2913  0.0709  0.9531
  615MOL0     C81105  11.579  10.107   3.252  0.2701 -0.9672 -0.2222
  615MOL0     O81106  11.629  10.075   3.376 -0.4363  0.0666 -0.0379
  615MOL0     C81107  11.734  10.146   3.431  1.0236 -0.0203 -0.4093
  615MOL0     C81108  11.723  10.132   3.580  1.3108 -0.1964 -0.6908
  615MOL0     C81109  11.713   9.995   3.643  0.0397  0.6119  0.4701
  615MOL0     C81110  11.718   9.985   3.790  0.4494 -0.8216 -0.8276
  615MOL0     C81111  11.857   9.982   3.841  1.2945  0.4824 -1.1182
  615MOL0     C81112  11.971   9.980   3.879 -0.5896  0.3648  0.5779
  615MOL0     C81113  11.626  10.209   3.166  0.1313 -0.2963 -0.4702
  615MOL0     C81114  11.534  10.231   3.062 -0.1611 -0.2465  0.4006
  615MOL0     H81115  11.216  10.459   2.885  0.6842 -2.5227 -2.4304
  615MOL0     H81116  11.005  10.599   2.806  0.2349 -2.1620 -3.0851
  615MOL0     H81117  10.797  10.646   2.905  0.1362 -0.2914  4.0596
  615MOL0     H81118  10.703  10.516   2.970 -0.7775  1.4120  0.5681
  615MOL0     H81119  10.550  10.685   2.917  1.1721  0.5901 -0.3721
  615MOL0     H81120  10.507  10.556   2.820  0.2529 -0.6987 -4.8589
  615MOL0     H81121  10.474  10.754   2.706 -0.8222 -0.3151 -1.1805
  615MOL0     H81122  10.597  10.649   2.619 -2.1593  1.9400 -1.1907
  615MOL0     H81123  10.632  10.913   2.752 -2.5853  0.7920 -2.8103
  615MOL0     H81124  10.780  10.814   2.710  1.7296  3.7177 -2.5280
  615MOL0     H81125  10.734  10.985   2.530  0.6358  0.3871 -2.3312
  615MOL0     H81126  10.575  10.913   2.512 -0.9392 -2.6396 -1.1869
  615MOL0     H81127  10.717  10.809   2.329 -0.4893 -1.0783 -0.1938
  615MOL0     H81128  10.666  10.695   2.441  1.9251 -1.9791 -0.6271
  615MOL0     H81129  10.883  10.680   2.558 -1.9313 -0.6138 -1.0072
  615MOL0     H81130  10.906  10.675   2.388  0.0478  2.6111 -2.1370
  615MOL0     H81131  11.068  10.828   2.507 -1.1234 -1.4461 -0.3291
  615MOL0     H81132  10.939  10.943   2.543  3.1974  0.5674  1.6754
  615MOL0     H81133  11.187  10.826   2.284 -1.4725 -2.3838  0.5201
  615MOL0     H81134  11.174  10.856   2.007 -2.4487 -0.8683  0.2240
  615MOL0     H81135  11.273  10.983   2.065 -0.9351 -2.1102  2.7231
  615MOL0     H81136  11.033  11.009   1.875  1.0601  0.6682 -4.0119
  615MOL0     H81137  11.195  10.982   1.824  0.3218 -0.8826 -0.2751
  615MOL0     H81138  11.084  11.241   1.968 -0.8342  0.4108 -0.8239
  615MOL0     H81139  11.251  11.226   1.909 -1.2418  0.8646  1.9342
  615MOL0     H81140  11.012  11.256   1.739 -0.8581 -0.4660 -0.9636
  615MOL0     H81141  11.152  11.160   1.686  1.2510  1.3697 -0.4875
  615MOL0     H81142  11.036  11.547   1.777  0.4317 -0.9711  0.8536
  615MOL0     H81143  10.984  11.731   1.607 -0.4413  2.0410 -4.8177
  615MOL0     H81144  11.251  11.908   1.138 -2.5009  0.3911  4.0429
  615MOL0     H81145  11.208  12.058   0.943  1.8235 -1.5098  1.6594
  615MOL0     H81146  11.157  12.078   0.728  0.5220  0.7739  1.4840
  615MOL0     H81147  11.121  12.240   0.774  0.8824 -0.0638 -2.0310
  615MOL0     H81148  11.034  12.089   0.530  0.6606  1.0860 -2.5938
  615MOL0     H81149  11.094  12.259   0.546  2.2754 -1.9057  0.1477
  615MOL0     H81150  10.895  12.345   0.614 -0.9034 -1.1783  1.1076
  615MOL0     H81151  10.815  12.195   0.674 -0.3493 -0.4525 -0.5973
  615MOL0     H81152  10.888  12.185   0.401 -0.5277 -2.2305  0.4125
  615MOL0     H81153  10.755  12.109   0.486  0.4063  0.4053 -0.0096
  615MOL0     H81154  10.641  12.355   0.480  1.2415  4.5986 -1.8107
  615MOL0     H81155  10.631  12.262   0.333  1.0623 -1.1902  0.0342
  615MOL0     H81156  10.871  12.364   0.283 -0.8557 -1.7263  0.6211
  615MOL0     H81157  10.849  12.476   0.412 -0.9249  0.8455 -1.0587
  615MOL0     H81158  10.774  12.582   0.213 -2.5494  2.1786 -1.3351
  615MOL0     H81159  10.653  12.453   0.192 -0.6278  0.3797  0.6699
  615MOL0     H81160  10.519  12.534   0.389 -0.4054  0.9970 -1.0952
  615MOL0     H81161  10.564  12.665   0.281 -1.0151  0.5742  1.0310
  615MOL0     H81162  10.796  11.938   0.953  1.0302  2.0407 -1.9388
  615MOL0     H81163  10.848  11.770   1.127  2.3229 -0.9162  2.8474
  615MOL0     H81164  11.256  11.547   1.340 -1.9154  1.9106 -1.6566
  615MOL0     H81165  11.330  11.395   1.522 -0.1256 -0.2576 -1.9050
  615MOL0     H81166  10.780  10.245   2.786  1.5719 -3.5534  4.1782
  615MOL0     H81167  10.971  10.118   2.870  0.9979  0.4950  0.1022
  615MOL0     H81168  11.299   9.990   3.095  0.7642 -0.8047  0.4498
  615MOL0     H81169  11.446   9.936   3.272 -0.2148  0.9430  2.0064
  615MOL0     H81170  11.743  10.250   3.398  1.5231  0.1366  0.2078
  615MOL0     H81171  11.827  10.098   3.400  0.6291  0.9651 -3.5319
  615MOL0     H81172  11.801  10.194   3.626  1.9782 -1.8734  0.5236
  615MOL0     H81173  11.636  10.194   3.606  0.4178 -1.8934  0.5596
  615MOL0     H81174  11.783   9.938   3.581 -1.6480  1.3013 -2.2713
  615MOL0     H81175  11.622   9.949   3.604 -0.1487  0.6198  0.9003
  615MOL0     H81176  11.657  10.067   3.829 -0.9677 -1.6372 -1.2410
  615MOL0     H81177  11.654   9.901   3.820 -3.7197  2.8391  1.6684
  615MOL0     H81178  12.075   9.979   3.907  0.1287 -2.5980 -1.7157
  615MOL0     H81179  11.698  10.284   3.198 -2.8716  2.0716  1.2229
  615MOL0     H81180  11.561  10.321   3.007  4.2288 -2.3941 -1.4438
  616MOL0     O81181   5.180   1.347   3.544  0.0107 -0.3396  0.5796
  616MOL0     C81182   5.133   1.313   3.651 -0.0958 -0.3755 -0.8374
  616MOL0     O81183   5.129   1.400   3.758  0.0273 -0.6315  0.4359
  616MOL0     C81184   5.196   1.523   3.737 -0.5862  0.4873 -0.1074
  616MOL0     C81185   5.336   1.546   3.757 -0.2964 -0.1511 -0.2672
  616MOL0     C81186   5.388   1.668   3.714  0.2407 -0.0151  0.9809
  616MOL0     C81187   5.313   1.770   3.654  0.0697 -0.3723  0.1013
  616MOL0     O81188   5.379   1.869   3.579 -0.2332 -0.3196 -0.6579
  616MOL0     C81189   5.321   1.998   3.604 -0.5477  0.5911 -0.5721
  616MOL0     C81190   5.316   2.044   3.755 -0.6438  1.2868 -0.0047
  616MOL0     C81191   5.443   2.012   3.841  0.0530 -0.4239 -0.4672
  616MOL0     C81192   5.461   2.095   3.970 -0.5499  0.0009  0.3565
  616MOL0     C81193   5.588   2.058   4.059 -0.4930 -0.6426  0.8427
  616MOL0     C81194   5.563   2.084   4.212 -0.7477  0.7836  0.0932
  616MOL0     C81195   5.680   2.016   4.292 -0.1095  0.3297  0.3858
  616MOL0     C81196   5.818   2.062   4.256  0.3547 -0.7847 -0.6072
  616MOL0     N81197   5.930   2.001   4.336  0.6862  0.5037  0.7742
  616MOL0     C81198   5.976   1.877   4.338  0.5336  0.6111 -1.0035
  616MOL0     C81199   6.080   1.894   4.434 -0.8315  0.5276 -0.1538
  616MOL0     C81200   6.177   1.785   4.483 -0.0057  0.1941  0.5167
  616MOL0     C81201   6.176   1.767   4.642  0.3948  0.6446  0.0501
  616MOL0     C81202   6.295   1.698   4.689 -0.8201 -0.4212 -0.1492
  616MOL0     C81203   6.250   1.615   4.819 -1.0952 -0.8920 -0.9228
  616MOL0     O81204   6.376   1.611   4.905  0.8614 -0.2066  0.3637
  616MOL0     C81205   6.462   1.511   4.872 -0.0535 -0.0741  1.3529
  616MOL0     C81206   6.412   1.378   4.840  0.3360  0.3646 -0.3828
  616MOL0     C81207   6.502   1.277   4.813  0.5336  1.6261  0.0314
  616MOL0     C81208   6.641   1.305   4.803  0.5514  0.6536 -0.1898
  616MOL0     C81209   6.741   1.196   4.758 -0.2881 -0.5500 -0.7726
  616MOL0     O81210   6.868   1.241   4.754 -0.9284  0.1322 -0.0169
  616MOL0     C81211   6.958   1.138   4.756  0.2665 -0.2884  1.0869
  616MOL0     C81212   6.980   1.064   4.875 -0.2282  0.1175 -0.2721
  616MOL0     C81213   7.062   0.948   4.884 -0.0803  0.1182 -0.1514
  616MOL0     C81214   7.124   0.892   4.770 -0.2731  0.2740 -0.0825
  616MOL0     O81215   7.194   0.781   4.770 -0.2461 -0.1045 -0.0719
  616MOL0     C81216   7.197   0.687   4.875 -0.1103 -0.3203 -0.2673
  616MOL0     C81217   7.306   0.721   4.988  0.8268 -0.9502  0.7581
  616MOL0     C81218   7.314   0.601   5.080  1.1636 -0.1127 -0.2247
  616MOL0     C81219   7.442   0.608   5.152 -0.6306 -0.6027  0.2263
  616MOL0     C81220   7.443   0.515   5.266 -0.7447  0.2738 -0.3365
  616MOL0     C81221   7.417   0.369   5.239  1.3260  0.2008  0.2259
  616MOL0     C81222   7.527   0.316   5.138  0.3513  0.1621  0.0701
  616MOL0     C81223   7.533   0.164   5.117  0.1893 -0.2145  0.6641
  616MOL0    Cl81224   7.664   0.124   5.006  0.1636  0.4231 -0.7046
  616MOL0     C81225   7.093   0.959   4.642  0.5637 -0.4416  0.7694
  616MOL0     C81226   7.015   1.078   4.644 -0.1402 -0.1292  0.5889
  616MOL0     O81227   6.697   1.089   4.721 -0.3150  0.3316  0.3733
  616MOL0     C81228   6.686   1.434   4.835  0.0894 -1.3809 -0.6872
  616MOL0     C81229   6.600   1.534   4.868  0.1067  0.2922  0.1782
  616MOL0     N81230   6.095   2.027   4.468  0.2356 -0.3322 -0.8542
  616MOL0     N81231   5.999   2.087   4.411 -0.0891 -1.4674 -0.1521
  616MOL0     C81232   5.180   1.745   3.624 -0.4216 -0.1431  0.2538
  616MOL0     C81233   5.127   1.619   3.662 -0.2073  0.1973  0.2408
  616MOL0     C81234   5.082   1.176   3.674 -0.1759 -0.2197  0.4956
  616MOL0     C81235   5.094   1.084   3.570 -0.0072 -0.4820 -0.2162
  616MOL0     C81236   5.068   0.947   3.583 -0.0228  0.0091  0.1648
  616MOL0     C81237   5.006   0.901   3.695 -0.0025  0.4431  1.1657
  616MOL0     O81238   5.008   0.761   3.697  0.5029 -0.0461  1.2329
  616MOL0     C81239   4.929   0.682   3.774  0.0795 -0.3689  0.1334
  616MOL0     C81240   5.012   0.554   3.772 -0.1294 -0.5145 -0.4397
  616MOL0     C81241   4.955   0.440   3.869 -0.8395  0.3819 -0.0049
  616MOL0     C81242   4.916   0.484   4.010 -0.3378  0.1724 -0.3979
  616MOL0     C81243   5.030   0.540   4.094  1.9091  0.6877  0.2203
  616MOL0     C81244   5.113   0.589   4.162 -1.0447  0.7680  0.0362
  616MOL0     C81245   4.975   0.989   3.792 -0.2021 -0.0574 -0.6330
  616MOL0     C81246   5.022   1.128   3.790 -0.0501 -0.2000  0.1337
  616MOL0     H81247   5.390   1.463   3.800 -2.6799 -1.2203  0.7866
  616MOL0     H81248   5.493   1.681   3.735  0.8223 -1.5078 -0.6843
  616MOL0     H81249   5.224   2.007   3.553 -0.9872  1.0231  0.3220
  616MOL0     H81250   5.385   2.067   3.548 -0.9687  2.4778  1.1554
  616MOL0     H81251   5.236   1.991   3.807  1.0459 -1.2781  0.1482
  616MOL0     H81252   5.301   2.152   3.766 -1.0277  1.2425 -0.0820
  616MOL0     H81253   5.536   2.029   3.787  2.6718  0.7423  3.8674
  616MOL0     H81254   5.440   1.908   3.875 -3.3176  1.3014  6.3265
  616MOL0     H81255   5.461   2.201   3.941 -1.9069 -0.6992 -2.6285
  616MOL0     H81256   5.375   2.083   4.036  1.3290 -0.7429  2.7862
  616MOL0     H81257   5.676   2.112   4.023 -1.8903  1.0392 -0.2053
  616MOL0     H81258   5.614   1.953   4.041 -0.8136 -0.3088 -2.0344
  616MOL0     H81259   5.468   2.051   4.254 -0.5268 -1.1373 -0.7796
  616MOL0     H81260   5.556   2.193   4.218 -2.4138  0.6680  0.7222
  616MOL0     H81261   5.658   2.034   4.398  0.4149 -0.8788  0.7155
  616MOL0     H81262   5.676   1.908   4.274 -4.3570  0.4906 -0.7915
  616MOL0     H81263   5.807   2.167   4.285 -1.7291 -1.0138 -0.4240
  616MOL0     H81264   5.836   2.055   4.148  0.7643 -1.6945 -0.4854
  616MOL0     H81265   5.951   1.783   4.288 -0.6038  0.9413 -1.0743
  616MOL0     H81266   6.279   1.803   4.448 -0.3041  1.5177  0.2814
  616MOL0     H81267   6.151   1.696   4.424 -0.9042  1.0343 -0.3980
  616MOL0     H81268   6.086   1.708   4.662 -0.6674  0.8589 -3.4172
  616MOL0     H81269   6.169   1.868   4.684 -3.6293  1.3560 -1.8702
  616MOL0     H81270   6.337   1.618   4.628  0.2231 -2.4175  3.0029
  616MOL0     H81271   6.365   1.780   4.711 -3.3941  2.8053 -2.8044
  616MOL0     H81272   6.210   1.518   4.788  1.2939 -1.2876 -3.1683
  616MOL0     H81273   6.167   1.672   4.862 -3.6299 -1.6093 -4.4452
  616MOL0     H81274   6.308   1.351   4.853  0.3894  1.0089  1.7598
  616MOL0     H81275   6.466   1.174   4.816 -2.8420  2.6342  4.4224
  616MOL0     H81276   6.940   1.089   4.973  1.5495 -0.8506  0.7511
  616MOL0     H81277   7.057   0.894   4.978  1.5804 -1.3400 -0.8340
  616MOL0     H81278   7.219   0.589   4.832  0.9270  0.1773 -0.9269
  616MOL0     H81279   7.094   0.680   4.911 -0.4256  0.8452 -0.8929
  616MOL0     H81280   7.269   0.813   5.034  0.2393 -2.1593  2.8262
  616MOL0     H81281   7.404   0.735   4.942 -0.2086 -0.5940 -1.4495
  616MOL0     H81282   7.302   0.508   5.025  2.3608  0.0420 -0.7743
  616MOL0     H81283   7.230   0.613   5.149 -1.8343 -2.0053 -3.2751
  616MOL0     H81284   7.525   0.581   5.086 -3.9351 -3.1341 -3.2930
  616MOL0     H81285   7.454   0.712   5.184  1.7140 -0.2529 -1.4921
  616MOL0     H81286   7.376   0.557   5.342 -0.8123  1.8494 -1.2145
  616MOL0     H81287   7.543   0.525   5.308 -1.5350  1.6643  1.3433
  616MOL0     H81288   7.313   0.356   5.206  2.2904 -2.7932 -2.0912
  616MOL0     H81289   7.411   0.320   5.337 -0.6572 -0.7689 -0.3259
  616MOL0     H81290   7.500   0.356   5.040  0.1648  1.3177  0.5738
  616MOL0     H81291   7.626   0.354   5.165  0.8929 -1.6910  0.8637
  616MOL0     H81292   7.442   0.139   5.061  0.5058  3.1102 -1.6104
  616MOL0     H81293   7.535   0.109   5.212  1.3559 -0.3874  0.5544
  616MOL0     H81294   7.141   0.914   4.556 -0.5726 -0.1186 -0.0604
  616MOL0     H81295   6.992   1.131   4.552  0.1121 -0.7425  0.1618
  616MOL0     H81296   6.789   1.461   4.814 -0.8811  0.7428 -3.1927
  616MOL0     H81297   6.649   1.631   4.869 -0.3066  0.5034  1.6941
  616MOL0     H81298   5.126   1.805   3.552 -0.9546  1.3240  1.8161
  616MOL0     H81299   5.036   1.586   3.615  1.1494 -1.9386 -1.0333
  616MOL0     H81300   5.141   1.121   3.480  2.6763  2.4571  2.1187
  616MOL0     H81301   5.111   0.877   3.512 -0.6804  0.5605 -0.7886
  616MOL0     H81302   4.831   0.658   3.731  0.7810 -1.3460 -0.9952
  616MOL0     H81303   4.914   0.716   3.877 -1.8166 -1.4311  0.2337
  616MOL0     H81304   5.022   0.528   3.667 -1.2147  0.0105 -0.6823
  616MOL0     H81305   5.103   0.587   3.825 -1.1543  3.1307 -0.7158
  616MOL0     H81306   5.040   0.373   3.884  1.7785  3.3083 -0.5333
  616MOL0     H81307   4.875   0.388   3.816 -2.2821  2.9893 -0.5309
  616MOL0     H81308   4.829   0.550   4.003  0.1060  0.6798 -1.1895
  616MOL0     H81309   4.882   0.400   4.072  0.4858  0.4793  0.4888
  616MOL0     H81310   5.188   0.649   4.210  1.0987 -2.8294  1.6258
  616MOL0     H81311   4.923   0.952   3.880  0.2576  2.2998  0.6876
  616MOL0     H81312   4.996   1.188   3.877  0.5478 -1.2854  1.1009
  617MOL0     O81313   4.695   0.780  10.704 -0.3923  0.5998 -0.4448
  617MOL0     C81314   4.599   0.702  10.679 -0.7921 -0.8854  0.4400
  617MOL0     O81315   4.468   0.744  10.670  0.1256  0.4949  0.1024
  617MOL0     C81316   4.443   0.876  10.700 -0.0989  0.3747  0.2454
  617MOL0     C81317   4.482   0.917  10.828 -0.3871  0.2170  0.8771
  617MOL0     C81318   4.466   1.048  10.864 -1.1089 -1.4575 -0.8573
  617MOL0     C81319   4.409   1.137  10.768  0.7005 -0.8758  0.4851
  617MOL0     O81320   4.401   1.271  10.786 -0.1541 -0.3351 -0.3123
  617MOL0     C81321   4.532   1.338  10.810 -0.1089  0.2574 -0.3431
  617MOL0     C81322   4.504   1.487  10.796 -0.6011  0.0731 -0.5846
  617MOL0     C81323   4.628   1.576  10.815 -0.6300 -0.3672 -0.2629
  617MOL0     C81324   4.721   1.589  10.692 -0.2116  0.1211 -0.3391
  617MOL0     C81325   4.821   1.707  10.704  0.0766 -0.3287 -0.7333
  617MOL0     C81326   4.888   1.738  10.572 -0.2949  0.0467  1.0048
  617MOL0     C81327   5.012   1.833  10.594  0.7853 -0.0450  1.0122
  617MOL0     C81328   5.122   1.770  10.680 -0.0744  0.2197 -0.0999
  617MOL0     N81329   5.251   1.746  10.613  0.1045 -1.2224 -1.0469
  617MOL0     C81330   5.350   1.832  10.562 -0.1847  0.3380  1.1728
  617MOL0     C81331   5.434   1.745  10.500 -0.4959 -0.3326  0.4645
  617MOL0     C81332   5.541   1.804  10.413  0.6670 -0.1806  0.1095
  617MOL0     C81333   5.681   1.750  10.443 -0.3509 -0.1035 -0.4767
  617MOL0     C81334   5.706   1.608  10.418 -0.1570  0.7057 -0.0512
  617MOL0     C81335   5.864   1.569  10.414  0.1494 -0.1201 -0.3193
  617MOL0     O81336   5.860   1.437  10.370 -0.1267  0.1208  0.6351
  617MOL0     C81337   5.982   1.394  10.313 -0.1216 -1.6963  1.0270
  617MOL0     C81338   6.079   1.341  10.399  0.6417 -0.1303  0.0953
  617MOL0     C81339   6.205   1.301  10.358 -0.4310  0.0168  0.5777
  617MOL0     C81340   6.233   1.311  10.220 -0.7338 -0.1282  0.5913
  617MOL0     C81341   6.360   1.273  10.154  0.4326  0.2562 -0.1667
  617MOL0     O81342   6.393   1.326  10.027  0.0831 -0.4602  0.7559
  617MOL0     C81343   6.505   1.283   9.966 -0.2914  0.1056 -0.4889
  617MOL0     C81344   6.513   1.190   9.867  0.6261  1.1187  0.2772
  617MOL0     C81345   6.639   1.133   9.836 -0.0489  0.4670 -0.2625
  617MOL0     C81346   6.757   1.184   9.885 -0.0279  0.3223  0.2014
  617MOL0     O81347   6.869   1.131   9.829  0.1906 -0.1371  0.0655
  617MOL0     C81348   6.972   1.219   9.777 -0.5197 -1.2489 -0.4389
  617MOL0     C81349   7.003   1.202   9.627  0.9575 -0.1729 -0.2505
  617MOL0     C81350   7.051   1.325   9.542 -0.1942  0.3050 -0.0870
  617MOL0     C81351   7.192   1.361   9.611 -0.2797 -1.4453 -0.9112
  617MOL0     C81352   7.252   1.502   9.573 -0.4035 -0.4179  0.3654
  617MOL0     C81353   7.278   1.516   9.421  0.8419  0.0353  0.8956
  617MOL0     C81354   7.419   1.457   9.390  0.0069  0.3513  0.3999
  617MOL0     C81355   7.473   1.479   9.248  0.3625  0.5134  0.3382
  617MOL0    Cl81356   7.527   1.648   9.219 -0.2558  0.0494  0.4992
  617MOL0     C81357   6.744   1.299   9.972 -0.4858 -0.0855 -0.2800
  617MOL0     C81358   6.624   1.349  10.014  0.6635  0.5363  0.8461
  617MOL0     O81359   6.431   1.213  10.230 -0.9340 -0.0656 -0.5506
  617MOL0     C81360   6.137   1.375  10.140 -0.5413 -0.2900 -0.2328
  617MOL0     C81361   6.010   1.411  10.177  0.2518 -0.3965  0.4297
  617MOL0     N81362   5.401   1.618  10.520 -0.1768 -0.3280 -0.4318
  617MOL0     N81363   5.291   1.617  10.595 -0.7167 -0.1175 -1.0046
  617MOL0     C81364   4.370   1.093  10.641 -0.4022 -0.0896  0.1768
  617MOL0     C81365   4.380   0.957  10.608 -0.4446 -0.8313  0.0890
  617MOL0     C81366   4.625   0.546  10.685  0.7981 -0.7553 -0.2789
  617MOL0     C81367   4.514   0.456  10.688 -0.1139 -0.2102  0.0803
  617MOL0     C81368   4.529   0.315  10.707 -0.3960 -0.9921  0.7231
  617MOL0     C81369   4.660   0.260  10.701  0.2318  0.6277 -0.2287
  617MOL0     O81370   4.666   0.131  10.730  0.4202 -0.2364 -0.0109
  617MOL0     C81371   4.649   0.100  10.869 -0.1235  0.0053 -0.5566
  617MOL0     C81372   4.698  -0.044  10.896  0.1407 -0.3483  0.1207
  617MOL0     C81373   4.649  -0.083  11.037 -0.1955  0.5029  0.1906
  617MOL0     C81374   4.706  -0.215  11.083  0.1401  0.0196 -0.8514
  617MOL0     C81375   4.634  -0.322  11.007  0.3291 -0.9892 -0.2905
  617MOL0     C81376   4.562  -0.408  10.965 -0.7080 -0.1257  0.1499
  617MOL0     C81377   4.766   0.349  10.669  0.5401 -0.2770 -0.4928
  617MOL0     C81378   4.749   0.490  10.672 -0.3633 -0.0284 -1.0534
  617MOL0     H81379   4.525   0.850  10.902 -2.0229  1.3019  2.9062
  617MOL0     H81380   4.500   1.092  10.957  1.1227  0.3914 -2.4274
  617MOL0     H81381   4.600   1.316  10.727 -0.4327 -0.0962 -0.5170
  617MOL0     H81382   4.578   1.324  10.908  1.3644  2.1329 -0.6929
  617MOL0     H81383   4.437   1.504  10.881  0.0455  0.5757 -0.1665
  617MOL0     H81384   4.453   1.522  10.706  1.1226  0.5024 -1.4390
  617MOL0     H81385   4.689   1.553  10.903  2.6738  0.9907 -2.0101
  617MOL0     H81386   4.586   1.675  10.833  2.6205  0.7513  2.3135
  617MOL0     H81387   4.779   1.499  10.672 -1.3949 -0.6222 -0.5214
  617MOL0     H81388   4.662   1.594  10.599  1.5384 -0.5163 -1.5284
  617MOL0     H81389   4.883   1.693  10.793 -2.7316 -1.1047  1.2634
  617MOL0     H81390   4.766   1.800  10.724  0.5565 -0.2687  0.3865
  617MOL0     H81391   4.814   1.780  10.503 -0.3780 -0.0395  1.0410
  617MOL0     H81392   4.935   1.655  10.520  2.9070  2.7308 -0.8051
  617MOL0     H81393   5.067   1.862  10.504 -1.4377  2.9249  0.4794
  617MOL0     H81394   4.979   1.931  10.628  0.9418  0.3586  0.0365
  617MOL0     H81395   5.088   1.671  10.712  2.1606 -1.4557 -2.4332
  617MOL0     H81396   5.136   1.825  10.774  2.0705 -1.1297  0.4603
  617MOL0     H81397   5.355   1.941  10.562  0.3533  0.3305  2.8192
  617MOL0     H81398   5.559   1.911  10.422 -0.4766  0.2846 -2.3854
  617MOL0     H81399   5.505   1.789  10.311 -1.2793  2.7799  0.2353
  617MOL0     H81400   5.698   1.768  10.550 -2.0912  2.0732 -0.4866
  617MOL0     H81401   5.753   1.804  10.380  3.0350 -1.0918  2.2422
  617MOL0     H81402   5.656   1.552  10.498  1.0583 -1.6206 -0.8071
  617MOL0     H81403   5.658   1.568  10.328  2.6215  1.4474 -1.9983
  617MOL0     H81404   5.900   1.593  10.515 -2.2276  2.0678  0.1278
  617MOL0     H81405   5.918   1.632  10.343 -0.2633  0.8209  0.1679
  617MOL0     H81406   6.046   1.326  10.501 -3.9863 -0.3634 -1.1808
  617MOL0     H81407   6.275   1.255  10.427 -1.1614  0.4004  1.6154
  617MOL0     H81408   6.430   1.148   9.810  0.7154  1.7582 -0.3463
  617MOL0     H81409   6.638   1.056   9.760  1.5580  3.0421 -3.1014
  617MOL0     H81410   7.066   1.200   9.830 -0.2831 -0.3678 -0.5318
  617MOL0     H81411   6.948   1.325   9.792  4.1239 -0.0590 -0.0350
  617MOL0     H81412   6.905   1.173   9.590  0.4853 -1.0365  1.5900
  617MOL0     H81413   7.070   1.117   9.608  0.7144 -0.2624 -0.7192
  617MOL0     H81414   6.976   1.404   9.545 -1.8733 -1.2486  1.0450
  617MOL0     H81415   7.069   1.289   9.441 -5.9551 -2.5992 -0.4926
  617MOL0     H81416   7.174   1.364   9.719 -5.4095 -2.2741 -1.4560
  617MOL0     H81417   7.267   1.283   9.598  1.1776  0.1479 -2.6963
  617MOL0     H81418   7.341   1.516   9.634 -1.6394 -1.1298  2.4798
  617MOL0     H81419   7.186   1.588   9.591 -1.0221 -0.1229 -2.7288
  617MOL0     H81420   7.285   1.622   9.393  0.9371 -0.0891  0.4488
  617MOL0     H81421   7.202   1.467   9.359  2.7015  1.5833 -2.9572
  617MOL0     H81422   7.486   1.507   9.461 -2.8147  1.0455  2.7902
  617MOL0     H81423   7.418   1.349   9.406 -1.8780  0.4372  1.0849
  617MOL0     H81424   7.378   1.467   9.195 -1.4556  2.3006  2.9531
  617MOL0     H81425   7.543   1.402   9.214 -3.1957 -2.9422  0.0434
  617MOL0     H81426   6.834   1.344  10.013 -0.8014 -0.2879  0.6499
  617MOL0     H81427   6.627   1.427  10.090 -1.4491  0.4824  1.0638
  617MOL0     H81428   6.167   1.398  10.038  2.2650 -3.4099 -0.2937
  617MOL0     H81429   5.951   1.453  10.096  0.0800 -1.8802 -0.2597
  617MOL0     H81430   4.342   1.166  10.565  0.3178  2.3385  2.1305
  617MOL0     H81431   4.354   0.919  10.510 -0.0226 -0.3787 -0.2040
  617MOL0     H81432   4.413   0.493  10.692 -0.7874 -1.7880 -1.2989
  617MOL0     H81433   4.438   0.256  10.721  1.0368 -3.6349 -0.3949
  617MOL0     H81434   4.544   0.111  10.899  0.4053 -0.3972  1.5879
  617MOL0     H81435   4.703   0.176  10.926 -3.7933  1.8467  0.8044
  617MOL0     H81436   4.677  -0.117  10.817  1.4372 -0.6429  0.0146
  617MOL0     H81437   4.807  -0.045  10.904  0.1165 -4.0676  2.0799
  617MOL0     H81438   4.542  -0.098  11.020  0.0769 -1.7088  0.1791
  617MOL0     H81439   4.672  -0.013  11.117  2.4155  2.4074 -2.0606
  617MOL0     H81440   4.811  -0.208  11.054  0.7045 -0.2489  1.0145
  617MOL0     H81441   4.704  -0.221  11.192  1.2209  0.5118 -0.7920
  617MOL0     H81442   4.512  -0.489  10.917  2.6809 -2.7151  0.6089
  617MOL0     H81443   4.873   0.330  10.662  1.0963  2.6123 -0.8996
  617MOL0     H81444   4.826   0.566  10.665 -1.6286  1.4741  0.6504
  618MOL0     O81445   1.699   2.245   5.356  0.7118  0.5299 -0.2708
  618MOL0     C81446   1.757   2.348   5.321 -0.5978 -1.0591 -0.0533
  618MOL0     O81447   1.704   2.460   5.251 -0.5081 -0.1074 -0.4954
  618MOL0     C81448   1.576   2.480   5.236  1.4222 -0.0007 -0.3006
  618MOL0     C81449   1.523   2.493   5.108 -0.4140  0.1140 -0.5416
  618MOL0     C81450   1.387   2.534   5.091 -1.1074  0.3146  0.4320
  618MOL0     C81451   1.308   2.567   5.199  0.7290  1.0165  0.2852
  618MOL0     O81452   1.177   2.602   5.163  0.2717  0.5441  0.2928
  618MOL0     C81453   1.078   2.552   5.253 -0.0957 -0.0886  0.5509
  618MOL0     C81454   0.945   2.565   5.187 -0.0126 -0.9149  0.4156
  618MOL0     C81455   0.850   2.517   5.302 -0.1100  0.3453  0.0859
  618MOL0     C81456   0.707   2.511   5.263  0.5009 -0.0563  0.8221
  618MOL0     C81457   0.612   2.509   5.382 -0.0975  0.8116  0.2390
  618MOL0     C81458   0.476   2.454   5.329  0.2129  0.0405 -0.9254
  618MOL0     C81459   0.376   2.437   5.452 -1.0718  0.4055 -0.1769
  618MOL0     C81460   0.244   2.379   5.408  0.9593  0.3310  0.1821
  618MOL0     N81461   0.162   2.486   5.357 -0.0882 -0.7809  1.0081
  618MOL0     C81462   0.084   2.559   5.441 -0.9875  0.3473 -0.0975
  618MOL0     C81463   0.029   2.665   5.370  0.2134 -0.3103  0.2886
  618MOL0     C81464  -0.057   2.783   5.423 -0.1416  0.8319 -0.8775
  618MOL0     C81465   0.021   2.873   5.512  0.5596 -0.2074 -0.2348
  618MOL0     C81466  -0.062   3.002   5.531 -0.7552  0.3235 -0.5362
  618MOL0     C81467  -0.057   3.052   5.677  0.2389  1.1872  0.4015
  618MOL0     O81468   0.073   3.061   5.731  0.5556 -0.4234 -0.7060
  618MOL0     C81469   0.163   3.171   5.713 -0.2047 -0.6621  0.4382
  618MOL0     C81470   0.151   3.270   5.615 -0.8610 -0.0461 -0.2449
  618MOL0     C81471   0.252   3.366   5.597  0.0045  0.4553  0.6223
  618MOL0     C81472   0.373   3.355   5.674  0.3908 -1.1771 -0.0663
  618MOL0     C81473   0.484   3.453   5.639 -0.5145  0.3869  1.0318
  618MOL0     O81474   0.605   3.439   5.712  0.3168 -0.5223 -0.1306
  618MOL0     C81475   0.717   3.506   5.690 -0.0035 -1.0129 -0.2878
  618MOL0     C81476   0.796   3.540   5.800 -0.9418 -0.6054  0.5905
  618MOL0     C81477   0.915   3.617   5.784  0.5260  0.0985 -1.3375
  618MOL0     C81478   0.952   3.665   5.662  0.0765 -0.0371  0.1378
  618MOL0     O81479   1.062   3.753   5.664 -1.0806  0.5966 -0.4541
  618MOL0     C81480   1.137   3.757   5.539  0.2228 -0.4579 -0.5771
  618MOL0     C81481   1.228   3.888   5.524  0.6117  0.5846 -0.3026
  618MOL0     C81482   1.138   4.002   5.481  0.3106 -0.1639  0.7944
  618MOL0     C81483   1.213   4.140   5.467  0.4443  0.6783  0.2732
  618MOL0     C81484   1.125   4.269   5.469 -0.9992 -0.6256  1.6704
  618MOL0     C81485   1.190   4.399   5.422 -0.3049  0.2027  0.2805
  618MOL0     C81486   1.226   4.412   5.286 -0.4410 -0.4363  0.3495
  618MOL0     C81487   1.295   4.549   5.275 -0.2946  0.0125  0.0964
  618MOL0    Cl81488   1.467   4.523   5.337 -0.2573 -0.0034 -0.2781
  618MOL0     C81489   0.868   3.647   5.549 -0.8416 -0.1492  0.1226
  618MOL0     C81490   0.753   3.569   5.565  0.2661  0.3619  0.1446
  618MOL0     O81491   0.460   3.538   5.556  0.7857  0.6654  0.3517
  618MOL0     C81492   0.385   3.253   5.770 -0.0251  0.6099 -0.0333
  618MOL0     C81493   0.275   3.170   5.794 -0.3564 -0.6373  0.5736
  618MOL0     N81494   0.076   2.646   5.244 -1.3962 -0.8842  0.2609
  618MOL0     N81495   0.161   2.542   5.236  0.2153 -0.4837  0.6101
  618MOL0     C81496   1.354   2.553   5.331 -0.1086 -0.4745 -0.0391
  618MOL0     C81497   1.490   2.515   5.344 -0.0528 -0.7536  0.6322
  618MOL0     C81498   1.901   2.357   5.349 -0.1918 -0.0196 -0.7367
  618MOL0     C81499   1.979   2.239   5.360  0.3783 -0.7071  0.6938
  618MOL0     C81500   2.109   2.254   5.387  0.0188  0.9893 -0.9060
  618MOL0     C81501   2.166   2.377   5.415 -0.6779  0.6642  0.0231
  618MOL0     O81502   2.294   2.352   5.453  0.4346  0.5512 -0.7393
  618MOL0     C81503   2.370   2.451   5.519 -0.5103  0.4062  0.2880
  618MOL0     C81504   2.509   2.404   5.563 -0.5179 -0.1268  0.3315
  618MOL0     C81505   2.611   2.389   5.449  0.2267 -0.4241 -0.0170
  618MOL0     C81506   2.734   2.324   5.501  0.3012 -0.2942 -0.0449
  618MOL0     C81507   2.825   2.276   5.398  0.3777 -0.0593  0.8809
  618MOL0     C81508   2.892   2.242   5.299 -0.8456  0.6484  0.0131
  618MOL0     C81509   2.090   2.491   5.396 -0.0661 -0.3359  0.7539
  618MOL0     C81510   1.962   2.482   5.363  0.1659  0.5471  0.2311
  618MOL0     H81511   1.581   2.472   5.018 -2.4258 -3.2546 -1.2222
  618MOL0     H81512   1.344   2.541   4.992 -1.6602 -2.8938  0.3443
  618MOL0     H81513   1.082   2.599   5.351 -0.2185  0.3575  0.3453
  618MOL0     H81514   1.098   2.447   5.275  1.3390  0.6082  2.8848
  618MOL0     H81515   0.935   2.502   5.098 -1.8631 -0.0013 -0.0915
  618MOL0     H81516   0.930   2.670   5.160 -1.3069 -0.7299  1.6774
  618MOL0     H81517   0.867   2.582   5.388  1.1640 -4.6668  4.0948
  618MOL0     H81518   0.881   2.418   5.336  0.3421 -0.6150 -2.8277
  618MOL0     H81519   0.682   2.598   5.202  3.2572 -0.3601 -0.9026
  618MOL0     H81520   0.707   2.422   5.200 -1.8108  1.5037 -1.6029
  618MOL0     H81521   0.604   2.608   5.427 -2.8746  0.1761  1.3363
  618MOL0     H81522   0.650   2.447   5.464 -1.4521  0.9250  0.9727
  618MOL0     H81523   0.491   2.350   5.299  0.3369 -0.3346  0.3716
  618MOL0     H81524   0.440   2.511   5.243 -0.3635 -2.0097 -2.1186
  618MOL0     H81525   0.422   2.375   5.529  1.9050  1.6420 -0.8179
  618MOL0     H81526   0.364   2.530   5.508  2.1164  0.4717  0.5744
  618MOL0     H81527   0.197   2.327   5.492 -0.0572  3.0346  1.3758
  618MOL0     H81528   0.258   2.302   5.330 -2.2793 -1.0644  0.8194
  618MOL0     H81529   0.064   2.543   5.546 -1.9378  2.5282  0.1027
  618MOL0     H81530  -0.139   2.733   5.475  2.5788 -5.2445 -1.5529
  618MOL0     H81531  -0.108   2.832   5.339  1.3020  0.8840 -1.7731
  618MOL0     H81532   0.118   2.899   5.468  0.5088  1.1620  0.3891
  618MOL0     H81533   0.036   2.823   5.608 -0.1468 -3.4261 -1.6761
  618MOL0     H81534  -0.015   3.079   5.470 -1.3094  0.6450 -0.5604
  618MOL0     H81535  -0.169   2.997   5.511 -2.1195  3.7959  4.0504
  618MOL0     H81536  -0.120   2.994   5.746  0.8415  0.2341  0.1713
  618MOL0     H81537  -0.091   3.155   5.682  0.5519  1.2343  3.7221
  618MOL0     H81538   0.062   3.287   5.556 -0.5688  1.4816 -0.2813
  618MOL0     H81539   0.236   3.454   5.535  2.3273  1.1969  0.9766
  618MOL0     H81540   0.760   3.501   5.894  0.4329 -1.5466  0.7586
  618MOL0     H81541   0.982   3.634   5.868  0.2157 -0.9404 -0.8569
  618MOL0     H81542   1.073   3.762   5.451  1.2377 -1.3237 -1.4033
  618MOL0     H81543   1.210   3.676   5.528  0.2135 -0.9104  2.0363
  618MOL0     H81544   1.312   3.861   5.460  2.2386  0.2776  1.8333
  618MOL0     H81545   1.285   3.900   5.617 -0.3352  0.2702  0.3286
  618MOL0     H81546   1.064   4.009   5.561 -2.7560  2.8944 -1.9560
  618MOL0     H81547   1.076   3.971   5.397 -1.8758 -1.5501  2.7759
  618MOL0     H81548   1.272   4.158   5.557  0.0540 -0.7068  0.8464
  618MOL0     H81549   1.279   4.157   5.382 -1.0362  1.7897 -0.6981
  618MOL0     H81550   1.080   4.274   5.568 -0.5772  1.1543  1.8071
  618MOL0     H81551   1.045   4.248   5.396  0.2037  1.2511 -0.3054
  618MOL0     H81552   1.282   4.412   5.480  0.8808 -2.4671 -0.8303
  618MOL0     H81553   1.121   4.481   5.444  2.0367  2.6188 -0.8010
  618MOL0     H81554   1.304   4.343   5.256  0.6432  0.9363 -0.0926
  618MOL0     H81555   1.134   4.406   5.227 -0.9983  0.4462  1.0873
  618MOL0     H81556   1.243   4.620   5.341  1.9510  0.8193  1.1357
  618MOL0     H81557   1.297   4.596   5.177 -2.3718  2.2818  1.0412
  618MOL0     H81558   0.884   3.693   5.452 -1.5752 -1.6318 -0.7296
  618MOL0     H81559   0.683   3.567   5.482  0.5020  1.1522 -0.0807
  618MOL0     H81560   0.476   3.241   5.828 -0.1435 -0.6474 -0.0857
  618MOL0     H81561   0.287   3.100   5.876 -1.3295 -0.5779  0.7896
  618MOL0     H81562   1.293   2.570   5.419  0.0084  1.3901 -0.2858
  618MOL0     H81563   1.523   2.507   5.447 -0.6180 -2.2524  0.7263
  618MOL0     H81564   1.924   2.146   5.351 -0.6703 -0.3455  2.6403
  618MOL0     H81565   2.175   2.168   5.390 -1.3853 -0.1054 -0.0486
  618MOL0     H81566   2.321   2.466   5.616  2.3792 -1.4039  2.1717
  618MOL0     H81567   2.383   2.540   5.455  2.1242 -1.3678 -1.8760
  618MOL0     H81568   2.542   2.477   5.637  0.2264 -2.0248  1.9939
  618MOL0     H81569   2.499   2.306   5.612  2.1980 -1.4178 -1.3995
  618MOL0     H81570   2.623   2.486   5.401  3.9442  0.7235  2.6586
  618MOL0     H81571   2.559   2.320   5.382 -2.8557  2.7739 -1.2042
  618MOL0     H81572   2.781   2.379   5.583  1.6861  2.3132 -2.3995
  618MOL0     H81573   2.706   2.231   5.551  1.9040 -1.8535 -1.9120
  618MOL0     H81574   2.955   2.211   5.218 -0.9513 -0.8503  0.4861
  618MOL0     H81575   2.120   2.596   5.396 -1.2609  0.1340 -2.5808
  618MOL0     H81576   1.906   2.570   5.333  0.7974  0.6251 -0.7715
  619MOL0     O81577   3.961   3.917  11.236 -0.2999  0.5241 -0.2285
  619MOL0     C81578   3.880   3.953  11.162 -0.2741  0.2439 -0.3755
  619MOL0     O81579   3.840   4.078  11.152 -0.6698 -0.0812  1.1095
  619MOL0     C81580   3.917   4.178  11.211 -0.1443 -0.1831 -0.5220
  619MOL0     C81581   4.063   4.182  11.213  0.6992 -0.3432 -0.4105
  619MOL0     C81582   4.122   4.299  11.267  0.6790  1.0755  0.1958
  619MOL0     C81583   4.044   4.404  11.327 -0.2521  0.1485  0.0411
  619MOL0     O81584   4.117   4.504  11.397  0.0283 -0.4688  0.0594
  619MOL0     C81585   4.044   4.610  11.461 -0.2277  0.0832 -0.6412
  619MOL0     C81586   4.120   4.664  11.588  0.6415 -0.0040  1.1178
  619MOL0     C81587   4.136   4.559  11.702  0.9284 -0.4498 -0.4080
  619MOL0     C81588   4.224   4.625  11.808 -0.2957 -0.1641 -0.4867
  619MOL0     C81589   4.225   4.528  11.922  0.0411  0.7819  0.2535
  619MOL0     C81590   4.361   4.472  11.955  0.0539  0.1971 -0.6623
  619MOL0     C81591   4.353   4.351  12.049  0.4735 -0.0542  0.3387
  619MOL0     C81592   4.297   4.401  12.183  0.1163 -0.0773 -0.5197
  619MOL0     N81593   4.285   4.283  12.277 -0.0166 -0.6479 -0.2824
  619MOL0     C81594   4.341   4.161  12.277  0.1606  0.3202 -0.7810
  619MOL0     C81595   4.315   4.109  12.404 -0.3808  1.0415 -0.6055
  619MOL0     C81596   4.374   3.971  12.449  0.3763  0.1772 -0.8598
  619MOL0     C81597   4.310   3.939  12.581  0.2406 -0.1342 -0.2360
  619MOL0     C81598   4.371   3.820  12.658 -0.8149 -0.2212 -1.2514
  619MOL0     C81599   4.301   3.810  12.799 -0.6789 -0.1354  0.1314
  619MOL0     O81600   4.382   3.745  12.899 -0.7058 -0.6604  0.4617
  619MOL0     C81601   4.409   3.609  12.879  0.0090 -0.9518 -0.2761
  619MOL0     C81602   4.527   3.572  12.825  0.2437 -0.5846 -0.1272
  619MOL0     C81603   4.570   3.431  12.814 -0.0926  0.2764  1.1411
  619MOL0     C81604   4.480   3.334  12.869 -0.6370 -0.1288  0.5778
  619MOL0     C81605   4.499   3.184  12.859 -1.0452 -0.3751  0.1723
  619MOL0     O81606   4.620   3.133  12.810  0.4190 -0.0307  0.3536
  619MOL0     C81607   4.654   3.000  12.824 -0.3791  0.4661  0.7322
  619MOL0     C81608   4.604   2.910  12.920 -0.4550 -0.4819 -0.0593
  619MOL0     C81609   4.659   2.786  12.945  1.0362  0.0171 -0.4030
  619MOL0     C81610   4.755   2.732  12.856  0.5632  0.1066 -0.8452
  619MOL0     O81611   4.821   2.604  12.870 -0.2926 -0.2122 -0.7096
  619MOL0     C81612   4.787   2.532  12.982 -0.0924  0.4453  0.6034
  619MOL0     C81613   4.882   2.403  12.986  0.1606  0.0648 -0.1141
  619MOL0     C81614   4.843   2.287  12.885 -0.3567  0.4985 -0.1906
  619MOL0     C81615   4.824   2.322  12.737 -0.4694 -0.2760  0.0783
  619MOL0     C81616   4.791   2.189  12.659  0.1840 -0.1639 -0.3474
  619MOL0     C81617   4.786   2.224  12.510  0.4313 -0.2307  0.3519
  619MOL0     C81618   4.748   2.102  12.430 -0.0289 -0.1875  0.6796
  619MOL0     C81619   4.599   2.098  12.382  0.2282 -0.0899 -0.9456
  619MOL0    Cl81620   4.616   1.983  12.244  0.0398 -0.0099 -0.1825
  619MOL0     C81621   4.803   2.814  12.762 -0.2434 -0.3013  0.5318
  619MOL0     C81622   4.751   2.944  12.748 -0.1057  0.0113 -0.2348
  619MOL0     O81623   4.408   3.114  12.886  0.1954 -0.7909  0.3431
  619MOL0     C81624   4.360   3.381  12.920  0.2011 -1.0663 -0.5318
  619MOL0     C81625   4.321   3.516  12.925 -0.2259  0.0417 -0.2572
  619MOL0     N81626   4.230   4.198  12.470  0.5662  0.2675 -0.6176
  619MOL0     N81627   4.213   4.292  12.390 -0.8071  0.3669 -0.4643
  619MOL0     C81628   3.907   4.389  11.327  0.0725 -0.4706  0.0461
  619MOL0     C81629   3.844   4.280  11.268 -0.0430 -0.2070  0.2687
  619MOL0     C81630   3.815   3.857  11.071  0.0737  0.4214  0.1886
  619MOL0     C81631   3.722   3.899  10.974 -0.1508  0.0243 -0.1297
  619MOL0     C81632   3.664   3.810  10.884  0.0426  0.8779  0.1110
  619MOL0     C81633   3.691   3.673  10.887 -0.1893  0.2144 -0.3769
  619MOL0     O81634   3.644   3.581  10.796 -0.8658  0.3985 -0.9744
  619MOL0     C81635   3.671   3.624  10.661 -0.7175  1.0139  0.5583
  619MOL0     C81636   3.691   3.501  10.571  0.3394  0.5832  0.0940
  619MOL0     C81637   3.549   3.443  10.551  0.3360  0.3316 -0.7363
  619MOL0     C81638   3.547   3.301  10.493 -0.3371 -0.4354 -0.1719
  619MOL0     C81639   3.636   3.285  10.379 -0.9542  1.3806  0.0749
  619MOL0     C81640   3.713   3.295  10.284 -0.1934 -0.0022  0.3182
  619MOL0     C81641   3.765   3.629  10.997  0.0391  0.6940  0.0144
  619MOL0     C81642   3.831   3.717  11.083 -0.2590 -0.1082  0.4143
  619MOL0     H81643   4.117   4.098  11.170  2.1735  1.0030 -1.2984
  619MOL0     H81644   4.230   4.294  11.260  0.5345  0.0260 -1.8911
  619MOL0     H81645   3.948   4.578  11.503 -1.0470 -1.9920 -3.7781
  619MOL0     H81646   4.034   4.687  11.385  0.2535 -0.7653 -1.5844
  619MOL0     H81647   4.057   4.747  11.622  1.1240 -0.5952  3.6548
  619MOL0     H81648   4.218   4.707  11.567 -0.5065  2.3592  0.1215
  619MOL0     H81649   4.191   4.479  11.652  0.2368  0.3054 -2.4919
  619MOL0     H81650   4.040   4.517  11.733  1.0594 -0.5541 -0.1426
  619MOL0     H81651   4.321   4.638  11.760  0.3352  0.4772  0.9364
  619MOL0     H81652   4.186   4.726  11.825  3.4018  0.9738  2.1278
  619MOL0     H81653   4.152   4.448  11.908  2.5515 -1.3770 -1.1318
  619MOL0     H81654   4.200   4.597  12.003 -1.2987  2.5766 -1.5839
  619MOL0     H81655   4.423   4.547  12.006 -1.6273  2.3559 -1.6117
  619MOL0     H81656   4.410   4.436  11.864  0.9802  0.7100 -0.3849
  619MOL0     H81657   4.288   4.278  11.999  0.9727 -1.4491  1.6704
  619MOL0     H81658   4.447   4.299  12.067 -1.0214 -2.4554  1.7830
  619MOL0     H81659   4.201   4.449  12.164  0.5955  0.9698 -0.3368
  619MOL0     H81660   4.357   4.487  12.214 -2.5036  2.6608 -2.5523
  619MOL0     H81661   4.403   4.120  12.198  0.5644  1.7472 -1.2406
  619MOL0     H81662   4.481   3.986  12.460  0.2890  1.9063 -2.0387
  619MOL0     H81663   4.353   3.891  12.377  1.2793  0.4577 -1.4444
  619MOL0     H81664   4.201   3.929  12.580  0.3375 -1.5821  0.5950
  619MOL0     H81665   4.334   4.027  12.640  3.2011 -0.9983  0.0363
  619MOL0     H81666   4.361   3.728  12.600 -0.4736  0.3690 -2.2756
  619MOL0     H81667   4.478   3.834  12.678 -0.9695 -0.9518  0.2096
  619MOL0     H81668   4.207   3.756  12.787  0.7891 -3.2321  1.5976
  619MOL0     H81669   4.285   3.905  12.852 -0.9966  0.1394 -0.4494
  619MOL0     H81670   4.583   3.659  12.791 -1.0831 -0.3176 -1.7106
  619MOL0     H81671   4.658   3.413  12.753 -1.2238 -2.7612  0.2223
  619MOL0     H81672   4.531   2.934  12.996 -1.2943 -0.1575 -0.9432
  619MOL0     H81673   4.616   2.729  13.027 -3.3564  0.6508 -2.0206
  619MOL0     H81674   4.686   2.492  12.968  1.2791 -3.3161  0.2091
  619MOL0     H81675   4.796   2.588  13.075 -2.1238  0.4518  0.8433
  619MOL0     H81676   4.888   2.342  13.077  0.4615 -2.6364 -1.8316
  619MOL0     H81677   4.986   2.435  12.973 -0.5924  2.5762 -0.3791
  619MOL0     H81678   4.746   2.248  12.917 -0.4794 -1.6636 -2.8341
  619MOL0     H81679   4.912   2.204  12.903 -1.3157 -0.5299 -1.0988
  619MOL0     H81680   4.742   2.390  12.712 -2.4953 -2.9987 -1.3118
  619MOL0     H81681   4.917   2.363  12.698  0.6175 -1.0554  1.7394
  619MOL0     H81682   4.694   2.149  12.690  0.4277 -0.9622 -0.6094
  619MOL0     H81683   4.869   2.117  12.684 -0.0034  0.3212  1.8731
  619MOL0     H81684   4.879   2.259  12.464  0.3977 -3.0309 -2.1681
  619MOL0     H81685   4.715   2.303  12.483 -4.3306 -4.2499 -0.4934
  619MOL0     H81686   4.818   2.095  12.346 -0.1702  2.3642  0.2529
  619MOL0     H81687   4.769   2.011  12.487  3.6978 -1.3739 -2.1629
  619MOL0     H81688   4.545   2.190  12.358 -2.2967 -1.7125 -1.9349
  619MOL0     H81689   4.546   2.045  12.462  1.7931 -1.2948 -0.6702
  619MOL0     H81690   4.885   2.789  12.696 -0.0080  1.6670  0.0217
  619MOL0     H81691   4.797   3.019  12.684  0.0964 -0.3033 -0.4640
  619MOL0     H81692   4.291   3.312  12.967  0.2180  0.1518  1.4138
  619MOL0     H81693   4.230   3.547  12.975  0.4429  0.7698  0.5385
  619MOL0     H81694   3.842   4.467  11.366  1.4497  1.2019 -0.8787
  619MOL0     H81695   3.740   4.278  11.237  1.0538  2.1096 -4.4233
  619MOL0     H81696   3.694   4.003  10.959 -1.4441 -0.3117 -0.2229
  619MOL0     H81697   3.591   3.836  10.808 -1.2646 -3.1402 -0.2327
  619MOL0     H81698   3.763   3.684  10.667  0.1453  0.1560 -2.3694
  619MOL0     H81699   3.587   3.686  10.629 -0.4893  1.2674  0.4374
  619MOL0     H81700   3.721   3.531  10.470  0.3596 -1.0596 -0.4124
  619MOL0     H81701   3.768   3.430  10.602 -1.7222 -2.7367 -1.7713
  619MOL0     H81702   3.484   3.508  10.491 -0.0514 -0.3864 -1.1160
  619MOL0     H81703   3.495   3.434  10.645 -0.2787  2.6944 -0.8121
  619MOL0     H81704   3.564   3.231  10.575  0.8855 -0.6690 -0.6100
  619MOL0     H81705   3.447   3.289  10.448 -1.0307  2.1766  0.5312
  619MOL0     H81706   3.779   3.325  10.205 -1.4572 -0.1713 -0.8427
  619MOL0     H81707   3.791   3.526  11.017  0.3476  0.8518  0.4426
  619MOL0     H81708   3.902   3.691  11.160  0.3673 -0.6211 -0.3178
  620MOL0     O81709   0.139   6.042   2.820 -0.8068 -0.5496  0.5944
  620MOL0     C81710   0.183   5.983   2.918 -0.9107  0.1108  0.0793
  620MOL0     O81711   0.120   5.885   2.987 -0.0224 -0.9241 -0.3883
  620MOL0     C81712   0.003   5.830   2.946 -0.6710 -0.1956 -0.5259
  620MOL0     C81713  -0.067   5.779   3.051  1.1216 -0.0641 -0.9209
  620MOL0     C81714  -0.196   5.730   3.042  0.8054 -0.5170 -0.1326
  620MOL0     C81715  -0.251   5.709   2.911 -1.0286 -0.6583 -0.2197
  620MOL0     O81716  -0.380   5.668   2.921 -0.5123  0.3757 -0.5181
  620MOL0     C81717  -0.437   5.590   2.811  0.9319 -0.4713  1.0764
  620MOL0     C81718  -0.370   5.448   2.791 -0.8416  0.6070 -0.2404
  620MOL0     C81719  -0.406   5.387   2.655  0.3392  0.2440 -0.5602
  620MOL0     C81720  -0.348   5.239   2.636 -0.9137  0.0869  0.5486
  620MOL0     C81721  -0.438   5.149   2.551  1.0508 -0.1260 -0.1056
  620MOL0     C81722  -0.358   5.024   2.522 -0.7149 -0.1663 -0.7356
  620MOL0     C81723  -0.381   4.944   2.380  0.2232 -0.3188 -0.4974
  620MOL0     C81724  -0.481   4.827   2.384  0.1240  0.7200 -0.0623
  620MOL0     N81725  -0.429   4.706   2.450  0.2302 -0.8019 -0.3712
  620MOL0     C81726  -0.319   4.628   2.408  0.1206  0.4177 -0.6790
  620MOL0     C81727  -0.279   4.565   2.521 -0.2512  0.3415  0.8050
  620MOL0     C81728  -0.139   4.495   2.529 -0.1733 -0.5068  0.3923
  620MOL0     C81729  -0.134   4.369   2.445 -0.3488  0.5242 -0.4411
  620MOL0     C81730  -0.003   4.278   2.465 -0.9672 -0.3980  0.0459
  620MOL0     C81731   0.011   4.156   2.368 -1.1009 -1.2433 -0.2023
  620MOL0     O81732  -0.107   4.089   2.340 -0.0747 -0.2871 -1.2106
  620MOL0     C81733  -0.130   4.026   2.219 -1.0639 -0.1219  0.6910
  620MOL0     C81734  -0.254   3.988   2.180 -0.0227  0.4612  0.4292
  620MOL0     C81735  -0.276   3.925   2.060 -0.1892  0.8328 -0.0065
  620MOL0     C81736  -0.173   3.905   1.968  0.0775  1.2443 -0.9287
  620MOL0     C81737  -0.206   3.839   1.844 -0.2670 -0.7923  1.4397
  620MOL0     O81738  -0.333   3.800   1.812  0.9847 -0.5313  0.2493
  620MOL0     C81739  -0.350   3.754   1.680 -0.1580 -0.0910 -0.1244
  620MOL0     C81740  -0.321   3.835   1.566  0.1227  0.2667 -1.0868
  620MOL0     C81741  -0.319   3.784   1.440  1.2596  0.2313  0.6254
  620MOL0     C81742  -0.371   3.661   1.408 -0.2715 -0.3881  0.3313
  620MOL0     O81743  -0.371   3.613   1.281 -0.7138 -0.4633  0.1081
  620MOL0     C81744  -0.416   3.478   1.239 -0.0705 -0.8517 -0.5985
  620MOL0     C81745  -0.419   3.465   1.083  0.5681 -0.1529 -0.4792
  620MOL0     C81746  -0.278   3.440   1.028 -0.1525  0.3718  0.4915
  620MOL0     C81747  -0.283   3.387   0.875  0.0506  0.5648 -0.5969
  620MOL0     C81748  -0.146   3.334   0.821 -0.2158 -0.0188 -0.0744
  620MOL0     C81749  -0.152   3.298   0.668  0.8875  0.4652 -1.0055
  620MOL0     C81750  -0.135   3.423   0.582  0.1591  0.1085 -0.0356
  620MOL0     C81751  -0.174   3.398   0.440 -0.7006  0.3391 -0.6918
  620MOL0    Cl81752  -0.333   3.325   0.435 -0.0449  0.1943 -0.5160
  620MOL0     C81753  -0.397   3.577   1.518 -0.1369  0.5626  0.5013
  620MOL0     C81754  -0.397   3.623   1.649  0.0021  0.4182  0.1397
  620MOL0     O81755  -0.112   3.836   1.760  0.1171  0.4657  0.5450
  620MOL0     C81756  -0.049   3.937   1.996 -0.3742 -0.1935 -0.5494
  620MOL0     C81757  -0.023   3.998   2.118  0.7068 -0.4390 -0.7973
  620MOL0     N81758  -0.369   4.587   2.620  1.5844  0.8802  0.3391
  620MOL0     N81759  -0.460   4.668   2.582 -0.7395  0.6878 -0.5962
  620MOL0     C81760  -0.165   5.755   2.803  0.8934  0.4493  0.5937
  620MOL0     C81761  -0.049   5.808   2.819  0.0316 -0.1309  0.2827
  620MOL0     C81762   0.298   6.040   2.979 -0.3901  0.7119  0.7092
  620MOL0     C81763   0.380   6.138   2.919  0.1412  0.7939  0.1978
  620MOL0     C81764   0.491   6.196   2.984 -0.8610 -1.0205 -0.2329
  620MOL0     C81765   0.513   6.156   3.116 -0.4461  0.0871 -0.3413
  620MOL0     O81766   0.603   6.222   3.193 -0.0768 -0.3930 -0.1358
  620MOL0     C81767   0.563   6.355   3.224  0.4583 -0.1011  0.6961
  620MOL0     C81768   0.663   6.462   3.179 -0.0580 -0.8292 -0.4742
  620MOL0     C81769   0.771   6.494   3.285 -0.5447  0.8694 -0.3733
  620MOL0     C81770   0.897   6.579   3.249 -0.3652  0.3453  0.5178
  620MOL0     C81771   0.970   6.611   3.380  0.5776 -0.2518  0.4602
  620MOL0     C81772   1.037   6.655   3.473 -0.4280 -1.1814 -0.1497
  620MOL0     C81773   0.444   6.051   3.167 -0.9951 -0.2134  0.3107
  620MOL0     C81774   0.338   5.987   3.102 -0.6923 -0.1143 -0.0128
  620MOL0     H81775  -0.052   5.797   3.157 -0.5716 -2.5069 -0.1885
  620MOL0     H81776  -0.253   5.699   3.130  0.3412  2.3157  0.6726
  620MOL0     H81777  -0.448   5.655   2.724  2.2549  0.3847  1.5086
  620MOL0     H81778  -0.541   5.575   2.840 -1.1484  1.7855 -4.1019
  620MOL0     H81779  -0.390   5.382   2.876  1.0963  1.7906  1.2220
  620MOL0     H81780  -0.263   5.466   2.798 -0.6921  0.0256 -0.9345
  620MOL0     H81781  -0.366   5.449   2.573 -0.5641  1.7673  0.1018
  620MOL0     H81782  -0.515   5.382   2.650  0.0373  2.3614  1.9425
  620MOL0     H81783  -0.247   5.251   2.597 -0.0373  1.9524  3.0831
  620MOL0     H81784  -0.339   5.190   2.733  0.8151  1.6439  1.2441
  620MOL0     H81785  -0.454   5.193   2.452 -1.2076  0.7876  0.6172
  620MOL0     H81786  -0.533   5.130   2.602 -0.4473  1.2858 -2.2179
  620MOL0     H81787  -0.376   4.952   2.602  4.0208 -0.4774  0.3404
  620MOL0     H81788  -0.252   5.047   2.534 -0.7798 -0.3412  0.2599
  620MOL0     H81789  -0.422   5.020   2.314 -1.2565 -1.5188 -0.9904
  620MOL0     H81790  -0.282   4.917   2.342  0.9534  3.0829 -1.3847
  620MOL0     H81791  -0.510   4.796   2.283 -0.4110 -0.9079  0.5557
  620MOL0     H81792  -0.578   4.856   2.424  0.8387  2.6679  0.3467
  620MOL0     H81793  -0.261   4.652   2.319 -0.8664  0.2644 -1.3837
  620MOL0     H81794  -0.112   4.487   2.635  3.0820  3.1913  0.0690
  620MOL0     H81795  -0.060   4.563   2.495 -2.4180  1.9744 -0.2192
  620MOL0     H81796  -0.124   4.405   2.342 -1.0851 -1.5741 -1.2899
  620MOL0     H81797  -0.229   4.315   2.440 -0.6173  0.8649  0.6498
  620MOL0     H81798   0.082   4.346   2.453  0.1010 -1.4944  1.1367
  620MOL0     H81799   0.004   4.235   2.565 -1.4941 -2.2953 -0.6977
  620MOL0     H81800   0.099   4.097   2.397 -0.1860  0.5965  0.9440
  620MOL0     H81801   0.048   4.209   2.280  0.6262  3.9597  3.1842
  620MOL0     H81802  -0.333   4.013   2.251 -3.3172 -3.4148 -1.4376
  620MOL0     H81803  -0.378   3.896   2.037 -0.2307  1.2188 -0.3250
  620MOL0     H81804  -0.274   3.930   1.590 -2.0512  0.5729  2.7699
  620MOL0     H81805  -0.286   3.842   1.354 -2.3031  1.6812  0.0696
  620MOL0     H81806  -0.518   3.447   1.267 -0.6356 -1.8483 -3.3921
  620MOL0     H81807  -0.353   3.396   1.272  1.1004  0.1330 -0.3370
  620MOL0     H81808  -0.460   3.558   1.042 -0.2768 -0.5904 -0.6475
  620MOL0     H81809  -0.485   3.390   1.038  2.1083  0.8015 -4.8611
  620MOL0     H81810  -0.232   3.360   1.087 -0.3119  2.2156  3.3202
  620MOL0     H81811  -0.205   3.521   1.031 -2.0827  2.2309  0.1396
  620MOL0     H81812  -0.331   3.288   0.879  4.5880 -1.8416  2.3005
  620MOL0     H81813  -0.329   3.449   0.797  1.3016  0.2591 -1.6226
  620MOL0     H81814  -0.107   3.249   0.879  4.5173  2.1260  0.4163
  620MOL0     H81815  -0.063   3.406   0.820  2.1278 -2.4964 -2.0518
  620MOL0     H81816  -0.245   3.249   0.640  1.4368 -0.5839 -1.0343
  620MOL0     H81817  -0.068   3.233   0.642  3.1630  3.0644 -0.6429
  620MOL0     H81818  -0.192   3.509   0.618  2.5288  1.5880  0.3952
  620MOL0     H81819  -0.028   3.443   0.592  0.1567  1.8315 -2.5564
  620MOL0     H81820  -0.103   3.327   0.398  0.4489  0.4136  1.0390
  620MOL0     H81821  -0.170   3.492   0.383  0.5036  0.2658 -0.7430
  620MOL0     H81822  -0.431   3.476   1.498  0.3085  0.4038  0.5401
  620MOL0     H81823  -0.410   3.561   1.737  2.3792  1.1806  1.1302
  620MOL0     H81824   0.037   3.934   1.930  1.2319 -1.1047  1.4328
  620MOL0     H81825   0.082   4.018   2.140  1.0826 -2.2009 -0.8871
  620MOL0     H81826  -0.194   5.750   2.699  2.1807  0.7985  0.2055
  620MOL0     H81827   0.018   5.827   2.736  0.3389  0.2651  0.6113
  620MOL0     H81828   0.366   6.188   2.823 -1.4758 -0.1025 -0.0662
  620MOL0     H81829   0.545   6.283   2.949 -0.4737 -0.2881  1.9869
  620MOL0     H81830   0.555   6.370   3.332  1.3879  1.2573  0.6039
  620MOL0     H81831   0.463   6.382   3.189 -1.8463 -1.7341  5.2033
  620MOL0     H81832   0.695   6.442   3.077 -3.8683  3.4235 -2.8653
  620MOL0     H81833   0.603   6.554   3.178  0.0788 -0.7513 -1.3624
  620MOL0     H81834   0.813   6.398   3.318 -1.6065  1.4259  3.0423
  620MOL0     H81835   0.725   6.545   3.370 -0.1020 -0.5012  0.7324
  620MOL0     H81836   0.957   6.519   3.181  1.0747 -0.1367  2.1437
  620MOL0     H81837   0.871   6.675   3.203  0.8635 -0.0705 -1.1239
  620MOL0     H81838   1.092   6.685   3.559 -0.9685  0.0107 -0.1953
  620MOL0     H81839   0.469   6.027   3.270  0.1395  1.3294  0.4387
  620MOL0     H81840   0.292   5.908   3.160 -0.3964  1.2205  2.1917
  621MOL0     O81841   8.107   8.534   1.007  0.0112  0.1197  0.3782
  621MOL0     C81842   8.147   8.412   1.017  0.2187 -0.9838  0.7097
  621MOL0     O81843   8.119   8.312   0.922  0.0050  0.2978  0.8288
  621MOL0     C81844   8.017   8.344   0.834  0.1429  0.0230 -0.4611
  621MOL0     C81845   8.043   8.419   0.722  0.5950  0.0278 -0.4581
  621MOL0     C81846   7.937   8.459   0.636 -0.0236  0.5654 -0.0966
  621MOL0     C81847   7.806   8.428   0.666  0.6651  0.0459 -0.3411
  621MOL0     O81848   7.689   8.451   0.593 -0.1663 -0.7394  0.1696
  621MOL0     C81849   7.717   8.512   0.463  0.0910 -0.0842 -0.0747
  621MOL0     C81850   7.589   8.541   0.385  0.2957  0.4905  0.7321
  621MOL0     C81851   7.503   8.654   0.436 -0.5061  0.4759 -0.8575
  621MOL0     C81852   7.413   8.702   0.322 -0.5267 -0.1850  0.8279
  621MOL0     C81853   7.301   8.795   0.362  0.1078 -0.3468 -0.2693
  621MOL0     C81854   7.351   8.924   0.419  0.2534 -0.8101  0.8317
  621MOL0     C81855   7.235   9.026   0.440  0.7595 -0.6903 -0.4786
  621MOL0     C81856   7.138   8.984   0.552 -0.2275 -1.0531 -0.4870
  621MOL0     N81857   7.066   9.101   0.601 -0.3813  0.6886 -0.0728
  621MOL0     C81858   6.943   9.155   0.552  0.0059  0.5079 -0.1028
  621MOL0     C81859   6.911   9.249   0.646 -0.7625  1.0286 -0.8930
  621MOL0     C81860   6.793   9.333   0.641  0.2924  0.4054  0.0994
  621MOL0     C81861   6.807   9.466   0.553  0.1614 -0.2231  0.2669
  621MOL0     C81862   6.675   9.553   0.551  0.4809 -0.5898  0.9964
  621MOL0     C81863   6.670   9.644   0.420 -0.8785  0.0910 -0.6294
  621MOL0     O81864   6.576   9.750   0.423  0.1465  0.3558  0.3589
  621MOL0     C81865   6.458   9.724   0.359 -0.4351 -0.7263 -0.4501
  621MOL0     C81866   6.461   9.686   0.227  0.0500 -0.0010 -0.5867
  621MOL0     C81867   6.346   9.638   0.152 -0.3911 -0.1306 -0.5426
  621MOL0     C81868   6.228   9.655   0.209 -0.6149  0.4335 -0.2986
  621MOL0     C81869   6.094   9.626   0.140  0.1429 -0.0152  0.8573
  621MOL0     O81870   5.981   9.630   0.215  0.4427 -0.4954  0.9137
  621MOL0     C81871   5.855   9.601   0.162  0.2116  0.9003  0.6189
  621MOL0     C81872   5.743   9.661   0.216  0.6062  0.1467 -0.4901
  621MOL0     C81873   5.624   9.626   0.176 -0.1589 -0.1775 -0.6602
  621MOL0     C81874   5.600   9.540   0.074 -0.3883  0.3110 -0.2883
  621MOL0     O81875   5.471   9.505   0.041  0.2471  0.5640 -0.1772
  621MOL0     C81876   5.447   9.518  -0.103  0.6906 -0.2538  0.9437
  621MOL0     C81877   5.302   9.516  -0.136 -0.5175 -0.8687  1.0440
  621MOL0     C81878   5.241   9.380  -0.130  0.7255  0.7026  0.2628
  621MOL0     C81879   5.309   9.279  -0.226 -0.6759  1.3614 -0.2588
  621MOL0     C81880   5.227   9.142  -0.230  0.0111  0.5788  0.1327
  621MOL0     C81881   5.310   9.015  -0.271 -0.0083 -1.2540 -1.0513
  621MOL0     C81882   5.225   8.888  -0.240  0.6969  0.4693 -0.2037
  621MOL0     C81883   5.115   8.870  -0.340 -0.0698  0.4756 -1.2470
  621MOL0    Cl81884   5.184   8.830  -0.498 -0.0078  0.1866  0.4498
  621MOL0     C81885   5.705   9.471   0.008 -0.3080  0.7362  0.2334
  621MOL0     C81886   5.835   9.496   0.060  0.0388  0.1638 -0.7653
  621MOL0     O81887   6.109   9.608   0.021 -0.3920 -0.2513  0.6967
  621MOL0     C81888   6.223   9.708   0.345  0.4670  0.1890 -0.9325
  621MOL0     C81889   6.334   9.737   0.422  0.1256  0.0661  0.8086
  621MOL0     N81890   7.007   9.249   0.745 -0.6326 -0.1227 -0.1803
  621MOL0     N81891   7.104   9.170   0.710 -0.4853  0.3850  0.6148
  621MOL0     C81892   7.776   8.355   0.778 -1.0551  0.3564 -0.4107
  621MOL0     C81893   7.882   8.303   0.864  0.9420 -0.3316  0.4625
  621MOL0     C81894   8.248   8.378   1.114 -0.7004 -0.0900  0.5475
  621MOL0     C81895   8.358   8.290   1.092 -0.5345  0.6633 -0.2198
  621MOL0     C81896   8.480   8.303   1.169  0.0346 -0.1306 -0.3951
  621MOL0     C81897   8.483   8.368   1.292 -1.0623  0.2634  0.5749
  621MOL0     O81898   8.587   8.342   1.381 -0.3482  0.0220  0.7635
  621MOL0     C81899   8.612   8.432   1.492  0.1348 -0.3656  0.1377
  621MOL0     C81900   8.622   8.576   1.449  0.5281 -0.2944 -0.5267
  621MOL0     C81901   8.718   8.650   1.537  0.3519  0.0211  0.7084
  621MOL0     C81902   8.785   8.764   1.450 -0.1223 -0.4827  0.1518
  621MOL0     C81903   8.696   8.868   1.405  0.4020 -0.7951 -0.4069
  621MOL0     C81904   8.613   8.944   1.355  0.0174  0.5021 -0.2380
  621MOL0     C81905   8.372   8.441   1.326  0.5659 -1.0508  0.5048
  621MOL0     C81906   8.261   8.456   1.231  0.1194  0.9337  0.5106
  621MOL0     H81907   8.140   8.460   0.697  1.0194 -1.0006 -0.5673
  621MOL0     H81908   7.966   8.533   0.562 -0.7601 -0.5297 -1.5368
  621MOL0     H81909   7.771   8.437   0.404 -0.0673 -1.0269  0.9417
  621MOL0     H81910   7.768   8.607   0.477 -2.3001  0.8815  3.2809
  621MOL0     H81911   7.528   8.451   0.393 -1.0762  1.2053 -1.0046
  621MOL0     H81912   7.623   8.563   0.283  0.1544  0.0457  0.5877
  621MOL0     H81913   7.570   8.733   0.471 -1.0156  0.3265  0.5056
  621MOL0     H81914   7.439   8.625   0.520 -0.4206  1.8753 -0.2753
  621MOL0     H81915   7.470   8.757   0.246 -3.3316  1.2540 -0.3760
  621MOL0     H81916   7.371   8.618   0.266 -0.3447 -0.0762  0.5227
  621MOL0     H81917   7.238   8.744   0.436  2.7371 -1.3303  1.4488
  621MOL0     H81918   7.238   8.817   0.275 -1.3195  0.2377  0.8717
  621MOL0     H81919   7.429   8.966   0.355 -0.2047  0.5501  1.1235
  621MOL0     H81920   7.394   8.899   0.516  0.0538 -1.7756  0.6806
  621MOL0     H81921   7.287   9.122   0.446  1.0633 -0.5976 -3.4605
  621MOL0     H81922   7.173   9.039   0.352  1.8900 -0.5035 -1.2678
  621MOL0     H81923   7.207   8.945   0.628  0.5681 -5.7781 -3.2662
  621MOL0     H81924   7.070   8.907   0.515 -1.1165  1.4736 -4.7607
  621MOL0     H81925   6.886   9.116   0.468  1.6659 -1.6087 -0.3344
  621MOL0     H81926   6.771   9.363   0.744  1.8086 -0.5084  0.7195
  621MOL0     H81927   6.703   9.282   0.607 -0.1147 -0.6386  2.5770
  621MOL0     H81928   6.836   9.444   0.450 -0.8111 -2.4989  0.4191
  621MOL0     H81929   6.892   9.520   0.596  3.2860 -1.7612 -3.3604
  621MOL0     H81930   6.583   9.494   0.556  1.0245 -1.3585  3.6098
  621MOL0     H81931   6.670   9.627   0.632 -2.8548 -0.6594  0.9560
  621MOL0     H81932   6.671   9.585   0.328  1.3832  1.4572 -1.5586
  621MOL0     H81933   6.765   9.699   0.425 -0.2381 -1.0622  0.8635
  621MOL0     H81934   6.554   9.714   0.178  1.4113  0.1068  1.9116
  621MOL0     H81935   6.346   9.600   0.050 -1.0805 -0.1085 -0.5553
  621MOL0     H81936   5.754   9.721   0.306  0.7882 -0.5318 -0.0470
  621MOL0     H81937   5.533   9.667   0.220 -0.5239  1.3772 -2.7250
  621MOL0     H81938   5.504   9.440  -0.155 -2.4881 -2.2759  0.2078
  621MOL0     H81939   5.480   9.616  -0.140  2.4300 -0.8610  0.8004
  621MOL0     H81940   5.280   9.567  -0.231 -1.4665  1.2434  2.3211
  621MOL0     H81941   5.253   9.577  -0.060  3.2041  2.4448  1.1275
  621MOL0     H81942   5.140   9.403  -0.166  0.3387  0.3543  1.1030
  621MOL0     H81943   5.226   9.338  -0.030  1.4590 -2.8055 -0.9632
  621MOL0     H81944   5.304   9.317  -0.328 -0.3643  0.6836 -0.5302
  621MOL0     H81945   5.406   9.255  -0.180 -1.7339 -2.2722  0.3268
  621MOL0     H81946   5.133   9.148  -0.287 -1.8771  1.9116  3.1285
  621MOL0     H81947   5.192   9.130  -0.127 -3.1547 -2.7934 -1.0808
  621MOL0     H81948   5.408   9.018  -0.222 -0.8048  0.6002  0.5582
  621MOL0     H81949   5.320   9.005  -0.379  1.1883 -0.1740 -1.0623
  621MOL0     H81950   5.292   8.802  -0.248 -1.7050 -1.4021 -1.1959
  621MOL0     H81951   5.183   8.878  -0.139  0.4892 -0.8817 -0.4075
  621MOL0     H81952   5.037   8.946  -0.339  0.8685  1.5504 -3.0551
  621MOL0     H81953   5.061   8.787  -0.295  3.2311 -1.2566 -0.1104
  621MOL0     H81954   5.692   9.409  -0.080 -1.3968  3.0865 -1.3654
  621MOL0     H81955   5.923   9.451   0.017  1.9825  0.7874  2.2212
  621MOL0     H81956   6.130   9.740   0.391  0.6724 -0.5284  0.0233
  621MOL0     H81957   6.341   9.789   0.517  2.9439  2.6293 -0.6286
  621MOL0     H81958   7.674   8.335   0.808  0.0150  0.8010  4.3602
  621MOL0     H81959   7.862   8.244   0.953  0.5768  2.0140  2.0193
  621MOL0     H81960   8.353   8.231   1.001  2.0795  3.0960 -2.1117
  621MOL0     H81961   8.570   8.250   1.140 -0.0364 -0.0496 -0.7658
  621MOL0     H81962   8.703   8.388   1.535  1.3944  2.9625  1.1605
  621MOL0     H81963   8.540   8.439   1.574  1.6848  2.3933  1.4071
  621MOL0     H81964   8.645   8.586   1.342 -0.3960  1.2813 -0.6082
  621MOL0     H81965   8.530   8.633   1.461  0.2455 -0.4247 -1.8885
  621MOL0     H81966   8.797   8.578   1.558  1.1289  1.2501  2.2094
  621MOL0     H81967   8.678   8.702   1.625  5.2475 -0.1010  3.3216
  621MOL0     H81968   8.876   8.807   1.494 -1.6045  0.7725  2.1635
  621MOL0     H81969   8.827   8.727   1.356  0.5050  0.4847  0.0332
  621MOL0     H81970   8.552   9.028   1.330  0.1666  0.9001  0.7218
  621MOL0     H81971   8.355   8.484   1.424  0.3208 -1.6785  0.7405
  621MOL0     H81972   8.171   8.512   1.257 -0.0845  1.2806 -0.8895
  622MOL0     O81973   4.799   6.443   4.491  0.3134  0.8111  0.2012
  622MOL0     C81974   4.783   6.384   4.383  0.6567 -0.0624 -0.6699
  622MOL0     O81975   4.664   6.369   4.326  0.2571  0.6509 -0.2862
  622MOL0     C81976   4.547   6.419   4.371 -0.6378 -0.1342 -0.0806
  622MOL0     C81977   4.452   6.466   4.275  1.3924 -0.3622 -0.0842
  622MOL0     C81978   4.337   6.523   4.318 -0.2179 -0.0513  0.5664
  622MOL0     C81979   4.296   6.525   4.443  0.0600  0.1915  0.2146
  622MOL0     O81980   4.182   6.598   4.465 -0.1906  0.0448  0.5618
  622MOL0     C81981   4.085   6.534   4.536 -0.2714 -0.2762  0.0797
  622MOL0     C81982   4.057   6.627   4.658  0.0895 -0.3704  0.4056
  622MOL0     C81983   4.149   6.605   4.775  1.0115 -0.9123 -0.5028
  622MOL0     C81984   4.114   6.694   4.891 -0.7298  0.1377 -0.2631
  622MOL0     C81985   4.136   6.846   4.878  0.5632 -0.0431  0.4629
  622MOL0     C81986   4.280   6.875   4.864 -1.1517  0.1676 -0.0478
  622MOL0     C81987   4.321   7.016   4.913  0.3767  0.0739 -0.0238
  622MOL0     C81988   4.470   7.055   4.938  0.4715  0.6220 -0.2999
  622MOL0     N81989   4.485   7.196   4.900 -0.3919 -0.2111  0.2773
  622MOL0     C81990   4.428   7.298   4.966 -0.3510 -0.6958  1.0990
  622MOL0     C81991   4.443   7.403   4.886  1.4946  0.3679 -0.5092
  622MOL0     C81992   4.411   7.546   4.921 -0.0838 -0.3757  0.1083
  622MOL0     C81993   4.503   7.598   5.033  0.1626  0.4157  0.8771
  622MOL0     C81994   4.448   7.727   5.097  0.2228  0.4865 -0.1846
  622MOL0     C81995   4.551   7.802   5.183  0.2228  0.5476 -0.5963
  622MOL0     O81996   4.596   7.717   5.292  0.7502 -0.1846  0.6728
  622MOL0     C81997   4.730   7.744   5.330 -0.1103 -0.1989  0.0383
  622MOL0     C81998   4.834   7.664   5.279 -0.3857 -0.1779 -1.0725
  622MOL0     C81999   4.964   7.687   5.331  1.2467 -0.4974 -0.2364
  622MOL0     C82000   4.990   7.785   5.434  0.0055  0.1452 -0.4603
  622MOL0     C82001   5.120   7.806   5.503 -0.3093  0.1663  0.4148
  622MOL0     O82002   5.224   7.754   5.452 -0.0885 -0.2238 -0.0167
  622MOL0     C82003   5.329   7.730   5.542 -0.0626 -0.3115 -0.0960
  622MOL0     C82004   5.348   7.604   5.597  0.1703 -0.3648 -0.0609
  622MOL0     C82005   5.438   7.592   5.704 -0.3800 -0.4520 -0.6348
  622MOL0     C82006   5.496   7.703   5.767  0.1142 -0.2954  0.3381
  622MOL0     O82007   5.562   7.706   5.888  0.3569  0.0733  0.6818
  622MOL0     C82008   5.548   7.591   5.976 -0.4165  0.1548  0.6870
  622MOL0     C82009   5.590   7.631   6.122  0.4071  0.1848 -0.3151
  622MOL0     C82010   5.636   7.518   6.211  0.4084 -0.0037  0.1361
  622MOL0     C82011   5.625   7.561   6.363 -0.6830  0.4978  0.2389
  622MOL0     C82012   5.645   7.428   6.442  0.6296 -0.9331 -0.1482
  622MOL0     C82013   5.635   7.443   6.584 -0.3816 -1.1988 -0.2981
  622MOL0     C82014   5.740   7.543   6.636 -0.4655 -0.7510 -0.5998
  622MOL0     C82015   5.878   7.489   6.646 -0.1865 -0.5300 -0.3813
  622MOL0    Cl82016   5.896   7.374   6.788 -0.3875 -0.2407  0.7352
  622MOL0     C82017   5.486   7.823   5.697  0.0529  0.3354 -0.5283
  622MOL0     C82018   5.407   7.829   5.587  0.8807  0.0615 -0.1128
  622MOL0     O82019   5.121   7.876   5.604  0.0412 -0.1929  0.8030
  622MOL0     C82020   4.878   7.852   5.485  0.5301  0.8585 -0.5188
  622MOL0     C82021   4.747   7.832   5.437  0.0770 -0.9715  0.4380
  622MOL0     N82022   4.524   7.357   4.777  0.7267  0.3225 -0.3189
  622MOL0     N82023   4.542   7.231   4.781 -0.4766 -0.8920 -0.2911
  622MOL0     C82024   4.391   6.488   4.550  0.1520 -0.1581 -0.7325
  622MOL0     C82025   4.510   6.438   4.509  0.3290 -0.5687  0.5502
  622MOL0     C82026   4.913   6.338   4.316  0.2113 -0.7126 -0.3763
  622MOL0     C82027   5.044   6.377   4.359 -0.5846 -0.1107  0.0394
  622MOL0     C82028   5.154   6.324   4.283  0.8318 -0.1027  0.2098
  622MOL0     C82029   5.141   6.248   4.166 -0.6482  0.4044  0.0740
  622MOL0     O82030   5.259   6.225   4.094 -0.0932  0.1012 -0.6699
  622MOL0     C82031   5.256   6.136   3.982 -0.7221 -0.3916 -0.1426
  622MOL0     C82032   5.270   5.981   4.012 -0.4936 -0.4030 -0.9279
  622MOL0     C82033   5.288   5.897   3.886  0.4391  0.6361  0.2663
  622MOL0     C82034   5.271   5.738   3.908  0.0919  0.4988  0.2408
  622MOL0     C82035   5.279   5.672   3.776  0.6246  0.4645  0.6016
  622MOL0     C82036   5.277   5.600   3.679  0.8178  0.0839  1.5174
  622MOL0     C82037   5.014   6.211   4.124  1.1977 -0.2467 -0.3508
  622MOL0     C82038   4.901   6.258   4.200  0.7473 -0.0893  1.1259
  622MOL0     H82039   4.477   6.460   4.170  0.6618 -1.5535 -0.2150
  622MOL0     H82040   4.273   6.563   4.239  1.7546 -0.5648 -1.3939
  622MOL0     H82041   4.110   6.433   4.571 -2.9066 -0.9452  0.2536
  622MOL0     H82042   3.996   6.524   4.473 -0.6383 -3.0605  0.8856
  622MOL0     H82043   3.956   6.603   4.694 -0.0204 -0.2899  0.1570
  622MOL0     H82044   4.045   6.731   4.624 -1.6491 -0.0135  1.9377
  622MOL0     H82045   4.252   6.631   4.748  1.8366 -0.4003  2.7142
  622MOL0     H82046   4.142   6.500   4.804  1.5010 -1.4010 -2.0320
  622MOL0     H82047   4.008   6.685   4.918 -0.7074 -1.0317 -0.5350
  622MOL0     H82048   4.179   6.660   4.972 -2.7415 -1.2199  0.8789
  622MOL0     H82049   4.095   6.895   4.966  0.4566 -0.8753  0.8805
  622MOL0     H82050   4.078   6.877   4.790 -0.3953  0.2726  1.1963
  622MOL0     H82051   4.301   6.853   4.759 -1.9888 -0.3647 -0.1139
  622MOL0     H82052   4.332   6.801   4.926 -0.9318 -0.0640 -0.5009
  622MOL0     H82053   4.295   7.077   4.827 -0.0115 -1.5137 -1.0656
  622MOL0     H82054   4.264   7.038   5.004  0.0570  1.1419 -0.4679
  622MOL0     H82055   4.531   6.996   4.869  0.6392  2.6877 -2.0326
  622MOL0     H82056   4.490   7.043   5.045  1.5706  0.2824 -0.5302
  622MOL0     H82057   4.387   7.294   5.066 -0.6765 -1.2474  0.9481
  622MOL0     H82058   4.312   7.549   4.969  0.5202  2.1163  1.3693
  622MOL0     H82059   4.398   7.610   4.834 -1.8572 -0.8868 -0.0442
  622MOL0     H82060   4.597   7.624   4.984 -0.5648  3.8957  1.0690
  622MOL0     H82061   4.515   7.526   5.114 -1.6656  1.1029  1.8288
  622MOL0     H82062   4.408   7.786   5.014  2.3522 -0.6072 -2.1139
  622MOL0     H82063   4.374   7.681   5.164  0.5680 -1.4953 -1.0924
  622MOL0     H82064   4.501   7.881   5.240 -1.8409 -3.2960  3.4501
  622MOL0     H82065   4.630   7.839   5.117 -1.7752  2.0948 -2.2391
  622MOL0     H82066   4.817   7.580   5.212  0.7140 -1.1313 -0.1886
  622MOL0     H82067   5.040   7.612   5.310  0.4197 -1.3744 -0.1576
  622MOL0     H82068   5.288   7.516   5.579  0.3748 -0.8220  1.3487
  622MOL0     H82069   5.446   7.497   5.756  0.4140 -0.5870 -1.0006
  622MOL0     H82070   5.608   7.506   5.945  1.9254  1.3852  1.6167
  622MOL0     H82071   5.444   7.557   5.984 -0.6019  0.6334  0.3907
  622MOL0     H82072   5.497   7.668   6.167 -0.4925 -2.3532  0.0999
  622MOL0     H82073   5.665   7.710   6.129  0.7944 -0.3329  2.4169
  622MOL0     H82074   5.741   7.494   6.189  0.3868  0.3963 -0.4318
  622MOL0     H82075   5.575   7.430   6.186  0.9660 -0.5966  0.8133
  622MOL0     H82076   5.702   7.632   6.396  0.5112 -1.0234  0.8344
  622MOL0     H82077   5.525   7.601   6.383  0.2580  3.4179 -0.3564
  622MOL0     H82078   5.737   7.373   6.421  1.3337  0.1002  0.1882
  622MOL0     H82079   5.562   7.361   6.416  0.0590  0.1818 -1.2752
  622MOL0     H82080   5.652   7.345   6.630 -0.7971 -0.4001  1.6478
  622MOL0     H82081   5.541   7.487   6.618  0.9708  2.3781 -0.8516
  622MOL0     H82082   5.740   7.645   6.596  1.3766 -1.1036 -1.5954
  622MOL0     H82083   5.707   7.558   6.739  0.2214 -2.1151 -0.1500
  622MOL0     H82084   5.954   7.568   6.648  0.3479 -0.9025 -3.0040
  622MOL0     H82085   5.896   7.436   6.552 -0.6753  1.0486 -1.4014
  622MOL0     H82086   5.529   7.918   5.727 -0.9785  0.9002 -0.7722
  622MOL0     H82087   5.394   7.925   5.538  0.6364  0.1279  0.0767
  622MOL0     H82088   4.886   7.926   5.564 -0.1836  0.4141 -0.0117
  622MOL0     H82089   4.668   7.895   5.475  3.2404  3.1223  0.9075
  622MOL0     H82090   4.366   6.490   4.655  0.1465  3.3233 -0.6948
  622MOL0     H82091   4.577   6.427   4.593 -0.7192  0.5840  1.5737
  622MOL0     H82092   5.078   6.423   4.451  0.3649 -2.4260  0.8994
  622MOL0     H82093   5.254   6.361   4.300  0.8607  1.4656 -2.8854
  622MOL0     H82094   5.334   6.158   3.908  0.1475  0.8294  1.0886
  622MOL0     H82095   5.161   6.156   3.931 -1.6380  0.2738  1.7294
  622MOL0     H82096   5.362   5.962   4.068  0.3089  0.4382 -1.9126
  622MOL0     H82097   5.176   5.938   4.047 -1.8495  0.4207 -3.3140
  622MOL0     H82098   5.381   5.922   3.836 -1.2432  3.5680 -1.6989
  622MOL0     H82099   5.203   5.912   3.819  2.5839  2.9611 -2.1624
  622MOL0     H82100   5.353   5.695   3.966  3.2911  2.0929 -2.7517
  622MOL0     H82101   5.177   5.711   3.958  0.7487 -0.4001  1.0352
  622MOL0     H82102   5.255   5.539   3.594  1.5962  0.3945  1.0900
  622MOL0     H82103   4.988   6.157   4.034  2.9519 -0.6204 -0.6607
  622MOL0     H82104   4.803   6.226   4.166 -1.8767  4.0860  3.8140
  623MOL0     O82105   4.133   2.649   9.146  0.3763  0.4666  0.8514
  623MOL0     C82106   4.167   2.596   9.253 -0.4144 -0.3678 -0.2321
  623MOL0     O82107   4.190   2.464   9.272 -0.1019 -0.3762 -0.0089
  623MOL0     C82108   4.150   2.370   9.187 -0.2458 -0.5153 -0.6221
  623MOL0     C82109   4.019   2.306   9.188  0.8151 -0.4530  0.3041
  623MOL0     C82110   3.981   2.206   9.095 -0.5271 -0.0336  0.2459
  623MOL0     C82111   4.087   2.157   9.013  0.1039  0.6978 -0.5978
  623MOL0     O82112   4.085   2.050   8.928  0.0722  0.5841 -0.0857
  623MOL0     C82113   3.996   1.938   8.961  0.2686 -0.5010  0.6734
  623MOL0     C82114   3.974   1.852   8.831 -0.2988  0.1329  0.8740
  623MOL0     C82115   3.914   1.927   8.724 -0.3291  0.3268  1.0141
  623MOL0     C82116   3.851   1.830   8.619 -0.4124 -0.3146 -1.0089
  623MOL0     C82117   3.748   1.903   8.537 -0.3786  1.1292  0.4601
  623MOL0     C82118   3.750   1.860   8.389  0.9209 -1.1190 -0.2418
  623MOL0     C82119   3.707   1.718   8.353 -0.1784 -0.4640 -0.8417
  623MOL0     C82120   3.610   1.700   8.240 -0.3474  0.7266 -0.3427
  623MOL0     N82121   3.543   1.564   8.248  0.7011 -1.4271 -0.1900
  623MOL0     C82122   3.602   1.457   8.177  0.1969 -0.5051 -0.5345
  623MOL0     C82123   3.502   1.371   8.150 -0.3908 -0.5999 -0.1260
  623MOL0     C82124   3.502   1.258   8.055 -0.5500  0.4240  0.2578
  623MOL0     C82125   3.631   1.248   7.973  0.2631  0.5886  0.3153
  623MOL0     C82126   3.630   1.119   7.897 -0.3015 -0.0144 -0.4240
  623MOL0     C82127   3.746   1.077   7.797  0.0260  0.3279  0.1333
  623MOL0     O82128   3.872   1.074   7.873  0.1077 -0.4375  0.3003
  623MOL0     C82129   3.915   0.947   7.895  0.0579  0.1912  0.7088
  623MOL0     C82130   3.944   0.856   7.796 -0.5627  0.2471 -0.5496
  623MOL0     C82131   3.984   0.721   7.820 -0.1213 -0.1734  0.0314
  623MOL0     C82132   4.023   0.681   7.949 -0.0809 -0.1035 -1.0557
  623MOL0     C82133   4.100   0.557   7.983 -0.2502 -0.2182  0.0357
  623MOL0     O82134   4.138   0.540   8.109  0.3139 -0.0453 -0.4115
  623MOL0     C82135   4.195   0.430   8.166  0.1448  0.1315  0.5956
  623MOL0     C82136   4.197   0.302   8.101 -0.5730  0.5835 -1.0011
  623MOL0     C82137   4.257   0.188   8.156  0.6022 -0.0205  0.1278
  623MOL0     C82138   4.316   0.196   8.288 -0.5399 -0.3775  0.9151
  623MOL0     O82139   4.396   0.112   8.346  0.6090  1.2119 -0.3984
  623MOL0     C82140   4.414  -0.020   8.297 -0.1543  0.8069  0.4903
  623MOL0     C82141   4.332  -0.104   8.392 -0.0323 -0.1438 -0.5086
  623MOL0     C82142   4.306  -0.237   8.324  0.1258 -0.0496 -0.2703
  623MOL0     C82143   4.179  -0.301   8.391 -1.0356  0.5491 -0.4971
  623MOL0     C82144   4.150  -0.447   8.360  0.2382 -1.0590  1.1924
  623MOL0     C82145   4.045  -0.506   8.449 -0.0492  0.0069  0.8676
  623MOL0     C82146   3.985  -0.635   8.403  0.3736  0.1564  0.3029
  623MOL0     C82147   4.070  -0.742   8.341 -0.1872  0.2159 -0.0013
  623MOL0    Cl82148   4.216  -0.792   8.458  0.3738  0.3011 -0.0862
  623MOL0     C82149   4.311   0.325   8.356  0.2864  0.4602 -0.8032
  623MOL0     C82150   4.261   0.438   8.288  0.5307  0.5198  0.1005
  623MOL0     O82151   4.137   0.484   7.888  0.8787 -0.3541  0.1232
  623MOL0     C82152   3.999   0.777   8.057 -0.4163 -0.1828 -0.2368
  623MOL0     C82153   3.952   0.911   8.025  0.0936 -0.0817  0.2050
  623MOL0     N82154   3.393   1.426   8.206  0.3533  0.3029  1.0351
  623MOL0     N82155   3.415   1.537   8.258  0.2057 -0.0112  0.7391
  623MOL0     C82156   4.212   2.217   9.004  0.3346 -0.0535 -0.3708
  623MOL0     C82157   4.241   2.317   9.100 -0.3592  0.1570 -0.5703
  623MOL0     C82158   4.194   2.691   9.360  0.3439  1.1520 -0.4274
  623MOL0     C82159   4.139   2.818   9.362  0.3156 -0.0583  0.1662
  623MOL0     C82160   4.164   2.903   9.468  0.2376  1.1722 -0.4054
  623MOL0     C82161   4.246   2.855   9.574 -1.2522 -0.4995  0.7926
  623MOL0     O82162   4.291   2.939   9.676  1.2442 -0.6619 -0.6906
  623MOL0     C82163   4.185   2.985   9.768  0.7240  0.0623  0.1035
  623MOL0     C82164   4.233   3.036   9.896 -0.7721 -0.1619  0.2981
  623MOL0     C82165   4.354   3.134   9.889  0.2651 -0.8328 -0.0313
  623MOL0     C82166   4.310   3.273   9.827  0.4804 -0.2228 -1.0677
  623MOL0     C82167   4.427   3.353   9.852 -0.1357 -0.2698 -0.4638
  623MOL0     C82168   4.525   3.426   9.875 -0.0832 -0.5369  1.0697
  623MOL0     C82169   4.300   2.728   9.579  0.6255 -0.1958  0.1782
  623MOL0     C82170   4.270   2.638   9.473  0.0411  0.1077  0.3184
  623MOL0     H82171   3.937   2.334   9.253  2.1315  3.6027  0.4698
  623MOL0     H82172   3.884   2.158   9.089 -1.6976  1.8179  2.5996
  623MOL0     H82173   3.897   1.971   8.993  0.5449 -0.4031  1.4357
  623MOL0     H82174   4.039   1.883   9.045  2.1553  1.8531  1.3789
  623MOL0     H82175   3.920   1.766   8.871  0.9811 -0.8855  0.4664
  623MOL0     H82176   4.071   1.807   8.806 -0.9171 -0.0719 -1.3167
  623MOL0     H82177   3.992   1.986   8.676 -0.2574 -1.2880 -1.0110
  623MOL0     H82178   3.835   1.992   8.763 -0.6813  0.4337  0.1445
  623MOL0     H82179   3.920   1.771   8.557 -0.1668 -0.6878 -0.3865
  623MOL0     H82180   3.791   1.753   8.668 -0.4605 -0.4463 -1.2697
  623MOL0     H82181   3.773   2.010   8.530  0.7064  0.9741  1.5534
  623MOL0     H82182   3.648   1.903   8.580 -0.9789  3.2351 -0.7797
  623MOL0     H82183   3.853   1.882   8.358  1.2120  2.6529  2.6809
  623MOL0     H82184   3.685   1.934   8.342 -0.3533 -0.8613  1.8210
  623MOL0     H82185   3.798   1.658   8.340  0.9773  0.6303  1.5675
  623MOL0     H82186   3.659   1.683   8.445 -0.6339 -1.0877 -1.3075
  623MOL0     H82187   3.663   1.709   8.145  1.4988 -1.0054  0.4576
  623MOL0     H82188   3.533   1.778   8.245 -1.4941 -0.3135 -1.4361
  623MOL0     H82189   3.707   1.437   8.161  0.8065 -0.9654  3.0987
  623MOL0     H82190   3.414   1.270   7.991  0.2890  1.2670 -0.7708
  623MOL0     H82191   3.493   1.178   8.129  2.0023 -0.9847 -0.8435
  623MOL0     H82192   3.716   1.266   8.040  1.2852 -0.5595 -0.6189
  623MOL0     H82193   3.629   1.327   7.897  1.7703  0.6071  0.2511
  623MOL0     H82194   3.612   1.030   7.958 -3.2205 -1.2312 -2.7851
  623MOL0     H82195   3.538   1.126   7.838  1.0646  1.4992 -2.4981
  623MOL0     H82196   3.748   1.159   7.724  1.9833 -0.3359 -0.6244
  623MOL0     H82197   3.716   0.986   7.745 -2.5186 -0.5535  2.8550
  623MOL0     H82198   3.932   0.884   7.692 -3.1685 -3.1249 -1.3338
  623MOL0     H82199   3.995   0.663   7.729 -1.0302  0.7928 -0.7173
  623MOL0     H82200   4.156   0.289   8.002  0.7603  0.1061 -1.5070
  623MOL0     H82201   4.271   0.095   8.101  1.8754 -0.8075  1.7133
  623MOL0     H82202   4.519  -0.048   8.300 -0.1270  0.4296 -1.7556
  623MOL0     H82203   4.384  -0.027   8.192 -1.7889  0.3307  0.9510
  623MOL0     H82204   4.234  -0.059   8.409 -0.9576 -2.8327  2.2984
  623MOL0     H82205   4.391  -0.116   8.484  2.5672 -0.2327 -2.0780
  623MOL0     H82206   4.391  -0.306   8.327 -1.5245 -2.2361 -0.8609
  623MOL0     H82207   4.280  -0.213   8.220 -2.6968 -0.1717  0.3484
  623MOL0     H82208   4.188  -0.295   8.500 -2.5548  2.1305 -0.4071
  623MOL0     H82209   4.095  -0.234   8.368 -1.3708  0.7858  1.2457
  623MOL0     H82210   4.243  -0.504   8.361 -0.8389 -2.8696  2.0357
  623MOL0     H82211   4.110  -0.449   8.258  1.9335 -2.1778  0.4983
  623MOL0     H82212   3.967  -0.429   8.452  0.3233  0.5557 -1.5155
  623MOL0     H82213   4.091  -0.513   8.548  2.5701 -0.1735 -0.2899
  623MOL0     H82214   3.955  -0.674   8.501  0.4008  2.4333  1.2861
  623MOL0     H82215   3.895  -0.623   8.342  2.1653  2.9180 -2.0520
  623MOL0     H82216   4.100  -0.710   8.241 -1.2751  0.9308 -0.1121
  623MOL0     H82217   4.012  -0.834   8.334 -1.3131  0.8923  0.0761
  623MOL0     H82218   4.376   0.326   8.443  3.6171 -2.8321 -2.8970
  623MOL0     H82219   4.271   0.537   8.331 -0.4734  0.6862 -0.0234
  623MOL0     H82220   4.031   0.755   8.158 -0.6927  0.5094  0.0034
  623MOL0     H82221   3.944   0.994   8.094 -1.7736 -1.2029  1.4213
  623MOL0     H82222   4.273   2.198   8.917 -2.4160  1.7403 -2.8700
  623MOL0     H82223   4.345   2.348   9.103 -0.4808  0.5642  1.7040
  623MOL0     H82224   4.062   2.844   9.290 -1.4920  1.3229  2.4748
  623MOL0     H82225   4.124   3.003   9.474 -1.3722  0.5912 -0.8497
  623MOL0     H82226   4.123   2.897   9.789  1.2086  0.5752  4.6281
  623MOL0     H82227   4.114   3.058   9.728 -0.4736 -0.7298  0.7347
  623MOL0     H82228   4.158   3.085   9.959 -0.1949  1.9937 -0.5992
  623MOL0     H82229   4.273   2.952   9.953  3.3510  2.4062  1.5614
  623MOL0     H82230   4.435   3.089   9.830 -0.4288 -4.4766  1.4884
  623MOL0     H82231   4.383   3.139   9.995 -1.8544  0.3187  0.5445
  623MOL0     H82232   4.293   3.262   9.720 -2.8923  2.7727 -1.0306
  623MOL0     H82233   4.213   3.315   9.856 -0.0114 -2.1716  0.2972
  623MOL0     H82234   4.600   3.503   9.884 -0.9490  0.5761 -0.6027
  623MOL0     H82235   4.354   2.685   9.663 -0.1967 -1.0500  0.2962
  623MOL0     H82236   4.294   2.532   9.478 -1.3423 -0.5338 -3.3170
  624MOL0     O82237   6.892   6.445   8.235  0.2568  0.5757  0.0146
  624MOL0     C82238   6.933   6.329   8.205  0.1297  0.1184  0.6754
  624MOL0     O82239   6.899   6.217   8.263  0.3725  0.4260 -0.4658
  624MOL0     C82240   6.850   6.224   8.395 -0.8583  0.2923 -1.4114
  624MOL0     C82241   6.930   6.197   8.505  1.1182 -0.0796  0.1927
  624MOL0     C82242   6.880   6.203   8.638  0.2944  1.2359 -1.1040
  624MOL0     C82243   6.746   6.243   8.669 -0.5593  0.5407  0.0264
  624MOL0     O82244   6.696   6.252   8.791 -0.1026  0.5546 -0.0779
  624MOL0     C82245   6.684   6.123   8.855 -0.9382  0.4383 -0.8120
  624MOL0     C82246   6.744   6.161   8.991  0.7389  0.0698 -0.3041
  624MOL0     C82247   6.787   6.050   9.086 -0.0382 -0.3738  0.5284
  624MOL0     C82248   6.915   5.982   9.054  0.7891 -1.2852  0.1661
  624MOL0     C82249   6.905   5.843   9.121 -0.8646 -0.5823  1.0864
  624MOL0     C82250   7.031   5.764   9.084  0.8280 -0.1006 -0.6323
  624MOL0     C82251   7.051   5.633   9.171 -0.5907 -0.7283 -0.5741
  624MOL0     C82252   7.063   5.681   9.315 -0.3356  0.6504 -0.6257
  624MOL0     N82253   7.130   5.590   9.412 -0.2104  0.2202  0.6059
  624MOL0     C82254   7.105   5.458   9.442  0.1729  0.2856 -0.2487
  624MOL0     C82255   7.161   5.445   9.567  0.4374 -1.1137  0.0126
  624MOL0     C82256   7.153   5.327   9.667  0.7507  1.1712  0.6475
  624MOL0     C82257   7.252   5.213   9.629 -0.1984 -0.1495  0.1723
  624MOL0     C82258   7.391   5.253   9.688 -0.8460 -0.7261 -0.5283
  624MOL0     C82259   7.463   5.128   9.756  0.6233 -0.8817 -0.1020
  624MOL0     O82260   7.396   5.102   9.883  0.0100  0.6664 -0.0550
  624MOL0     C82261   7.480   5.056   9.980 -0.9803  0.5872  0.0344
  624MOL0     C82262   7.530   4.928   9.953 -0.3412 -0.5196  0.0641
  624MOL0     C82263   7.621   4.865  10.041 -0.5128  0.0385 -0.1787
  624MOL0     C82264   7.650   4.926  10.165 -0.4715 -0.9534  0.5899
  624MOL0     C82265   7.750   4.862  10.256  1.1385 -0.4838 -0.1749
  624MOL0     O82266   7.759   4.920  10.376  0.4035 -0.6977  0.2866
  624MOL0     C82267   7.868   4.895  10.457 -0.2971 -0.1438  0.0532
  624MOL0     C82268   7.902   4.761  10.508  0.2678  0.0574 -0.5511
  624MOL0     C82269   8.018   4.755  10.593  0.2035 -0.2640  0.4577
  624MOL0     C82270   8.090   4.862  10.617 -0.3324  0.2761  0.4712
  624MOL0     O82271   8.193   4.856  10.696 -0.5555  0.3966  0.4990
  624MOL0     C82272   8.187   4.935  10.811 -0.6155 -0.1444  0.3339
  624MOL0     C82273   8.326   4.918  10.876  0.0175  0.8256  0.3048
  624MOL0     C82274   8.357   4.996  10.997 -1.2941 -1.0590 -0.2271
  624MOL0     C82275   8.269   4.948  11.123  0.8002  0.2475 -0.1111
  624MOL0     C82276   8.343   4.991  11.248  0.0543 -0.4214 -0.6757
  624MOL0     C82277   8.368   5.145  11.267  0.3286  0.3384  0.1280
  624MOL0     C82278   8.408   5.193  11.407  0.4829  0.0851  0.7890
  624MOL0     C82279   8.541   5.141  11.456  0.3064 -0.2509 -0.3436
  624MOL0    Cl82280   8.620   5.255  11.583 -0.3684  0.0269 -0.5627
  624MOL0     C82281   8.060   4.984  10.557  0.2588 -0.5203 -0.1726
  624MOL0     C82282   7.960   5.004  10.471 -0.0410 -0.1294 -0.5461
  624MOL0     O82283   7.816   4.767  10.215  0.3445  0.7007  0.2255
  624MOL0     C82284   7.572   5.036  10.201 -0.0278  0.3821 -0.4990
  624MOL0     C82285   7.491   5.103  10.109  0.2318  0.1527 -0.8879
  624MOL0     N82286   7.226   5.555   9.593 -0.3858 -0.3144  0.0855
  624MOL0     N82287   7.222   5.637   9.496  0.5583  0.0616  0.0266
  624MOL0     C82288   6.668   6.288   8.557  0.3865  0.7848  0.0506
  624MOL0     C82289   6.721   6.280   8.423 -0.1243 -0.8014 -0.2131
  624MOL0     C82290   7.030   6.300   8.098 -0.1462  0.4053  0.7782
  624MOL0     C82291   7.106   6.411   8.041 -0.6186  0.2737 -1.0629
  624MOL0     C82292   7.225   6.394   7.965 -0.2642  1.0622 -0.3245
  624MOL0     C82293   7.270   6.266   7.945 -0.6451 -1.2243 -0.5854
  624MOL0     O82294   7.379   6.252   7.872  0.7913  0.1760  0.4778
  624MOL0     C82295   7.452   6.134   7.882  0.2198 -0.1651 -0.0766
  624MOL0     C82296   7.510   6.115   8.029 -0.4833  0.2942  0.4560
  624MOL0     C82297   7.605   6.222   8.057 -0.2888 -0.8650  0.9425
  624MOL0     C82298   7.716   6.197   8.166 -0.2296  0.1039 -0.8903
  624MOL0     C82299   7.673   6.119   8.283 -0.4245 -0.2904  0.6827
  624MOL0     C82300   7.626   6.037   8.354  0.2866 -0.0619  0.5754
  624MOL0     C82301   7.184   6.166   7.978 -0.7267 -1.1102  0.1169
  624MOL0     C82302   7.070   6.174   8.061 -0.2670  0.8332  0.5163
  624MOL0     H82303   7.036   6.183   8.483  1.5262  2.8046 -0.0850
  624MOL0     H82304   6.949   6.177   8.718 -2.4284 -2.0800  0.3839
  624MOL0     H82305   6.745   6.042   8.813 -2.6044 -0.2451 -2.0011
  624MOL0     H82306   6.581   6.089   8.867 -0.4125 -0.2568  3.9927
  624MOL0     H82307   6.670   6.224   9.041 -0.8574 -0.7087 -1.6170
  624MOL0     H82308   6.838   6.214   8.971  1.6036 -0.8792  1.0284
  624MOL0     H82309   6.698   5.986   9.079 -0.6413  0.6208 -3.4212
  624MOL0     H82310   6.813   6.094   9.183 -1.6073  1.3220  0.2453
  624MOL0     H82311   6.923   5.973   8.946 -0.1277 -2.9907  0.2073
  624MOL0     H82312   6.995   6.051   9.084  0.4083  0.0550 -1.7168
  624MOL0     H82313   6.818   5.790   9.080 -0.5169  0.3730 -1.0432
  624MOL0     H82314   6.903   5.868   9.227  1.9601  2.4846  0.5781
  624MOL0     H82315   7.117   5.831   9.085  1.0245 -0.3227 -1.3620
  624MOL0     H82316   7.025   5.728   8.981  2.6330 -1.9896 -0.1392
  624MOL0     H82317   6.972   5.558   9.165  0.8537 -2.2542 -1.7216
  624MOL0     H82318   7.147   5.586   9.147  0.2493  1.2311 -1.2650
  624MOL0     H82319   6.963   5.704   9.353  0.6498  2.9154  0.7978
  624MOL0     H82320   7.117   5.776   9.323  2.4329 -0.9658  3.4011
  624MOL0     H82321   7.055   5.385   9.380  1.8182 -1.1341  0.0241
  624MOL0     H82322   7.050   5.289   9.660  1.9571 -2.9288  2.1731
  624MOL0     H82323   7.158   5.354   9.772 -2.4255  1.2027  0.9002
  624MOL0     H82324   7.270   5.194   9.523  2.1835 -4.1986  1.0798
  624MOL0     H82325   7.210   5.118   9.662  1.4762 -1.3427 -0.9588
  624MOL0     H82326   7.448   5.282   9.600 -4.6427 -0.4719 -3.1486
  624MOL0     H82327   7.386   5.335   9.760 -1.0329 -2.4065  1.4837
  624MOL0     H82328   7.566   5.154   9.779  1.0995 -1.8467 -1.0870
  624MOL0     H82329   7.460   5.039   9.694 -0.1560 -0.4118 -0.7652
  624MOL0     H82330   7.507   4.880   9.858 -1.0799  0.8858 -0.4902
  624MOL0     H82331   7.679   4.780  10.007  0.6934  0.6913  0.1970
  624MOL0     H82332   7.843   4.671  10.496  2.7828 -1.7622 -0.1189
  624MOL0     H82333   8.051   4.661  10.638 -1.1402 -2.8424 -3.3736
  624MOL0     H82334   8.121   4.889  10.885  1.4998 -4.5682 -0.2447
  624MOL0     H82335   8.159   5.039  10.789  0.8042 -0.0085 -1.0331
  624MOL0     H82336   8.404   4.935  10.801 -3.0478 -1.8090 -4.0200
  624MOL0     H82337   8.330   4.812  10.900 -0.6427  0.0340 -2.6320
  624MOL0     H82338   8.345   5.102  10.973  2.6880 -0.3995  0.1138
  624MOL0     H82339   8.461   4.978  11.025 -0.3638  0.6505 -2.3132
  624MOL0     H82340   8.174   5.000  11.111  0.2508 -0.5929  0.4847
  624MOL0     H82341   8.246   4.841  11.119 -0.3850  0.5014 -0.4274
  624MOL0     H82342   8.435   4.936  11.266  0.6675  1.1882  1.6354
  624MOL0     H82343   8.283   4.950  11.330 -0.1620 -1.5155 -1.3621
  624MOL0     H82344   8.272   5.195  11.249 -0.0540 -1.1495 -2.3328
  624MOL0     H82345   8.442   5.194  11.204 -0.3520  4.7103  2.3201
  624MOL0     H82346   8.426   5.300  11.397  1.2681 -0.1310 -0.2881
  624MOL0     H82347   8.329   5.180  11.482 -2.5384  0.6695 -2.0522
  624MOL0     H82348   8.616   5.120  11.379  1.5256  1.2288  0.3815
  624MOL0     H82349   8.531   5.037  11.489 -2.8066  0.0841  0.0709
  624MOL0     H82350   8.124   5.068  10.579 -0.7194  0.1359  0.2661
  624MOL0     H82351   7.939   5.102  10.429 -1.3292 -0.6547 -1.1544
  624MOL0     H82352   7.584   5.074  10.302 -0.1426  0.9535 -0.6995
  624MOL0     H82353   7.431   5.189  10.138 -1.7960 -1.5967  0.4452
  624MOL0     H82354   6.570   6.332   8.573  1.6341  3.0891  1.9409
  624MOL0     H82355   6.650   6.310   8.346 -0.3596 -2.5864 -0.7222
  624MOL0     H82356   7.070   6.513   8.051  0.4264  0.8263 -2.6016
  624MOL0     H82357   7.285   6.476   7.926  0.8808  0.8641  0.9644
  624MOL0     H82358   7.534   6.123   7.810  1.0550 -2.0031  1.0462
  624MOL0     H82359   7.393   6.050   7.845 -0.4426  0.9608 -1.6878
  624MOL0     H82360   7.428   6.120   8.100  0.9562  2.7466  2.0679
  624MOL0     H82361   7.560   6.017   8.027  2.6438  1.7731 -0.8053
  624MOL0     H82362   7.546   6.313   8.071  1.1800  0.2820 -0.0261
  624MOL0     H82363   7.659   6.226   7.962 -2.1567  2.0792 -0.1306
  624MOL0     H82364   7.803   6.159   8.111  0.2378  3.0175 -2.3611
  624MOL0     H82365   7.736   6.298   8.204  0.2987 -0.1622 -0.4518
  624MOL0     H82366   7.616   5.957   8.424 -2.1306 -0.9513 -0.6814
  624MOL0     H82367   7.204   6.076   7.920  3.0354  1.5869 -3.2695
  624MOL0     H82368   7.017   6.085   8.091  1.3239 -0.2331  0.2991
  625MOL0     O82369  10.266   3.969  11.345  0.4243  0.1576  0.1087
  625MOL0     C82370  10.283   3.889  11.258 -0.1178  0.2518  1.1410
  625MOL0     O82371  10.404   3.870  11.191 -0.3827 -0.7375  0.5666
  625MOL0     C82372  10.528   3.921  11.236 -0.2127  0.3566 -0.3258
  625MOL0     C82373  10.549   3.992  11.353 -0.1887  0.4752 -0.1310
  625MOL0     C82374  10.680   4.027  11.381  1.0708  1.2020 -0.7694
  625MOL0     C82375  10.793   3.997  11.303  0.7855 -0.1645 -0.4022
  625MOL0     O82376  10.916   4.045  11.358 -0.3537 -0.2569  0.1902
  625MOL0     C82377  11.044   4.016  11.300  0.1591  0.0671  0.0172
  625MOL0     C82378  11.148   4.070  11.397 -0.8532 -0.0786 -0.0412
  625MOL0     C82379  11.196   3.968  11.502 -0.1669 -0.0241 -0.4894
  625MOL0     C82380  11.279   4.030  11.619  0.0100  1.5077 -0.7414
  625MOL0     C82381  11.350   3.915  11.688  0.8130  0.1224 -0.3175
  625MOL0     C82382  11.449   3.962  11.802  0.7275 -0.4898  0.4281
  625MOL0     C82383  11.560   3.858  11.831  0.5756  0.3243 -0.0570
  625MOL0     C82384  11.514   3.755  11.939  0.3785  0.8167  0.2768
  625MOL0     N82385  11.603   3.638  11.963  0.7524 -0.3679 -1.0987
  625MOL0     C82386  11.641   3.539  11.868 -0.8369 -0.1043 -0.2213
  625MOL0     C82387  11.737   3.466  11.925 -0.2824  0.1492  0.2705
  625MOL0     C82388  11.802   3.340  11.876  0.3252 -2.1553  0.5247
  625MOL0     C82389  11.744   3.209  11.940 -0.2554  1.2154  0.8552
  625MOL0     C82390  11.806   3.090  11.868  0.6044 -0.8218 -0.0369
  625MOL0     C82391  11.808   2.957  11.950  0.1845  0.1091  0.1268
  625MOL0     O82392  11.883   2.845  11.898 -0.8223 -0.8689  1.0743
  625MOL0     C82393  11.902   2.730  11.973 -0.4930  0.3091  0.1781
  625MOL0     C82394  11.951   2.614  11.905  0.6652  0.5387  1.1357
  625MOL0     C82395  11.977   2.497  11.968  0.0051  0.1044 -0.7130
  625MOL0     C82396  11.935   2.484  12.104  0.4270  0.1850 -0.2265
  625MOL0     C82397  11.957   2.350  12.170 -0.4470 -0.2740 -0.9473
  625MOL0     O82398  11.932   2.359  12.306 -0.8593 -0.4030 -0.1116
  625MOL0     C82399  11.984   2.252  12.379 -0.4399 -0.1629 -0.2309
  625MOL0     C82400  12.103   2.269  12.457 -0.0677  0.4719  0.2014
  625MOL0     C82401  12.155   2.176  12.546 -0.7586 -0.1071  0.6257
  625MOL0     C82402  12.094   2.046  12.548  0.5310  0.0840 -0.6709
  625MOL0     O82403  12.148   1.954  12.629  0.1282  0.4826  0.0718
  625MOL0     C82404  12.067   1.836  12.654 -0.5773  0.8900 -0.1279
  625MOL0     C82405  12.140   1.747  12.756 -0.0198 -0.3456  0.0142
  625MOL0     C82406  12.140   1.812  12.897  0.5492 -1.0774  0.1154
  625MOL0     C82407  12.167   1.702  13.003 -0.7456 -0.1987 -1.0219
  625MOL0     C82408  12.191   1.765  13.147 -0.8068 -0.8593  0.2316
  625MOL0     C82409  12.215   1.662  13.251  0.0718  0.2773 -0.0978
  625MOL0     C82410  12.246   1.732  13.380  0.0405 -0.6746  0.0104
  625MOL0     C82411  12.300   1.631  13.475  0.1638  0.5844  0.3111
  625MOL0    Cl82412  12.337   1.714  13.618  0.3885  0.1099  0.1479
  625MOL0     C82413  11.980   2.022  12.456 -0.5639 -0.9546 -0.4911
  625MOL0     C82414  11.917   2.129  12.380  0.2979  0.2243 -0.6672
  625MOL0     O82415  11.996   2.250  12.112 -0.1429  0.0415  0.4764
  625MOL0     C82416  11.898   2.602  12.177 -0.6655 -0.4823 -0.6501
  625MOL0     C82417  11.887   2.719  12.112 -0.2052  0.2236 -0.0939
  625MOL0     N82418  11.758   3.522  12.051 -1.2388  0.8457  1.0182
  625MOL0     N82419  11.691   3.624  12.068  0.2366  0.6124 -0.1141
  625MOL0     C82420  10.763   3.937  11.183 -0.2175  0.8000  0.1075
  625MOL0     C82421  10.637   3.896  11.149  0.4225  0.7595 -0.5239
  625MOL0     C82422  10.165   3.802  11.225 -0.0188 -0.4893  0.4366
  625MOL0     C82423  10.043   3.828  11.270 -0.1487 -0.6872  0.9084
  625MOL0     C82424   9.935   3.750  11.239  0.3746 -0.6437  0.2638
  625MOL0     C82425   9.953   3.627  11.171  0.2098  1.0645 -0.4891
  625MOL0     O82426   9.845   3.540  11.154  0.6578  0.2443 -0.9603
  625MOL0     C82427   9.871   3.412  11.099 -0.4496  0.9804 -0.3815
  625MOL0     C82428   9.742   3.349  11.052 -0.2540 -0.2873 -0.3647
  625MOL0     C82429   9.760   3.204  11.010 -0.2956  1.1587 -0.3487
  625MOL0     C82430   9.635   3.137  10.957 -0.2206  0.0876  0.4868
  625MOL0     C82431   9.590   3.209  10.825  0.2303  0.2862 -0.3361
  625MOL0     C82432   9.547   3.251  10.719 -0.5854 -2.0463 -0.4288
  625MOL0     C82433  10.083   3.586  11.148 -1.0273 -0.3394 -0.2259
  625MOL0     C82434  10.188   3.674  11.172  0.6466 -0.0836  1.0672
  625MOL0     H82435  10.479   4.018  11.431 -2.0996 -1.6875 -0.9831
  625MOL0     H82436  10.693   4.070  11.480 -1.3764 -2.1117  1.2253
  625MOL0     H82437  11.050   4.061  11.200  1.1847 -1.3952 -0.6092
  625MOL0     H82438  11.064   3.910  11.283 -0.2545 -0.2881  1.6240
  625MOL0     H82439  11.111   4.163  11.441 -1.5966  1.1322 -2.9731
  625MOL0     H82440  11.233   4.098  11.333 -1.0423  0.1380 -0.2024
  625MOL0     H82441  11.240   3.885  11.446 -0.4951  0.2789 -1.2140
  625MOL0     H82442  11.108   3.922  11.548  1.6655 -0.7593  2.5519
  625MOL0     H82443  11.352   4.097  11.574  2.0370 -0.7395 -0.9656
  625MOL0     H82444  11.214   4.084  11.689  0.9893  1.9257 -0.1445
  625MOL0     H82445  11.408   3.849  11.623 -2.5757  0.7716 -4.4479
  625MOL0     H82446  11.274   3.862  11.746 -1.1123  2.5896 -0.4286
  625MOL0     H82447  11.403   3.967  11.901  0.7637 -3.5283  0.7031
  625MOL0     H82448  11.475   4.065  11.775 -1.5070 -0.1229 -0.5350
  625MOL0     H82449  11.591   3.806  11.740 -1.1188  1.1142 -1.1377
  625MOL0     H82450  11.651   3.909  11.863  0.6397  0.8046 -0.9719
  625MOL0     H82451  11.428   3.710  11.891  0.0788  1.4182  0.2391
  625MOL0     H82452  11.493   3.800  12.037 -0.1881 -2.1687  1.6227
  625MOL0     H82453  11.610   3.522  11.765  1.1805  2.8278 -1.4750
  625MOL0     H82454  11.908   3.355  11.897  0.1627  0.6134 -0.2238
  625MOL0     H82455  11.789   3.345  11.767  1.4087  4.5583  0.3024
  625MOL0     H82456  11.635   3.210  11.929 -0.1756 -1.1472 -0.5890
  625MOL0     H82457  11.760   3.189  12.047  1.4013 -2.8870 -0.0045
  625MOL0     H82458  11.753   3.093  11.772 -0.2513  4.0659  0.3040
  625MOL0     H82459  11.912   3.111  11.853  0.6481 -2.0370 -1.6563
  625MOL0     H82460  11.708   2.917  11.968  0.3393 -2.0259 -2.9695
  625MOL0     H82461  11.846   2.975  12.051 -0.8399 -0.0486  0.5451
  625MOL0     H82462  11.954   2.614  11.796  0.0505  1.4753  1.1054
  625MOL0     H82463  12.036   2.416  11.926  2.9468 -0.0693  3.2119
  625MOL0     H82464  12.164   2.355  12.432 -2.4325  2.0143 -0.5521
  625MOL0     H82465  12.239   2.190  12.612 -0.8349  1.7668  0.3634
  625MOL0     H82466  12.074   1.784  12.559  0.6375  1.5415 -0.4155
  625MOL0     H82467  11.964   1.854  12.688  0.2320  0.9272  2.5894
  625MOL0     H82468  12.239   1.730  12.712  0.3421 -1.7093  1.2632
  625MOL0     H82469  12.087   1.652  12.748  3.2643 -2.1903 -4.3857
  625MOL0     H82470  12.047   1.867  12.918  0.8207 -0.6077  0.1062
  625MOL0     H82471  12.222   1.884  12.890  0.5279 -0.9389  1.1182
  625MOL0     H82472  12.081   1.635  13.002  0.5039 -2.0177  1.6347
  625MOL0     H82473  12.260   1.646  12.988  0.4594  0.8075  1.8509
  625MOL0     H82474  12.093   1.809  13.170  0.9765  1.2082  5.4454
  625MOL0     H82475  12.267   1.843  13.148 -1.4036 -0.2342 -0.9200
  625MOL0     H82476  12.304   1.604  13.226 -0.7907 -0.3087 -1.9518
  625MOL0     H82477  12.132   1.592  13.262  2.1820 -2.0789  2.9056
  625MOL0     H82478  12.324   1.808  13.370  1.7885 -2.5725 -2.0873
  625MOL0     H82479  12.153   1.778  13.412  0.8174  1.8546 -1.1529
  625MOL0     H82480  12.390   1.574  13.450  0.6479  0.8084  1.5039
  625MOL0     H82481  12.233   1.547  13.497 -0.4450  1.1218  0.5428
  625MOL0     H82482  11.937   1.922  12.454 -0.9168 -0.8178  0.1055
  625MOL0     H82483  11.828   2.118  12.318  0.5721  1.6869 -1.3662
  625MOL0     H82484  11.865   2.606  12.280  1.8640  1.8404  0.1982
  625MOL0     H82485  11.842   2.800  12.168 -2.8453 -2.2568  1.6506
  625MOL0     H82486  10.834   3.919  11.103  0.4284  1.6384  0.4708
  625MOL0     H82487  10.607   3.860  11.051  0.6136  0.3228 -0.4243
  625MOL0     H82488  10.024   3.921  11.324  3.0301  0.8567 -0.3530
  625MOL0     H82489   9.835   3.784  11.263  0.2701  0.9074 -2.0531
  625MOL0     H82490   9.916   3.356  11.182  2.9537  2.4190 -1.0918
  625MOL0     H82491   9.937   3.405  11.013  0.0880  0.8755  0.0345
  625MOL0     H82492   9.672   3.347  11.135  2.8194 -2.0286  2.4471
  625MOL0     H82493   9.694   3.404  10.971 -0.6671  0.3857  0.3303
  625MOL0     H82494   9.788   3.150  11.101 -1.5135 -0.1961 -0.7504
  625MOL0     H82495   9.840   3.196  10.935  2.3967 -1.9848  2.5266
  625MOL0     H82496   9.643   3.029  10.949 -5.1802 -0.3898 -0.9163
  625MOL0     H82497   9.558   3.135  11.034 -1.2677 -1.3858 -0.5534
  625MOL0     H82498   9.525   3.285  10.620  1.6702  1.6013  0.1419
  625MOL0     H82499  10.111   3.487  11.112  1.6215 -0.1502  1.0620
  625MOL0     H82500  10.290   3.660  11.137  0.1568  0.6313 -0.7153
  626MOL0     O82501   0.032   8.935   3.676 -0.7367  0.0689 -0.6402
  626MOL0     C82502   0.046   9.046   3.636 -0.6511  0.5157  0.3902
  626MOL0     O82503  -0.034   9.112   3.537 -0.5580  0.0042  0.9329
  626MOL0     C82504  -0.150   9.049   3.497  0.1806  0.9749 -0.4942
  626MOL0     C82505  -0.249   8.998   3.586 -1.1240 -0.6683 -0.4216
  626MOL0     C82506  -0.372   8.962   3.541  0.0559 -1.6842  0.1495
  626MOL0     C82507  -0.403   8.977   3.405 -0.1462  0.6177 -0.1941
  626MOL0     O82508  -0.519   8.931   3.344  0.3078 -0.7896 -0.2295
  626MOL0     C82509  -0.616   8.859   3.418  0.6434 -0.8683 -0.6745
  626MOL0     C82510  -0.747   8.817   3.345  0.1207 -0.0729  0.5126
  626MOL0     C82511  -0.717   8.743   3.212  0.1667 -1.5286 -1.0963
  626MOL0     C82512  -0.650   8.610   3.244  0.5884  0.1305  0.3243
  626MOL0     C82513  -0.692   8.506   3.134 -0.1879  0.5138 -0.2639
  626MOL0     C82514  -0.795   8.405   3.189 -0.3269 -0.1609 -0.8694
  626MOL0     C82515  -0.844   8.300   3.085  0.1424  0.4097 -0.5748
  626MOL0     C82516  -0.972   8.354   3.020 -0.1034 -0.2303  0.2328
  626MOL0     N82517  -1.076   8.248   3.021  0.4128 -0.1928  0.6184
  626MOL0     C82518  -1.205   8.292   2.997  0.3454  0.3185 -0.1040
  626MOL0     C82519  -1.285   8.188   3.007 -0.8026 -0.5084 -0.0731
  626MOL0     C82520  -1.428   8.195   2.968  0.0284  0.8245  0.6022
  626MOL0     C82521  -1.467   8.158   2.818  0.3970 -0.2097  0.2556
  626MOL0     C82522  -1.388   8.036   2.748 -1.1073 -0.5418 -0.7814
  626MOL0     C82523  -1.421   8.037   2.593 -0.8646  1.4422 -0.0891
  626MOL0     O82524  -1.376   8.165   2.545 -0.9363 -0.0271  0.2666
  626MOL0     C82525  -1.250   8.147   2.488  0.6691  0.2440  0.7624
  626MOL0     C82526  -1.140   8.181   2.567 -0.9009 -0.6885  0.5209
  626MOL0     C82527  -1.011   8.172   2.527 -0.0807 -0.0042  1.1610
  626MOL0     C82528  -0.987   8.110   2.400 -0.1689  0.5663 -0.1318
  626MOL0     C82529  -0.840   8.109   2.353  0.2231 -0.2554 -0.2534
  626MOL0     O82530  -0.808   8.054   2.230  0.7101 -0.1586 -0.3010
  626MOL0     C82531  -0.688   8.078   2.170  0.1936  0.2151 -0.3293
  626MOL0     C82532  -0.643   7.981   2.076  1.0904 -0.0268  1.5442
  626MOL0     C82533  -0.532   8.005   1.994 -0.0060  0.9559  0.2970
  626MOL0     C82534  -0.455   8.122   2.020  0.0294  1.4247  0.3574
  626MOL0     O82535  -0.327   8.144   1.962  0.8482 -0.2495  0.0409
  626MOL0     C82536  -0.274   8.059   1.851  0.5540 -0.3477 -0.0657
  626MOL0     C82537  -0.147   8.116   1.797 -0.4153  1.1645 -1.1299
  626MOL0     C82538  -0.116   8.069   1.654 -0.8383 -1.0624  0.2217
  626MOL0     C82539   0.016   8.121   1.594 -0.3960 -0.2463  0.7074
  626MOL0     C82540   0.044   8.085   1.453 -0.7250 -0.9154 -0.3324
  626MOL0     C82541   0.151   8.198   1.397 -0.6210 -0.1617 -0.7619
  626MOL0     C82542   0.177   8.183   1.252  0.4488  0.3257  1.2631
  626MOL0     C82543   0.296   8.283   1.222  0.2942 -0.3163 -0.2604
  626MOL0    Cl82544   0.446   8.203   1.257 -0.1523  0.4111 -0.3057
  626MOL0     C82545  -0.501   8.219   2.113  0.1293 -0.6614  0.5652
  626MOL0     C82546  -0.616   8.194   2.182  0.5346 -0.2949  0.3256
  626MOL0     O82547  -0.756   8.146   2.441  0.2159  0.0728  0.0511
  626MOL0     C82548  -1.088   8.071   2.320  0.2701  0.9265  0.3484
  626MOL0     C82549  -1.225   8.101   2.358 -0.1379  0.8476  1.0107
  626MOL0     N82550  -1.203   8.078   3.044 -0.0930  0.2676  0.2460
  626MOL0     N82551  -1.081   8.119   3.047  0.3309 -0.4657 -0.6959
  626MOL0     C82552  -0.314   9.035   3.317 -0.0668  0.2721  0.1873
  626MOL0     C82553  -0.180   9.062   3.357 -0.1557 -0.5942 -0.8843
  626MOL0     C82554   0.160   9.127   3.690 -0.7843  1.0686  0.8771
  626MOL0     C82555   0.227   9.088   3.803 -0.0778  0.4669  0.0435
  626MOL0     C82556   0.318   9.167   3.869 -0.9300  0.0141  0.4722
  626MOL0     C82557   0.364   9.280   3.813  0.6840  0.5338  0.3720
  626MOL0     O82558   0.463   9.352   3.862 -0.0228 -0.3438  0.0017
  626MOL0     C82559   0.554   9.296   3.947 -0.5735  0.4696 -0.7843
  626MOL0     C82560   0.686   9.362   3.922 -0.0920  0.1153 -0.7374
  626MOL0     C82561   0.687   9.490   4.009  0.7910 -0.7053  0.5073
  626MOL0     C82562   0.802   9.589   3.973  0.3776 -0.1739  0.2050
  626MOL0     C82563   0.774   9.667   3.850  0.0261 -0.6603  0.6393
  626MOL0     C82564   0.739   9.733   3.753 -0.5022 -0.4240  0.5905
  626MOL0     C82565   0.289   9.332   3.697  0.3797 -0.4306 -0.1990
  626MOL0     C82566   0.191   9.250   3.633 -1.3188 -0.2595  0.2341
  626MOL0     H82567  -0.226   8.981   3.691  1.6865  2.2707 -0.4153
  626MOL0     H82568  -0.438   8.907   3.607 -2.0218 -0.4502 -0.8110
  626MOL0     H82569  -0.637   8.926   3.502 -0.4061 -2.3871  0.3371
  626MOL0     H82570  -0.578   8.763   3.455 -1.1358 -1.2900  0.1243
  626MOL0     H82571  -0.803   8.904   3.309  0.3060 -0.6896 -1.3809
  626MOL0     H82572  -0.812   8.758   3.410  0.5036 -0.9867  0.0854
  626MOL0     H82573  -0.655   8.807   3.148 -0.6260 -1.2407 -1.5900
  626MOL0     H82574  -0.819   8.733   3.173 -1.6730  1.1563  2.4590
  626MOL0     H82575  -0.545   8.635   3.231  0.1656  0.2936 -4.7184
  626MOL0     H82576  -0.678   8.578   3.345 -0.8188 -2.1094 -0.6999
  626MOL0     H82577  -0.609   8.442   3.102 -0.7258 -0.0626 -0.5315
  626MOL0     H82578  -0.733   8.561   3.049 -1.4031  3.4122  2.0151
  626MOL0     H82579  -0.873   8.453   3.249  0.3408 -2.2693  1.9112
  626MOL0     H82580  -0.744   8.358   3.275 -0.1479  0.7909 -0.4453
  626MOL0     H82581  -0.771   8.265   3.012  1.7233 -1.6670  1.8029
  626MOL0     H82582  -0.860   8.207   3.141  1.9836  1.2932  1.6241
  626MOL0     H82583  -0.947   8.390   2.919  0.5805 -0.7340  0.2196
  626MOL0     H82584  -1.023   8.442   3.061 -0.2873 -0.9123  1.4972
  626MOL0     H82585  -1.238   8.389   2.962 -0.3481  0.0194 -0.3088
  626MOL0     H82586  -1.479   8.290   2.987 -3.1878  0.2011 -3.4113
  626MOL0     H82587  -1.461   8.113   3.034  3.6269 -3.4684 -2.3350
  626MOL0     H82588  -1.441   8.252   2.769  0.9812 -1.8323 -2.7741
  626MOL0     H82589  -1.574   8.137   2.822  0.3430 -0.1408 -0.7122
  626MOL0     H82590  -1.282   8.045   2.772 -1.4470  2.3036  0.0773
  626MOL0     H82591  -1.427   7.944   2.791  1.9806 -1.1888  0.9559
  626MOL0     H82592  -1.530   8.030   2.582 -0.9788  0.4754  1.3733
  626MOL0     H82593  -1.366   7.949   2.558 -1.1446 -0.3766  3.5653
  626MOL0     H82594  -1.135   8.238   2.659 -1.1112 -1.9979  1.3777
  626MOL0     H82595  -0.928   8.203   2.591  1.5444  0.2427 -0.9531
  626MOL0     H82596  -0.693   7.884   2.083  1.2176 -0.0650  1.9992
  626MOL0     H82597  -0.499   7.930   1.923 -2.7119  1.3793 -1.5687
  626MOL0     H82598  -0.345   8.060   1.768  2.1190  0.7064 -1.4514
  626MOL0     H82599  -0.260   7.958   1.892 -0.1767 -1.5679 -2.6148
  626MOL0     H82600  -0.067   8.094   1.868 -0.3548  2.8599 -0.6406
  626MOL0     H82601  -0.156   8.225   1.796  0.5967  1.2993  0.8492
  626MOL0     H82602  -0.200   8.099   1.590 -1.7968  0.0544  1.9266
  626MOL0     H82603  -0.107   7.960   1.653 -1.6487 -1.1677 -2.1892
  626MOL0     H82604   0.006   8.230   1.595  0.7614 -0.0942 -0.7231
  626MOL0     H82605   0.101   8.102   1.660 -0.6043  1.6214  1.5565
  626MOL0     H82606  -0.048   8.098   1.395 -0.1943  1.2031 -0.7904
  626MOL0     H82607   0.080   7.983   1.440 -1.7427 -1.0718 -2.3043
  626MOL0     H82608   0.237   8.168   1.458 -2.9801  0.7144  3.3672
  626MOL0     H82609   0.128   8.301   1.425  1.1424  1.7235 -5.2175
  626MOL0     H82610   0.199   8.080   1.221 -1.0015  0.7918 -1.6348
  626MOL0     H82611   0.091   8.212   1.192 -0.1763 -4.3379 -0.5511
  626MOL0     H82612   0.284   8.375   1.279  0.8843  1.4727 -2.8418
  626MOL0     H82613   0.294   8.300   1.114  1.1271 -3.0690 -0.8055
  626MOL0     H82614  -0.450   8.314   2.123 -0.2277 -0.2872 -0.9092
  626MOL0     H82615  -0.666   8.260   2.252  0.0130  1.5245 -1.6368
  626MOL0     H82616  -1.066   8.017   2.228  0.3818 -1.6133  1.7838
  626MOL0     H82617  -1.310   8.072   2.297  0.8974  0.2196 -0.1798
  626MOL0     H82618  -0.348   9.034   3.214 -2.2060 -2.0428  0.8162
  626MOL0     H82619  -0.106   9.094   3.285  3.7295 -0.8892  2.5845
  626MOL0     H82620   0.194   8.997   3.852 -0.7781  0.9255  0.4494
  626MOL0     H82621   0.368   9.147   3.964 -1.3181  0.9847  0.8865
  626MOL0     H82622   0.583   9.193   3.923  2.5864  0.6005  1.7023
  626MOL0     H82623   0.521   9.300   4.052 -2.3610 -0.2985 -1.2766
  626MOL0     H82624   0.769   9.294   3.946 -2.1919 -1.5994  2.3985
  626MOL0     H82625   0.698   9.382   3.815  0.4166  0.3771 -0.6358
  626MOL0     H82626   0.695   9.461   4.114  0.7033 -2.0982  0.1507
  626MOL0     H82627   0.595   9.548   3.999  2.9960  2.6898 -5.2303
  626MOL0     H82628   0.809   9.659   4.057  0.5468  0.8787 -0.6596
  626MOL0     H82629   0.901   9.542   3.964  1.0296  1.2109 -0.2100
  626MOL0     H82630   0.688   9.784   3.673 -1.5418 -0.8995  0.9449
  626MOL0     H82631   0.311   9.433   3.665 -3.6048  0.9712  0.9037
  626MOL0     H82632   0.146   9.307   3.553  1.5952  2.2724  0.2041
  627MOL0     O82633   0.343   6.531   6.728 -0.8421 -0.5209 -0.3586
  627MOL0     C82634   0.453   6.572   6.678  0.3294  0.7261  0.1098
  627MOL0     O82635   0.574   6.510   6.703  0.3972  0.9768 -0.4391
  627MOL0     C82636   0.577   6.392   6.779 -0.4970 -0.2982  0.3416
  627MOL0     C82637   0.650   6.401   6.892 -0.4765 -0.0908 -0.9816
  627MOL0     C82638   0.651   6.298   6.978  0.1625 -0.7845 -1.0897
  627MOL0     C82639   0.580   6.175   6.959  1.2893 -0.6056 -0.0336
  627MOL0     O82640   0.583   6.082   7.058 -0.0197 -0.0462  0.6527
  627MOL0     C82641   0.527   5.950   7.025  0.1752 -0.2191  1.0165
  627MOL0     C82642   0.545   5.851   7.132  0.5800  0.6109 -0.5540
  627MOL0     C82643   0.686   5.784   7.143  0.2557  0.0048 -0.4045
  627MOL0     C82644   0.695   5.682   7.247 -0.6356 -1.1751  0.4495
  627MOL0     C82645   0.595   5.567   7.219 -1.2053 -0.3809  0.1858
  627MOL0     C82646   0.641   5.443   7.294  0.3193  0.0520 -0.0896
  627MOL0     C82647   0.651   5.463   7.447  0.1926  0.7404  0.5687
  627MOL0     C82648   0.801   5.501   7.471  0.7605  0.1829 -0.8436
  627MOL0     N82649   0.847   5.426   7.584  0.1645  0.0012 -0.4084
  627MOL0     C82650   0.902   5.306   7.574 -0.0645 -0.1364  0.2091
  627MOL0     C82651   0.944   5.272   7.699  0.1788 -0.9935 -0.4507
  627MOL0     C82652   1.042   5.163   7.734  0.0160 -0.2682 -0.3957
  627MOL0     C82653   1.100   5.168   7.874 -0.1065 -0.2314  0.7489
  627MOL0     C82654   1.184   5.044   7.891 -0.4973 -0.2639 -0.7082
  627MOL0     C82655   1.237   5.042   8.040 -0.1147  0.3914 -0.5286
  627MOL0     O82656   1.308   5.167   8.073 -0.4713 -0.5703  0.4978
  627MOL0     C82657   1.360   5.196   8.198  0.4503 -0.3793  0.0839
  627MOL0     C82658   1.380   5.107   8.299 -0.5063  0.3014  0.4963
  627MOL0     C82659   1.438   5.156   8.414  0.1937 -0.9948  0.2303
  627MOL0     C82660   1.474   5.299   8.439  0.1086  1.0148  0.5337
  627MOL0     C82661   1.544   5.334   8.559  0.3248 -0.1155 -0.3635
  627MOL0     O82662   1.581   5.237   8.638 -0.5476  0.0959  0.0400
  627MOL0     C82663   1.612   5.245   8.778 -0.9604  0.4061  0.1979
  627MOL0     C82664   1.633   5.365   8.849 -0.1937  0.1847  0.4312
  627MOL0     C82665   1.647   5.364   8.987 -0.5267  0.2264 -0.4873
  627MOL0     C82666   1.659   5.244   9.053 -0.1126 -0.2729  0.3063
  627MOL0     O82667   1.660   5.227   9.186  0.4371  0.0004 -0.4661
  627MOL0     C82668   1.642   5.347   9.259  0.4274  0.6670 -0.7397
  627MOL0     C82669   1.768   5.417   9.281  0.1944  0.5988  0.1611
  627MOL0     C82670   1.742   5.548   9.359 -1.4281 -0.2920  0.3422
  627MOL0     C82671   1.886   5.623   9.369 -0.6819  0.1772 -0.4985
  627MOL0     C82672   1.984   5.560   9.469 -0.5210  0.1447 -0.6078
  627MOL0     C82673   2.112   5.646   9.491 -0.4521 -0.2506  0.6313
  627MOL0     C82674   2.083   5.770   9.570 -0.1219  0.3175  0.7981
  627MOL0     C82675   2.213   5.846   9.579  0.0928 -0.8383  0.4279
  627MOL0    Cl82676   2.195   6.021   9.597 -0.1169  0.1688 -0.0435
  627MOL0     C82677   1.633   5.124   8.984 -0.4845  0.3431  0.8398
  627MOL0     C82678   1.596   5.121   8.852 -0.6422 -0.3903  0.3721
  627MOL0     O82679   1.569   5.449   8.576 -0.2964  0.0722  0.1956
  627MOL0     C82680   1.438   5.381   8.340  0.2402 -0.1766  0.2426
  627MOL0     C82681   1.387   5.335   8.222  0.5395  0.1904  1.1776
  627MOL0     N82682   0.896   5.367   7.786 -0.5550 -0.0125  0.1048
  627MOL0     N82683   0.834   5.458   7.714  0.4261  1.2245  0.3434
  627MOL0     C82684   0.493   6.171   6.848 -0.0950 -0.0849  0.8406
  627MOL0     C82685   0.495   6.278   6.760  0.3033  0.8775 -0.1646
  627MOL0     C82686   0.457   6.673   6.570 -0.8546 -0.2379 -0.4638
  627MOL0     C82687   0.333   6.741   6.536  0.1721 -0.1079  0.4726
  627MOL0     C82688   0.343   6.842   6.438  0.2669 -0.1009 -1.2530
  627MOL0     C82689   0.460   6.857   6.363  0.4038  1.6980 -0.6219
  627MOL0     O82690   0.464   6.940   6.248  0.3581 -0.5238 -1.6221
  627MOL0     C82691   0.343   6.962   6.179  0.4738  0.9517  0.6751
  627MOL0     C82692   0.347   7.004   6.037 -0.1587  0.4346  0.7075
  627MOL0     C82693   0.398   7.147   6.015 -0.3641 -0.0582  0.3052
  627MOL0     C82694   0.555   7.136   6.018  0.3958  0.6809 -0.5914
  627MOL0     C82695   0.602   7.272   5.996  0.6268 -0.6327 -0.2629
  627MOL0     C82696   0.647   7.385   5.983  0.5397 -0.0130  0.1468
  627MOL0     C82697   0.571   6.778   6.398  0.1299 -1.1911 -0.1138
  627MOL0     C82698   0.577   6.697   6.502 -0.2280  0.4275 -0.0485
  627MOL0     H82699   0.707   6.490   6.918  1.1159 -1.2397 -0.4010
  627MOL0     H82700   0.707   6.300   7.071  0.1689  0.2552 -1.1044
  627MOL0     H82701   0.573   5.905   6.937  0.1897 -1.4379  1.6260
  627MOL0     H82702   0.420   5.963   7.007  0.5200  0.3787 -0.8142
  627MOL0     H82703   0.473   5.770   7.115 -2.5414  3.3223 -1.3752
  627MOL0     H82704   0.529   5.888   7.234  0.2581 -1.4698  0.2070
  627MOL0     H82705   0.768   5.854   7.163 -0.7657  1.4667 -1.2043
  627MOL0     H82706   0.707   5.743   7.044  0.9289  2.8591 -1.5382
  627MOL0     H82707   0.800   5.653   7.237 -0.0625  0.3303  1.6468
  627MOL0     H82708   0.688   5.728   7.346  0.7516 -0.1249  0.0863
  627MOL0     H82709   0.589   5.534   7.115 -1.0160 -0.0475  0.0659
  627MOL0     H82710   0.493   5.594   7.246 -1.1219  0.3004 -0.1535
  627MOL0     H82711   0.732   5.404   7.246 -0.6650 -0.6582 -1.4292
  627MOL0     H82712   0.570   5.367   7.262 -0.3572  0.5258  0.2735
  627MOL0     H82713   0.602   5.554   7.484  2.8239  2.9861 -1.0749
  627MOL0     H82714   0.609   5.373   7.493 -3.7822  0.5693 -2.8699
  627MOL0     H82715   0.815   5.607   7.498 -0.9658  0.5680 -1.3205
  627MOL0     H82716   0.865   5.483   7.384 -0.5460 -2.6453 -1.3059
  627MOL0     H82717   0.939   5.243   7.493 -0.0952  2.2200 -1.7344
  627MOL0     H82718   1.123   5.171   7.660  0.9592 -1.9854  0.3859
  627MOL0     H82719   0.988   5.069   7.722 -0.9254  0.0595  0.9752
  627MOL0     H82720   1.027   5.182   7.955  1.2913  2.3399  1.6837
  627MOL0     H82721   1.165   5.256   7.881  1.2199 -1.3138  4.3917
  627MOL0     H82722   1.133   4.949   7.875 -0.4384 -0.7242  1.5021
  627MOL0     H82723   1.270   5.043   7.824 -0.6380 -0.2529 -0.8896
  627MOL0     H82724   1.312   4.964   8.056 -0.5261 -0.8734 -4.0060
  627MOL0     H82725   1.148   5.039   8.104 -2.2188  1.7335 -3.1858
  627MOL0     H82726   1.373   5.000   8.283  5.0131  0.0361 -2.4334
  627MOL0     H82727   1.465   5.087   8.493 -0.8373  1.4632  2.9265
  627MOL0     H82728   1.612   5.462   8.804 -0.0163  1.2841  2.5849
  627MOL0     H82729   1.639   5.461   9.036 -1.4448  0.7637 -1.6108
  627MOL0     H82730   1.597   5.306   9.351 -2.1029 -1.6660 -2.8262
  627MOL0     H82731   1.559   5.410   9.224 -1.1572 -1.2338 -0.6252
  627MOL0     H82732   1.809   5.440   9.182 -1.8503 -0.6092 -1.0482
  627MOL0     H82733   1.835   5.346   9.330  0.9428  0.7307 -0.6567
  627MOL0     H82734   1.701   5.513   9.454  1.0029 -1.6564  0.9624
  627MOL0     H82735   1.679   5.613   9.298  2.3750  3.2881 -0.1331
  627MOL0     H82736   1.927   5.638   9.269 -2.1686 -0.2056 -1.2086
  627MOL0     H82737   1.867   5.717   9.421  0.5840  0.0605  0.1997
  627MOL0     H82738   2.010   5.463   9.425 -1.6635 -0.6166  0.3449
  627MOL0     H82739   1.926   5.524   9.554 -0.6690 -0.5001 -0.9759
  627MOL0     H82740   2.151   5.672   9.392 -0.2578  0.1612  0.8150
  627MOL0     H82741   2.191   5.579   9.527  0.2752 -0.5843 -1.4305
  627MOL0     H82742   2.006   5.828   9.518  1.0327  0.9450 -0.2545
  627MOL0     H82743   2.046   5.736   9.667  0.6949 -1.0064  0.6715
  627MOL0     H82744   2.281   5.837   9.493  1.0678  2.0744  0.7793
  627MOL0     H82745   2.271   5.831   9.670  1.2670 -0.2707 -0.2046
  627MOL0     H82746   1.642   5.033   9.042  0.0925  0.2528  0.6156
  627MOL0     H82747   1.550   5.038   8.799 -0.1799 -0.0272 -0.6077
  627MOL0     H82748   1.459   5.487   8.354 -0.1279 -0.1433  0.5768
  627MOL0     H82749   1.380   5.409   8.143  4.0676 -1.7323 -1.2154
  627MOL0     H82750   0.424   6.092   6.820  0.9406 -1.2532  1.4746
  627MOL0     H82751   0.424   6.267   6.678  1.6628 -0.9559 -1.1604
  627MOL0     H82752   0.243   6.706   6.586  0.6431 -1.1761  0.6010
  627MOL0     H82753   0.262   6.905   6.403 -0.1164  0.2594  0.2445
  627MOL0     H82754   0.280   7.041   6.222  2.0181  1.3936  2.2692
  627MOL0     H82755   0.283   6.871   6.181 -1.4258  2.1374  0.2945
  627MOL0     H82756   0.409   6.932   5.983 -1.5136  1.2435 -2.0769
  627MOL0     H82757   0.248   6.994   5.993 -0.0435 -0.5751  0.6678
  627MOL0     H82758   0.355   7.209   6.093 -1.3638 -0.3615  0.0052
  627MOL0     H82759   0.366   7.177   5.915 -0.3741 -2.9689 -0.6708
  627MOL0     H82760   0.596   7.098   6.112 -1.7462 -3.3874 -1.1093
  627MOL0     H82761   0.593   7.073   5.937 -0.6461 -1.6416  0.6243
  627MOL0     H82762   0.693   7.479   5.963  0.6936  0.0059  0.5732
  627MOL0     H82763   0.670   6.802   6.361  0.5192  4.1085  3.1665
  627MOL0     H82764   0.672   6.652   6.529  0.6846  3.4966  2.5298
  628MOL0     O82765  10.312  11.163   1.903 -0.0370 -0.1009 -0.5901
  628MOL0     C82766  10.351  11.060   1.847 -0.3184 -0.2043 -0.6542
  628MOL0     O82767  10.301  11.016   1.727  0.0607 -0.3312  0.4661
  628MOL0     C82768  10.209  11.100   1.652 -0.5011  0.4199 -0.5257
  628MOL0     C82769  10.094  11.141   1.724  0.3872  0.2066 -0.3603
  628MOL0     C82770   9.986  11.209   1.655 -0.1633 -0.4462  0.5553
  628MOL0     C82771   9.984  11.219   1.519  0.3168  0.0383 -0.9723
  628MOL0     O82772   9.857  11.256   1.461  0.1179 -0.7441 -0.1924
  628MOL0     C82773   9.842  11.199   1.331  0.4335 -0.1612 -0.0558
  628MOL0     C82774   9.694  11.184   1.281 -0.6196 -0.1652 -0.1168
  628MOL0     C82775   9.645  11.317   1.233  0.2003 -1.7573 -0.8593
  628MOL0     C82776   9.535  11.317   1.124 -0.2761 -0.1753 -0.7491
  628MOL0     C82777   9.420  11.231   1.173 -0.9535  0.4595  0.2055
  628MOL0     C82778   9.288  11.255   1.094 -0.3788  0.0071  0.3714
  628MOL0     C82779   9.174  11.163   1.150 -0.1930  0.5594  0.0369
  628MOL0     C82780   9.051  11.158   1.051  0.4477 -0.1565  0.2565
  628MOL0     N82781   9.008  11.290   1.010 -0.1381  0.4938  0.8166
  628MOL0     C82782   8.963  11.398   1.083 -0.1686 -0.3233 -0.4266
  628MOL0     C82783   8.970  11.500   0.986  0.1298 -0.3720 -0.4259
  628MOL0     C82784   8.917  11.635   1.023  0.0465  0.4703  0.2877
  628MOL0     C82785   8.856  11.710   0.902  0.2415  0.2514 -0.9830
  628MOL0     C82786   8.778  11.841   0.945  0.2145  0.6006 -0.2838
  628MOL0     C82787   8.686  11.901   0.832 -0.0611  0.1751 -0.1389
  628MOL0     O82788   8.753  11.981   0.735 -0.2131 -0.7814  0.0831
  628MOL0     C82789   8.822  11.937   0.620 -0.4041 -0.2959  0.6375
  628MOL0     C82790   8.886  12.034   0.553  0.0496  1.0696 -0.0505
  628MOL0     C82791   8.952  12.011   0.437 -0.4362  0.5605 -0.2207
  628MOL0     C82792   8.967  11.883   0.378  0.4065  0.4877 -0.1242
  628MOL0     C82793   9.026  11.866   0.248 -0.1988 -0.0321 -0.1011
  628MOL0     O82794   9.084  11.976   0.201  0.0671  0.3895  0.1348
  628MOL0     C82795   9.169  11.970   0.093  0.0942  0.2221 -0.3735
  628MOL0     C82796   9.160  12.069   0.004  0.4033 -0.1381  1.2872
  628MOL0     C82797   9.217  12.054  -0.125 -0.4788 -0.0034  0.7181
  628MOL0     C82798   9.300  11.950  -0.156 -0.3705 -0.2140  0.0696
  628MOL0     O82799   9.362  11.932  -0.278 -0.0603  0.5083 -0.0861
  628MOL0     C82800   9.347  12.021  -0.384 -0.0019  1.1118 -0.5148
  628MOL0     C82801   9.473  12.111  -0.403  0.0123  0.1571  0.0384
  628MOL0     C82802   9.494  12.196  -0.277 -0.4156 -0.2994  0.1277
  628MOL0     C82803   9.626  12.280  -0.291 -0.2601  0.1436 -0.5578
  628MOL0     C82804   9.589  12.422  -0.327 -0.2504  1.0481  0.3705
  628MOL0     C82805   9.708  12.497  -0.396 -0.1874 -0.3942  0.3934
  628MOL0     C82806   9.688  12.619  -0.490  0.7643  0.5399 -0.1208
  628MOL0     C82807   9.625  12.744  -0.433  0.7509  0.1090 -1.2646
  628MOL0    Cl82808   9.734  12.806  -0.294  0.1958  0.4104 -0.3581
  628MOL0     C82809   9.320  11.860  -0.057  0.3362  0.0086  0.1515
  628MOL0     C82810   9.255  11.868   0.060 -0.2997 -0.5079 -0.4839
  628MOL0     O82811   9.021  11.759   0.201  0.6118  0.7213 -0.1807
  628MOL0     C82812   8.889  11.789   0.439  0.2507  0.3475  0.0000
  628MOL0     C82813   8.816  11.812   0.562  0.0521  0.3494  0.0697
  628MOL0     N82814   9.016  11.459   0.863 -0.1006 -0.6075  0.0230
  628MOL0     N82815   9.034  11.338   0.877  0.9208  0.1915  0.1235
  628MOL0     C82816  10.105  11.187   1.451 -0.3645  0.3503 -0.6438
  628MOL0     C82817  10.221  11.132   1.513 -0.0962  0.4701 -0.9959
  628MOL0     C82818  10.431  10.960   1.926  0.7074 -0.8740  0.8929
  628MOL0     C82819  10.538  11.003   2.006  0.0892  0.9783 -0.2562
  628MOL0     C82820  10.624  10.910   2.049  0.0082  0.4510  0.6775
  628MOL0     C82821  10.618  10.775   2.019  0.8367 -0.4791  0.2510
  628MOL0     O82822  10.717  10.699   2.080  0.8029 -0.6058 -0.6606
  628MOL0     C82823  10.796  10.616   1.992 -0.0356 -0.2662 -1.4143
  628MOL0     C82824  10.834  10.692   1.869  0.1186  0.1021 -0.6772
  628MOL0     C82825  10.968  10.635   1.817  0.6470 -0.1213 -0.5037
  628MOL0     C82826  10.958  10.511   1.734  0.0869 -0.3878 -0.4231
  628MOL0     C82827  11.095  10.488   1.674 -0.5316  0.4078  0.6623
  628MOL0     C82828  11.204  10.473   1.618  0.7344 -0.9899  1.1387
  628MOL0     C82829  10.509  10.725   1.945 -0.5277  0.1007  1.0610
  628MOL0     C82830  10.415  10.817   1.897  0.3180 -0.2267 -0.2694
  628MOL0     H82831  10.065  11.119   1.826  0.8994  1.3715  0.0539
  628MOL0     H82832   9.906  11.239   1.723  0.8317 -3.0613  3.0990
  628MOL0     H82833   9.878  11.097   1.344  1.4143  0.4258  2.3872
  628MOL0     H82834   9.918  11.251   1.272  1.7853  0.4021  2.0568
  628MOL0     H82835   9.636  11.135   1.359 -0.2519  0.8186  0.7982
  628MOL0     H82836   9.690  11.111   1.200 -1.2048 -2.1276  1.6064
  628MOL0     H82837   9.733  11.375   1.204 -0.9076  0.9952  0.8331
  628MOL0     H82838   9.601  11.360   1.323  1.8779 -0.5918 -0.5484
  628MOL0     H82839   9.503  11.419   1.102 -0.4830 -0.7823 -3.6495
  628MOL0     H82840   9.576  11.274   1.032  0.2226 -1.9204  0.2336
  628MOL0     H82841   9.412  11.224   1.282 -1.7487 -0.2944  0.1134
  628MOL0     H82842   9.454  11.129   1.154  0.7765  1.1000 -0.2330
  628MOL0     H82843   9.309  11.240   0.987 -1.6846 -0.3002  0.1399
  628MOL0     H82844   9.256  11.357   1.115  1.5782  0.9513 -0.9309
  628MOL0     H82845   9.211  11.061   1.155  1.8000  0.9440 -3.7023
  628MOL0     H82846   9.142  11.207   1.245  0.1835  3.2404 -0.9889
  628MOL0     H82847   8.971  11.088   1.079  0.8490 -1.9071 -2.5408
  628MOL0     H82848   9.074  11.104   0.958 -1.6814  1.1471 -1.1363
  628MOL0     H82849   8.936  11.410   1.187  2.3245 -1.4983  0.4345
  628MOL0     H82850   9.008  11.683   1.061  2.1652 -2.9819 -0.0316
  628MOL0     H82851   8.835  11.623   1.094 -0.5137 -0.1396 -0.4432
  628MOL0     H82852   8.787  11.646   0.847  1.1140  1.0679 -3.1325
  628MOL0     H82853   8.939  11.735   0.835  1.0938  3.3876  1.0555
  628MOL0     H82854   8.723  11.819   1.037 -1.5091 -2.0637 -1.8290
  628MOL0     H82855   8.853  11.915   0.974 -1.1871  1.8862  0.2465
  628MOL0     H82856   8.614  11.965   0.883 -1.2364  0.9791 -2.6480
  628MOL0     H82857   8.625  11.838   0.767  0.6175 -2.2953  1.4846
  628MOL0     H82858   8.876  12.137   0.586 -0.9071 -0.0376  3.5218
  628MOL0     H82859   9.010  12.088   0.387 -0.4728  1.3374  0.8970
  628MOL0     H82860   9.109  12.159   0.036 -0.8752  0.5580 -2.1894
  628MOL0     H82861   9.201  12.139  -0.191 -2.4766 -0.2647  0.7991
  628MOL0     H82862   9.258  12.085  -0.374 -0.7837 -0.2531  1.9877
  628MOL0     H82863   9.340  11.961  -0.475 -2.8264  3.7991 -2.3158
  628MOL0     H82864   9.460  12.175  -0.490  0.0438  0.2519  0.1043
  628MOL0     H82865   9.562  12.049  -0.412  1.2300  1.5034  1.9327
  628MOL0     H82866   9.499  12.128  -0.192 -0.4938  1.5849  1.7010
  628MOL0     H82867   9.410  12.264  -0.259  1.0286  0.9659  2.6827
  628MOL0     H82868   9.684  12.289  -0.199  0.5037 -0.6319 -0.9592
  628MOL0     H82869   9.677  12.228  -0.373  0.5581  1.2354 -0.7622
  628MOL0     H82870   9.557  12.468  -0.233 -0.0027 -0.5348  1.2608
  628MOL0     H82871   9.515  12.420  -0.407 -1.5718 -2.2747  1.5172
  628MOL0     H82872   9.750  12.420  -0.461 -0.4834  0.2337 -0.5616
  628MOL0     H82873   9.793  12.514  -0.329  2.3862 -0.2306 -2.6796
  628MOL0     H82874   9.792  12.646  -0.510  1.4139  0.3595  2.6465
  628MOL0     H82875   9.632  12.599  -0.582  0.9199 -4.0918  0.5402
  628MOL0     H82876   9.524  12.726  -0.396  0.5923 -0.4759 -1.9500
  628MOL0     H82877   9.614  12.827  -0.504 -0.9904 -0.0610 -1.2398
  628MOL0     H82878   9.372  11.768  -0.082 -2.0154 -1.1980 -0.6278
  628MOL0     H82879   9.266  11.790   0.135  3.0572  3.1545  3.4098
  628MOL0     H82880   8.888  11.688   0.398 -1.8563  0.6142 -0.7303
  628MOL0     H82881   8.768  11.727   0.609  1.1261  0.0854  0.7386
  628MOL0     H82882  10.105  11.194   1.343 -1.9722 -2.4354 -0.9304
  628MOL0     H82883  10.304  11.104   1.449  0.7433 -2.5013  1.1618
  628MOL0     H82884  10.561  11.109   2.015  4.0477  0.1814  0.5555
  628MOL0     H82885  10.705  10.957   2.104  0.4054  0.4439  0.1127
  628MOL0     H82886  10.735  10.531   1.962  0.1798 -0.3975 -1.4821
  628MOL0     H82887  10.888  10.584   2.041 -0.5451 -0.3481 -0.4876
  628MOL0     H82888  10.758  10.668   1.794 -1.4644 -1.2531  1.2351
  628MOL0     H82889  10.850  10.798   1.889  0.5157 -0.2458  1.0103
  628MOL0     H82890  11.028  10.609   1.905  0.9104 -1.6598 -1.1085
  628MOL0     H82891  11.013  10.716   1.760 -0.1362 -0.2614 -1.3365
  628MOL0     H82892  10.936  10.424   1.795  0.7209 -2.2955 -2.7571
  628MOL0     H82893  10.885  10.497   1.654 -0.9609 -2.1241  0.7739
  628MOL0     H82894  11.293  10.438   1.569  0.1164 -0.9936 -0.0176
  628MOL0     H82895  10.496  10.620   1.922  2.2097  0.1770 -1.3945
  628MOL0     H82896  10.330  10.782   1.839  1.2098  1.0779 -2.4816
  629MOL0     O82897   3.776   2.563   9.405 -0.1265 -0.4925  0.4533
  629MOL0     C82898   3.719   2.666   9.433  0.1787 -1.3581  0.2271
  629MOL0     O82899   3.672   2.711   9.556 -0.5542 -0.5170 -0.3592
  629MOL0     C82900   3.700   2.620   9.653  0.0885 -0.5877 -0.2849
  629MOL0     C82901   3.596   2.568   9.730  0.6320  0.1217  0.4948
  629MOL0     C82902   3.623   2.487   9.844 -0.7313 -0.2415 -0.1528
  629MOL0     C82903   3.755   2.451   9.872 -0.1695  0.3997  0.1637
  629MOL0     O82904   3.772   2.370   9.976 -0.1106  0.2597  0.2895
  629MOL0     C82905   3.866   2.252   9.957  0.2982  0.3918  0.1096
  629MOL0     C82906   3.876   2.173  10.083  0.1878 -0.8121 -0.4724
  629MOL0     C82907   3.952   2.240  10.191 -0.8032 -0.0589  1.6060
  629MOL0     C82908   3.895   2.188  10.335 -0.1079  0.3083  0.4744
  629MOL0     C82909   3.964   2.251  10.452 -0.1742 -0.6850 -0.3094
  629MOL0     C82910   3.904   2.202  10.583 -0.1628  0.0083  0.4474
  629MOL0     C82911   3.974   2.285  10.701 -0.3368 -0.2864 -0.3210
  629MOL0     C82912   3.966   2.202  10.823 -0.2771  0.0026 -0.5668
  629MOL0     N82913   3.823   2.191  10.870  1.0849 -0.1618 -0.3649
  629MOL0     C82914   3.739   2.284  10.923 -0.2900  0.4754 -0.7960
  629MOL0     C82915   3.632   2.221  10.959  0.8583 -0.0434 -0.9865
  629MOL0     C82916   3.512   2.289  11.027 -0.0988 -0.2177 -0.1562
  629MOL0     C82917   3.389   2.204  11.036  0.9118 -0.2235 -0.8497
  629MOL0     C82918   3.289   2.260  11.146 -0.4114  0.8502  0.0249
  629MOL0     C82919   3.148   2.190  11.133 -0.6031 -0.9836 -1.0255
  629MOL0     O82920   3.157   2.041  11.124  0.0127  0.1595 -0.1278
  629MOL0     C82921   3.051   1.981  11.054 -1.0352 -0.9103 -0.3055
  629MOL0     C82922   3.081   1.848  11.010  0.1968 -0.8701 -0.4697
  629MOL0     C82923   2.990   1.770  10.952  0.0492  1.0128 -0.5160
  629MOL0     C82924   2.854   1.813  10.932 -0.3934 -0.7579  0.4409
  629MOL0     C82925   2.759   1.722  10.879  0.0819 -0.2027  0.2233
  629MOL0     O82926   2.802   1.624  10.795 -0.2732  0.1231 -0.4455
  629MOL0     C82927   2.710   1.542  10.733  0.9011  0.4852  0.3029
  629MOL0     C82928   2.604   1.597  10.657  1.1121  0.4217 -0.0177
  629MOL0     C82929   2.526   1.504  10.581  0.5009  0.1266  0.4893
  629MOL0     C82930   2.542   1.363  10.581  0.7060 -0.5731  0.2552
  629MOL0     O82931   2.484   1.286  10.481  0.2697 -0.7964 -0.4397
  629MOL0     C82932   2.400   1.181  10.535  0.4533  0.2026  0.1596
  629MOL0     C82933   2.339   1.123  10.407 -0.8085 -0.4099 -0.3500
  629MOL0     C82934   2.248   1.006  10.421  0.0028  0.0083  0.3367
  629MOL0     C82935   2.277   0.919  10.547  0.5973 -0.7657 -0.9790
  629MOL0     C82936   2.182   0.804  10.555 -0.2644 -0.4578 -0.5011
  629MOL0     C82937   2.182   0.734  10.693 -0.2677 -1.0941 -0.2582
  629MOL0     C82938   2.068   0.617  10.705  0.2567 -0.2922  0.3766
  629MOL0     C82939   2.128   0.481  10.661  0.6704  0.0083  0.0781
  629MOL0    Cl82940   2.012   0.350  10.739  0.0615 -0.3312 -0.0974
  629MOL0     C82941   2.650   1.313  10.663 -0.0757 -0.2012  0.6076
  629MOL0     C82942   2.732   1.404  10.727  0.7321  0.2640 -1.0344
  629MOL0     O82943   2.645   1.737  10.906  0.3387 -0.4799 -0.0269
  629MOL0     C82944   2.822   1.947  10.975 -0.0569 -0.1565 -0.7079
  629MOL0     C82945   2.917   2.029  11.035  0.0029  0.0415  0.0285
  629MOL0     N82946   3.648   2.086  10.928 -0.7346 -0.5318  0.2434
  629MOL0     N82947   3.770   2.068  10.890 -0.1776 -0.3587 -0.0698
  629MOL0     C82948   3.856   2.507   9.806 -0.4344  0.6006  0.1501
  629MOL0     C82949   3.834   2.600   9.700 -0.4234 -0.1866 -0.5873
  629MOL0     C82950   3.703   2.761   9.326  0.6762  0.1029 -0.0226
  629MOL0     C82951   3.786   2.751   9.207  0.8679 -0.5953 -0.6969
  629MOL0     C82952   3.758   2.841   9.095  0.0533  0.6756 -0.5960
  629MOL0     C82953   3.661   2.940   9.100 -0.4844 -0.2594 -1.1986
  629MOL0     O82954   3.640   3.023   8.997  0.0006 -0.2822  0.4878
  629MOL0     C82955   3.641   2.962   8.868  0.2045 -0.6075  0.0564
  629MOL0     C82956   3.534   3.033   8.771  0.2086  0.4604 -0.7167
  629MOL0     C82957   3.562   3.181   8.744 -0.5551 -0.3560  0.2786
  629MOL0     C82958   3.484   3.232   8.634  0.8216 -0.3521 -0.6431
  629MOL0     C82959   3.523   3.371   8.612 -0.3198 -0.1750 -0.4494
  629MOL0     C82960   3.541   3.487   8.575  0.0994 -0.0454  0.6007
  629MOL0     C82961   3.586   2.947   9.215 -0.3311  0.9740 -0.1570
  629MOL0     C82962   3.612   2.865   9.329  0.1132 -0.0721 -0.1843
  629MOL0     H82963   3.501   2.600   9.689  1.0050  0.5421 -0.0641
  629MOL0     H82964   3.543   2.452   9.909  1.2218  0.2051  2.6628
  629MOL0     H82965   3.967   2.288   9.934  0.7786  0.0705  1.6322
  629MOL0     H82966   3.834   2.183   9.878  1.4953 -0.0552 -0.0093
  629MOL0     H82967   3.914   2.077  10.046  1.5964 -0.2192 -0.6495
  629MOL0     H82968   3.773   2.159  10.117 -0.2824 -1.4338 -2.0238
  629MOL0     H82969   3.932   2.347  10.201  0.0675 -0.0437  3.8504
  629MOL0     H82970   4.057   2.224  10.164 -1.6683 -2.2105 -0.9092
  629MOL0     H82971   3.790   2.216  10.343 -1.4980 -2.4399 -4.0991
  629MOL0     H82972   3.903   2.079  10.340  0.6161  0.4113  2.1445
  629MOL0     H82973   3.962   2.359  10.439  1.6624 -0.7569 -1.5848
  629MOL0     H82974   4.070   2.223  10.450  1.3634  4.1655  0.0503
  629MOL0     H82975   3.916   2.093  10.586 -1.7192 -0.2335 -0.6760
  629MOL0     H82976   3.797   2.226  10.582  0.2057  1.7775 -0.3452
  629MOL0     H82977   4.076   2.303  10.664 -0.9660 -1.6781 -2.9967
  629MOL0     H82978   3.939   2.387  10.720 -0.6542  0.6645 -4.8550
  629MOL0     H82979   4.017   2.262  10.900 -1.6202  1.6093 -0.8580
  629MOL0     H82980   4.006   2.101  10.809 -1.9591 -0.6764 -0.6159
  629MOL0     H82981   3.766   2.389  10.923  0.3259  0.3489  1.3429
  629MOL0     H82982   3.473   2.366  10.960  2.3986 -0.0238 -1.5169
  629MOL0     H82983   3.540   2.326  11.126 -1.8891  2.5217 -0.5841
  629MOL0     H82984   3.405   2.103  11.076 -0.2974  0.2212  0.8476
  629MOL0     H82985   3.348   2.192  10.935 -0.5715  0.8314 -0.4066
  629MOL0     H82986   3.322   2.239  11.248  0.1494 -0.5560 -0.4233
  629MOL0     H82987   3.274   2.368  11.133  0.8356  1.2403  1.5339
  629MOL0     H82988   3.111   2.228  11.038  0.4862 -0.5363 -1.2850
  629MOL0     H82989   3.087   2.230  11.215  2.6259 -3.5237  3.0375
  629MOL0     H82990   3.181   1.808  11.022  0.8763  0.2471 -2.1374
  629MOL0     H82991   3.025   1.672  10.923 -4.2419 -1.3380  1.1846
  629MOL0     H82992   2.587   1.704  10.665  1.4340  0.4596  0.1858
  629MOL0     H82993   2.442   1.536  10.520 -0.9646 -0.7775  1.9541
  629MOL0     H82994   2.319   1.200  10.606 -0.2441 -2.9571  0.3169
  629MOL0     H82995   2.476   1.118  10.582  0.1574 -0.8179 -0.7091
  629MOL0     H82996   2.421   1.097  10.340 -1.2253 -1.1656 -0.5748
  629MOL0     H82997   2.289   1.213  10.368  1.7510  2.7738  3.0163
  629MOL0     H82998   2.254   0.960  10.322 -2.9683  3.3374 -1.5908
  629MOL0     H82999   2.150   1.053  10.420  1.3855  3.2984  2.5493
  629MOL0     H83000   2.378   0.877  10.549  0.6375 -0.7006  1.8514
  629MOL0     H83001   2.259   0.981  10.635  1.2645 -2.5000  0.4412
  629MOL0     H83002   2.196   0.735  10.472  3.3832 -0.9206  0.3156
  629MOL0     H83003   2.083   0.848  10.540 -0.7441 -1.6516 -0.9369
  629MOL0     H83004   2.162   0.809  10.770  0.8691 -0.2655 -0.7376
  629MOL0     H83005   2.284   0.697  10.711  0.4355  0.8722  0.0669
  629MOL0     H83006   2.021   0.617  10.803  4.1660  0.0014  2.4440
  629MOL0     H83007   1.990   0.639  10.630  1.1712 -1.5686 -1.0168
  629MOL0     H83008   2.229   0.453  10.692  0.0005 -2.3315  0.3181
  629MOL0     H83009   2.120   0.472  10.553  1.6183 -1.1421  0.0880
  629MOL0     H83010   2.672   1.207  10.663 -1.7782 -0.6059  2.4873
  629MOL0     H83011   2.810   1.361  10.790  0.2552  2.3737  1.1798
  629MOL0     H83012   2.721   1.987  10.974  0.5283  1.4607  0.5684
  629MOL0     H83013   2.903   2.125  11.086  2.5432  0.3681  0.2681
  629MOL0     H83014   3.952   2.480   9.848 -0.1278  0.9513 -0.3251
  629MOL0     H83015   3.917   2.643   9.645 -0.5035  2.5354  1.2494
  629MOL0     H83016   3.865   2.677   9.206 -1.1357 -3.1500  3.0813
  629MOL0     H83017   3.806   2.821   9.000 -0.7644 -0.1781 -0.8354
  629MOL0     H83018   3.604   2.859   8.880 -2.8793  0.2465 -1.0715
  629MOL0     H83019   3.739   2.970   8.821 -1.7688  0.3793 -4.4128
  629MOL0     H83020   3.558   2.991   8.673 -2.3445  0.5603 -1.4675
  629MOL0     H83021   3.431   3.003   8.795  1.1400 -1.6704  0.9180
  629MOL0     H83022   3.668   3.185   8.720 -0.7082 -4.6335 -2.1129
  629MOL0     H83023   3.551   3.221   8.845  0.7035  0.9295 -0.0639
  629MOL0     H83024   3.498   3.174   8.543  0.0239  0.8402 -1.5594
  629MOL0     H83025   3.378   3.237   8.660  1.3097  0.3106  1.4508
  629MOL0     H83026   3.554   3.590   8.552 -1.9548  0.4247  1.3302
  629MOL0     H83027   3.527   3.037   9.230 -1.6439  0.1089  0.0071
  629MOL0     H83028   3.536   2.873   9.406 -1.7740 -1.0772 -1.8483
  630MOL0     O83029   9.446  10.822   9.850  0.1236 -0.8257  0.1310
  630MOL0     C83030   9.449  10.745   9.950  0.4079 -0.8133 -0.6874
  630MOL0     O83031   9.539  10.654   9.973 -0.2692  0.0423 -0.5797
  630MOL0     C83032   9.622  10.638   9.870  0.0972  1.2954 -0.0467
  630MOL0     C83033   9.754  10.672   9.885  1.3861 -0.2233  0.4464
  630MOL0     C83034   9.841  10.666   9.772  0.3647 -0.4623  0.0072
  630MOL0     C83035   9.795  10.600   9.648 -0.7556 -0.7516 -0.0152
  630MOL0     O83036   9.879  10.551   9.546  0.0954  0.5790  0.8836
  630MOL0     C83037   9.971  10.459   9.591 -0.0863  0.9417  0.1080
  630MOL0     C83038   9.949  10.329   9.511  0.2166  0.0392 -1.3826
  630MOL0     C83039   9.865  10.237   9.606 -0.2043  0.1749  0.5091
  630MOL0     C83040   9.945  10.168   9.715 -0.4530  0.0227  0.2191
  630MOL0     C83041   9.873  10.056   9.795  0.1073  1.0781 -0.4803
  630MOL0     C83042   9.966   9.986   9.893 -0.6090 -0.3056  0.0069
  630MOL0     C83043   9.916   9.850   9.943  0.1772 -0.5371 -0.8751
  630MOL0     C83044   9.813   9.879  10.056 -0.4535 -0.1604  0.1990
  630MOL0     N83045   9.873   9.890  10.191  0.5844 -0.4663  0.2118
  630MOL0     C83046   9.924   9.994  10.263  0.1831 -0.3170 -0.1403
  630MOL0     C83047   9.944   9.944  10.388 -0.3776 -0.1438  0.7732
  630MOL0     C83048   9.982  10.021  10.510 -0.8830 -0.2625 -0.0228
  630MOL0     C83049  10.136  10.014  10.529 -1.1193 -0.7822  0.5797
  630MOL0     C83050  10.189   9.964  10.666 -0.1528 -0.3571 -0.2947
  630MOL0     C83051  10.339   9.967  10.675 -0.6833 -0.0393  0.1390
  630MOL0     O83052  10.391  10.092  10.645  0.7593  1.3808  0.6340
  630MOL0     C83053  10.529  10.107  10.649 -0.2118  1.2108 -0.2284
  630MOL0     C83054  10.630   9.997  10.644 -0.4073  0.3845 -0.6138
  630MOL0     C83055  10.764  10.033  10.614  0.0636 -0.3031 -0.4283
  630MOL0     C83056  10.806  10.166  10.631 -0.5961 -1.2072  0.3482
  630MOL0     C83057  10.954  10.206  10.626 -0.1679  0.3088  0.2763
  630MOL0     O83058  10.988  10.340  10.630  0.4574  0.0589  0.4687
  630MOL0     C83059  11.106  10.394  10.672 -0.4396  0.4513 -0.7111
  630MOL0     C83060  11.227  10.336  10.666 -0.0157 -0.4802 -0.7686
  630MOL0     C83061  11.336  10.400  10.713  0.0759 -0.7274 -1.5167
  630MOL0     C83062  11.319  10.527  10.788  0.3018 -0.4595 -0.2541
  630MOL0     O83063  11.404  10.591  10.871  1.0765  0.1642  0.2461
  630MOL0     C83064  11.522  10.514  10.908 -0.8345  0.3827  0.4709
  630MOL0     C83065  11.619  10.604  10.973 -1.2193  0.0612  0.6694
  630MOL0     C83066  11.763  10.543  10.956  0.4998 -0.5543  0.0458
  630MOL0     C83067  11.850  10.630  11.034 -0.6497 -0.8986  0.1122
  630MOL0     C83068  11.995  10.623  11.001 -0.4812 -0.4473  0.2320
  630MOL0     C83069  12.076  10.717  11.092  0.1151 -0.0802 -0.5850
  630MOL0     C83070  12.093  10.858  11.035  0.1668  0.3169 -0.7062
  630MOL0     C83071  12.001  10.962  11.094 -0.1581 -0.2768 -0.3987
  630MOL0    Cl83072  12.064  11.000  11.252  0.1380 -0.2746 -0.1663
  630MOL0     C83073  11.201  10.597  10.770 -0.0167 -1.2516  0.4772
  630MOL0     C83074  11.090  10.524  10.711  0.4212  0.0831  0.1365
  630MOL0     O83075  11.034  10.117  10.627 -0.1094  0.0152  0.4064
  630MOL0     C83076  10.709  10.267  10.646 -0.0817 -0.1735 -0.1136
  630MOL0     C83077  10.576  10.238  10.649  0.9599  0.3430  0.5864
  630MOL0     N83078   9.905   9.809  10.387 -1.6755  0.3225  0.4548
  630MOL0     N83079   9.870   9.775  10.271 -0.6756 -0.2433  0.6716
  630MOL0     C83080   9.667  10.573   9.640 -0.2673 -0.1897 -0.1781
  630MOL0     C83081   9.579  10.581   9.750 -0.0771  0.0100 -0.1526
  630MOL0     C83082   9.345  10.771  10.064  0.5172  0.4285  0.2978
  630MOL0     C83083   9.228  10.833  10.040 -0.2751  0.5321 -1.5443
  630MOL0     C83084   9.123  10.828  10.136 -0.5530  0.2543  0.9752
  630MOL0     C83085   9.150  10.777  10.269 -0.0320 -0.4895  0.1662
  630MOL0     O83086   9.044  10.791  10.348  0.6872 -0.0465  0.2522
  630MOL0     C83087   9.070  10.793  10.488  0.0824  0.5999  0.0674
  630MOL0     C83088   9.067  10.647  10.550  0.4309 -1.1053  0.4428
  630MOL0     C83089   9.124  10.644  10.689 -0.3744 -0.6016  0.7197
  630MOL0     C83090   9.123  10.501  10.752  0.4273 -0.4401 -0.0128
  630MOL0     C83091   8.988  10.447  10.767  0.5161  0.1515  0.1754
  630MOL0     C83092   8.879  10.400  10.774  0.2560 -0.0254  0.4074
  630MOL0     C83093   9.274  10.731  10.296  0.4514  0.0211 -0.0970
  630MOL0     C83094   9.374  10.728  10.196 -0.9598 -0.2163  0.0304
  630MOL0     H83095   9.792  10.720   9.975 -0.3125  1.4645  0.3214
  630MOL0     H83096   9.939  10.708   9.789  0.0750 -1.2550  4.8815
  630MOL0     H83097   9.973  10.452   9.700  0.1952  2.7210  0.2483
  630MOL0     H83098  10.070  10.500   9.568  2.0064 -2.5166  2.2175
  630MOL0     H83099  10.038  10.278   9.473  0.6874  1.5144 -2.3406
  630MOL0     H83100   9.898  10.354   9.417 -3.8181  0.6686  0.7493
  630MOL0     H83101   9.815  10.158   9.548 -5.2135  2.1479  1.5532
  630MOL0     H83102   9.779  10.284   9.655  0.8693 -0.8322  3.5951
  630MOL0     H83103  10.029  10.121   9.663  1.2970  1.4212  1.6093
  630MOL0     H83104   9.989  10.238   9.787 -0.5238  0.9169 -0.5846
  630MOL0     H83105   9.829   9.990   9.720 -1.5204  1.3776  0.1657
  630MOL0     H83106   9.783  10.097   9.842 -1.8758 -3.5975  0.3786
  630MOL0     H83107   9.988  10.062   9.968  2.4682 -1.1792  0.1193
  630MOL0     H83108  10.053   9.958   9.832 -1.2013  2.1145 -2.1672
  630MOL0     H83109   9.866   9.805   9.856  0.8522 -1.3578 -0.8540
  630MOL0     H83110   9.989   9.779   9.984  1.2230  2.1174  2.2108
  630MOL0     H83111   9.742   9.796  10.059 -1.4009  0.3171 -3.8042
  630MOL0     H83112   9.745   9.959  10.026 -2.3489 -1.4406  0.8719
  630MOL0     H83113   9.938  10.095  10.225 -0.9361  0.7852  2.1727
  630MOL0     H83114   9.944   9.971  10.599  0.2020 -0.3171  0.4247
  630MOL0     H83115   9.944  10.122  10.495 -0.9942 -0.1545  0.9618
  630MOL0     H83116  10.170  10.115  10.504  1.5306 -1.9138 -0.9698
  630MOL0     H83117  10.176   9.946  10.453 -1.6236  0.3793 -0.7743
  630MOL0     H83118  10.155  10.042  10.735 -1.1009 -1.5527  0.6313
  630MOL0     H83119  10.144   9.865  10.680  0.7746 -0.8228 -0.5191
  630MOL0     H83120  10.383   9.904  10.596  0.2197 -0.8569  1.2563
  630MOL0     H83121  10.367   9.939  10.777  0.3061  1.3556  0.2907
  630MOL0     H83122  10.603   9.893  10.632  3.6545 -0.7244 -1.6701
  630MOL0     H83123  10.844   9.962  10.595 -1.4765 -1.9420 -0.9339
  630MOL0     H83124  11.252  10.232  10.652  4.4190  0.3625 -0.3399
  630MOL0     H83125  11.434  10.353  10.721  0.0988 -0.3469  1.8486
  630MOL0     H83126  11.573  10.462  10.826 -1.4333 -0.8018  0.8190
  630MOL0     H83127  11.502  10.440  10.986  0.5174  0.7393  1.1817
  630MOL0     H83128  11.612  10.621  11.081  1.0420  1.1774  0.7067
  630MOL0     H83129  11.625  10.701  10.923  1.7378  2.2641  4.6603
  630MOL0     H83130  11.799  10.533  10.853  3.0426 -4.2817  1.0870
  630MOL0     H83131  11.765  10.448  11.010  2.8672 -0.6526 -0.1207
  630MOL0     H83132  11.812  10.733  11.021  1.2610  0.0777  1.7086
  630MOL0     H83133  11.828  10.594  11.135 -0.8764 -1.0635  0.0058
  630MOL0     H83134  12.023  10.636  10.896 -1.9378  0.6284 -0.0479
  630MOL0     H83135  12.022  10.517  11.008  1.3048 -0.0024  0.6735
  630MOL0     H83136  12.169  10.661  11.089 -0.9730 -2.0415  0.1993
  630MOL0     H83137  12.044  10.720  11.197 -4.6718  1.5502 -1.8237
  630MOL0     H83138  12.191  10.882  11.076  1.0250 -1.2206 -1.7699
  630MOL0     H83139  12.101  10.850  10.926 -0.5150 -4.3284 -0.6046
  630MOL0     H83140  11.899  10.921  11.096 -0.8403  1.3634 -0.1520
  630MOL0     H83141  12.011  11.047  11.025 -4.0001  0.1386 -0.6695
  630MOL0     H83142  11.196  10.700  10.803 -0.5128 -1.7750  2.1600
  630MOL0     H83143  10.995  10.576  10.700  0.8970  0.7771 -0.8960
  630MOL0     H83144  10.752  10.367  10.651  1.4424 -0.5892 -2.9375
  630MOL0     H83145  10.493  10.308  10.650  1.1906  0.6357 -0.4083
  630MOL0     H83146   9.619  10.541   9.547 -0.8923 -0.1585  0.1301
  630MOL0     H83147   9.476  10.553   9.728 -0.6684 -0.3656  2.7723
  630MOL0     H83148   9.198  10.860   9.939 -1.1730 -1.2129 -1.7765
  630MOL0     H83149   9.030  10.864  10.093 -0.5442  0.5383  1.1940
  630MOL0     H83150   9.003  10.853  10.550  2.6100 -0.5516  4.3677
  630MOL0     H83151   9.165  10.837  10.521  0.4842 -0.6699  0.6704
  630MOL0     H83152   8.960  10.627  10.540 -0.2115  1.8078  0.4661
  630MOL0     H83153   9.123  10.582  10.483  0.5366 -0.9143  0.3426
  630MOL0     H83154   9.066  10.713  10.750  0.9574  1.0783  0.1707
  630MOL0     H83155   9.225  10.687  10.684 -1.9643  3.3247 -0.8356
  630MOL0     H83156   9.185  10.440  10.685  0.7847  0.0008 -0.0844
  630MOL0     H83157   9.176  10.499  10.848  1.5650 -0.3424 -0.6276
  630MOL0     H83158   8.781  10.359  10.781  0.8382 -1.8370 -1.2614
  630MOL0     H83159   9.314  10.695  10.391 -0.0645  1.1469  0.5584
  630MOL0     H83160   9.467  10.675  10.207  1.0430  2.1801 -3.3016
  631MOL0     O83161   1.596   9.266   2.291 -0.0292  0.1002  0.3105
  631MOL0     C83162   1.547   9.237   2.184  0.5842 -0.4840  0.6135
  631MOL0     O83163   1.602   9.262   2.066  0.3493 -0.0476 -0.2353
  631MOL0     C83164   1.730   9.306   2.063  0.2932 -0.7799 -0.0531
  631MOL0     C83165   1.742   9.443   2.059 -0.8350 -1.0955 -0.2714
  631MOL0     C83166   1.861   9.494   2.007 -0.1571  0.5254 -0.2349
  631MOL0     C83167   1.971   9.406   1.993  0.3281  0.8444 -0.0938
  631MOL0     O83168   2.096   9.456   1.959 -0.2713  0.7958  0.5772
  631MOL0     C83169   2.218   9.406   2.022  0.2315 -0.1682 -0.1720
  631MOL0     C83170   2.210   9.419   2.180 -0.7309  0.2810  0.5771
  631MOL0     C83171   2.222   9.560   2.226 -0.0375 -0.9931 -0.8885
  631MOL0     C83172   2.371   9.608   2.223 -0.7516  0.3333 -1.1892
  631MOL0     C83173   2.390   9.749   2.286 -0.0289  0.3451  1.3118
  631MOL0     C83174   2.372   9.847   2.165  0.6040  0.7376  0.1393
  631MOL0     C83175   2.427   9.986   2.203  1.0809  0.9208  0.8329
  631MOL0     C83176   2.394  10.097   2.112 -0.4534  0.0266  0.4417
  631MOL0     N83177   2.250  10.107   2.080 -0.4371 -0.2678 -0.8558
  631MOL0     C83178   2.139  10.129   2.153 -0.1650 -0.7269  0.1311
  631MOL0     C83179   2.032  10.130   2.074  0.2565 -0.6613  0.0370
  631MOL0     C83180   1.894  10.174   2.106  0.2100 -0.7704  0.5262
  631MOL0     C83181   1.885  10.304   2.167 -0.5749  0.4236  0.3624
  631MOL0     C83182   1.942  10.412   2.076 -0.4229 -0.2826 -0.2425
  631MOL0     C83183   1.917  10.536   2.152  0.1925 -0.4939  0.2099
  631MOL0     O83184   2.004  10.537   2.261 -0.1794 -0.6497 -1.2134
  631MOL0     C83185   2.013  10.652   2.340 -0.7355  0.2744  1.1546
  631MOL0     C83186   1.942  10.772   2.331 -0.3020 -0.4284  0.2759
  631MOL0     C83187   1.978  10.881   2.417 -0.1481  1.5505 -0.3806
  631MOL0     C83188   2.065  10.857   2.526 -1.0315  0.3863  0.8549
  631MOL0     C83189   2.109  10.967   2.613  0.0496 -1.2957 -0.0905
  631MOL0     O83190   2.198  10.934   2.712  0.3573 -0.0563  0.2603
  631MOL0     C83191   2.255  11.037   2.776 -0.1746 -0.3232 -1.0874
  631MOL0     C83192   2.194  11.114   2.879  0.7230  0.3647  1.1494
  631MOL0     C83193   2.258  11.219   2.936  0.1333  0.1611  0.4213
  631MOL0     C83194   2.393  11.243   2.912  0.0862 -0.2128  0.0207
  631MOL0     O83195   2.458  11.334   2.975  1.0992 -0.0184  0.3552
  631MOL0     C83196   2.566  11.394   2.917  0.6508 -0.6764  0.4106
  631MOL0     C83197   2.583  11.530   2.992 -0.0686 -0.3561  0.1947
  631MOL0     C83198   2.664  11.623   2.917  0.0841  0.1526  0.6308
  631MOL0     C83199   2.707  11.737   3.010 -0.3041  0.5802 -0.1876
  631MOL0     C83200   2.785  11.837   2.929  0.7317 -0.3298  0.8584
  631MOL0     C83201   2.780  11.979   2.984 -0.3137  0.2653 -0.4774
  631MOL0     C83202   2.856  12.095   2.904  0.2751 -0.4642 -0.2729
  631MOL0     C83203   3.008  12.087   2.920 -0.2287  0.3229 -0.5498
  631MOL0    Cl83204   3.064  12.156   3.085 -0.1940  0.1912 -0.5454
  631MOL0     C83205   2.457  11.169   2.808 -0.3732  0.4307  0.5521
  631MOL0     C83206   2.381  11.076   2.741  0.1292 -1.2499  0.2318
  631MOL0     O83207   2.070  11.083   2.588  0.5263  0.6205 -0.0211
  631MOL0     C83208   2.134  10.736   2.531 -0.2998 -0.2923  0.1582
  631MOL0     C83209   2.111  10.639   2.437  0.5017 -0.0023 -0.3259
  631MOL0     N83210   2.075  10.107   1.944 -0.2154  0.8241  0.1783
  631MOL0     N83211   2.207  10.088   1.952  0.7293  0.1113 -0.2110
  631MOL0     C83212   1.960   9.273   2.031 -0.2382 -1.0387  0.0965
  631MOL0     C83213   1.837   9.219   2.063  1.0501 -0.1415  1.1011
  631MOL0     C83214   1.423   9.163   2.185  0.0912  0.0985 -0.3248
  631MOL0     C83215   1.359   9.143   2.303  0.4515 -0.2446 -1.3808
  631MOL0     C83216   1.252   9.052   2.303  0.1712  0.5041  0.6592
  631MOL0     C83217   1.200   8.992   2.189  0.7775  0.5530  0.4237
  631MOL0     O83218   1.111   8.894   2.201 -0.3747 -0.4521 -0.3778
  631MOL0     C83219   1.060   8.845   2.075 -0.6704  0.2981 -0.5880
  631MOL0     C83220   0.943   8.748   2.104  0.0319  0.0302 -0.1731
  631MOL0     C83221   0.967   8.655   2.216 -0.8729  0.4906 -1.4760
  631MOL0     C83222   0.850   8.553   2.237  0.1402  0.9168  0.2207
  631MOL0     C83223   0.848   8.467   2.356 -0.2816  0.2690 -0.0217
  631MOL0     C83224   0.853   8.394   2.457 -1.1293  1.1523 -0.6203
  631MOL0     C83225   1.261   9.030   2.065  0.6253  0.4429  0.2119
  631MOL0     C83226   1.376   9.107   2.059  0.3476  0.4051  0.2621
  631MOL0     H83227   1.659   9.513   2.063 -1.8166 -2.0751 -2.1690
  631MOL0     H83228   1.875   9.594   1.968 -2.0190  0.5031 -1.1030
  631MOL0     H83229   2.305   9.459   1.983 -2.4457  5.1740  0.2397
  631MOL0     H83230   2.227   9.298   2.005  1.0740 -0.0101 -0.7533
  631MOL0     H83231   2.297   9.355   2.200  1.3521  2.4187 -1.1077
  631MOL0     H83232   2.119   9.369   2.215 -0.5006 -0.0046  0.7795
  631MOL0     H83233   2.177   9.573   2.325  3.6154  2.7641  0.5778
  631MOL0     H83234   2.161   9.618   2.156  2.0999  0.5895 -1.5355
  631MOL0     H83235   2.428   9.536   2.282  0.8375  3.3952  1.3626
  631MOL0     H83236   2.417   9.598   2.125  2.3081 -1.1357  0.2637
  631MOL0     H83237   2.491   9.758   2.329 -0.7314 -1.0658  3.4517
  631MOL0     H83238   2.315   9.760   2.365 -0.1594 -1.3569  1.4668
  631MOL0     H83239   2.263   9.840   2.154  0.7467 -2.7637  0.0997
  631MOL0     H83240   2.425   9.806   2.079 -0.6139  2.0429 -1.3054
  631MOL0     H83241   2.393   9.999   2.306 -1.8980  1.3528 -0.0917
  631MOL0     H83242   2.534   9.974   2.221  0.9716 -2.6311 -0.1195
  631MOL0     H83243   2.461  10.072   2.029  3.9941 -1.3872  4.0555
  631MOL0     H83244   2.430  10.187   2.164 -1.3654 -1.0701  3.1559
  631MOL0     H83245   2.139  10.151   2.260  1.1471 -0.7958  0.1624
  631MOL0     H83246   1.864  10.090   2.169  3.6213 -2.6356 -0.0445
  631MOL0     H83247   1.830  10.170   2.017 -0.8915 -0.2347  1.2836
  631MOL0     H83248   1.931  10.296   2.265  0.7960  0.6784 -0.2414
  631MOL0     H83249   1.777  10.321   2.179 -1.4627 -1.0298 -3.7917
  631MOL0     H83250   2.047  10.406   2.045 -1.1526  0.7607 -3.3737
  631MOL0     H83251   1.892  10.405   1.979  0.6208 -2.4369 -0.6822
  631MOL0     H83252   1.822  10.540   2.206  0.1836 -0.2965  0.1825
  631MOL0     H83253   1.933  10.624   2.088  0.6103 -1.7095 -1.4284
  631MOL0     H83254   1.863  10.781   2.258  0.2882 -0.4602 -0.3719
  631MOL0     H83255   1.924  10.973   2.401 -1.2119  0.9584 -0.3351
  631MOL0     H83256   2.096  11.073   2.898  0.3690  0.2889 -0.6717
  631MOL0     H83257   2.213  11.280   3.013 -0.0970 -1.0356  1.2546
  631MOL0     H83258   2.553  11.412   2.809  0.2648  0.1945  0.5924
  631MOL0     H83259   2.659  11.337   2.922  1.4271  0.5181  0.1883
  631MOL0     H83260   2.627  11.524   3.092 -0.0955  0.7465  0.2847
  631MOL0     H83261   2.483  11.570   3.006  0.5216  0.3950  2.8021
  631MOL0     H83262   2.595  11.664   2.842 -1.4108 -1.6218  0.9449
  631MOL0     H83263   2.755  11.580   2.874 -0.5088 -0.2661 -0.2430
  631MOL0     H83264   2.624  11.774   3.071 -0.9248 -4.2330  2.3217
  631MOL0     H83265   2.778  11.695   3.081  4.1752  1.8852 -3.4217
  631MOL0     H83266   2.747  11.855   2.828  0.6836  0.4384  1.0102
  631MOL0     H83267   2.887  11.800   2.915  1.5560  2.2970 -0.9147
  631MOL0     H83268   2.827  11.975   3.083  0.7196 -1.5181 -1.0204
  631MOL0     H83269   2.674  12.008   2.986 -1.0184 -2.1808  0.6173
  631MOL0     H83270   2.822  12.067   2.804 -3.1436 -2.3887  1.2428
  631MOL0     H83271   2.826  12.197   2.929  1.8044 -0.0748  0.0814
  631MOL0     H83272   3.064  12.130   2.836  1.7724 -0.3197  0.3882
  631MOL0     H83273   3.035  11.981   2.922 -3.2924 -0.5924 -1.9699
  631MOL0     H83274   2.560  11.188   2.783  0.3438  0.0812  2.9874
  631MOL0     H83275   2.422  11.016   2.660 -0.5335  0.7509 -1.6659
  631MOL0     H83276   2.217  10.722   2.599  0.2718  0.3528 -0.3810
  631MOL0     H83277   2.179  10.554   2.445 -0.0711 -0.5692 -1.1833
  631MOL0     H83278   2.051   9.218   2.013  1.1048  1.7879 -2.6123
  631MOL0     H83279   1.822   9.115   2.089 -0.3394  0.1094  1.3736
  631MOL0     H83280   1.392   9.185   2.398 -0.9106  0.8539 -1.3629
  631MOL0     H83281   1.198   9.040   2.397 -1.7126  2.1942 -0.1422
  631MOL0     H83282   1.142   8.801   2.017  0.1551 -0.0484  0.7990
  631MOL0     H83283   1.032   8.930   2.012 -0.7266 -1.6201 -3.3683
  631MOL0     H83284   0.852   8.803   2.130 -2.0193 -1.3662 -3.5723
  631MOL0     H83285   0.914   8.698   2.011  0.3604  0.4095 -0.4849
  631MOL0     H83286   0.964   8.707   2.312  1.1407 -0.1918 -0.9871
  631MOL0     H83287   1.067   8.610   2.211  0.3072  2.6624  0.6276
  631MOL0     H83288   0.765   8.619   2.255 -1.5738 -1.2248  0.4287
  631MOL0     H83289   0.832   8.498   2.144  3.2051 -0.3008  0.2278
  631MOL0     H83290   0.857   8.345   2.553 -4.3311  0.0090 -0.9543
  631MOL0     H83291   1.213   9.006   1.970  0.3168  4.1911 -0.7385
  631MOL0     H83292   1.413   9.144   1.964 -1.6561  4.3763  0.8264
  632MOL0     O83293   8.365   8.276   3.564 -1.1417  0.7098  1.2641
  632MOL0     C83294   8.459   8.277   3.640 -0.3321  0.1368 -0.0667
  632MOL0     O83295   8.540   8.395   3.675 -0.2550 -0.6539 -0.0855
  632MOL0     C83296   8.526   8.519   3.621  1.2949 -0.7392 -0.1474
  632MOL0     C83297   8.452   8.549   3.504 -0.0669  0.2571 -0.0705
  632MOL0     C83298   8.434   8.680   3.461  0.2974  1.4587 -0.2686
  632MOL0     C83299   8.504   8.781   3.516 -0.2721  0.1176  0.6540
  632MOL0     O83300   8.484   8.911   3.479 -0.5073 -0.4733  0.0794
  632MOL0     C83301   8.531   8.940   3.350 -0.0985 -0.0853  0.2930
  632MOL0     C83302   8.452   9.049   3.276 -0.0825  1.1154  0.3201
  632MOL0     C83303   8.522   9.066   3.138  0.0584 -0.1094  0.3964
  632MOL0     C83304   8.667   9.119   3.131  0.5724  0.0220 -0.7630
  632MOL0     C83305   8.694   9.218   3.012  0.2305  0.5660 -0.0821
  632MOL0     C83306   8.720   9.144   2.883 -0.1208  0.2193 -0.2853
  632MOL0     C83307   8.664   9.227   2.770 -1.1198 -0.6574  0.3194
  632MOL0     C83308   8.762   9.342   2.744  0.6790 -0.3510  0.6450
  632MOL0     N83309   8.870   9.303   2.663 -0.9927 -0.1805  0.2087
  632MOL0     C83310   8.865   9.265   2.526 -0.0921 -0.1742  0.0694
  632MOL0     C83311   8.993   9.257   2.487 -0.7574  0.4309 -0.4089
  632MOL0     C83312   9.044   9.220   2.352 -0.1418 -0.5266 -0.6999
  632MOL0     C83313   9.041   9.342   2.262 -0.1991 -0.3760 -1.0801
  632MOL0     C83314   8.900   9.397   2.234  0.5733 -0.1419  0.3230
  632MOL0     C83315   8.931   9.512   2.133  0.0334  0.0363 -0.6985
  632MOL0     O83316   8.813   9.549   2.072 -0.2699 -0.5155  0.4624
  632MOL0     C83317   8.757   9.681   2.067  0.3008  0.1035 -0.6197
  632MOL0     C83318   8.808   9.787   2.135 -0.4500  0.7631 -0.6462
  632MOL0     C83319   8.749   9.913   2.143 -0.9449 -0.8026 -0.1645
  632MOL0     C83320   8.621   9.935   2.082 -0.6900 -0.3807  0.7979
  632MOL0     C83321   8.538  10.052   2.104  0.4719 -1.2429 -0.1390
  632MOL0     O83322   8.589  10.136   2.200 -0.0350 -0.1793 -0.1860
  632MOL0     C83323   8.542  10.264   2.210  0.6267  0.9273 -1.2607
  632MOL0     C83324   8.564  10.353   2.108 -0.1780 -0.3747 -0.6509
  632MOL0     C83325   8.514  10.488   2.121  1.0283  0.5292  0.3123
  632MOL0     C83326   8.449  10.536   2.241  0.7388  0.2524 -0.1195
  632MOL0     O83327   8.408  10.670   2.270  0.2195 -0.0684  0.6814
  632MOL0     C83328   8.464  10.763   2.173 -0.1887 -1.3801  0.1317
  632MOL0     C83329   8.370  10.793   2.051  0.0962 -0.2323 -0.0045
  632MOL0     C83330   8.213  10.777   2.076  0.4677  1.0231  0.8475
  632MOL0     C83331   8.116  10.817   1.964 -0.7443  0.2813  0.3566
  632MOL0     C83332   7.967  10.794   2.004  0.8928 -0.0494  0.6675
  632MOL0     C83333   7.872  10.859   1.903  0.4524 -0.0022 -0.0292
  632MOL0     C83334   7.724  10.821   1.940  0.1647  0.3267  0.3629
  632MOL0     C83335   7.618  10.836   1.825 -0.0426  0.1563  0.6356
  632MOL0    Cl83336   7.455  10.790   1.869 -0.3588 -0.2521  0.0463
  632MOL0     C83337   8.431  10.447   2.343  0.4659  0.7274 -0.2514
  632MOL0     C83338   8.463  10.305   2.331 -0.5735  0.7192 -0.1178
  632MOL0     O83339   8.424  10.060   2.058  0.8686  1.0619  0.6124
  632MOL0     C83340   8.559   9.822   2.013 -0.5940  0.0392 -0.4020
  632MOL0     C83341   8.629   9.705   2.002 -0.9832  0.3175 -0.9475
  632MOL0     N83342   9.062   9.319   2.586 -0.7764 -0.2998 -0.2987
  632MOL0     N83343   8.993   9.350   2.691  0.1183  0.1711 -0.5640
  632MOL0     C83344   8.586   8.754   3.634  0.0947 -0.3124 -1.1620
  632MOL0     C83345   8.593   8.622   3.687 -0.5413  0.1605 -0.1479
  632MOL0     C83346   8.476   8.158   3.739  0.5015  0.2074  0.9801
  632MOL0     C83347   8.416   8.036   3.705 -0.2098  0.1980  0.0784
  632MOL0     C83348   8.427   7.925   3.793 -0.3469  0.2148  0.1345
  632MOL0     C83349   8.484   7.943   3.919  0.2361  0.1918  1.0127
  632MOL0     O83350   8.500   7.832   3.990 -0.3629  0.1392  0.2905
  632MOL0     C83351   8.593   7.839   4.097 -0.9244  0.1862 -1.1445
  632MOL0     C83352   8.583   7.718   4.173  0.3850 -0.5013  0.1279
  632MOL0     C83353   8.624   7.598   4.093  0.1024  0.4001 -0.0341
  632MOL0     C83354   8.644   7.477   4.183  0.0111  1.0264 -0.3232
  632MOL0     C83355   8.546   7.451   4.298 -0.4214 -0.0326 -0.0691
  632MOL0     C83356   8.459   7.427   4.386 -0.2593 -0.2040  0.1270
  632MOL0     C83357   8.547   8.068   3.952 -0.6942  0.2254  0.4940
  632MOL0     C83358   8.545   8.168   3.856 -0.6168  0.5201 -1.0669
  632MOL0     H83359   8.410   8.467   3.447 -0.4472 -1.8651  3.0117
  632MOL0     H83360   8.357   8.700   3.386  0.9001 -2.5738 -2.2312
  632MOL0     H83361   8.535   8.866   3.270  0.7718  1.4209 -1.1037
  632MOL0     H83362   8.634   8.970   3.371 -0.3728  0.1388  1.3819
  632MOL0     H83363   8.454   9.138   3.340  0.4784 -0.7303  3.0320
  632MOL0     H83364   8.349   9.016   3.265 -1.6594  3.8653  4.2882
  632MOL0     H83365   8.464   9.141   3.083  1.4339  2.4113  2.2128
  632MOL0     H83366   8.522   8.976   3.075  1.6702 -0.0059  0.2183
  632MOL0     H83367   8.674   9.190   3.215  0.3703 -2.0590  1.0915
  632MOL0     H83368   8.741   9.040   3.141  0.0745 -0.2963  0.7257
  632MOL0     H83369   8.778   9.283   3.041  1.1246 -1.8912  3.4493
  632MOL0     H83370   8.612   9.291   3.010 -2.3372 -2.1728 -0.8046
  632MOL0     H83371   8.660   9.053   2.887  0.9355 -0.5465 -1.1534
  632MOL0     H83372   8.827   9.127   2.872 -0.1143  1.2359 -2.4287
  632MOL0     H83373   8.635   9.159   2.690 -3.7970  1.5693 -0.7412
  632MOL0     H83374   8.566   9.263   2.804 -2.4722 -1.8585 -2.1072
  632MOL0     H83375   8.794   9.381   2.842 -2.1900  1.9347  0.7865
  632MOL0     H83376   8.717   9.423   2.687  0.0124 -0.9473  0.3091
  632MOL0     H83377   8.787   9.231   2.460 -0.4697 -3.1008  1.8708
  632MOL0     H83378   8.984   9.138   2.313 -0.7663 -0.0817 -0.6974
  632MOL0     H83379   9.150   9.198   2.368 -0.3088  0.6103  2.9925
  632MOL0     H83380   9.083   9.319   2.164 -1.4204  2.9362 -2.5238
  632MOL0     H83381   9.108   9.417   2.304 -0.6277 -0.4993 -0.1464
  632MOL0     H83382   8.845   9.311   2.196 -0.0610 -0.3692  1.6948
  632MOL0     H83383   8.843   9.444   2.315 -1.0763  1.6734 -1.7594
  632MOL0     H83384   8.998   9.474   2.056 -1.6187 -1.3763 -1.5036
  632MOL0     H83385   8.979   9.595   2.186 -1.1159  0.0263  0.3997
  632MOL0     H83386   8.907   9.778   2.178 -0.8479 -1.8733 -0.1193
  632MOL0     H83387   8.804   9.995   2.189 -1.6978 -0.9337  1.0260
  632MOL0     H83388   8.622  10.318   2.022  1.3075 -1.6165  0.7856
  632MOL0     H83389   8.526  10.539   2.026 -0.0338  3.3074  1.5795
  632MOL0     H83390   8.566  10.742   2.142  1.3918  1.0733  3.1502
  632MOL0     H83391   8.462  10.856   2.231 -1.8693 -1.2291 -0.0978
  632MOL0     H83392   8.392  10.715   1.978  0.9535 -1.2334  1.2638
  632MOL0     H83393   8.403  10.887   2.009  2.6693 -0.9272  0.3029
  632MOL0     H83394   8.183  10.827   2.168  0.2959  4.3506 -0.8870
  632MOL0     H83395   8.199  10.670   2.096  2.1898  0.8987  1.6022
  632MOL0     H83396   8.140  10.917   1.929 -1.4827 -0.4670 -2.5325
  632MOL0     H83397   8.148  10.753   1.881  1.0362 -0.5297  1.6078
  632MOL0     H83398   7.951  10.834   2.104  0.8161 -1.3453  1.1862
  632MOL0     H83399   7.946  10.687   2.009 -2.4868  0.5305  4.7550
  632MOL0     H83400   7.881  10.821   1.801 -2.8076 -1.3073  0.0423
  632MOL0     H83401   7.875  10.968   1.914 -1.8982 -0.0907  3.1800
  632MOL0     H83402   7.714  10.727   1.994 -1.6738  1.5095  2.2496
  632MOL0     H83403   7.704  10.892   2.021  0.1735  0.8293 -0.0628
  632MOL0     H83404   7.643  10.780   1.735 -3.6577 -2.8351  1.2339
  632MOL0     H83405   7.624  10.942   1.795 -1.6205  0.3315  0.8254
  632MOL0     H83406   8.371  10.490   2.423  1.2564 -1.6136  1.7473
  632MOL0     H83407   8.455  10.223   2.401 -1.4094 -0.4562 -1.5245
  632MOL0     H83408   8.454   9.822   1.984 -1.8564 -0.7278  3.6174
  632MOL0     H83409   8.592   9.616   1.953  1.6319 -1.3651 -0.0340
  632MOL0     H83410   8.637   8.838   3.679 -3.1434  0.9790  0.4735
  632MOL0     H83411   8.645   8.616   3.782 -2.7276  2.8575  1.3462
  632MOL0     H83412   8.384   8.037   3.602 -0.8257 -0.1142  0.2654
  632MOL0     H83413   8.393   7.825   3.774  0.3382  0.1740 -0.9343
  632MOL0     H83414   8.563   7.906   4.179 -1.1041 -2.6980  1.3193
  632MOL0     H83415   8.700   7.853   4.076  0.1700 -0.3450  3.0965
  632MOL0     H83416   8.650   7.729   4.258  1.0493 -2.1771 -0.1295
  632MOL0     H83417   8.478   7.724   4.203  0.9193  3.5853  1.7896
  632MOL0     H83418   8.721   7.617   4.045 -0.5355 -0.1229 -1.5831
  632MOL0     H83419   8.546   7.577   4.021 -0.1135 -0.5468  0.4629
  632MOL0     H83420   8.638   7.389   4.119  4.2369  0.2081  0.1007
  632MOL0     H83421   8.743   7.476   4.229 -0.7655 -2.2699  1.6750
  632MOL0     H83422   8.389   7.417   4.466 -3.4977 -1.8193 -2.6319
  632MOL0     H83423   8.601   8.086   4.044 -1.7249  0.3422  1.0910
  632MOL0     H83424   8.608   8.255   3.870  0.5917 -0.3344 -1.0950
  633MOL0     O83425   4.847   2.183   8.092  0.6085 -0.2740  0.7741
  633MOL0     C83426   4.908   2.280   8.133 -0.6265  0.8675  0.6710
  633MOL0     O83427   4.979   2.365   8.056 -0.6907 -0.1703 -0.4773
  633MOL0     C83428   4.956   2.369   7.920  0.5116 -0.2964 -0.2106
  633MOL0     C83429   4.841   2.310   7.847 -0.1629  0.6175  0.0204
  633MOL0     C83430   4.854   2.316   7.706  1.1684 -0.0177  0.9229
  633MOL0     C83431   4.961   2.373   7.638  0.7226  0.6352  0.7124
  633MOL0     O83432   4.967   2.382   7.504 -0.5032 -0.3505  0.6297
  633MOL0     C83433   4.868   2.326   7.419  0.1225 -0.5404  0.2968
  633MOL0     C83434   4.880   2.178   7.370 -0.4831 -0.1138  0.0792
  633MOL0     C83435   5.007   2.161   7.285  0.2587  0.8622 -0.0951
  633MOL0     C83436   5.017   2.010   7.240  0.3850 -1.1618 -1.0158
  633MOL0     C83437   5.124   1.987   7.139 -0.6686  0.0377 -0.6187
  633MOL0     C83438   5.099   2.027   7.000 -0.8978 -0.6993 -0.7163
  633MOL0     C83439   5.201   1.963   6.908 -0.5612  0.7668 -0.4587
  633MOL0     C83440   5.330   2.040   6.890  0.6484 -0.8600 -1.2072
  633MOL0     N83441   5.324   2.141   6.785 -0.3735  0.2269 -0.7114
  633MOL0     C83442   5.390   2.132   6.670  0.4926 -0.8096  0.4145
  633MOL0     C83443   5.355   2.250   6.609  0.1998 -0.0163  0.1236
  633MOL0     C83444   5.380   2.298   6.471  0.5001  0.1733 -0.3003
  633MOL0     C83445   5.365   2.450   6.443  1.2419 -0.4952 -0.5432
  633MOL0     C83446   5.295   2.474   6.307 -0.4278  0.1594  0.8551
  633MOL0     C83447   5.252   2.630   6.293  0.3570  0.1902 -0.4534
  633MOL0     O83448   5.144   2.634   6.387 -0.3809  0.1297  0.5412
  633MOL0     C83449   5.016   2.605   6.340  0.3196 -0.2279  0.2183
  633MOL0     C83450   4.933   2.541   6.433 -0.4927  0.0497 -0.2135
  633MOL0     C83451   4.796   2.513   6.403  0.0058 -0.4660  0.2520
  633MOL0     C83452   4.744   2.532   6.273 -0.2075  0.7299 -0.2382
  633MOL0     C83453   4.610   2.482   6.238 -1.0499  2.1704 -0.5625
  633MOL0     O83454   4.547   2.398   6.332  0.0092 -0.4637  0.2225
  633MOL0     C83455   4.410   2.369   6.324  0.3349  0.2455 -0.1062
  633MOL0     C83456   4.361   2.277   6.225 -0.5354 -0.0027 -0.1098
  633MOL0     C83457   4.222   2.233   6.240 -0.6813  0.1400  0.2579
  633MOL0     C83458   4.148   2.297   6.336  1.0426 -0.2711  0.4744
  633MOL0     O83459   4.013   2.263   6.361  0.2647 -0.4898  0.3021
  633MOL0     C83460   3.925   2.235   6.249  0.2600 -1.0422  0.5257
  633MOL0     C83461   3.787   2.226   6.299 -0.0898  0.8151  0.3655
  633MOL0     C83462   3.679   2.250   6.190 -0.1566  0.2890  0.8307
  633MOL0     C83463   3.544   2.216   6.257 -0.4331 -0.3075 -0.5804
  633MOL0     C83464   3.421   2.214   6.157 -0.7517 -0.6985  0.2177
  633MOL0     C83465   3.290   2.211   6.235  0.0588 -0.4644 -0.3192
  633MOL0     C83466   3.267   2.339   6.330 -0.6717 -0.4863  0.5557
  633MOL0     C83467   3.124   2.395   6.328 -0.6526 -0.9180 -0.3777
  633MOL0    Cl83468   3.003   2.260   6.300  0.7764 -0.0104 -0.0765
  633MOL0     C83469   4.187   2.401   6.421 -0.3948  0.9387  0.2115
  633MOL0     C83470   4.329   2.431   6.415 -0.0029 -0.2241  0.3295
  633MOL0     O83471   4.569   2.505   6.131 -0.0454  0.8477 -0.7469
  633MOL0     C83472   4.835   2.575   6.170  0.2646  0.6084  0.3466
  633MOL0     C83473   4.970   2.616   6.209  0.4961 -0.0101  0.1490
  633MOL0     N83474   5.284   2.336   6.697 -0.5543  0.2913 -0.1920
  633MOL0     N83475   5.269   2.267   6.805  0.1565  0.9248  0.6075
  633MOL0     C83476   5.051   2.442   7.707  0.9619  0.1151  0.4534
  633MOL0     C83477   5.052   2.441   7.848 -0.3685 -0.4650  1.4547
  633MOL0     C83478   4.922   2.304   8.282 -0.1029  0.7762  0.0459
  633MOL0     C83479   4.865   2.208   8.369  0.3138  0.2598 -1.0017
  633MOL0     C83480   4.887   2.226   8.503  0.2005  0.0233  0.5172
  633MOL0     C83481   4.956   2.341   8.546 -0.5415  0.5245  0.0427
  633MOL0     O83482   4.978   2.349   8.676  0.0547 -0.2558  0.7907
  633MOL0     C83483   4.925   2.475   8.725 -0.3549  0.5035 -0.8703
  633MOL0     C83484   4.956   2.488   8.877 -0.1008 -0.2587  0.3540
  633MOL0     C83485   5.103   2.493   8.913  1.1299 -0.6077 -0.7127
  633MOL0     C83486   5.185   2.614   8.870 -0.1836  0.3834 -0.0157
  633MOL0     C83487   5.316   2.620   8.935 -0.2718 -0.3335 -0.2206
  633MOL0     C83488   5.427   2.639   8.984 -0.2923 -0.8425 -0.0328
  633MOL0     C83489   5.019   2.435   8.460  0.0596  0.8729 -0.4677
  633MOL0     C83490   5.005   2.415   8.325  1.1764  0.6989  0.0940
  633MOL0     H83491   4.752   2.253   7.872 -1.3286  3.2755  2.6121
  633MOL0     H83492   4.777   2.257   7.656 -1.5006  0.3670  4.2019
  633MOL0     H83493   4.871   2.402   7.340  0.5718 -0.7164  0.1426
  633MOL0     H83494   4.768   2.338   7.461 -0.4623  1.8843 -1.5251
  633MOL0     H83495   4.792   2.146   7.313  0.5969 -1.5047 -0.8734
  633MOL0     H83496   4.888   2.110   7.456  0.5153 -2.0779 -1.4840
  633MOL0     H83497   5.102   2.171   7.338  0.3841 -0.1230 -0.1104
  633MOL0     H83498   4.997   2.219   7.193  0.2910  1.2247  0.1323
  633MOL0     H83499   5.036   1.952   7.331  1.3113  3.1508  1.8293
  633MOL0     H83500   4.919   1.981   7.201 -0.9615  2.6411 -0.8816
  633MOL0     H83501   5.149   1.882   7.155  4.6635  0.7602 -2.0260
  633MOL0     H83502   5.219   2.039   7.160 -2.1610  3.2801 -1.2194
  633MOL0     H83503   5.112   2.134   6.982  0.1516 -0.7454 -0.3493
  633MOL0     H83504   4.999   1.987   6.980  0.1180 -4.6453  1.0952
  633MOL0     H83505   5.231   1.866   6.949 -1.3086  0.5123 -0.4912
  633MOL0     H83506   5.165   1.944   6.806  0.8185  1.1121 -1.0384
  633MOL0     H83507   5.405   1.963   6.866 -0.1838 -1.9644 -0.4110
  633MOL0     H83508   5.360   2.078   6.988 -3.9245 -1.3509  0.6215
  633MOL0     H83509   5.449   2.054   6.623  2.0403 -0.1580  1.2113
  633MOL0     H83510   5.299   2.249   6.416 -1.3125 -0.4918  2.6687
  633MOL0     H83511   5.477   2.265   6.434  0.6696  0.9718 -0.5884
  633MOL0     H83512   5.463   2.496   6.458  0.6440  0.7588 -0.2912
  633MOL0     H83513   5.300   2.497   6.518  1.6523  3.1357 -2.2569
  633MOL0     H83514   5.364   2.455   6.224 -0.5548  0.8351  0.5859
  633MOL0     H83515   5.214   2.401   6.295 -0.5506  0.3863  0.2716
  633MOL0     H83516   5.227   2.652   6.188  0.9529  0.5029 -0.5341
  633MOL0     H83517   5.334   2.698   6.320  1.0309  0.5432 -3.0759
  633MOL0     H83518   4.990   2.531   6.525 -0.6609 -2.2425 -0.3115
  633MOL0     H83519   4.730   2.466   6.474 -2.2809 -0.7555 -1.9357
  633MOL0     H83520   4.431   2.238   6.152 -0.9389  0.8622 -0.9874
  633MOL0     H83521   4.188   2.152   6.176 -1.8711 -1.1629  2.4422
  633MOL0     H83522   3.953   2.139   6.204  0.3715  0.0281 -1.8497
  633MOL0     H83523   3.915   2.318   6.178  0.5371 -0.0120  1.6613
  633MOL0     H83524   3.781   2.300   6.379 -1.6439  0.9811  0.1250
  633MOL0     H83525   3.762   2.134   6.353 -0.3617  0.8795  0.3502
  633MOL0     H83526   3.687   2.186   6.102  1.4850  1.0818  0.3533
  633MOL0     H83527   3.678   2.352   6.150  0.2557  0.7629  1.9713
  633MOL0     H83528   3.554   2.120   6.309  3.1340  1.6796  2.9827
  633MOL0     H83529   3.520   2.284   6.339 -0.1644 -0.0832 -0.6853
  633MOL0     H83530   3.432   2.121   6.101  5.4333 -0.1600 -0.0765
  633MOL0     H83531   3.421   2.298   6.086 -0.0218 -1.0206 -0.1779
  633MOL0     H83532   3.268   2.130   6.306  0.5657  0.7730  1.3337
  633MOL0     H83533   3.218   2.216   6.153  1.0958  2.6123 -1.1602
  633MOL0     H83534   3.299   2.311   6.431 -2.4560  1.1178  1.6438
  633MOL0     H83535   3.342   2.411   6.297  0.6017 -2.2020 -0.4714
  633MOL0     H83536   3.115   2.467   6.247  1.0427  0.5416  0.6634
  633MOL0     H83537   3.086   2.442   6.419  0.3288  1.4517 -1.1280
  633MOL0     H83538   4.128   2.449   6.499  0.5488  0.2692  1.3743
  633MOL0     H83539   4.361   2.487   6.502 -0.1207 -4.6822  3.5905
  633MOL0     H83540   4.799   2.575   6.068 -1.7360 -2.7773  0.8857
  633MOL0     H83541   5.036   2.650   6.129 -0.7951 -1.7374 -1.7404
  633MOL0     H83542   5.109   2.515   7.650  2.9908 -0.1345  2.1056
  633MOL0     H83543   5.114   2.508   7.907 -0.2272 -0.6933  1.5630
  633MOL0     H83544   4.812   2.121   8.330 -2.6372  1.8262 -0.7965
  633MOL0     H83545   4.838   2.162   8.576 -2.8050  1.5007 -0.0499
  633MOL0     H83546   4.818   2.466   8.704  0.0874 -1.6731 -2.5358
  633MOL0     H83547   4.947   2.571   8.677  0.0320  1.4176  1.0327
  633MOL0     H83548   4.903   2.581   8.902  0.8369  1.2939 -2.8052
  633MOL0     H83549   4.902   2.407   8.926 -1.3844  0.8470  0.8516
  633MOL0     H83550   5.151   2.400   8.880  0.1551 -1.5991  0.5356
  633MOL0     H83551   5.095   2.496   9.022  0.1475  3.4801 -0.7414
  633MOL0     H83552   5.197   2.616   8.761 -2.4636  0.3549 -0.3210
  633MOL0     H83553   5.136   2.704   8.909 -2.0951 -2.0204  3.7599
  633MOL0     H83554   5.521   2.677   9.018 -0.0228  0.3781 -1.9856
  633MOL0     H83555   5.088   2.514   8.486  1.9500 -1.1934  1.1684
  633MOL0     H83556   5.067   2.473   8.257  0.6383  0.0621 -0.9839
  634MOL0     O83557   6.842   0.331   1.258  1.1178 -0.2903 -0.1357
  634MOL0     C83558   6.872   0.301   1.378  0.1251  0.1637 -0.1482
  634MOL0     O83559   6.932   0.181   1.419  0.5289  0.8347  1.2828
  634MOL0     C83560   6.973   0.087   1.323 -0.2142 -0.4777  0.3769
  634MOL0     C83561   6.960  -0.046   1.352 -0.2502 -0.6359 -0.1206
  634MOL0     C83562   7.023  -0.150   1.282  0.5876 -0.3631  0.2554
  634MOL0     C83563   7.081  -0.109   1.162  0.6147 -0.2616 -0.4937
  634MOL0     O83564   7.134  -0.209   1.087  0.4821  0.7834  0.6139
  634MOL0     C83565   7.041  -0.288   1.017 -0.1438  0.6726 -0.1969
  634MOL0     C83566   6.958  -0.216   0.914 -0.1416 -0.1256  0.4360
  634MOL0     C83567   6.850  -0.308   0.852 -0.6153  1.0657  0.0137
  634MOL0     C83568   6.910  -0.437   0.799 -0.0261  0.3438  0.2537
  634MOL0     C83569   6.799  -0.503   0.715  0.1284  0.5499  0.9712
  634MOL0     C83570   6.845  -0.634   0.652 -0.0435 -0.1842 -0.9559
  634MOL0     C83571   6.738  -0.708   0.573  1.5724 -0.9796 -0.2070
  634MOL0     C83572   6.793  -0.847   0.530  0.1919 -0.2955  0.6745
  634MOL0     N83573   6.884  -0.843   0.423  0.2929 -1.1728  0.3565
  634MOL0     C83574   6.836  -0.807   0.287  0.3225  0.9987  0.1669
  634MOL0     C83575   6.938  -0.780   0.211  1.0240  0.3998 -0.3174
  634MOL0     C83576   6.944  -0.753   0.062  0.5872 -0.0336  0.1833
  634MOL0     C83577   6.811  -0.757  -0.005  0.4324  0.2892 -0.5673
  634MOL0     C83578   6.836  -0.751  -0.161  0.2425 -0.5449  0.1552
  634MOL0     C83579   6.810  -0.881  -0.232 -0.4214  0.4619 -0.0232
  634MOL0     O83580   6.673  -0.904  -0.256 -0.6122  0.8379  0.5170
  634MOL0     C83581   6.620  -1.026  -0.305  0.8843 -1.1923 -0.0982
  634MOL0     C83582   6.488  -1.011  -0.339 -0.3737  0.4649  1.0128
  634MOL0     C83583   6.411  -1.126  -0.368 -1.3546 -0.3995  0.4647
  634MOL0     C83584   6.466  -1.251  -0.362 -0.2616  0.2855  0.1188
  634MOL0     C83585   6.376  -1.366  -0.402  0.4169 -1.0479  0.2527
  634MOL0     O83586   6.384  -1.477  -0.320 -0.8246 -0.7785 -0.6010
  634MOL0     C83587   6.332  -1.601  -0.357  1.0267 -0.5483 -0.1856
  634MOL0     C83588   6.297  -1.644  -0.494 -0.2108  0.8990  0.2884
  634MOL0     C83589   6.265  -1.780  -0.526  0.5084  0.5357 -0.1690
  634MOL0     C83590   6.260  -1.875  -0.412  0.0013  0.5054  0.5138
  634MOL0     O83591   6.238  -2.015  -0.432 -0.1577 -0.1358 -0.0519
  634MOL0     C83592   6.207  -2.061  -0.567 -0.7086  0.3020 -0.7331
  634MOL0     C83593   6.187  -2.211  -0.562  0.3387  1.1476 -0.1726
  634MOL0     C83594   6.089  -2.257  -0.679 -0.4829 -0.5350 -0.9802
  634MOL0     C83595   6.067  -2.409  -0.680 -0.6437  0.8936 -0.0685
  634MOL0     C83596   5.969  -2.436  -0.798 -0.2322  0.3934 -0.0030
  634MOL0     C83597   6.000  -2.567  -0.868 -0.3995  0.4426 -0.6570
  634MOL0     C83598   5.998  -2.677  -0.764 -0.0149 -1.1995 -0.0885
  634MOL0     C83599   6.002  -2.823  -0.800  0.4203 -0.3937 -0.8415
  634MOL0    Cl83600   6.097  -2.833  -0.956  0.0663 -0.2035  0.1988
  634MOL0     C83601   6.292  -1.830  -0.287  0.8680  0.8317  1.1137
  634MOL0     C83602   6.331  -1.699  -0.260  0.4829  0.2233 -0.8807
  634MOL0     O83603   6.301  -1.363  -0.498  0.6612  0.5169  0.1736
  634MOL0     C83604   6.598  -1.264  -0.327 -0.1262 -0.3627  0.4641
  634MOL0     C83605   6.677  -1.148  -0.300 -1.4947  0.1812 -0.0391
  634MOL0     N83606   7.047  -0.796   0.295  0.0543  0.6957  0.8287
  634MOL0     N83607   7.020  -0.818   0.421 -0.6617  0.9034 -0.6063
  634MOL0     C83608   7.107   0.023   1.140  0.1348 -0.4347  0.4796
  634MOL0     C83609   7.059   0.122   1.223  1.6062 -0.3714  0.3092
  634MOL0     C83610   6.812   0.391   1.484  0.3601 -0.0579 -0.2308
  634MOL0     C83611   6.707   0.480   1.462  0.1098  0.3832 -0.2375
  634MOL0     C83612   6.652   0.561   1.560 -0.1736 -0.4093 -0.6056
  634MOL0     C83613   6.705   0.546   1.687  0.1420 -0.1876 -0.7539
  634MOL0     O83614   6.661   0.623   1.797 -0.5206  0.2043  1.0507
  634MOL0     C83615   6.578   0.741   1.778 -0.1547 -0.5127 -0.2546
  634MOL0     C83616   6.534   0.788   1.916 -0.2764 -0.5072  0.2032
  634MOL0     C83617   6.427   0.691   1.983 -0.9895 -0.6967 -0.9406
  634MOL0     C83618   6.361   0.769   2.101  0.7404  0.4273 -0.5234
  634MOL0     C83619   6.453   0.806   2.213  0.6014  0.2777 -0.0695
  634MOL0     C83620   6.510   0.848   2.313  0.0718 -0.2315  0.5032
  634MOL0     C83621   6.793   0.446   1.721 -0.1918 -0.3046 -0.3009
  634MOL0     C83622   6.851   0.376   1.620 -0.4078 -0.2482 -0.0163
  634MOL0     H83623   6.900  -0.079   1.436  0.9453 -0.2264  0.9315
  634MOL0     H83624   7.000  -0.254   1.299  3.1487 -1.2584 -1.2262
  634MOL0     H83625   6.979  -0.345   1.086  1.6129  0.2000  1.0752
  634MOL0     H83626   7.098  -0.366   0.965 -2.0428 -1.5555  0.8976
  634MOL0     H83627   7.031  -0.184   0.838  1.2392 -2.2112  0.8034
  634MOL0     H83628   6.914  -0.122   0.950  0.3468 -0.0562  0.8649
  634MOL0     H83629   6.809  -0.247   0.770 -1.2163 -0.9475 -1.2517
  634MOL0     H83630   6.780  -0.338   0.930  0.4456 -1.2950  0.1244
  634MOL0     H83631   6.994  -0.405   0.735  0.8326  3.2239  2.5936
  634MOL0     H83632   6.947  -0.512   0.869  3.5672 -2.7461 -4.3301
  634MOL0     H83633   6.766  -0.429   0.641 -0.8192  0.3287  1.1533
  634MOL0     H83634   6.718  -0.528   0.785 -0.7783  1.6584  0.3556
  634MOL0     H83635   6.867  -0.698   0.738  3.0186 -0.3744 -1.7504
  634MOL0     H83636   6.938  -0.627   0.594  0.4186  0.9217 -0.1158
  634MOL0     H83637   6.654  -0.722   0.642  2.4382  0.4588  1.2329
  634MOL0     H83638   6.701  -0.646   0.491 -0.8101 -0.4556  1.1721
  634MOL0     H83639   6.706  -0.906   0.497 -0.4949 -1.4936  4.2265
  634MOL0     H83640   6.844  -0.884   0.619 -0.0930  0.4852  1.1689
  634MOL0     H83641   6.737  -0.814   0.243  0.0443  2.4698  0.4989
  634MOL0     H83642   7.005  -0.831   0.016  1.5917  0.5211  0.5525
  634MOL0     H83643   6.989  -0.654   0.052  0.0535  0.5513  2.7153
  634MOL0     H83644   6.747  -0.673   0.022 -1.1739 -1.5203  1.6113
  634MOL0     H83645   6.753  -0.843   0.029 -1.6001  1.0701 -1.8467
  634MOL0     H83646   6.777  -0.669  -0.203  1.2522  1.4507  2.3411
  634MOL0     H83647   6.942  -0.739  -0.184  0.1223 -2.0971 -1.3331
  634MOL0     H83648   6.838  -0.958  -0.160  1.8673  0.2162 -1.0843
  634MOL0     H83649   6.872  -0.890  -0.321 -0.9621 -1.8157 -0.2327
  634MOL0     H83650   6.434  -0.917  -0.336  2.3719  2.1789  0.1079
  634MOL0     H83651   6.307  -1.121  -0.398 -1.7118  0.4241  1.7854
  634MOL0     H83652   6.328  -1.596  -0.586 -1.4179 -0.9183 -1.1434
  634MOL0     H83653   6.245  -1.816  -0.626  3.9459 -2.1044 -0.1123
  634MOL0     H83654   6.293  -2.047  -0.633 -0.9957  0.0419 -1.1632
  634MOL0     H83655   6.122  -2.005  -0.608 -2.5480 -2.2823 -0.6554
  634MOL0     H83656   6.137  -2.247  -0.472 -1.4349 -2.5487 -2.3980
  634MOL0     H83657   6.282  -2.263  -0.571 -0.2822 -0.4316  1.7930
  634MOL0     H83658   6.127  -2.226  -0.776 -1.5875 -1.3513 -1.7091
  634MOL0     H83659   5.995  -2.202  -0.667  0.3168  0.1991  3.4382
  634MOL0     H83660   6.172  -2.433  -0.697  0.1065  2.2387  2.2689
  634MOL0     H83661   6.034  -2.439  -0.581 -2.4571  0.4057 -0.7775
  634MOL0     H83662   5.976  -2.356  -0.872 -0.9788 -0.9426 -1.5999
  634MOL0     H83663   5.869  -2.447  -0.755  0.6277 -1.9935  1.6230
  634MOL0     H83664   6.100  -2.557  -0.910 -1.0837 -0.8614 -2.7323
  634MOL0     H83665   5.931  -2.593  -0.948  0.7201  1.4696 -1.9924
  634MOL0     H83666   6.093  -2.663  -0.713  0.4835  0.3118 -1.3468
  634MOL0     H83667   5.917  -2.658  -0.693  0.9343  0.5714  0.5702
  634MOL0     H83668   5.905  -2.869  -0.822  0.6797 -2.4394  1.8190
  634MOL0     H83669   6.051  -2.886  -0.725  2.6941 -1.0519 -2.7571
  634MOL0     H83670   6.274  -1.909  -0.215 -1.6027 -2.0532 -2.2756
  634MOL0     H83671   6.364  -1.690  -0.157  2.0582 -0.5316 -1.2945
  634MOL0     H83672   6.634  -1.366  -0.320 -2.1459 -1.1138  0.6446
  634MOL0     H83673   6.779  -1.167  -0.268  0.0597  2.3097 -3.2375
  634MOL0     H83674   7.170   0.055   1.058  1.5371  0.1903  1.7542
  634MOL0     H83675   7.083   0.228   1.217  4.0894 -0.7194  2.2912
  634MOL0     H83676   6.655   0.502   1.370 -1.5173 -0.2765  0.4898
  634MOL0     H83677   6.582   0.642   1.543 -0.2004  0.8987  4.1691
  634MOL0     H83678   6.484   0.713   1.729 -0.1657 -0.4740 -0.2552
  634MOL0     H83679   6.616   0.818   1.710 -0.3989 -0.9792 -0.9302
  634MOL0     H83680   6.621   0.790   1.982 -1.7275 -1.4002  2.2585
  634MOL0     H83681   6.487   0.887   1.917  1.7761  0.5254 -0.7213
  634MOL0     H83682   6.474   0.598   2.016 -1.1984 -1.5678 -2.9487
  634MOL0     H83683   6.351   0.655   1.913 -1.3632 -1.0878 -0.3416
  634MOL0     H83684   6.327   0.860   2.051  1.5693 -0.0744 -2.0715
  634MOL0     H83685   6.272   0.725   2.148  0.0391  1.8624 -0.4456
  634MOL0     H83686   6.566   0.882   2.397 -0.7284  2.2054  0.1352
  634MOL0     H83687   6.825   0.432   1.824  2.3471  0.0239 -0.9769
  634MOL0     H83688   6.920   0.296   1.644 -1.2590 -0.9923 -0.0211
  635MOL0     O83689   1.482   3.373   1.790  0.3247  0.6109 -0.5834
  635MOL0     C83690   1.480   3.450   1.884 -0.1291 -0.4079  0.0796
  635MOL0     O83691   1.508   3.421   2.020  0.1743 -0.0841  0.6911
  635MOL0     C83692   1.539   3.293   2.054 -0.2156 -0.0089 -0.4890
  635MOL0     C83693   1.650   3.228   1.993 -0.2965 -0.1208  0.7343
  635MOL0     C83694   1.674   3.098   2.026  0.1732  0.2502 -0.3644
  635MOL0     C83695   1.603   3.021   2.116 -0.6717 -0.0794 -0.4082
  635MOL0     O83696   1.642   2.890   2.133  0.5028  0.4271  0.4920
  635MOL0     C83697   1.584   2.809   2.235  0.2899 -0.4177  0.2446
  635MOL0     C83698   1.674   2.814   2.354  0.6126  0.0572 -0.4010
  635MOL0     C83699   1.638   2.697   2.450 -0.8484  0.2294  0.4654
  635MOL0     C83700   1.757   2.633   2.520  0.5193  0.4172  0.0571
  635MOL0     C83701   1.712   2.497   2.595 -0.1763  1.1373 -0.7702
  635MOL0     C83702   1.590   2.512   2.692  0.6051  0.4218  0.1386
  635MOL0     C83703   1.622   2.602   2.813 -0.0700  0.1716  0.3754
  635MOL0     C83704   1.537   2.544   2.937 -0.7344  0.6751 -0.0371
  635MOL0     N83705   1.559   2.622   3.059  0.1944  0.5921  0.8190
  635MOL0     C83706   1.479   2.732   3.091  0.9798  0.8332 -0.4110
  635MOL0     C83707   1.461   2.728   3.227 -0.2454  0.1360  0.1791
  635MOL0     C83708   1.369   2.814   3.300  0.8369 -0.0165  0.8308
  635MOL0     C83709   1.434   2.928   3.387 -0.1196  0.8672  0.7801
  635MOL0     C83710   1.325   3.012   3.457  1.0875  0.9486 -0.1396
  635MOL0     C83711   1.270   3.111   3.352 -0.4974  0.0145  0.0254
  635MOL0     O83712   1.360   3.226   3.340 -0.6615  0.4406 -0.5821
  635MOL0     C83713   1.343   3.323   3.428  0.9900 -1.2839  0.3817
  635MOL0     C83714   1.280   3.330   3.557 -0.3679  1.1864 -0.0997
  635MOL0     C83715   1.282   3.439   3.640  0.5858  1.0065  0.8464
  635MOL0     C83716   1.358   3.554   3.607 -0.4744 -0.5295 -1.0473
  635MOL0     C83717   1.368   3.672   3.690 -0.4833  0.1176  0.6101
  635MOL0     O83718   1.387   3.790   3.618  0.1193  0.0176 -0.6520
  635MOL0     C83719   1.366   3.901   3.701 -0.3071 -0.2539  0.2024
  635MOL0     C83720   1.234   3.943   3.730 -0.7614  0.5656  0.1281
  635MOL0     C83721   1.214   4.057   3.811  0.1264 -0.4285  0.4966
  635MOL0     C83722   1.323   4.133   3.864  0.1456  0.0567  0.2339
  635MOL0     O83723   1.321   4.251   3.932 -0.3787  0.2231 -0.5446
  635MOL0     C83724   1.207   4.337   3.946  0.0312 -0.6202  0.0215
  635MOL0     C83725   1.252   4.473   3.997 -1.2464  0.2877  0.6726
  635MOL0     C83726   1.144   4.570   4.026  0.0519 -0.1293  0.2842
  635MOL0     C83727   1.067   4.605   3.899 -0.7856  0.5229 -0.5174
  635MOL0     C83728   0.948   4.704   3.931  0.4072 -1.4603 -0.6642
  635MOL0     C83729   1.000   4.841   3.981  0.1164 -0.8825 -0.7709
  635MOL0     C83730   1.106   4.922   3.892  0.1935  0.1872  0.0323
  635MOL0     C83731   1.132   5.063   3.960  0.9699 -0.3944 -0.0469
  635MOL0    Cl83732   1.228   5.033   4.110  0.1765 -0.5218  0.2408
  635MOL0     C83733   1.450   4.083   3.825  0.0882 -0.7652 -0.2308
  635MOL0     C83734   1.475   3.973   3.750  1.3001  0.2657 -0.2304
  635MOL0     O83735   1.360   3.659   3.810  0.2815  0.0137 -0.3299
  635MOL0     C83736   1.407   3.561   3.470 -1.1372  0.4234  0.0387
  635MOL0     C83737   1.390   3.448   3.388  0.0387 -0.4459  0.8486
  635MOL0     N83738   1.531   2.621   3.281 -0.1850  0.0927 -0.4392
  635MOL0     N83739   1.589   2.562   3.184 -0.5759 -0.2663 -0.4441
  635MOL0     C83740   1.510   3.087   2.194 -0.3279  0.4156  0.2045
  635MOL0     C83741   1.465   3.216   2.159  0.0218  0.3501  0.0421
  635MOL0     C83742   1.444   3.588   1.852 -0.3497 -0.0132 -0.0223
  635MOL0     C83743   1.432   3.688   1.944  0.3606 -0.2163 -0.9483
  635MOL0     C83744   1.406   3.824   1.899  0.8128 -0.4430 -0.0031
  635MOL0     C83745   1.407   3.864   1.762 -0.3012 -0.3814 -1.0450
  635MOL0     O83746   1.399   3.993   1.726  0.3872 -0.4636 -0.0062
  635MOL0     C83747   1.496   4.040   1.631 -0.0524  0.0157 -0.8487
  635MOL0     C83748   1.455   4.190   1.602 -0.1008 -0.6787 -0.3019
  635MOL0     C83749   1.414   4.264   1.715 -0.1144 -0.3345 -0.0975
  635MOL0     C83750   1.445   4.414   1.693 -0.4470  0.1922  0.2863
  635MOL0     C83751   1.375   4.483   1.581 -0.2032  1.1200 -0.8361
  635MOL0     C83752   1.304   4.533   1.501  0.1167 -0.7079  1.4090
  635MOL0     C83753   1.411   3.753   1.670 -0.4197 -0.1966 -0.3458
  635MOL0     C83754   1.429   3.624   1.718  0.5366 -0.1794 -0.0675
  635MOL0     H83755   1.716   3.264   1.915 -0.9355  3.2459  1.6136
  635MOL0     H83756   1.750   3.046   1.968  2.6138  3.7652 -0.6964
  635MOL0     H83757   1.577   2.708   2.193 -1.8447  0.1252 -0.8798
  635MOL0     H83758   1.486   2.833   2.279  0.5654 -0.8385  1.1101
  635MOL0     H83759   1.670   2.907   2.412 -1.7386  0.2372 -0.7719
  635MOL0     H83760   1.778   2.794   2.324  1.3905  0.2451  1.9372
  635MOL0     H83761   1.579   2.631   2.385 -0.1899  1.9068 -1.9865
  635MOL0     H83762   1.562   2.738   2.517 -0.8402 -0.2366  0.7698
  635MOL0     H83763   1.826   2.600   2.442 -0.9699 -2.9378 -0.0104
  635MOL0     H83764   1.795   2.709   2.589  0.2853  1.0824 -0.5328
  635MOL0     H83765   1.799   2.467   2.654 -0.2985 -1.6588 -1.8260
  635MOL0     H83766   1.695   2.425   2.514 -2.0778  2.4558 -1.6270
  635MOL0     H83767   1.568   2.408   2.719 -1.6537  0.0856 -2.5005
  635MOL0     H83768   1.503   2.552   2.639 -0.7688 -2.0709  0.3205
  635MOL0     H83769   1.729   2.585   2.829 -0.2641 -1.0007  0.5296
  635MOL0     H83770   1.596   2.707   2.796 -2.5597 -0.6970 -1.9653
  635MOL0     H83771   1.556   2.442   2.970  0.8812  1.2325  0.8995
  635MOL0     H83772   1.430   2.543   2.916 -1.4229 -0.2029  3.0492
  635MOL0     H83773   1.430   2.797   3.019 -0.0320  2.5692  1.7364
  635MOL0     H83774   1.307   2.750   3.364 -1.5457 -0.4820 -1.7274
  635MOL0     H83775   1.295   2.861   3.234  4.0789  3.1207 -0.8811
  635MOL0     H83776   1.496   2.981   3.315 -1.0272  0.7913 -0.0866
  635MOL0     H83777   1.501   2.873   3.454  2.1134 -1.8340 -3.1951
  635MOL0     H83778   1.242   2.944   3.476  0.1186  0.4189 -5.0416
  635MOL0     H83779   1.355   3.047   3.556 -2.1773  2.6539  0.3899
  635MOL0     H83780   1.172   3.152   3.379  0.6554  0.9409  3.1003
  635MOL0     H83781   1.252   3.074   3.250  0.9920  3.1356 -1.5101
  635MOL0     H83782   1.222   3.245   3.595  0.9361  0.2685 -0.1009
  635MOL0     H83783   1.228   3.423   3.732  0.8600 -0.0087  0.8401
  635MOL0     H83784   1.149   3.880   3.706 -1.0136 -0.0091  2.3191
  635MOL0     H83785   1.113   4.094   3.822  0.6858  1.8791 -1.4221
  635MOL0     H83786   1.140   4.293   4.021  0.3648  0.4096  0.9366
  635MOL0     H83787   1.157   4.351   3.849 -1.9549 -0.5803  1.0117
  635MOL0     H83788   1.324   4.520   3.930 -1.1605  0.3748  0.8242
  635MOL0     H83789   1.309   4.451   4.088 -1.4662 -2.3931  0.2395
  635MOL0     H83790   1.188   4.664   4.061 -2.5870  1.1803  0.3541
  635MOL0     H83791   1.086   4.541   4.114 -2.3210 -0.2065 -1.2243
  635MOL0     H83792   1.130   4.655   3.826 -2.0250  1.0132 -1.2901
  635MOL0     H83793   1.030   4.511   3.856  1.1863 -0.7121  0.3254
  635MOL0     H83794   0.878   4.671   4.008 -3.8283 -0.6592 -3.7669
  635MOL0     H83795   0.885   4.706   3.841 -0.9110 -1.8545  0.2258
  635MOL0     H83796   1.044   4.819   4.079  0.2834 -0.0161 -0.6409
  635MOL0     H83797   0.917   4.910   4.000 -0.8794 -2.3569  0.5418
  635MOL0     H83798   1.198   4.863   3.881  0.6950  0.9604  0.0421
  635MOL0     H83799   1.062   4.930   3.793  1.0159  0.7962 -0.3004
  635MOL0     H83800   1.037   5.117   3.973  1.7926  2.0243 -2.9410
  635MOL0     H83801   1.193   5.125   3.894  3.3518 -0.2920  2.1112
  635MOL0     H83802   1.532   4.148   3.854  0.9832 -2.9879  2.6326
  635MOL0     H83803   1.577   3.951   3.723  0.7401  0.4781 -2.8462
  635MOL0     H83804   1.464   3.642   3.427 -0.8467 -0.2893 -0.9647
  635MOL0     H83805   1.432   3.470   3.290 -1.3854  0.3924  0.3835
  635MOL0     H83806   1.460   3.049   2.282  4.9913 -1.3947  2.9358
  635MOL0     H83807   1.371   3.262   2.188 -1.8766 -1.7594 -2.3328
  635MOL0     H83808   1.432   3.670   2.051  2.6920  2.1390 -0.4598
  635MOL0     H83809   1.395   3.912   1.962 -1.7633  0.8590 -2.0391
  635MOL0     H83810   1.501   3.979   1.541 -2.8100  0.1925 -1.2128
  635MOL0     H83811   1.589   4.049   1.688 -0.1818  3.5048 -0.9697
  635MOL0     H83812   1.545   4.239   1.564  1.0664 -1.4957  1.2757
  635MOL0     H83813   1.376   4.177   1.528  1.0838 -3.1733 -1.2446
  635MOL0     H83814   1.455   4.232   1.811 -2.0236 -0.8589  0.5818
  635MOL0     H83815   1.307   4.244   1.725 -0.0893 -3.1733 -3.5624
  635MOL0     H83816   1.432   4.466   1.788  0.9844 -1.3876  1.3971
  635MOL0     H83817   1.550   4.434   1.671 -0.8239  3.4642  0.9206
  635MOL0     H83818   1.224   4.579   1.448  1.1373 -2.5948 -2.1613
  635MOL0     H83819   1.400   3.774   1.564 -3.3883  0.2159 -0.0524
  635MOL0     H83820   1.423   3.554   1.634  1.9637  2.2188 -2.3334
  636MOL0     O83821   7.783   9.591   4.786  0.1482 -0.1272  0.3120
  636MOL0     C83822   7.873   9.671   4.776 -0.3518 -0.0278  0.8093
  636MOL0     O83823   8.007   9.653   4.790  0.2512 -0.3974 -0.5609
  636MOL0     C83824   8.051   9.541   4.843 -0.6186 -0.1772 -0.2661
  636MOL0     C83825   7.997   9.493   4.972  1.0114 -0.8439 -0.0613
  636MOL0     C83826   8.042   9.379   5.029 -0.9985  0.0988 -0.3855
  636MOL0     C83827   8.123   9.292   4.959  0.4019  0.0080 -0.1604
  636MOL0     O83828   8.148   9.178   5.031 -0.1101 -0.2454  0.8857
  636MOL0     C83829   8.247   9.210   5.137 -0.3840 -0.0787 -0.8295
  636MOL0     C83830   8.290   9.090   5.207  0.2181  0.5665  0.1380
  636MOL0     C83831   8.371   9.136   5.328 -0.0076  0.3237  0.4140
  636MOL0     C83832   8.411   9.005   5.394 -0.0855 -0.4839 -0.4146
  636MOL0     C83833   8.468   9.033   5.541 -0.1300  0.5467  0.9702
  636MOL0     C83834   8.455   8.916   5.632  0.0378 -0.9370  0.3475
  636MOL0     C83835   8.495   8.946   5.772 -0.4319 -0.0975 -0.5225
  636MOL0     C83836   8.515   8.809   5.846  0.7802 -0.7463 -0.3974
  636MOL0     N83837   8.388   8.733   5.849  1.0049  0.0934  0.2331
  636MOL0     C83838   8.274   8.775   5.907 -0.1192  0.0680 -0.9138
  636MOL0     C83839   8.180   8.692   5.850  0.7243  0.4802  0.4361
  636MOL0     C83840   8.036   8.710   5.852 -0.7200 -0.5897 -0.2444
  636MOL0     C83841   7.953   8.673   5.726 -0.0001 -0.3015  0.1562
  636MOL0     C83842   7.805   8.681   5.762 -0.5732  0.9947  0.1441
  636MOL0     C83843   7.708   8.599   5.660 -0.4896 -0.7152  0.0911
  636MOL0     O83844   7.596   8.578   5.746  0.1669  0.4621 -0.2041
  636MOL0     C83845   7.485   8.522   5.685  0.9126 -0.5260 -0.1796
  636MOL0     C83846   7.397   8.455   5.773 -0.0832 -1.2846 -0.1046
  636MOL0     C83847   7.272   8.403   5.733 -0.0079  0.3822 -0.3258
  636MOL0     C83848   7.232   8.415   5.597  0.3308  0.9447 -0.4045
  636MOL0     C83849   7.101   8.364   5.542  0.0239 -0.8375  0.3669
  636MOL0     O83850   7.073   8.383   5.409  0.4126 -0.7346 -0.5619
  636MOL0     C83851   6.983   8.305   5.349 -0.3579 -0.4448 -0.2075
  636MOL0     C83852   6.859   8.353   5.311 -0.5098 -0.4371 -1.3107
  636MOL0     C83853   6.776   8.266   5.225 -0.4670  0.1440 -0.6651
  636MOL0     C83854   6.815   8.140   5.198  0.0247  0.1320  0.0723
  636MOL0     O83855   6.758   8.060   5.105 -1.0867 -1.7602  0.4303
  636MOL0     C83856   6.619   8.065   5.105  0.1939  0.5347 -0.0593
  636MOL0     C83857   6.576   7.955   4.997 -0.1928 -0.9795  0.0349
  636MOL0     C83858   6.411   7.964   4.982 -0.5687  0.0865 -0.1660
  636MOL0     C83859   6.362   7.895   4.855  0.8448  0.5858  0.1288
  636MOL0     C83860   6.398   7.964   4.727 -0.3649 -0.4766  0.4199
  636MOL0     C83861   6.328   7.909   4.602  0.1564  0.2732 -0.0972
  636MOL0     C83862   6.367   7.975   4.481 -0.2649  0.0688  0.6966
  636MOL0     C83863   6.268   7.965   4.369 -1.0434 -0.3288  0.0852
  636MOL0    Cl83864   6.283   8.097   4.246 -0.1821  0.1049  0.3545
  636MOL0     C83865   6.938   8.085   5.243 -0.2747 -0.7248  0.1574
  636MOL0     C83866   7.021   8.174   5.324 -0.2616  0.0687  0.4528
  636MOL0     O83867   7.044   8.289   5.620 -0.1256 -0.0563  0.6529
  636MOL0     C83868   7.315   8.480   5.508  0.2993 -0.4240 -0.5295
  636MOL0     C83869   7.447   8.518   5.546  0.4258 -0.0276 -0.4594
  636MOL0     N83870   8.244   8.606   5.760 -0.0622  1.0346 -0.3152
  636MOL0     N83871   8.375   8.621   5.768  0.3887  0.2756  0.3791
  636MOL0     C83872   8.176   9.330   4.833  0.4486  0.0937 -0.5335
  636MOL0     C83873   8.142   9.456   4.777 -1.2137  0.3261 -0.8493
  636MOL0     C83874   7.833   9.814   4.748 -0.3895  0.2749  0.8275
  636MOL0     C83875   7.702   9.861   4.758  0.4076  0.2239  0.4545
  636MOL0     C83876   7.666   9.995   4.738  0.1865 -0.4540 -0.7013
  636MOL0     C83877   7.767  10.094   4.712  0.0489 -0.1456  0.9383
  636MOL0     O83878   7.755  10.234   4.692  0.2864 -0.3967 -0.0471
  636MOL0     C83879   7.616  10.274   4.683 -0.0502 -0.5411 -1.1549
  636MOL0     C83880   7.603  10.430   4.689  0.5251  0.2866 -0.0824
  636MOL0     C83881   7.644  10.493   4.832  0.7218  0.1209  0.3098
  636MOL0     C83882   7.760  10.596   4.836 -0.2414  0.8081  0.9788
  636MOL0     C83883   7.723  10.709   4.741 -0.0362  0.7118  0.3916
  636MOL0     C83884   7.723  10.793   4.653  0.4762 -1.4777  0.7917
  636MOL0     C83885   7.898  10.048   4.705  0.3979  0.6012  0.4370
  636MOL0     C83886   7.932   9.914   4.721 -0.9568 -0.6975 -0.1030
  636MOL0     H83887   7.922   9.547   5.028  0.3251 -2.7899  0.9968
  636MOL0     H83888   7.997   9.351   5.123 -0.0838 -0.1378 -0.0087
  636MOL0     H83889   8.208   9.282   5.211  0.9684 -1.5607  1.4448
  636MOL0     H83890   8.334   9.251   5.086  1.9604 -2.0416  1.3203
  636MOL0     H83891   8.354   9.025   5.146 -1.5256  1.1994 -2.5303
  636MOL0     H83892   8.201   9.030   5.226  0.1038 -0.3160 -2.7819
  636MOL0     H83893   8.301   9.176   5.403  2.1924 -0.1245  2.8457
  636MOL0     H83894   8.455   9.203   5.311 -0.9143  1.4121  0.0791
  636MOL0     H83895   8.335   8.928   5.404 -1.3871  0.3525 -3.0163
  636MOL0     H83896   8.490   8.960   5.333 -0.1239 -0.4262 -0.5069
  636MOL0     H83897   8.416   9.118   5.586  0.9198  1.0183  1.3320
  636MOL0     H83898   8.568   9.072   5.516  0.0696 -0.3290  0.3697
  636MOL0     H83899   8.521   8.837   5.593  0.1774 -0.8875  0.4858
  636MOL0     H83900   8.351   8.882   5.624  0.5652 -2.1633 -3.6551
  636MOL0     H83901   8.585   9.008   5.773 -2.1864  2.7588  2.3535
  636MOL0     H83902   8.420   9.003   5.829  0.8194 -2.7328  4.2927
  636MOL0     H83903   8.547   8.812   5.951 -3.3297 -5.4153  1.3787
  636MOL0     H83904   8.583   8.754   5.780  1.1836  2.0065 -2.4271
  636MOL0     H83905   8.259   8.862   5.970  0.9341  0.5589 -1.3025
  636MOL0     H83906   8.027   8.817   5.871  0.3498 -0.7460  1.2832
  636MOL0     H83907   7.991   8.639   5.922  1.1395 -3.0616 -1.4070
  636MOL0     H83908   7.964   8.570   5.691  0.1532 -1.3666  3.0776
  636MOL0     H83909   7.967   8.742   5.642  0.1910  0.1342  0.5379
  636MOL0     H83910   7.788   8.630   5.857 -4.0867  2.0657  0.2258
  636MOL0     H83911   7.781   8.788   5.769 -1.9422  0.7984 -1.0457
  636MOL0     H83912   7.744   8.503   5.621  1.9658  0.4644 -0.7691
  636MOL0     H83913   7.676   8.667   5.580 -2.7698 -0.9224  0.7685
  636MOL0     H83914   7.414   8.447   5.880 -3.9305  2.6429  1.0911
  636MOL0     H83915   7.213   8.344   5.802  0.6999 -0.8034 -0.7026
  636MOL0     H83916   6.822   8.454   5.327  0.8831 -0.1261  0.2145
  636MOL0     H83917   6.698   8.320   5.173 -2.3476 -0.8370  1.0304
  636MOL0     H83918   6.584   8.167   5.091 -2.7775 -0.0134  2.4652
  636MOL0     H83919   6.587   8.024   5.201  3.6687 -2.1367  0.1672
  636MOL0     H83920   6.608   7.855   5.029  0.9486 -0.8470 -0.6321
  636MOL0     H83921   6.628   7.979   4.904  0.8843 -2.0262  0.3322
  636MOL0     H83922   6.374   8.066   4.993 -0.4309  0.4103 -2.2961
  636MOL0     H83923   6.374   7.911   5.071  1.4987  0.3854  0.9353
  636MOL0     H83924   6.414   7.799   4.849 -2.2507 -1.3270  1.5967
  636MOL0     H83925   6.254   7.879   4.864  0.6251  0.4369 -2.3146
  636MOL0     H83926   6.505   7.975   4.707 -0.5493  0.2640 -0.1977
  636MOL0     H83927   6.357   8.065   4.733  1.2218  0.1444  1.4058
  636MOL0     H83928   6.220   7.910   4.615 -0.0947  2.4857 -1.7344
  636MOL0     H83929   6.359   7.804   4.598 -0.0698  0.1837  0.4519
  636MOL0     H83930   6.387   8.083   4.487 -1.8922  0.6768 -2.3499
  636MOL0     H83931   6.454   7.914   4.456 -1.4652 -2.2749  1.8882
  636MOL0     H83932   6.167   7.975   4.409  0.5118  2.2748  3.9089
  636MOL0     H83933   6.287   7.864   4.330 -0.5696 -0.7031  1.2546
  636MOL0     H83934   6.967   7.985   5.211 -0.8342 -0.2589 -1.9858
  636MOL0     H83935   7.119   8.143   5.360 -2.4994 -3.7354  4.0725
  636MOL0     H83936   7.278   8.492   5.406  1.0310 -2.7338 -1.1174
  636MOL0     H83937   7.508   8.564   5.469  1.2416 -1.4629 -0.7157
  636MOL0     H83938   8.254   9.268   4.789 -0.1828 -0.4979 -0.8368
  636MOL0     H83939   8.205   9.486   4.695  1.7874 -0.1605  1.1239
  636MOL0     H83940   7.627   9.786   4.778  0.1920  0.2069 -0.3927
  636MOL0     H83941   7.562  10.023   4.753  0.3843 -0.2384  0.2705
  636MOL0     H83942   7.575  10.245   4.780  1.5606  0.3205 -0.1782
  636MOL0     H83943   7.568  10.238   4.591  0.6918  0.5704 -1.9920
  636MOL0     H83944   7.665  10.468   4.608  2.0419 -2.0116 -0.0720
  636MOL0     H83945   7.500  10.457   4.662  1.2765  0.6721 -2.8751
  636MOL0     H83946   7.665  10.412   4.902 -1.7024 -2.5094 -1.7399
  636MOL0     H83947   7.558  10.549   4.869 -0.1729  0.4707 -2.0800
  636MOL0     H83948   7.759  10.634   4.939 -3.4692  0.4244  1.1762
  636MOL0     H83949   7.849  10.549   4.793  0.5032  2.8428  0.1998
  636MOL0     H83950   7.721  10.865   4.573 -0.0827 -3.2513 -0.8937
  636MOL0     H83951   7.969  10.124   4.675 -0.1370  0.5120 -1.1615
  636MOL0     H83952   8.036   9.895   4.699 -0.2854  1.2819  1.1180
  637MOL0     O83953  10.084   7.066   2.636  0.0217  0.6959 -0.9863
  637MOL0     C83954  10.170   7.008   2.580  0.0826  0.5141 -0.6637
  637MOL0     O83955  10.160   6.895   2.499 -0.0726 -0.0807  0.5104
  637MOL0     C83956  10.032   6.846   2.493 -0.4451  0.6380  0.6149
  637MOL0     C83957   9.992   6.739   2.566  0.6977 -0.0032 -0.1254
  637MOL0     C83958   9.869   6.662   2.534  0.0264 -0.5990  0.0254
  637MOL0     C83959   9.777   6.711   2.441 -0.2607  0.5886 -0.5982
  637MOL0     O83960   9.660   6.642   2.414  0.3053  0.5920  0.9953
  637MOL0     C83961   9.640   6.504   2.457  0.0486  0.4125 -0.6681
  637MOL0     C83962   9.499   6.458   2.416 -0.2811  0.1275 -0.3535
  637MOL0     C83963   9.496   6.452   2.267  0.8035  0.2832 -0.1933
  637MOL0     C83964   9.368   6.387   2.214 -0.1133 -1.4471 -1.0838
  637MOL0     C83965   9.364   6.376   2.065  0.7195 -1.0104 -0.6480
  637MOL0     C83966   9.240   6.307   2.019  1.0286  0.0611  0.0641
  637MOL0     C83967   9.224   6.294   1.865 -0.1784  0.0682 -1.5948
  637MOL0     C83968   9.258   6.427   1.800  0.5333  0.0244  0.4844
  637MOL0     N83969   9.160   6.536   1.833 -0.6791 -0.2257 -0.3986
  637MOL0     C83970   9.194   6.653   1.898 -0.0598  0.2088  0.5184
  637MOL0     C83971   9.076   6.703   1.917  0.6099 -0.3097  0.7340
  637MOL0     C83972   9.063   6.840   1.988 -0.0604  0.8559 -0.3420
  637MOL0     C83973   9.081   6.824   2.142  0.3570  0.3856 -0.0229
  637MOL0     C83974   9.002   6.936   2.206  0.3459 -0.5280  0.5395
  637MOL0     C83975   9.061   7.071   2.165 -0.9924 -0.4139 -0.2922
  637MOL0     O83976   9.018   7.175   2.241  0.7752  0.4805 -0.0696
  637MOL0     C83977   9.065   7.194   2.368 -0.2262  0.1368 -0.4889
  637MOL0     C83978   8.987   7.185   2.481  0.5286 -0.7883 -0.8582
  637MOL0     C83979   9.032   7.200   2.612 -1.1574  0.2427  0.1812
  637MOL0     C83980   9.163   7.244   2.632  0.7042 -0.2406 -0.0813
  637MOL0     C83981   9.200   7.252   2.780 -0.0891 -0.2639  1.5272
  637MOL0     O83982   9.114   7.225   2.890 -0.6590  0.2635  0.6536
  637MOL0     C83983   9.177   7.183   3.008  0.4062  0.0124 -0.2610
  637MOL0     C83984   9.134   7.241   3.124 -0.5689  0.6741  0.4537
  637MOL0     C83985   9.199   7.216   3.244 -0.3737  0.8695  0.5150
  637MOL0     C83986   9.309   7.122   3.257 -0.6933 -0.6214  0.4611
  637MOL0     O83987   9.386   7.085   3.366  0.0906  0.4726  0.0105
  637MOL0     C83988   9.348   7.142   3.493 -0.2858 -0.5961  1.2565
  637MOL0     C83989   9.419   7.103   3.620 -0.1492 -0.1852 -0.0154
  637MOL0     C83990   9.376   7.193   3.742 -0.4587  0.1978  0.2277
  637MOL0     C83991   9.458   7.170   3.869  0.5853  0.1935  0.6877
  637MOL0     C83992   9.405   7.245   4.002  0.3221 -1.1575  0.4020
  637MOL0     C83993   9.451   7.393   3.994 -0.0724  0.2375 -0.1044
  637MOL0     C83994   9.409   7.458   4.135  0.3664 -0.7360  0.8850
  637MOL0     C83995   9.476   7.404   4.258 -0.6662  0.4589 -1.1347
  637MOL0    Cl83996   9.449   7.514   4.403 -0.4403  0.6094 -0.1393
  637MOL0     C83997   9.364   7.077   3.136 -0.4520  0.6738 -1.0681
  637MOL0     C83998   9.297   7.100   3.014  0.4343 -0.3046  0.2139
  637MOL0     O83999   9.312   7.296   2.795 -0.0164 -0.0998 -0.1602
  637MOL0     C84000   9.254   7.261   2.521  0.9312  0.3988  0.6980
  637MOL0     C84001   9.202   7.232   2.394 -0.2066 -0.3903 -0.2013
  637MOL0     N84002   8.978   6.630   1.873 -0.0702  0.7664 -0.0458
  637MOL0     N84003   9.029   6.525   1.823 -0.0420  0.1363  0.1197
  637MOL0     C84004   9.822   6.821   2.363  0.5612 -1.0112  0.2936
  637MOL0     C84005   9.948   6.884   2.385  0.1728 -0.2249  0.2260
  637MOL0     C84006  10.313   7.056   2.593  0.7419  0.3276  0.2873
  637MOL0     C84007  10.425   6.978   2.572  0.0183  0.0609  0.6869
  637MOL0     C84008  10.562   7.025   2.577 -0.3962  0.6752  0.4976
  637MOL0     C84009  10.585   7.159   2.613  0.0599  1.2396 -0.8422
  637MOL0     O84010  10.706   7.214   2.650  0.6829  0.6367  0.2103
  637MOL0     C84011  10.824   7.131   2.672 -0.1043 -0.5408  0.6867
  637MOL0     C84012  10.922   7.216   2.747 -0.3724  0.2752  0.6247
  637MOL0     C84013  10.893   7.220   2.893  0.1480  0.3251 -0.0224
  637MOL0     C84014  10.985   7.295   2.986  0.4744  0.4887 -1.0046
  637MOL0     C84015  11.105   7.226   3.041 -1.0384  0.6876  0.2226
  637MOL0     C84016  11.222   7.196   3.080  0.0671  0.2356 -0.0329
  637MOL0     C84017  10.474   7.246   2.619 -0.1029 -0.2906  0.1324
  637MOL0     C84018  10.339   7.196   2.607  0.4693  0.1323 -0.9462
  637MOL0     H84019  10.058   6.711   2.648 -2.5322 -1.7701  2.1242
  637MOL0     H84020   9.847   6.570   2.587 -3.8242  0.7085  1.0714
  637MOL0     H84021   9.661   6.500   2.564 -3.1376 -2.9116  0.0479
  637MOL0     H84022   9.721   6.447   2.411  1.2851  1.7798 -0.2455
  637MOL0     H84023   9.433   6.538   2.450  2.1946  1.4923  1.5789
  637MOL0     H84024   9.467   6.365   2.463 -0.5373  0.2315 -0.3203
  637MOL0     H84025   9.571   6.385   2.225  0.8605  1.7093 -2.5783
  637MOL0     H84026   9.520   6.552   2.229 -3.2077  2.6465  2.6014
  637MOL0     H84027   9.342   6.285   2.246 -4.8795 -0.1940 -0.0520
  637MOL0     H84028   9.293   6.458   2.251  2.1825  1.5974 -1.8352
  637MOL0     H84029   9.457   6.326   2.036  0.3107 -1.2025 -1.6724
  637MOL0     H84030   9.362   6.481   2.037  1.3757  0.3503  3.7207
  637MOL0     H84031   9.150   6.354   2.059  1.4290 -0.6397  1.8876
  637MOL0     H84032   9.243   6.205   2.056  1.3712  1.5499  4.7610
  637MOL0     H84033   9.305   6.221   1.850  0.8898  0.2195  2.3391
  637MOL0     H84034   9.130   6.250   1.832  1.4486 -3.5362 -1.9226
  637MOL0     H84035   9.241   6.410   1.693 -0.7546  0.5773  0.5768
  637MOL0     H84036   9.362   6.456   1.821 -0.1424  2.0646  1.2994
  637MOL0     H84037   9.290   6.689   1.935 -0.6021  2.2136  0.1027
  637MOL0     H84038   8.970   6.890   1.959 -0.7938  1.3144  2.4977
  637MOL0     H84039   9.141   6.901   1.942  0.1935 -1.4476 -3.2837
  637MOL0     H84040   9.186   6.821   2.173  0.4404  0.9673 -0.2442
  637MOL0     H84041   9.028   6.737   2.181 -0.8724  1.1847  0.1321
  637MOL0     H84042   8.898   6.942   2.172  0.6533  1.2501 -0.1742
  637MOL0     H84043   9.015   6.923   2.314  4.0668 -1.1937  0.1354
  637MOL0     H84044   9.030   7.098   2.063  0.9143 -1.0843 -1.0905
  637MOL0     H84045   9.169   7.054   2.159 -1.1088 -1.8860  1.1202
  637MOL0     H84046   8.882   7.160   2.472  0.1908 -0.4362  1.3966
  637MOL0     H84047   8.965   7.189   2.697  0.5007  0.7966  1.6281
  637MOL0     H84048   9.051   7.310   3.122  0.2507  1.9131  3.8186
  637MOL0     H84049   9.166   7.254   3.341 -1.1576 -2.0181  1.4681
  637MOL0     H84050   9.242   7.122   3.510 -0.4961 -1.1193 -0.4581
  637MOL0     H84051   9.358   7.249   3.471 -0.4677 -0.7108  0.5720
  637MOL0     H84052   9.527   7.112   3.603 -0.2659 -0.8886 -1.2326
  637MOL0     H84053   9.396   7.001   3.654  2.3062 -1.8018 -2.7404
  637MOL0     H84054   9.272   7.169   3.767  0.6714 -0.6070  5.0957
  637MOL0     H84055   9.373   7.297   3.708 -2.0148  0.3750  0.8514
  637MOL0     H84056   9.462   7.062   3.889 -3.4141 -0.4726 -1.2019
  637MOL0     H84057   9.558   7.209   3.849  1.4718 -3.5452 -3.7545
  637MOL0     H84058   9.444   7.193   4.089  0.4088 -0.3840  0.8326
  637MOL0     H84059   9.297   7.246   4.022  0.3482  1.1801  0.7314
  637MOL0     H84060   9.405   7.439   3.906  0.6803  1.4652  0.1085
  637MOL0     H84061   9.559   7.406   3.978 -0.3540  1.3602 -1.3085
  637MOL0     H84062   9.431   7.563   4.113  5.3967 -1.9566 -1.4410
  637MOL0     H84063   9.301   7.459   4.152  0.4574  1.1223  1.5721
  637MOL0     H84064   9.583   7.388   4.243 -0.5061 -0.2106  0.4712
  637MOL0     H84065   9.431   7.305   4.273  1.0418  0.1898  3.9467
  637MOL0     H84066   9.451   7.013   3.141 -1.8576 -1.3708 -1.5532
  637MOL0     H84067   9.346   7.061   2.925  0.8141 -1.9848  1.1369
  637MOL0     H84068   9.358   7.291   2.519  0.2677  3.1441 -3.1650
  637MOL0     H84069   9.258   7.245   2.301 -1.5909  1.3067 -0.8622
  637MOL0     H84070   9.768   6.866   2.280  0.6382  0.6052  1.0868
  637MOL0     H84071   9.976   6.973   2.328  0.6064 -0.1788  0.5002
  637MOL0     H84072  10.394   6.875   2.560  0.6003 -0.3472  2.4451
  637MOL0     H84073  10.650   6.962   2.577  1.0502  2.5134  2.8145
  637MOL0     H84074  10.867   7.105   2.574 -1.3524 -1.9200  0.4680
  637MOL0     H84075  10.815   7.033   2.720  2.7794 -1.8438 -1.1311
  637MOL0     H84076  11.016   7.160   2.737  0.4648  1.5797  0.9042
  637MOL0     H84077  10.938   7.306   2.687  2.8385  0.3516  1.4142
  637MOL0     H84078  10.886   7.116   2.925  0.6905  1.0725  2.7666
  637MOL0     H84079  10.796   7.270   2.903  0.8672  1.3622  3.0193
  637MOL0     H84080  11.008   7.393   2.944 -1.0939  2.1640  1.7304
  637MOL0     H84081  10.929   7.327   3.075  2.4137  4.7029 -1.0757
  637MOL0     H84082  11.322   7.174   3.111  1.0028  3.6310 -0.1912
  637MOL0     H84083  10.495   7.352   2.633  3.5327 -1.1923  3.1810
  637MOL0     H84084  10.255   7.264   2.604 -1.8288 -2.5056 -0.3057
  638MOL0     O84085   2.149   5.264   3.784 -0.3229 -0.6124 -0.1197
  638MOL0     C84086   2.203   5.180   3.705  0.0598 -0.0105 -1.0672
  638MOL0     O84087   2.342   5.173   3.680 -0.2640 -0.1310 -0.1702
  638MOL0     C84088   2.430   5.255   3.747  0.2199  0.9755  0.4364
  638MOL0     C84089   2.417   5.401   3.776 -0.4917  0.4358 -0.1923
  638MOL0     C84090   2.522   5.478   3.818 -0.2406  0.6763 -0.0810
  638MOL0     C84091   2.645   5.412   3.849  0.2189  0.0477  0.0674
  638MOL0     O84092   2.746   5.498   3.881 -0.3749  0.4164 -0.4551
  638MOL0     C84093   2.883   5.450   3.858  0.1904 -0.8169 -0.3953
  638MOL0     C84094   2.974   5.571   3.860 -1.1100  0.0984 -0.0737
  638MOL0     C84095   3.130   5.544   3.877 -0.2415  0.7435  0.6496
  638MOL0     C84096   3.193   5.455   3.774 -0.3474 -0.0877 -0.0841
  638MOL0     C84097   3.296   5.363   3.839 -0.2835  0.4000 -0.4578
  638MOL0     C84098   3.215   5.239   3.852  0.5038  0.0045 -0.3729
  638MOL0     C84099   3.304   5.145   3.936  1.3653  0.1003 -0.4379
  638MOL0     C84100   3.265   5.004   3.911  0.8405  0.0015 -0.3113
  638MOL0     N84101   3.124   4.976   3.940 -0.5217 -0.6484  0.3859
  638MOL0     C84102   3.058   4.989   4.057  0.1198 -0.1462 -0.2889
  638MOL0     C84103   2.934   4.946   4.030  0.2701 -0.4168 -0.0207
  638MOL0     C84104   2.820   4.935   4.132 -0.0908 -1.2076  0.5216
  638MOL0     C84105   2.853   4.848   4.248 -0.4737 -0.7255 -0.6835
  638MOL0     C84106   2.810   4.705   4.231  0.7969  0.1796 -0.9850
  638MOL0     C84107   2.866   4.615   4.344 -0.6517  0.1130 -0.4783
  638MOL0     O84108   2.802   4.644   4.468 -0.4518 -0.0571  0.7192
  638MOL0     C84109   2.700   4.565   4.517  0.1749  0.3110 -1.0353
  638MOL0     C84110   2.595   4.625   4.595  0.7372 -1.0194 -0.7358
  638MOL0     C84111   2.490   4.546   4.646 -0.5239 -0.7812  0.1078
  638MOL0     C84112   2.503   4.408   4.629 -0.7608 -0.1476 -0.6178
  638MOL0     C84113   2.396   4.325   4.668  0.7515  0.4461 -0.2798
  638MOL0     O84114   2.349   4.352   4.792  0.9549 -0.0818  0.3298
  638MOL0     C84115   2.254   4.272   4.854  0.1981 -0.3334  0.2150
  638MOL0     C84116   2.227   4.305   4.993 -1.7029  0.0876  0.0158
  638MOL0     C84117   2.148   4.225   5.070 -0.4406 -0.3284  0.6156
  638MOL0     C84118   2.083   4.113   5.020  0.2388 -0.0395 -0.3569
  638MOL0     O84119   2.034   4.021   5.109  0.5519  0.0751 -0.1058
  638MOL0     C84120   1.995   3.888   5.079 -0.2124  0.1659 -0.0343
  638MOL0     C84121   1.871   3.866   5.170 -0.1209  0.1132 -0.9718
  638MOL0     C84122   1.900   3.888   5.320 -0.4403  1.1732  0.6737
  638MOL0     C84123   1.787   3.861   5.411  0.2021 -0.6096  0.0257
  638MOL0     C84124   1.824   3.841   5.559  0.1658  0.4005 -0.3666
  638MOL0     C84125   1.707   3.787   5.640 -0.5028 -0.2249  0.5220
  638MOL0     C84126   1.762   3.732   5.775 -0.6692  0.3471  0.0622
  638MOL0     C84127   1.652   3.660   5.855  0.2040  0.4800 -0.4060
  638MOL0    Cl84128   1.505   3.764   5.892 -0.3820 -0.1955 -0.1322
  638MOL0     C84129   2.082   4.096   4.880 -0.9857 -0.0367  0.0697
  638MOL0     C84130   2.173   4.171   4.797  0.6052 -0.4485  0.7106
  638MOL0     O84131   2.348   4.244   4.589  0.9155  0.4088 -0.6549
  638MOL0     C84132   2.613   4.351   4.563  0.3122 -0.4008 -1.0521
  638MOL0     C84133   2.708   4.423   4.504 -0.2656  0.0069 -0.2859
  638MOL0     N84134   2.928   4.911   3.893  0.5476 -0.6429 -0.2609
  638MOL0     N84135   3.036   4.928   3.848  0.2509  0.4149  0.7410
  638MOL0     C84136   2.662   5.279   3.822 -0.3465  0.4355 -0.0202
  638MOL0     C84137   2.561   5.209   3.758 -1.2771 -0.4530  0.3323
  638MOL0     C84138   2.117   5.076   3.637  0.0415  0.3568 -0.4905
  638MOL0     C84139   2.168   4.957   3.573  0.0771 -0.2183  0.0694
  638MOL0     C84140   2.077   4.881   3.501  1.0141  1.3769 -0.1703
  638MOL0     C84141   1.934   4.893   3.498 -0.4060  0.2207  0.3469
  638MOL0     O84142   1.850   4.810   3.421 -1.1416 -0.5656 -0.1724
  638MOL0     C84143   1.703   4.803   3.455 -0.2634  0.6889 -1.4152
  638MOL0     C84144   1.645   4.668   3.413 -0.1931 -0.2988  0.4684
  638MOL0     C84145   1.490   4.666   3.419  0.2507  0.4678  1.1459
  638MOL0     C84146   1.412   4.634   3.556  0.3197  0.1664  0.7936
  638MOL0     C84147   1.423   4.756   3.640  0.1921  0.2069 -0.0246
  638MOL0     C84148   1.420   4.861   3.701 -0.5465  0.5297 -1.1235
  638MOL0     C84149   1.893   5.003   3.575 -0.3277 -0.1732  0.6277
  638MOL0     C84150   1.980   5.091   3.639 -0.3185 -0.3482 -0.5931
  638MOL0     H84151   2.320   5.446   3.758  0.3434  3.2527  1.6310
  638MOL0     H84152   2.518   5.586   3.828 -1.3919  0.4582  2.5147
  638MOL0     H84153   2.893   5.406   3.758  0.3685  1.8501 -1.6420
  638MOL0     H84154   2.917   5.374   3.928  1.4473 -0.3772 -0.4914
  638MOL0     H84155   2.951   5.631   3.949 -0.0402  0.9887 -0.3712
  638MOL0     H84156   2.949   5.632   3.773  0.4941  1.8452  0.6194
  638MOL0     H84157   3.147   5.506   3.978 -0.1992 -0.1774  0.3069
  638MOL0     H84158   3.182   5.640   3.875  0.7668  0.2541  1.6879
  638MOL0     H84159   3.111   5.406   3.720 -1.2658  1.3020  0.0152
  638MOL0     H84160   3.247   5.521   3.705 -2.7602  3.4790  1.1199
  638MOL0     H84161   3.322   5.384   3.943 -2.8004 -1.3819  0.6250
  638MOL0     H84162   3.394   5.355   3.792 -1.3105 -1.9755 -2.4194
  638MOL0     H84163   3.186   5.203   3.753  2.1748  1.2435 -1.3837
  638MOL0     H84164   3.130   5.249   3.919  1.6437  1.3863  0.9317
  638MOL0     H84165   3.406   5.164   3.901  0.9321  0.4427 -1.5548
  638MOL0     H84166   3.317   5.161   4.044 -2.0919 -1.5599  0.3453
  638MOL0     H84167   3.325   4.938   3.973 -1.5741  1.3237  3.8301
  638MOL0     H84168   3.292   4.980   3.807  2.5089 -2.7598  0.6710
  638MOL0     H84169   3.101   5.025   4.150 -0.1189  0.3184 -0.3600
  638MOL0     H84170   2.725   4.914   4.083 -0.3772 -1.3529  1.1271
  638MOL0     H84171   2.801   5.036   4.169  0.7752 -0.3744 -1.1891
  638MOL0     H84172   2.810   4.886   4.341  1.3977 -1.2257  0.4509
  638MOL0     H84173   2.962   4.845   4.256 -0.5637 -0.0012  1.3040
  638MOL0     H84174   2.701   4.700   4.233  0.8155 -1.8368 -1.9639
  638MOL0     H84175   2.843   4.672   4.132  1.8671 -0.6557 -0.3787
  638MOL0     H84176   2.968   4.656   4.351 -0.7558  0.5087 -1.1725
  638MOL0     H84177   2.868   4.509   4.319 -0.7256 -0.3177  1.2449
  638MOL0     H84178   2.605   4.732   4.609  3.6438 -1.1584 -1.1829
  638MOL0     H84179   2.412   4.585   4.710 -0.0995  0.4386 -0.0950
  638MOL0     H84180   2.280   4.391   5.034  0.8097  0.9808 -4.4323
  638MOL0     H84181   2.137   4.244   5.176  0.1161  2.5795  0.2551
  638MOL0     H84182   2.069   3.813   5.109  0.2145  0.1983 -0.9700
  638MOL0     H84183   1.964   3.877   4.974 -2.2623  4.7556 -0.1653
  638MOL0     H84184   1.826   3.767   5.157 -0.9462  0.3594 -0.1050
  638MOL0     H84185   1.805   3.939   5.123  1.1744  2.2632  0.3894
  638MOL0     H84186   1.932   3.990   5.345  1.2685  0.4600  1.5669
  638MOL0     H84187   1.979   3.818   5.350 -2.5159 -1.4455  0.3299
  638MOL0     H84188   1.717   3.945   5.409  1.6326  0.7861  2.6226
  638MOL0     H84189   1.743   3.770   5.370  2.1019 -1.2344 -0.7399
  638MOL0     H84190   1.853   3.941   5.592  1.6575 -0.2137  0.3026
  638MOL0     H84191   1.916   3.781   5.558  0.7506  1.2790 -0.4199
  638MOL0     H84192   1.665   3.703   5.584 -2.2988  1.6394 -1.1098
  638MOL0     H84193   1.624   3.858   5.653  0.3971  1.0448 -0.5017
  638MOL0     H84194   1.845   3.666   5.748 -1.6478 -0.8574 -0.0808
  638MOL0     H84195   1.797   3.819   5.832 -2.9948  1.0736  0.4708
  638MOL0     H84196   1.700   3.617   5.943  0.3747 -1.1975 -1.2801
  638MOL0     H84197   1.628   3.574   5.792  1.0437  1.0092 -1.4859
  638MOL0     H84198   2.024   4.016   4.835 -2.8559  1.4358 -0.2400
  638MOL0     H84199   2.158   4.168   4.689 -2.2657  1.4806  0.9536
  638MOL0     H84200   2.617   4.243   4.550 -2.5262 -0.4776 -1.9762
  638MOL0     H84201   2.791   4.381   4.449  0.4698  1.7455 -0.5772
  638MOL0     H84202   2.759   5.230   3.826 -0.5147 -0.2307 -2.6399
  638MOL0     H84203   2.583   5.107   3.728  3.2607 -0.0898  1.6517
  638MOL0     H84204   2.275   4.958   3.562  0.2215  2.1702  0.9031
  638MOL0     H84205   2.097   4.789   3.446 -2.1469 -0.5714  1.6195
  638MOL0     H84206   1.652   4.876   3.391 -0.8605  0.6630 -0.9761
  638MOL0     H84207   1.680   4.819   3.560 -0.2767  0.2727 -1.3512
  638MOL0     H84208   1.676   4.656   3.309 -1.1034 -2.5148  0.3908
  638MOL0     H84209   1.685   4.591   3.479  0.1070  0.3041  0.9997
  638MOL0     H84210   1.475   4.579   3.354  1.8907  1.8395 -1.2408
  638MOL0     H84211   1.468   4.761   3.369  0.7099  0.2890  0.5816
  638MOL0     H84212   1.306   4.613   3.539  0.4282 -0.2418  0.5958
  638MOL0     H84213   1.462   4.547   3.601 -3.3809 -1.7099  1.6653
  638MOL0     H84214   1.420   4.960   3.742  2.6579  0.9732 -1.9122
  638MOL0     H84215   1.786   5.019   3.585 -0.0603  1.1487  1.6124
  638MOL0     H84216   1.930   5.174   3.690 -0.1715  1.0951 -2.6739
  639MOL0     O84217   3.872   6.239   2.831 -0.0050 -0.5620 -0.9106
  639MOL0     C84218   3.871   6.170   2.731  0.1186  0.7359 -0.3586
  639MOL0     O84219   3.977   6.103   2.674  0.1447 -0.7750 -0.0057
  639MOL0     C84220   4.104   6.110   2.731  0.3441 -1.0147 -0.6653
  639MOL0     C84221   4.162   6.011   2.812 -0.0852 -0.6819  0.6783
  639MOL0     C84222   4.276   6.040   2.878  0.2769 -0.4498  0.9979
  639MOL0     C84223   4.343   6.161   2.863  0.4386  0.1136  0.1292
  639MOL0     O84224   4.460   6.184   2.937  0.2598 -0.9702  0.7996
  639MOL0     C84225   4.467   6.136   3.069 -0.2482  0.2318 -0.4544
  639MOL0     C84226   4.588   6.203   3.137 -0.4610  0.6175 -0.3161
  639MOL0     C84227   4.631   6.147   3.278 -0.4817 -0.9660 -0.4835
  639MOL0     C84228   4.764   6.204   3.312 -0.2743 -0.7747 -0.4286
  639MOL0     C84229   4.795   6.213   3.467 -0.3297  0.7183  0.5282
  639MOL0     C84230   4.922   6.147   3.518 -0.0519  0.2790 -0.3109
  639MOL0     C84231   5.049   6.240   3.505  0.4246 -1.1514 -0.0402
  639MOL0     C84232   5.174   6.221   3.588 -0.8738  0.5870 -0.0919
  639MOL0     N84233   5.249   6.101   3.538 -0.2863 -0.2883 -0.2166
  639MOL0     C84234   5.315   6.089   3.420  0.3272 -0.7300 -0.2904
  639MOL0     C84235   5.350   5.957   3.404  0.2119 -0.2110  0.7034
  639MOL0     C84236   5.405   5.881   3.282  0.1606 -0.1702 -0.4334
  639MOL0     C84237   5.285   5.835   3.195  0.8948  0.6188  1.3081
  639MOL0     C84238   5.321   5.744   3.081 -0.4619 -0.1914 -0.2469
  639MOL0     C84239   5.410   5.804   2.970  0.3529  0.1974 -0.4442
  639MOL0     O84240   5.345   5.915   2.914  0.2782  0.4670 -0.2324
  639MOL0     C84241   5.289   5.893   2.792 -0.1093 -0.5301 -0.0905
  639MOL0     C84242   5.185   5.805   2.773  0.2589 -0.5212  0.2360
  639MOL0     C84243   5.130   5.775   2.654 -0.3933  0.8746 -0.7447
  639MOL0     C84244   5.181   5.832   2.533 -1.0524 -0.9728 -0.1724
  639MOL0     C84245   5.125   5.799   2.400  0.0971 -0.1451 -0.0829
  639MOL0     O84246   5.015   5.717   2.399 -0.5244 -0.0883  0.4142
  639MOL0     C84247   4.927   5.719   2.305 -0.6316 -0.0557 -0.0462
  639MOL0     C84248   4.856   5.828   2.274 -0.7096 -0.0873  0.4347
  639MOL0     C84249   4.765   5.837   2.168 -0.8156 -0.2549  1.0197
  639MOL0     C84250   4.732   5.723   2.092 -0.0699 -1.1138 -1.0288
  639MOL0     O84251   4.633   5.718   2.001  1.0260 -0.0484 -0.6017
  639MOL0     C84252   4.516   5.651   2.048  0.4343 -0.0169 -1.2911
  639MOL0     C84253   4.401   5.673   1.947 -0.2000  0.8363  0.1686
  639MOL0     C84254   4.296   5.570   1.941  0.1398 -1.0577 -0.2214
  639MOL0     C84255   4.205   5.599   1.820  0.0385 -0.7034 -1.1969
  639MOL0     C84256   4.113   5.486   1.789  0.3133  0.1515 -0.6520
  639MOL0     C84257   3.986   5.489   1.871  0.2650  0.3831  0.4538
  639MOL0     C84258   3.880   5.586   1.804  0.0452  0.1017  1.1043
  639MOL0     C84259   3.834   5.695   1.901 -0.1861 -0.3052 -0.8222
  639MOL0    Cl84260   3.721   5.807   1.799  0.1871 -0.0790  0.2627
  639MOL0     C84261   4.789   5.606   2.140  0.2984 -0.4757 -0.0676
  639MOL0     C84262   4.881   5.602   2.239 -0.9488  0.1488  0.5611
  639MOL0     O84263   5.180   5.850   2.305  0.8838 -0.1782 -0.2333
  639MOL0     C84264   5.300   5.915   2.554 -1.0883 -0.3221 -0.4160
  639MOL0     C84265   5.350   5.947   2.683 -0.1103  0.5738 -0.2177
  639MOL0     N84266   5.296   5.893   3.515  0.3126  1.7089 -0.0768
  639MOL0     N84267   5.242   5.977   3.591 -0.1056 -0.4804  0.4126
  639MOL0     C84268   4.295   6.243   2.763  0.4476  0.5250  0.8112
  639MOL0     C84269   4.172   6.228   2.704 -1.4215 -0.0622 -0.0430
  639MOL0     C84270   3.736   6.173   2.651 -0.2065 -0.8132  1.3087
  639MOL0     C84271   3.631   6.262   2.691  0.7551  0.0400  0.3643
  639MOL0     C84272   3.522   6.266   2.610  0.0537 -0.5544  0.3187
  639MOL0     C84273   3.502   6.179   2.502  0.4027  0.5000  0.5126
  639MOL0     O84274   3.380   6.191   2.432 -0.6778 -0.5629 -0.2284
  639MOL0     C84275   3.358   6.127   2.305 -0.9277 -0.0139 -0.0783
  639MOL0     C84276   3.213   6.146   2.267  0.1362  0.5773 -0.0916
  639MOL0     C84277   3.183   6.283   2.205 -1.1082 -0.1281 -0.0753
  639MOL0     C84278   3.036   6.301   2.192  0.5420 -0.7229  0.9803
  639MOL0     C84279   2.984   6.429   2.131 -0.6404  0.3204 -0.2833
  639MOL0     C84280   2.958   6.532   2.074  0.3775 -0.0348 -0.0705
  639MOL0     C84281   3.605   6.091   2.455 -0.0663 -0.2129 -0.5377
  639MOL0     C84282   3.730   6.093   2.530 -0.2382  0.1457  0.7997
  639MOL0     H84283   4.094   5.928   2.827 -0.2041 -0.7261 -0.0609
  639MOL0     H84284   4.314   5.964   2.946  2.9952  0.9003  1.1278
  639MOL0     H84285   4.473   6.027   3.066 -0.4184  0.2350 -1.1842
  639MOL0     H84286   4.377   6.171   3.121  1.3523  0.5927  2.2376
  639MOL0     H84287   4.568   6.309   3.156 -0.2051  0.3943  1.3001
  639MOL0     H84288   4.673   6.181   3.071 -0.1320 -2.9575  1.1030
  639MOL0     H84289   4.647   6.039   3.268 -0.2827 -0.9159 -0.7462
  639MOL0     H84290   4.551   6.160   3.351 -0.3483 -0.1749 -0.4700
  639MOL0     H84291   4.847   6.148   3.269  1.3669 -1.7174  3.5368
  639MOL0     H84292   4.779   6.304   3.270  1.8861 -0.3915  1.1192
  639MOL0     H84293   4.713   6.159   3.514 -1.5952 -0.7072 -2.9481
  639MOL0     H84294   4.790   6.314   3.507  1.1792  1.1127 -0.1816
  639MOL0     H84295   4.943   6.048   3.477  3.8355  0.6687  0.3387
  639MOL0     H84296   4.903   6.117   3.622  3.8448 -0.2993  0.3855
  639MOL0     H84297   5.082   6.224   3.402  1.5541  0.1364  0.0938
  639MOL0     H84298   5.018   6.345   3.507 -0.7943 -1.4574 -1.0891
  639MOL0     H84299   5.152   6.218   3.695 -1.4850 -0.7737 -0.2355
  639MOL0     H84300   5.237   6.310   3.575 -2.3122  1.6564 -0.0136
  639MOL0     H84301   5.329   6.162   3.342 -2.3936  1.1601  0.8168
  639MOL0     H84302   5.467   5.794   3.308 -0.3267 -0.5447 -0.5076
  639MOL0     H84303   5.470   5.944   3.221 -0.9900  1.1711 -0.3415
  639MOL0     H84304   5.243   5.931   3.163 -1.3972 -0.5333  0.6271
  639MOL0     H84305   5.209   5.786   3.256 -1.5165  1.0693 -1.1076
  639MOL0     H84306   5.374   5.658   3.124 -2.1144 -1.4955 -0.6878
  639MOL0     H84307   5.235   5.695   3.033  0.1168 -0.9975 -0.4894
  639MOL0     H84308   5.424   5.720   2.901  1.2769  0.7111 -0.8991
  639MOL0     H84309   5.509   5.820   3.015 -0.7584  2.5175  1.3846
  639MOL0     H84310   5.132   5.757   2.855  1.0311 -4.4695 -1.3387
  639MOL0     H84311   5.054   5.698   2.643 -3.3601  3.5256 -0.2033
  639MOL0     H84312   4.867   5.916   2.337  2.2119 -1.1229  1.5540
  639MOL0     H84313   4.709   5.927   2.145  0.2303  0.0407 -0.5170
  639MOL0     H84314   4.473   5.690   2.141 -2.5506  2.3103 -3.4552
  639MOL0     H84315   4.528   5.542   2.049 -1.5797 -0.3260  1.1614
  639MOL0     H84316   4.457   5.665   1.853 -0.4057 -0.6345  0.1544
  639MOL0     H84317   4.364   5.776   1.958  1.4452  1.7017 -1.6508
  639MOL0     H84318   4.244   5.578   2.037  1.9816  0.2503  0.7495
  639MOL0     H84319   4.320   5.465   1.923 -6.1434 -3.2197  1.5650
  639MOL0     H84320   4.149   5.692   1.830  1.3006  0.3099 -3.0356
  639MOL0     H84321   4.262   5.623   1.730  1.7991 -2.3656 -0.5920
  639MOL0     H84322   4.165   5.392   1.811  0.9758 -0.0201 -2.7170
  639MOL0     H84323   4.084   5.483   1.684  3.7998 -0.0206 -1.7233
  639MOL0     H84324   4.005   5.510   1.976  0.3132 -4.7991  1.7382
  639MOL0     H84325   3.954   5.386   1.889 -1.2125  0.8353  0.5712
  639MOL0     H84326   3.919   5.634   1.714 -1.1680 -3.9205 -1.9064
  639MOL0     H84327   3.792   5.530   1.771 -1.0578  0.8201  2.7153
  639MOL0     H84328   3.920   5.738   1.952  0.7371 -2.4263 -0.4809
  639MOL0     H84329   3.777   5.654   1.985 -1.6004  3.8930  0.5428
  639MOL0     H84330   4.751   5.516   2.093  1.5711  0.3599 -2.9094
  639MOL0     H84331   4.917   5.501   2.253 -0.4518  0.0586 -1.1166
  639MOL0     H84332   5.353   5.944   2.464 -2.2636  1.6371 -0.5192
  639MOL0     H84333   5.433   6.017   2.694 -0.0076  0.2007  1.7101
  639MOL0     H84334   4.352   6.332   2.738  0.6606  0.0910 -0.2854
  639MOL0     H84335   4.125   6.313   2.655 -0.6835  1.3027  1.5381
  639MOL0     H84336   3.644   6.326   2.777  5.1117 -0.7140  0.5017
  639MOL0     H84337   3.446   6.333   2.649 -0.5517 -0.4922 -0.9263
  639MOL0     H84338   3.367   6.018   2.307  1.5876  0.1568  1.3473
  639MOL0     H84339   3.429   6.167   2.232 -1.5170 -2.7567 -2.3295
  639MOL0     H84340   3.201   6.076   2.184  0.5643  1.2012 -0.6864
  639MOL0     H84341   3.161   6.113   2.357 -0.4167  2.4524  0.3173
  639MOL0     H84342   3.217   6.286   2.102 -2.2925 -1.5481 -0.5543
  639MOL0     H84343   3.246   6.355   2.258 -2.6640  2.0910 -1.1277
  639MOL0     H84344   3.010   6.208   2.140 -1.5778  1.1110 -1.4665
  639MOL0     H84345   2.986   6.288   2.288  1.9337 -0.7520  1.7209
  639MOL0     H84346   2.919   6.620   2.027 -4.0877 -1.9441 -0.4706
  639MOL0     H84347   3.592   6.023   2.371 -0.4538 -1.8735  0.8043
  639MOL0     H84348   3.806   6.020   2.505 -1.1869 -0.0370 -1.9007
  640MOL0     O84349  10.309   7.358  10.478 -0.5351 -0.1803  0.0204
  640MOL0     C84350  10.363   7.370  10.369  0.7469  0.4261  0.7268
  640MOL0     O84351  10.436   7.480  10.324  0.6115  0.3325 -0.1046
  640MOL0     C84352  10.460   7.589  10.405 -0.4971 -0.1706 -0.4021
  640MOL0     C84353  10.527   7.594  10.527  0.7583  0.4200  0.1621
  640MOL0     C84354  10.551   7.714  10.592  0.2585 -0.2915  0.4453
  640MOL0     C84355  10.530   7.836  10.526  0.6800 -0.5827  0.2281
  640MOL0     O84356  10.565   7.961  10.576 -0.5239 -0.4706  0.0066
  640MOL0     C84357  10.517   8.012  10.693  0.4794  0.0370 -0.2820
  640MOL0     C84358  10.578   8.152  10.718 -0.2136 -0.8546  0.7188
  640MOL0     C84359  10.612   8.252  10.590  1.1276  0.8286 -0.8986
  640MOL0     C84360  10.602   8.397  10.629  0.1239  0.3778 -0.2975
  640MOL0     C84361  10.650   8.493  10.505  0.5439 -0.4180 -0.1539
  640MOL0     C84362  10.680   8.637  10.544 -0.5525 -0.4606 -0.1511
  640MOL0     C84363  10.730   8.704  10.415  0.0245 -0.3903 -0.9866
  640MOL0     C84364  10.800   8.835  10.451 -1.0511  0.1237 -0.0603
  640MOL0     N84365  10.893   8.877  10.341  0.7086  0.1397 -0.2006
  640MOL0     C84366  11.017   8.817  10.305 -0.2250  0.5263 -0.8277
  640MOL0     C84367  11.062   8.888  10.193  0.6476  0.6805 -0.6161
  640MOL0     C84368  11.182   8.865  10.108  0.4964  0.3826  1.9263
  640MOL0     C84369  11.249   8.996  10.070 -0.2946 -0.1898 -0.1484
  640MOL0     C84370  11.392   8.956  10.011  0.3299  0.4650 -0.7998
  640MOL0     C84371  11.470   9.084   9.994  1.3688  0.0502  0.7018
  640MOL0     O84372  11.611   9.068   9.962  0.8192  0.5401 -0.2917
  640MOL0     C84373  11.643   9.045   9.829 -0.4608 -0.4602  0.8901
  640MOL0     C84374  11.702   8.922   9.790 -0.3919 -0.0816  0.3391
  640MOL0     C84375  11.735   8.903   9.655  0.0438  0.1390 -0.4180
  640MOL0     C84376  11.726   9.013   9.561 -0.0687 -0.1429 -0.5598
  640MOL0     C84377  11.776   9.003   9.419 -0.3252  0.6497 -1.1903
  640MOL0     O84378  11.781   8.883   9.364 -0.4685  0.2332 -0.0293
  640MOL0     C84379  11.796   8.871   9.229 -0.1843  0.1167 -0.2636
  640MOL0     C84380  11.697   8.921   9.140 -0.4806  1.0111  0.5548
  640MOL0     C84381  11.716   8.922   9.005 -0.6939 -0.3601 -0.0939
  640MOL0     C84382  11.841   8.888   8.952 -0.2843 -0.5069 -0.3691
  640MOL0     O84383  11.863   8.898   8.813  0.3546 -0.4122  0.5627
  640MOL0     C84384  11.963   8.814   8.759  0.2527  0.1092 -0.3563
  640MOL0     C84385  11.960   8.825   8.608 -0.8570  0.0999  1.2578
  640MOL0     C84386  12.053   8.731   8.530 -0.3115 -0.5585  0.1810
  640MOL0     C84387  12.050   8.760   8.379  0.8362 -0.5122  0.2286
  640MOL0     C84388  11.955   8.668   8.303 -0.6567  0.0906  0.2756
  640MOL0     C84389  11.977   8.666   8.145 -1.3217 -0.3557  0.3016
  640MOL0     C84390  11.863   8.592   8.068  0.4247  0.1702 -0.3420
  640MOL0     C84391  11.883   8.540   7.923 -0.2673 -0.1978 -0.3302
  640MOL0    Cl84392  11.819   8.380   7.913  0.1579  0.3430  0.2984
  640MOL0     C84393  11.936   8.845   9.040  0.2579  0.3391 -0.4255
  640MOL0     C84394  11.920   8.838   9.177 -0.3085 -0.2505  0.2631
  640MOL0     O84395  11.793   9.107   9.367  0.1345  0.0049  0.1287
  640MOL0     C84396  11.671   9.141   9.610  0.1982 -0.1047  0.1105
  640MOL0     C84397  11.624   9.148   9.737 -0.1920  0.4410  0.4966
  640MOL0     N84398  10.962   8.982  10.170 -0.4228 -0.3360 -0.9279
  640MOL0     N84399  10.865   8.970  10.249 -0.2177 -0.0427  0.5123
  640MOL0     C84400  10.477   7.828  10.398  0.3353  0.4840 -0.3889
  640MOL0     C84401  10.448   7.711  10.340  0.4686 -0.2544 -0.7476
  640MOL0     C84402  10.317   7.272  10.266  0.4441 -0.0742  0.2600
  640MOL0     C84403  10.204   7.194  10.298  0.1273  0.2674 -0.0580
  640MOL0     C84404  10.166   7.091  10.212 -1.2339  0.3158  1.3389
  640MOL0     C84405  10.227   7.072  10.083  0.6638 -0.5165  0.1340
  640MOL0     O84406  10.183   6.991   9.989 -0.0262 -0.1712 -0.4756
  640MOL0     C84407  10.038   6.995   9.970  0.2974  1.0607  0.1868
  640MOL0     C84408  10.003   6.858   9.923  0.8593 -0.2830 -0.2398
  640MOL0     C84409   9.959   6.769  10.040  0.2636 -0.3353  0.3211
  640MOL0     C84410  10.038   6.636  10.032  0.0400 -1.0916 -1.0911
  640MOL0     C84411  10.018   6.549  10.150  1.0633 -0.3198  0.7020
  640MOL0     C84412   9.975   6.489  10.249  0.2219 -0.3998  0.0911
  640MOL0     C84413  10.332   7.160  10.051  0.3839  0.9289  1.0561
  640MOL0     C84414  10.385   7.252  10.143  0.4449 -1.0527  0.3657
  640MOL0     H84415  10.531   7.498  10.578 -0.0747  0.8237  1.0312
  640MOL0     H84416  10.586   7.718  10.695 -0.8244 -0.1085  0.8138
  640MOL0     H84417  10.533   7.950  10.782 -1.8322  1.0829  0.9593
  640MOL0     H84418  10.410   8.027  10.676  0.3650  0.9356  1.0073
  640MOL0     H84419  10.676   8.135  10.765  0.4384  2.7983  0.9285
  640MOL0     H84420  10.510   8.207  10.783  0.4605  1.2830 -0.3046
  640MOL0     H84421  10.543   8.225  10.509 -0.5972  1.2654  0.3916
  640MOL0     H84422  10.715   8.229  10.560  1.1372  0.7680 -0.8209
  640MOL0     H84423  10.502   8.421  10.667  0.0311 -1.8946  1.0574
  640MOL0     H84424  10.669   8.408  10.715 -1.2950 -0.7331  1.0036
  640MOL0     H84425  10.572   8.481  10.430 -0.6441 -1.2221  1.1522
  640MOL0     H84426  10.742   8.445  10.470  1.3000  1.6810 -1.1553
  640MOL0     H84427  10.752   8.624  10.625  0.5203  2.8153 -0.4626
  640MOL0     H84428  10.591   8.692  10.576 -0.4280 -0.6440  0.5378
  640MOL0     H84429  10.811   8.642  10.375 -0.3861 -2.4337  1.1725
  640MOL0     H84430  10.650   8.723  10.343 -0.4197  0.9753 -0.1660
  640MOL0     H84431  10.854   8.814  10.544 -3.0326 -1.8718  0.7309
  640MOL0     H84432  10.722   8.910  10.470  0.0570  0.9301  1.4950
  640MOL0     H84433  11.066   8.735  10.357  1.9242  2.8537  1.0349
  640MOL0     H84434  11.158   8.811  10.016  1.6299  1.4784  0.9456
  640MOL0     H84435  11.249   8.799  10.164  3.2346  0.7606 -0.5811
  640MOL0     H84436  11.263   9.056  10.160  0.1291  1.9027 -1.5239
  640MOL0     H84437  11.192   9.057   9.999 -1.2906 -3.7426 -2.6782
  640MOL0     H84438  11.448   8.891  10.078  0.3377  2.8952  1.7047
  640MOL0     H84439  11.380   8.911   9.911 -1.9928 -1.2311  0.1434
  640MOL0     H84440  11.469   9.148  10.083 -1.9344  0.0776  0.7781
  640MOL0     H84441  11.417   9.140   9.917 -0.9200 -2.7615  0.0564
  640MOL0     H84442  11.733   8.840   9.853  2.8102  0.4063 -0.4188
  640MOL0     H84443  11.769   8.804   9.625  3.7025  0.8622  0.8423
  640MOL0     H84444  11.609   8.961   9.190 -1.1393  0.4255 -0.1157
  640MOL0     H84445  11.640   8.967   8.941 -1.0910  1.6524  1.6902
  640MOL0     H84446  11.975   8.713   8.798  0.0878  0.9664  2.0781
  640MOL0     H84447  12.065   8.847   8.782  0.2768  0.1949 -0.5788
  640MOL0     H84448  11.996   8.924   8.579  0.1152 -0.1419  1.5869
  640MOL0     H84449  11.859   8.814   8.569  1.0669 -1.3489 -4.2444
  640MOL0     H84450  12.023   8.628   8.550 -1.8863  0.4922  4.1286
  640MOL0     H84451  12.157   8.734   8.564  0.5148  1.4849 -2.1852
  640MOL0     H84452  12.021   8.862   8.351  0.6828 -0.4601  0.5733
  640MOL0     H84453  12.147   8.736   8.334  0.3466 -2.1951  0.0107
  640MOL0     H84454  11.855   8.699   8.335  1.3371  1.8155  5.9775
  640MOL0     H84455  11.969   8.569   8.348 -2.3224 -0.8659 -1.1596
  640MOL0     H84456  12.070   8.614   8.123 -1.3946 -0.7696  0.9294
  640MOL0     H84457  11.980   8.767   8.104  0.7923 -1.1121 -1.5522
  640MOL0     H84458  11.856   8.513   8.144  1.1237  1.9561  1.6720
  640MOL0     H84459  11.775   8.656   8.077  1.1548  2.7364 -6.4540
  640MOL0     H84460  11.984   8.528   7.882 -0.3984 -2.7636 -0.0770
  640MOL0     H84461  11.834   8.614   7.860 -2.5760 -0.7032  0.7575
  640MOL0     H84462  12.031   8.807   9.004  0.1152  1.3955 -2.0075
  640MOL0     H84463  12.013   8.805   9.222  0.7756 -0.5327 -2.0184
  640MOL0     H84464  11.649   9.214   9.533 -1.3634  0.3153  0.9273
  640MOL0     H84465  11.574   9.243   9.754  3.2476  2.3861  0.6567
  640MOL0     H84466  10.467   7.924  10.347  1.0684  0.5036 -0.5084
  640MOL0     H84467  10.407   7.723  10.240 -1.2974  3.8720  0.2374
  640MOL0     H84468  10.152   7.211  10.392  2.2659  2.4617  0.8367
  640MOL0     H84469  10.081   7.027  10.238 -0.0839 -2.0358 -0.2515
  640MOL0     H84470  10.028   7.070   9.891  0.7370  2.4139  1.3724
  640MOL0     H84471   9.971   7.029  10.049  0.5858  2.8258 -0.2750
  640MOL0     H84472   9.917   6.856   9.855 -0.8135 -0.5575  1.7933
  640MOL0     H84473  10.080   6.812   9.860  1.8362 -2.2912  2.2435
  640MOL0     H84474   9.860   6.725  10.022  0.8880 -0.8385 -2.3316
  640MOL0     H84475   9.983   6.811  10.138 -3.2030 -1.1605  1.6891
  640MOL0     H84476  10.003   6.584   9.943 -1.7439  0.5201 -1.3785
  640MOL0     H84477  10.145   6.656  10.022 -0.2421 -0.5937 -3.7422
  640MOL0     H84478   9.945   6.437  10.338  2.9890  0.1252  1.4562
  640MOL0     H84479  10.377   7.148   9.954 -2.7736  2.1744 -0.7139
  640MOL0     H84480  10.465   7.323  10.127 -0.1915 -0.0576  1.3645
  641MOL0     O84481   1.278  10.124   7.778  0.0602 -0.8827 -0.1278
  641MOL0     C84482   1.192  10.153   7.857 -0.3496  0.4532 -0.3840
  641MOL0     O84483   1.204  10.134   7.998  0.1270 -0.5070  0.2402
  641MOL0     C84484   1.304  10.061   8.049  0.2981  0.3365  1.1865
  641MOL0     C84485   1.293   9.931   8.098  0.2297 -0.2728  0.0546
  641MOL0     C84486   1.405   9.872   8.153  0.7495  0.6340 -1.0733
  641MOL0     C84487   1.527   9.936   8.172  0.8730 -0.4387  0.5616
  641MOL0     O84488   1.640   9.861   8.218  0.9366  0.3716  0.4926
  641MOL0     C84489   1.771   9.912   8.247  0.2658 -0.1984 -0.3908
  641MOL0     C84490   1.801   9.931   8.399  0.2463 -0.5142  1.6499
  641MOL0     C84491   1.702  10.042   8.464  1.3484  0.0670  0.1785
  641MOL0     C84492   1.747  10.049   8.612  0.0023 -0.8737  0.6179
  641MOL0     C84493   1.635  10.099   8.695  0.7095 -0.3073  0.4564
  641MOL0     C84494   1.683  10.143   8.841  0.3544 -1.0597 -0.4338
  641MOL0     C84495   1.595  10.240   8.919  0.0541 -0.1730  0.0903
  641MOL0     C84496   1.455  10.190   8.929 -0.7606 -0.7317 -0.0274
  641MOL0     N84497   1.370  10.280   9.004  0.4778 -0.1930  0.1092
  641MOL0     C84498   1.286  10.369   8.936 -0.7741 -0.4609 -0.2878
  641MOL0     C84499   1.223  10.429   9.035 -0.4332  0.1420 -0.0277
  641MOL0     C84500   1.115  10.534   9.038  0.4389  0.2265  0.3197
  641MOL0     C84501   0.973  10.484   9.024  0.9116 -0.2656 -0.3973
  641MOL0     C84502   0.889  10.452   9.152 -0.9060  0.2137 -0.3586
  641MOL0     C84503   0.944  10.337   9.223  0.9247  0.1150 -0.7139
  641MOL0     O84504   0.881  10.310   9.353 -0.6787  0.4153  0.0862
  641MOL0     C84505   0.913  10.385   9.456 -0.9111 -0.9515 -0.9975
  641MOL0     C84506   0.841  10.369   9.573  0.3855 -0.6553  0.8033
  641MOL0     C84507   0.870  10.448   9.689 -0.6766 -0.8339  0.5520
  641MOL0     C84508   0.979  10.535   9.685  0.4639 -0.2367 -0.6488
  641MOL0     C84509   1.021  10.601   9.807  0.8684 -0.5219  0.5024
  641MOL0     O84510   1.129  10.678   9.790 -0.4567  0.3790  0.3918
  641MOL0     C84511   1.191  10.754   9.893  0.0038  0.5026  0.1073
  641MOL0     C84512   1.273  10.697   9.995  0.3956  0.1033 -0.2668
  641MOL0     C84513   1.332  10.774  10.096 -0.4093  0.9669  1.2162
  641MOL0     C84514   1.339  10.914  10.079 -0.5037  0.5306 -0.8261
  641MOL0     O84515   1.396  10.990  10.182  0.4687 -0.0056  0.8677
  641MOL0     C84516   1.347  10.961  10.315  0.3563 -0.3021  0.2216
  641MOL0     C84517   1.215  11.033  10.334  1.0364 -0.5238  0.2538
  641MOL0     C84518   1.101  10.926  10.364 -0.6827 -0.5744 -0.4436
  641MOL0     C84519   1.028  10.883  10.240 -0.2760  0.2114 -0.1646
  641MOL0     C84520   0.875  10.864  10.276 -0.6498  0.4964  0.0032
  641MOL0     C84521   0.795  10.831  10.152 -0.1581 -0.5558  0.9497
  641MOL0     C84522   0.644  10.848  10.186 -0.3689 -0.2754  0.4786
  641MOL0     C84523   0.567  10.795  10.065  0.6059 -0.3965  0.2300
  641MOL0    Cl84524   0.403  10.777  10.121  0.4383  0.2805 -0.5974
  641MOL0     C84525   1.280  10.978   9.969  0.1508 -0.6628  0.4887
  641MOL0     C84526   1.204  10.899   9.877 -0.4406  0.3824 -0.0834
  641MOL0     O84527   0.964  10.588   9.916  0.4961 -0.3412 -0.1948
  641MOL0     C84528   1.054  10.543   9.566  0.4022  0.6192 -0.3051
  641MOL0     C84529   1.017  10.482   9.448 -0.2954  0.2292  0.2457
  641MOL0     N84530   1.286  10.391   9.158  0.7964 -0.6462  0.1200
  641MOL0     N84531   1.372  10.293   9.133 -0.2312 -0.7135 -1.1413
  641MOL0     C84532   1.533  10.073   8.131  0.5160 -0.3291  0.1167
  641MOL0     C84533   1.420  10.127   8.069 -0.9097 -0.2758 -0.6918
  641MOL0     C84534   1.080  10.226   7.801  0.3870  0.0492  0.1935
  641MOL0     C84535   1.026  10.225   7.675  0.1141  0.1092 -0.0136
  641MOL0     C84536   0.916  10.298   7.630 -0.3994 -0.7873 -0.3023
  641MOL0     C84537   0.854  10.387   7.722  0.5726  0.2599  0.1179
  641MOL0     O84538   0.743  10.454   7.681  0.3636  0.3054  0.5049
  641MOL0     C84539   0.695  10.570   7.748  1.0983 -0.0292 -0.2101
  641MOL0     C84540   0.593  10.626   7.647 -0.4693 -0.1074 -0.8974
  641MOL0     C84541   0.653  10.666   7.514 -0.1215  0.6466  0.4090
  641MOL0     C84542   0.548  10.697   7.413  0.5903  0.3227 -0.1947
  641MOL0     C84543   0.565  10.840   7.366 -0.0211  0.2174  0.3675
  641MOL0     C84544   0.579  10.947   7.310 -0.0332 -0.6223  0.1929
  641MOL0     C84545   0.905  10.405   7.854 -0.0192  0.4381 -0.6574
  641MOL0     C84546   1.021  10.328   7.888  0.8110 -0.1691 -0.6001
  641MOL0     H84547   1.203   9.873   8.081 -3.0328  4.6475 -1.6961
  641MOL0     H84548   1.398   9.764   8.145 -1.4964  0.8232 -2.2956
  641MOL0     H84549   1.788   9.998   8.182  0.4597 -0.5146 -0.7698
  641MOL0     H84550   1.846   9.841   8.210  1.8884  0.1681  1.9797
  641MOL0     H84551   1.902   9.972   8.398 -0.6353  2.3842 -3.4938
  641MOL0     H84552   1.796   9.835   8.452 -2.9741 -0.9179  0.8363
  641MOL0     H84553   1.598  10.008   8.458  1.1651  0.7888 -1.0096
  641MOL0     H84554   1.705  10.139   8.414 -1.3698  0.2069  0.1201
  641MOL0     H84555   1.774   9.947   8.639 -1.4753 -0.5753  3.5521
  641MOL0     H84556   1.830  10.120   8.621  0.7206 -0.4097 -5.5018
  641MOL0     H84557   1.560  10.021   8.710 -0.9080  0.8028 -1.3279
  641MOL0     H84558   1.582  10.184   8.650  0.6825  0.8111  2.5052
  641MOL0     H84559   1.786  10.178   8.825  1.0925 -3.1695 -0.5671
  641MOL0     H84560   1.694  10.049   8.896  0.3495  0.5018  2.4482
  641MOL0     H84561   1.653  10.250   9.011 -0.8401 -3.4624  1.1049
  641MOL0     H84562   1.581  10.333   8.862  1.7596  1.3493  1.9885
  641MOL0     H84563   1.469  10.099   8.987  2.3309 -1.0207 -1.0493
  641MOL0     H84564   1.403  10.160   8.837  0.3035 -3.5335  0.1882
  641MOL0     H84565   1.284  10.383   8.829 -0.9250  2.9500  0.0408
  641MOL0     H84566   1.143  10.605   8.960  1.5347 -0.8796 -0.3332
  641MOL0     H84567   1.127  10.579   9.137 -2.0620 -5.8587  3.9324
  641MOL0     H84568   0.971  10.401   8.953  1.6605 -0.1936 -0.5118
  641MOL0     H84569   0.919  10.571   8.986  0.5191  0.2824  1.3502
  641MOL0     H84570   0.874  10.542   9.213  1.9982  0.2466  0.4872
  641MOL0     H84571   0.797  10.411   9.110 -1.8160 -0.1022  1.8055
  641MOL0     H84572   1.051  10.328   9.244  0.3544 -3.2623  1.4072
  641MOL0     H84573   0.921  10.252   9.158  2.3715  0.3738 -1.6292
  641MOL0     H84574   0.756  10.302   9.576 -2.0652  2.2189  0.1944
  641MOL0     H84575   0.828  10.440   9.789 -0.3192 -1.7422  0.6383
  641MOL0     H84576   1.276  10.593  10.026  0.9531  0.9723  3.0402
  641MOL0     H84577   1.391  10.731  10.176  2.5759  3.5583  0.6195
  641MOL0     H84578   1.419  11.006  10.383  2.2197 -1.6323 -0.7703
  641MOL0     H84579   1.350  10.852  10.324  1.2044 -0.5888 -2.4930
  641MOL0     H84580   1.194  11.085  10.240 -0.6192 -1.2388  0.1951
  641MOL0     H84581   1.228  11.103  10.417  2.4714 -0.5976  0.1176
  641MOL0     H84582   1.021  10.966  10.427 -1.5434 -1.0202 -1.2096
  641MOL0     H84583   1.132  10.839  10.423  0.4360 -0.1478 -0.3921
  641MOL0     H84584   1.034  10.948  10.153 -0.1606  1.9801  1.1251
  641MOL0     H84585   1.068  10.782  10.224 -0.5673 -0.0959  0.9433
  641MOL0     H84586   0.847  10.956  10.327  2.2449  0.7227  1.3654
  641MOL0     H84587   0.864  10.776  10.340  1.1663 -1.2189 -1.8681
  641MOL0     H84588   0.823  10.726  10.137 -3.5453 -1.3809 -0.6563
  641MOL0     H84589   0.824  10.889  10.064  0.0785  0.9492  1.9817
  641MOL0     H84590   0.623  10.787  10.274  0.7738  0.2193  1.1096
  641MOL0     H84591   0.624  10.954  10.208 -0.1805  0.3382 -1.9965
  641MOL0     H84592   0.594  10.695  10.030 -1.5603 -0.6007 -1.0652
  641MOL0     H84593   0.586  10.864   9.982  3.3788  0.0422  1.1421
  641MOL0     H84594   1.278  11.086   9.964 -0.3734 -0.4407  3.6460
  641MOL0     H84595   1.162  10.944   9.788  2.0018  0.4164 -1.2962
  641MOL0     H84596   1.136  10.613   9.558 -0.0651  0.9380 -4.3454
  641MOL0     H84597   1.084  10.496   9.364 -2.3752  2.9809 -1.1312
  641MOL0     H84598   1.629  10.123   8.142  3.3550 -4.9695 -0.5597
  641MOL0     H84599   1.409  10.231   8.039 -0.1235 -0.3587 -1.2972
  641MOL0     H84600   1.082  10.165   7.604  3.1075 -0.8514  2.9272
  641MOL0     H84601   0.882  10.295   7.527 -3.5800  0.9862  0.5607
  641MOL0     H84602   0.780  10.638   7.758 -0.9426  2.9852 -1.7944
  641MOL0     H84603   0.652  10.528   7.840 -3.5772  2.6717 -0.8146
  641MOL0     H84604   0.523  10.543   7.632  2.9409 -3.2020 -1.0575
  641MOL0     H84605   0.545  10.715   7.689  0.5153 -0.7905  1.8687
  641MOL0     H84606   0.711  10.581   7.475  0.4292  1.6321 -1.0278
  641MOL0     H84607   0.726  10.747   7.508 -0.3939  0.9200 -5.5253
  641MOL0     H84608   0.563  10.638   7.323  0.6166  2.1499 -1.4384
  641MOL0     H84609   0.445  10.686   7.450  0.9079 -0.4893  0.4745
  641MOL0     H84610   0.598  11.038   7.258  4.5519 -1.6083 -0.3242
  641MOL0     H84611   0.871  10.476   7.928 -2.2156  0.4140 -1.5789
  641MOL0     H84612   1.063  10.345   7.986 -3.2258  2.7486  0.8980
  642MOL0     O84613   1.874   3.500   5.018 -0.0090 -0.3869 -1.2710
  642MOL0     C84614   1.910   3.554   4.912 -0.6030  0.9924 -0.3416
  642MOL0     O84615   1.838   3.597   4.807 -0.2606 -0.0844  0.4593
  642MOL0     C84616   1.710   3.562   4.792  1.2116 -0.6829 -0.3949
  642MOL0     C84617   1.613   3.576   4.903  0.3356 -0.0584  0.5673
  642MOL0     C84618   1.471   3.556   4.871 -0.0474  0.3063  0.7600
  642MOL0     C84619   1.425   3.527   4.744  0.1507  0.4407  0.2621
  642MOL0     O84620   1.285   3.502   4.733  0.5416 -1.2163 -0.3480
  642MOL0     C84621   1.226   3.495   4.601 -0.6154 -0.7876 -0.2805
  642MOL0     C84622   1.077   3.495   4.615 -0.3225 -0.3747  0.5798
  642MOL0     C84623   1.037   3.644   4.661  0.0093 -0.2044 -0.3355
  642MOL0     C84624   0.890   3.678   4.653  0.9424 -0.0013 -0.8272
  642MOL0     C84625   0.834   3.675   4.516 -0.0944  0.0501  0.2558
  642MOL0     C84626   0.681   3.702   4.497  0.2817  0.3358  0.6501
  642MOL0     C84627   0.634   3.653   4.358  1.0476  0.0402  0.2355
  642MOL0     C84628   0.526   3.750   4.306  0.3268  0.1126 -0.8692
  642MOL0     N84629   0.429   3.816   4.410  1.1007 -0.2072  1.6011
  642MOL0     C84630   0.316   3.755   4.447 -0.8344  0.3120  0.1915
  642MOL0     C84631   0.255   3.855   4.515  1.1646 -0.4225  0.7945
  642MOL0     C84632   0.137   3.841   4.601  0.1818  0.0467  0.1987
  642MOL0     C84633   0.029   3.953   4.571  0.1208  0.1486  1.2574
  642MOL0     C84634  -0.074   3.947   4.687 -0.0232 -0.3343  0.9365
  642MOL0     C84635  -0.149   4.079   4.726  0.7151 -0.0343  0.4444
  642MOL0     O84636  -0.278   4.077   4.671  0.8132  0.6513 -0.8683
  642MOL0     C84637  -0.303   4.153   4.561  0.2707  0.5428  0.0981
  642MOL0     C84638  -0.343   4.284   4.578  0.4502  0.6788  0.3037
  642MOL0     C84639  -0.359   4.370   4.469 -0.2396 -0.0414 -0.3551
  642MOL0     C84640  -0.344   4.321   4.338 -1.0288 -0.0146 -0.9321
  642MOL0     C84641  -0.367   4.416   4.225 -0.1495 -1.1510 -0.7223
  642MOL0     O84642  -0.391   4.354   4.111  0.7927  0.6835  1.0763
  642MOL0     C84643  -0.391   4.412   3.984 -0.3924 -0.9032 -0.3923
  642MOL0     C84644  -0.326   4.538   3.952 -0.9412 -0.4468  0.9151
  642MOL0     C84645  -0.342   4.599   3.830 -0.8059  0.0515 -0.0453
  642MOL0     C84646  -0.433   4.544   3.733  0.8973 -1.4456 -1.0047
  642MOL0     O84647  -0.458   4.605   3.611 -0.3237  0.7183  0.8778
  642MOL0     C84648  -0.375   4.544   3.512 -0.3891 -0.5640  0.2508
  642MOL0     C84649  -0.447   4.424   3.449  0.7107  1.5367  0.5843
  642MOL0     C84650  -0.366   4.386   3.309 -0.7340 -0.1192 -1.9078
  642MOL0     C84651  -0.446   4.272   3.242  0.1524  0.0922 -0.4989
  642MOL0     C84652  -0.376   4.241   3.113 -0.2821  0.2595  1.4549
  642MOL0     C84653  -0.452   4.140   3.019 -0.3235  0.1577 -0.3464
  642MOL0     C84654  -0.389   4.126   2.878  0.2233  0.1231  0.3003
  642MOL0     C84655  -0.459   4.233   2.790  0.4660  1.0396 -0.6338
  642MOL0    Cl84656  -0.421   4.201   2.618  0.5169  0.5227 -0.0419
  642MOL0     C84657  -0.510   4.435   3.768  0.3100 -0.9020  0.0993
  642MOL0     C84658  -0.492   4.371   3.893 -0.1118  0.0075 -0.3624
  642MOL0     O84659  -0.369   4.539   4.238 -0.9348  0.4438  0.4781
  642MOL0     C84660  -0.299   4.188   4.317  0.0207  0.0261 -0.0142
  642MOL0     C84661  -0.296   4.105   4.429 -0.2816  0.5776 -1.0032
  642MOL0     N84662   0.327   3.968   4.505  0.1251 -0.4043 -0.1112
  642MOL0     N84663   0.431   3.949   4.426  0.1280  0.4542 -0.2060
  642MOL0     C84664   1.515   3.521   4.641  0.0240 -0.3623 -0.4476
  642MOL0     C84665   1.660   3.529   4.661  0.6607  0.1341  0.4929
  642MOL0     C84666   2.058   3.567   4.890  0.0827  0.4871  0.4452
  642MOL0     C84667   2.110   3.626   4.769 -0.1500  0.8213 -0.0849
  642MOL0     C84668   2.248   3.657   4.758  0.4684  0.0744  0.4348
  642MOL0     C84669   2.334   3.636   4.866  0.6999  0.7143 -1.2275
  642MOL0     O84670   2.461   3.674   4.880  0.6504 -0.0777  0.6533
  642MOL0     C84671   2.515   3.779   4.806  0.1685 -0.9054  0.0856
  642MOL0     C84672   2.663   3.756   4.771  0.9900 -0.5854 -0.6880
  642MOL0     C84673   2.669   3.673   4.646 -0.4343 -0.7361 -0.5336
  642MOL0     C84674   2.810   3.630   4.618 -0.7758  0.5267 -0.9731
  642MOL0     C84675   2.824   3.586   4.480  0.3935  0.1386 -0.3371
  642MOL0     C84676   2.851   3.557   4.366 -0.6581 -0.2342 -0.2846
  642MOL0     C84677   2.289   3.574   4.982 -0.5385 -0.5700  0.3394
  642MOL0     C84678   2.157   3.534   4.995  1.0220 -0.3104  0.5001
  642MOL0     H84679   1.637   3.604   5.005  1.8107  2.7032 -0.4473
  642MOL0     H84680   1.406   3.561   4.957 -0.4082  2.3298  0.4379
  642MOL0     H84681   1.261   3.415   4.535  1.3523  0.6462 -1.0680
  642MOL0     H84682   1.240   3.588   4.546 -3.5759  1.7681  2.7807
  642MOL0     H84683   1.050   3.422   4.691  2.7616 -4.1990 -1.5864
  642MOL0     H84684   1.029   3.459   4.523  1.1621 -2.0622  0.4083
  642MOL0     H84685   1.092   3.706   4.590 -0.1251  0.3737  0.0569
  642MOL0     H84686   1.080   3.666   4.760 -0.0619  1.2275 -0.5975
  642MOL0     H84687   0.847   3.610   4.727  1.1308  1.6915  0.9151
  642MOL0     H84688   0.874   3.781   4.686  1.7733 -0.4445  1.1264
  642MOL0     H84689   0.856   3.576   4.475 -1.7768 -1.0037  1.7679
  642MOL0     H84690   0.899   3.744   4.460  2.7110 -2.3343  0.3054
  642MOL0     H84691   0.658   3.806   4.520  1.4803  1.0542 -1.2074
  642MOL0     H84692   0.624   3.644   4.570 -1.0976 -0.6899 -1.1404
  642MOL0     H84693   0.716   3.642   4.287 -1.2678  2.3011 -3.1098
  642MOL0     H84694   0.595   3.552   4.372  0.5672  0.3566  1.3020
  642MOL0     H84695   0.471   3.694   4.230 -1.6936  1.2461 -0.3219
  642MOL0     H84696   0.570   3.830   4.245 -0.5840  1.3810  0.0637
  642MOL0     H84697   0.295   3.649   4.436 -2.1293  0.8014 -4.9873
  642MOL0     H84698   0.178   3.848   4.703 -0.5514  1.2427  0.4391
  642MOL0     H84699   0.092   3.741   4.599  1.2585 -0.4553  0.4087
  642MOL0     H84700  -0.023   3.917   4.481 -0.1681 -2.1377  2.2779
  642MOL0     H84701   0.065   4.053   4.544  0.7625 -1.2729 -4.5377
  642MOL0     H84702  -0.153   3.873   4.667 -0.7642  0.5218  0.6086
  642MOL0     H84703  -0.024   3.917   4.779  2.5209 -0.0287 -0.2690
  642MOL0     H84704  -0.089   4.165   4.697  0.8956 -0.8609 -1.7994
  642MOL0     H84705  -0.156   4.087   4.835  0.6468 -1.9840  0.6086
  642MOL0     H84706  -0.351   4.322   4.680 -4.1628 -2.0401  1.2486
  642MOL0     H84707  -0.379   4.476   4.482 -3.1460 -0.4487 -0.7242
  642MOL0     H84708  -0.269   4.587   4.031  1.5615 -1.4492 -0.1504
  642MOL0     H84709  -0.296   4.688   3.790 -2.4145  0.6120 -0.7462
  642MOL0     H84710  -0.270   4.537   3.540  0.9910  4.0377 -2.6210
  642MOL0     H84711  -0.377   4.623   3.436 -2.4865 -2.1065 -1.4472
  642MOL0     H84712  -0.552   4.431   3.420  0.2521 -3.7295 -0.1222
  642MOL0     H84713  -0.448   4.335   3.514  0.8351 -0.7887 -2.3688
  642MOL0     H84714  -0.266   4.357   3.342 -1.1442  1.0487  0.6606
  642MOL0     H84715  -0.356   4.472   3.244 -1.3479  0.1226 -1.6962
  642MOL0     H84716  -0.454   4.178   3.297 -0.8080 -1.8788 -3.7675
  642MOL0     H84717  -0.547   4.307   3.217  0.5706 -0.6512 -3.6290
  642MOL0     H84718  -0.276   4.206   3.138 -0.8232 -0.6017  2.4685
  642MOL0     H84719  -0.378   4.338   3.061  0.2574  0.0975  1.1282
  642MOL0     H84720  -0.556   4.174   3.016 -0.1657  0.5808 -1.0000
  642MOL0     H84721  -0.444   4.037   3.057  3.9945 -0.1273 -1.4624
  642MOL0     H84722  -0.285   4.145   2.906 -0.4683  1.8555  1.8954
  642MOL0     H84723  -0.395   4.028   2.829 -0.8284 -0.3788  1.4127
  642MOL0     H84724  -0.426   4.336   2.809  0.0348  1.4196 -1.8398
  642MOL0     H84725  -0.566   4.217   2.801  0.8074 -3.3298 -1.9662
  642MOL0     H84726  -0.598   4.401   3.715  0.0310 -1.0441  0.6378
  642MOL0     H84727  -0.560   4.290   3.920  0.6304 -0.6990 -0.5837
  642MOL0     H84728  -0.279   4.154   4.216  2.4720  0.3309  0.3135
  642MOL0     H84729  -0.258   4.004   4.429  0.6592  0.8863  0.7453
  642MOL0     H84730   1.476   3.505   4.541  0.4677 -1.7652 -0.4175
  642MOL0     H84731   1.725   3.525   4.574 -1.5833  1.9324 -1.3932
  642MOL0     H84732   2.043   3.641   4.685 -3.5692  0.8841  2.4832
  642MOL0     H84733   2.296   3.702   4.672  2.0077 -1.3157  0.5238
  642MOL0     H84734   2.510   3.861   4.878  0.4595 -2.0934  1.4943
  642MOL0     H84735   2.453   3.811   4.722 -4.5172 -1.8130  2.8652
  642MOL0     H84736   2.715   3.849   4.748  0.1031 -0.4905 -2.4632
  642MOL0     H84737   2.713   3.709   4.857  1.4382 -0.8242 -1.0780
  642MOL0     H84738   2.626   3.733   4.565 -2.0784  0.6849  1.2944
  642MOL0     H84739   2.609   3.582   4.649  1.5353 -2.0913  2.9274
  642MOL0     H84740   2.870   3.722   4.609  0.5272 -0.3900 -2.0041
  642MOL0     H84741   2.847   3.563   4.696  0.5403  0.9401 -1.2101
  642MOL0     H84742   2.881   3.515   4.272 -0.3183  0.2594 -0.4029
  642MOL0     H84743   2.354   3.550   5.066  0.6052 -0.1769 -0.4046
  642MOL0     H84744   2.112   3.484   5.080 -2.1856  0.4553 -0.6035
  643MOL0     O84745   4.282   7.723   1.904 -0.7601  0.0552 -0.1909
  643MOL0     C84746   4.325   7.619   1.962  0.0865  0.4412  0.3665
  643MOL0     O84747   4.254   7.546   2.060 -0.0309 -0.1417 -0.3194
  643MOL0     C84748   4.138   7.602   2.108 -0.7750  0.7269 -0.3319
  643MOL0     C84749   4.011   7.577   2.056  0.0356 -0.5317 -0.7666
  643MOL0     C84750   3.897   7.619   2.126  0.4038 -0.1606  0.1559
  643MOL0     C84751   3.911   7.709   2.229 -0.4131 -0.0695 -0.5683
  643MOL0     O84752   3.810   7.751   2.309 -0.3470 -0.5655 -0.4414
  643MOL0     C84753   3.747   7.648   2.372 -0.0773  0.0676  0.2257
  643MOL0     C84754   3.713   7.685   2.509  0.6064 -0.4760 -0.3539
  643MOL0     C84755   3.682   7.566   2.595 -0.8060 -0.0853  0.6964
  643MOL0     C84756   3.587   7.462   2.525  0.0362 -0.5662  0.1815
  643MOL0     C84757   3.445   7.527   2.469 -0.4725  0.2832 -0.6003
  643MOL0     C84758   3.347   7.561   2.580  0.2935  0.9295 -0.0609
  643MOL0     C84759   3.204   7.614   2.534 -1.6306  0.9202  0.3673
  643MOL0     C84760   3.224   7.749   2.456 -0.3877  0.0169 -0.7123
  643MOL0     N84761   3.093   7.814   2.413  0.2915 -0.5815  0.2915
  643MOL0     C84762   2.978   7.810   2.493 -0.2801 -0.7181  0.0644
  643MOL0     C84763   2.885   7.872   2.414 -0.8105 -0.6032  0.7233
  643MOL0     C84764   2.744   7.903   2.444 -0.1469  0.2995 -0.7608
  643MOL0     C84765   2.684   7.807   2.558 -0.2173  0.7952 -0.0963
  643MOL0     C84766   2.619   7.678   2.502 -0.6247 -0.1061  0.2280
  643MOL0     C84767   2.560   7.589   2.605  0.9214  1.3805 -0.8919
  643MOL0     O84768   2.655   7.553   2.705  0.5375  0.5118 -0.1122
  643MOL0     C84769   2.761   7.463   2.694 -0.0563 -0.4651 -0.1398
  643MOL0     C84770   2.867   7.485   2.782 -0.1122  0.3641  0.4172
  643MOL0     C84771   2.979   7.398   2.787 -0.4385 -0.7745 -0.3397
  643MOL0     C84772   2.986   7.299   2.693  0.4197  1.1724 -0.2903
  643MOL0     C84773   3.091   7.191   2.691 -0.5111  0.8172  0.0960
  643MOL0     O84774   3.185   7.205   2.786  0.0657 -0.2394 -0.3303
  643MOL0     C84775   3.315   7.169   2.769  0.5773  0.3512  0.1510
  643MOL0     C84776   3.391   7.181   2.882  0.1015  0.1591 -0.0557
  643MOL0     C84777   3.530   7.159   2.878  0.7425  0.4330 -0.8723
  643MOL0     C84778   3.588   7.116   2.754 -0.2402 -0.5267  0.3687
  643MOL0     O84779   3.725   7.114   2.749  0.2727 -0.0766 -0.4757
  643MOL0     C84780   3.792   7.087   2.622  0.7835  0.7199  0.2467
  643MOL0     C84781   3.954   7.097   2.638 -0.1838  0.5822 -0.3072
  643MOL0     C84782   4.012   7.118   2.498 -0.1624 -0.5448 -0.3002
  643MOL0     C84783   4.165   7.116   2.507 -0.1026  0.3585  0.7005
  643MOL0     C84784   4.239   7.137   2.365 -0.0781  0.2937  0.0290
  643MOL0     C84785   4.165   7.081   2.242  0.1353  0.2057 -0.0832
  643MOL0     C84786   4.267   7.076   2.123  0.1466 -0.7082 -0.0795
  643MOL0     C84787   4.260   7.211   2.039 -0.9145 -0.1206 -1.0004
  643MOL0    Cl84788   4.100   7.216   1.972  0.0666  0.3171  0.3290
  643MOL0     C84789   3.505   7.102   2.647 -0.2009 -0.3594 -0.3154
  643MOL0     C84790   3.371   7.123   2.654  0.4419  0.4643  0.2873
  643MOL0     O84791   3.084   7.093   2.613 -0.5522 -0.0635  0.3733
  643MOL0     C84792   2.884   7.274   2.600  0.3868 -1.5531  0.4169
  643MOL0     C84793   2.774   7.360   2.601  0.6769 -0.2102 -0.1910
  643MOL0     N84794   2.932   7.887   2.282  0.2327 -0.0822  0.2790
  643MOL0     N84795   3.062   7.850   2.281  0.1347 -0.1508  0.2619
  643MOL0     C84796   4.036   7.750   2.279 -0.0787 -0.1999  0.9203
  643MOL0     C84797   4.144   7.708   2.205 -0.8437  0.5849 -0.5315
  643MOL0     C84798   4.450   7.573   1.923 -1.3732 -0.2533  0.0047
  643MOL0     C84799   4.529   7.526   2.024  0.4629  0.8169  0.0522
  643MOL0     C84800   4.657   7.480   1.998 -0.8827 -0.3489  0.6283
  643MOL0     C84801   4.721   7.491   1.868  0.6086  0.1798  0.0813
  643MOL0     O84802   4.856   7.453   1.853 -0.0903  0.3099 -0.7088
  643MOL0     C84803   4.890   7.394   1.726  0.5149  0.5659 -0.2674
  643MOL0     C84804   5.039   7.382   1.735 -0.0516 -0.8635  0.6328
  643MOL0     C84805   5.079   7.255   1.825  0.4805 -0.4148  0.4406
  643MOL0     C84806   5.230   7.212   1.801 -0.9365  0.8705 -1.0217
  643MOL0     C84807   5.253   7.191   1.663 -0.4215 -0.0514  0.2684
  643MOL0     C84808   5.264   7.182   1.537 -0.4686 -0.1006  0.6887
  643MOL0     C84809   4.638   7.541   1.758  0.4869  0.8595  1.3836
  643MOL0     C84810   4.507   7.585   1.791 -0.5558  0.0322 -0.7961
  643MOL0     H84811   3.991   7.511   1.973 -1.8115 -3.3692  1.7111
  643MOL0     H84812   3.800   7.589   2.087 -1.0406  3.2123  0.7772
  643MOL0     H84813   3.817   7.563   2.371 -0.6655 -0.4210 -0.6971
  643MOL0     H84814   3.664   7.608   2.313  1.7218 -0.3853 -2.1545
  643MOL0     H84815   3.640   7.766   2.506  3.7898  2.6711 -4.0599
  643MOL0     H84816   3.802   7.731   2.552 -0.6551  2.5726 -0.7523
  643MOL0     H84817   3.642   7.619   2.682 -0.4859  3.5676 -1.1804
  643MOL0     H84818   3.784   7.534   2.617 -0.6000 -1.0620 -1.4354
  643MOL0     H84819   3.633   7.399   2.448 -0.5858  1.2138 -1.7335
  643MOL0     H84820   3.559   7.386   2.599 -2.0182  0.3048  0.3678
  643MOL0     H84821   3.394   7.450   2.410 -1.4005  1.2750 -1.1309
  643MOL0     H84822   3.456   7.607   2.395 -5.6811 -1.3899 -3.7804
  643MOL0     H84823   3.397   7.637   2.641  3.8050 -2.6312  1.9621
  643MOL0     H84824   3.345   7.477   2.649 -0.7616  2.6589  2.1452
  643MOL0     H84825   3.151   7.543   2.469 -1.5112  1.3499 -0.2082
  643MOL0     H84826   3.134   7.636   2.615 -1.3644  2.3906  0.2234
  643MOL0     H84827   3.275   7.725   2.362  0.5189 -2.3583  0.3041
  643MOL0     H84828   3.286   7.819   2.513  0.3178  0.0815 -1.5494
  643MOL0     H84829   2.975   7.788   2.599 -0.0241 -2.1635 -0.2052
  643MOL0     H84830   2.678   7.877   2.361 -0.9466 -0.1303 -0.0044
  643MOL0     H84831   2.735   8.008   2.471  2.7904  0.7203 -1.0670
  643MOL0     H84832   2.613   7.868   2.614  0.6838  2.8712 -1.1041
  643MOL0     H84833   2.763   7.781   2.629  0.3657  1.7151 -0.3815
  643MOL0     H84834   2.531   7.700   2.440 -1.3378 -0.2188  1.1806
  643MOL0     H84835   2.700   7.622   2.453  0.8733  2.1730 -0.0468
  643MOL0     H84836   2.515   7.501   2.560  3.7968 -0.6498 -0.0867
  643MOL0     H84837   2.479   7.639   2.659 -0.7056 -2.4573  0.5855
  643MOL0     H84838   2.860   7.565   2.855  0.5873 -0.4413  1.3840
  643MOL0     H84839   3.060   7.408   2.858 -0.9889 -1.9121  0.4704
  643MOL0     H84840   3.349   7.208   2.978  1.3850 -0.4615  0.7165
  643MOL0     H84841   3.586   7.186   2.967 -3.0536  1.1811  1.5187
  643MOL0     H84842   3.766   7.157   2.543  0.3502  1.6408  1.1757
  643MOL0     H84843   3.773   6.980   2.604  0.2912  0.3760  2.4378
  643MOL0     H84844   3.984   6.997   2.671 -0.3140  1.5928  3.2856
  643MOL0     H84845   3.983   7.156   2.725 -0.6415 -1.1708  1.0997
  643MOL0     H84846   3.982   7.221   2.475 -1.3516 -1.1055 -1.4273
  643MOL0     H84847   3.975   7.059   2.414  0.9787  0.5740 -1.6419
  643MOL0     H84848   4.199   7.195   2.574 -0.0481  1.4730 -0.5826
  643MOL0     H84849   4.192   7.016   2.542 -8.3807 -2.4181  1.2875
  643MOL0     H84850   4.343   7.103   2.372  1.4777  4.0403 -1.8960
  643MOL0     H84851   4.264   7.243   2.355  3.0844 -0.2609  0.9095
  643MOL0     H84852   4.082   7.149   2.223 -0.0394  0.8692  2.5714
  643MOL0     H84853   4.145   6.977   2.269  0.2323 -0.0529 -0.9963
  643MOL0     H84854   4.371   7.077   2.157  0.1163  5.9648  1.2764
  643MOL0     H84855   4.235   6.997   2.055 -1.2301  0.9675 -1.4605
  643MOL0     H84856   4.344   7.204   1.969 -0.8928 -0.1357 -0.9727
  643MOL0     H84857   4.259   7.299   2.104 -1.9080 -0.4436 -0.5661
  643MOL0     H84858   3.538   7.088   2.544 -4.8212 -1.1221 -1.9472
  643MOL0     H84859   3.312   7.112   2.563 -1.4094  4.0659  0.8856
  643MOL0     H84860   2.878   7.195   2.526 -0.7518 -0.5468 -0.6167
  643MOL0     H84861   2.696   7.322   2.536  0.3535 -1.4173  0.8396
  643MOL0     H84862   4.054   7.822   2.358  0.5891  2.7642 -1.7380
  643MOL0     H84863   4.241   7.734   2.246 -1.8646  0.4657  2.1151
  643MOL0     H84864   4.493   7.517   2.126  0.6411 -1.1001 -0.0083
  643MOL0     H84865   4.721   7.453   2.080 -0.4137  0.5821  0.5796
  643MOL0     H84866   4.862   7.458   1.642 -0.1064  1.4425  0.5854
  643MOL0     H84867   4.851   7.292   1.712 -0.2087  0.5850  1.3445
  643MOL0     H84868   5.067   7.357   1.632 -4.6123  0.2976 -1.1460
  643MOL0     H84869   5.078   7.477   1.772 -2.4590  0.8110 -0.8422
  643MOL0     H84870   5.019   7.169   1.792  0.1888 -0.3657  0.8382
  643MOL0     H84871   5.073   7.278   1.932  2.1786  0.6236  0.3516
  643MOL0     H84872   5.306   7.277   1.844  0.1032 -0.2074 -1.1823
  643MOL0     H84873   5.233   7.120   1.861 -1.4966  1.4280 -0.1104
  643MOL0     H84874   5.281   7.171   1.432  1.6818  4.4460  0.3159
  643MOL0     H84875   4.670   7.559   1.656  0.1992 -1.7642  0.7635
  643MOL0     H84876   4.435   7.612   1.715 -0.5938 -0.4592 -0.9346
  644MOL0     O84877  11.016   6.727   5.771  0.1247 -0.5697 -0.2396
  644MOL0     C84878  10.971   6.836   5.755  0.7583  0.6316 -0.0402
  644MOL0     O84879  10.971   6.906   5.643 -0.0877 -1.6036 -0.2396
  644MOL0     C84880  11.029   6.848   5.535  0.0329  0.4932  1.6374
  644MOL0     C84881  10.998   6.724   5.482  0.1727  0.6441  0.4022
  644MOL0     C84882  11.036   6.664   5.363 -0.0310 -0.6434 -1.0727
  644MOL0     C84883  11.123   6.740   5.280 -0.2756 -0.7052 -0.3019
  644MOL0     O84884  11.151   6.708   5.146  0.6557 -0.4304  0.2325
  644MOL0     C84885  11.114   6.574   5.099 -0.0009 -0.4121  0.0915
  644MOL0     C84886  11.179   6.540   4.970 -0.6743  0.1785 -0.2331
  644MOL0     C84887  11.099   6.429   4.905 -0.6120 -0.2869  0.2039
  644MOL0     C84888  11.150   6.379   4.774 -0.0779 -0.8325  0.2969
  644MOL0     C84889  11.067   6.259   4.729  0.3862  0.8297 -0.2308
  644MOL0     C84890  11.051   6.264   4.575 -0.4583 -0.6864  0.1806
  644MOL0     C84891  10.952   6.163   4.526 -0.1990  0.2192  0.6591
  644MOL0     C84892  11.007   6.022   4.493  0.2382  1.1097 -0.0408
  644MOL0     N84893  10.899   5.932   4.445 -0.0107 -0.1767 -0.0685
  644MOL0     C84894  10.864   5.879   4.317 -0.1335 -0.7255 -0.2182
  644MOL0     C84895  10.770   5.792   4.344  0.6729  0.8079 -0.4513
  644MOL0     C84896  10.722   5.698   4.242  0.5999 -0.9069 -0.4005
  644MOL0     C84897  10.674   5.553   4.292 -0.4797 -0.3459 -0.0416
  644MOL0     C84898  10.798   5.460   4.347  0.7614  0.3786  0.6384
  644MOL0     C84899  10.751   5.321   4.385 -0.5717 -0.0061  0.5439
  644MOL0     O84900  10.849   5.252   4.471 -0.6662  0.2083  0.6636
  644MOL0     C84901  10.878   5.300   4.596 -0.2580  0.4161 -0.4836
  644MOL0     C84902  10.780   5.342   4.680 -0.4346 -1.0608  0.3183
  644MOL0     C84903  10.806   5.374   4.810  0.5739 -0.0091 -0.6548
  644MOL0     C84904  10.935   5.369   4.866  0.2539 -0.9573  0.2858
  644MOL0     C84905  10.968   5.410   5.002  0.3739 -0.9501  0.5268
  644MOL0     O84906  10.869   5.395   5.093 -0.1708 -0.1930 -0.3556
  644MOL0     C84907  10.869   5.470   5.205 -0.5672 -0.3760  0.4406
  644MOL0     C84908  10.820   5.417   5.323 -0.1261 -0.0912 -0.2939
  644MOL0     C84909  10.825   5.495   5.443 -0.4435  1.0561  0.6464
  644MOL0     C84910  10.852   5.636   5.434 -0.3205  0.5035 -1.5636
  644MOL0     O84911  10.862   5.727   5.538 -0.0222  0.7629 -0.3968
  644MOL0     C84912  10.824   5.683   5.672 -0.3174  0.6742 -1.3202
  644MOL0     C84913  10.685   5.704   5.711 -0.7719 -1.0170  0.4254
  644MOL0     C84914  10.661   5.663   5.857  0.7401 -0.5065  0.0127
  644MOL0     C84915  10.514   5.609   5.864  0.4285  0.0645 -0.1556
  644MOL0     C84916  10.490   5.514   5.978 -0.3644  0.1195  1.1204
  644MOL0     C84917  10.344   5.475   6.003  0.3375  0.3202 -0.2705
  644MOL0     C84918  10.341   5.382   6.125 -0.8642  0.8493 -0.8520
  644MOL0     C84919  10.221   5.369   6.213 -0.7887  0.0990 -1.1343
  644MOL0    Cl84920  10.206   5.534   6.299 -0.0234 -0.2354  1.0223
  644MOL0     C84921  10.894   5.690   5.317  0.0625 -0.5083  1.0088
  644MOL0     C84922  10.907   5.607   5.202 -1.0527 -0.1903  0.0322
  644MOL0     O84923  11.082   5.459   5.019  0.2043 -0.1613  0.3290
  644MOL0     C84924  11.031   5.323   4.782 -0.9720  0.7154  0.3867
  644MOL0     C84925  11.001   5.281   4.647  0.3451 -0.3281  0.6789
  644MOL0     N84926  10.742   5.785   4.482  0.4894  0.9462 -1.0409
  644MOL0     N84927  10.829   5.862   4.539  0.0214 -0.3826 -0.1348
  644MOL0     C84928  11.175   6.870   5.324  0.5343  0.3798  0.2849
  644MOL0     C84929  11.124   6.920   5.450  0.0456 -0.2172 -0.1753
  644MOL0     C84930  10.924   6.899   5.883  0.4992 -0.4475 -0.7970
  644MOL0     C84931  10.825   7.002   5.873  0.6363  0.4943  0.2924
  644MOL0     C84932  10.765   7.056   5.989  0.7471 -0.1200  0.8987
  644MOL0     C84933  10.819   7.018   6.114  0.0301  0.0529 -0.1944
  644MOL0     O84934  10.776   7.093   6.223 -0.4264 -0.2544  0.4855
  644MOL0     C84935  10.863   7.201   6.242  0.7080 -0.5371  0.3812
  644MOL0     C84936  10.775   7.301   6.310  0.4036 -0.0246  0.0480
  644MOL0     C84937  10.869   7.423   6.344  0.2071  0.7179  0.2678
  644MOL0     C84938  10.831   7.489   6.477  0.6565  0.8759  0.5006
  644MOL0     C84939  10.845   7.391   6.582 -0.3602  0.0201 -1.0702
  644MOL0     C84940  10.863   7.314   6.679  0.0726  0.2481 -0.0205
  644MOL0     C84941  10.931   6.925   6.127 -0.5892 -0.8409  0.7978
  644MOL0     C84942  10.979   6.864   6.013 -0.5842 -0.3621  0.1974
  644MOL0     H84943  10.930   6.661   5.539 -0.1673  1.0026  0.3926
  644MOL0     H84944  11.006   6.560   5.353  2.4716 -1.4877 -0.6394
  644MOL0     H84945  11.006   6.584   5.086 -0.0361 -0.1850  0.5521
  644MOL0     H84946  11.122   6.490   5.168 -1.2372 -1.4888 -1.0089
  644MOL0     H84947  11.282   6.508   4.986 -1.2668 -0.3449  3.4598
  644MOL0     H84948  11.180   6.632   4.911 -2.3507  1.3100  1.4036
  644MOL0     H84949  10.993   6.450   4.885 -0.8627 -0.5047  1.2435
  644MOL0     H84950  11.097   6.348   4.978 -0.1520 -1.3805 -0.9525
  644MOL0     H84951  11.130   6.462   4.705 -0.8178  1.6356  3.2500
  644MOL0     H84952  11.257   6.360   4.782 -0.2533 -1.8171  0.4199
  644MOL0     H84953  10.966   6.262   4.772  1.1938  0.3960  1.7978
  644MOL0     H84954  11.113   6.166   4.765  0.5698  1.2329  0.5953
  644MOL0     H84955  11.154   6.257   4.539  0.0864  2.9116  0.6974
  644MOL0     H84956  11.013   6.363   4.551 -1.0569 -0.9738 -0.0833
  644MOL0     H84957  10.864   6.167   4.591 -0.8153  1.4527 -0.2046
  644MOL0     H84958  10.925   6.205   4.429  2.5349 -1.5335 -1.0046
  644MOL0     H84959  11.054   5.972   4.578  0.7560 -0.1798 -1.0632
  644MOL0     H84960  11.078   6.023   4.410  0.1165 -2.1555 -0.3041
  644MOL0     H84961  10.920   5.897   4.226  2.0207 -2.7518  0.6075
  644MOL0     H84962  10.809   5.680   4.177  1.8397  2.1650  0.2386
  644MOL0     H84963  10.646   5.744   4.178  0.6920 -2.0186 -1.3625
  644MOL0     H84964  10.607   5.515   4.215 -4.2310  0.7464  2.4100
  644MOL0     H84965  10.606   5.570   4.376 -0.6863  1.1124 -0.4833
  644MOL0     H84966  10.868   5.447   4.264  0.7268  1.1108  0.4874
  644MOL0     H84967  10.830   5.522   4.431 -1.7600  1.3222  0.9771
  644MOL0     H84968  10.728   5.270   4.291 -0.0224  0.6643  0.0397
  644MOL0     H84969  10.660   5.309   4.444 -0.9930  0.8291  0.0702
  644MOL0     H84970  10.680   5.334   4.638  0.6624 -0.7825 -2.5344
  644MOL0     H84971  10.723   5.402   4.875  0.8143  1.2335 -0.8493
  644MOL0     H84972  10.787   5.315   5.337 -0.9794  0.2185  0.0140
  644MOL0     H84973  10.804   5.438   5.533 -0.1283 -2.6351 -1.4063
  644MOL0     H84974  10.891   5.733   5.743  0.7432 -0.3995 -1.5294
  644MOL0     H84975  10.835   5.576   5.691 -1.9520  0.7873  0.5246
  644MOL0     H84976  10.616   5.653   5.642 -3.2206  0.3454  1.7240
  644MOL0     H84977  10.656   5.809   5.699  0.4628 -0.6655  0.4223
  644MOL0     H84978  10.671   5.747   5.926  0.0356 -0.1583 -0.3007
  644MOL0     H84979  10.740   5.593   5.886  0.5549 -1.6054 -1.9707
  644MOL0     H84980  10.453   5.700   5.863  1.9278  1.2150 -3.5168
  644MOL0     H84981  10.495   5.547   5.776  0.8579 -1.2900  0.6675
  644MOL0     H84982  10.533   5.555   6.070  2.0972 -2.7353  1.4348
  644MOL0     H84983  10.546   5.422   5.959  1.3680  1.2078  0.6742
  644MOL0     H84984  10.311   5.425   5.911 -2.4378 -0.2868  0.9711
  644MOL0     H84985  10.285   5.568   6.008 -1.5525 -0.8682  0.6221
  644MOL0     H84986  10.364   5.280   6.095  0.9779  0.0103  2.8062
  644MOL0     H84987  10.417   5.404   6.200 -2.3429 -3.8495  2.4855
  644MOL0     H84988  10.231   5.285   6.283  0.5663 -0.4496 -1.9389
  644MOL0     H84989  10.144   5.348   6.138 -1.9847 -1.1930  0.3678
  644MOL0     H84990  10.921   5.794   5.307  4.1257 -1.5558 -1.4900
  644MOL0     H84991  10.947   5.655   5.113  1.4917 -0.6960  0.8266
  644MOL0     H84992  11.133   5.299   4.809 -1.7539 -1.3371  1.7424
  644MOL0     H84993  11.071   5.233   4.578  3.0713  1.6099  1.8832
  644MOL0     H84994  11.241   6.934   5.267  1.1821 -1.1244 -0.6939
  644MOL0     H84995  11.171   7.004   5.500  1.5598 -0.6443 -0.8302
  644MOL0     H84996  10.779   7.032   5.779  0.7393  1.9720  0.6879
  644MOL0     H84997  10.690   7.134   5.991  1.0984  0.2545  0.2553
  644MOL0     H84998  10.905   7.239   6.148  0.1852  3.4730  1.5871
  644MOL0     H84999  10.949   7.172   6.304 -1.5557 -3.5814  2.3891
  644MOL0     H85000  10.704   7.328   6.231  0.2638 -5.7290 -2.2125
  644MOL0     H85001  10.719   7.249   6.387 -4.2609  2.2237 -1.4377
  644MOL0     H85002  10.869   7.498   6.264 -3.5031  0.3878 -0.2524
  644MOL0     H85003  10.971   7.386   6.353  0.1220  0.7043  1.2332
  644MOL0     H85004  10.897   7.572   6.507 -0.5849  3.3362 -2.9085
  644MOL0     H85005  10.730   7.529   6.470  1.7367  3.7587 -0.2078
  644MOL0     H85006  10.871   7.248   6.763 -1.9182 -1.3784 -1.0197
  644MOL0     H85007  10.985   6.919   6.221 -0.8008 -3.2964  0.8422
  644MOL0     H85008  11.063   6.795   6.016 -0.1760  0.1484  2.3792
  645MOL0     O85009   4.100   9.881   8.835 -0.8554 -1.2039 -0.5075
  645MOL0     C85010   3.983   9.897   8.842  0.9039  0.2693  0.5150
  645MOL0     O85011   3.892   9.795   8.868  0.2344  0.1016  0.0469
  645MOL0     C85012   3.933   9.669   8.913  0.3728 -0.5960  0.3225
  645MOL0     C85013   3.875   9.551   8.867  0.7125  0.3643 -0.8763
  645MOL0     C85014   3.881   9.426   8.933 -0.6414 -0.3590  0.4187
  645MOL0     C85015   3.962   9.408   9.041  0.0925 -0.1529 -0.0619
  645MOL0     O85016   3.975   9.281   9.089  0.8308  0.2595  0.3874
  645MOL0     C85017   4.008   9.263   9.226 -0.1220 -0.0601  0.1333
  645MOL0     C85018   3.944   9.130   9.275  0.5578  0.5355 -0.1375
  645MOL0     C85019   3.981   9.003   9.218  0.2954  0.5052  0.2991
  645MOL0     C85020   3.903   8.894   9.293 -1.0222 -0.9864  0.6570
  645MOL0     C85021   3.982   8.759   9.270 -0.3811  0.2913  0.2602
  645MOL0     C85022   3.969   8.714   9.129  0.0521 -0.8906 -1.1861
  645MOL0     C85023   4.034   8.575   9.106  0.6382  0.0623 -0.2613
  645MOL0     C85024   4.052   8.549   8.948  0.2473  0.1608  0.4254
  645MOL0     N85025   4.166   8.631   8.905 -0.7016 -1.0301 -0.2747
  645MOL0     C85026   4.150   8.754   8.844 -0.0446 -0.7760  0.2885
  645MOL0     C85027   4.265   8.780   8.785  0.4055  0.4851 -0.3310
  645MOL0     C85028   4.302   8.886   8.694  0.2105 -0.7455 -0.2188
  645MOL0     C85029   4.323   9.034   8.747  0.1281 -0.4272 -0.1028
  645MOL0     C85030   4.351   9.135   8.636  0.7592  0.7568  0.4194
  645MOL0     C85031   4.454   9.236   8.682 -0.2415 -0.3912 -0.5920
  645MOL0     O85032   4.384   9.323   8.774  0.9546 -0.1299  0.0093
  645MOL0     C85033   4.446   9.441   8.794 -0.3664  0.5128  1.2923
  645MOL0     C85034   4.358   9.535   8.824 -0.0613  0.6688  0.0280
  645MOL0     C85035   4.409   9.670   8.854  0.3612  0.0130 -0.5425
  645MOL0     C85036   4.550   9.694   8.847  0.3332  0.1592 -0.1431
  645MOL0     C85037   4.595   9.832   8.863 -0.0393 -1.0011  0.3091
  645MOL0     O85038   4.494   9.925   8.881  0.6669 -0.8619  0.0225
  645MOL0     C85039   4.536  10.051   8.929  0.1324  0.5201 -0.5580
  645MOL0     C85040   4.588  10.152   8.850  1.5870 -0.5966  0.2340
  645MOL0     C85041   4.613  10.283   8.907 -0.6765  0.3298 -0.5156
  645MOL0     C85042   4.630  10.283   9.051  0.7521 -0.2074 -0.7769
  645MOL0     O85043   4.662  10.400   9.121  0.1545 -0.4905  0.5187
  645MOL0     C85044   4.781  10.447   9.070  0.5406  0.1945 -0.0453
  645MOL0     C85045   4.842  10.517   9.180  0.0215  0.6035  0.2624
  645MOL0     C85046   4.927  10.422   9.259  0.3031  0.2818  0.1917
  645MOL0     C85047   4.934  10.478   9.401  0.0775 -0.6160 -0.4439
  645MOL0     C85048   5.023  10.378   9.478  1.2031 -0.2791 -0.1114
  645MOL0     C85049   5.112  10.453   9.571 -0.6482  0.6732 -0.1783
  645MOL0     C85050   5.215  10.345   9.636 -0.2173 -0.4983  0.0982
  645MOL0     C85051   5.274  10.416   9.753 -0.3729 -0.5910  0.3511
  645MOL0    Cl85052   5.364  10.551   9.701  0.1830  0.1711 -0.2869
  645MOL0     C85053   4.574  10.186   9.126  0.3957 -1.0970 -0.2515
  645MOL0     C85054   4.544  10.067   9.067 -0.2009  0.7356 -0.5355
  645MOL0     O85055   4.715   9.857   8.847 -0.0561 -0.3036  0.9039
  645MOL0     C85056   4.640   9.585   8.820  0.4665  0.0442  0.5478
  645MOL0     C85057   4.582   9.459   8.788 -0.1267  0.0591  1.1997
  645MOL0     N85058   4.359   8.688   8.837  0.5656 -0.2459 -1.0648
  645MOL0     N85059   4.303   8.594   8.909 -0.2958  0.5367  0.1681
  645MOL0     C85060   4.020   9.525   9.093  0.2566  0.4006  0.0923
  645MOL0     C85061   4.003   9.647   9.030 -0.6202  1.0406  0.4946
  645MOL0     C85062   3.914  10.022   8.827 -0.6353 -0.2336  0.5780
  645MOL0     C85063   3.792  10.050   8.879 -0.2941  0.6219 -0.4381
  645MOL0     C85064   3.741  10.180   8.867 -0.0118 -0.5008 -0.9115
  645MOL0     C85065   3.810  10.288   8.806  0.9793  0.1422  0.2197
  645MOL0     O85066   3.753  10.413   8.830  0.2941 -0.5459 -0.1523
  645MOL0     C85067   3.767  10.504   8.726 -0.3349  0.5656  0.4315
  645MOL0     C85068   3.662  10.615   8.745  0.9004 -0.0854  0.9293
  645MOL0     C85069   3.681  10.712   8.640 -0.4857 -0.3224  0.0991
  645MOL0     C85070   3.599  10.836   8.652 -0.0390 -0.5560 -0.3421
  645MOL0     C85071   3.666  10.964   8.639 -0.2538 -0.8533 -0.7775
  645MOL0     C85072   3.739  11.063   8.631  0.3988  0.2958 -0.1579
  645MOL0     C85073   3.928  10.260   8.742 -0.3084 -1.0934 -0.2664
  645MOL0     C85074   3.979  10.125   8.758 -0.3051 -0.7468  0.6418
  645MOL0     H85075   3.810   9.569   8.782 -2.6714 -0.3011  1.3611
  645MOL0     H85076   3.837   9.339   8.884  1.6123 -0.1221 -2.3248
  645MOL0     H85077   3.984   9.342   9.297  1.2683 -0.2146  0.7958
  645MOL0     H85078   4.117   9.253   9.225 -0.1145 -0.0222  0.7478
  645MOL0     H85079   3.836   9.126   9.257  0.1954  3.6808  0.6428
  645MOL0     H85080   3.941   9.135   9.385  1.6466 -0.2138 -0.0622
  645MOL0     H85081   4.089   8.996   9.233 -0.0695  0.9306  3.9225
  645MOL0     H85082   3.966   9.005   9.109  0.7861 -0.1644  0.2108
  645MOL0     H85083   3.894   8.912   9.400  0.7918 -3.3216  1.2765
  645MOL0     H85084   3.803   8.883   9.249 -0.2811 -4.4029 -0.4295
  645MOL0     H85085   3.923   8.687   9.328 -2.9878  0.0054 -2.4821
  645MOL0     H85086   4.082   8.775   9.311 -0.7730  1.2462  0.8964
  645MOL0     H85087   4.020   8.791   9.071  1.4800 -1.6399 -0.9885
  645MOL0     H85088   3.866   8.722   9.094 -0.2822  2.2804  0.2043
  645MOL0     H85089   4.137   8.572   9.143  0.8113  1.1034 -0.6253
  645MOL0     H85090   3.971   8.503   9.159  0.3902  1.8278  1.9840
  645MOL0     H85091   3.960   8.581   8.897 -0.9437 -2.5441  0.7363
  645MOL0     H85092   4.077   8.446   8.923  1.7509  0.1542  1.8349
  645MOL0     H85093   4.050   8.795   8.831 -1.3608 -3.5467  1.0532
  645MOL0     H85094   4.222   8.896   8.621 -0.3018  2.1326  0.6384
  645MOL0     H85095   4.387   8.856   8.631  0.7568  0.5818 -0.1341
  645MOL0     H85096   4.407   9.032   8.817  0.5917 -3.1337 -0.5934
  645MOL0     H85097   4.229   9.059   8.797  0.1357  0.4609 -0.5137
  645MOL0     H85098   4.391   9.080   8.550  0.2811 -1.5966  1.5984
  645MOL0     H85099   4.264   9.194   8.606 -0.5280 -1.6149 -0.8320
  645MOL0     H85100   4.499   9.292   8.599 -1.4438  0.8964 -0.3901
  645MOL0     H85101   4.530   9.179   8.737 -2.3865 -0.9135  1.9900
  645MOL0     H85102   4.255   9.508   8.843  1.2023 -3.3310  2.4937
  645MOL0     H85103   4.343   9.752   8.879  4.7160  4.2866 -1.6076
  645MOL0     H85104   4.580  10.124   8.745 -0.0960 -2.1895  0.7191
  645MOL0     H85105   4.616  10.359   8.830  1.4147 -1.1654 -2.0349
  645MOL0     H85106   4.765  10.523   8.992 -0.9798  0.6746  0.7005
  645MOL0     H85107   4.849  10.375   9.023  2.0866  1.3482  0.3217
  645MOL0     H85108   4.758  10.567   9.230  2.2406  1.4273  3.4840
  645MOL0     H85109   4.923  10.584   9.151  0.8896 -0.1479  0.9000
  645MOL0     H85110   5.017  10.409   9.200 -0.8370  1.0251 -1.7925
  645MOL0     H85111   4.880  10.323   9.270 -1.0260  1.0320  1.7190
  645MOL0     H85112   4.973  10.580   9.401 -0.6884 -0.3188  0.3736
  645MOL0     H85113   4.835  10.472   9.446  0.1129 -0.1252 -0.2944
  645MOL0     H85114   5.085  10.309   9.419  1.0203 -2.2344  1.8544
  645MOL0     H85115   4.963  10.311   9.540  0.7387  1.6437  1.5888
  645MOL0     H85116   5.060  10.504   9.652 -1.3320  0.6669 -0.6090
  645MOL0     H85117   5.172  10.522   9.511  0.2734  0.4997  0.5269
  645MOL0     H85118   5.162  10.253   9.662 -3.4219  1.8196  2.5673
  645MOL0     H85119   5.294  10.318   9.564  0.8574  1.2151  0.5750
  645MOL0     H85120   5.346  10.358   9.811  0.9879  0.7374  0.0423
  645MOL0     H85121   5.189  10.447   9.814 -2.1516  0.6127 -2.5027
  645MOL0     H85122   4.580  10.198   9.234 -0.7722 -1.6898 -0.1113
  645MOL0     H85123   4.491   9.991   9.122 -4.3126  3.2597 -0.5763
  645MOL0     H85124   4.746   9.602   8.805  0.3211  0.5046  0.0052
  645MOL0     H85125   4.649   9.377   8.767  1.4212  1.7363 -0.8477
  645MOL0     H85126   4.084   9.518   9.180  0.3160  1.1058  0.1138
  645MOL0     H85127   4.052   9.726   9.086 -0.0778 -0.2945  1.9967
  645MOL0     H85128   3.738   9.978   8.939 -0.8545 -0.3964 -2.0911
  645MOL0     H85129   3.646  10.203   8.913  0.3204  1.2120 -1.0137
  645MOL0     H85130   3.766  10.463   8.624 -1.8445  2.2043 -0.2675
  645MOL0     H85131   3.871  10.535   8.743  0.3655 -1.1901 -0.3724
  645MOL0     H85132   3.562  10.573   8.728  0.9672  0.9676 -2.8794
  645MOL0     H85133   3.683  10.657   8.844  0.5578 -1.5379  1.6524
  645MOL0     H85134   3.656  10.663   8.545  0.1290 -1.5536  0.5503
  645MOL0     H85135   3.787  10.739   8.643 -0.2445 -1.2880  0.4522
  645MOL0     H85136   3.519  10.818   8.580  0.4223 -0.9523 -0.7637
  645MOL0     H85137   3.552  10.845   8.751  0.2849  0.9814 -0.3079
  645MOL0     H85138   3.802  11.149   8.633 -2.2638  2.3482  1.1898
  645MOL0     H85139   3.993  10.336   8.700 -0.2870 -0.8541  0.1986
  645MOL0     H85140   4.075  10.112   8.709  0.4086  2.6479  0.8630
  646MOL0     O85141   5.977  10.362   3.815 -0.0431 -0.6888  0.8153
  646MOL0     C85142   6.079  10.297   3.816  1.0950  0.0358  0.1696
  646MOL0     O85143   6.103  10.188   3.746  0.5514  0.1822 -0.1081
  646MOL0     C85144   6.055  10.163   3.622  0.0326  1.2658 -0.5556
  646MOL0     C85145   6.038  10.255   3.532  0.4290  0.1346  0.3730
  646MOL0     C85146   5.975  10.216   3.408  0.6994  0.2703 -0.0751
  646MOL0     C85147   5.956  10.079   3.377  0.9338  0.2486  0.2828
  646MOL0     O85148   5.919  10.025   3.256 -1.0114 -0.1904 -0.3823
  646MOL0     C85149   5.952  10.099   3.147 -0.2291 -0.1640  0.7892
  646MOL0     C85150   5.975   9.980   3.045  0.0244 -0.8258 -0.3514
  646MOL0     C85151   6.108   9.909   3.055  0.4561  0.7911 -0.0493
  646MOL0     C85152   6.224  10.004   3.030 -0.8371 -0.2129  0.0187
  646MOL0     C85153   6.365   9.926   3.036  0.2614  0.8170 -0.7774
  646MOL0     C85154   6.473   9.995   2.946 -1.0868 -0.3920 -0.2632
  646MOL0     C85155   6.445   9.982   2.793 -0.3112 -0.0911  0.3290
  646MOL0     C85156   6.560  10.059   2.715  0.6862  0.5152  0.0661
  646MOL0     N85157   6.709  10.038   2.724  0.7234  0.6748  0.6982
  646MOL0     C85158   6.790  10.006   2.828  0.5139 -0.1016  0.5114
  646MOL0     C85159   6.910  10.023   2.785 -0.6668  0.6082  1.0182
  646MOL0     C85160   7.031   9.981   2.865  0.1173 -0.3819  1.6177
  646MOL0     C85161   7.143  10.083   2.842  0.2022 -0.6444 -0.7261
  646MOL0     C85162   7.276  10.030   2.886 -0.3469 -0.2411  0.1839
  646MOL0     C85163   7.327   9.920   2.792 -0.7710  0.3112  0.6967
  646MOL0     O85164   7.363   9.956   2.660  0.3277 -0.0172 -0.3613
  646MOL0     C85165   7.464  10.049   2.644  0.4965 -0.0645  0.4564
  646MOL0     C85166   7.595  10.009   2.663  0.0633  0.3705  0.0842
  646MOL0     C85167   7.694  10.112   2.661 -0.1387 -0.4427  0.4418
  646MOL0     C85168   7.666  10.243   2.616  1.0999 -0.4217 -0.2616
  646MOL0     C85169   7.781  10.341   2.619 -0.3306 -1.2692 -1.0655
  646MOL0     O85170   7.752  10.471   2.598 -0.0236 -0.9151 -0.4841
  646MOL0     C85171   7.857  10.555   2.583 -0.0834  0.7114  0.6542
  646MOL0     C85172   7.935  10.551   2.470  0.0760  0.2708 -0.0886
  646MOL0     C85173   8.035  10.648   2.458 -0.4581  0.4387  0.1761
  646MOL0     C85174   8.057  10.743   2.564 -0.1133  0.9438 -1.4281
  646MOL0     O85175   8.163  10.833   2.546  0.1506 -0.3409  0.1627
  646MOL0     C85176   8.274  10.822   2.621  0.1342 -0.6231  0.6500
  646MOL0     C85177   8.377  10.889   2.547 -0.3454  0.5312  0.2430
  646MOL0     C85178   8.510  10.853   2.607  1.5754 -0.0221  0.9173
  646MOL0     C85179   8.625  10.939   2.551  0.6577  0.2109 -0.0969
  646MOL0     C85180   8.753  10.887   2.604  0.7582 -0.0203 -0.0995
  646MOL0     C85181   8.860  10.984   2.528 -0.0897  0.0507 -0.4459
  646MOL0     C85182   9.004  10.940   2.566 -0.5311 -0.3845 -1.0648
  646MOL0     C85183   9.036  10.990   2.708  0.0828  0.3606  0.6640
  646MOL0    Cl85184   9.195  10.936   2.768 -0.2214 -0.0216  0.0715
  646MOL0     C85185   7.981  10.732   2.678 -0.1978 -0.5699 -0.6862
  646MOL0     C85186   7.877  10.639   2.691 -1.0590  0.1639  0.8667
  646MOL0     O85187   7.896  10.302   2.648 -0.0021 -0.0919 -0.2287
  646MOL0     C85188   7.541  10.272   2.594  0.4396  0.2500  0.3679
  646MOL0     C85189   7.436  10.183   2.614  1.0559  0.7125 -0.0801
  646MOL0     N85190   6.910  10.024   2.647 -1.0154 -0.3914  0.3245
  646MOL0     N85191   6.788  10.041   2.609  0.2666 -0.0843 -0.0271
  646MOL0     C85192   5.977   9.984   3.473  0.4322  0.3162  0.6694
  646MOL0     C85193   6.034  10.024   3.592 -0.0936 -0.4907  0.0312
  646MOL0     C85194   6.181  10.331   3.922  0.1720 -0.2130 -0.0770
  646MOL0     C85195   6.162  10.444   4.006  0.1081  0.2907  0.4039
  646MOL0     C85196   6.265  10.492   4.081  0.2768 -0.1475 -0.2111
  646MOL0     C85197   6.388  10.435   4.072  0.1231  0.0077  0.2716
  646MOL0     O85198   6.495  10.485   4.139 -0.2152 -0.0122 -0.5573
  646MOL0     C85199   6.569  10.586   4.075 -0.1794 -0.4385  0.4286
  646MOL0     C85200   6.671  10.627   4.165 -1.2931 -0.2166  0.0940
  646MOL0     C85201   6.778  10.726   4.109  0.1080  1.5055  0.4831
  646MOL0     C85202   6.766  10.874   4.156 -0.0964  0.3102  0.3970
  646MOL0     C85203   6.636  10.921   4.102  0.2065 -0.4651  0.7337
  646MOL0     C85204   6.528  10.955   4.056 -0.3786 -0.0006  0.5547
  646MOL0     C85205   6.406  10.319   4.003  0.7650 -0.3556 -1.0319
  646MOL0     C85206   6.302  10.260   3.931  0.2680 -0.6020 -1.4044
  646MOL0     H85207   6.080  10.352   3.558  0.1813 -0.0649  1.5568
  646MOL0     H85208   5.939  10.277   3.325  1.8840  0.2320 -0.6310
  646MOL0     H85209   6.049  10.149   3.153  0.5834 -1.7419  1.4474
  646MOL0     H85210   5.878  10.170   3.109  3.1184  1.0953 -4.3314
  646MOL0     H85211   5.981  10.005   2.938  1.7506 -3.1627 -0.8836
  646MOL0     H85212   5.882   9.924   3.058 -0.9115  0.6511 -0.3177
  646MOL0     H85213   6.118   9.837   2.973 -0.3944 -0.5797  1.0072
  646MOL0     H85214   6.118   9.855   3.149  2.6885  1.5883  0.2229
  646MOL0     H85215   6.206  10.046   2.930 -1.3685 -1.6941 -0.5453
  646MOL0     H85216   6.236  10.077   3.110 -0.2810 -0.2593 -0.0248
  646MOL0     H85217   6.356   9.823   3.000  1.3982  0.4541 -0.0558
  646MOL0     H85218   6.391   9.909   3.140 -2.9433 -1.7800 -0.2264
  646MOL0     H85219   6.570   9.951   2.971 -0.3135  0.4372 -1.6804
  646MOL0     H85220   6.475  10.099   2.977 -1.5651  0.2661 -2.2585
  646MOL0     H85221   6.455   9.879   2.755 -0.8264  0.9648 -3.0073
  646MOL0     H85222   6.346  10.018   2.765  0.5987  3.4284  1.1208
  646MOL0     H85223   6.546  10.168   2.722  0.0395  0.4665 -0.4105
  646MOL0     H85224   6.531  10.037   2.612 -3.8589 -2.2678  1.6393
  646MOL0     H85225   6.768   9.986   2.932 -0.9212  1.3540  0.5145
  646MOL0     H85226   7.061   9.884   2.823  3.9962  1.2910  0.0555
  646MOL0     H85227   7.006   9.981   2.971  0.1967  0.0118  1.6377
  646MOL0     H85228   7.106  10.166   2.903 -1.8086 -3.8147  2.7963
  646MOL0     H85229   7.148  10.114   2.737  1.8572 -3.2031 -1.4940
  646MOL0     H85230   7.348  10.112   2.881  0.6004 -1.0373  0.5397
  646MOL0     H85231   7.266   9.999   2.991 -0.3731  1.4223  0.7146
  646MOL0     H85232   7.261   9.833   2.789  1.0826 -1.1221 -0.8134
  646MOL0     H85233   7.421   9.889   2.839  1.0394  2.7117 -1.0975
  646MOL0     H85234   7.625   9.908   2.689  1.7259 -0.5043 -4.4341
  646MOL0     H85235   7.795  10.085   2.692 -0.2028 -4.1348 -1.9822
  646MOL0     H85236   7.912  10.480   2.391 -0.5838  0.3864 -0.0071
  646MOL0     H85237   8.108  10.650   2.378  0.2633  0.7247  0.8245
  646MOL0     H85238   8.300  10.719   2.645  0.3172 -0.6320  0.4158
  646MOL0     H85239   8.262  10.869   2.720  0.7002 -0.6963  0.7570
  646MOL0     H85240   8.357  10.995   2.560 -3.6714  0.1292 -0.5309
  646MOL0     H85241   8.368  10.870   2.439  0.5320  1.3083  0.0212
  646MOL0     H85242   8.522  10.750   2.571 -1.7855  0.6335 -2.7138
  646MOL0     H85243   8.504  10.856   2.716 -0.5600  0.2674  0.8200
  646MOL0     H85244   8.615  10.938   2.442  0.4453 -2.9353 -0.1508
  646MOL0     H85245   8.610  11.045   2.571  3.3774  0.9741 -1.6837
  646MOL0     H85246   8.767  10.785   2.568  1.7476 -0.3101  1.0490
  646MOL0     H85247   8.760  10.874   2.712 -0.8204 -2.8147 -0.2380
  646MOL0     H85248   8.854  11.086   2.565  2.9086 -0.0201  0.4925
  646MOL0     H85249   8.852  10.993   2.419 -1.8165 -1.6265 -0.4992
  646MOL0     H85250   9.011  10.831   2.557 -2.1375 -0.7422  1.0835
  646MOL0     H85251   9.068  10.999   2.500  2.1955 -0.8466  0.9765
  646MOL0     H85252   8.965  10.926   2.761  1.7091 -3.6024 -1.5093
  646MOL0     H85253   9.016  11.095   2.731  0.4710  0.4630  0.5502
  646MOL0     H85254   7.999  10.813   2.748 -0.7487 -2.0718  1.2615
  646MOL0     H85255   7.823  10.614   2.782  1.6505  0.2236  2.6247
  646MOL0     H85256   7.514  10.374   2.568  0.5739  0.7084  1.8990
  646MOL0     H85257   7.344  10.229   2.578  1.3603  0.5458 -1.1059
  646MOL0     H85258   5.961   9.877   3.464  2.4198 -0.1035  1.6727
  646MOL0     H85259   6.079   9.950   3.658  1.1801  2.1184  2.3030
  646MOL0     H85260   6.066  10.493   4.019 -0.9545 -1.7627  0.7307
  646MOL0     H85261   6.256  10.585   4.136 -0.7055  2.0555 -3.7911
  646MOL0     H85262   6.513  10.674   4.040  0.7755  0.7243  1.7211
  646MOL0     H85263   6.605  10.538   3.984 -1.0926  1.8431 -1.2508
  646MOL0     H85264   6.628  10.663   4.259 -2.5744  0.6014 -0.7660
  646MOL0     H85265   6.723  10.532   4.181 -3.4714 -1.7214 -1.0681
  646MOL0     H85266   6.786  10.725   4.000 -0.1580  0.6989  0.4626
  646MOL0     H85267   6.877  10.693   4.143  0.0366  1.8482  1.0408
  646MOL0     H85268   6.758  10.882   4.264 -5.3788  2.3869  0.1447
  646MOL0     H85269   6.852  10.929   4.116 -1.7133  3.0050  0.4018
  646MOL0     H85270   6.428  10.973   4.022 -1.3923 -1.6505  2.4401
  646MOL0     H85271   6.508  10.281   4.001  1.1261  0.3901  0.9437
  646MOL0     H85272   6.307  10.162   3.885 -0.3983 -3.0901  3.2067
  647MOL0     O85273   5.532   5.021  10.859 -0.0759 -0.1103  0.6445
  647MOL0     C85274   5.449   5.099  10.901 -0.2814 -0.8537 -0.7499
  647MOL0     O85275   5.478   5.209  10.982 -0.0121  0.3754  0.3332
  647MOL0     C85276   5.610   5.240  10.991  0.6261  0.0887  0.6595
  647MOL0     C85277   5.675   5.196  11.112  0.7662  0.0292  0.2324
  647MOL0     C85278   5.812   5.231  11.129  0.1377 -0.0135  0.1497
  647MOL0     C85279   5.878   5.311  11.033  0.3452 -0.0886 -0.1837
  647MOL0     O85280   5.998   5.364  11.065  0.4702  0.4809  0.2874
  647MOL0     C85281   6.115   5.335  10.986  0.3804  0.0902  0.2756
  647MOL0     C85282   6.232   5.380  11.075 -0.8101  0.1598  0.2288
  647MOL0     C85283   6.354   5.383  10.989 -0.5257 -0.1923 -0.0912
  647MOL0     C85284   6.492   5.387  11.053  0.3436  0.3457  0.2807
  647MOL0     C85285   6.521   5.531  11.109 -1.9005  0.6519 -0.1153
  647MOL0     C85286   6.663   5.505  11.180 -0.0853 -0.1464  0.3689
  647MOL0     C85287   6.735   5.640  11.204 -0.8084 -0.5543  0.4061
  647MOL0     C85288   6.767   5.736  11.085  0.2315 -0.0419 -0.5886
  647MOL0     N85289   6.848   5.675  10.977 -0.1069  0.9274 -0.4970
  647MOL0     C85290   6.989   5.647  10.965  0.0950  0.5386 -0.5373
  647MOL0     C85291   6.998   5.557  10.861 -0.4089  0.7882 -0.2657
  647MOL0     C85292   7.130   5.491  10.801 -0.1508 -1.3239 -0.1819
  647MOL0     C85293   7.133   5.338  10.777 -0.4542 -0.4423  0.9496
  647MOL0     C85294   7.059   5.299  10.646 -0.6478 -0.8147  0.1521
  647MOL0     C85295   7.038   5.145  10.628  0.9911 -0.2074  0.7247
  647MOL0     O85296   6.933   5.104  10.718 -0.2650 -0.1138 -0.0731
  647MOL0     C85297   6.898   4.973  10.708  0.4195  0.6888 -1.4265
  647MOL0     C85298   6.770   4.933  10.757 -0.4155  1.0355 -0.2117
  647MOL0     C85299   6.710   4.806  10.736  0.3251  0.6290  0.1217
  647MOL0     C85300   6.780   4.709  10.669 -0.7530  1.0932 -0.6309
  647MOL0     C85301   6.723   4.575  10.640 -0.2407 -0.6651  1.8320
  647MOL0     O85302   6.607   4.538  10.694 -0.3414  0.1764 -0.2698
  647MOL0     C85303   6.533   4.429  10.659  0.1672 -0.9209  0.6442
  647MOL0     C85304   6.585   4.308  10.617 -0.8376 -0.8224 -1.8759
  647MOL0     C85305   6.507   4.192  10.601 -0.0384  0.5537  1.4855
  647MOL0     C85306   6.365   4.207  10.625  2.1332 -0.6383 -0.2818
  647MOL0     O85307   6.289   4.090  10.608  0.2181  0.1859 -0.3205
  647MOL0     C85308   6.149   4.100  10.579  0.5905  0.4113 -0.3861
  647MOL0     C85309   6.106   4.081  10.438  0.0283  0.8700 -0.5959
  647MOL0     C85310   6.173   3.959  10.366 -0.1941  0.9469  1.0043
  647MOL0     C85311   6.122   3.923  10.226  0.2791  0.3732  0.3452
  647MOL0     C85312   6.186   3.803  10.177  0.6900  1.2138  0.4046
  647MOL0     C85313   6.181   3.791  10.025  0.3709 -0.3214  0.2624
  647MOL0     C85314   6.327   3.771   9.973 -0.9053 -0.2575 -1.3671
  647MOL0     C85315   6.344   3.759   9.830  0.2755  0.4235 -0.7738
  647MOL0    Cl85316   6.247   3.619   9.757 -0.5567  0.0472 -0.3519
  647MOL0     C85317   6.312   4.336  10.648  0.1466 -0.2877  1.2523
  647MOL0     C85318   6.395   4.452  10.660 -0.0626  0.6747  0.4133
  647MOL0     O85319   6.779   4.512  10.549  0.2780  0.7383  0.1700
  647MOL0     C85320   6.911   4.742  10.634 -0.0253  1.5744 -0.3364
  647MOL0     C85321   6.970   4.865  10.656  0.0305 -0.1337 -0.2619
  647MOL0     N85322   6.874   5.540  10.816  0.4311 -0.0940  0.0715
  647MOL0     N85323   6.785   5.600  10.884 -0.8535 -0.0600  0.0703
  647MOL0     C85324   5.815   5.334  10.907 -0.8750 -0.1296 -0.8423
  647MOL0     C85325   5.682   5.298  10.883 -0.2427  0.4932 -0.4489
  647MOL0     C85326   5.297   5.067  10.878 -1.2276 -0.4100 -0.4268
  647MOL0     C85327   5.185   5.132  10.947  0.5427  1.1307 -1.1813
  647MOL0     C85328   5.053   5.105  10.916  0.4988 -0.8611  0.5780
  647MOL0     C85329   5.028   5.005  10.823  1.1283 -0.0569  0.5055
  647MOL0     O85330   4.914   4.958  10.775 -0.5982  0.3998 -0.1187
  647MOL0     C85331   4.789   5.003  10.834  1.6686  0.3679 -0.1126
  647MOL0     C85332   4.664   4.935  10.758 -0.0871 -1.3539 -0.4686
  647MOL0     C85333   4.543   4.917  10.841  1.3690 -0.1086 -0.0338
  647MOL0     C85334   4.427   4.836  10.780  0.3059 -0.0889  0.1722
  647MOL0     C85335   4.455   4.708  10.708 -0.9846 -0.7700 -0.2437
  647MOL0     C85336   4.490   4.603  10.655  0.2801  0.2581 -0.3620
  647MOL0     C85337   5.136   4.946  10.762  1.2882  0.5046  1.1553
  647MOL0     C85338   5.268   4.975  10.787 -0.1792 -0.9363  0.0307
  647MOL0     H85339   5.620   5.138  11.186 -1.5554  1.8289  0.0410
  647MOL0     H85340   5.878   5.195  11.207  0.9395  0.7163 -0.1736
  647MOL0     H85341   6.113   5.402  10.900  2.4382 -0.2287 -0.0722
  647MOL0     H85342   6.108   5.231  10.951 -4.6867  1.3190 -3.6906
  647MOL0     H85343   6.247   5.311  11.158  3.4979  0.9021  0.2846
  647MOL0     H85344   6.218   5.480  11.118  0.0851  0.7135 -0.7323
  647MOL0     H85345   6.338   5.465  10.917 -0.1238 -0.0570 -0.0283
  647MOL0     H85346   6.351   5.286  10.939 -1.2766 -1.6141  2.5659
  647MOL0     H85347   6.501   5.310  11.130 -1.1285 -1.8445 -1.6067
  647MOL0     H85348   6.566   5.356  10.979  1.1600 -1.0176  1.6054
  647MOL0     H85349   6.444   5.574  11.174 -0.6657  1.5036  0.8393
  647MOL0     H85350   6.534   5.601  11.026 -1.1005 -0.6192 -1.1132
  647MOL0     H85351   6.718   5.442  11.109 -0.5507 -1.6707  1.3069
  647MOL0     H85352   6.639   5.455  11.274 -1.9484 -0.2137 -0.1166
  647MOL0     H85353   6.670   5.700  11.268  0.1062  0.2797  0.5710
  647MOL0     H85354   6.831   5.618  11.250 -0.4641  0.9186  0.4383
  647MOL0     H85355   6.819   5.824  11.125  1.4462 -0.7400 -0.5842
  647MOL0     H85356   6.675   5.778  11.044 -0.1853 -0.7048 -0.3427
  647MOL0     H85357   7.072   5.663  11.033  0.8173  0.0607 -1.2880
  647MOL0     H85358   7.216   5.516  10.863 -2.2144 -0.1835  2.3894
  647MOL0     H85359   7.155   5.543  10.708  0.2907  0.8852  1.1043
  647MOL0     H85360   7.089   5.287  10.863 -1.0601 -0.9953  0.3210
  647MOL0     H85361   7.235   5.302  10.762 -0.9945 -0.6911 -2.9303
  647MOL0     H85362   6.960   5.346  10.653 -0.2293  0.2631 -1.0395
  647MOL0     H85363   7.106   5.342  10.558 -1.5575 -2.4533 -1.2141
  647MOL0     H85364   7.135   5.099  10.649 -0.2867 -2.3469  2.4891
  647MOL0     H85365   7.006   5.132  10.524 -1.4874  3.4657  0.8332
  647MOL0     H85366   6.702   5.005  10.802 -0.5669  1.5132 -1.1770
  647MOL0     H85367   6.617   4.794  10.791  0.6963  0.9646  0.8438
  647MOL0     H85368   6.692   4.308  10.631 -1.2336  0.2539  3.0078
  647MOL0     H85369   6.545   4.093  10.578  1.2783  1.2382  0.5931
  647MOL0     H85370   6.095   4.185  10.621  0.7021 -1.0562  2.9978
  647MOL0     H85371   6.108   4.007  10.618  1.5707 -0.5602 -1.5985
  647MOL0     H85372   6.122   4.171  10.377  0.3615  0.0092 -1.8277
  647MOL0     H85373   5.999   4.065  10.450  0.3701  0.6855  3.3220
  647MOL0     H85374   6.139   3.873  10.425 -0.2892 -0.4014 -0.9315
  647MOL0     H85375   6.281   3.967  10.379  0.2004 -1.9669  0.1328
  647MOL0     H85376   6.013   3.913  10.224  0.3029  0.2724 -0.8142
  647MOL0     H85377   6.148   4.010  10.166  0.3703 -0.2071 -0.4774
  647MOL0     H85378   6.132   3.713  10.208  1.4645 -0.2520 -2.2277
  647MOL0     H85379   6.278   3.776  10.229 -0.5129 -2.9144  0.7494
  647MOL0     H85380   6.127   3.872   9.977 -3.7187 -1.6443  2.1542
  647MOL0     H85381   6.123   3.707   9.985 -2.6778  2.4669 -1.6486
  647MOL0     H85382   6.398   3.840  10.020 -2.4717 -0.6122  1.7608
  647MOL0     H85383   6.370   3.680  10.015  2.6394  0.5744 -2.7569
  647MOL0     H85384   6.447   3.757   9.792  0.6016  2.6128 -0.1794
  647MOL0     H85385   6.304   3.853   9.790 -0.6015  0.8393  1.0256
  647MOL0     H85386   6.204   4.348  10.641 -0.0862 -2.3759  0.4376
  647MOL0     H85387   6.342   4.546  10.669 -0.9119  0.2819 -0.3621
  647MOL0     H85388   6.972   4.665  10.588 -2.0583 -0.4189  0.0934
  647MOL0     H85389   7.075   4.874  10.628  0.8480 -1.9062  1.9745
  647MOL0     H85390   5.875   5.386  10.834  1.4610 -1.4772 -0.0033
  647MOL0     H85391   5.648   5.314  10.781  3.9003 -0.2357 -2.1686
  647MOL0     H85392   5.204   5.212  11.017 -0.1763  0.6471 -0.4263
  647MOL0     H85393   4.979   5.153  10.980 -0.0409 -3.1495  1.7794
  647MOL0     H85394   4.776   5.110  10.815  2.0927  0.3618 -0.4624
  647MOL0     H85395   4.793   4.995  10.943 -2.7444  0.7312  0.2484
  647MOL0     H85396   4.631   4.996  10.673 -1.2281 -0.8962  0.2707
  647MOL0     H85397   4.704   4.838  10.728  1.6759 -2.0791  3.6560
  647MOL0     H85398   4.494   5.006  10.881 -2.1151  1.2487 -5.9958
  647MOL0     H85399   4.584   4.868  10.929 -0.3847  0.1105  0.9562
  647MOL0     H85400   4.355   4.828  10.863  0.1172  5.1219  0.8792
  647MOL0     H85401   4.379   4.903  10.708 -2.0661  0.2781  1.9787
  647MOL0     H85402   4.508   4.507  10.610 -0.7863 -0.2351  0.2292
  647MOL0     H85403   5.115   4.882  10.677 -1.4849  2.2427  0.4042
  647MOL0     H85404   5.340   4.930  10.720  0.8634 -0.3456  0.7233
  648MOL0     O85405   1.720   1.949   6.659 -0.2172 -0.5661  0.0906
  648MOL0     C85406   1.835   2.002   6.659  0.6814 -0.2125  0.1757
  648MOL0     O85407   1.869   2.126   6.687  0.0412 -0.2461  0.6717
  648MOL0     C85408   1.776   2.210   6.718  0.7536  0.1373 -0.7411
  648MOL0     C85409   1.680   2.245   6.610 -0.7187  1.1154 -0.6655
  648MOL0     C85410   1.559   2.316   6.653 -0.5568  0.1911 -0.1809
  648MOL0     C85411   1.543   2.353   6.788  0.4449 -0.8400 -0.5430
  648MOL0     O85412   1.421   2.415   6.828 -0.6937  0.5868  0.1630
  648MOL0     C85413   1.443   2.539   6.883 -0.2908  0.4707 -1.9850
  648MOL0     C85414   1.450   2.640   6.768 -0.0649  0.3596 -0.0405
  648MOL0     C85415   1.322   2.660   6.693  0.8572  0.1906  0.0813
  648MOL0     C85416   1.218   2.722   6.784  0.0632  0.7949 -1.4644
  648MOL0     C85417   1.082   2.768   6.728  0.1179  0.4836 -0.4604
  648MOL0     C85418   1.028   2.889   6.802 -0.1231  1.3805 -1.2980
  648MOL0     C85419   0.908   2.951   6.734  0.0884 -0.3959 -0.5857
  648MOL0     C85420   0.869   3.088   6.800  1.0056 -0.6412 -0.9284
  648MOL0     N85421   0.741   3.138   6.757  0.1912  0.2170 -0.1950
  648MOL0     C85422   0.692   3.243   6.690  0.4369 -1.2273 -0.2914
  648MOL0     C85423   0.560   3.211   6.672  0.2528 -0.3715  1.3083
  648MOL0     C85424   0.465   3.292   6.601 -0.1409 -0.1026 -0.2168
  648MOL0     C85425   0.519   3.341   6.472  0.4471 -0.0842  0.2754
  648MOL0     C85426   0.397   3.369   6.384  0.3681 -0.5831 -0.4655
  648MOL0     C85427   0.291   3.475   6.422  1.3808 -0.5672 -0.4953
  648MOL0     O85428   0.215   3.461   6.544 -0.6132  0.3609  0.2419
  648MOL0     C85429   0.091   3.399   6.539  0.4730 -0.1283 -1.2584
  648MOL0     C85430  -0.030   3.461   6.576  0.6765  0.5267  0.5778
  648MOL0     C85431  -0.150   3.395   6.562  0.5471 -0.4015  0.3230
  648MOL0     C85432  -0.165   3.265   6.517 -0.5095 -0.3904  0.2490
  648MOL0     C85433  -0.285   3.193   6.504 -0.8722  0.9041  0.3681
  648MOL0     O85434  -0.296   3.094   6.412 -0.2226  0.5730 -0.0257
  648MOL0     C85435  -0.400   3.006   6.424 -0.1889  1.0570  0.5089
  648MOL0     C85436  -0.518   3.016   6.347  0.2225 -0.4419  0.5986
  648MOL0     C85437  -0.627   2.921   6.354 -0.6451 -0.7007  0.1690
  648MOL0     C85438  -0.607   2.810   6.440 -0.1203  0.1956 -0.4838
  648MOL0     O85439  -0.698   2.708   6.459  0.6806  0.5264 -0.0799
  648MOL0     C85440  -0.796   2.665   6.366  0.6866 -0.2583 -0.0998
  648MOL0     C85441  -0.845   2.530   6.413  0.1316 -1.1479  0.0809
  648MOL0     C85442  -0.944   2.475   6.316  0.2140 -0.0503  0.0664
  648MOL0     C85443  -0.987   2.338   6.372  0.6587 -0.1326 -1.4009
  648MOL0     C85444  -1.046   2.241   6.272  0.4249  0.6566  0.0304
  648MOL0     C85445  -1.073   2.111   6.346 -0.4965  0.3852  0.3394
  648MOL0     C85446  -1.111   2.000   6.229 -0.8719 -0.3320 -0.4962
  648MOL0     C85447  -1.130   1.854   6.278  0.4912  0.0854  0.6528
  648MOL0    Cl85448  -1.253   1.853   6.404 -0.1023 -0.2248 -0.7345
  648MOL0     C85449  -0.493   2.805   6.526 -0.1114  0.0903  0.6157
  648MOL0     C85450  -0.387   2.905   6.515  0.2996  0.1449  0.8847
  648MOL0     O85451  -0.374   3.223   6.588 -0.3448  0.1561 -0.4274
  648MOL0     C85452  -0.046   3.201   6.479  0.8479 -0.0342  0.5700
  648MOL0     C85453   0.072   3.269   6.485 -0.4189 -0.0098  0.0180
  648MOL0     N85454   0.526   3.096   6.739 -0.0120 -0.4363 -0.3402
  648MOL0     N85455   0.637   3.051   6.792 -0.4207  0.6166 -0.2258
  648MOL0     C85456   1.627   2.323   6.895 -0.1010  0.8313 -0.0937
  648MOL0     C85457   1.742   2.244   6.852 -0.0643 -0.0401  0.7022
  648MOL0     C85458   1.942   1.912   6.636 -0.9013  0.1177 -0.4291
  648MOL0     C85459   1.920   1.786   6.587 -0.1688  0.4201  0.2651
  648MOL0     C85460   2.020   1.699   6.549 -0.1883  0.2354 -0.0318
  648MOL0     C85461   2.155   1.729   6.559  0.0706 -0.3449  0.5288
  648MOL0     O85462   2.250   1.632   6.523 -0.9648 -0.4584 -0.2161
  648MOL0     C85463   2.392   1.652   6.558  0.1191 -0.0989  0.6870
  648MOL0     C85464   2.484   1.632   6.432  1.2312 -0.2510 -0.4289
  648MOL0     C85465   2.494   1.765   6.364  0.1648  0.1796  0.0915
  648MOL0     C85466   2.581   1.744   6.237  0.7823 -0.4703 -0.4473
  648MOL0     C85467   2.639   1.867   6.201  0.1068 -1.1420  0.0200
  648MOL0     C85468   2.696   1.971   6.168  0.0579 -0.1036 -0.1580
  648MOL0     C85469   2.185   1.858   6.599 -0.0641  0.0509 -0.2611
  648MOL0     C85470   2.084   1.952   6.634 -0.8219  0.5477  0.0026
  648MOL0     H85471   1.690   2.224   6.504  0.2827 -1.5725 -0.1138
  648MOL0     H85472   1.484   2.334   6.576 -1.6135 -0.6713  0.6181
  648MOL0     H85473   1.530   2.533   6.949  0.0695 -0.1683 -2.5098
  648MOL0     H85474   1.361   2.555   6.953  1.1661  0.0121 -0.0873
  648MOL0     H85475   1.529   2.613   6.697  0.1045 -1.3854  0.7446
  648MOL0     H85476   1.479   2.732   6.819 -1.6225  0.7697  0.1793
  648MOL0     H85477   1.270   2.571   6.658 -0.8543  0.6334  1.3739
  648MOL0     H85478   1.331   2.724   6.604  3.9402 -0.5134 -0.2207
  648MOL0     H85479   1.200   2.655   6.868 -0.0266  2.6584  0.0529
  648MOL0     H85480   1.269   2.804   6.835  0.0043  0.8267 -1.4575
  648MOL0     H85481   1.014   2.683   6.731  2.8389 -1.8935 -1.2460
  648MOL0     H85482   1.095   2.798   6.624  1.7165  0.6510 -0.2356
  648MOL0     H85483   1.104   2.968   6.800  1.7448 -0.3288 -0.3027
  648MOL0     H85484   1.004   2.863   6.906 -3.1657 -1.5143 -2.5385
  648MOL0     H85485   0.929   2.979   6.630 -2.5722  1.4141 -0.7710
  648MOL0     H85486   0.824   2.881   6.739 -1.1128  1.0550  3.2097
  648MOL0     H85487   0.938   3.173   6.796  0.5455  0.1335  3.0668
  648MOL0     H85488   0.866   3.060   6.906  2.0412  2.4991  0.0528
  648MOL0     H85489   0.747   3.325   6.646  1.4423 -1.9649 -0.4278
  648MOL0     H85490   0.435   3.375   6.665 -2.1442  0.5586 -1.9093
  648MOL0     H85491   0.368   3.244   6.588 -0.3378  0.5902 -1.4732
  648MOL0     H85492   0.597   3.280   6.424  2.0479 -0.0077  2.6527
  648MOL0     H85493   0.581   3.430   6.485 -0.0008  0.5855 -1.8049
  648MOL0     H85494   0.445   3.396   6.289 -3.2068 -1.7373 -2.7699
  648MOL0     H85495   0.362   3.266   6.377 -0.6234 -0.4243  1.4517
  648MOL0     H85496   0.225   3.499   6.338 -1.4500 -0.6740  1.5695
  648MOL0     H85497   0.337   3.573   6.438 -0.6385  0.1572  1.4318
  648MOL0     H85498  -0.026   3.556   6.628  0.5778  0.4140  0.7947
  648MOL0     H85499  -0.242   3.442   6.598  0.6289  2.4909 -2.7617
  648MOL0     H85500  -0.528   3.098   6.277 -0.4064 -0.0142  1.1813
  648MOL0     H85501  -0.720   2.934   6.301 -0.4068  2.9134  0.4229
  648MOL0     H85502  -0.752   2.661   6.266 -0.1851 -2.8156 -0.4573
  648MOL0     H85503  -0.881   2.735   6.364  0.3800 -0.4041  3.1839
  648MOL0     H85504  -0.893   2.529   6.512 -1.5899  2.3582 -0.5757
  648MOL0     H85505  -0.754   2.470   6.410  1.6518  0.9858  1.2745
  648MOL0     H85506  -0.895   2.467   6.218 -0.6880  0.3985 -0.4369
  648MOL0     H85507  -1.034   2.535   6.299 -0.1000 -0.8335 -1.2629
  648MOL0     H85508  -0.914   2.289   6.437  0.1629  4.2514  3.1011
  648MOL0     H85509  -1.065   2.358   6.446 -0.0157 -2.3261 -1.4443
  648MOL0     H85510  -0.969   2.211   6.200  1.2443 -0.5950  1.3651
  648MOL0     H85511  -1.132   2.285   6.221 -1.1791 -0.4732  1.6167
  648MOL0     H85512  -1.148   2.129   6.423  0.9347  3.6423  1.1277
  648MOL0     H85513  -0.992   2.066   6.404 -0.2843  0.1125 -0.1665
  648MOL0     H85514  -1.201   2.027   6.172 -0.9186  1.4866  0.3758
  648MOL0     H85515  -1.033   1.991   6.153  0.7915  0.1219  1.0864
  648MOL0     H85516  -1.038   1.804   6.310  1.0747  0.8685  0.2623
  648MOL0     H85517  -1.160   1.786   6.197  2.0224 -0.7657  0.7586
  648MOL0     H85518  -0.478   2.735   6.608 -0.6492 -0.6139  0.1145
  648MOL0     H85519  -0.300   2.908   6.580  0.2859 -4.2091  1.3784
  648MOL0     H85520  -0.038   3.097   6.449  0.1087 -0.0744  0.5169
  648MOL0     H85521   0.158   3.217   6.445 -0.2844 -0.0849  0.3961
  648MOL0     H85522   1.598   2.343   6.997  0.1853  1.3105 -0.1028
  648MOL0     H85523   1.810   2.211   6.930  0.9598  3.0578  1.2330
  648MOL0     H85524   1.817   1.750   6.582  0.0698 -0.2766  0.3536
  648MOL0     H85525   2.001   1.600   6.509 -1.1962  1.0071 -1.5602
  648MOL0     H85526   2.405   1.569   6.628 -0.9824 -2.0670 -1.3280
  648MOL0     H85527   2.423   1.751   6.593  0.7626 -0.2445  0.5539
  648MOL0     H85528   2.588   1.622   6.464  1.7026  1.7016 -1.2259
  648MOL0     H85529   2.463   1.547   6.366 -0.4971  0.6254 -1.0711
  648MOL0     H85530   2.546   1.842   6.422  1.2775  0.0583 -0.7111
  648MOL0     H85531   2.392   1.797   6.338  0.0567  2.3360  2.7038
  648MOL0     H85532   2.666   1.678   6.255  3.8422  2.4410 -2.8166
  648MOL0     H85533   2.508   1.706   6.165 -3.5078 -0.0063  3.2264
  648MOL0     H85534   2.751   2.048   6.117 -2.4235  1.1152 -1.1330
  648MOL0     H85535   2.287   1.897   6.598 -0.8383  2.2120  0.3401
  648MOL0     H85536   2.109   2.055   6.656  3.2543 -0.2583  0.0443
  649MOL0     O85537  11.223   1.828   3.581 -0.2340 -0.2706 -0.0991
  649MOL0     C85538  11.166   1.725   3.564  0.2482 -0.0709  0.3510
  649MOL0     O85539  11.215   1.602   3.580 -0.3098 -0.2219  0.5558
  649MOL0     C85540  11.341   1.575   3.622  0.3889  0.8560  0.4415
  649MOL0     C85541  11.439   1.533   3.523  0.9438  1.0354 -0.6866
  649MOL0     C85542  11.580   1.539   3.569  0.8610 -0.3599  0.3466
  649MOL0     C85543  11.603   1.568   3.713 -0.1866  0.7699  1.6842
  649MOL0     O85544  11.725   1.567   3.766  0.5611  0.1749 -0.1561
  649MOL0     C85545  11.843   1.608   3.700  0.5053 -0.3921  0.0411
  649MOL0     C85546  11.901   1.487   3.647 -1.4422  0.1442 -0.7572
  649MOL0     C85547  11.962   1.400   3.764 -0.7709  0.9114  0.0287
  649MOL0     C85548  11.895   1.265   3.791  0.4506  1.7815 -0.7521
  649MOL0     C85549  11.978   1.186   3.894  0.7114 -0.6575  0.5012
  649MOL0     C85550  11.916   1.042   3.899  0.4532 -0.2416 -0.0338
  649MOL0     C85551  11.997   0.953   3.991 -0.0455 -0.3450  0.1470
  649MOL0     C85552  11.941   0.809   4.025  0.2249 -0.6903  0.2050
  649MOL0     N85553  11.899   0.719   3.912 -0.1772  0.1884  0.3961
  649MOL0     C85554  11.952   0.729   3.781  0.3040  0.7710 -0.8099
  649MOL0     C85555  11.914   0.620   3.721 -1.1679  0.0779  0.2553
  649MOL0     C85556  11.925   0.587   3.574  0.9354  0.6871  0.3093
  649MOL0     C85557  12.061   0.523   3.558  0.1873  0.7207 -0.2654
  649MOL0     C85558  12.112   0.513   3.409 -0.1726 -0.4071 -1.3688
  649MOL0     C85559  12.021   0.426   3.326  0.1947  0.8805 -0.6506
  649MOL0     O85560  12.060   0.282   3.372 -0.2449 -0.2447 -0.9287
  649MOL0     C85561  11.975   0.185   3.331  0.8204  0.2083 -0.2229
  649MOL0     C85562  11.844   0.189   3.286 -0.9620  0.3190 -0.2536
  649MOL0     C85563  11.788   0.070   3.242  0.0662  0.1955 -0.6978
  649MOL0     C85564  11.850  -0.057   3.248 -0.5117 -0.3488 -1.0232
  649MOL0     C85565  11.765  -0.174   3.223 -0.0417  0.1898 -0.6587
  649MOL0     O85566  11.835  -0.291   3.221 -0.1848 -0.1450  0.1651
  649MOL0     C85567  11.765  -0.408   3.202  0.4416 -0.5434  0.6921
  649MOL0     C85568  11.821  -0.520   3.258  0.4227 -0.1336 -0.0174
  649MOL0     C85569  11.752  -0.639   3.232 -0.0630  0.2575 -0.3901
  649MOL0     C85570  11.634  -0.647   3.148 -0.0051  0.2245  0.3762
  649MOL0     O85571  11.588  -0.771   3.115  0.2421 -0.4500 -0.5385
  649MOL0     C85572  11.450  -0.777   3.090  0.2510  0.2845 -0.2571
  649MOL0     C85573  11.383  -0.897   3.154  1.0212  0.0445 -0.6618
  649MOL0     C85574  11.408  -0.910   3.300  1.0857  1.1225 -0.4037
  649MOL0     C85575  11.351  -1.048   3.357 -0.1259  0.1072  0.3507
  649MOL0     C85576  11.322  -1.047   3.509  0.4025  0.7608 -0.5196
  649MOL0     C85577  11.327  -1.181   3.572  0.4977 -0.5563  0.2347
  649MOL0     C85578  11.215  -1.281   3.532 -0.3585 -0.0416 -0.3572
  649MOL0     C85579  11.236  -1.427   3.566 -0.3007 -0.4631  0.4328
  649MOL0    Cl85580  11.095  -1.527   3.525 -0.1954 -0.2388  0.0453
  649MOL0     C85581  11.581  -0.532   3.097 -0.0391  0.0442  0.6470
  649MOL0     C85582  11.651  -0.414   3.126  0.1684 -0.0897  0.2422
  649MOL0     O85583  11.636  -0.164   3.227  0.4272  0.4896 -0.3962
  649MOL0     C85584  11.985  -0.052   3.288  0.1983 -0.3152 -0.5150
  649MOL0     C85585  12.041   0.067   3.340 -0.3633 -0.2037  0.3921
  649MOL0     N85586  11.861   0.532   3.815  0.2993  0.0212 -0.1053
  649MOL0     N85587  11.847   0.592   3.929  0.5983 -0.6556  0.7836
  649MOL0     C85588  11.497   1.592   3.809 -0.6869  0.7292  0.7506
  649MOL0     C85589  11.372   1.591   3.755 -0.0785  0.1916 -0.1911
  649MOL0     C85590  11.026   1.727   3.511  0.4890  0.7608  0.6215
  649MOL0     C85591  10.959   1.851   3.503  0.4463 -0.3759 -1.6648
  649MOL0     C85592  10.824   1.844   3.458 -1.2408 -0.0084 -1.0394
  649MOL0     C85593  10.770   1.737   3.407 -0.2322 -1.0434  0.2329
  649MOL0     O85594  10.636   1.725   3.373 -0.8058  0.2064  0.1222
  649MOL0     C85595  10.575   1.824   3.291  0.8517  0.1579  0.9919
  649MOL0     C85596  10.428   1.846   3.321 -0.2562 -0.0944 -0.6920
  649MOL0     C85597  10.346   1.718   3.286 -1.1068  0.1554 -0.7643
  649MOL0     C85598  10.203   1.758   3.273 -0.9095  0.4001  0.3657
  649MOL0     C85599  10.144   1.820   3.388 -0.1856  0.4373  0.2417
  649MOL0     C85600  10.101   1.879   3.481  0.3533 -0.7823  0.2547
  649MOL0     C85601  10.835   1.611   3.407 -0.3632 -1.2932 -0.4141
  649MOL0     C85602  10.957   1.609   3.474 -0.0955  0.8045 -0.7334
  649MOL0     H85603  11.408   1.518   3.420  1.6361 -1.0123 -0.6386
  649MOL0     H85604  11.663   1.506   3.507  0.1874 -2.4828  0.4783
  649MOL0     H85605  11.911   1.643   3.778  1.4493 -0.2424 -0.8200
  649MOL0     H85606  11.836   1.681   3.618  1.5660  2.7434  2.5619
  649MOL0     H85607  11.975   1.513   3.571 -1.6434  2.8163 -0.1201
  649MOL0     H85608  11.831   1.429   3.587  1.6260 -0.0686 -4.5510
  649MOL0     H85609  11.978   1.453   3.858  0.7958 -3.2325  2.3643
  649MOL0     H85610  12.062   1.368   3.732 -1.1974  2.1931 -2.8822
  649MOL0     H85611  11.794   1.268   3.833 -0.1855 -3.7727 -1.0781
  649MOL0     H85612  11.889   1.193   3.708  4.3162 -0.1058  0.3562
  649MOL0     H85613  11.977   1.243   3.988  0.4074 -0.4667  0.3860
  649MOL0     H85614  12.079   1.182   3.854  0.6864  1.3605  0.1043
  649MOL0     H85615  11.913   0.989   3.803 -0.8216  0.5918 -0.4852
  649MOL0     H85616  11.815   1.053   3.938  0.0278  1.0320 -1.3853
  649MOL0     H85617  12.098   0.956   3.947 -0.2359 -1.9493 -0.4804
  649MOL0     H85618  12.009   1.001   4.088 -2.3650  2.3515 -0.7876
  649MOL0     H85619  11.868   0.826   4.104 -1.8953  2.0472 -2.1402
  649MOL0     H85620  12.023   0.755   4.075  0.2820 -1.7541 -0.9995
  649MOL0     H85621  12.013   0.812   3.747 -0.9686  1.3165 -1.8618
  649MOL0     H85622  11.923   0.673   3.506 -0.9841 -1.3951 -2.4708
  649MOL0     H85623  11.840   0.529   3.538 -0.1180 -0.8725  4.6574
  649MOL0     H85624  12.068   0.421   3.598  0.3708  0.7209 -0.2933
  649MOL0     H85625  12.139   0.575   3.615 -0.3439  1.9098 -0.5892
  649MOL0     H85626  12.111   0.619   3.380  1.2473  0.1662  0.4704
  649MOL0     H85627  12.210   0.466   3.419  0.6328  1.6903  3.0603
  649MOL0     H85628  12.040   0.436   3.219  1.4653  0.1430 -0.5214
  649MOL0     H85629  11.914   0.448   3.333 -0.1736 -0.6417 -1.0359
  649MOL0     H85630  11.786   0.281   3.283 -0.1079  0.9722  1.5812
  649MOL0     H85631  11.683   0.075   3.215 -0.5337 -0.7289  1.2899
  649MOL0     H85632  11.907  -0.508   3.323 -1.3902  1.5009  2.2217
  649MOL0     H85633  11.790  -0.726   3.284 -2.8581 -1.5698 -1.2082
  649MOL0     H85634  11.444  -0.792   2.982 -0.1003 -0.9085 -0.0866
  649MOL0     H85635  11.396  -0.689   3.126  0.3886  0.2707 -0.0201
  649MOL0     H85636  11.416  -0.990   3.108  1.8086 -0.7646  1.3925
  649MOL0     H85637  11.276  -0.887   3.135  0.6346  2.4926  2.0998
  649MOL0     H85638  11.349  -0.827   3.341 -2.6380 -1.0662 -0.8112
  649MOL0     H85639  11.514  -0.900   3.326  0.8966  1.2394  0.3510
  649MOL0     H85640  11.258  -1.065   3.302  0.3368 -1.1155 -0.0893
  649MOL0     H85641  11.421  -1.126   3.329  2.0486  2.3894 -1.0293
  649MOL0     H85642  11.217  -1.018   3.523  0.1087  0.2364 -1.5919
  649MOL0     H85643  11.400  -0.981   3.549  1.5540 -0.6852 -0.2776
  649MOL0     H85644  11.321  -1.159   3.678 -0.5982  4.4045 -0.6342
  649MOL0     H85645  11.424  -1.229   3.553  0.2111 -1.7395  1.6144
  649MOL0     H85646  11.117  -1.259   3.575  0.3720 -1.6093  2.4009
  649MOL0     H85647  11.206  -1.286   3.423  2.0128 -2.4608 -0.5447
  649MOL0     H85648  11.248  -1.445   3.673 -2.0590  2.3476  1.2239
  649MOL0     H85649  11.319  -1.457   3.502  0.4114  1.9130  0.1260
  649MOL0     H85650  11.503  -0.529   3.021  0.3042  1.4175  0.3167
  649MOL0     H85651  11.616  -0.326   3.074 -1.0998  0.2407  1.5946
  649MOL0     H85652  12.044  -0.143   3.284  1.6016  0.5869 -3.6399
  649MOL0     H85653  12.143   0.080   3.374 -0.1102  1.4598 -0.8522
  649MOL0     H85654  11.508   1.611   3.915 -1.9289  2.2731  0.6232
  649MOL0     H85655  11.293   1.616   3.825 -0.4416  0.1775 -0.5916
  649MOL0     H85656  10.983   1.943   3.556 -1.3668 -1.1775  0.7000
  649MOL0     H85657  10.772   1.939   3.463  1.0238  1.2695  2.5045
  649MOL0     H85658  10.593   1.802   3.185  0.0360  0.0090  0.8736
  649MOL0     H85659  10.630   1.914   3.321  0.3395 -0.5702  4.5544
  649MOL0     H85660  10.429   1.851   3.430 -0.6716  0.3233 -0.7034
  649MOL0     H85661  10.388   1.934   3.270  0.6210 -0.8517 -2.7889
  649MOL0     H85662  10.352   1.643   3.365 -1.3210  0.6068 -0.3101
  649MOL0     H85663  10.386   1.677   3.193  0.7151  0.3255 -0.0929
  649MOL0     H85664  10.201   1.819   3.183 -0.9269 -0.6546 -0.3669
  649MOL0     H85665  10.140   1.670   3.253  0.5581 -0.5733 -0.1906
  649MOL0     H85666  10.067   1.926   3.571 -2.8552  2.2010 -2.2407
  649MOL0     H85667  10.787   1.523   3.366 -3.5773  0.4382 -0.6267
  649MOL0     H85668  11.011   1.516   3.488 -1.1000  0.0226 -1.7993
  650MOL0     O85669   3.646  11.065   8.238 -0.6829  0.5381 -0.2369
  650MOL0     C85670   3.546  11.024   8.185  0.2225  0.6825  0.1553
  650MOL0     O85671   3.540  10.918   8.089  0.5242 -0.0061  0.0638
  650MOL0     C85672   3.630  10.822   8.098  0.0488 -0.5909  1.4122
  650MOL0     C85673   3.750  10.834   8.017 -0.1536  0.3794 -0.4917
  650MOL0     C85674   3.860  10.738   8.023  1.3146 -0.0768  0.1096
  650MOL0     C85675   3.830  10.626   8.101  0.9340 -0.5060  0.3461
  650MOL0     O85676   3.922  10.525   8.110 -0.5251  0.6968 -0.0667
  650MOL0     C85677   3.911  10.405   8.195  0.0332 -0.1460 -0.1312
  650MOL0     C85678   4.037  10.315   8.207 -0.0937 -0.7690 -0.2274
  650MOL0     C85679   4.161  10.402   8.257  0.6405  0.6520  0.9324
  650MOL0     C85680   4.301  10.346   8.233  0.4892  0.3279 -0.6994
  650MOL0     C85681   4.407  10.447   8.267 -0.0132  0.2562  0.6402
  650MOL0     C85682   4.547  10.384   8.215  0.9445  0.2663 -0.1519
  650MOL0     C85683   4.580  10.283   8.318 -0.3679  0.3244 -0.1053
  650MOL0     C85684   4.721  10.227   8.282 -0.1420 -0.4948  0.2080
  650MOL0     N85685   4.777  10.182   8.407 -0.3308 -0.8184  0.0759
  650MOL0     C85686   4.835  10.051   8.413  0.0940 -0.2442 -1.0789
  650MOL0     C85687   4.906  10.064   8.529 -1.2431 -0.5125  0.4421
  650MOL0     C85688   5.017   9.984   8.579 -0.3186  0.4290  0.4961
  650MOL0     C85689   5.003   9.845   8.527 -1.0303  0.0987  0.3917
  650MOL0     C85690   5.111   9.752   8.578  0.3162  0.0940  0.0983
  650MOL0     C85691   5.096   9.615   8.519 -0.1910 -0.0692  0.3709
  650MOL0     O85692   5.219   9.537   8.536 -0.3969  0.8325  0.6754
  650MOL0     C85693   5.218   9.400   8.532 -0.2342 -0.1357 -0.6352
  650MOL0     C85694   5.170   9.331   8.417  0.5088  0.4955 -0.0282
  650MOL0     C85695   5.156   9.190   8.429  0.3768 -0.5781  0.4462
  650MOL0     C85696   5.198   9.125   8.543 -0.5666 -0.1996 -0.8712
  650MOL0     C85697   5.189   8.976   8.551  0.4671  0.7227  0.4755
  650MOL0     O85698   5.206   8.913   8.429  0.5431  0.1075  0.6574
  650MOL0     C85699   5.179   8.779   8.416  0.1844 -0.0574  0.2353
  650MOL0     C85700   5.230   8.724   8.295 -0.2048 -0.7511  0.1866
  650MOL0     C85701   5.197   8.593   8.265  0.0102 -0.5186 -0.8283
  650MOL0     C85702   5.130   8.509   8.353 -0.0036 -0.3241  0.5195
  650MOL0     O85703   5.115   8.379   8.318 -0.3396 -0.3096 -0.5410
  650MOL0     C85704   5.123   8.286   8.425  0.1418 -0.0235 -0.3732
  650MOL0     C85705   5.150   8.151   8.361  0.0874  0.0430  0.0200
  650MOL0     C85706   5.272   8.133   8.273 -0.1463  0.6476  0.6682
  650MOL0     C85707   5.412   8.141   8.343 -0.3263 -0.3830 -0.3590
  650MOL0     C85708   5.456   8.028   8.432  1.4637 -0.5704 -0.3328
  650MOL0     C85709   5.482   7.888   8.373 -0.3500  0.1749  0.3400
  650MOL0     C85710   5.541   7.785   8.478  0.7649  0.5464  0.1778
  650MOL0     C85711   5.548   7.650   8.411 -0.2611  0.4158  0.1807
  650MOL0    Cl85712   5.394   7.581   8.399  0.4535  0.5489  0.2410
  650MOL0     C85713   5.087   8.572   8.480 -0.2385 -0.7121  0.0860
  650MOL0     C85714   5.096   8.709   8.501 -0.9002 -0.8852  0.0456
  650MOL0     O85715   5.184   8.924   8.662  0.6345 -0.8239 -0.9375
  650MOL0     C85716   5.252   9.198   8.654  0.0486  0.1878 -0.3316
  650MOL0     C85717   5.256   9.337   8.643 -0.5256 -0.3723 -0.5395
  650MOL0     N85718   4.879  10.188   8.590  0.1590 -0.0965 -0.7041
  650MOL0     N85719   4.809  10.253   8.511  0.8188 -0.6703 -0.8221
  650MOL0     C85720   3.708  10.609   8.180 -0.4427 -0.3154 -0.0335
  650MOL0     C85721   3.609  10.709   8.177 -0.3131  0.8243 -0.2836
  650MOL0     C85722   3.410  11.076   8.220  0.2284 -0.7453 -0.4607
  650MOL0     C85723   3.395  11.161   8.329 -0.0186  0.3643 -0.5015
  650MOL0     C85724   3.272  11.225   8.345 -0.1770  0.3673 -0.3474
  650MOL0     C85725   3.172  11.206   8.256 -0.0543 -0.1434 -0.3868
  650MOL0     O85726   3.057  11.277   8.275 -0.1415 -0.5528 -0.5188
  650MOL0     C85727   2.943  11.189   8.314 -0.7906 -0.1960 -0.3585
  650MOL0     C85728   2.881  11.246   8.448 -0.1881 -0.4604 -0.3982
  650MOL0     C85729   2.812  11.385   8.425  0.4831  0.8063  0.4422
  650MOL0     C85730   2.680  11.389   8.358  0.5525  1.0135 -0.5089
  650MOL0     C85731   2.571  11.318   8.428  0.4167  0.6099 -0.3910
  650MOL0     C85732   2.475  11.267   8.490 -0.0362 -0.2825  0.1422
  650MOL0     C85733   3.188  11.131   8.143  0.1376 -0.0328 -0.8662
  650MOL0     C85734   3.315  11.068   8.117 -0.5006  0.1450 -0.5924
  650MOL0     H85735   3.761  10.914   7.945 -0.4967  0.7772 -0.1041
  650MOL0     H85736   3.950  10.757   7.966  1.3393  0.6285  0.3868
  650MOL0     H85737   3.829  10.342   8.161 -0.5825 -1.3069  3.1645
  650MOL0     H85738   3.873  10.432   8.294 -2.5046  0.4401 -1.1863
  650MOL0     H85739   4.064  10.275   8.109 -1.6646 -1.5058 -0.3780
  650MOL0     H85740   4.014  10.230   8.272 -5.1667  1.2120  1.0550
  650MOL0     H85741   4.143  10.418   8.364  1.5265 -1.4343  1.4667
  650MOL0     H85742   4.161  10.493   8.197 -1.1561 -0.5048 -0.9475
  650MOL0     H85743   4.323  10.252   8.284  1.9625  0.6796 -0.6380
  650MOL0     H85744   4.302  10.333   8.124 -4.1409  3.0370 -1.3166
  650MOL0     H85745   4.396  10.439   8.376  1.8150 -0.4857  0.8115
  650MOL0     H85746   4.393  10.542   8.215  3.4491  0.9296  0.7005
  650MOL0     H85747   4.621  10.464   8.210  1.7651 -0.1306  2.9985
  650MOL0     H85748   4.526  10.343   8.116 -1.3182  3.6086 -1.2062
  650MOL0     H85749   4.578  10.328   8.418 -2.2298  1.7705 -0.7428
  650MOL0     H85750   4.521  10.191   8.328 -1.2355  0.8708 -0.1236
  650MOL0     H85751   4.803  10.281   8.234  0.2755  0.4992  1.9240
  650MOL0     H85752   4.703  10.147   8.210 -6.3735  1.5258 -1.1600
  650MOL0     H85753   4.836   9.979   8.331 -0.6683  0.5358 -1.7850
  650MOL0     H85754   5.003   9.971   8.687  0.0283  1.0569  0.6182
  650MOL0     H85755   5.117  10.024   8.565  0.4717 -1.8067 -0.7552
  650MOL0     H85756   5.019   9.846   8.419  1.0887 -7.3979  0.0928
  650MOL0     H85757   4.908   9.804   8.562  0.0273 -0.9059  2.2410
  650MOL0     H85758   5.210   9.788   8.550  2.0402 -2.7044  2.1406
  650MOL0     H85759   5.110   9.753   8.688  0.2629  0.8129  0.1011
  650MOL0     H85760   5.067   9.629   8.415 -1.5684 -0.1534  0.7281
  650MOL0     H85761   5.010   9.566   8.564  0.0161  0.0515  0.9056
  650MOL0     H85762   5.139   9.386   8.328 -4.9104 -0.0291  1.1959
  650MOL0     H85763   5.109   9.127   8.355  4.2107 -2.0537 -0.9915
  650MOL0     H85764   5.287   8.781   8.222  1.2609 -2.4456 -0.0712
  650MOL0     H85765   5.257   8.548   8.186  3.4075  1.6323  0.2782
  650MOL0     H85766   5.034   8.277   8.487  0.2277  1.0342 -0.0929
  650MOL0     H85767   5.200   8.301   8.501 -1.5436 -0.8632  1.6033
  650MOL0     H85768   5.066   8.139   8.292  0.3754  0.8255 -0.4767
  650MOL0     H85769   5.141   8.073   8.437  0.9515  0.2657  0.3623
  650MOL0     H85770   5.267   8.212   8.198 -0.0620  3.0491  3.0619
  650MOL0     H85771   5.267   8.034   8.226  1.0502  0.7064  0.3887
  650MOL0     H85772   5.483   8.170   8.265 -0.8483 -0.0636 -0.7290
  650MOL0     H85773   5.410   8.231   8.406  2.6418  0.4213 -1.2421
  650MOL0     H85774   5.378   8.019   8.508  0.1266 -0.1119 -1.5942
  650MOL0     H85775   5.549   8.067   8.473 -0.7173  2.4181  2.1737
  650MOL0     H85776   5.561   7.899   8.298 -1.3117  0.3177 -0.6761
  650MOL0     H85777   5.390   7.845   8.331  0.0356 -0.0958 -0.2415
  650MOL0     H85778   5.640   7.818   8.512  1.3233 -1.7799  0.9751
  650MOL0     H85779   5.480   7.794   8.568 -1.0126  0.6024 -0.9744
  650MOL0     H85780   5.602   7.580   8.475 -1.8140 -4.6734 -3.4884
  650MOL0     H85781   5.602   7.662   8.316 -1.2731 -0.4199 -0.5164
  650MOL0     H85782   5.034   8.515   8.556 -1.3858 -2.8927 -2.2052
  650MOL0     H85783   5.056   8.749   8.594 -4.2909 -0.7869 -1.3308
  650MOL0     H85784   5.282   9.136   8.738 -1.3325  1.5939  1.2692
  650MOL0     H85785   5.294   9.396   8.726 -0.2686 -1.8005  0.3975
  650MOL0     H85786   3.683  10.523   8.241 -3.5328  1.6424  1.7657
  650MOL0     H85787   3.522  10.696   8.240  1.5080 -2.6525  1.8176
  650MOL0     H85788   3.472  11.174   8.405  0.9705  0.0886 -1.4211
  650MOL0     H85789   3.239  11.280   8.432  0.2357 -0.9354  0.6665
  650MOL0     H85790   2.983  11.088   8.327  3.1127  1.3338  1.2964
  650MOL0     H85791   2.869  11.186   8.234  0.3878  2.0539 -1.6294
  650MOL0     H85792   2.805  11.184   8.496 -3.4197  0.4856 -3.7344
  650MOL0     H85793   2.958  11.273   8.520  0.7817 -1.2122 -1.1223
  650MOL0     H85794   2.880  11.453   8.373 -1.1045  2.5177  0.5254
  650MOL0     H85795   2.796  11.429   8.524  0.2519  2.2834 -0.2253
  650MOL0     H85796   2.648  11.492   8.339  0.1872  0.8310 -0.9048
  650MOL0     H85797   2.673  11.342   8.260 -5.2800  0.3728 -0.1443
  650MOL0     H85798   2.390  11.234   8.546 -0.9272  0.7615 -0.5859
  650MOL0     H85799   3.106  11.124   8.072 -2.3282  3.1591  1.3679
  650MOL0     H85800   3.336  11.014   8.025  3.4662  0.4387 -0.0192
  651MOL0     O85801  11.157   3.090   3.561 -0.8765 -0.2087 -0.2311
  651MOL0     C85802  11.149   3.204   3.603  0.4076  0.5035 -0.1757
  651MOL0     O85803  11.101   3.318   3.532 -0.2441  1.0627  0.4055
  651MOL0     C85804  11.036   3.297   3.417  0.0222  0.4812 -0.3280
  651MOL0     C85805  10.911   3.229   3.415 -0.0143 -0.5182 -1.1750
  651MOL0     C85806  10.840   3.218   3.297 -0.3694 -0.2329  0.1863
  651MOL0     C85807  10.882   3.276   3.180  0.1947 -0.1477  1.0887
  651MOL0     O85808  10.807   3.261   3.068  0.4158  0.1384 -0.4329
  651MOL0     C85809  10.832   3.137   3.006  0.6252  0.3908 -1.3357
  651MOL0     C85810  10.764   3.141   2.865  0.2945 -0.6512 -0.0213
  651MOL0     C85811  10.618   3.181   2.874 -0.1971 -0.3443 -0.2356
  651MOL0     C85812  10.527   3.141   2.763 -0.2723 -0.0546  0.1032
  651MOL0     C85813  10.388   3.210   2.774 -0.8064  0.8744  0.5886
  651MOL0     C85814  10.300   3.194   2.661 -0.7588 -0.0132  0.6465
  651MOL0     C85815  10.154   3.225   2.691 -0.2493  0.2298  1.0367
  651MOL0     C85816  10.068   3.246   2.564 -0.5159  0.1596 -0.4765
  651MOL0     N85817  10.121   3.358   2.478 -0.1188  0.1575 -0.1556
  651MOL0     C85818  10.115   3.358   2.342  0.1406  0.1490 -0.2111
  651MOL0     C85819  10.144   3.483   2.302 -0.1003  0.5019 -0.2106
  651MOL0     C85820  10.165   3.533   2.159  0.2044  0.2417 -0.2515
  651MOL0     C85821  10.042   3.604   2.117 -0.2418 -0.6158  0.8061
  651MOL0     C85822  10.045   3.628   1.964 -0.1148 -1.0123  1.3651
  651MOL0     C85823  10.147   3.723   1.909  0.3468  0.0154  0.2300
  651MOL0     O85824  10.123   3.860   1.949 -0.5132  0.9851 -0.5572
  651MOL0     C85825  10.168   3.959   1.865  0.0714  0.0900  1.2393
  651MOL0     C85826  10.290   3.955   1.800 -0.0148 -0.2984 -0.0586
  651MOL0     C85827  10.331   4.069   1.726  0.0320  0.2268  0.5527
  651MOL0     C85828  10.256   4.189   1.727  0.2612 -0.8164  0.3972
  651MOL0     C85829  10.305   4.313   1.662 -0.6593  0.2336 -0.9878
  651MOL0     O85830  10.423   4.300   1.580  0.1562 -0.8535 -0.0955
  651MOL0     C85831  10.463   4.397   1.495 -0.0047  0.3476 -0.6423
  651MOL0     C85832  10.514   4.368   1.368 -0.0574  0.1072  0.6253
  651MOL0     C85833  10.560   4.476   1.289  0.2222 -0.9673 -0.4383
  651MOL0     C85834  10.569   4.604   1.336  0.0433  0.3333 -0.2198
  651MOL0     O85835  10.631   4.687   1.250 -0.1107  0.1868 -0.2632
  651MOL0     C85836  10.697   4.806   1.310  0.2831 -0.3624  0.5174
  651MOL0     C85837  10.829   4.843   1.240 -0.1352 -0.5599 -0.8142
  651MOL0     C85838  10.932   4.728   1.226  1.5426 -0.0798 -0.3589
  651MOL0     C85839  11.054   4.781   1.161  0.1861  0.0642  0.7448
  651MOL0     C85840  11.160   4.665   1.122  0.5656  0.0277  0.2526
  651MOL0     C85841  11.227   4.613   1.255  0.0726  0.4914 -0.0917
  651MOL0     C85842  11.336   4.507   1.247 -0.2621  0.4124  0.4255
  651MOL0     C85843  11.325   4.396   1.346  0.8641 -0.8144 -0.6585
  651MOL0    Cl85844  11.158   4.322   1.311 -0.1029 -0.3757  0.2445
  651MOL0     C85845  10.515   4.636   1.463 -0.4337  0.2946 -0.4750
  651MOL0     C85846  10.465   4.533   1.544  0.4230 -0.3152  0.5936
  651MOL0     O85847  10.232   4.417   1.681 -0.6918 -0.5149  0.6204
  651MOL0     C85848  10.130   4.192   1.789 -0.2048 -0.2944 -0.7980
  651MOL0     C85849  10.076   4.074   1.859  0.3496 -0.4668 -1.0684
  651MOL0     N85850  10.142   3.563   2.419 -1.3600  0.0506  0.5126
  651MOL0     N85851  10.129   3.489   2.516 -0.4905 -0.6427 -0.2357
  651MOL0     C85852  11.005   3.350   3.178  0.4670  0.5152  0.7958
  651MOL0     C85853  11.078   3.358   3.294 -0.8810  1.4290  0.6185
  651MOL0     C85854  11.202   3.227   3.740 -0.0109 -0.0673 -0.5932
  651MOL0     C85855  11.275   3.134   3.809  0.1150  0.6046 -1.4634
  651MOL0     C85856  11.326   3.165   3.939 -0.3971  0.3248  0.1972
  651MOL0     C85857  11.308   3.288   3.991 -0.1741  0.4690  0.0685
  651MOL0     O85858  11.371   3.311   4.112 -0.3232  0.4905 -0.8813
  651MOL0     C85859  11.352   3.436   4.178  0.6130  0.0463  0.4873
  651MOL0     C85860  11.420   3.454   4.311  0.1179 -0.4163 -1.7216
  651MOL0     C85861  11.574   3.455   4.300 -0.6688 -0.0354 -0.7111
  651MOL0     C85862  11.638   3.318   4.301 -0.7387  0.1385 -1.3662
  651MOL0     C85863  11.784   3.320   4.330 -0.2510  0.0638  0.2115
  651MOL0     C85864  11.904   3.328   4.338 -0.4695 -0.7519  1.0089
  651MOL0     C85865  11.244   3.384   3.920 -0.3988 -0.3237 -0.0236
  651MOL0     C85866  11.187   3.356   3.789 -0.3249  0.6366  0.1089
  651MOL0     H85867  10.905   3.176   3.509  0.3961 -1.7085 -1.7899
  651MOL0     H85868  10.744   3.168   3.294 -0.8730  0.7741 -1.2564
  651MOL0     H85869  10.781   3.056   3.060  0.0946  1.5659  0.0131
  651MOL0     H85870  10.934   3.106   2.981 -0.2614 -5.2650  0.5402
  651MOL0     H85871  10.775   3.048   2.808 -1.2977 -1.7606  1.3733
  651MOL0     H85872  10.800   3.227   2.806  0.4246 -2.8950 -3.5205
  651MOL0     H85873  10.600   3.288   2.892 -1.3372 -0.7454  1.2174
  651MOL0     H85874  10.571   3.134   2.961 -0.5164  0.0332 -0.2011
  651MOL0     H85875  10.569   3.184   2.672 -0.6942 -1.2927 -0.7080
  651MOL0     H85876  10.516   3.033   2.745 -1.4417 -0.0168  0.5027
  651MOL0     H85877  10.415   3.315   2.773 -2.5800  1.3559 -0.9340
  651MOL0     H85878  10.344   3.186   2.872  0.7402 -1.9634  0.6950
  651MOL0     H85879  10.322   3.095   2.620 -0.9440  0.9084 -1.8332
  651MOL0     H85880  10.339   3.258   2.581  1.8177  2.4118  3.5624
  651MOL0     H85881  10.108   3.145   2.749 -1.1977 -2.6523 -3.1793
  651MOL0     H85882  10.152   3.317   2.751 -1.5959  0.2543  0.9794
  651MOL0     H85883   9.965   3.274   2.590  0.1900  2.5947 -0.1145
  651MOL0     H85884  10.073   3.155   2.504  0.8204 -0.4820  0.5704
  651MOL0     H85885  10.098   3.274   2.276  0.1016  0.2954 -0.3889
  651MOL0     H85886  10.175   3.441   2.101 -5.1176 -0.9734  0.2262
  651MOL0     H85887  10.253   3.595   2.137  1.5477 -1.4793  0.1200
  651MOL0     H85888  10.042   3.707   2.154  0.6869  1.2190 -3.6919
  651MOL0     H85889   9.949   3.555   2.150 -0.6616  0.0891  0.6988
  651MOL0     H85890  10.059   3.538   1.904 -0.2804 -1.1743  1.5704
  651MOL0     H85891   9.950   3.665   1.922  1.0604 -1.0986 -1.6120
  651MOL0     H85892  10.139   3.717   1.800 -3.4604  3.6031  0.0553
  651MOL0     H85893  10.249   3.709   1.945  0.3934  4.7073  2.6959
  651MOL0     H85894  10.347   3.862   1.804  1.6225  0.5647 -1.6050
  651MOL0     H85895  10.424   4.082   1.672  1.9918  1.2520  3.8811
  651MOL0     H85896  10.509   4.263   1.339 -0.2577 -0.0512  1.2173
  651MOL0     H85897  10.577   4.450   1.185  0.1143 -2.6240 -0.0748
  651MOL0     H85898  10.717   4.784   1.415  0.3431 -0.0036  0.5845
  651MOL0     H85899  10.628   4.891   1.308 -2.7549 -2.4653 -4.4926
  651MOL0     H85900  10.894   4.913   1.292 -0.2162 -1.7591  0.9784
  651MOL0     H85901  10.810   4.884   1.140 -1.8753 -0.1865 -0.3522
  651MOL0     H85902  10.881   4.660   1.157 -2.8868  2.3790  0.1929
  651MOL0     H85903  10.950   4.674   1.319  1.0517 -3.4205 -2.0523
  651MOL0     H85904  11.027   4.839   1.073 -0.7757 -0.3338  0.7697
  651MOL0     H85905  11.102   4.851   1.230  1.4830  0.1029 -0.1504
  651MOL0     H85906  11.242   4.710   1.067 -0.4558 -1.2133 -2.4544
  651MOL0     H85907  11.108   4.591   1.061 -1.6107  2.5359 -1.1552
  651MOL0     H85908  11.144   4.577   1.318  0.3555 -0.1485 -0.0776
  651MOL0     H85909  11.278   4.701   1.294  2.4082 -1.5012  1.6655
  651MOL0     H85910  11.334   4.467   1.145  2.4007  0.0966  0.4334
  651MOL0     H85911  11.427   4.567   1.247 -2.2850  3.9575 -2.9846
  651MOL0     H85912  11.341   4.429   1.449  3.2328  0.7181 -1.4312
  651MOL0     H85913  11.407   4.324   1.338  2.0062 -0.5019  4.5767
  651MOL0     H85914  10.534   4.730   1.513 -0.5744  0.6489 -1.0728
  651MOL0     H85915  10.439   4.565   1.644  1.4315 -2.7020  1.7060
  651MOL0     H85916  10.080   4.288   1.791  2.2519  1.0615  1.0025
  651MOL0     H85917   9.987   4.079   1.921  1.2378  1.6466  0.1500
  651MOL0     H85918  11.035   3.402   3.087 -2.7931  1.3318  0.0378
  651MOL0     H85919  11.171   3.411   3.313  1.3119 -1.7453 -0.2709
  651MOL0     H85920  11.303   3.039   3.765 -1.3160 -0.5211 -0.1109
  651MOL0     H85921  11.394   3.101   3.995  0.9776  1.9898  0.4915
  651MOL0     H85922  11.245   3.448   4.196  0.6112  1.0772 -0.1415
  651MOL0     H85923  11.371   3.521   4.111 -1.1382  1.2133  1.4118
  651MOL0     H85924  11.376   3.546   4.350 -0.6897 -2.3730  2.4495
  651MOL0     H85925  11.394   3.376   4.383  1.4646  0.1905 -0.5365
  651MOL0     H85926  11.617   3.509   4.386  0.1631 -1.8987  0.1084
  651MOL0     H85927  11.608   3.511   4.213  4.8085  1.7640  2.0839
  651MOL0     H85928  11.597   3.262   4.386  1.9126  2.8323  1.9824
  651MOL0     H85929  11.621   3.267   4.206  0.8719 -0.2305 -1.4736
  651MOL0     H85930  12.008   3.310   4.357 -0.2819 -0.2203  0.5474
  651MOL0     H85931  11.241   3.489   3.944  0.6195 -0.0994 -0.7676
  651MOL0     H85932  11.145   3.436   3.730  2.5507 -0.8043 -4.4586
  652MOL0     O85933   6.192   6.548   9.756  0.4693  0.5585  0.1816
  652MOL0     C85934   6.241   6.659   9.765  0.4702  0.1333  0.6014
  652MOL0     O85935   6.360   6.705   9.707  0.5201 -0.1113  0.2435
  652MOL0     C85936   6.423   6.632   9.607  1.2711  0.3248 -0.0629
  652MOL0     C85937   6.563   6.615   9.619 -0.3089 -0.6454  0.5121
  652MOL0     C85938   6.633   6.524   9.538  0.2302  0.6468  0.2513
  652MOL0     C85939   6.568   6.448   9.437  0.1959 -1.0395  0.5100
  652MOL0     O85940   6.635   6.376   9.341  1.2422 -0.2438  0.2293
  652MOL0     C85941   6.772   6.335   9.364  0.7357  0.3268  0.6805
  652MOL0     C85942   6.782   6.202   9.457 -0.2741 -0.5150  0.0626
  652MOL0     C85943   6.930   6.152   9.465 -0.3040 -0.1056  0.0860
  652MOL0     C85944   7.007   6.211   9.585 -0.4984 -0.0108 -0.0763
  652MOL0     C85945   7.163   6.209   9.569  0.0209 -0.1122 -0.0330
  652MOL0     C85946   7.223   6.076   9.514  0.1187 -1.1635 -0.3279
  652MOL0     C85947   7.361   6.090   9.433 -0.0490  0.5775 -0.1684
  652MOL0     C85948   7.346   6.131   9.283  0.2065  0.0968 -0.8897
  652MOL0     N85949   7.486   6.114   9.236  0.9008 -0.1715  0.2767
  652MOL0     C85950   7.589   6.014   9.236  1.6097  0.2340 -0.9850
  652MOL0     C85951   7.684   6.048   9.143  0.6412  0.1171 -0.0653
  652MOL0     C85952   7.804   5.962   9.114 -0.1463  0.7919  0.5022
  652MOL0     C85953   7.799   5.919   8.965  1.1491 -0.1417  0.5728
  652MOL0     C85954   7.922   5.850   8.897 -0.1559 -0.4311  0.0219
  652MOL0     C85955   8.048   5.933   8.866 -0.0944 -0.0760 -0.6022
  652MOL0     O85956   8.122   5.952   8.996  0.1061 -0.5455  0.2015
  652MOL0     C85957   8.187   5.860   9.073  0.1982  0.0880 -0.8988
  652MOL0     C85958   8.235   5.744   9.022 -0.6027  0.2389 -1.3205
  652MOL0     C85959   8.308   5.657   9.104  0.4318  0.0560  0.1494
  652MOL0     C85960   8.360   5.699   9.229  0.2113 -0.1772  0.9739
  652MOL0     C85961   8.449   5.626   9.315 -0.5108  0.2711 -0.0310
  652MOL0     O85962   8.534   5.543   9.257  0.3015  0.0648  0.6166
  652MOL0     C85963   8.638   5.475   9.327  0.6933 -1.0265  1.0296
  652MOL0     C85964   8.651   5.339   9.300 -0.1931 -0.0087  1.5217
  652MOL0     C85965   8.754   5.283   9.380  1.1134  0.0085  0.3907
  652MOL0     C85966   8.842   5.362   9.458 -0.3269  0.0659  0.6303
  652MOL0     O85967   8.948   5.316   9.530  0.1808 -0.6640  0.1145
  652MOL0     C85968   8.963   5.168   9.528  0.6887  0.0658 -0.1716
  652MOL0     C85969   9.048   5.133   9.638 -1.0414 -0.0800 -0.7075
  652MOL0     C85970   9.199   5.167   9.621  0.3739  0.2907  0.0056
  652MOL0     C85971   9.267   5.171   9.759  0.1831 -1.1045  0.1539
  652MOL0     C85972   9.419   5.166   9.735  0.3849  0.6149  0.7140
  652MOL0     C85973   9.505   5.204   9.858 -0.0725  0.3610  0.7463
  652MOL0     C85974   9.648   5.172   9.843 -0.1609  0.8185 -0.5391
  652MOL0     C85975   9.710   5.050   9.912  0.0319 -0.5712 -0.3030
  652MOL0    Cl85976   9.713   5.099  10.078  0.1169  0.4179 -0.0186
  652MOL0     C85977   8.830   5.499   9.472  0.6377  0.6035  0.2592
  652MOL0     C85978   8.723   5.560   9.404  0.0209  0.4480  0.1643
  652MOL0     O85979   8.440   5.643   9.442  0.3709 -0.6347  0.0000
  652MOL0     C85980   8.329   5.827   9.270  0.9349  0.7278  0.8391
  652MOL0     C85981   8.242   5.900   9.198  0.8106  0.2092  0.0435
  652MOL0     N85982   7.629   6.151   9.072  0.4675 -0.3339  0.6700
  652MOL0     N85983   7.522   6.189   9.136 -0.2866 -0.8319  0.0124
  652MOL0     C85984   6.436   6.472   9.423 -1.1126  0.3633  1.5268
  652MOL0     C85985   6.365   6.560   9.506  0.6179 -0.1325  0.3383
  652MOL0     C85986   6.158   6.756   9.843 -0.9389  0.2372 -0.7435
  652MOL0     C85987   6.051   6.718   9.921  1.0401  0.0051 -1.5424
  652MOL0     C85988   5.963   6.807   9.984 -0.4624  0.5724 -0.4429
  652MOL0     C85989   5.995   6.947   9.975  1.2313  1.0246  0.0529
  652MOL0     O85990   5.932   7.043  10.048  0.5063  0.2280  0.3565
  652MOL0     C85991   5.795   7.026  10.063  0.3539  0.1158 -0.5615
  652MOL0     C85992   5.744   7.153  10.134 -0.2172  0.0535  0.4039
  652MOL0     C85993   5.804   7.174  10.280 -0.1958 -0.4691  0.2590
  652MOL0     C85994   5.764   7.321  10.313  0.6695  0.3856 -0.6360
  652MOL0     C85995   5.750   7.340  10.453 -0.2233  1.1944 -0.4264
  652MOL0     C85996   5.727   7.357  10.573 -0.4213 -0.8228  1.0286
  652MOL0     C85997   6.096   6.980   9.892  1.3110  0.6040 -0.2178
  652MOL0     C85998   6.171   6.894   9.819 -0.2166 -0.7013 -0.7752
  652MOL0     H85999   6.598   6.679   9.699 -1.4153  0.0549  0.4523
  652MOL0     H86000   6.738   6.518   9.565  0.2470  3.8444  1.3012
  652MOL0     H86001   6.844   6.409   9.399  1.1891 -0.3341  1.1694
  652MOL0     H86002   6.803   6.311   9.262  0.5144 -1.8966  1.0866
  652MOL0     H86003   6.712   6.136   9.405  0.6755 -0.3708 -1.4776
  652MOL0     H86004   6.737   6.212   9.556 -1.6152  1.8423 -0.6945
  652MOL0     H86005   6.982   6.176   9.372  1.6803  5.7192  2.2392
  652MOL0     H86006   6.927   6.043   9.478 -1.7264 -0.0882  0.0077
  652MOL0     H86007   6.969   6.311   9.609 -1.3473 -0.5866  1.0727
  652MOL0     H86008   6.995   6.155   9.678  1.5273 -2.7233 -1.2922
  652MOL0     H86009   7.220   6.234   9.659  2.8553  0.6261 -1.9212
  652MOL0     H86010   7.173   6.288   9.495  0.2341  1.8498  1.9742
  652MOL0     H86011   7.149   6.020   9.457 -1.6698 -2.1316  2.7101
  652MOL0     H86012   7.243   6.014   9.602 -1.0874  0.0089  0.8206
  652MOL0     H86013   7.436   6.159   9.472  1.0936 -0.4189 -0.5193
  652MOL0     H86014   7.413   5.994   9.432 -0.0025  0.5377 -2.7547
  652MOL0     H86015   7.312   6.235   9.279 -0.4708 -0.1185 -0.9330
  652MOL0     H86016   7.276   6.063   9.234  0.7854 -0.5190 -0.8703
  652MOL0     H86017   7.608   5.928   9.299  3.4696  0.0892 -1.6588
  652MOL0     H86018   7.804   5.864   9.163  0.1146  0.3262 -0.4134
  652MOL0     H86019   7.903   6.007   9.120  0.8027 -0.7945 -1.7532
  652MOL0     H86020   7.775   6.006   8.903 -0.7072 -0.6082  0.5781
  652MOL0     H86021   7.709   5.857   8.956 -1.8116  4.0355 -3.3964
  652MOL0     H86022   7.951   5.756   8.944  1.5308 -0.3933 -0.8687
  652MOL0     H86023   7.889   5.814   8.800 -0.2071 -1.1656  0.3076
  652MOL0     H86024   8.015   6.029   8.824  1.9681  0.8165 -0.3101
  652MOL0     H86025   8.103   5.876   8.791 -3.2266 -2.9876 -0.9529
  652MOL0     H86026   8.208   5.703   8.925 -0.2640 -1.3084 -0.7943
  652MOL0     H86027   8.319   5.555   9.069 -1.5577  0.6982 -2.6939
  652MOL0     H86028   8.592   5.279   9.231  0.2990 -1.1176  2.0277
  652MOL0     H86029   8.772   5.177   9.365 -0.2704  0.0819 -2.2009
  652MOL0     H86030   9.001   5.119   9.438 -3.2479 -3.1088 -0.3716
  652MOL0     H86031   8.866   5.121   9.548 -0.0409  0.1404 -3.0741
  652MOL0     H86032   9.039   5.025   9.652  3.8210 -0.6914 -0.4672
  652MOL0     H86033   9.016   5.177   9.732  4.5079  1.9263  0.6126
  652MOL0     H86034   9.214   5.255   9.558  0.7705  0.0623 -0.2150
  652MOL0     H86035   9.242   5.089   9.558 -0.2533 -1.7874  1.9950
  652MOL0     H86036   9.251   5.270   9.803  3.6223 -0.1571 -0.4363
  652MOL0     H86037   9.236   5.098   9.834 -0.6848  0.6961  1.6416
  652MOL0     H86038   9.439   5.231   9.650 -3.3005  2.6744  1.1754
  652MOL0     H86039   9.445   5.063   9.710  0.0618  0.3107  1.5841
  652MOL0     H86040   9.465   5.160   9.949  0.0170  3.1953  2.2622
  652MOL0     H86041   9.506   5.313   9.864  1.7166  0.5369 -1.2964
  652MOL0     H86042   9.670   5.171   9.736  3.8269  1.8255  0.1076
  652MOL0     H86043   9.712   5.251   9.883 -0.5509  0.7045  0.3362
  652MOL0     H86044   9.811   5.041   9.869  0.2909  0.1473  0.1410
  652MOL0     H86045   9.653   4.957   9.909  0.8379 -1.0570 -2.9711
  652MOL0     H86046   8.904   5.561   9.523  0.9454  3.0670 -2.8705
  652MOL0     H86047   8.714   5.668   9.397 -0.9174  0.3525 -0.2913
  652MOL0     H86048   8.364   5.871   9.363 -1.3592  0.3983  1.9361
  652MOL0     H86049   8.219   6.001   9.230 -1.0299  0.1959 -1.0918
  652MOL0     H86050   6.387   6.418   9.342  3.5751 -1.8671 -0.1915
  652MOL0     H86051   6.256   6.565   9.502  0.3716 -2.8147  1.2405
  652MOL0     H86052   6.039   6.612   9.940 -0.6048  0.3740 -0.3054
  652MOL0     H86053   5.870   6.769  10.026 -0.7210  1.0110 -0.6093
  652MOL0     H86054   5.779   6.935  10.122  1.2775 -0.1044 -0.6322
  652MOL0     H86055   5.750   7.018   9.964 -0.5939  2.0604 -0.3378
  652MOL0     H86056   5.787   7.230  10.070  1.1348 -1.7862 -0.9971
  652MOL0     H86057   5.635   7.156  10.133 -0.2436  0.7213  1.7409
  652MOL0     H86058   5.913   7.166  10.283 -0.0633 -2.7494 -3.6653
  652MOL0     H86059   5.763   7.097  10.345 -3.2589  1.1467  0.4019
  652MOL0     H86060   5.838   7.383  10.262 -0.9677  0.8648 -2.5387
  652MOL0     H86061   5.665   7.336  10.271 -0.9448 -3.6579  1.2394
  652MOL0     H86062   5.696   7.400  10.666  0.5518 -0.8626  1.3802
  652MOL0     H86063   6.110   7.083   9.859 -1.2781  1.0686 -0.1273
  652MOL0     H86064   6.240   6.941   9.750  0.0811 -0.5586 -0.3807
  653MOL0     O86065   2.476   9.246  11.088  0.0123 -0.4081 -0.4310
  653MOL0     C86066   2.533   9.181  11.013  0.2485  0.2910  0.4700
  653MOL0     O86067   2.670   9.164  11.009  0.1527  0.6679 -0.5028
  653MOL0     C86068   2.756   9.252  11.046 -0.2614 -1.2203  1.2530
  653MOL0     C86069   2.808   9.354  10.960  0.8695  1.2264 -0.5253
  653MOL0     C86070   2.907   9.436  11.001 -0.6402 -0.0698  0.8195
  653MOL0     C86071   2.957   9.420  11.122  0.4671 -0.4687 -0.3384
  653MOL0     O86072   3.058   9.501  11.165  0.3349 -0.5791 -0.1427
  653MOL0     C86073   3.158   9.447  11.254  0.0476  0.2392  0.1323
  653MOL0     C86074   3.276   9.555  11.268  0.5813 -0.4765 -0.2926
  653MOL0     C86075   3.402   9.481  11.306 -0.5280  0.7589 -1.1803
  653MOL0     C86076   3.518   9.575  11.328  0.2245  0.0589 -0.2689
  653MOL0     C86077   3.638   9.529  11.243  0.0711 -0.0401  0.6435
  653MOL0     C86078   3.603   9.552  11.090  0.3847 -0.2658 -0.3953
  653MOL0     C86079   3.695   9.488  10.988  0.4541  0.2794 -0.8804
  653MOL0     C86080   3.753   9.357  11.030 -0.2342  0.1189  0.2784
  653MOL0     N86081   3.663   9.249  11.067 -0.2195  0.8368 -0.5523
  653MOL0     C86082   3.553   9.203  11.007  0.3806  0.2610  0.2653
  653MOL0     C86083   3.498   9.105  11.090 -0.6677  0.3404  0.9991
  653MOL0     C86084   3.374   9.022  11.071  0.7394  0.5338  0.0642
  653MOL0     C86085   3.266   9.105  10.995 -0.7720  0.6713  0.8421
  653MOL0     C86086   3.153   9.009  10.975 -0.2414  0.4128 -0.8264
  653MOL0     C86087   3.053   9.076  10.879  0.0187  0.0252 -0.3164
  653MOL0     O86088   3.092   9.041  10.741 -0.0736  0.0355 -0.1851
  653MOL0     C86089   3.005   9.054  10.639 -0.2955  0.0051 -0.1312
  653MOL0     C86090   2.895   9.148  10.645  0.0992  0.6965  0.1639
  653MOL0     C86091   2.791   9.144  10.541 -0.0397  0.7870  0.6740
  653MOL0     C86092   2.784   9.022  10.462  0.8675 -0.4153 -0.3826
  653MOL0     C86093   2.673   8.997  10.364  0.7002 -0.4199 -0.2937
  653MOL0     O86094   2.701   8.900  10.271 -0.4738  1.2321  1.0378
  653MOL0     C86095   2.605   8.895  10.170 -1.0981 -0.4551 -0.2350
  653MOL0     C86096   2.641   8.956  10.050  0.5538 -0.2923  0.0196
  653MOL0     C86097   2.544   8.946   9.948 -0.3148 -0.6230  0.6285
  653MOL0     C86098   2.426   8.874   9.952  0.1618 -0.2805 -1.4848
  653MOL0     O86099   2.336   8.880   9.857  0.4938  0.6554  0.1431
  653MOL0     C86100   2.197   8.832   9.868  0.6914  0.4019 -0.0670
  653MOL0     C86101   2.124   8.827   9.738  0.2660 -0.4320 -0.3137
  653MOL0     C86102   2.177   8.721   9.642  0.0472 -0.4495  0.1273
  653MOL0     C86103   2.070   8.655   9.567  1.1443 -0.0429  0.5374
  653MOL0     C86104   2.108   8.539   9.480 -0.2787 -1.6571 -0.2031
  653MOL0     C86105   2.194   8.599   9.361  0.3185  0.0901 -0.5347
  653MOL0     C86106   2.098   8.661   9.247 -0.7809 -0.6840  0.0542
  653MOL0     C86107   2.053   8.543   9.163 -0.1126  0.6019  0.7299
  653MOL0    Cl86108   2.191   8.499   9.056  0.3365 -0.2712  0.1581
  653MOL0     C86109   2.401   8.802  10.075 -1.0840  0.0547  0.4218
  653MOL0     C86110   2.489   8.819  10.186  0.1134  0.7380 -0.3640
  653MOL0     O86111   2.572   9.075  10.355  0.4819  0.3804  0.0919
  653MOL0     C86112   2.904   8.938  10.459  0.7252  0.0067  0.1154
  653MOL0     C86113   3.009   8.951  10.545  0.6307 -0.9188  0.1622
  653MOL0     N86114   3.577   9.107  11.208  0.5383  0.6837 -0.4666
  653MOL0     N86115   3.664   9.192  11.194  0.7421 -0.4722  0.7481
  653MOL0     C86116   2.891   9.334  11.214 -0.0801  0.9825  0.8505
  653MOL0     C86117   2.794   9.242  11.171  0.8577 -0.8052 -0.1060
  653MOL0     C86118   2.458   9.115  10.908  1.0845  0.2458  0.2268
  653MOL0     C86119   2.324   9.087  10.930  0.0387  1.1585  0.5911
  653MOL0     C86120   2.257   9.018  10.828  0.2348 -0.9097  0.1638
  653MOL0     C86121   2.318   8.986  10.707  0.3944 -0.7396  0.5014
  653MOL0     O86122   2.229   8.937  10.618  0.5282  0.3664 -0.0409
  653MOL0     C86123   2.287   8.885  10.503 -0.2432 -0.2326 -0.2586
  653MOL0     C86124   2.172   8.846  10.400 -0.1902  0.2684  0.6117
  653MOL0     C86125   2.080   8.967  10.356 -0.3564  0.4372 -0.0002
  653MOL0     C86126   1.968   8.910  10.268  0.0324  0.4125  0.7422
  653MOL0     C86127   1.881   9.023  10.256  0.9283  0.4840  1.0349
  653MOL0     C86128   1.812   9.130  10.264 -0.4002 -1.2689  0.3327
  653MOL0     C86129   2.454   9.019  10.680  0.9974  0.7002  0.6192
  653MOL0     C86130   2.519   9.084  10.785 -0.4656  0.8417  0.6756
  653MOL0     H86131   2.774   9.355  10.857 -0.9030 -1.3031 -0.0699
  653MOL0     H86132   2.957   9.506  10.934 -0.4470  1.3051  2.3342
  653MOL0     H86133   3.199   9.357  11.209  1.4929  0.8905  0.1053
  653MOL0     H86134   3.116   9.417  11.350 -2.7664  1.6628 -0.5132
  653MOL0     H86135   3.246   9.630  11.342 -2.3815 -1.6712 -0.1677
  653MOL0     H86136   3.296   9.608  11.174  0.6021 -2.6767 -1.5947
  653MOL0     H86137   3.425   9.406  11.229 -0.5269 -2.1374  1.4499
  653MOL0     H86138   3.374   9.420  11.392 -1.7156  3.3132  0.3569
  653MOL0     H86139   3.484   9.674  11.298 -1.2082 -0.6444 -1.1162
  653MOL0     H86140   3.542   9.569  11.434 -0.5635 -2.9025 -0.1662
  653MOL0     H86141   3.665   9.424  11.261  1.6172  0.1808 -0.1955
  653MOL0     H86142   3.714   9.598  11.280  1.5606 -0.9625 -0.5682
  653MOL0     H86143   3.602   9.660  11.072 -0.5440 -0.7416 -3.9447
  653MOL0     H86144   3.502   9.520  11.062 -0.3455 -0.9747  2.6340
  653MOL0     H86145   3.641   9.470  10.895 -0.0418  0.6328 -0.6685
  653MOL0     H86146   3.780   9.551  10.959  0.5500  1.5676  1.8145
  653MOL0     H86147   3.834   9.375  11.101 -0.9636 -0.5851  1.3240
  653MOL0     H86148   3.800   9.306  10.945  0.9714 -0.3289  1.1830
  653MOL0     H86149   3.498   9.242  10.922  0.9178  2.0160  0.6956
  653MOL0     H86150   3.338   8.977  11.164 -0.4797  2.0522  0.3743
  653MOL0     H86151   3.398   8.939  11.003  1.0799  0.5765  0.1314
  653MOL0     H86152   3.312   9.132  10.899  0.0457 -0.6322  0.8418
  653MOL0     H86153   3.242   9.200  11.044 -2.1242  1.9699 -2.0685
  653MOL0     H86154   3.177   8.909  10.938 -4.1901 -0.9727 -0.1661
  653MOL0     H86155   3.107   9.011  11.074 -0.6427  0.9467 -1.0166
  653MOL0     H86156   3.058   9.183  10.901  4.5728  0.1040 -0.7791
  653MOL0     H86157   2.950   9.045  10.900 -0.4567  0.7284 -1.4840
  653MOL0     H86158   2.910   9.233  10.711 -0.4114  0.0114  1.2034
  653MOL0     H86159   2.718   9.225  10.538 -2.8910 -1.5770 -2.3999
  653MOL0     H86160   2.737   9.006  10.038  0.1269  0.5088 -0.0523
  653MOL0     H86161   2.556   9.012   9.863  0.5619 -0.7277  0.6614
  653MOL0     H86162   2.141   8.905   9.927 -0.1591  0.5586 -1.0335
  653MOL0     H86163   2.186   8.729   9.904 -0.4058  1.1417  1.8554
  653MOL0     H86164   2.125   8.919   9.679 -3.6181  0.5479  0.8672
  653MOL0     H86165   2.017   8.813   9.758  0.6343  0.0500  2.3500
  653MOL0     H86166   2.228   8.635   9.686  0.5369 -0.1583  0.1359
  653MOL0     H86167   2.243   8.771   9.571  1.5210 -2.3344  0.1047
  653MOL0     H86168   1.991   8.618   9.634  0.6125  0.9351  0.4688
  653MOL0     H86169   2.016   8.732   9.510  0.8477 -0.5687  0.0988
  653MOL0     H86170   2.017   8.491   9.443  0.0925 -2.2762 -0.3462
  653MOL0     H86171   2.172   8.463   9.525  1.7118  0.5779  0.9295
  653MOL0     H86172   2.261   8.525   9.317  2.8879  0.6466  2.1309
  653MOL0     H86173   2.263   8.676   9.396 -0.4208  0.0954  1.0003
  653MOL0     H86174   2.011   8.706   9.296  2.1944  2.0503  3.4173
  653MOL0     H86175   2.140   8.731   9.175  1.3899 -1.0923  0.8424
  653MOL0     H86176   1.956   8.554   9.113 -0.8665 -2.4605  1.2786
  653MOL0     H86177   2.023   8.458   9.226 -0.8144  0.6013  0.4115
  653MOL0     H86178   2.310   8.747  10.097  0.3763 -2.7659 -0.1242
  653MOL0     H86179   2.467   8.784  10.286 -1.7262 -0.0961 -1.0227
  653MOL0     H86180   2.907   8.868  10.376  1.1353 -0.4257  0.4939
  653MOL0     H86181   3.098   8.888  10.540  0.9183 -0.4901 -0.2192
  653MOL0     H86182   2.914   9.320  11.319  0.1361  1.3540  0.8558
  653MOL0     H86183   2.741   9.170  11.232 -3.0669  1.0449 -0.9980
  653MOL0     H86184   2.285   9.111  11.028  0.9843  1.0539  1.0088
  653MOL0     H86185   2.150   9.001  10.835 -0.4036  0.1372 -4.2883
  653MOL0     H86186   2.337   8.790  10.527 -2.2416 -1.1641  0.4555
  653MOL0     H86187   2.348   8.960  10.452  0.2606 -1.5794 -1.7576
  653MOL0     H86188   2.244   8.817  10.323 -0.5652  3.1497 -0.9653
  653MOL0     H86189   2.105   8.764  10.429  0.2812 -0.4022 -0.1380
  653MOL0     H86190   2.135   9.034  10.289  3.4158  2.1254  4.2633
  653MOL0     H86191   2.044   9.029  10.439  0.8713  2.3923 -0.8605
  653MOL0     H86192   1.998   8.875  10.169  1.3465 -0.7579  1.5192
  653MOL0     H86193   1.925   8.821  10.315  2.2387 -1.8810 -1.2733
  653MOL0     H86194   1.753   9.220  10.268  3.0894  1.3006 -1.0440
  653MOL0     H86195   2.509   9.009  10.586 -0.0777 -2.1531  0.1879
  653MOL0     H86196   2.626   9.096  10.776  0.2890 -3.4524  1.6764
  654MOL0     O86197   3.189   3.742   1.470  0.3726 -0.4909 -0.1368
  654MOL0     C86198   3.203   3.713   1.590  0.1509 -0.0217 -0.5931
  654MOL0     O86199   3.253   3.595   1.634  0.2368  0.2801 -1.4732
  654MOL0     C86200   3.289   3.490   1.553  0.5161 -0.4839  0.9474
  654MOL0     C86201   3.218   3.426   1.450  0.1145 -0.1980  1.0277
  654MOL0     C86202   3.271   3.324   1.377 -1.9214  0.1719 -0.2927
  654MOL0     C86203   3.402   3.272   1.419 -1.2557  0.7313 -0.0752
  654MOL0     O86204   3.447   3.162   1.345 -0.3886 -0.3414  0.1348
  654MOL0     C86205   3.385   3.113   1.223  0.0274  0.1424  0.3022
  654MOL0     C86206   3.482   3.026   1.146  0.9500 -0.5439 -0.5545
  654MOL0     C86207   3.399   2.928   1.064  0.4536  0.6456 -0.4109
  654MOL0     C86208   3.473   2.800   1.030 -0.1667 -0.2565  0.5345
  654MOL0     C86209   3.391   2.685   0.970 -0.1172 -0.6821 -0.5791
  654MOL0     C86210   3.397   2.556   1.040  0.3626  0.6186 -0.4418
  654MOL0     C86211   3.285   2.470   0.990 -0.7995  0.7021  0.4599
  654MOL0     C86212   3.308   2.325   1.039  0.0807 -0.2108  0.0326
  654MOL0     N86213   3.205   2.229   0.996  0.1858  0.1099  0.6106
  654MOL0     C86214   3.135   2.221   0.879  0.1516 -0.3990  0.8831
  654MOL0     C86215   3.034   2.127   0.889 -0.2293 -0.9255 -0.0513
  654MOL0     C86216   2.930   2.097   0.781 -1.2571  0.0897  0.6918
  654MOL0     C86217   2.792   2.172   0.791 -0.5120  0.5228 -0.3330
  654MOL0     C86218   2.801   2.321   0.759  0.7144 -1.0293 -0.6577
  654MOL0     C86219   2.826   2.420   0.884  0.9687  0.0193 -0.7232
  654MOL0     O86220   2.906   2.527   0.830  0.0536  0.8065  0.4761
  654MOL0     C86221   2.902   2.651   0.871 -0.5119 -0.1289 -0.3475
  654MOL0     C86222   2.779   2.713   0.902 -0.1529 -0.2705 -0.8211
  654MOL0     C86223   2.775   2.855   0.925  0.2288 -0.3541  1.0238
  654MOL0     C86224   2.895   2.920   0.907  0.1736 -0.0624 -0.5334
  654MOL0     C86225   2.902   3.067   0.945  0.1563 -0.2442  0.5892
  654MOL0     O86226   2.787   3.135   0.947  0.5916 -0.9404 -0.1622
  654MOL0     C86227   2.754   3.210   1.063 -0.2296 -0.0259 -0.2257
  654MOL0     C86228   2.623   3.259   1.056 -0.2374  1.4972 -0.6562
  654MOL0     C86229   2.579   3.352   1.146 -0.5983  0.0499 -0.4027
  654MOL0     C86230   2.669   3.408   1.244 -0.0709  0.8821 -0.2072
  654MOL0     O86231   2.625   3.497   1.338 -0.3476 -0.5808  0.4213
  654MOL0     C86232   2.501   3.576   1.305 -0.1812  0.3786 -0.5452
  654MOL0     C86233   2.479   3.692   1.399  0.3641 -0.2863  1.3865
  654MOL0     C86234   2.567   3.825   1.375  0.1968  0.0654  0.3274
  654MOL0     C86235   2.555   3.933   1.483  0.0001  0.7182  0.1677
  654MOL0     C86236   2.636   4.050   1.427 -0.0887  0.2706 -0.1991
  654MOL0     C86237   2.577   4.180   1.480 -1.5749 -0.1771 -0.4789
  654MOL0     C86238   2.631   4.217   1.614  0.2775 -0.3048 -0.2589
  654MOL0     C86239   2.572   4.361   1.655  0.1963 -0.9052 -0.1692
  654MOL0    Cl86240   2.392   4.362   1.683  0.2725  0.1087 -0.5411
  654MOL0     C86241   2.791   3.350   1.255  0.0463  0.4684 -0.4006
  654MOL0     C86242   2.842   3.244   1.173 -1.1647  0.1918  0.5127
  654MOL0     O86243   3.009   3.109   0.981 -0.5128 -0.3122 -0.2233
  654MOL0     C86244   3.015   2.853   0.882  0.3476  0.6052  0.5408
  654MOL0     C86245   3.016   2.718   0.854 -1.6453 -0.5197 -0.9620
  654MOL0     N86246   3.039   2.098   1.026 -0.8599  0.5183 -0.1910
  654MOL0     N86247   3.137   2.149   1.087 -0.3468  1.0242  0.0854
  654MOL0     C86248   3.479   3.339   1.521  0.9781  1.0586  0.0138
  654MOL0     C86249   3.419   3.443   1.584 -0.6833  1.1685  0.4162
  654MOL0     C86250   3.155   3.823   1.686 -0.7968  0.1460  0.2342
  654MOL0     C86251   3.116   3.943   1.634  1.0526 -0.6558  0.2249
  654MOL0     C86252   3.060   4.044   1.717 -0.5342 -0.2721  0.4209
  654MOL0     C86253   3.057   4.027   1.853 -0.5693  0.2942 -0.1943
  654MOL0     O86254   2.988   4.122   1.923  0.0377  0.6883 -0.2222
  654MOL0     C86255   2.971   4.124   2.059 -0.1356 -0.3997  0.1994
  654MOL0     C86256   2.844   4.043   2.097 -0.7480  0.2185 -0.2165
  654MOL0     C86257   2.732   4.150   2.074  0.9085 -0.3263  0.1517
  654MOL0     C86258   2.589   4.098   2.100  0.3416 -0.2326 -0.7403
  654MOL0     C86259   2.495   4.188   2.040  1.2248  0.0110 -0.7842
  654MOL0     C86260   2.399   4.244   1.981  1.1677 -0.1206 -1.2119
  654MOL0     C86261   3.104   3.903   1.901 -0.5275 -0.7397 -0.9000
  654MOL0     C86262   3.148   3.800   1.821  0.2532 -0.7216 -0.1035
  654MOL0     H86263   3.112   3.446   1.432 -0.2031 -2.9532 -0.8125
  654MOL0     H86264   3.212   3.290   1.292 -2.4601  1.9851 -0.6862
  654MOL0     H86265   3.347   3.190   1.154 -3.6481 -1.1414  0.6681
  654MOL0     H86266   3.294   3.062   1.254 -0.0089  0.8793  1.4474
  654MOL0     H86267   3.536   2.973   1.225  0.4464  0.0841  0.2226
  654MOL0     H86268   3.550   3.089   1.088  2.5328 -0.0992  1.6809
  654MOL0     H86269   3.367   2.963   0.966  3.0337  0.5513 -1.3667
  654MOL0     H86270   3.319   2.893   1.129  1.0995  0.5551  0.3569
  654MOL0     H86271   3.549   2.831   0.959 -0.5565 -2.6589 -1.0453
  654MOL0     H86272   3.532   2.768   1.117  3.0363  3.2290 -0.1069
  654MOL0     H86273   3.427   2.670   0.868 -0.0986  0.9004 -0.8319
  654MOL0     H86274   3.287   2.719   0.977 -0.4795 -2.0393  1.6126
  654MOL0     H86275   3.378   2.560   1.148 -1.0640 -0.2898 -0.6331
  654MOL0     H86276   3.492   2.512   1.010  1.0672  1.0355  1.0672
  654MOL0     H86277   3.185   2.496   1.026 -1.6807 -1.1629 -0.4691
  654MOL0     H86278   3.302   2.473   0.882  1.1201  1.1285  0.7357
  654MOL0     H86279   3.305   2.333   1.148 -1.4300  3.8314 -0.1102
  654MOL0     H86280   3.401   2.287   0.997 -0.8679 -1.9455 -0.6261
  654MOL0     H86281   3.154   2.278   0.789 -0.3583 -2.9646 -0.9711
  654MOL0     H86282   2.919   1.988   0.787  0.1189 -0.0148  1.9949
  654MOL0     H86283   2.970   2.138   0.688  1.5545 -2.0556  0.8320
  654MOL0     H86284   2.747   2.152   0.889  1.2558 -0.8004  0.2538
  654MOL0     H86285   2.728   2.124   0.716 -0.7969  0.9873 -0.3880
  654MOL0     H86286   2.879   2.338   0.684  5.0107 -2.0841  3.1150
  654MOL0     H86287   2.699   2.339   0.724 -1.5291 -2.3267  4.2888
  654MOL0     H86288   2.889   2.367   0.956  1.7204  1.5458 -0.2222
  654MOL0     H86289   2.734   2.447   0.938  1.2834  1.2946 -0.8016
  654MOL0     H86290   2.686   2.660   0.921 -0.1986 -1.0213 -2.8858
  654MOL0     H86291   2.681   2.907   0.945 -0.0320  0.2710 -1.5219
  654MOL0     H86292   2.560   3.221   0.976  0.9402  0.8231 -1.2965
  654MOL0     H86293   2.481   3.399   1.138 -0.0218  1.0814 -1.8266
  654MOL0     H86294   2.417   3.508   1.293 -0.9378  1.5850 -2.7139
  654MOL0     H86295   2.510   3.620   1.205 -0.4463 -0.8474 -1.1199
  654MOL0     H86296   2.491   3.650   1.500  1.2222 -1.1407  0.9570
  654MOL0     H86297   2.376   3.728   1.398 -0.0448 -1.2295 -1.9703
  654MOL0     H86298   2.536   3.869   1.280 -0.5952  1.2785  1.1332
  654MOL0     H86299   2.666   3.778   1.375 -0.5883 -1.6766  0.1910
  654MOL0     H86300   2.448   3.953   1.498 -0.3193 -0.1351 -0.8896
  654MOL0     H86301   2.606   3.910   1.577  3.5279 -0.2080 -1.8311
  654MOL0     H86302   2.630   4.060   1.318  2.1783 -0.7904 -0.4762
  654MOL0     H86303   2.741   4.041   1.456 -0.3642 -3.2201  0.1454
  654MOL0     H86304   2.469   4.189   1.488 -1.3420  1.5166  2.0548
  654MOL0     H86305   2.618   4.250   1.407 -0.4265  0.3354  0.6107
  654MOL0     H86306   2.597   4.147   1.691 -2.9183 -2.7612 -3.5237
  654MOL0     H86307   2.740   4.215   1.611  0.2530 -0.5791 -1.7733
  654MOL0     H86308   2.602   4.438   1.583 -0.8327  0.4508  0.7955
  654MOL0     H86309   2.620   4.386   1.750  2.8057 -2.2023 -1.0423
  654MOL0     H86310   2.861   3.392   1.327  1.9281  1.7707 -2.8036
  654MOL0     H86311   2.941   3.206   1.197 -1.7434 -1.4582  0.4724
  654MOL0     H86312   3.106   2.912   0.875  0.3421  0.5498  0.0212
  654MOL0     H86313   3.114   2.671   0.847 -0.8889  1.0946 -1.7770
  654MOL0     H86314   3.579   3.300   1.538  0.7726  0.8603  0.7905
  654MOL0     H86315   3.466   3.493   1.668  0.8758  0.4158  0.0309
  654MOL0     H86316   3.103   3.969   1.530  0.0216 -0.1082  0.4704
  654MOL0     H86317   3.032   4.131   1.658  1.9021  0.6355  0.5084
  654MOL0     H86318   2.992   4.226   2.091 -0.9806 -0.9789  2.8218
  654MOL0     H86319   3.049   4.075   2.116  2.5190  0.6933 -2.2388
  654MOL0     H86320   2.822   3.954   2.038 -3.0527 -0.2717  1.2442
  654MOL0     H86321   2.848   4.012   2.202  2.4315 -0.8582 -0.5603
  654MOL0     H86322   2.740   4.180   1.969  0.2493 -2.8952 -0.6937
  654MOL0     H86323   2.737   4.235   2.144 -1.3292 -0.7957  0.9736
  654MOL0     H86324   2.568   3.998   2.062  0.9870 -0.7687  0.2443
  654MOL0     H86325   2.546   4.098   2.201 -0.7410  0.9394 -1.1762
  654MOL0     H86326   2.326   4.286   1.915  0.7003  3.2060  1.2136
  654MOL0     H86327   3.102   3.885   2.008  0.7993 -1.2822 -0.9363
  654MOL0     H86328   3.177   3.713   1.878  0.7525  0.4744  1.5684
  655MOL0     O86329   8.511  10.013   1.183  0.2502 -0.4525  0.6547
  655MOL0     C86330   8.467   9.943   1.093 -0.2862  0.9387 -0.9275
  655MOL0     O86331   8.530   9.911   0.982 -0.8337 -0.1480  0.0131
  655MOL0     C86332   8.657   9.966   0.966 -1.2445 -0.5121  0.5294
  655MOL0     C86333   8.688  10.055   0.862  0.0673  0.7225  0.8724
  655MOL0     C86334   8.820  10.105   0.852 -0.0792  0.6286  0.1087
  655MOL0     C86335   8.928  10.054   0.926 -0.7128  0.2708 -0.2549
  655MOL0     O86336   9.068  10.085   0.908  0.1186 -0.4161 -0.5097
  655MOL0     C86337   9.165  10.011   0.986 -0.5870 -0.3137 -0.3794
  655MOL0     C86338   9.296  10.083   0.960 -0.0740  0.9167  0.5141
  655MOL0     C86339   9.399  10.039   1.067  0.1217 -0.0455 -0.3438
  655MOL0     C86340   9.533  10.118   1.048  0.5541  0.2804  0.5444
  655MOL0     C86341   9.610  10.036   0.952  0.0897 -0.2755  0.5317
  655MOL0     C86342   9.735  10.118   0.922 -0.3225  0.2561  0.2204
  655MOL0     C86343   9.845  10.021   0.862 -0.1249 -0.8948  0.1651
  655MOL0     C86344   9.969  10.095   0.831  0.1974  0.7279  1.2579
  655MOL0     N86345  10.065  10.012   0.766 -0.0968 -0.3319 -0.7964
  655MOL0     C86346  10.183   9.959   0.819 -0.3461  0.4151  0.1184
  655MOL0     C86347  10.246   9.896   0.715  0.2884  0.8103 -0.1945
  655MOL0     C86348  10.362   9.807   0.720 -0.6600  0.6687  0.3814
  655MOL0     C86349  10.344   9.670   0.643 -0.0965  0.0356 -0.2976
  655MOL0     C86350  10.458   9.567   0.673  0.4908 -0.2124  0.0274
  655MOL0     C86351  10.461   9.434   0.594  0.1488  0.2645 -0.1878
  655MOL0     O86352  10.496   9.465   0.462 -1.1516  0.1457  0.0090
  655MOL0     C86353  10.530   9.365   0.388  0.4869 -0.1622  0.0077
  655MOL0     C86354  10.444   9.256   0.371  0.0220 -0.4308 -0.0455
  655MOL0     C86355  10.486   9.145   0.304 -0.2658  0.1261  1.0795
  655MOL0     C86356  10.615   9.142   0.239 -0.1066  0.0111 -0.0560
  655MOL0     C86357  10.669   9.022   0.175 -0.0921 -0.4430  0.4716
  655MOL0     O86358  10.794   8.982   0.199 -0.7355  0.2191  0.1148
  655MOL0     C86359  10.833   8.855   0.223  0.4523 -0.0325  0.3937
  655MOL0     C86360  10.973   8.841   0.247 -0.1777 -0.1351  0.3220
  655MOL0     C86361  11.035   8.713   0.269 -0.3946 -0.3174  0.1214
  655MOL0     C86362  10.952   8.598   0.268 -0.3218  0.9020 -0.2502
  655MOL0     O86363  10.984   8.466   0.303  0.2711  0.8046 -0.0411
  655MOL0     C86364  11.130   8.441   0.306 -1.0135  0.0949 -0.0001
  655MOL0     C86365  11.187   8.379   0.175  0.9111 -0.6196 -0.0141
  655MOL0     C86366  11.105   8.273   0.113  0.5549 -0.1047 -0.0957
  655MOL0     C86367  11.051   8.152   0.190 -0.1286 -0.0910  0.1637
  655MOL0     C86368  10.904   8.141   0.167  0.7972  0.4666  0.0503
  655MOL0     C86369  10.860   7.995   0.205  0.1684 -0.4366 -0.0222
  655MOL0     C86370  10.709   7.969   0.183  0.2213 -0.4325 -1.4709
  655MOL0     C86371  10.665   7.943   0.045 -0.7826  0.7459 -0.1890
  655MOL0    Cl86372  10.499   7.891   0.030 -0.2471 -0.3873 -0.2280
  655MOL0     C86373  10.813   8.619   0.243  0.9296 -0.1751 -1.0341
  655MOL0     C86374  10.754   8.743   0.227  0.3687  0.8912  1.2215
  655MOL0     O86375  10.583   8.957   0.112  0.5698  0.6505 -0.2021
  655MOL0     C86376  10.694   9.256   0.255 -1.0902 -0.1480 -0.2195
  655MOL0     C86377  10.655   9.360   0.334 -0.7389 -0.1260  0.2710
  655MOL0     N86378  10.160   9.904   0.603  0.5760  0.0705 -0.1010
  655MOL0     N86379  10.058   9.971   0.637  0.3728 -0.2323  0.2026
  655MOL0     C86380   8.897   9.960   1.022  0.2077 -0.0793 -0.1566
  655MOL0     C86381   8.764   9.918   1.040 -0.0712  1.2864 -0.9906
  655MOL0     C86382   8.327   9.896   1.112  0.1542 -1.1417  0.3829
  655MOL0     C86383   8.260   9.898   1.238  0.1513 -0.2854 -0.2878
  655MOL0     C86384   8.130   9.853   1.250 -0.2466 -0.0065 -0.5111
  655MOL0     C86385   8.067   9.785   1.148  0.4956 -0.6602  0.8066
  655MOL0     O86386   7.945   9.721   1.157 -0.1253  0.6932 -0.5775
  655MOL0     C86387   7.871   9.725   1.274 -0.3612 -1.5347 -1.1974
  655MOL0     C86388   7.727   9.666   1.258 -0.9495  0.0958 -0.0180
  655MOL0     C86389   7.616   9.757   1.204 -0.9277 -0.1083 -0.3237
  655MOL0     C86390   7.545   9.828   1.305  0.9811  0.6332 -0.1261
  655MOL0     C86391   7.622   9.951   1.336  0.3041 -1.2699  0.6127
  655MOL0     C86392   7.698  10.052   1.351 -0.4964 -0.0259 -0.6012
  655MOL0     C86393   8.127   9.784   1.017 -0.0263  1.0579 -0.7682
  655MOL0     C86394   8.251   9.840   1.002 -0.5919 -0.0645 -0.0537
  655MOL0     H86395   8.615  10.090   0.790  0.4787  0.1528  0.1697
  655MOL0     H86396   8.841  10.188   0.785  0.6415  2.5012  2.5054
  655MOL0     H86397   9.164   9.908   0.951 -1.1115 -0.1048 -1.0033
  655MOL0     H86398   9.139  10.015   1.092  2.8841  2.0917  0.5675
  655MOL0     H86399   9.282  10.192   0.968  1.6808  1.5336 -2.9795
  655MOL0     H86400   9.336  10.062   0.861  0.6327  2.0953  0.5300
  655MOL0     H86401   9.396   9.929   1.065 -2.8666 -0.0398 -1.9768
  655MOL0     H86402   9.370  10.066   1.169 -0.1586  1.6393 -0.8395
  655MOL0     H86403   9.525  10.224   1.019  1.8866  0.0770 -0.7264
  655MOL0     H86404   9.586  10.130   1.143  1.2830  2.2778 -0.0505
  655MOL0     H86405   9.544  10.016   0.866 -0.9762 -0.0027  1.2671
  655MOL0     H86406   9.624   9.939   1.000  2.1507 -0.2519  0.0470
  655MOL0     H86407   9.781  10.161   1.012 -0.4146  1.3912 -0.2517
  655MOL0     H86408   9.719  10.208   0.861 -0.1091  1.9131  2.4592
  655MOL0     H86409   9.877   9.934   0.919  1.7577  0.6094  1.4971
  655MOL0     H86410   9.806   9.992   0.764 -0.5518  0.2433 -0.0241
  655MOL0     H86411  10.018  10.141   0.917  1.3384 -0.1407  1.1140
  655MOL0     H86412   9.942  10.180   0.768  0.1151  0.0586  0.3673
  655MOL0     H86413  10.215   9.973   0.922 -0.2403 -2.6519  0.5829
  655MOL0     H86414  10.376   9.787   0.827  1.8620 -2.5693 -0.3958
  655MOL0     H86415  10.452   9.857   0.680  0.4164 -2.2743 -1.1489
  655MOL0     H86416  10.328   9.685   0.536 -2.1827 -2.7686 -0.4844
  655MOL0     H86417  10.249   9.635   0.683 -0.4535  2.9188  1.6903
  655MOL0     H86418  10.559   9.604   0.656  1.5118 -2.0259  1.6801
  655MOL0     H86419  10.463   9.540   0.779  0.2466 -1.9722 -0.3684
  655MOL0     H86420  10.371   9.374   0.612 -1.1386  0.9911 -3.4571
  655MOL0     H86421  10.543   9.381   0.642  0.7216  0.9203 -0.4239
  655MOL0     H86422  10.352   9.259   0.429  1.2282  1.8540  1.9270
  655MOL0     H86423  10.430   9.054   0.293  3.2753 -2.1090 -0.1999
  655MOL0     H86424  11.029   8.934   0.240  1.0953 -0.9970 -2.5375
  655MOL0     H86425  11.143   8.717   0.282 -0.2365 -3.1725  0.3360
  655MOL0     H86426  11.132   8.360   0.379  0.1032 -2.3694 -2.5821
  655MOL0     H86427  11.197   8.521   0.339 -0.5789  0.7444 -2.2388
  655MOL0     H86428  11.280   8.327   0.202  0.4652 -1.3624  0.1210
  655MOL0     H86429  11.197   8.469   0.113 -0.6601  1.1767  2.1836
  655MOL0     H86430  11.163   8.240   0.026  2.2421  0.7162  0.6743
  655MOL0     H86431  11.022   8.333   0.074  1.4620 -0.6654 -3.1196
  655MOL0     H86432  11.109   8.062   0.167  0.3711 -0.0119  1.0301
  655MOL0     H86433  11.055   8.167   0.299  1.0379 -1.4997  0.3448
  655MOL0     H86434  10.875   8.154   0.062  0.1620  1.0860  0.2992
  655MOL0     H86435  10.841   8.209   0.224 -2.7209 -0.6926 -2.1177
  655MOL0     H86436  10.885   7.965   0.307 -2.1752 -1.5657  0.2813
  655MOL0     H86437  10.919   7.920   0.151  1.1407 -1.5136  2.4066
  655MOL0     H86438  10.686   7.892   0.258 -0.3928  4.8264  4.6297
  655MOL0     H86439  10.653   8.049   0.232  0.0941 -1.6819  0.5990
  655MOL0     H86440  10.732   7.859   0.024 -0.4434  1.2240 -1.0419
  655MOL0     H86441  10.692   8.026  -0.020  1.4158 -0.8074 -1.3924
  655MOL0     H86442  10.745   8.535   0.226 -2.4844  1.4813  2.6201
  655MOL0     H86443  10.649   8.745   0.198  0.2967  0.2911  1.4240
  655MOL0     H86444  10.791   9.241   0.208  0.7816 -3.1141  4.0061
  655MOL0     H86445  10.718   9.445   0.356 -0.2047 -1.2727  3.8412
  655MOL0     H86446   8.968   9.910   1.087 -0.1728  1.1569  1.2831
  655MOL0     H86447   8.737   9.845   1.117  0.4542 -0.2848 -2.2499
  655MOL0     H86448   8.313   9.931   1.327  4.0054 -1.9491 -1.7631
  655MOL0     H86449   8.090   9.863   1.350  1.1485  1.4011 -0.0490
  655MOL0     H86450   7.868   9.831   1.299  2.3469 -1.1313 -2.2720
  655MOL0     H86451   7.931   9.672   1.349  1.9972  1.0801 -1.0936
  655MOL0     H86452   7.741   9.575   1.200 -1.0425  0.2082 -0.2188
  655MOL0     H86453   7.684   9.633   1.353  1.9217 -2.2897  0.5721
  655MOL0     H86454   7.545   9.682   1.168  1.7611 -1.7815 -2.5727
  655MOL0     H86455   7.653   9.833   1.134  0.7354 -0.4008  0.1991
  655MOL0     H86456   7.448   9.860   1.267  0.1530  2.2981  3.0298
  655MOL0     H86457   7.534   9.769   1.396 -1.9651 -0.7942 -1.3058
  655MOL0     H86458   7.745  10.148   1.363  1.1531 -1.0101  1.3976
  655MOL0     H86459   8.093   9.720   0.936 -0.8674 -1.7891  1.6298
  655MOL0     H86460   8.294   9.830   0.903  0.5805  2.5384  0.1124
  656MOL0     O86461   9.581   6.387   9.379  0.7402 -0.3393  0.0269
  656MOL0     C86462   9.512   6.458   9.301  0.5030 -0.3788 -0.7523
  656MOL0     O86463   9.559   6.544   9.209 -0.2642 -0.0942 -0.1798
  656MOL0     C86464   9.694   6.546   9.190  0.3622  0.3631  0.3341
  656MOL0     C86465   9.752   6.510   9.063  1.2029 -0.0048  0.5758
  656MOL0     C86466   9.891   6.525   9.034 -0.7238  0.4154 -0.5156
  656MOL0     C86467   9.968   6.571   9.140 -0.1220 -0.1008  0.5343
  656MOL0     O86468  10.095   6.583   9.099 -0.0409 -0.6136 -0.1927
  656MOL0     C86469  10.146   6.716   9.104 -0.3241  0.2926  0.1992
  656MOL0     C86470  10.277   6.709   9.032 -0.4921  0.5982  0.1986
  656MOL0     C86471  10.353   6.836   9.036 -0.4249 -1.6325 -1.0790
  656MOL0     C86472  10.438   6.861   9.165  0.3567  0.1845 -0.3201
  656MOL0     C86473  10.461   7.004   9.188 -0.3144  0.6289 -0.0299
  656MOL0     C86474  10.536   7.039   9.315  0.6717  0.1726 -1.3340
  656MOL0     C86475  10.660   6.955   9.346 -0.2956 -0.0735  0.1009
  656MOL0     C86476  10.736   6.979   9.480 -1.1391 -0.4956 -0.3885
  656MOL0     N86477  10.885   6.960   9.475 -0.3833 -0.1598 -0.4283
  656MOL0     C86478  10.961   6.918   9.583  0.5545 -0.4842 -0.7541
  656MOL0     C86479  11.080   6.884   9.529  0.1590  0.3224  1.1789
  656MOL0     C86480  11.184   6.830   9.617 -0.5205 -0.9415 -0.6799
  656MOL0     C86481  11.274   6.933   9.684 -0.1613  0.4627  0.3203
  656MOL0     C86482  11.396   6.868   9.740  0.0907  0.6038 -0.7761
  656MOL0     C86483  11.372   6.759   9.849 -0.6451 -0.2898  0.9826
  656MOL0     O86484  11.475   6.762   9.943 -0.9010 -0.6001 -0.2987
  656MOL0     C86485  11.470   6.756  10.074  0.4089  0.6432  0.1242
  656MOL0     C86486  11.594   6.743  10.137  0.2632  0.0286  0.3455
  656MOL0     C86487  11.604   6.751  10.271  0.7192  0.1372 -0.2773
  656MOL0     C86488  11.490   6.783  10.352 -0.2616  0.0413  0.4828
  656MOL0     C86489  11.509   6.798  10.498 -0.4651  0.0550 -0.2998
  656MOL0     O86490  11.637   6.782  10.557  0.3172  0.2504 -0.3581
  656MOL0     C86491  11.645   6.820  10.687  0.1592 -0.4593 -0.1451
  656MOL0     C86492  11.702   6.945  10.710  0.3539  0.8149 -0.8746
  656MOL0     C86493  11.705   7.008  10.841 -0.4733 -0.3221  0.0161
  656MOL0     C86494  11.662   6.934  10.946  0.5490  0.4042 -0.2828
  656MOL0     O86495  11.664   7.001  11.072  0.2074 -0.5540 -0.0297
  656MOL0     C86496  11.622   6.924  11.191  0.7414 -0.0564 -0.8085
  656MOL0     C86497  11.484   6.981  11.250  0.1433  1.1517 -0.5268
  656MOL0     C86498  11.376   6.903  11.187  0.5414  1.0538 -0.2127
  656MOL0     C86499  11.246   6.967  11.232 -0.1789 -0.3385 -0.5012
  656MOL0     C86500  11.132   6.920  11.138  0.2185  1.2407  0.7104
  656MOL0     C86501  10.997   6.951  11.194 -0.2847  0.3345  0.5225
  656MOL0     C86502  10.967   6.877  11.321 -0.0564  0.9091 -0.9996
  656MOL0     C86503  10.816   6.861  11.346 -0.5242 -0.6771  0.1172
  656MOL0    Cl86504  10.808   6.758  11.489 -0.2224  0.1341 -0.0539
  656MOL0     C86505  11.609   6.798  10.925 -0.3658 -0.0940 -1.2843
  656MOL0     C86506  11.611   6.745  10.800 -0.5348  0.3028  0.2823
  656MOL0     O86507  11.404   6.825  10.558  0.2281 -0.2998  0.3322
  656MOL0     C86508  11.367   6.815  10.285 -0.3622 -0.3188 -0.2882
  656MOL0     C86509  11.356   6.792  10.151 -0.0671  0.7966  0.7869
  656MOL0     N86510  11.078   6.920   9.393 -0.3242  0.1071 -0.8895
  656MOL0     N86511  10.962   6.971   9.364 -0.1303 -0.1161 -0.1374
  656MOL0     C86512   9.913   6.625   9.258  0.3307  0.4550 -0.5191
  656MOL0     C86513   9.775   6.607   9.286 -0.6627 -0.5584  0.4164
  656MOL0     C86514   9.363   6.427   9.293 -0.5644  0.4805 -0.9022
  656MOL0     C86515   9.309   6.309   9.352  0.4465  0.7550  0.3081
  656MOL0     C86516   9.170   6.292   9.353  0.9878 -0.1305  0.3396
  656MOL0     C86517   9.085   6.383   9.298  0.1409 -0.8893 -0.5678
  656MOL0     O86518   8.955   6.343   9.311  0.5328 -0.4003 -0.3423
  656MOL0     C86519   8.874   6.436   9.384  0.3895  0.6848  0.3289
  656MOL0     C86520   8.886   6.430   9.526  0.4353 -0.2606  1.1357
  656MOL0     C86521   8.965   6.549   9.594 -0.0961  0.1489 -0.1033
  656MOL0     C86522   8.988   6.527   9.748 -0.5777 -0.5835 -0.8771
  656MOL0     C86523   9.106   6.601   9.804 -0.1122  0.5392 -0.3030
  656MOL0     C86524   9.188   6.677   9.852 -1.1712  0.2682 -0.4556
  656MOL0     C86525   9.133   6.500   9.249  0.2099 -0.2023  0.5205
  656MOL0     C86526   9.272   6.521   9.239 -1.3362  0.5018 -0.6728
  656MOL0     H86527   9.684   6.464   8.991 -0.2544  1.4028  1.0077
  656MOL0     H86528   9.932   6.515   8.934 -1.0923  0.4533 -0.6698
  656MOL0     H86529  10.153   6.757   9.206 -1.2532  0.4060  0.2225
  656MOL0     H86530  10.082   6.791   9.057 -0.6657  0.4108  0.8479
  656MOL0     H86531  10.261   6.693   8.925  0.1425 -0.1476  0.2060
  656MOL0     H86532  10.335   6.627   9.075 -1.2826 -0.8335 -1.3685
  656MOL0     H86533  10.269   6.906   9.033  0.7365 -0.2113 -3.0516
  656MOL0     H86534  10.431   6.849   8.960  2.2351 -0.1308  1.7008
  656MOL0     H86535  10.384   6.819   9.251  1.5713 -0.6882  0.0459
  656MOL0     H86536  10.532   6.805   9.162 -0.5134 -1.7209  2.7500
  656MOL0     H86537  10.360   7.044   9.194 -0.7469 -0.6731  2.7458
  656MOL0     H86538  10.524   7.043   9.107  0.2898 -1.3634 -0.5599
  656MOL0     H86539  10.467   7.029   9.399  4.6775 -0.2230  2.2284
  656MOL0     H86540  10.572   7.142   9.317  0.1112  0.3690  0.7387
  656MOL0     H86541  10.633   6.849   9.352 -0.0266 -0.5678 -4.0927
  656MOL0     H86542  10.728   6.963   9.261  0.9784 -0.3350  1.0588
  656MOL0     H86543  10.699   6.914   9.559 -0.2087 -2.1337 -1.2621
  656MOL0     H86544  10.726   7.086   9.504 -3.0643 -0.7462  0.0710
  656MOL0     H86545  10.931   6.906   9.686  1.5205 -0.2723 -0.4364
  656MOL0     H86546  11.245   6.760   9.558  0.3753  0.4220 -1.4371
  656MOL0     H86547  11.136   6.782   9.702  0.4578 -1.5042 -0.4352
  656MOL0     H86548  11.229   6.997   9.760 -0.8122 -0.5077  0.7598
  656MOL0     H86549  11.309   6.999   9.604  3.1929 -2.1133 -0.5707
  656MOL0     H86550  11.440   6.818   9.653 -2.0017  0.3785 -1.7682
  656MOL0     H86551  11.460   6.948   9.776 -0.2810  1.3017 -1.6442
  656MOL0     H86552  11.370   6.661   9.800 -2.1575 -0.0024  0.4113
  656MOL0     H86553  11.267   6.761   9.879 -1.0272 -4.7557  0.5377
  656MOL0     H86554  11.679   6.741  10.069  0.3237  1.1774  0.3781
  656MOL0     H86555  11.700   6.757  10.322 -0.9714  1.6588  3.0140
  656MOL0     H86556  11.740   6.996  10.622  0.5016 -1.9349 -2.5276
  656MOL0     H86557  11.751   7.106  10.850  1.0134 -0.7724 -1.9226
  656MOL0     H86558  11.693   6.947  11.271 -0.8820  1.5609  0.2603
  656MOL0     H86559  11.618   6.816  11.180  0.0933 -0.0451 -0.7755
  656MOL0     H86560  11.476   7.087  11.223  4.8282  1.5780 -1.1241
  656MOL0     H86561  11.477   6.972  11.359 -1.4608 -3.3648 -0.8010
  656MOL0     H86562  11.392   6.797  11.208  1.4304  1.0179 -1.0022
  656MOL0     H86563  11.384   6.932  11.082  0.4465  3.5958  0.4060
  656MOL0     H86564  11.225   6.931  11.334 -1.1688 -2.3535 -1.3652
  656MOL0     H86565  11.252   7.076  11.226 -2.5790 -0.2144 -1.4451
  656MOL0     H86566  11.135   6.811  11.128 -2.6964  0.9956  1.6185
  656MOL0     H86567  11.159   6.969  11.044 -0.4652 -2.1370 -1.3974
  656MOL0     H86568  10.921   6.937  11.116 -0.8718  0.0561  1.1310
  656MOL0     H86569  10.995   7.055  11.228 -1.4937  0.0262  1.4654
  656MOL0     H86570  11.001   6.774  11.328 -2.4341  0.1212  0.0220
  656MOL0     H86571  10.996   6.937  11.408 -1.9458  1.7559 -0.9063
  656MOL0     H86572  10.764   6.807  11.266  0.0232 -1.3096  0.1785
  656MOL0     H86573  10.771   6.960  11.358  2.1296  0.7645 -0.8592
  656MOL0     H86574  11.558   6.735  10.998  0.3172 -0.9291 -1.5157
  656MOL0     H86575  11.581   6.642  10.781 -1.4954  0.8305 -1.2350
  656MOL0     H86576  11.282   6.826  10.352  1.2515  0.2697  1.7890
  656MOL0     H86577  11.262   6.809  10.101  1.1216 -1.1505 -2.4255
  656MOL0     H86578   9.983   6.663   9.332 -1.0182  0.2234  0.9296
  656MOL0     H86579   9.726   6.647   9.375 -1.8679  1.2675 -0.9781
  656MOL0     H86580   9.368   6.234   9.404  0.1811 -0.3909 -0.9939
  656MOL0     H86581   9.125   6.202   9.394 -0.4250  0.3614 -0.0837
  656MOL0     H86582   8.776   6.401   9.351  1.9224 -1.9751 -1.8316
  656MOL0     H86583   8.879   6.539   9.347 -2.5389 -0.0776 -2.6514
  656MOL0     H86584   8.783   6.434   9.563 -0.6077  3.4403 -1.5213
  656MOL0     H86585   8.940   6.338   9.549  1.7745  1.1048  3.9695
  656MOL0     H86586   8.895   6.631   9.571 -4.1440 -3.1111 -0.5826
  656MOL0     H86587   9.066   6.552   9.554  0.5496 -1.8194  1.2585
  656MOL0     H86588   8.886   6.540   9.784 -0.6263 -0.9396 -0.8829
  656MOL0     H86589   9.016   6.422   9.763 -0.3991 -0.6821 -1.8552
  656MOL0     H86590   9.270   6.735   9.890 -0.4409 -0.1874 -1.3063
  656MOL0     H86591   9.073   6.584   9.216  0.3998 -1.4048 -3.4019
  656MOL0     H86592   9.306   6.616   9.199  0.1907 -1.2881 -3.9892
  657MOL0     O86593   8.226   0.614   1.564  0.5215  0.7809  0.1758
  657MOL0     C86594   8.310   0.700   1.576  0.0895 -0.3017  0.1592
  657MOL0     O86595   8.433   0.709   1.519  0.1165  0.3163  0.2055
  657MOL0     C86596   8.461   0.622   1.412 -0.0801 -0.3671  0.9644
  657MOL0     C86597   8.523   0.497   1.453 -0.5236 -0.1259  0.8546
  657MOL0     C86598   8.545   0.386   1.369  0.2422  0.4927 -0.4800
  657MOL0     C86599   8.499   0.405   1.239 -0.0368  0.5062  1.1443
  657MOL0     O86600   8.503   0.291   1.160  0.1024 -0.0462  0.6857
  657MOL0     C86601   8.387   0.239   1.092 -0.8266 -0.3365 -0.0254
  657MOL0     C86602   8.433   0.125   1.001  0.2848 -0.2571 -0.3032
  657MOL0     C86603   8.481   0.009   1.098 -0.4330 -0.0003  0.7015
  657MOL0     C86604   8.510  -0.120   1.025 -0.2483  0.1675  1.2177
  657MOL0     C86605   8.651  -0.134   0.975  0.4432  0.2293  0.1807
  657MOL0     C86606   8.674  -0.246   0.865 -0.4820  0.3646 -0.7347
  657MOL0     C86607   8.704  -0.374   0.945  0.4666  0.5537  0.2465
  657MOL0     C86608   8.702  -0.510   0.873 -0.2474 -0.8190  0.1651
  657MOL0     N86609   8.759  -0.616   0.955 -0.3052 -0.6671  0.1238
  657MOL0     C86610   8.834  -0.721   0.901 -0.2162 -0.0665  0.1967
  657MOL0     C86611   8.856  -0.811   0.998  0.7383  0.8929 -0.9875
  657MOL0     C86612   8.932  -0.939   0.978 -0.3802  0.9343  0.2268
  657MOL0     C86613   9.071  -0.956   1.026 -1.2330 -0.8659  0.5036
  657MOL0     C86614   9.172  -0.844   1.019 -0.2517 -0.3689  1.1728
  657MOL0     C86615   9.302  -0.873   1.098 -0.7287  0.3159  0.4490
  657MOL0     O86616   9.411  -0.779   1.047  0.3951 -0.1270 -0.4015
  657MOL0     C86617   9.539  -0.837   1.038  1.6863 -0.6559  0.1110
  657MOL0     C86618   9.589  -0.897   0.922 -0.4338 -0.2069 -0.1008
  657MOL0     C86619   9.703  -0.978   0.924 -0.1173 -0.9316  0.0351
  657MOL0     C86620   9.789  -0.975   1.034  1.3527 -0.3256 -0.4020
  657MOL0     C86621   9.915  -1.037   1.037 -0.4005  0.3091 -0.0002
  657MOL0     O86622   9.982  -1.047   1.167 -0.3299 -0.1773 -0.2077
  657MOL0     C86623  10.102  -1.113   1.165 -0.9451  0.0122  0.0224
  657MOL0     C86624  10.207  -1.081   1.082  0.2312  0.3407 -0.2540
  657MOL0     C86625  10.329  -1.145   1.082 -0.5171  0.2855  1.5493
  657MOL0     C86626  10.346  -1.267   1.156  0.0105  0.3909  0.1347
  657MOL0     O86627  10.464  -1.336   1.146  0.6388  0.1633  0.0925
  657MOL0     C86628  10.467  -1.474   1.198  0.2685  0.0229  0.1325
  657MOL0     C86629  10.608  -1.514   1.159  0.2037 -0.4146 -0.1835
  657MOL0     C86630  10.637  -1.655   1.189 -0.6607 -0.0269  0.0591
  657MOL0     C86631  10.762  -1.708   1.126  0.5348  0.5089  0.4544
  657MOL0     C86632  10.846  -1.812   1.202  0.3057 -0.3813 -0.3205
  657MOL0     C86633  10.785  -1.953   1.211 -0.5421 -0.2190 -0.5432
  657MOL0     C86634  10.877  -2.059   1.281  1.0115 -0.2553  0.2696
  657MOL0     C86635  10.984  -2.104   1.173  0.3919  0.7441 -0.0625
  657MOL0    Cl86636  11.004  -2.274   1.182 -0.4284  0.1208  0.0750
  657MOL0     C86637  10.244  -1.288   1.247 -0.7526 -0.5569  0.0803
  657MOL0     C86638  10.125  -1.215   1.250 -0.2179 -0.0070  0.3760
  657MOL0     O86639   9.957  -1.087   0.934 -0.5261  0.9801 -0.4972
  657MOL0     C86640   9.734  -0.922   1.160  0.3024 -0.3808  0.5892
  657MOL0     C86641   9.616  -0.849   1.158 -0.1116  0.0412  0.0319
  657MOL0     N86642   8.790  -0.760   1.112 -0.2333 -0.0565 -0.3823
  657MOL0     N86643   8.741  -0.646   1.082  0.2907  0.3895 -0.9737
  657MOL0     C86644   8.447   0.521   1.187  1.3855 -0.0669 -0.3624
  657MOL0     C86645   8.431   0.636   1.278 -0.0981 -0.0504  0.3550
  657MOL0     C86646   8.292   0.795   1.688  0.2529  0.7092 -0.2022
  657MOL0     C86647   8.193   0.779   1.785  0.9225  0.0854  0.3042
  657MOL0     C86648   8.172   0.873   1.891  0.1123  1.0210  0.2382
  657MOL0     C86649   8.245   0.989   1.890 -0.3132 -0.2100 -0.0787
  657MOL0     O86650   8.223   1.066   2.002  0.3002 -0.3217  0.0603
  657MOL0     C86651   8.262   1.209   1.990  0.4266  0.0514  0.8684
  657MOL0     C86652   8.205   1.292   2.107  0.6714  0.2418  0.0189
  657MOL0     C86653   8.248   1.235   2.247  0.1332 -0.2661 -0.4896
  657MOL0     C86654   8.403   1.215   2.279  0.6102 -0.3613 -0.7457
  657MOL0     C86655   8.429   1.151   2.409 -0.2882 -1.0468  1.0462
  657MOL0     C86656   8.447   1.098   2.517 -0.0886 -0.9534 -0.7582
  657MOL0     C86657   8.346   1.017   1.785  1.1019  0.3246 -0.6931
  657MOL0     C86658   8.362   0.920   1.697  0.4930  0.3321  0.3316
  657MOL0     H86659   8.550   0.483   1.558 -0.7075  2.5949  1.3328
  657MOL0     H86660   8.596   0.295   1.398  0.2761 -0.4047 -3.1397
  657MOL0     H86661   8.342   0.314   1.026  1.9524 -1.3881 -3.3790
  657MOL0     H86662   8.317   0.194   1.164  0.6315 -0.6637  1.2362
  657MOL0     H86663   8.512   0.162   0.934 -1.0152  0.0755 -1.6972
  657MOL0     H86664   8.347   0.094   0.942 -1.3244 -1.5583  2.5362
  657MOL0     H86665   8.405  -0.013   1.173 -0.3984  0.0876  0.7624
  657MOL0     H86666   8.575   0.034   1.147  0.7764  1.3680 -2.0746
  657MOL0     H86667   8.500  -0.204   1.095 -3.0278 -0.7378 -0.1147
  657MOL0     H86668   8.431  -0.138   0.951 -1.0863  1.2033  1.8383
  657MOL0     H86669   8.720  -0.154   1.057 -0.0241 -0.9379  0.3125
  657MOL0     H86670   8.680  -0.044   0.918  2.3679  0.2272  1.0891
  657MOL0     H86671   8.761  -0.218   0.804  0.5884  0.0633  0.6224
  657MOL0     H86672   8.579  -0.258   0.812 -2.5429  5.6841  1.1700
  657MOL0     H86673   8.799  -0.360   0.996 -0.1108  0.5422  1.3606
  657MOL0     H86674   8.629  -0.378   1.025  2.4730  2.0116  2.3452
  657MOL0     H86675   8.749  -0.495   0.775 -0.8181  0.1139  0.0216
  657MOL0     H86676   8.603  -0.551   0.855  0.0678 -1.5980  0.1860
  657MOL0     H86677   8.890  -0.724   0.808  0.7836 -0.6439  0.7938
  657MOL0     H86678   8.924  -0.967   0.872 -1.1058 -1.0675  0.7597
  657MOL0     H86679   8.879  -1.023   1.024  1.2160 -0.7700 -0.8927
  657MOL0     H86680   9.120  -1.038   0.973  1.3491  1.3926 -0.8755
  657MOL0     H86681   9.057  -0.986   1.130 -0.2483  0.6442  1.1018
  657MOL0     H86682   9.199  -0.816   0.917 -1.2282  1.6539  1.4226
  657MOL0     H86683   9.126  -0.758   1.068 -0.9698 -0.0531  0.0041
  657MOL0     H86684   9.327  -0.978   1.083  0.7216  0.8511 -1.1911
  657MOL0     H86685   9.289  -0.866   1.206  1.5425 -1.8283  0.9643
  657MOL0     H86686   9.524  -0.881   0.837 -0.7909  1.5467  0.4494
  657MOL0     H86687   9.746  -1.022   0.834  0.3948 -0.7841  0.2047
  657MOL0     H86688  10.208  -0.997   1.013  1.5803 -0.4513 -1.2498
  657MOL0     H86689  10.418  -1.116   1.026  2.2314 -3.5475  3.5040
  657MOL0     H86690  10.388  -1.527   1.143 -0.1209 -2.1832  2.6065
  657MOL0     H86691  10.450  -1.486   1.305 -0.4357 -0.6086 -0.0372
  657MOL0     H86692  10.681  -1.450   1.210 -0.5262 -0.1652  0.5834
  657MOL0     H86693  10.617  -1.505   1.051  0.5626  1.2944 -0.0402
  657MOL0     H86694  10.558  -1.717   1.145  1.1306 -1.0921 -1.8897
  657MOL0     H86695  10.640  -1.666   1.298 -0.4503  3.1389  0.4621
  657MOL0     H86696  10.733  -1.751   1.030 -0.3282 -0.6169  1.1927
  657MOL0     H86697  10.832  -1.627   1.105 -2.3164  2.7920 -1.0907
  657MOL0     H86698  10.865  -1.776   1.303 -1.0126  1.9436 -0.8207
  657MOL0     H86699  10.944  -1.814   1.154  0.0765 -1.5070 -0.7586
  657MOL0     H86700  10.761  -1.975   1.107  1.4330  1.2403 -1.3709
  657MOL0     H86701  10.694  -1.942   1.270  1.3430  4.4499  2.0511
  657MOL0     H86702  10.921  -2.008   1.368 -3.0804  4.4208  0.0665
  657MOL0     H86703  10.814  -2.145   1.303  1.2544 -1.0125 -1.7730
  657MOL0     H86704  11.075  -2.046   1.188 -2.2254  5.0362  1.0153
  657MOL0     H86705  10.944  -2.077   1.074 -0.0855  3.0145  0.6874
  657MOL0     H86706  10.258  -1.365   1.323  3.2634 -0.2546 -0.1214
  657MOL0     H86707  10.043  -1.248   1.312 -0.6929  0.0828 -0.1964
  657MOL0     H86708   9.792  -0.945   1.249 -0.4313 -4.7337  0.1244
  657MOL0     H86709   9.585  -0.818   1.257  0.7084 -2.1026  1.0366
  657MOL0     H86710   8.422   0.515   1.081 -1.1991 -4.5205  0.2339
  657MOL0     H86711   8.383   0.728   1.247 -1.6470 -1.2434 -0.9825
  657MOL0     H86712   8.125   0.694   1.789 -1.6315  1.9482 -0.7233
  657MOL0     H86713   8.096   0.844   1.962 -0.1749 -0.8859 -0.7693
  657MOL0     H86714   8.221   1.247   1.896  1.4730 -0.1198  0.3217
  657MOL0     H86715   8.371   1.219   1.994  0.8787 -2.3144 -2.0013
  657MOL0     H86716   8.236   1.394   2.083  0.1253  0.3648 -0.1789
  657MOL0     H86717   8.096   1.285   2.102  0.6188  1.3388 -0.9351
  657MOL0     H86718   8.198   1.140   2.266 -0.0254  0.5857  4.5567
  657MOL0     H86719   8.210   1.298   2.327 -1.4748 -1.9342  0.1401
  657MOL0     H86720   8.451   1.156   2.201  0.7877  0.8892 -1.6231
  657MOL0     H86721   8.461   1.308   2.270 -0.4620  0.3717 -0.2634
  657MOL0     H86722   8.443   1.051   2.613  0.0927  1.3846  0.4632
  657MOL0     H86723   8.397   1.112   1.771 -0.8404  1.1923 -2.5189
  657MOL0     H86724   8.447   0.935   1.631  0.5705 -4.3159 -1.0176
  658MOL0     O86725   2.236   5.601   0.123  0.5240 -0.3664 -0.6003
  658MOL0     C86726   2.271   5.575   0.007  0.3100  0.2381 -0.3073
  658MOL0     O86727   2.195   5.587  -0.102 -0.3432 -0.5779 -0.2005
  658MOL0     C86728   2.055   5.594  -0.086 -0.0407  0.8660 -0.4210
  658MOL0     C86729   1.981   5.538  -0.197 -0.3796 -1.3375 -0.1034
  658MOL0     C86730   1.843   5.525  -0.179  0.4774 -0.8898 -0.3739
  658MOL0     C86731   1.776   5.566  -0.061  0.9354  1.7204  1.0191
  658MOL0     O86732   1.637   5.545  -0.065  0.3063  0.7232 -0.1192
  658MOL0     C86733   1.562   5.599   0.044  0.4217  0.2995 -0.3658
  658MOL0     C86734   1.413   5.580   0.025  0.5078 -0.6985  0.0147
  658MOL0     C86735   1.335   5.595   0.158  0.4582 -0.5686 -0.1339
  658MOL0     C86736   1.361   5.717   0.249  0.4992  0.2851  0.7512
  658MOL0     C86737   1.303   5.852   0.199  0.4418  0.7714 -0.0086
  658MOL0     C86738   1.153   5.847   0.144  0.0992 -0.0176 -0.9641
  658MOL0     C86739   1.087   5.983   0.132 -0.0425 -0.2318  0.7844
  658MOL0     C86740   1.159   6.083   0.053  0.0298 -0.1051  1.1575
  658MOL0     N86741   1.139   6.067  -0.101  0.3887 -0.4447 -0.8802
  658MOL0     C86742   1.201   5.979  -0.184 -0.4103  0.2607  0.5970
  658MOL0     C86743   1.124   5.985  -0.299 -0.1902  0.2798  0.4536
  658MOL0     C86744   1.161   5.902  -0.426 -0.3293 -0.7407 -0.3742
  658MOL0     C86745   1.076   5.776  -0.428  0.5829  0.5519  0.8639
  658MOL0     C86746   1.098   5.682  -0.313  0.5650 -0.0635 -0.2070
  658MOL0     C86747   1.003   5.559  -0.310 -0.5372 -0.3026 -0.0516
  658MOL0     O86748   0.968   5.506  -0.433  0.0306  0.5558  0.2444
  658MOL0     C86749   0.878   5.408  -0.440 -0.7685  0.4318 -0.5701
  658MOL0     C86750   0.825   5.337  -0.330  0.3073  0.6329  0.4948
  658MOL0     C86751   0.750   5.217  -0.352 -0.7051  0.5743 -0.6980
  658MOL0     C86752   0.726   5.171  -0.480  0.1184 -0.9946 -0.1154
  658MOL0     C86753   0.654   5.045  -0.503 -0.3760 -0.2260  0.2276
  658MOL0     O86754   0.628   5.010  -0.631  0.3915 -0.0842 -0.3773
  658MOL0     C86755   0.609   4.885  -0.670 -0.1573 -0.0358 -1.0458
  658MOL0     C86756   0.479   4.829  -0.658  1.3100  0.6089 -0.7427
  658MOL0     C86757   0.458   4.697  -0.699  0.0754 -0.5454 -0.3783
  658MOL0     C86758   0.560   4.627  -0.767 -0.0639 -0.4938 -0.5833
  658MOL0     O86759   0.536   4.498  -0.816  1.1374 -0.9703 -1.0085
  658MOL0     C86760   0.414   4.470  -0.889 -0.7556 -0.3958 -0.4224
  658MOL0     C86761   0.298   4.400  -0.818 -1.0695  0.1370 -0.4710
  658MOL0     C86762   0.347   4.314  -0.692  0.0760  0.1900 -0.1022
  658MOL0     C86763   0.228   4.273  -0.606  0.0339 -0.7124  1.0137
  658MOL0     C86764   0.276   4.228  -0.468 -0.4130  0.2532 -1.1191
  658MOL0     C86765   0.160   4.172  -0.384  0.4574  1.0874 -0.4513
  658MOL0     C86766   0.205   4.119  -0.242  1.0685 -0.2178  0.1117
  658MOL0     C86767   0.096   4.116  -0.135  0.2406  0.4097  0.7339
  658MOL0    Cl86768   0.011   3.954  -0.135  0.0360  0.2010  0.1856
  658MOL0     C86769   0.690   4.678  -0.783  0.1139  0.1362 -0.1096
  658MOL0     C86770   0.718   4.811  -0.736  0.0967 -0.1732 -0.1065
  658MOL0     O86771   0.625   4.970  -0.409 -0.0187  0.0248 -0.1870
  658MOL0     C86772   0.781   5.246  -0.596 -0.6428  0.7412  0.4935
  658MOL0     C86773   0.846   5.363  -0.569 -0.7758 -0.0737  0.0924
  658MOL0     N86774   1.023   6.074  -0.285 -0.2591 -0.5061 -0.7191
  658MOL0     N86775   1.028   6.127  -0.165  0.6884  0.1647  0.3254
  658MOL0     C86776   1.846   5.628   0.039 -0.6210  0.0120 -0.4896
  658MOL0     C86777   1.984   5.648   0.024 -0.3610 -0.4863  0.3989
  658MOL0     C86778   2.423   5.549  -0.021 -0.3033  0.0072  0.3335
  658MOL0     C86779   2.458   5.482  -0.144 -0.2833 -0.6472  0.6159
  658MOL0     C86780   2.596   5.452  -0.170  0.0633 -1.1606 -1.1638
  658MOL0     C86781   2.698   5.493  -0.078  1.1193  0.5369  0.4088
  658MOL0     O86782   2.830   5.478  -0.111  0.7242  0.2558 -0.4964
  658MOL0     C86783   2.882   5.588  -0.197 -0.0639  0.2920  0.1846
  658MOL0     C86784   2.975   5.667  -0.106 -0.1572 -0.5950 -0.2968
  658MOL0     C86785   3.012   5.806  -0.168 -0.6913  0.4990 -0.3704
  658MOL0     C86786   2.978   5.921  -0.074 -0.4372 -0.1291 -0.0178
  658MOL0     C86787   3.050   6.053  -0.103  1.0396  0.5664 -0.5807
  658MOL0     C86788   3.108   6.151  -0.123  0.3310  0.6854  0.1883
  658MOL0     C86789   2.662   5.565   0.037  0.8300  0.2688  0.2843
  658MOL0     C86790   2.522   5.586   0.066  0.1243 -0.5513  0.1430
  658MOL0     H86791   2.025   5.511  -0.292 -2.9515 -1.8431 -1.2063
  658MOL0     H86792   1.791   5.463  -0.251  1.2266 -3.5288  1.2126
  658MOL0     H86793   1.573   5.707   0.056  0.3104  0.2042  0.6676
  658MOL0     H86794   1.601   5.570   0.142  1.7287  0.4309 -0.8251
  658MOL0     H86795   1.386   5.489  -0.030 -3.8934 -0.1670  0.8795
  658MOL0     H86796   1.367   5.665  -0.027 -0.6581 -0.7092  0.9805
  658MOL0     H86797   1.361   5.512   0.225 -2.0935  0.3506  2.2166
  658MOL0     H86798   1.228   5.595   0.136  0.4547 -0.5582 -0.1157
  658MOL0     H86799   1.309   5.700   0.344 -1.6622  1.6670 -0.0893
  658MOL0     H86800   1.469   5.733   0.256  0.2298  2.4573  0.6664
  658MOL0     H86801   1.369   5.890   0.120  2.5136 -1.0697  0.7471
  658MOL0     H86802   1.305   5.925   0.280  3.6827  2.3909 -1.3586
  658MOL0     H86803   1.096   5.804   0.226  1.3544  0.6169  0.2770
  658MOL0     H86804   1.140   5.780   0.059  0.3973  1.3551 -2.1366
  658MOL0     H86805   0.989   5.966   0.086  0.3518  0.2698 -0.2948
  658MOL0     H86806   1.069   6.023   0.232  0.6944  0.1033  0.7932
  658MOL0     H86807   1.268   6.087   0.058  0.3147 -0.3296 -2.2131
  658MOL0     H86808   1.138   6.187   0.076  1.6735  0.4498  0.2907
  658MOL0     H86809   1.293   5.924  -0.169  1.6133  2.8060 -1.4635
  658MOL0     H86810   1.269   5.891  -0.438 -0.1036 -1.3083  1.7389
  658MOL0     H86811   1.120   5.955  -0.512 -2.2039 -0.9184  0.3598
  658MOL0     H86812   1.106   5.720  -0.517 -2.8802  0.2411 -0.2347
  658MOL0     H86813   0.970   5.798  -0.442  1.1225  2.4925 -0.7096
  658MOL0     H86814   1.203   5.667  -0.283  0.5831 -0.1112 -0.2933
  658MOL0     H86815   1.064   5.736  -0.225  0.1028 -4.0897  2.3237
  658MOL0     H86816   0.912   5.581  -0.255 -0.3128  0.1701  0.1354
  658MOL0     H86817   1.059   5.481  -0.257  0.0266  1.2375  1.7007
  658MOL0     H86818   0.847   5.376  -0.232 -1.2703  0.1036  1.0845
  658MOL0     H86819   0.705   5.171  -0.265  0.5647  1.9583  0.7441
  658MOL0     H86820   0.402   4.891  -0.613 -0.1109 -0.3235 -1.8123
  658MOL0     H86821   0.355   4.663  -0.693  0.8666 -2.8036  3.4187
  658MOL0     H86822   0.449   4.420  -0.979  1.5202  0.2284  0.0677
  658MOL0     H86823   0.382   4.566  -0.931  2.6015  0.6289 -0.9066
  658MOL0     H86824   0.255   4.337  -0.897  2.3981  1.4437 -3.7344
  658MOL0     H86825   0.227   4.475  -0.781 -0.7562 -1.1167  2.9504
  658MOL0     H86826   0.414   4.373  -0.629 -0.0759  1.3033 -0.9492
  658MOL0     H86827   0.393   4.218  -0.718  2.2843  0.6238  1.9053
  658MOL0     H86828   0.154   4.352  -0.588 -0.7163  0.0334 -3.9159
  658MOL0     H86829   0.176   4.195  -0.663  1.6431 -2.2025  1.5027
  658MOL0     H86830   0.340   4.304  -0.422 -1.9946  1.4725 -0.8366
  658MOL0     H86831   0.353   4.152  -0.488 -0.8536 -0.5028  0.0114
  658MOL0     H86832   0.115   4.084  -0.431  0.0332  0.2060  1.4921
  658MOL0     H86833   0.086   4.252  -0.374  0.0796  0.6409  0.4178
  658MOL0     H86834   0.252   4.021  -0.261  0.0601 -0.4640 -1.2985
  658MOL0     H86835   0.274   4.190  -0.195  1.9070 -1.6630  1.1591
  658MOL0     H86836   0.022   4.196  -0.151  0.4246  0.7507  1.5377
  658MOL0     H86837   0.136   4.138  -0.036 -0.8010  1.2930  0.9843
  658MOL0     H86838   0.771   4.632  -0.840  1.7769  3.9711 -1.1923
  658MOL0     H86839   0.814   4.859  -0.749  0.2559 -0.2670  0.6881
  658MOL0     H86840   0.770   5.218  -0.700  1.7257  2.0073 -0.1734
  658MOL0     H86841   0.880   5.430  -0.648 -1.2788  2.2209  1.7072
  658MOL0     H86842   1.806   5.657   0.136  2.2361 -1.7039  1.3370
  658MOL0     H86843   2.031   5.706   0.103 -1.7923  2.0678 -0.4956
  658MOL0     H86844   2.398   5.442  -0.226  1.2960 -3.3475  0.6640
  658MOL0     H86845   2.632   5.389  -0.250  0.2896  0.2553 -2.2103
  658MOL0     H86846   2.798   5.644  -0.238  0.7860  1.9632  0.6618
  658MOL0     H86847   2.948   5.561  -0.280  0.8102 -2.2226  1.5766
  658MOL0     H86848   2.925   5.676  -0.010 -0.1218  3.4155 -0.4949
  658MOL0     H86849   3.066   5.610  -0.084  1.6295  1.7012 -1.3783
  658MOL0     H86850   2.946   5.839  -0.249  1.8711  1.9763 -1.9629
  658MOL0     H86851   3.112   5.799  -0.211  0.1881 -1.4475  1.7785
  658MOL0     H86852   2.872   5.946  -0.079 -0.7790 -1.4514  0.1409
  658MOL0     H86853   3.000   5.894   0.030 -1.5635  1.7628  0.7548
  658MOL0     H86854   3.178   6.226  -0.154 -1.9737  2.1751 -1.8010
  658MOL0     H86855   2.739   5.599   0.106  1.9187 -0.2456 -0.6563
  658MOL0     H86856   2.485   5.646   0.148 -1.1236  2.1490 -2.2314
  659MOL0     O86857   5.348   4.763   0.231  0.3341 -1.2626  0.9551
  659MOL0     C86858   5.462   4.752   0.264  1.1099 -0.1350  0.1013
  659MOL0     O86859   5.518   4.631   0.303 -0.0068 -0.6678  0.2457
  659MOL0     C86860   5.477   4.511   0.268 -0.5316 -0.4101 -0.3202
  659MOL0     C86861   5.405   4.482   0.149  0.4448 -0.4848 -1.2090
  659MOL0     C86862   5.371   4.355   0.119 -0.3287  0.8817 -0.8303
  659MOL0     C86863   5.404   4.250   0.209 -0.4018 -0.6992  0.8441
  659MOL0     O86864   5.379   4.116   0.178  0.3178 -0.6929 -0.0602
  659MOL0     C86865   5.282   4.052   0.271 -0.4931 -0.9182  0.3865
  659MOL0     C86866   5.273   3.909   0.209 -0.0090  0.6733  0.9250
  659MOL0     C86867   5.170   3.817   0.283 -0.2899 -0.1828  0.6569
  659MOL0     C86868   5.182   3.787   0.430  0.7168 -0.2435 -0.4772
  659MOL0     C86869   5.072   3.693   0.476 -0.8971 -0.4331 -0.3824
  659MOL0     C86870   5.068   3.675   0.632 -0.0673  0.3457  0.0914
  659MOL0     C86871   4.953   3.566   0.647 -0.9363  0.4840  0.2253
  659MOL0     C86872   4.923   3.523   0.791 -0.1014 -0.1279  0.5107
  659MOL0     N86873   4.891   3.632   0.881  0.2430  0.2740 -0.2394
  659MOL0     C86874   4.964   3.697   0.973 -0.2219 -0.6247  0.1381
  659MOL0     C86875   4.874   3.757   1.054  0.2275 -0.8704 -0.4698
  659MOL0     C86876   4.905   3.849   1.166  0.1889 -0.1001 -0.0190
  659MOL0     C86877   5.030   3.814   1.247  0.3186  0.4546  0.5720
  659MOL0     C86878   4.998   3.704   1.348 -0.1192 -0.3697  0.0591
  659MOL0     C86879   5.107   3.685   1.450 -0.3508  0.7913  0.4242
  659MOL0     O86880   5.213   3.629   1.388  0.0637 -0.4400 -0.2146
  659MOL0     C86881   5.329   3.644   1.457  0.5419 -0.2828 -0.7530
  659MOL0     C86882   5.431   3.702   1.389 -0.2269 -0.7797 -0.7628
  659MOL0     C86883   5.556   3.701   1.451  0.3272  0.4172 -1.2883
  659MOL0     C86884   5.574   3.668   1.583 -0.1142  0.1457  0.0893
  659MOL0     C86885   5.704   3.672   1.640  0.0768  0.1582 -0.5946
  659MOL0     O86886   5.811   3.678   1.549  0.8909  0.0380 -0.4188
  659MOL0     C86887   5.935   3.690   1.611  0.2123 -0.4457  0.7973
  659MOL0     C86888   5.997   3.809   1.643  1.3998  0.6822 -0.4200
  659MOL0     C86889   6.121   3.806   1.695 -0.6523  0.3170  0.7094
  659MOL0     C86890   6.199   3.693   1.726  1.0308  0.5773  0.5474
  659MOL0     O86891   6.331   3.701   1.760  0.4901 -0.8194 -0.6404
  659MOL0     C86892   6.378   3.613   1.857 -0.4268  1.2648 -0.1170
  659MOL0     C86893   6.340   3.686   1.980 -0.0717  1.1762 -0.5949
  659MOL0     C86894   6.369   3.599   2.111 -0.4784  0.1905  0.7096
  659MOL0     C86895   6.388   3.438   2.093  0.5702  0.5543 -0.3464
  659MOL0     C86896   6.480   3.380   2.197  0.5823 -0.6491  0.5015
  659MOL0     C86897   6.412   3.387   2.337  0.3912 -0.0483  0.0798
  659MOL0     C86898   6.530   3.336   2.435  0.4441  0.4753 -0.2132
  659MOL0     C86899   6.488   3.350   2.578 -0.4151  0.3324 -0.9867
  659MOL0    Cl86900   6.643   3.317   2.678  0.5789  0.3606  0.2445
  659MOL0     C86901   6.130   3.570   1.712  0.4066 -0.7176 -0.1072
  659MOL0     C86902   5.996   3.572   1.661  0.0059  0.8004  0.6525
  659MOL0     O86903   5.716   3.656   1.762 -0.1716  0.3137  0.3135
  659MOL0     C86904   5.466   3.630   1.660 -0.6026 -0.0745 -0.0373
  659MOL0     C86905   5.346   3.613   1.596  1.0180 -0.1657  0.8684
  659MOL0     N86906   4.748   3.743   0.994  0.1169  0.1941 -0.2820
  659MOL0     N86907   4.759   3.676   0.892 -0.2225 -0.1821  0.0029
  659MOL0     C86908   5.484   4.277   0.316  0.5663 -0.6143  0.4395
  659MOL0     C86909   5.524   4.406   0.346  1.0463  0.1203 -0.7799
  659MOL0     C86910   5.525   4.881   0.292 -0.8661 -1.0164  0.5312
  659MOL0     C86911   5.453   5.002   0.301 -0.2729 -0.8212 -0.2539
  659MOL0     C86912   5.517   5.125   0.345  0.3804 -0.6331  0.1536
  659MOL0     C86913   5.651   5.120   0.384 -0.6986 -0.3371 -1.1564
  659MOL0     O86914   5.717   5.234   0.437  0.3160  0.2418 -0.2830
  659MOL0     C86915   5.865   5.223   0.466 -0.1204  0.0597  0.9888
  659MOL0     C86916   5.913   5.355   0.531 -0.7641  0.3707  0.7446
  659MOL0     C86917   5.855   5.358   0.676 -0.2004 -1.4633  0.5534
  659MOL0     C86918   5.936   5.433   0.778 -1.8911  0.1062  0.0349
  659MOL0     C86919   6.062   5.363   0.814  1.3145 -0.9629  0.0800
  659MOL0     C86920   6.155   5.304   0.858 -0.2299  0.3085  0.0377
  659MOL0     C86921   5.721   5.003   0.353  0.7510  0.2881 -0.7637
  659MOL0     C86922   5.663   4.882   0.317 -0.5021 -0.4414 -0.6939
  659MOL0     H86923   5.377   4.559   0.077 -0.2509 -1.0374 -1.5455
  659MOL0     H86924   5.332   4.328   0.022 -0.6696  0.3226 -0.5428
  659MOL0     H86925   5.190   4.110   0.277 -1.1709 -2.1075  2.7652
  659MOL0     H86926   5.332   4.049   0.369  0.2659 -2.1602 -0.0173
  659MOL0     H86927   5.367   3.853   0.211 -0.5027 -0.4640 -2.0753
  659MOL0     H86928   5.247   3.924   0.104  0.4353 -1.3631  0.4767
  659MOL0     H86929   5.163   3.715   0.244 -2.1121 -1.2694  3.4764
  659MOL0     H86930   5.074   3.866   0.264 -1.7290 -2.6755  1.0488
  659MOL0     H86931   5.280   3.757   0.468 -0.5902 -0.8520  2.6306
  659MOL0     H86932   5.159   3.876   0.490 -1.6170 -0.6299 -0.7025
  659MOL0     H86933   5.093   3.599   0.424  3.8627  1.1465 -1.8780
  659MOL0     H86934   4.974   3.735   0.452 -0.3724  2.1200  1.4823
  659MOL0     H86935   5.043   3.770   0.680 -1.6996 -0.6658  1.3470
  659MOL0     H86936   5.161   3.634   0.671 -0.5788  0.2777  1.2895
  659MOL0     H86937   4.860   3.614   0.612 -3.2564 -2.3166  2.0426
  659MOL0     H86938   4.967   3.472   0.593 -3.9464  0.4101 -0.6136
  659MOL0     H86939   5.000   3.472   0.850 -2.7420 -0.0747  4.4360
  659MOL0     H86940   4.847   3.445   0.801  1.4473 -1.6473  0.7924
  659MOL0     H86941   5.071   3.678   0.975 -0.2904 -0.9516  1.8890
  659MOL0     H86942   4.822   3.859   1.237  0.1823 -0.2955  0.0011
  659MOL0     H86943   4.926   3.947   1.120 -1.7747  0.2132 -0.3388
  659MOL0     H86944   5.076   3.896   1.303  1.6943 -0.8605  1.4423
  659MOL0     H86945   5.103   3.783   1.172  0.6299  1.9000  0.2403
  659MOL0     H86946   4.910   3.730   1.408  1.2238 -0.0373  1.9376
  659MOL0     H86947   4.973   3.610   1.298  0.3196 -0.9836  0.9883
  659MOL0     H86948   5.071   3.618   1.529 -3.0023  0.8974 -0.6017
  659MOL0     H86949   5.125   3.781   1.499  0.7584 -0.1103  1.8642
  659MOL0     H86950   5.405   3.744   1.293 -3.2151  0.1636  0.3303
  659MOL0     H86951   5.650   3.736   1.410  1.0477  0.1130  0.0269
  659MOL0     H86952   5.962   3.911   1.633 -3.1214 -0.6500 -0.7148
  659MOL0     H86953   6.179   3.896   1.710  0.9688 -0.1694 -1.9732
  659MOL0     H86954   6.485   3.602   1.837 -0.2605  0.7656  1.0033
  659MOL0     H86955   6.339   3.512   1.844  0.9052  0.6589  0.4727
  659MOL0     H86956   6.232   3.701   1.988 -0.9894 -3.4195 -1.2708
  659MOL0     H86957   6.407   3.772   1.972  1.2868  0.6030  2.9191
  659MOL0     H86958   6.282   3.603   2.178 -1.0577 -0.4360  0.0103
  659MOL0     H86959   6.457   3.640   2.161  1.8266 -1.1901 -1.9472
  659MOL0     H86960   6.293   3.384   2.087  3.2227 -4.6436 -0.9952
  659MOL0     H86961   6.452   3.415   2.008  1.2268  1.1591 -0.0257
  659MOL0     H86962   6.585   3.408   2.188  0.2934  0.7281  1.1401
  659MOL0     H86963   6.486   3.272   2.182 -2.9973 -0.6060 -3.2678
  659MOL0     H86964   6.326   3.320   2.346  0.7977 -0.6040 -0.1107
  659MOL0     H86965   6.372   3.486   2.362 -0.6957 -0.1701 -1.0577
  659MOL0     H86966   6.539   3.228   2.419  0.4153 -0.0459  2.6994
  659MOL0     H86967   6.620   3.393   2.409  1.3738 -0.2588  1.2307
  659MOL0     H86968   6.417   3.277   2.618  1.7237 -0.1448  2.3579
  659MOL0     H86969   6.454   3.452   2.602  0.8329  0.3237  1.0732
  659MOL0     H86970   6.172   3.472   1.734  1.3671 -0.3967 -0.4857
  659MOL0     H86971   5.949   3.475   1.649  0.1040  0.9422 -1.0155
  659MOL0     H86972   5.470   3.619   1.768  3.5095 -0.7525 -0.1185
  659MOL0     H86973   5.266   3.577   1.660 -0.7124 -1.8266 -1.9846
  659MOL0     H86974   5.513   4.197   0.383 -4.0220 -0.4736  3.0440
  659MOL0     H86975   5.579   4.427   0.438 -0.8524  1.3320  0.1528
  659MOL0     H86976   5.349   5.014   0.273  0.0097 -2.0779 -1.9973
  659MOL0     H86977   5.454   5.212   0.360  1.0895 -0.1681  0.4841
  659MOL0     H86978   5.900   5.203   0.364 -2.0797 -1.1630  0.5161
  659MOL0     H86979   5.902   5.140   0.527  0.5588 -1.0186 -0.8071
  659MOL0     H86980   6.022   5.363   0.527 -0.8561  1.5528 -1.4520
  659MOL0     H86981   5.884   5.445   0.476 -3.1948  1.0233  2.8616
  659MOL0     H86982   5.831   5.257   0.712  0.9510 -1.5785  1.0714
  659MOL0     H86983   5.761   5.412   0.675  0.9858  0.7093 -0.9726
  659MOL0     H86984   5.958   5.535   0.744 -2.1899  2.3092  5.3309
  659MOL0     H86985   5.877   5.430   0.870  0.8971 -4.6129  2.0548
  659MOL0     H86986   6.237   5.245   0.892 -0.0843  0.5301  0.0678
  659MOL0     H86987   5.828   4.991   0.367  0.4826  1.0664  2.7225
  659MOL0     H86988   5.730   4.797   0.310  3.0159  1.9807  1.0401
  660MOL0     O86989   3.232   8.930   4.810 -0.2017  0.4219  0.2561
  660MOL0     C86990   3.328   8.981   4.856 -0.5188  0.3488 -0.5394
  660MOL0     O86991   3.370   9.125   4.851  0.4865  0.8204 -0.9218
  660MOL0     C86992   3.310   9.208   4.769 -0.6097  0.3941 -0.2710
  660MOL0     C86993   3.298   9.181   4.634  0.5720 -0.4036 -0.2243
  660MOL0     C86994   3.226   9.274   4.554 -0.1071 -0.3338 -0.3406
  660MOL0     C86995   3.175   9.396   4.611  0.3611 -0.2341  0.0757
  660MOL0     O86996   3.110   9.495   4.541  1.1029  0.0880  0.0175
  660MOL0     C86997   3.160   9.552   4.416  0.7165  0.3851  1.0051
  660MOL0     C86998   3.083   9.684   4.399 -0.1551 -0.3759 -0.1188
  660MOL0     C86999   3.136   9.785   4.512 -0.1247  0.0258  1.3108
  660MOL0     C87000   3.116   9.938   4.485 -0.7099  0.4723  0.4194
  660MOL0     C87001   2.964   9.965   4.480  0.0293 -0.9616 -0.2440
  660MOL0     C87002   2.955  10.118   4.437  0.8864  0.4068 -0.4700
  660MOL0     C87003   2.805  10.164   4.443 -0.2964 -0.3974  0.5488
  660MOL0     C87004   2.793  10.318   4.419  0.3623  0.1625  0.0019
  660MOL0     N87005   2.648  10.350   4.425 -0.1188 -0.1756  0.4442
  660MOL0     C87006   2.546  10.318   4.330  0.3427 -0.1728  0.1401
  660MOL0     C87007   2.430  10.361   4.388 -0.2013  0.7705  0.0523
  660MOL0     C87008   2.287  10.370   4.343  0.0706 -0.0869  0.9818
  660MOL0     C87009   2.183  10.297   4.421 -0.1698  0.4719  0.4215
  660MOL0     C87010   2.069  10.245   4.318  0.1604 -0.6527 -0.8217
  660MOL0     C87011   1.987  10.368   4.270 -0.6225 -0.5346  0.1265
  660MOL0     O87012   1.884  10.303   4.188  0.5447  0.2101 -0.4424
  660MOL0     C87013   1.772  10.372   4.152  1.0713  0.2313 -0.2451
  660MOL0     C87014   1.702  10.318   4.043  0.4960  0.3218 -0.3848
  660MOL0     C87015   1.574  10.370   4.009 -0.4182 -0.1849  0.5965
  660MOL0     C87016   1.533  10.495   4.069 -0.7828 -0.6285  0.7084
  660MOL0     C87017   1.407  10.567   4.029  0.4982 -0.8287 -0.2219
  660MOL0     O87018   1.332  10.500   3.933 -0.2401  0.3226 -0.1766
  660MOL0     C87019   1.219  10.561   3.871 -0.5293 -0.8179 -0.1182
  660MOL0     C87020   1.204  10.562   3.736  0.9500  0.1382  0.1873
  660MOL0     C87021   1.096  10.630   3.671  0.9890  1.1465 -0.6456
  660MOL0     C87022   1.001  10.705   3.747  0.6049  0.5056 -0.6626
  660MOL0     O87023   0.885  10.771   3.699  0.0709 -0.4260  0.1384
  660MOL0     C87024   0.829  10.728   3.575 -0.2726  0.3109 -0.9613
  660MOL0     C87025   0.749  10.594   3.601 -0.3476  0.5828  0.2657
  660MOL0     C87026   0.742  10.519   3.470 -1.2394  0.3857 -0.0004
  660MOL0     C87027   0.682  10.372   3.483 -0.1223 -0.1802  0.5288
  660MOL0     C87028   0.728  10.269   3.371  0.5432  0.1430  0.7608
  660MOL0     C87029   0.793  10.141   3.418 -0.0752 -0.2892  0.2579
  660MOL0     C87030   0.785  10.026   3.309  0.0131 -0.1861  0.6103
  660MOL0     C87031   0.804   9.886   3.371 -0.4060  0.3005  0.1882
  660MOL0    Cl87032   0.633   9.832   3.429 -0.2108 -0.3572 -0.6504
  660MOL0     C87033   1.021  10.704   3.882  0.4720  0.0522  1.1960
  660MOL0     C87034   1.130  10.640   3.944  0.2981 -0.0216  0.3418
  660MOL0     O87035   1.379  10.676   4.075  0.0572 -0.8756 -0.8720
  660MOL0     C87036   1.611  10.553   4.167 -0.2284  0.2128  0.2962
  660MOL0     C87037   1.727  10.493   4.212 -0.2472  0.4962  0.6417
  660MOL0     N87038   2.458  10.398   4.511  0.6774  0.2741 -0.3449
  660MOL0     N87039   2.589  10.390   4.542  0.5960  0.1216  0.3721
  660MOL0     C87040   3.193   9.429   4.746  0.3432  1.3794  0.3239
  660MOL0     C87041   3.255   9.328   4.829  0.1709 -0.6791  0.2865
  660MOL0     C87042   3.425   8.880   4.921  0.3932 -0.7855 -0.0838
  660MOL0     C87043   3.561   8.909   4.954  0.2486 -0.9708 -0.4817
  660MOL0     C87044   3.643   8.803   5.003  0.4558  0.1034 -0.3084
  660MOL0     C87045   3.600   8.672   5.024  0.3947 -0.6767 -0.5150
  660MOL0     O87046   3.669   8.576   5.098  0.6765 -0.6134  0.1684
  660MOL0     C87047   3.804   8.586   5.145  0.7318  0.0765  0.7494
  660MOL0     C87048   3.896   8.538   5.029  0.4693  0.4082 -0.3309
  660MOL0     C87049   4.044   8.559   5.053 -0.1320 -0.2893 -0.5058
  660MOL0     C87050   4.134   8.431   5.084  0.2611 -0.0104 -0.3064
  660MOL0     C87051   4.093   8.369   5.211  0.1257 -0.0212  0.8709
  660MOL0     C87052   4.066   8.328   5.321  0.3110 -0.7838 -0.8178
  660MOL0     C87053   3.463   8.644   4.988 -0.1838  0.0130  0.2395
  660MOL0     C87054   3.381   8.742   4.924  0.6027 -0.9921 -0.3406
  660MOL0     H87055   3.335   9.093   4.582  0.3411 -0.4857 -0.2555
  660MOL0     H87056   3.217   9.258   4.447  1.4880  0.2502 -0.5948
  660MOL0     H87057   3.146   9.480   4.334  1.3605 -1.5497  2.5072
  660MOL0     H87058   3.268   9.564   4.429  0.9903 -0.6949 -0.0990
  660MOL0     H87059   2.974   9.690   4.394 -0.2545 -2.5642 -2.1780
  660MOL0     H87060   3.125   9.721   4.305  1.2603 -1.0985  0.1903
  660MOL0     H87061   3.244   9.775   4.520 -0.0517 -2.4952 -1.2521
  660MOL0     H87062   3.091   9.758   4.608  1.3644 -0.5174  1.8705
  660MOL0     H87063   3.174   9.984   4.566  0.3191 -1.4407  0.8589
  660MOL0     H87064   3.173   9.971   4.398  0.5955 -2.3093  0.0971
  660MOL0     H87065   2.909   9.947   4.573 -0.4553  0.9997 -0.0979
  660MOL0     H87066   2.909   9.920   4.397 -0.4567  2.1094 -1.7479
  660MOL0     H87067   2.998  10.143   4.339  1.5514 -0.7357 -0.4799
  660MOL0     H87068   3.009  10.179   4.510 -0.7594  1.4477 -0.0682
  660MOL0     H87069   2.748  10.129   4.357 -2.4657 -1.9896  2.5048
  660MOL0     H87070   2.749  10.139   4.534 -0.3034 -2.4264  0.0131
  660MOL0     H87071   2.835  10.349   4.324 -0.0197  4.1310  0.9607
  660MOL0     H87072   2.833  10.384   4.497 -1.5523  1.4648 -0.0397
  660MOL0     H87073   2.566  10.255   4.244  1.6362 -1.6766  1.4856
  660MOL0     H87074   2.288  10.340   4.238  0.1372  1.8868  0.3802
  660MOL0     H87075   2.250  10.473   4.343 -1.8816 -0.7228  1.9232
  660MOL0     H87076   2.144  10.357   4.504 -2.1485 -2.0430  1.4389
  660MOL0     H87077   2.224  10.214   4.479 -0.2718 -0.8503 -1.3142
  660MOL0     H87078   2.110  10.193   4.231 -0.8251 -2.6994 -0.1149
  660MOL0     H87079   1.996  10.180   4.367 -3.3001  3.5316  0.2345
  660MOL0     H87080   2.056  10.431   4.213 -2.5203 -1.1854 -3.1440
  660MOL0     H87081   1.951  10.414   4.363 -2.4349  1.3424 -1.4163
  660MOL0     H87082   1.736  10.229   3.991 -2.8826 -0.0067 -2.3343
  660MOL0     H87083   1.522  10.321   3.928  2.0293 -3.7099  0.9540
  660MOL0     H87084   1.273  10.502   3.677  1.7298  0.2065  1.0178
  660MOL0     H87085   1.079  10.630   3.564 -0.6885 -3.7262 -0.6204
  660MOL0     H87086   0.915  10.725   3.508  0.2835  2.8114 -0.4506
  660MOL0     H87087   0.779  10.818   3.539  0.4807  1.0008 -0.3358
  660MOL0     H87088   0.648  10.614   3.637 -1.6949  3.0579 -4.1240
  660MOL0     H87089   0.802  10.543   3.683 -2.9981 -1.8279  0.6510
  660MOL0     H87090   0.835  10.513   3.414 -0.9403  0.2090  0.5171
  660MOL0     H87091   0.671  10.574   3.407 -2.4298 -2.4937 -1.3626
  660MOL0     H87092   0.733  10.347   3.577  0.7565  0.1521  0.1552
  660MOL0     H87093   0.574  10.370   3.493 -0.7038 -1.4836 -3.8512
  660MOL0     H87094   0.801  10.321   3.308  3.6989 -2.9848  1.5343
  660MOL0     H87095   0.644  10.243   3.306  3.0227  1.3082 -3.2786
  660MOL0     H87096   0.741  10.099   3.504 -1.4512 -1.3354 -1.0454
  660MOL0     H87097   0.894  10.171   3.446  0.0559 -0.0564 -0.4412
  660MOL0     H87098   0.692  10.019   3.252 -0.7222  0.3677  1.7098
  660MOL0     H87099   0.861  10.049   3.233 -1.0851  2.6066  0.2204
  660MOL0     H87100   0.888   9.890   3.440 -0.2775  0.1311  0.0434
  660MOL0     H87101   0.825   9.825   3.282 -2.5156 -2.7304  1.5863
  660MOL0     H87102   0.947  10.757   3.940  0.0638 -0.3047  1.0082
  660MOL0     H87103   1.138  10.666   4.049  2.9170  1.7511 -0.1885
  660MOL0     H87104   1.583  10.636   4.231  4.0278 -0.0564  2.8899
  660MOL0     H87105   1.788  10.536   4.291  2.6521  0.9273 -1.6391
  660MOL0     H87106   3.147   9.513   4.796 -3.0535  1.1208 -2.0402
  660MOL0     H87107   3.288   9.346   4.931  3.9192 -0.7875 -0.7466
  660MOL0     H87108   3.612   9.005   4.947  0.5851 -1.2195 -5.3311
  660MOL0     H87109   3.744   8.824   5.036  1.3488 -4.4314  0.3897
  660MOL0     H87110   3.794   8.511   5.224 -4.8831  0.8229  1.1440
  660MOL0     H87111   3.832   8.682   5.188 -2.7911 -0.6478  5.4246
  660MOL0     H87112   3.868   8.433   5.015 -3.0000  0.7018  2.8125
  660MOL0     H87113   3.869   8.591   4.937 -0.5143 -0.5274 -0.6041
  660MOL0     H87114   4.041   8.619   5.144 -1.8606  0.2549 -0.8818
  660MOL0     H87115   4.086   8.610   4.966 -3.7921  3.4650 -0.3815
  660MOL0     H87116   4.118   8.368   4.996  0.6456 -0.8310  0.1897
  660MOL0     H87117   4.242   8.448   5.087  0.3321 -0.6037  1.6986
  660MOL0     H87118   4.056   8.283   5.418  2.6049  1.9355  0.8427
  660MOL0     H87119   3.432   8.548   5.028  0.1698  0.1696  0.9175
  660MOL0     H87120   3.280   8.709   4.902  0.6941 -2.9798  1.8425
  661MOL0     O87121  10.775   8.376   4.019 -0.0498  0.6304  0.2290
  661MOL0     C87122  10.717   8.269   4.003 -0.9632  0.0157  0.0284
  661MOL0     O87123  10.779   8.143   4.016 -0.7846 -0.4462 -0.3286
  661MOL0     C87124  10.903   8.148   4.075 -0.4498  0.0633 -0.1675
  661MOL0     C87125  10.915   8.157   4.206 -0.2863 -1.4036 -0.4892
  661MOL0     C87126  11.043   8.161   4.269  0.8645  0.0496 -0.3761
  661MOL0     C87127  11.160   8.148   4.194  0.8817 -0.1540 -0.8389
  661MOL0     O87128  11.282   8.136   4.247 -0.1208  0.7162 -0.3612
  661MOL0     C87129  11.346   8.249   4.313 -0.2759 -0.0957 -1.4609
  661MOL0     C87130  11.433   8.333   4.223  0.2444 -0.4201 -0.6029
  661MOL0     C87131  11.547   8.257   4.165 -0.2239  0.5723 -0.4316
  661MOL0     C87132  11.616   8.158   4.261  0.5360  0.1647  0.0426
  661MOL0     C87133  11.749   8.111   4.204 -1.3805  0.0567 -0.0869
  661MOL0     C87134  11.818   8.002   4.285 -1.2209  0.1045  0.9374
  661MOL0     C87135  11.961   7.981   4.229 -0.1671  0.7430  0.2575
  661MOL0     C87136  12.047   7.935   4.346 -0.4559 -1.3788 -0.4274
  661MOL0     N87137  12.188   7.935   4.297  0.7352  0.4716  0.3372
  661MOL0     C87138  12.238   7.854   4.197 -1.4399  0.2754  0.4698
  661MOL0     C87139  12.375   7.874   4.204  0.0648 -0.7162  0.4992
  661MOL0     C87140  12.480   7.814   4.115  0.7618 -0.6278  0.5355
  661MOL0     C87141  12.558   7.931   4.054  0.1886 -0.8420  0.0817
  661MOL0     C87142  12.710   7.902   4.064  0.3756  1.1557 -0.3792
  661MOL0     C87143  12.799   8.012   3.996  0.9675  1.2071 -0.6760
  661MOL0     O87144  12.762   8.140   4.059 -1.0096  0.0291 -0.0576
  661MOL0     C87145  12.856   8.235   4.032  0.8341  0.4834 -1.0286
  661MOL0     C87146  12.815   8.339   3.959 -0.3071 -0.9462  0.1590
  661MOL0     C87147  12.912   8.436   3.937 -0.5658 -0.2721 -0.0732
  661MOL0     C87148  13.045   8.423   3.987 -0.3541 -0.3951  0.3203
  661MOL0     C87149  13.156   8.504   3.955  0.2437 -0.8441  1.1927
  661MOL0     O87150  13.272   8.449   3.977 -1.4666 -0.0467 -1.1499
  661MOL0     C87151  13.394   8.487   3.920  0.1063 -0.7928  0.6638
  661MOL0     C87152  13.506   8.410   3.955  0.4198 -0.1818  0.5080
  661MOL0     C87153  13.635   8.422   3.890 -0.3238  0.0717 -0.9010
  661MOL0     C87154  13.654   8.521   3.796 -1.1827 -0.8602  0.0845
  661MOL0     O87155  13.785   8.536   3.740  0.5220 -0.3944  1.3865
  661MOL0     C87156  13.813   8.670   3.701 -1.0115  0.3095  0.1775
  661MOL0     C87157  13.945   8.666   3.618 -0.3304  0.1811 -0.1689
  661MOL0     C87158  13.939   8.567   3.497 -1.1551  0.4280 -0.0933
  661MOL0     C87159  14.082   8.571   3.424 -0.8113  0.3633 -0.0894
  661MOL0     C87160  14.118   8.459   3.333  0.1277  0.3456  0.0429
  661MOL0     C87161  14.076   8.479   3.188 -0.3122 -0.0094  0.4523
  661MOL0     C87162  13.920   8.456   3.179  0.2771  1.2969 -0.0599
  661MOL0     C87163  13.857   8.420   3.046  0.3973 -0.1155  0.2152
  661MOL0    Cl87164  13.884   8.246   3.023 -0.5170  0.4874 -0.3956
  661MOL0     C87165  13.540   8.609   3.768 -0.6364  0.0574 -0.7441
  661MOL0     C87166  13.417   8.589   3.826 -0.2894  0.1829 -0.4941
  661MOL0     O87167  13.137   8.619   3.906 -1.0359  0.1955  0.2789
  661MOL0     C87168  13.069   8.325   4.080 -0.0723  0.6283  0.0220
  661MOL0     C87169  12.973   8.226   4.098 -0.0854 -0.0200 -0.3275
  661MOL0     N87170  12.399   7.947   4.323  0.2944  0.0050  0.6061
  661MOL0     N87171  12.284   7.987   4.376  0.2645 -0.1228 -0.9198
  661MOL0     C87172  11.152   8.151   4.054 -0.2954  0.4790  0.1661
  661MOL0     C87173  11.020   8.146   3.991  0.1740 -0.5779 -0.4518
  661MOL0     C87174  10.579   8.281   3.970  0.1432  0.7028  0.2905
  661MOL0     C87175  10.528   8.396   3.909 -0.1364  0.6598 -0.1165
  661MOL0     C87176  10.390   8.399   3.893 -0.9682  0.7138  0.6711
  661MOL0     C87177  10.307   8.289   3.911 -0.1814 -0.2342 -0.2209
  661MOL0     O87178  10.171   8.287   3.896 -0.4402  0.4342  0.3574
  661MOL0     C87179  10.096   8.406   3.857 -0.4526 -0.3382  0.4840
  661MOL0     C87180   9.944   8.393   3.890 -0.1716  0.2624  0.6665
  661MOL0     C87181   9.864   8.275   3.840  0.3345 -0.2338  0.3338
  661MOL0     C87182   9.882   8.138   3.906 -0.5738 -0.4876 -0.2175
  661MOL0     C87183   9.867   8.126   4.052  0.6387 -0.4839  0.9065
  661MOL0     C87184   9.867   8.105   4.168  0.2726  0.1390 -0.1897
  661MOL0     C87185  10.363   8.177   3.957  0.3435  0.3291 -0.4164
  661MOL0     C87186  10.496   8.170   3.990 -0.6137  0.8310 -0.4151
  661MOL0     H87187  10.829   8.160   4.273 -0.8570 -2.2704 -1.1649
  661MOL0     H87188  11.055   8.166   4.377 -0.4417 -0.4063 -0.1984
  661MOL0     H87189  11.402   8.215   4.401  2.6904  0.9563 -2.8073
  661MOL0     H87190  11.273   8.326   4.341 -0.2307  0.2297 -2.2309
  661MOL0     H87191  11.465   8.418   4.284 -2.5242  0.3689 -0.1173
  661MOL0     H87192  11.382   8.367   4.132 -1.3967 -2.4017 -0.4918
  661MOL0     H87193  11.628   8.322   4.131  1.9204 -2.3574 -1.4010
  661MOL0     H87194  11.498   8.198   4.087  0.3925 -1.7790  0.8428
  661MOL0     H87195  11.628   8.198   4.362 -2.4294  2.4852 -0.3651
  661MOL0     H87196  11.553   8.069   4.270 -0.8765  0.9580 -1.4148
  661MOL0     H87197  11.806   8.203   4.188  1.6626 -1.6969  0.0399
  661MOL0     H87198  11.728   8.073   4.103 -1.3836  0.0251 -0.0746
  661MOL0     H87199  11.768   7.905   4.293 -0.7994 -0.2323 -0.3285
  661MOL0     H87200  11.828   8.047   4.385  4.0957  0.9161  0.3271
  661MOL0     H87201  11.953   7.909   4.147  0.5076  1.4718 -0.4683
  661MOL0     H87202  12.005   8.075   4.192  0.1589  2.0195  3.5426
  661MOL0     H87203  12.015   7.837   4.383 -2.3815 -0.7049 -0.1703
  661MOL0     H87204  12.044   8.005   4.429  0.1103  1.2302 -2.4675
  661MOL0     H87205  12.183   7.802   4.119 -0.2410 -0.9389  0.4005
  661MOL0     H87206  12.437   7.763   4.028  0.9498  1.5128 -0.8927
  661MOL0     H87207  12.548   7.760   4.181  1.1434  2.5949  2.9980
  661MOL0     H87208  12.523   8.019   4.109  0.9369 -1.5952  1.8330
  661MOL0     H87209  12.526   7.949   3.951 -1.1726 -1.3982  0.3918
  661MOL0     H87210  12.738   7.894   4.169 -1.9063  3.4284  0.5219
  661MOL0     H87211  12.725   7.807   4.011  2.3629  1.7201 -0.9110
  661MOL0     H87212  12.781   8.005   3.888  1.2653  0.2665 -0.6747
  661MOL0     H87213  12.902   7.991   4.026  0.3005  0.2042  1.0574
  661MOL0     H87214  12.727   8.336   3.896 -0.6637  0.7857  0.5302
  661MOL0     H87215  12.888   8.518   3.870 -2.1673 -0.6252  0.0491
  661MOL0     H87216  13.512   8.338   4.035  0.1759  1.2505  1.8584
  661MOL0     H87217  13.719   8.367   3.931  1.2923  1.4931 -2.1571
  661MOL0     H87218  13.841   8.723   3.792 -0.9737  1.1864 -0.3307
  661MOL0     H87219  13.733   8.718   3.644 -0.8649  0.3845  0.0319
  661MOL0     H87220  14.040   8.646   3.667  0.9324  2.0532 -1.7148
  661MOL0     H87221  13.963   8.768   3.581  0.1172  0.8741  1.8388
  661MOL0     H87222  13.870   8.615   3.427 -1.4040 -1.2776 -1.0649
  661MOL0     H87223  13.897   8.470   3.523  0.3674  0.2153  1.8395
  661MOL0     H87224  14.092   8.664   3.368  1.1243 -1.3087 -2.7370
  661MOL0     H87225  14.159   8.572   3.502 -2.2491  0.0937  1.4106
  661MOL0     H87226  14.062   8.379   3.384 -0.2354  0.4566 -0.1810
  661MOL0     H87227  14.226   8.443   3.337 -0.0422 -2.4401 -2.6228
  661MOL0     H87228  14.119   8.402   3.124 -2.0564  0.3166 -1.2200
  661MOL0     H87229  14.093   8.584   3.162 -1.3010  1.5278  5.1428
  661MOL0     H87230  13.879   8.381   3.247 -1.7427  2.1673 -0.2279
  661MOL0     H87231  13.886   8.552   3.220 -0.5681  0.3257  1.6087
  661MOL0     H87232  13.907   8.470   2.963  1.7382 -2.7073 -0.6437
  661MOL0     H87233  13.752   8.451   3.041  0.0635 -1.3323 -3.3389
  661MOL0     H87234  13.540   8.690   3.695 -0.7718 -0.4275 -1.2923
  661MOL0     H87235  13.338   8.658   3.797  0.6513  2.4208  1.9475
  661MOL0     H87236  13.157   8.315   4.143  0.9123  2.5123 -0.9985
  661MOL0     H87237  12.990   8.153   4.177 -1.9985  1.0218  1.1340
  661MOL0     H87238  11.241   8.146   3.992 -0.6662 -1.6590 -0.2595
  661MOL0     H87239  11.007   8.129   3.885 -2.3071  6.8646 -1.9528
  661MOL0     H87240  10.591   8.480   3.880  2.3382 -0.3446  1.9404
  661MOL0     H87241  10.352   8.491   3.848  1.1454  0.7444 -1.2237
  661MOL0     H87242  10.111   8.417   3.749  0.2135  2.5209  0.8030
  661MOL0     H87243  10.137   8.496   3.903  1.4809 -0.3345 -1.1000
  661MOL0     H87244   9.940   8.383   3.998  3.3819  2.8988  1.2269
  661MOL0     H87245   9.890   8.481   3.855 -2.5296 -0.2962  2.6242
  661MOL0     H87246   9.879   8.262   3.732  0.6873 -3.0142  0.6498
  661MOL0     H87247   9.761   8.300   3.866 -0.3314 -0.5518 -1.7538
  661MOL0     H87248   9.796   8.077   3.875 -1.3518 -0.3729  1.5750
  661MOL0     H87249   9.976   8.089   3.880  0.7602  1.2666  1.0462
  661MOL0     H87250   9.859   8.075   4.271  2.2470  2.2439  0.6532
  661MOL0     H87251  10.303   8.094   3.995  0.7062 -0.3393 -1.2694
  661MOL0     H87252  10.528   8.077   4.037 -1.0836  0.3942 -0.9508
  662MOL0     O87253  11.156   3.532   4.802 -0.7715  0.2622  0.2512
  662MOL0     C87254  11.252   3.588   4.856 -0.1313  0.4134 -0.2555
  662MOL0     O87255  11.251   3.690   4.940 -0.2009  0.1395  0.4346
  662MOL0     C87256  11.135   3.761   4.957 -0.5117  1.3155  0.2246
  662MOL0     C87257  11.011   3.699   4.988 -0.1079  0.2142  0.3776
  662MOL0     C87258  10.898   3.789   5.008  0.8704  0.0940 -0.1151
  662MOL0     C87259  10.915   3.927   4.998 -0.5445 -0.2173 -0.0285
  662MOL0     O87260  10.810   4.015   5.005  0.1479  0.0295 -0.5207
  662MOL0     C87261  10.691   3.993   4.932  0.6695  0.6536  0.5462
  662MOL0     C87262  10.598   4.115   4.963  0.5466 -0.0170 -0.1780
  662MOL0     C87263  10.561   4.171   4.828  0.2977  0.1232  0.7298
  662MOL0     C87264  10.471   4.288   4.847 -0.8560 -0.2461 -0.2644
  662MOL0     C87265  10.438   4.360   4.715 -1.1483 -0.4401  0.4112
  662MOL0     C87266  10.365   4.496   4.725 -0.9965  0.0822 -0.4296
  662MOL0     C87267  10.331   4.566   4.591  0.1887  0.0800  0.9574
  662MOL0     C87268  10.243   4.692   4.604 -0.0603 -0.7023 -0.2116
  662MOL0     N87269  10.318   4.796   4.546  0.2603 -0.3981 -0.7690
  662MOL0     C87270  10.416   4.860   4.620 -0.2719 -0.8518  0.1250
  662MOL0     C87271  10.480   4.939   4.534 -0.0453 -0.8002 -0.6812
  662MOL0     C87272  10.593   5.025   4.565  0.3757  0.1875  1.1306
  662MOL0     C87273  10.728   4.959   4.578  0.2091 -0.0490 -0.4582
  662MOL0     C87274  10.786   4.857   4.469  0.1072  0.6638  0.5360
  662MOL0     C87275  10.869   4.921   4.356  1.0332 -0.1066 -0.6113
  662MOL0     O87276  10.842   4.870   4.231 -0.4377  0.0540  0.1670
  662MOL0     C87277  10.907   4.939   4.130  0.7351 -0.0870  0.0904
  662MOL0     C87278  11.014   4.870   4.084 -1.2298 -0.1264 -0.3414
  662MOL0     C87279  11.091   4.929   3.983 -0.8100  0.3010 -0.7944
  662MOL0     C87280  11.059   5.059   3.931 -0.1672  0.2585 -0.4526
  662MOL0     C87281  11.149   5.132   3.835 -0.2396  0.9686 -0.2112
  662MOL0     O87282  11.130   5.258   3.821  0.1796 -0.5738  0.4077
  662MOL0     C87283  11.237   5.343   3.792 -0.2625 -0.1798  0.0185
  662MOL0     C87284  11.215   5.461   3.726 -0.0248  0.2818  0.6238
  662MOL0     C87285  11.308   5.561   3.709  0.6577 -0.2983 -0.2802
  662MOL0     C87286  11.429   5.554   3.775 -0.4327 -0.3713 -0.3817
  662MOL0     O87287  11.518   5.659   3.771  0.2239  0.6438  0.0920
  662MOL0     C87288  11.555   5.690   3.635 -0.5046 -0.3060 -1.2301
  662MOL0     C87289  11.650   5.587   3.571 -0.0017 -0.4632 -0.3786
  662MOL0     C87290  11.694   5.636   3.435 -0.0538  0.2389  0.8603
  662MOL0     C87291  11.790   5.538   3.381 -0.5719  0.5030 -0.9831
  662MOL0     C87292  11.850   5.563   3.250 -0.2977 -0.8479  0.1788
  662MOL0     C87293  11.734   5.584   3.156  0.8000  0.3559 -0.8487
  662MOL0     C87294  11.770   5.590   3.008 -0.3946 -0.0766  0.7588
  662MOL0     C87295  11.777   5.455   2.933 -0.0991 -0.3842  0.8138
  662MOL0    Cl87296  11.607   5.401   2.884  0.5036  0.0377  0.3596
  662MOL0     C87297  11.450   5.438   3.850 -0.4282  0.1934  0.5100
  662MOL0     C87298  11.362   5.330   3.852 -0.4723  0.1322 -0.4479
  662MOL0     O87299  11.252   5.076   3.796  0.9990 -0.4910 -0.0047
  662MOL0     C87300  10.950   5.121   3.985 -0.7399  0.2111 -0.1435
  662MOL0     C87301  10.864   5.065   4.075 -0.8215  0.3153 -0.5677
  662MOL0     N87302  10.427   4.922   4.404  0.3916  0.2676  0.6382
  662MOL0     N87303  10.330   4.832   4.414  0.5172  0.3301 -0.0139
  662MOL0     C87304  11.037   3.971   4.966 -0.8968  0.0516  0.6618
  662MOL0     C87305  11.147   3.893   4.951 -0.0562 -1.5755  0.1600
  662MOL0     C87306  11.393   3.549   4.819 -0.5800  1.0405  0.1103
  662MOL0     C87307  11.417   3.441   4.744  0.0477 -0.2427 -0.3505
  662MOL0     C87308  11.547   3.413   4.700 -0.2735 -1.0706  1.0014
  662MOL0     C87309  11.658   3.481   4.742  0.4078 -0.8157 -0.8376
  662MOL0     O87310  11.780   3.455   4.689 -0.3839  0.5946  0.2391
  662MOL0     C87311  11.823   3.328   4.739 -0.8520  0.9141  0.2680
  662MOL0     C87312  11.958   3.293   4.683 -0.3087  0.5644 -0.3004
  662MOL0     C87313  12.082   3.366   4.747  0.3172  0.0986 -0.1694
  662MOL0     C87314  12.215   3.299   4.704  0.0567  0.3133  0.1875
  662MOL0     C87315  12.245   3.292   4.559  0.1607  0.3046 -0.0946
  662MOL0     C87316  12.260   3.307   4.436  0.5998  0.6350  0.3838
  662MOL0     C87317  11.632   3.585   4.834 -0.3815 -0.0776 -1.0226
  662MOL0     C87318  11.501   3.626   4.868 -0.1102  0.1720  0.5264
  662MOL0     H87319  10.995   3.592   4.992  0.2871  0.1574  0.4225
  662MOL0     H87320  10.805   3.764   5.057  1.3426  1.5710  1.6761
  662MOL0     H87321  10.641   3.902   4.967  3.6670  0.5004  5.4077
  662MOL0     H87322  10.710   3.985   4.825  1.5052  0.8055  0.6762
  662MOL0     H87323  10.651   4.187   5.026  2.0929 -0.2669 -1.1425
  662MOL0     H87324  10.503   4.097   5.014  0.0502  1.7999 -0.3993
  662MOL0     H87325  10.517   4.100   4.757  2.8903  1.8111 -2.8877
  662MOL0     H87326  10.644   4.215   4.773 -1.3813  0.2666 -1.8926
  662MOL0     H87327  10.375   4.259   4.890 -1.5129  2.5959  0.4022
  662MOL0     H87328  10.510   4.348   4.929  0.6170 -4.0940  2.1383
  662MOL0     H87329  10.376   4.288   4.661  3.4845 -4.4667 -0.2597
  662MOL0     H87330  10.529   4.401   4.671 -2.3076  1.7503 -0.1009
  662MOL0     H87331  10.421   4.555   4.798  0.1827  0.1544 -1.3593
  662MOL0     H87332  10.275   4.476   4.783  2.3002 -2.4406  4.5319
  662MOL0     H87333  10.414   4.591   4.525 -0.6649  3.9092  1.1306
  662MOL0     H87334  10.263   4.498   4.538  0.0130  0.2946  0.9092
  662MOL0     H87335  10.227   4.717   4.709  0.2474  1.0408 -0.5487
  662MOL0     H87336  10.145   4.694   4.554 -0.6057 -1.5468  0.7809
  662MOL0     H87337  10.445   4.854   4.724 -0.5320  1.9143  0.4313
  662MOL0     H87338  10.570   5.086   4.653  1.0435  0.0473  1.4057
  662MOL0     H87339  10.617   5.102   4.491  4.6436 -1.2661  0.7673
  662MOL0     H87340  10.724   4.894   4.666  2.8905 -2.4170 -1.8766
  662MOL0     H87341  10.800   5.039   4.597 -1.1581  0.8785  0.9663
  662MOL0     H87342  10.843   4.777   4.516 -0.9318 -0.9231 -0.8285
  662MOL0     H87343  10.705   4.812   4.410  1.4538 -2.2020  0.7201
  662MOL0     H87344  10.972   4.925   4.393 -0.0502  1.3417  2.6871
  662MOL0     H87345  10.840   5.027   4.353  0.4043 -0.2432  0.4655
  662MOL0     H87346  11.029   4.764   4.103  1.6258 -0.5425 -3.8530
  662MOL0     H87347  11.177   4.869   3.954  0.0546  0.8911  0.4089
  662MOL0     H87348  11.120   5.471   3.675  0.5353  0.4305 -0.4330
  662MOL0     H87349  11.273   5.644   3.648  1.8075  0.7059  0.3784
  662MOL0     H87350  11.595   5.790   3.651  0.1032 -0.5391 -1.2239
  662MOL0     H87351  11.477   5.690   3.559 -1.2685 -1.7939 -0.4836
  662MOL0     H87352  11.600   5.491   3.557  0.5727 -1.2440  2.3523
  662MOL0     H87353  11.732   5.570   3.641  2.0776  0.5696 -2.4285
  662MOL0     H87354  11.748   5.730   3.442 -2.3907  1.7627 -0.1742
  662MOL0     H87355  11.598   5.652   3.384  1.2045 -0.1174 -1.7959
  662MOL0     H87356  11.872   5.536   3.455 -0.4426  0.9104 -1.1116
  662MOL0     H87357  11.738   5.442   3.377  1.6993 -0.7695 -2.1112
  662MOL0     H87358  11.899   5.469   3.223  2.4886 -0.0824  2.1115
  662MOL0     H87359  11.912   5.653   3.242  3.0027 -2.9260  0.5006
  662MOL0     H87360  11.688   5.678   3.187  2.5197  1.4494 -1.4671
  662MOL0     H87361  11.659   5.505   3.158  3.0976 -1.9853  0.3470
  662MOL0     H87362  11.709   5.654   2.944  1.6980 -0.2905 -1.6489
  662MOL0     H87363  11.870   5.636   3.011 -1.0290  1.5467 -1.0271
  662MOL0     H87364  11.815   5.379   3.001  1.7401  1.3046  1.7782
  662MOL0     H87365  11.839   5.471   2.844  1.4916  1.0307  2.1093
  662MOL0     H87366  11.552   5.426   3.884 -0.3917  0.3898  0.4681
  662MOL0     H87367  11.391   5.238   3.903  0.4539  1.0636  0.7760
  662MOL0     H87368  10.921   5.218   3.945 -0.8724  0.6747  1.0163
  662MOL0     H87369  10.773   5.107   4.115  0.3046  1.0877  1.3624
  662MOL0     H87370  11.027   4.079   4.976 -2.1428 -0.1970  2.4682
  662MOL0     H87371  11.246   3.934   4.936 -0.1488 -0.6428  1.8929
  662MOL0     H87372  11.331   3.385   4.709 -2.8075  3.7097 -0.4609
  662MOL0     H87373  11.556   3.330   4.630 -2.6582 -1.2532  0.8007
  662MOL0     H87374  11.757   3.245   4.710  0.1771  1.8522 -6.2203
  662MOL0     H87375  11.829   3.325   4.848 -1.4934 -4.0958  0.4135
  662MOL0     H87376  11.966   3.185   4.697  1.8099  0.5938 -0.8748
  662MOL0     H87377  11.961   3.305   4.575  1.3967  2.9730 -0.0812
  662MOL0     H87378  12.070   3.357   4.855 -0.0369 -0.7452 -0.2755
  662MOL0     H87379  12.069   3.474   4.732 -2.5541 -0.4293 -2.1251
  662MOL0     H87380  12.296   3.355   4.752  0.5036  1.5316 -1.8645
  662MOL0     H87381  12.209   3.196   4.738 -1.5345  0.5042  0.6127
  662MOL0     H87382  12.273   3.331   4.333 -0.0793  0.3465  0.2264
  662MOL0     H87383  11.716   3.630   4.885  0.5970 -3.8260  1.0747
  662MOL0     H87384  11.486   3.717   4.926 -0.7730 -1.4076  2.9637
  663MOL0     O87385   7.259   0.767   0.176  0.1459  0.4461  0.5314
  663MOL0     C87386   7.216   0.660   0.206  0.3799 -0.6702  0.2541
  663MOL0     O87387   7.184   0.561   0.119 -0.6243  0.6097 -0.3767
  663MOL0     C87388   7.209   0.573  -0.015 -0.0944  1.3452  0.1365
  663MOL0     C87389   7.115   0.519  -0.096  0.1850  0.3908 -0.2620
  663MOL0     C87390   7.136   0.495  -0.233  0.1209  0.5231  0.2338
  663MOL0     C87391   7.252   0.535  -0.300 -0.4514 -0.0984 -1.1992
  663MOL0     O87392   7.270   0.529  -0.434  0.3359  0.2027 -0.8053
  663MOL0     C87393   7.272   0.397  -0.490  0.3617  0.2112 -1.0011
  663MOL0     C87394   7.241   0.415  -0.644 -0.7292 -0.7337 -1.1880
  663MOL0     C87395   7.333   0.522  -0.707  0.6109  0.6136 -0.3192
  663MOL0     C87396   7.310   0.522  -0.858  0.6228  0.0442  0.2478
  663MOL0     C87397   7.407   0.627  -0.910 -0.3678 -0.4579  0.2414
  663MOL0     C87398   7.337   0.755  -0.945  0.3669 -0.7718  0.8613
  663MOL0     C87399   7.434   0.859  -1.012 -0.2122 -0.3581  0.5431
  663MOL0     C87400   7.362   0.980  -1.055 -0.3489  0.0150 -0.0410
  663MOL0     N87401   7.460   1.088  -1.060  0.0425 -0.4504  0.8861
  663MOL0     C87402   7.540   1.128  -0.959 -0.6098 -0.0974 -0.3333
  663MOL0     C87403   7.650   1.162  -1.022 -0.3667 -0.5135  0.5435
  663MOL0     C87404   7.784   1.209  -0.958  0.4057  0.2495 -0.5343
  663MOL0     C87405   7.889   1.248  -1.061 -1.2089 -0.2881  0.3480
  663MOL0     C87406   8.032   1.254  -1.001 -0.3624  0.0986  1.2221
  663MOL0     C87407   8.045   1.386  -0.933 -0.2647  0.1229  0.1954
  663MOL0     O87408   8.180   1.392  -0.892  0.0015 -0.4899 -0.1045
  663MOL0     C87409   8.266   1.484  -0.961  1.1001  0.0146  0.0644
  663MOL0     C87410   8.256   1.503  -1.096 -0.3332  0.6046 -0.2294
  663MOL0     C87411   8.343   1.584  -1.171 -0.0631 -0.6410 -1.4140
  663MOL0     C87412   8.447   1.647  -1.101 -0.2798  0.2588 -0.2559
  663MOL0     C87413   8.531   1.742  -1.175 -0.7158 -0.2970 -0.9539
  663MOL0     O87414   8.503   1.779  -1.301 -0.1278 -0.1415 -0.1301
  663MOL0     C87415   8.584   1.872  -1.365 -0.7387  0.5879  0.0220
  663MOL0     C87416   8.703   1.836  -1.433  0.3189  0.1304  0.5169
  663MOL0     C87417   8.766   1.927  -1.516 -0.4122  0.0821 -1.1255
  663MOL0     C87418   8.732   2.059  -1.524 -0.0964  1.8303 -0.8723
  663MOL0     O87419   8.781   2.150  -1.615 -0.4626 -0.3735  0.7214
  663MOL0     C87420   8.901   2.129  -1.689  0.1088 -0.2359 -0.5750
  663MOL0     C87421   8.974   2.266  -1.703 -0.4916 -0.5128  0.0102
  663MOL0     C87422   8.912   2.353  -1.815  1.2661 -0.1662  0.8823
  663MOL0     C87423   8.966   2.488  -1.844 -0.1543  0.2124  1.1651
  663MOL0     C87424   8.891   2.547  -1.973  0.2572  0.4911 -0.5719
  663MOL0     C87425   8.902   2.702  -1.995 -0.6804  0.9587 -1.0735
  663MOL0     C87426   9.048   2.745  -2.014  0.8370  0.1945  0.3130
  663MOL0     C87427   9.070   2.876  -1.944 -0.5057 -0.3620 -1.0010
  663MOL0    Cl87428   9.093   2.861  -1.773  0.1904 -0.5772 -0.1011
  663MOL0     C87429   8.616   2.092  -1.458  1.1059 -0.5537 -0.5108
  663MOL0     C87430   8.535   1.998  -1.377 -0.6833  0.4888  0.1640
  663MOL0     O87431   8.620   1.794  -1.114 -0.0274  0.0174 -0.2425
  663MOL0     C87432   8.459   1.620  -0.960  0.6344 -0.4895 -0.4934
  663MOL0     C87433   8.367   1.535  -0.899  0.0395  0.1773 -0.4234
  663MOL0     N87434   7.632   1.182  -1.161 -0.4547  0.1732  0.4189
  663MOL0     N87435   7.517   1.130  -1.178  0.4148  0.0261 -0.2890
  663MOL0     C87436   7.346   0.599  -0.216 -0.5393 -0.0574  0.6836
  663MOL0     C87437   7.328   0.621  -0.078 -0.7658 -0.8558 -0.0006
  663MOL0     C87438   7.160   0.651   0.343  0.8710 -0.7640  0.0613
  663MOL0     C87439   7.169   0.763   0.430  0.4949  0.5983  0.8643
  663MOL0     C87440   7.094   0.764   0.545 -0.2717 -0.8694 -0.5207
  663MOL0     C87441   7.020   0.659   0.593 -0.0226 -0.9080 -0.3319
  663MOL0     O87442   6.929   0.673   0.701  0.7089  0.3725 -0.3029
  663MOL0     C87443   6.895   0.794   0.760  0.1139  0.8891 -0.2236
  663MOL0     C87444   6.834   0.891   0.664 -0.1913  0.3707 -0.4622
  663MOL0     C87445   6.830   1.034   0.724 -1.7387 -0.0934 -0.5768
  663MOL0     C87446   6.734   1.142   0.662  0.2124 -0.3543 -0.5994
  663MOL0     C87447   6.603   1.098   0.634  0.2882  0.3331  0.4694
  663MOL0     C87448   6.488   1.091   0.585  0.4169 -0.0996  0.4528
  663MOL0     C87449   7.024   0.539   0.521 -0.3648  0.6026 -1.1454
  663MOL0     C87450   7.092   0.540   0.397 -0.9588  0.2313  0.2525
  663MOL0     H87451   7.024   0.480  -0.052  0.6370 -1.7204 -1.1094
  663MOL0     H87452   7.056   0.455  -0.295  2.1735 -0.5813 -1.8515
  663MOL0     H87453   7.194   0.327  -0.458 -0.8276  1.5590 -0.8202
  663MOL0     H87454   7.370   0.355  -0.468 -0.4065 -0.4183  1.5145
  663MOL0     H87455   7.139   0.456  -0.645 -0.3441  0.7841  2.7429
  663MOL0     H87456   7.255   0.324  -0.703 -0.4329 -0.2087 -1.9469
  663MOL0     H87457   7.436   0.494  -0.680  2.6643  0.9453 -6.2410
  663MOL0     H87458   7.322   0.621  -0.662  2.2007  1.3639 -1.4619
  663MOL0     H87459   7.331   0.430  -0.913  1.4778  0.9388 -0.9805
  663MOL0     H87460   7.206   0.552  -0.869  0.2116 -0.2555  2.7237
  663MOL0     H87461   7.457   0.598  -1.003 -2.2000  0.9331 -1.2593
  663MOL0     H87462   7.478   0.653  -0.831 -2.3805  0.8033  1.7269
  663MOL0     H87463   7.288   0.793  -0.854  2.9912 -2.1309  2.9725
  663MOL0     H87464   7.266   0.741  -1.027  0.6690  2.6637 -0.1415
  663MOL0     H87465   7.505   0.880  -0.931 -2.8101 -2.5358  3.6426
  663MOL0     H87466   7.481   0.806  -1.095  0.8986 -1.9572  2.1048
  663MOL0     H87467   7.280   1.011  -0.989 -1.1407 -0.2798 -0.8640
  663MOL0     H87468   7.320   0.952  -1.152 -0.3234 -3.5774  0.8160
  663MOL0     H87469   7.523   1.120  -0.852  0.1055 -3.2976 -0.3475
  663MOL0     H87470   7.819   1.129  -0.893 -0.3607 -2.5559 -3.3178
  663MOL0     H87471   7.749   1.297  -0.903  1.3325  1.3967 -1.7155
  663MOL0     H87472   7.868   1.341  -1.116  1.0824 -0.3905 -0.8267
  663MOL0     H87473   7.896   1.171  -1.138 -1.9195  0.6759 -0.7190
  663MOL0     H87474   8.044   1.175  -0.926  1.3226 -0.2309  0.6449
  663MOL0     H87475   8.106   1.242  -1.081  0.4577 -0.1251  2.0067
  663MOL0     H87476   7.980   1.401  -0.847 -0.8246  0.0991 -0.2209
  663MOL0     H87477   8.026   1.463  -1.008  0.3798  2.8357  2.6349
  663MOL0     H87478   8.175   1.450  -1.147  0.9014 -2.1575  0.4717
  663MOL0     H87479   8.321   1.612  -1.274  0.9611 -0.1711 -1.5106
  663MOL0     H87480   8.737   1.733  -1.433 -1.3761 -0.4593  0.5912
  663MOL0     H87481   8.851   1.883  -1.567 -1.2027 -3.4495  0.3131
  663MOL0     H87482   8.878   2.107  -1.794 -1.0468  0.7111 -0.5376
  663MOL0     H87483   8.958   2.048  -1.643  0.2530 -0.1794 -0.6549
  663MOL0     H87484   9.075   2.234  -1.732 -0.1104  1.2969 -0.7664
  663MOL0     H87485   8.996   2.326  -1.615 -0.4383  0.9457 -0.9677
  663MOL0     H87486   8.806   2.376  -1.801  0.7082 -0.2646 -2.4762
  663MOL0     H87487   8.917   2.289  -1.903 -0.4338  2.4983 -1.3035
  663MOL0     H87488   8.962   2.555  -1.757  1.0621 -2.0326  3.0599
  663MOL0     H87489   9.067   2.466  -1.877 -0.7666 -0.2425 -0.5085
  663MOL0     H87490   8.785   2.521  -1.968  0.2513  0.6098  0.0609
  663MOL0     H87491   8.948   2.511  -2.060  2.4778 -1.7092  1.5854
  663MOL0     H87492   8.863   2.753  -1.907  1.5693  2.1414 -0.6735
  663MOL0     H87493   8.846   2.730  -2.084 -2.8049  1.8299  0.4637
  663MOL0     H87494   9.126   2.675  -1.985 -0.4422  0.1453  4.1331
  663MOL0     H87495   9.067   2.755  -2.122  0.1583 -0.6921  0.1048
  663MOL0     H87496   8.992   2.950  -1.965  0.4576  0.6314 -1.2048
  663MOL0     H87497   9.163   2.920  -1.982 -0.5485  1.6853  1.0068
  663MOL0     H87498   8.566   2.187  -1.471 -1.3667 -1.9055 -1.5720
  663MOL0     H87499   8.437   2.037  -1.351 -0.5376  1.7030 -0.9668
  663MOL0     H87500   8.526   1.676  -0.896 -0.3491  0.1445 -0.0026
  663MOL0     H87501   8.378   1.513  -0.793 -1.5944 -2.3094 -0.6721
  663MOL0     H87502   7.443   0.630  -0.254 -0.8472  1.2927  0.9732
  663MOL0     H87503   7.411   0.669  -0.029 -2.3825  0.0368  2.0323
  663MOL0     H87504   7.228   0.846   0.392  0.1631 -1.2022 -4.5155
  663MOL0     H87505   7.098   0.857   0.601 -1.1374  1.5690 -4.1837
  663MOL0     H87506   6.982   0.830   0.817  0.2551 -0.2809  0.3370
  663MOL0     H87507   6.809   0.781   0.825 -0.4111  0.7219 -0.9451
  663MOL0     H87508   6.879   0.897   0.564 -2.0199 -1.0841 -1.4320
  663MOL0     H87509   6.731   0.864   0.639 -0.7854  0.3765  1.7782
  663MOL0     H87510   6.935   1.064   0.725 -0.9375 -2.6057 -1.4827
  663MOL0     H87511   6.804   1.026   0.829  1.3540 -1.0716  0.2222
  663MOL0     H87512   6.740   1.237   0.716 -0.8913  1.7835 -3.9158
  663MOL0     H87513   6.784   1.189   0.577 -1.1419  3.0916  0.3140
  663MOL0     H87514   6.392   1.089   0.537  0.5093 -2.8324  0.2255
  663MOL0     H87515   6.966   0.455   0.558 -1.5357  1.3045 -1.3091
  663MOL0     H87516   7.085   0.444   0.347 -0.6021 -0.3453  1.2900
  664MOL0     O87517   6.167   3.154   0.449  0.0736 -0.8547 -0.1279
  664MOL0     C87518   6.147   3.124   0.335 -0.0684 -0.3840  0.9777
  664MOL0     O87519   6.026   3.129   0.278  0.1483 -0.9737  0.6720
  664MOL0     C87520   5.939   3.035   0.320  0.5353  0.2761 -0.0420
  664MOL0     C87521   5.968   2.931   0.407  0.8230 -0.4608  0.5703
  664MOL0     C87522   5.864   2.843   0.447  0.5919 -1.1055 -0.0704
  664MOL0     C87523   5.738   2.849   0.391 -0.0082 -0.1458 -0.3642
  664MOL0     O87524   5.635   2.762   0.433 -0.7117  0.2723 -0.6344
  664MOL0     C87525   5.529   2.836   0.500 -0.4561  0.3607  0.5937
  664MOL0     C87526   5.567   2.888   0.646 -0.5700  0.2258  0.3010
  664MOL0     C87527   5.437   2.885   0.729  0.3172  0.2080  0.0797
  664MOL0     C87528   5.477   2.899   0.876  0.4322 -0.2596 -0.6156
  664MOL0     C87529   5.344   2.915   0.955  0.5384  0.7609  0.6369
  664MOL0     C87530   5.272   2.787   0.975 -0.8400  0.0022  0.2249
  664MOL0     C87531   5.129   2.820   1.028  0.7715  0.2041 -0.7212
  664MOL0     C87532   5.003   2.812   0.946  0.4540  0.5491  0.2890
  664MOL0     N87533   4.972   2.686   0.870  0.1220 -0.0498 -0.1945
  664MOL0     C87534   4.849   2.613   0.883 -0.5837  0.2641 -0.4867
  664MOL0     C87535   4.854   2.512   0.787  0.2939  0.5613 -0.2392
  664MOL0     C87536   4.736   2.425   0.728  0.4479  0.0497 -0.3828
  664MOL0     C87537   4.794   2.296   0.658 -0.4932  0.3235 -0.1678
  664MOL0     C87538   4.837   2.315   0.515 -0.4073  0.2767  0.3837
  664MOL0     C87539   4.937   2.207   0.481 -0.1899  0.2075  0.4455
  664MOL0     O87540   4.870   2.080   0.512 -0.2537 -0.0948 -0.7841
  664MOL0     C87541   4.820   2.001   0.416 -0.3825  0.0124  0.6004
  664MOL0     C87542   4.677   1.996   0.410  0.2332  0.5993 -0.0004
  664MOL0     C87543   4.618   1.896   0.340  0.9028  0.0026 -0.3352
  664MOL0     C87544   4.689   1.815   0.246  0.0490 -0.2349 -0.1783
  664MOL0     C87545   4.636   1.699   0.179  0.7239 -0.2692 -0.2591
  664MOL0     O87546   4.716   1.657   0.085  0.1140 -0.5354 -0.7590
  664MOL0     C87547   4.691   1.540   0.014 -0.2696 -0.5178 -0.1985
  664MOL0     C87548   4.629   1.543  -0.116  0.3089 -0.0078 -0.2532
  664MOL0     C87549   4.612   1.413  -0.177  0.5338 -0.0340  0.2370
  664MOL0     C87550   4.630   1.289  -0.105 -0.0543 -0.5027 -0.0812
  664MOL0     O87551   4.591   1.177  -0.178 -0.5185 -0.4689  0.1992
  664MOL0     C87552   4.555   1.057  -0.112  0.0711  0.0499 -0.5244
  664MOL0     C87553   4.536   0.960  -0.232  0.0054  0.2102  0.4670
  664MOL0     C87554   4.545   0.817  -0.179  0.3692 -0.0041 -0.3950
  664MOL0     C87555   4.592   0.721  -0.301 -0.5335  1.3714 -0.1128
  664MOL0     C87556   4.619   0.587  -0.227 -0.2597  0.3613  0.1027
  664MOL0     C87557   4.661   0.477  -0.321 -0.1405 -0.3117 -0.1312
  664MOL0     C87558   4.731   0.366  -0.238 -0.5927  0.9539 -0.0213
  664MOL0     C87559   4.629   0.296  -0.156 -0.4655 -0.4799 -0.3915
  664MOL0    Cl87560   4.710   0.170  -0.047  0.0666 -0.0140  0.2268
  664MOL0     C87561   4.687   1.293   0.019 -0.9948  0.2569  0.2328
  664MOL0     C87562   4.724   1.414   0.076  0.4763  0.1794 -0.5203
  664MOL0     O87563   4.526   1.659   0.208  0.1415 -0.3562  0.0256
  664MOL0     C87564   4.824   1.853   0.233 -0.3984  0.5282 -0.2466
  664MOL0     C87565   4.887   1.941   0.318 -0.3918 -0.4162 -0.6048
  664MOL0     N87566   4.977   2.537   0.723  0.0772 -0.7535  0.3941
  664MOL0     N87567   5.036   2.647   0.759  1.4070 -0.2317 -0.6325
  664MOL0     C87568   5.721   2.948   0.294 -0.5551  0.9196 -0.1507
  664MOL0     C87569   5.813   3.038   0.266  0.2429 -1.0003 -0.1044
  664MOL0     C87570   6.265   3.074   0.253 -0.1376  0.0248 -0.4203
  664MOL0     C87571   6.248   2.989   0.143  0.4779 -0.3435 -0.5761
  664MOL0     C87572   6.357   2.931   0.079 -0.0456 -0.4609 -0.2626
  664MOL0     C87573   6.488   2.960   0.117  1.2522 -0.0351 -0.1937
  664MOL0     O87574   6.594   2.884   0.069  0.5220 -0.4060  0.2398
  664MOL0     C87575   6.614   2.756   0.127 -0.3136  0.1827  0.2399
  664MOL0     C87576   6.685   2.750   0.262 -0.7749 -0.1362 -0.0386
  664MOL0     C87577   6.725   2.606   0.312  0.4692  0.1502 -0.6749
  664MOL0     C87578   6.793   2.596   0.455 -0.0251  1.0031  0.1298
  664MOL0     C87579   6.916   2.673   0.473  0.3672 -0.5561  0.4120
  664MOL0     C87580   7.009   2.742   0.472 -0.7086  0.2416 -0.1555
  664MOL0     C87581   6.506   3.065   0.221  0.7321  0.3127  0.2670
  664MOL0     C87582   6.398   3.121   0.286  0.3777 -0.2210 -0.1537
  664MOL0     H87583   6.056   2.925   0.469  0.0304 -1.5902  1.6450
  664MOL0     H87584   5.881   2.764   0.520 -0.7302 -1.7800 -0.4599
  664MOL0     H87585   5.454   2.758   0.514 -2.2991  2.3128  2.3836
  664MOL0     H87586   5.489   2.911   0.432  1.7698 -0.6658 -2.0277
  664MOL0     H87587   5.613   2.987   0.647  2.7152 -1.1566 -1.0593
  664MOL0     H87588   5.635   2.819   0.696 -1.7566  1.3037  3.6545
  664MOL0     H87589   5.394   2.786   0.712  0.5015 -0.2469  2.0118
  664MOL0     H87590   5.368   2.965   0.699  0.4904  1.4044  2.5590
  664MOL0     H87591   5.545   2.816   0.897  2.0728  1.2538  0.2322
  664MOL0     H87592   5.525   2.997   0.882 -0.0364 -0.1372  1.9311
  664MOL0     H87593   5.283   2.981   0.893  1.6367  3.3561  2.1288
  664MOL0     H87594   5.353   2.978   1.045 -0.3154  3.1431 -0.8505
  664MOL0     H87595   5.322   2.730   1.054 -0.9856  0.9696  1.0415
  664MOL0     H87596   5.275   2.720   0.889  0.6138 -0.1885  0.3874
  664MOL0     H87597   5.110   2.755   1.114 -2.5728  0.2655 -1.2697
  664MOL0     H87598   5.126   2.924   1.061 -0.9926  0.1847 -0.7096
  664MOL0     H87599   5.015   2.899   0.880  0.2725  2.7516  2.9683
  664MOL0     H87600   4.922   2.846   1.011  0.5747  3.2925 -0.8436
  664MOL0     H87601   4.768   2.636   0.952 -0.0060  3.6493 -0.7562
  664MOL0     H87602   4.678   2.474   0.650 -1.5321 -3.0704 -1.0690
  664MOL0     H87603   4.674   2.400   0.815  2.2706  0.8144  1.2085
  664MOL0     H87604   4.710   2.226   0.656 -1.9736  1.9969  0.7542
  664MOL0     H87605   4.882   2.266   0.716 -2.0172  0.9477  2.6429
  664MOL0     H87606   4.760   2.285   0.444 -1.0104  1.5067  0.4895
  664MOL0     H87607   4.890   2.408   0.491  2.2735 -1.3243 -0.2431
  664MOL0     H87608   5.030   2.204   0.538  0.1666  2.7477  0.1213
  664MOL0     H87609   4.975   2.198   0.379  1.6789 -1.0662  1.1870
  664MOL0     H87610   4.614   2.041   0.485  1.0028  0.2117  0.9034
  664MOL0     H87611   4.513   1.875   0.354  1.3250 -0.0517  3.9776
  664MOL0     H87612   4.598   1.635  -0.164 -2.1868 -0.7796 -0.2594
  664MOL0     H87613   4.585   1.405  -0.282  0.9395 -2.1806  0.2400
  664MOL0     H87614   4.463   1.056  -0.053  1.3409 -0.1344  1.5552
  664MOL0     H87615   4.645   1.027  -0.057  1.1307 -0.7427 -2.5578
  664MOL0     H87616   4.617   0.970  -0.304  0.7485 -2.0952  0.8852
  664MOL0     H87617   4.442   0.967  -0.287 -0.6001 -1.5642  1.2081
  664MOL0     H87618   4.453   0.789  -0.127  0.2616 -1.2760 -1.2240
  664MOL0     H87619   4.627   0.807  -0.107 -0.8896  1.5735  1.3636
  664MOL0     H87620   4.510   0.717  -0.374  1.1609 -1.5620 -2.0650
  664MOL0     H87621   4.677   0.763  -0.357  0.7891  0.3467  1.0670
  664MOL0     H87622   4.529   0.550  -0.178 -1.9102 -2.4188 -4.4514
  664MOL0     H87623   4.707   0.612  -0.167  0.7140 -1.1521 -0.6254
  664MOL0     H87624   4.729   0.514  -0.398 -1.1993 -0.0111 -0.9474
  664MOL0     H87625   4.576   0.437  -0.375  0.7428  0.6556 -2.3427
  664MOL0     H87626   4.783   0.296  -0.305  5.2472  3.9623  0.6544
  664MOL0     H87627   4.802   0.415  -0.170 -2.0295  1.2341  1.3204
  664MOL0     H87628   4.552   0.261  -0.225 -2.8751  2.6963  0.4196
  664MOL0     H87629   4.574   0.367  -0.094  0.5803  1.5031 -1.6014
  664MOL0     H87630   4.705   1.198   0.068  2.6442 -0.6080 -2.3494
  664MOL0     H87631   4.775   1.422   0.171  0.6030 -0.8304 -0.4883
  664MOL0     H87632   4.888   1.813   0.155  1.5725  2.3374  0.3605
  664MOL0     H87633   4.992   1.961   0.298  0.1349 -2.5469 -0.1565
  664MOL0     H87634   5.623   2.955   0.248  1.9495  2.4693 -6.2838
  664MOL0     H87635   5.782   3.111   0.191 -2.7519 -3.9890 -2.0770
  664MOL0     H87636   6.145   2.973   0.112  0.5029  1.6656 -1.9519
  664MOL0     H87637   6.333   2.876  -0.011 -0.3483 -0.8214  0.0351
  664MOL0     H87638   6.690   2.710   0.064  1.4626  1.6267  1.2478
  664MOL0     H87639   6.511   2.717   0.124  0.0511 -0.7839 -2.5384
  664MOL0     H87640   6.776   2.811   0.256 -1.2442  0.8447  2.0337
  664MOL0     H87641   6.612   2.794   0.330  0.3921 -0.4571  1.5027
  664MOL0     H87642   6.780   2.551   0.234  0.3403 -1.4818  0.3488
  664MOL0     H87643   6.629   2.554   0.317 -0.8394  2.0750 -3.1667
  664MOL0     H87644   6.726   2.634   0.532  1.8352 -1.3290  3.1030
  664MOL0     H87645   6.814   2.493   0.485 -3.2424 -0.4778 -2.0476
  664MOL0     H87646   7.082   2.820   0.470 -0.7544  0.2688 -0.7206
  664MOL0     H87647   6.605   3.096   0.252  0.4036  0.4061  1.2674
  664MOL0     H87648   6.413   3.192   0.367  1.7798 -1.0856  0.3733
  665MOL0     O87649   2.381   0.327   5.264 -0.4859 -0.5267  0.3940
  665MOL0     C87650   2.504   0.345   5.238 -0.2766 -0.1159 -0.1880
  665MOL0     O87651   2.590   0.386   5.339 -0.1366  0.5080  0.4164
  665MOL0     C87652   2.547   0.423   5.465 -0.2606  0.1364  0.0926
  665MOL0     C87653   2.621   0.536   5.514 -0.5100  1.0095 -0.2204
  665MOL0     C87654   2.586   0.584   5.640 -0.1177 -0.0788  0.8175
  665MOL0     C87655   2.495   0.520   5.726 -0.3574  0.0771 -0.2566
  665MOL0     O87656   2.497   0.577   5.854  0.0502  0.2472 -0.6378
  665MOL0     C87657   2.419   0.501   5.947  0.3812  0.8882  0.8221
  665MOL0     C87658   2.486   0.525   6.074 -0.7423  0.1687 -0.2522
  665MOL0     C87659   2.460   0.667   6.119 -0.7890 -0.6207  0.5684
  665MOL0     C87660   2.536   0.718   6.250  0.3738  0.6507  0.6592
  665MOL0     C87661   2.490   0.631   6.363  0.4220 -0.4543  0.3525
  665MOL0     C87662   2.555   0.691   6.492  0.7276 -0.4831 -0.2723
  665MOL0     C87663   2.515   0.635   6.622  0.5469  0.4322 -0.8656
  665MOL0     C87664   2.542   0.485   6.626  0.4672 -0.2988 -0.6145
  665MOL0     N87665   2.538   0.447   6.769 -0.3075 -0.3872  0.6201
  665MOL0     C87666   2.414   0.430   6.828  0.5879  0.1984  0.5151
  665MOL0     C87667   2.437   0.372   6.951 -0.3553 -1.0247  0.1885
  665MOL0     C87668   2.345   0.321   7.067  0.7985  0.4044 -0.3015
  665MOL0     C87669   2.225   0.410   7.090  0.2128 -0.4240 -0.9245
  665MOL0     C87670   2.095   0.330   7.142 -0.7832  0.0674 -0.9189
  665MOL0     C87671   1.979   0.430   7.166  0.5693 -0.1579 -0.4370
  665MOL0     O87672   2.027   0.546   7.245 -0.3391  0.0820  0.6553
  665MOL0     C87673   2.049   0.525   7.371 -0.1002 -0.7431 -0.0210
  665MOL0     C87674   2.012   0.417   7.451 -1.1784  0.2781  0.6561
  665MOL0     C87675   2.042   0.402   7.582 -1.3890 -0.5140 -0.3324
  665MOL0     C87676   2.099   0.515   7.647  0.8308  0.2555 -0.3037
  665MOL0     C87677   2.137   0.511   7.790  0.7738  0.2231  0.2002
  665MOL0     O87678   2.194   0.622   7.832  0.0461 -0.2139 -0.2127
  665MOL0     C87679   2.228   0.625   7.968 -0.6228  0.3463  0.5617
  665MOL0     C87680   2.165   0.712   8.056  0.6820 -1.2931 -0.2268
  665MOL0     C87681   2.214   0.734   8.188  0.7097  0.3227  0.2995
  665MOL0     C87682   2.324   0.658   8.237 -0.1646  0.6370 -0.5319
  665MOL0     O87683   2.374   0.679   8.361 -0.3822  0.0549 -0.2130
  665MOL0     C87684   2.520   0.670   8.376 -0.1151  0.1574  0.8013
  665MOL0     C87685   2.550   0.736   8.509 -0.7117  0.7012 -0.2944
  665MOL0     C87686   2.702   0.760   8.551 -0.0165  0.6071 -0.1086
  665MOL0     C87687   2.796   0.830   8.452 -1.1744 -0.0821  1.0502
  665MOL0     C87688   2.937   0.813   8.507 -0.5096  0.3779 -0.6473
  665MOL0     C87689   3.052   0.842   8.411  0.6302 -0.0557  0.9346
  665MOL0     C87690   3.185   0.782   8.441 -0.1740 -0.4461 -0.2063
  665MOL0     C87691   3.199   0.628   8.413 -0.0090 -0.1393  0.8780
  665MOL0    Cl87692   3.180   0.540   8.570 -0.1215 -0.3818 -0.3971
  665MOL0     C87693   2.389   0.575   8.147  0.2570  1.1004 -0.7577
  665MOL0     C87694   2.346   0.559   8.018 -0.1980 -0.0749 -0.0369
  665MOL0     O87695   2.127   0.404   7.851  0.5265 -0.1269  0.5687
  665MOL0     C87696   2.121   0.631   7.576  0.7122 -0.4270  0.2445
  665MOL0     C87697   2.091   0.634   7.438 -0.4145  1.0473 -0.5254
  665MOL0     N87698   2.572   0.346   6.961 -0.1893 -0.4477  1.4431
  665MOL0     N87699   2.628   0.397   6.845 -0.8845 -0.0264 -0.1593
  665MOL0     C87700   2.422   0.413   5.672 -0.0808  0.0999  0.1126
  665MOL0     C87701   2.439   0.367   5.540  0.3617  0.4199 -0.1590
  665MOL0     C87702   2.565   0.331   5.106  0.7618 -0.7350  1.0088
  665MOL0     C87703   2.704   0.350   5.087 -0.2626  0.0131 -0.0882
  665MOL0     C87704   2.759   0.361   4.957  0.1275  0.4282 -0.3413
  665MOL0     C87705   2.671   0.358   4.848 -0.6043 -0.6842  0.6990
  665MOL0     O87706   2.732   0.380   4.726 -0.4704  0.0761 -0.1966
  665MOL0     C87707   2.705   0.281   4.624  0.2529  0.5890  0.0581
  665MOL0     C87708   2.760   0.330   4.486  0.8977  0.4659  0.3200
  665MOL0     C87709   2.674   0.444   4.450  0.7420  0.6810  0.7063
  665MOL0     C87710   2.717   0.504   4.323 -0.6170  0.2721 -0.0605
  665MOL0     C87711   2.748   0.421   4.208 -0.3903 -0.4066 -0.5384
  665MOL0     C87712   2.762   0.364   4.097 -0.1668  0.1755 -0.0709
  665MOL0     C87713   2.537   0.346   4.870 -0.5488  1.0200  0.2633
  665MOL0     C87714   2.481   0.328   4.995 -0.5560  1.0853 -0.3623
  665MOL0     H87715   2.702   0.587   5.464 -0.6988  1.6374  0.1097
  665MOL0     H87716   2.647   0.667   5.677  2.1146 -1.1867 -0.1814
  665MOL0     H87717   2.422   0.394   5.925 -1.1057  0.5227  2.2044
  665MOL0     H87718   2.318   0.542   5.935  0.2417 -0.2376 -2.7260
  665MOL0     H87719   2.593   0.503   6.063 -0.2474  2.6113 -0.8448
  665MOL0     H87720   2.441   0.466   6.155 -2.9599  4.6550  2.1768
  665MOL0     H87721   2.352   0.676   6.138 -1.0522 -2.2586  0.0385
  665MOL0     H87722   2.486   0.741   6.043 -1.3184 -0.7310  0.2707
  665MOL0     H87723   2.644   0.707   6.235  0.2936  1.3161 -0.5133
  665MOL0     H87724   2.523   0.824   6.276  1.9526  1.0742 -0.1040
  665MOL0     H87725   2.527   0.531   6.340 -0.4622 -0.4149 -1.3503
  665MOL0     H87726   2.382   0.641   6.374  0.4433  1.4434 -0.6517
  665MOL0     H87727   2.525   0.795   6.502  1.1732 -0.3854  0.0659
  665MOL0     H87728   2.664   0.684   6.491  0.9843  0.7514  3.5424
  665MOL0     H87729   2.572   0.687   6.699  0.6639  3.2193 -2.7012
  665MOL0     H87730   2.408   0.652   6.636  0.9463  2.3466  0.2854
  665MOL0     H87731   2.638   0.463   6.578  0.4203 -3.7125  0.6415
  665MOL0     H87732   2.470   0.421   6.573  0.0418 -1.3821  1.1987
  665MOL0     H87733   2.322   0.478   6.798  0.4812  1.3901  2.5113
  665MOL0     H87734   2.396   0.314   7.164  1.3784  0.4671 -0.5928
  665MOL0     H87735   2.319   0.218   7.040  0.9082 -0.9497  3.9234
  665MOL0     H87736   2.196   0.470   7.003 -1.4324  0.0258 -0.0990
  665MOL0     H87737   2.258   0.479   7.169  1.5150 -2.0900  0.0408
  665MOL0     H87738   2.061   0.253   7.073 -0.4004 -0.1887 -0.8262
  665MOL0     H87739   2.119   0.254   7.216  0.2270 -2.7543 -3.9138
  665MOL0     H87740   1.896   0.387   7.222  0.5450 -0.6136 -0.8203
  665MOL0     H87741   1.952   0.477   7.071  3.5313  1.6606 -0.5208
  665MOL0     H87742   1.965   0.326   7.413 -2.1298  1.6828 -1.7439
  665MOL0     H87743   2.019   0.307   7.628 -1.7048 -0.7970 -1.0677
  665MOL0     H87744   2.081   0.770   8.019  1.0675 -0.8939 -0.4815
  665MOL0     H87745   2.159   0.801   8.253 -2.8081 -2.0525  0.0811
  665MOL0     H87746   2.567   0.730   8.298  2.8495  0.2993  2.5378
  665MOL0     H87747   2.553   0.566   8.365  3.1187  1.0771  0.7730
  665MOL0     H87748   2.515   0.670   8.589  2.4423 -0.4243  0.3448
  665MOL0     H87749   2.501   0.833   8.514  2.9495  2.6960  0.5176
  665MOL0     H87750   2.731   0.658   8.577 -3.3866 -0.5716 -0.5700
  665MOL0     H87751   2.704   0.814   8.646 -2.6774 -1.2661  1.1205
  665MOL0     H87752   2.785   0.781   8.355  1.7137  0.9899  0.0732
  665MOL0     H87753   2.768   0.935   8.437 -2.0913 -0.3894  0.5236
  665MOL0     H87754   2.951   0.706   8.525 -1.6789  0.5893  2.1201
  665MOL0     H87755   2.965   0.853   8.605  0.6610  1.0524 -1.2324
  665MOL0     H87756   3.066   0.950   8.418  1.2194 -0.2509  4.7808
  665MOL0     H87757   3.024   0.805   8.312  0.1970 -0.3740  1.1723
  665MOL0     H87758   3.260   0.818   8.369  2.8668 -2.0081  1.9522
  665MOL0     H87759   3.214   0.806   8.544 -0.4238  1.8245 -0.6061
  665MOL0     H87760   3.304   0.622   8.384  0.2903 -0.0927  1.9210
  665MOL0     H87761   3.136   0.586   8.334 -1.1294  1.5103  0.8368
  665MOL0     H87762   2.470   0.511   8.180 -3.9518 -3.1417  2.7389
  665MOL0     H87763   2.391   0.493   7.944 -0.8000 -2.5056  1.6395
  665MOL0     H87764   2.151   0.722   7.627  0.5559 -1.8682  3.1004
  665MOL0     H87765   2.126   0.725   7.391  1.6575  0.7409  0.3334
  665MOL0     H87766   2.344   0.360   5.726 -0.7619 -1.7868 -2.4963
  665MOL0     H87767   2.387   0.278   5.506  0.5138 -0.2555  1.3072
  665MOL0     H87768   2.768   0.342   5.175 -0.7179 -0.2203  0.2271
  665MOL0     H87769   2.867   0.368   4.944  0.1430 -1.9314 -2.3004
  665MOL0     H87770   2.599   0.256   4.629  0.1947  0.7657 -0.2216
  665MOL0     H87771   2.769   0.199   4.657 -0.8044 -0.8770 -1.3765
  665MOL0     H87772   2.866   0.356   4.491  1.5257 -1.4702 -1.4431
  665MOL0     H87773   2.741   0.249   4.415 -2.3223  1.7851 -0.5353
  665MOL0     H87774   2.684   0.516   4.532 -0.1381 -0.0838  1.5187
  665MOL0     H87775   2.571   0.409   4.434  1.5095  0.3551 -6.0637
  665MOL0     H87776   2.653   0.587   4.292  0.9927  0.8845 -1.9355
  665MOL0     H87777   2.815   0.546   4.349  0.6439 -2.2745 -0.4049
  665MOL0     H87778   2.781   0.308   4.007 -2.5284  2.4551 -2.1233
  665MOL0     H87779   2.477   0.349   4.779  4.0845 -0.8218 -3.2919
  665MOL0     H87780   2.373   0.328   5.010 -0.5120  1.1486 -0.0338
  666MOL0     O87781  10.321   3.731  10.561  0.0863  0.2230  0.0114
  666MOL0     C87782  10.374   3.792  10.647 -0.5624  0.3314  0.2880
  666MOL0     O87783  10.406   3.745  10.772 -0.5313 -0.6021  0.9318
  666MOL0     C87784  10.362   3.625  10.821 -0.3097 -0.3673 -0.0191
  666MOL0     C87785  10.441   3.541  10.901 -0.8555 -0.0578  0.4948
  666MOL0     C87786  10.397   3.411  10.929  0.1453 -0.0605  0.0522
  666MOL0     C87787  10.260   3.376  10.900  0.2014  0.7100  0.3617
  666MOL0     O87788  10.189   3.279  10.950 -0.0559 -0.1215  0.5918
  666MOL0     C87789  10.252   3.169  11.011  0.0036  0.6596  0.0143
  666MOL0     C87790  10.139   3.081  11.068  0.3507  0.4726  0.3907
  666MOL0     C87791  10.067   2.999  10.949 -0.2923 -0.4406  1.2109
  666MOL0     C87792   9.970   2.903  11.002 -0.3888 -0.3731  1.2393
  666MOL0     C87793   9.897   2.841  10.885 -0.7756  0.5469 -0.0458
  666MOL0     C87794   9.797   2.729  10.930  0.4960  0.7811  0.4847
  666MOL0     C87795   9.704   2.700  10.817  0.0770 -0.0322 -1.0987
  666MOL0     C87796   9.602   2.591  10.855  0.4432  0.5214  0.5972
  666MOL0     N87797   9.476   2.628  10.934 -1.1122 -0.3453 -0.5122
  666MOL0     C87798   9.351   2.579  10.906  0.3284 -0.1527 -0.5082
  666MOL0     C87799   9.274   2.622  10.996  1.0396 -0.1172 -0.5277
  666MOL0     C87800   9.123   2.596  10.998 -0.4872  0.9778  0.2492
  666MOL0     C87801   9.046   2.716  11.038 -0.2151 -0.5289 -0.0956
  666MOL0     C87802   8.992   2.785  10.904  0.2624 -0.0349  0.0041
  666MOL0     C87803   8.891   2.902  10.908 -0.8534  0.1251  0.3936
  666MOL0     O87804   8.774   2.877  10.994 -0.1316 -0.2972 -0.2471
  666MOL0     C87805   8.724   2.974  11.079 -0.0703 -0.4165 -0.6717
  666MOL0     C87806   8.664   3.081  11.028 -0.5351  0.2962 -0.1585
  666MOL0     C87807   8.620   3.182  11.115 -0.2882  0.1795 -0.4090
  666MOL0     C87808   8.623   3.162  11.259 -0.0698  0.6842 -1.2137
  666MOL0     C87809   8.561   3.253  11.356 -0.2581 -0.1319 -0.6233
  666MOL0     O87810   8.544   3.381  11.313  0.6499  0.0508 -0.1031
  666MOL0     C87811   8.490   3.484  11.395 -0.2956  0.2469 -1.5500
  666MOL0     C87812   8.391   3.572  11.339 -0.0569  0.0600 -0.8286
  666MOL0     C87813   8.344   3.691  11.397  0.9705  0.1483  0.7725
  666MOL0     C87814   8.388   3.721  11.528  0.5300 -0.2539  0.8272
  666MOL0     O87815   8.344   3.829  11.598 -0.4944 -0.4290  0.5821
  666MOL0     C87816   8.266   3.926  11.530  0.3208  1.0656 -0.0937
  666MOL0     C87817   8.235   4.031  11.627 -1.0341  0.0372 -0.1781
  666MOL0     C87818   8.132   4.129  11.564 -0.3104 -0.0553  0.0667
  666MOL0     C87819   8.075   4.223  11.670 -0.6277  0.0243 -0.7835
  666MOL0     C87820   7.996   4.338  11.612 -0.2998 -0.7747  0.1317
  666MOL0     C87821   7.901   4.300  11.497  0.0801 -0.0107 -0.3916
  666MOL0     C87822   7.821   4.430  11.465 -0.1639  0.6485  0.4475
  666MOL0     C87823   7.748   4.417  11.327 -0.0303 -0.9012  0.0935
  666MOL0    Cl87824   7.617   4.289  11.322  0.0292 -0.3521  0.2397
  666MOL0     C87825   8.482   3.632  11.586  0.3258  0.1099 -0.6196
  666MOL0     C87826   8.537   3.530  11.519  1.2554  0.0221 -0.5332
  666MOL0     O87827   8.532   3.217  11.469 -0.0112  0.2530  0.3501
  666MOL0     C87828   8.685   3.043  11.303  0.4196 -0.7971 -0.4801
  666MOL0     C87829   8.733   2.949  11.216  0.4007 -1.2587  0.1827
  666MOL0     N87830   9.349   2.714  11.068 -0.4440  0.1119 -0.6047
  666MOL0     N87831   9.471   2.718  11.037 -0.1772 -0.4542  0.3404
  666MOL0     C87832  10.183   3.469  10.824 -0.2600  0.9599 -0.0464
  666MOL0     C87833  10.230   3.592  10.791  0.8767 -1.1222 -0.3033
  666MOL0     C87834  10.407   3.931  10.613  0.0232 -1.0531 -0.5478
  666MOL0     C87835  10.481   4.012  10.698  0.1265 -0.1171  1.0172
  666MOL0     C87836  10.525   4.140  10.662 -0.2585 -0.5268  0.2941
  666MOL0     C87837  10.490   4.195  10.540  0.7982 -0.5910 -0.3526
  666MOL0     O87838  10.537   4.319  10.510  0.4011  0.1692 -0.7468
  666MOL0     C87839  10.447   4.419  10.485  0.8184 -0.2386 -0.1419
  666MOL0     C87840  10.515   4.551  10.536  0.9445 -0.0161 -1.0984
  666MOL0     C87841  10.430   4.672  10.511 -1.0126  0.5972  0.6622
  666MOL0     C87842  10.464   4.792  10.598  0.2680  0.6023  0.4143
  666MOL0     C87843  10.363   4.903  10.571  0.8467 -0.6000 -0.6453
  666MOL0     C87844  10.281   4.986  10.541  1.1348  0.1613 -0.7605
  666MOL0     C87845  10.404   4.115  10.453  1.0415  0.4071 -0.0732
  666MOL0     C87846  10.368   3.989  10.489 -0.7184  0.1033 -0.5295
  666MOL0     H87847  10.535   3.579  10.940 -1.5429  1.5932  0.6206
  666MOL0     H87848  10.473   3.350  10.976 -1.3978 -1.7379  0.4412
  666MOL0     H87849  10.332   3.183  11.085 -0.9776 -2.8778  2.0112
  666MOL0     H87850  10.303   3.114  10.931 -0.8936  0.4377 -0.4228
  666MOL0     H87851  10.068   3.136  11.130 -2.7789 -0.4222 -2.1432
  666MOL0     H87852  10.179   3.014  11.144 -0.1767 -1.5146 -1.0143
  666MOL0     H87853  10.149   2.960  10.889 -0.5640  2.1473 -1.0042
  666MOL0     H87854  10.000   3.058  10.886 -1.7283 -0.5910  2.5132
  666MOL0     H87855  10.015   2.823  11.061 -2.7669 -1.0642  2.2279
  666MOL0     H87856   9.902   2.963  11.062 -1.9115  0.3495 -1.0904
  666MOL0     H87857   9.964   2.801  10.808 -1.7697 -2.6377  0.5906
  666MOL0     H87858   9.837   2.918  10.836  0.0392  1.5028  0.4327
  666MOL0     H87859   9.757   2.767  11.025  3.4405  1.8769  1.4083
  666MOL0     H87860   9.845   2.636  10.961 -3.3270 -2.3166 -2.0568
  666MOL0     H87861   9.656   2.797  10.800 -0.3970 -0.3511 -1.6176
  666MOL0     H87862   9.759   2.660  10.731 -0.3265 -2.3634 -0.3365
  666MOL0     H87863   9.649   2.515  10.919 -1.4099 -1.4313 -0.2324
  666MOL0     H87864   9.565   2.535  10.769  0.0986 -0.2907  1.2613
  666MOL0     H87865   9.323   2.505  10.832 -0.0394 -0.3602 -0.1636
  666MOL0     H87866   9.108   2.516  11.071 -1.0621  0.4213 -0.4590
  666MOL0     H87867   9.079   2.539  10.916 -1.8125 -2.1287  2.8779
  666MOL0     H87868   9.106   2.784  11.100 -0.0000 -0.1731 -0.6828
  666MOL0     H87869   8.963   2.683  11.101 -0.7035 -2.9491 -1.8505
  666MOL0     H87870   9.082   2.826  10.858  1.0741 -2.8641 -1.1262
  666MOL0     H87871   8.949   2.714  10.833  1.5182  1.2090 -2.1039
  666MOL0     H87872   8.855   2.918  10.806 -3.3105 -0.0222  1.1660
  666MOL0     H87873   8.952   2.989  10.935  0.2804  0.0983 -1.8917
  666MOL0     H87874   8.665   3.106  10.922 -0.6258  3.1917  0.4419
  666MOL0     H87875   8.581   3.271  11.068 -1.1535 -0.9477 -1.9091
  666MOL0     H87876   8.359   3.533  11.243 -0.3042 -0.0172 -0.7149
  666MOL0     H87877   8.271   3.752  11.346  2.4888  1.1609 -0.2714
  666MOL0     H87878   8.181   3.867  11.492 -0.9751  3.2454 -0.7775
  666MOL0     H87879   8.308   3.989  11.451 -2.9967  2.5651 -0.8311
  666MOL0     H87880   8.327   4.087  11.644 -0.5984 -1.1988  1.9305
  666MOL0     H87881   8.192   3.976  11.711  1.3737 -2.0751 -0.2101
  666MOL0     H87882   8.052   4.067  11.524  0.1759 -0.9973  0.5154
  666MOL0     H87883   8.175   4.187  11.482 -0.9540  0.6692  0.2256
  666MOL0     H87884   8.020   4.154  11.734  1.2730 -1.1279 -0.3110
  666MOL0     H87885   8.161   4.257  11.729  1.7237  0.1231 -4.0003
  666MOL0     H87886   8.072   4.410  11.578 -0.9524  0.3907  1.0552
  666MOL0     H87887   7.937   4.395  11.685  0.0703  1.7265 -1.3840
  666MOL0     H87888   7.829   4.223  11.526  1.1356 -0.7851  0.2603
  666MOL0     H87889   7.956   4.281  11.405  0.9269  1.9425 -0.3324
  666MOL0     H87890   7.752   4.441  11.549  0.4802 -0.4946  1.1546
  666MOL0     H87891   7.889   4.515  11.463  0.5121  0.1605  1.9483
  666MOL0     H87892   7.839   4.386  11.275 -0.0141 -0.3423 -0.2096
  666MOL0     H87893   7.720   4.511  11.280  0.6291 -1.3880 -1.3477
  666MOL0     H87894   8.532   3.639  11.682  0.5509 -4.1792 -0.2398
  666MOL0     H87895   8.619   3.476  11.567  0.3482  0.6651  1.9131
  666MOL0     H87896   8.679   3.002  11.403  1.2663  1.8453  0.7306
  666MOL0     H87897   8.770   2.852  11.244 -2.2010 -2.8016 -1.3231
  666MOL0     H87898  10.079   3.459  10.797 -0.0113  0.5854 -0.9150
  666MOL0     H87899  10.156   3.646  10.733  0.6008 -1.5909 -0.3867
  666MOL0     H87900  10.480   3.961  10.794  1.3612 -1.8124  0.2046
  666MOL0     H87901  10.594   4.196  10.725  0.4293 -3.0815  1.9905
  666MOL0     H87902  10.345   4.406  10.520 -0.5673  1.3886 -3.1538
  666MOL0     H87903  10.429   4.436  10.378 -1.4974  1.5867  0.4554
  666MOL0     H87904  10.541   4.544  10.642 -0.4560 -1.7423 -0.8295
  666MOL0     H87905  10.613   4.547  10.487  0.1964  0.0069 -2.6438
  666MOL0     H87906  10.325   4.643  10.525 -1.6893  2.3248 -0.4516
  666MOL0     H87907  10.437   4.708  10.408  1.4406  2.6548  1.4461
  666MOL0     H87908  10.457   4.772  10.705 -0.5274  2.7800  0.8182
  666MOL0     H87909  10.559   4.840  10.573  0.4385  2.1780  3.6169
  666MOL0     H87910  10.204   5.060  10.540  1.0129  0.0607 -2.9371
  666MOL0     H87911  10.370   4.152  10.356 -2.1682  0.7238  1.0731
  666MOL0     H87912  10.315   3.922  10.423 -0.9650 -0.6808  0.4477
  667MOL0     O87913   9.748   3.629   2.286  0.0272 -1.4533  0.1609
  667MOL0     C87914   9.659   3.705   2.324  0.2370 -0.2000  1.4140
  667MOL0     O87915   9.527   3.695   2.291 -0.9204 -0.7908  0.9709
  667MOL0     C87916   9.492   3.583   2.210  0.7384  0.1054 -0.3255
  667MOL0     C87917   9.444   3.472   2.287  0.8327 -0.1815  1.0312
  667MOL0     C87918   9.387   3.366   2.215  0.3294  0.2521 -0.2752
  667MOL0     C87919   9.379   3.357   2.072  0.3653 -0.2033 -0.7052
  667MOL0     O87920   9.328   3.254   2.003 -0.2690 -0.9283  0.2732
  667MOL0     C87921   9.243   3.154   2.063 -0.7949  0.2229 -0.3339
  667MOL0     C87922   9.315   3.026   2.111 -0.6638  0.4888 -0.8879
  667MOL0     C87923   9.368   2.950   1.994  0.7403 -1.4001  0.5733
  667MOL0     C87924   9.466   2.849   2.028 -0.3006 -0.3836 -0.0219
  667MOL0     C87925   9.509   2.790   1.895  1.3982 -0.7047  0.1015
  667MOL0     C87926   9.615   2.683   1.925  0.1854 -0.0573  0.5994
  667MOL0     C87927   9.741   2.727   1.998 -1.4654 -0.3253 -0.3309
  667MOL0     C87928   9.873   2.671   1.935 -0.9057 -0.3346  0.2071
  667MOL0     N87929   9.993   2.713   2.011 -0.2702 -0.4156 -0.4227
  667MOL0     C87930  10.009   2.722   2.146  0.6967 -1.5015 -1.0090
  667MOL0     C87931  10.135   2.767   2.187 -0.4534 -0.5678  0.5015
  667MOL0     C87932  10.171   2.789   2.332  0.2189  0.0223 -0.4522
  667MOL0     C87933  10.297   2.720   2.380 -0.8738  0.1568  0.5125
  667MOL0     C87934  10.415   2.818   2.360 -0.4356 -0.8135  0.3502
  667MOL0     C87935  10.538   2.830   2.464  0.0741  0.6685  0.5030
  667MOL0     O87936  10.646   2.929   2.427  0.3486 -0.1371 -0.1565
  667MOL0     C87937  10.775   2.908   2.483  0.2979  0.9088  0.4553
  667MOL0     C87938  10.844   3.015   2.538  1.2430  1.2374 -0.3556
  667MOL0     C87939  10.973   2.984   2.589  0.7602  0.0877 -0.0085
  667MOL0     C87940  11.032   2.857   2.581 -0.1993  0.1053 -0.3834
  667MOL0     C87941  11.163   2.837   2.639  1.0508 -0.2825  0.0512
  667MOL0     O87942  11.256   2.765   2.573 -0.6671 -0.6132  0.3061
  667MOL0     C87943  11.391   2.773   2.596  0.3688 -0.4147 -0.2522
  667MOL0     C87944  11.464   2.666   2.552 -0.4737  0.5028 -0.1622
  667MOL0     C87945  11.600   2.651   2.593  0.3642  0.0790  0.4529
  667MOL0     C87946  11.667   2.761   2.654 -0.3784  0.7887  0.8885
  667MOL0     O87947  11.802   2.745   2.669 -0.1720  0.3102  0.1014
  667MOL0     C87948  11.873   2.720   2.544 -0.8237 -0.7424 -0.6046
  667MOL0     C87949  11.997   2.815   2.542  0.6249 -0.5129  1.0165
  667MOL0     C87950  12.089   2.779   2.410 -0.4172  0.3080 -0.1697
  667MOL0     C87951  12.208   2.860   2.421 -0.0787 -0.7212 -0.6734
  667MOL0     C87952  12.323   2.774   2.482  0.1114 -1.0311  0.1402
  667MOL0     C87953  12.424   2.861   2.551  0.2590 -0.3206 -1.2550
  667MOL0     C87954  12.543   2.784   2.614 -0.6172  0.1397 -1.1434
  667MOL0     C87955  12.650   2.881   2.668  0.3793 -0.3285  0.0125
  667MOL0    Cl87956  12.798   2.800   2.731 -0.0216  0.4393  0.2203
  667MOL0     C87957  11.597   2.878   2.684  0.3307 -0.2220  0.1468
  667MOL0     C87958  11.458   2.889   2.653  1.1962  0.9409  0.8056
  667MOL0     O87959  11.176   2.897   2.749  0.1929 -0.1294  0.1230
  667MOL0     C87960  10.971   2.763   2.500 -0.5587 -0.6161 -0.0982
  667MOL0     C87961  10.841   2.780   2.462  0.2789 -0.0782  0.1208
  667MOL0     N87962  10.199   2.778   2.063  0.1573 -1.2348  0.2314
  667MOL0     N87963  10.117   2.751   1.965 -0.7258  0.0518 -0.1825
  667MOL0     C87964   9.415   3.474   2.001 -0.4225 -0.9445 -0.3299
  667MOL0     C87965   9.481   3.581   2.067 -0.1215 -1.0300 -0.2669
  667MOL0     C87966   9.702   3.811   2.417 -0.0502 -0.3143  0.3772
  667MOL0     C87967   9.616   3.909   2.479  1.0611  0.0118 -0.4306
  667MOL0     C87968   9.663   4.017   2.552 -0.7720  0.0156 -0.0294
  667MOL0     C87969   9.798   4.020   2.597 -0.1755 -1.4126  0.0928
  667MOL0     O87970   9.853   4.121   2.663  0.6490  0.2968 -0.0657
  667MOL0     C87971   9.758   4.220   2.718  0.3308  0.7768 -0.1656
  667MOL0     C87972   9.842   4.334   2.780 -0.4137  1.1099  1.0031
  667MOL0     C87973   9.943   4.387   2.686  0.4513  0.2719 -0.8260
  667MOL0     C87974   9.884   4.433   2.553 -0.4979  0.2472  0.0698
  667MOL0     C87975   9.797   4.539   2.576  0.2523 -0.7520  0.4791
  667MOL0     C87976   9.706   4.613   2.608 -0.6486  0.0266 -0.2681
  667MOL0     C87977   9.881   3.918   2.549 -0.1780  0.2814  0.5120
  667MOL0     C87978   9.839   3.815   2.456  0.0830  0.2775 -0.6996
  667MOL0     H87979   9.441   3.471   2.396  1.6998  2.4253  1.1652
  667MOL0     H87980   9.347   3.287   2.279 -0.3038 -0.3513 -1.3908
  667MOL0     H87981   9.169   3.128   1.987 -0.6837  2.4078 -1.2791
  667MOL0     H87982   9.185   3.197   2.145  1.4539 -1.0487  2.0542
  667MOL0     H87983   9.235   2.964   2.153  2.1990 -2.6694  0.3495
  667MOL0     H87984   9.382   3.054   2.193 -1.2372  0.2121 -0.3155
  667MOL0     H87985   9.416   3.031   1.938 -1.5608  0.8125  1.6266
  667MOL0     H87986   9.288   2.902   1.937  0.0204 -2.1890  2.1801
  667MOL0     H87987   9.543   2.906   2.081 -0.9942  0.6596 -0.1162
  667MOL0     H87988   9.424   2.766   2.087 -1.2817 -0.7064 -1.1313
  667MOL0     H87989   9.557   2.868   1.836  1.2220  0.1175  1.0260
  667MOL0     H87990   9.428   2.747   1.835  1.0482 -0.8102  0.6490
  667MOL0     H87991   9.651   2.653   1.826  1.8585 -0.6864  1.3723
  667MOL0     H87992   9.563   2.604   1.980  0.1208 -0.5876 -0.2128
  667MOL0     H87993   9.754   2.835   1.990 -2.1326 -0.2203 -0.0771
  667MOL0     H87994   9.741   2.700   2.104 -1.0025  1.2575  0.0927
  667MOL0     H87995   9.877   2.702   1.830 -0.1873 -3.5676 -0.8261
  667MOL0     H87996   9.877   2.562   1.934  4.6313 -0.4152 -1.3568
  667MOL0     H87997   9.932   2.709   2.221  0.4466  0.3777 -0.8848
  667MOL0     H87998  10.090   2.744   2.389  1.0850 -2.1334 -0.8246
  667MOL0     H87999  10.168   2.895   2.361 -2.1843 -0.8906  3.2728
  667MOL0     H88000  10.324   2.628   2.328 -1.8120  1.0687 -1.7461
  667MOL0     H88001  10.293   2.703   2.488 -4.3221 -0.6556  0.3900
  667MOL0     H88002  10.457   2.776   2.268  2.6199 -2.4338  2.3005
  667MOL0     H88003  10.395   2.924   2.341 -0.0280 -0.8292 -0.1954
  667MOL0     H88004  10.583   2.731   2.455 -1.7985 -0.0927 -1.1777
  667MOL0     H88005  10.491   2.862   2.558 -0.2936  1.4814  0.0567
  667MOL0     H88006  10.783   3.104   2.546  0.4705  0.9530 -2.3368
  667MOL0     H88007  11.022   3.064   2.643  0.0550  0.3627  0.2361
  667MOL0     H88008  11.414   2.574   2.523  0.4068 -0.0617  0.0975
  667MOL0     H88009  11.652   2.560   2.566  0.5369  0.9004 -2.3935
  667MOL0     H88010  11.802   2.740   2.463 -3.2482  0.3286  1.6287
  667MOL0     H88011  11.904   2.615   2.532 -2.3800 -1.1382 -1.6043
  667MOL0     H88012  12.052   2.795   2.634  1.6067 -1.7507  0.1891
  667MOL0     H88013  11.974   2.922   2.541  1.4857 -0.2877 -1.7675
  667MOL0     H88014  12.030   2.803   2.321 -3.5054  2.1620  2.1754
  667MOL0     H88015  12.117   2.674   2.410 -1.3039  0.0501 -1.3574
  667MOL0     H88016  12.229   2.902   2.322 -5.3120  3.3274 -0.4572
  667MOL0     H88017  12.181   2.946   2.482 -0.3137 -1.5266  0.3844
  667MOL0     H88018  12.385   2.716   2.412  2.2068 -1.4296  2.1915
  667MOL0     H88019  12.280   2.707   2.557 -0.1103  0.5118  1.4165
  667MOL0     H88020  12.382   2.935   2.620 -1.0022 -2.2024  0.0744
  667MOL0     H88021  12.468   2.915   2.466 -0.0842 -0.7847 -1.7379
  667MOL0     H88022  12.516   2.716   2.695 -3.6487  1.7917 -0.6139
  667MOL0     H88023  12.585   2.736   2.526  0.1852 -0.6031 -0.3728
  667MOL0     H88024  12.604   2.936   2.750 -1.1110 -3.3682  1.3668
  667MOL0     H88025  12.688   2.960   2.603  2.3778  0.6631  2.2747
  667MOL0     H88026  11.655   2.965   2.714 -0.6270  0.0269  1.3804
  667MOL0     H88027  11.406   2.979   2.682  0.6776  0.0682  2.8062
  667MOL0     H88028  11.012   2.666   2.472 -4.0254 -1.9384 -1.0014
  667MOL0     H88029  10.810   2.689   2.410 -1.9494  0.8760 -0.3581
  667MOL0     H88030   9.396   3.478   1.894 -2.3412 -1.3892 -0.0287
  667MOL0     H88031   9.501   3.678   2.022 -2.1981  1.1571  2.9930
  667MOL0     H88032   9.512   3.905   2.448  0.9305  1.7999 -0.3168
  667MOL0     H88033   9.584   4.090   2.564 -2.8047 -1.7844 -1.6058
  667MOL0     H88034   9.704   4.175   2.802  0.8372  0.5642  0.0540
  667MOL0     H88035   9.693   4.254   2.637 -0.1718 -1.9651 -0.9987
  667MOL0     H88036   9.780   4.416   2.817  1.6376  3.7926 -1.0560
  667MOL0     H88037   9.901   4.299   2.865  0.0773  4.5526  2.2600
  667MOL0     H88038  10.025   4.318   2.668  0.2826 -0.2555  0.3884
  667MOL0     H88039   9.986   4.477   2.731  0.8103 -1.9067  3.6202
  667MOL0     H88040   9.968   4.451   2.485  1.7896 -2.1841  2.0509
  667MOL0     H88041   9.833   4.345   2.513  2.9689 -1.3748 -1.1199
  667MOL0     H88042   9.622   4.676   2.630 -3.0225 -3.5381  1.9624
  667MOL0     H88043   9.981   3.925   2.591  0.8688 -0.3156 -1.7454
  667MOL0     H88044   9.906   3.741   2.414 -1.0834 -0.8741 -0.5760
  668MOL0     O88045   2.600   8.580   6.860 -1.1122 -0.1902 -0.2213
  668MOL0     C88046   2.604   8.693   6.913 -0.8393  0.1713 -0.2235
  668MOL0     O88047   2.519   8.739   7.008 -0.1760  0.2980 -0.2363
  668MOL0     C88048   2.433   8.634   7.048 -0.2825 -0.2589 -0.2067
  668MOL0     C88049   2.457   8.546   7.154  0.3196 -1.0080  0.2386
  668MOL0     C88050   2.356   8.450   7.192 -0.1158 -0.2679 -0.5339
  668MOL0     C88051   2.237   8.434   7.115  1.4485 -0.4056  1.3738
  668MOL0     O88052   2.133   8.350   7.129  0.9299  0.4886  0.5266
  668MOL0     C88053   2.164   8.224   7.183  0.4429 -0.2585  0.0402
  668MOL0     C88054   2.042   8.157   7.250  1.0592 -1.1211  0.9600
  668MOL0     C88055   1.935   8.120   7.148  0.2916 -0.5962  0.2467
  668MOL0     C88056   1.817   8.065   7.235  0.2886 -0.0527 -0.5189
  668MOL0     C88057   1.711   8.016   7.137  0.7958  0.3407  0.3898
  668MOL0     C88058   1.748   7.861   7.108  0.0302 -1.3974  0.3770
  668MOL0     C88059   1.614   7.792   7.067 -0.3648 -0.5553  0.6011
  668MOL0     C88060   1.527   7.758   7.185 -0.8440 -0.4293  0.1841
  668MOL0     N88061   1.388   7.716   7.162 -0.2009 -0.3496 -0.8586
  668MOL0     C88062   1.285   7.805   7.150 -1.0688 -0.2279 -0.9328
  668MOL0     C88063   1.179   7.735   7.104 -0.2998 -0.3301  0.9117
  668MOL0     C88064   1.043   7.795   7.071 -0.4037 -0.1691 -0.0638
  668MOL0     C88065   1.042   7.839   6.926  0.1720 -0.4422  0.0148
  668MOL0     C88066   1.001   7.720   6.830 -0.3579 -0.8941 -0.8452
  668MOL0     C88067   0.975   7.769   6.685  0.1876 -0.2173  0.6259
  668MOL0     O88068   1.090   7.837   6.637  0.4031  0.2441 -0.6142
  668MOL0     C88069   1.089   7.896   6.513  0.1867 -0.1886 -0.4131
  668MOL0     C88070   1.211   7.905   6.451  0.1072 -0.7148 -0.0143
  668MOL0     C88071   1.226   7.992   6.343 -0.3983 -0.0392  0.0061
  668MOL0     C88072   1.117   8.057   6.289 -0.3313 -0.5856  0.2344
  668MOL0     C88073   1.132   8.143   6.162 -0.5128 -0.5162  0.4472
  668MOL0     O88074   1.246   8.126   6.099  0.1470  0.0492 -0.0136
  668MOL0     C88075   1.279   8.210   5.999  0.5527 -0.0748 -0.3009
  668MOL0     C88076   1.411   8.276   6.005  0.6457 -0.2054 -0.3786
  668MOL0     C88077   1.448   8.367   5.913 -0.6827 -0.5272  0.0474
  668MOL0     C88078   1.381   8.378   5.789 -0.0262  0.8462 -0.2285
  668MOL0     O88079   1.418   8.462   5.683 -0.3849  0.6325  1.0371
  668MOL0     C88080   1.549   8.501   5.670 -0.2810 -1.0804  0.4566
  668MOL0     C88081   1.574   8.567   5.533 -0.6139 -0.9768 -0.3777
  668MOL0     C88082   1.711   8.629   5.528  0.2020  0.1719  0.7652
  668MOL0     C88083   1.756   8.641   5.380  0.7535  0.1975  0.3415
  668MOL0     C88084   1.890   8.715   5.373  0.2788 -0.0462  0.3449
  668MOL0     C88085   1.940   8.706   5.231  0.0222 -0.4408  0.1713
  668MOL0     C88086   2.040   8.820   5.193  0.5105  0.2636 -0.3945
  668MOL0     C88087   2.010   8.852   5.050  0.3973  0.4890  0.3770
  668MOL0    Cl88088   2.155   8.960   4.993 -0.0307  0.5280  0.6681
  668MOL0     C88089   1.262   8.301   5.776  0.2409 -0.9798 -0.3888
  668MOL0     C88090   1.213   8.214   5.882 -0.3426 -1.1687 -0.2175
  668MOL0     O88091   1.038   8.216   6.126  0.4966 -0.0481 -0.2587
  668MOL0     C88092   0.994   8.041   6.352  0.1998  0.3132  1.0115
  668MOL0     C88093   0.982   7.962   6.465  0.5580 -0.7829  0.0403
  668MOL0     N88094   1.222   7.603   7.083 -0.5956 -0.0062 -0.6386
  668MOL0     N88095   1.349   7.599   7.113  0.2770 -1.0771 -0.5841
  668MOL0     C88096   2.213   8.532   7.016  0.4986  0.2598 -0.2118
  668MOL0     C88097   2.311   8.630   6.982 -0.1329 -0.1992  0.8334
  668MOL0     C88098   2.706   8.791   6.864 -0.3321  0.1436  0.7122
  668MOL0     C88099   2.805   8.746   6.778 -0.1081 -0.3527 -0.8558
  668MOL0     C88100   2.913   8.824   6.740  0.1733  0.1012 -0.2649
  668MOL0     C88101   2.938   8.943   6.806  1.0690 -0.0869 -0.8178
  668MOL0     O88102   3.047   9.021   6.772  0.1033 -0.7507 -0.4009
  668MOL0     C88103   3.099   9.104   6.880 -0.6405 -0.6474  0.5534
  668MOL0     C88104   3.237   9.165   6.815  0.3630  0.3891 -0.3016
  668MOL0     C88105   3.203   9.286   6.720 -0.3125  0.9065 -0.9195
  668MOL0     C88106   3.334   9.318   6.638  0.6046  0.0435 -0.2443
  668MOL0     C88107   3.350   9.455   6.592 -0.2110 -0.9323 -0.4682
  668MOL0     C88108   3.356   9.564   6.543 -0.9788 -0.0128  0.6918
  668MOL0     C88109   2.831   8.989   6.890 -0.4440  0.1028 -0.6149
  668MOL0     C88110   2.721   8.910   6.917  1.0663 -0.9585 -0.0238
  668MOL0     H88111   2.538   8.549   7.226  1.3520 -1.8513 -0.8432
  668MOL0     H88112   2.384   8.381   7.271 -0.1785  0.6293  0.2965
  668MOL0     H88113   2.239   8.225   7.262  0.0368 -1.5698  0.4725
  668MOL0     H88114   2.203   8.163   7.102 -2.5229 -1.2446 -0.7639
  668MOL0     H88115   1.998   8.229   7.320 -1.2207 -3.1010  1.7190
  668MOL0     H88116   2.078   8.077   7.315 -0.9094 -0.5702  2.8516
  668MOL0     H88117   1.973   8.051   7.073 -1.1087 -2.1875  0.9400
  668MOL0     H88118   1.894   8.202   7.088 -2.6257 -1.0243  1.4645
  668MOL0     H88119   1.853   7.990   7.306 -3.0550 -0.8861  0.4570
  668MOL0     H88120   1.764   8.141   7.292  1.5623  1.1319 -0.8523
  668MOL0     H88121   1.697   8.080   7.049 -0.8979  0.5643  0.7830
  668MOL0     H88122   1.620   8.029   7.196  1.0176 -2.7028  1.5528
  668MOL0     H88123   1.791   7.817   7.199  1.1272 -0.1099  0.5207
  668MOL0     H88124   1.820   7.854   7.026 -0.2158 -2.3583  0.2406
  668MOL0     H88125   1.550   7.870   7.023  1.2694  0.5995  0.1699
  668MOL0     H88126   1.630   7.713   6.993 -1.8428 -0.9613  0.6864
  668MOL0     H88127   1.525   7.849   7.246  1.4841  1.5333 -2.4275
  668MOL0     H88128   1.574   7.681   7.247  2.1276  2.1957  1.4417
  668MOL0     H88129   1.300   7.908   7.180  0.2934 -1.3741  3.0588
  668MOL0     H88130   1.027   7.883   7.135 -1.2693  0.1106 -0.6464
  668MOL0     H88131   0.961   7.724   7.086 -0.0364 -0.5619  0.1070
  668MOL0     H88132   1.134   7.888   6.893  1.1766  0.2193  3.4010
  668MOL0     H88133   0.977   7.927   6.917 -1.2360 -1.2671  1.6892
  668MOL0     H88134   1.072   7.637   6.837 -1.0465 -1.3636  1.8868
  668MOL0     H88135   0.905   7.686   6.870 -0.4241  2.6442  2.5067
  668MOL0     H88136   0.898   7.845   6.703  1.4331  1.6196 -1.4280
  668MOL0     H88137   0.937   7.700   6.609 -1.5170 -0.0224  1.2467
  668MOL0     H88138   1.286   7.845   6.502  0.0139  0.9966  2.3215
  668MOL0     H88139   1.321   7.991   6.290  0.5859  2.0755  1.5852
  668MOL0     H88140   1.491   8.259   6.075 -0.4732 -2.8251  0.3858
  668MOL0     H88141   1.546   8.414   5.917 -0.2940 -1.2758 -0.4242
  668MOL0     H88142   1.611   8.411   5.674  0.5755 -0.6914 -1.8842
  668MOL0     H88143   1.580   8.575   5.744 -2.6458  1.1108 -0.5924
  668MOL0     H88144   1.504   8.650   5.523  0.8613  0.3594  0.0396
  668MOL0     H88145   1.563   8.514   5.438  0.0614  1.6025 -1.9970
  668MOL0     H88146   1.789   8.573   5.581  0.5753  0.4034  0.4675
  668MOL0     H88147   1.698   8.723   5.582  1.4166  0.2131  1.0117
  668MOL0     H88148   1.763   8.542   5.334  3.3659  0.9363 -1.1098
  668MOL0     H88149   1.682   8.693   5.319  0.3279 -2.6484 -1.7508
  668MOL0     H88150   1.975   8.693   5.439  2.7707  0.4584 -2.4905
  668MOL0     H88151   1.873   8.822   5.385  0.1016  0.3496 -2.6633
  668MOL0     H88152   1.858   8.733   5.164 -0.3209 -0.3422  0.6299
  668MOL0     H88153   1.991   8.611   5.209 -0.3683 -0.8748  1.0776
  668MOL0     H88154   2.043   8.906   5.260  4.6425 -0.4994  0.6422
  668MOL0     H88155   2.137   8.771   5.203 -1.7138 -4.2644  3.6108
  668MOL0     H88156   1.915   8.904   5.034 -0.3846 -1.2638 -0.9306
  668MOL0     H88157   2.013   8.770   4.978 -0.6547  0.4234  0.4010
  668MOL0     H88158   1.202   8.293   5.687  0.4656  1.0583 -0.7603
  668MOL0     H88159   1.121   8.158   5.869 -1.2132  0.2239 -0.2183
  668MOL0     H88160   0.912   8.097   6.308  0.0447  0.1481  1.0870
  668MOL0     H88161   0.881   7.952   6.504 -0.7265  1.9019 -2.2626
  668MOL0     H88162   2.111   8.541   6.981 -1.2565  0.4926  4.3278
  668MOL0     H88163   2.278   8.704   6.909  1.5296 -0.6795 -0.4725
  668MOL0     H88164   2.801   8.646   6.735  3.1979 -0.6149 -0.8100
  668MOL0     H88165   2.983   8.793   6.663 -0.8102  0.7296 -1.4562
  668MOL0     H88166   3.121   9.045   6.970  1.1089  0.9115  1.2014
  668MOL0     H88167   3.032   9.187   6.907 -0.9378 -0.7881  0.2597
  668MOL0     H88168   3.303   9.195   6.897  2.0407 -0.2308 -1.3678
  668MOL0     H88169   3.273   9.085   6.749  0.5316  0.8686 -0.8063
  668MOL0     H88170   3.179   9.379   6.772  2.6989  1.1855  0.1250
  668MOL0     H88171   3.117   9.258   6.658 -1.2139 -0.5046  0.8530
  668MOL0     H88172   3.425   9.303   6.698 -0.6090 -0.5254  1.5272
  668MOL0     H88173   3.329   9.250   6.552  0.3594  1.0337 -1.0425
  668MOL0     H88174   3.355   9.669   6.519  1.6618  0.7675  3.3167
  668MOL0     H88175   2.833   9.091   6.927 -0.4825  0.3354 -1.2549
  668MOL0     H88176   2.638   8.949   6.975 -0.8884  0.4523 -3.4841
  669MOL0     O88177   5.486   1.127   7.513 -0.0755  0.3608 -0.7142
  669MOL0     C88178   5.503   1.092   7.630 -0.1809 -0.1899  0.2842
  669MOL0     O88179   5.624   1.082   7.694 -0.0213  0.1487  0.0931
  669MOL0     C88180   5.735   1.096   7.609 -0.8292 -0.2665  0.4080
  669MOL0     C88181   5.800   0.983   7.556  0.4286 -0.4793  0.1163
  669MOL0     C88182   5.913   1.005   7.473  0.6423  0.0241 -0.7544
  669MOL0     C88183   5.963   1.132   7.447  1.8040  0.4774  0.2038
  669MOL0     O88184   6.070   1.163   7.368  0.2372 -0.7364 -0.2039
  669MOL0     C88185   6.155   1.052   7.331  0.0476 -0.3630  0.9896
  669MOL0     C88186   6.107   0.980   7.202  1.3605  0.0432  0.1173
  669MOL0     C88187   6.206   0.875   7.156 -1.3272 -0.2202  0.1039
  669MOL0     C88188   6.178   0.808   7.023 -0.0633 -0.3152  0.7016
  669MOL0     C88189   6.279   0.695   7.004  0.4094 -0.4135  0.2156
  669MOL0     C88190   6.270   0.599   6.886  0.0012  0.4768 -0.3398
  669MOL0     C88191   6.277   0.673   6.744  0.4914 -1.0791  0.0941
  669MOL0     C88192   6.145   0.735   6.698  1.1261 -0.2353 -0.6337
  669MOL0     N88193   6.033   0.650   6.735  0.0349 -0.0594 -0.0040
  669MOL0     C88194   6.032   0.522   6.693  0.1777  0.6031  0.3416
  669MOL0     C88195   5.925   0.462   6.760 -0.0786 -0.1722  0.7101
  669MOL0     C88196   5.884   0.323   6.749 -0.1016 -0.6818  0.7336
  669MOL0     C88197   5.733   0.312   6.774  0.4668  0.6585  0.2338
  669MOL0     C88198   5.682   0.180   6.738 -0.1799  1.0696 -0.2618
  669MOL0     C88199   5.639   0.160   6.589 -0.2355  0.6460 -0.6730
  669MOL0     O88200   5.615   0.026   6.542 -1.1395 -0.2443 -0.0022
  669MOL0     C88201   5.503  -0.030   6.583 -0.0887 -0.8765 -0.2008
  669MOL0     C88202   5.523  -0.171   6.606 -0.0209  0.5454 -0.3143
  669MOL0     C88203   5.419  -0.250   6.637  0.3258  0.8001  0.2189
  669MOL0     C88204   5.290  -0.197   6.654  0.2787 -0.3729 -0.3146
  669MOL0     C88205   5.170  -0.285   6.695 -0.7564  0.2405 -0.5350
  669MOL0     O88206   5.192  -0.415   6.699  0.1885  0.6523  0.8595
  669MOL0     C88207   5.082  -0.504   6.697  0.5928  0.6306 -0.6298
  669MOL0     C88208   4.947  -0.471   6.676 -0.6963  0.3029  0.2381
  669MOL0     C88209   4.850  -0.577   6.677  0.0679  0.5825  0.4944
  669MOL0     C88210   4.887  -0.709   6.705 -0.4362 -0.1610  1.1795
  669MOL0     O88211   4.784  -0.802   6.693 -0.1062 -0.5415 -0.2193
  669MOL0     C88212   4.816  -0.928   6.750 -0.7389  0.2491 -0.7064
  669MOL0     C88213   4.792  -0.932   6.903 -0.0121  0.5980 -0.1295
  669MOL0     C88214   4.821  -1.069   6.967  0.9498 -1.4556 -0.8976
  669MOL0     C88215   4.944  -1.144   6.916 -1.0345 -0.1235  0.4607
  669MOL0     C88216   5.012  -1.239   7.013  0.5157 -0.0241  0.2112
  669MOL0     C88217   4.927  -1.357   7.038  0.0985 -0.0399  0.0107
  669MOL0     C88218   4.878  -1.443   6.924  0.3301  0.2982  0.7096
  669MOL0     C88219   4.831  -1.587   6.959  0.5312 -0.1501  0.1366
  669MOL0    Cl88220   4.695  -1.558   7.069 -0.0631  0.4294  0.4681
  669MOL0     C88221   5.021  -0.744   6.737  0.3778 -0.0756  0.0732
  669MOL0     C88222   5.114  -0.641   6.730  0.1114 -0.0294 -0.4218
  669MOL0     O88223   5.066  -0.228   6.731 -0.3130  0.8527  0.2332
  669MOL0     C88224   5.275  -0.063   6.639  0.6007  0.5543 -0.0147
  669MOL0     C88225   5.374   0.021   6.594 -0.8417  0.0624  0.6215
  669MOL0     N88226   5.871   0.552   6.845 -0.3581  0.3857 -0.3190
  669MOL0     N88227   5.938   0.663   6.828  0.3153 -0.5445 -0.5219
  669MOL0     C88228   5.892   1.242   7.502  0.1598  0.3328  0.5088
  669MOL0     C88229   5.775   1.227   7.583 -1.1944 -0.3165 -0.3185
  669MOL0     C88230   5.372   1.075   7.687 -0.6272 -0.4255 -1.1061
  669MOL0     C88231   5.262   1.153   7.634  0.1594  0.2549 -0.1470
  669MOL0     C88232   5.139   1.147   7.708  0.4160 -0.1223  1.0195
  669MOL0     C88233   5.127   1.068   7.826 -0.2149 -0.0031 -0.2934
  669MOL0     O88234   5.016   1.049   7.906  0.1906  0.3235  0.3982
  669MOL0     C88235   4.893   1.085   7.839 -0.1316  0.9195 -0.5975
  669MOL0     C88236   4.769   1.089   7.935 -0.3565 -0.5211  0.4953
  669MOL0     C88237   4.805   1.169   8.055  0.2901 -0.5308 -0.2342
  669MOL0     C88238   4.863   1.313   8.039 -0.0574  0.9395  0.3846
  669MOL0     C88239   4.774   1.406   7.962  0.0098 -0.5068 -0.3680
  669MOL0     C88240   4.738   1.505   7.902 -0.0291  0.1332 -0.4167
  669MOL0     C88241   5.231   0.996   7.870 -0.6050  0.4291  0.3624
  669MOL0     C88242   5.351   1.003   7.796 -0.4179 -0.7553 -0.1680
  669MOL0     H88243   5.757   0.886   7.578 -0.4867 -0.0780  0.1311
  669MOL0     H88244   5.957   0.917   7.428 -0.3112 -0.6616 -0.3817
  669MOL0     H88245   6.179   0.980   7.409  2.1048  0.2652  1.0037
  669MOL0     H88246   6.250   1.091   7.292 -0.6093  0.9402  0.6069
  669MOL0     H88247   6.091   1.060   7.129 -3.7010  0.3590  1.2112
  669MOL0     H88248   6.010   0.932   7.220  1.5552 -0.9946 -1.4098
  669MOL0     H88249   6.213   0.792   7.228  1.0478 -1.9600 -1.9590
  669MOL0     H88250   6.298   0.932   7.139 -1.5715  0.1977  0.1661
  669MOL0     H88251   6.080   0.760   7.033  0.0188 -0.0857  3.6918
  669MOL0     H88252   6.184   0.882   6.944 -2.3967  1.9988  2.5128
  669MOL0     H88253   6.271   0.631   7.093  2.8179  3.1627  3.3242
  669MOL0     H88254   6.376   0.746   7.010 -0.2200  1.3322 -2.4342
  669MOL0     H88255   6.175   0.546   6.894 -0.6143  1.1849 -2.2626
  669MOL0     H88256   6.360   0.540   6.906 -0.7621 -0.2296  1.1595
  669MOL0     H88257   6.361   0.743   6.747  0.0095 -0.5317  2.3742
  669MOL0     H88258   6.300   0.600   6.666 -2.4185  1.0729 -3.0267
  669MOL0     H88259   6.143   0.744   6.589 -3.6328 -1.1619 -0.8154
  669MOL0     H88260   6.129   0.831   6.748  0.3337 -0.7102  0.0620
  669MOL0     H88261   6.101   0.466   6.631 -1.9509 -2.4548  0.4570
  669MOL0     H88262   5.941   0.258   6.816  2.0875  1.2052  0.8367
  669MOL0     H88263   5.908   0.294   6.646 -0.2608  1.7380 -0.0502
  669MOL0     H88264   5.675   0.397   6.737 -2.6008 -1.1686  0.5023
  669MOL0     H88265   5.717   0.314   6.883 -0.4325 -0.9945  0.1600
  669MOL0     H88266   5.756   0.104   6.766 -2.3079 -1.2440 -0.5742
  669MOL0     H88267   5.593   0.154   6.796 -0.7965 -0.7713 -1.9036
  669MOL0     H88268   5.720   0.207   6.532  0.3358 -0.1056 -0.5007
  669MOL0     H88269   5.545   0.215   6.581 -0.9171  0.0507  2.2879
  669MOL0     H88270   5.627  -0.199   6.589  0.0196  0.1915  0.4945
  669MOL0     H88271   5.441  -0.353   6.664  0.9917  0.6218 -0.9451
  669MOL0     H88272   4.906  -0.374   6.651 -1.6737  0.7785  3.2979
  669MOL0     H88273   4.749  -0.552   6.647 -0.0376 -0.3230  0.0477
  669MOL0     H88274   4.916  -0.970   6.738 -0.1807  0.4165  2.6199
  669MOL0     H88275   4.744  -0.991   6.698 -2.1408  3.1622 -2.6082
  669MOL0     H88276   4.687  -0.905   6.921 -0.9406 -2.4338 -0.4333
  669MOL0     H88277   4.865  -0.865   6.949 -1.7190  3.8184 -1.7434
  669MOL0     H88278   4.734  -1.136   6.968  1.0068 -1.5672 -2.0128
  669MOL0     H88279   4.842  -1.048   7.073  0.1951 -0.9674 -0.8378
  669MOL0     H88280   4.910  -1.186   6.821 -1.1657 -0.7341  0.7733
  669MOL0     H88281   5.029  -1.077   6.898 -0.0293 -0.5217  3.2346
  669MOL0     H88282   5.036  -1.187   7.107 -2.8836  1.2765  0.5043
  669MOL0     H88283   5.102  -1.283   6.969  0.7178  0.5217  0.0622
  669MOL0     H88284   4.836  -1.320   7.086 -1.6465 -0.1002 -2.9958
  669MOL0     H88285   4.977  -1.422   7.111  1.7058 -2.4966 -3.0404
  669MOL0     H88286   4.804  -1.388   6.865 -0.1471  0.8494  1.7911
  669MOL0     H88287   4.962  -1.470   6.859  0.6069  2.2978  0.1700
  669MOL0     H88288   4.905  -1.654   7.003 -1.0794 -2.9938 -1.2044
  669MOL0     H88289   4.788  -1.631   6.868 -1.6048  0.3744  0.8125
  669MOL0     H88290   5.040  -0.848   6.760 -3.0341 -0.6643  0.7004
  669MOL0     H88291   5.211  -0.659   6.775 -1.2637 -0.6802  2.5644
  669MOL0     H88292   5.173  -0.025   6.648 -0.0269 -0.9838 -0.2830
  669MOL0     H88293   5.359   0.127   6.576  3.0367  0.6410 -0.1780
  669MOL0     H88294   5.934   1.336   7.467 -1.9807  0.5673 -1.6958
  669MOL0     H88295   5.723   1.321   7.601  0.2733  0.5474 -0.4534
  669MOL0     H88296   5.267   1.206   7.540  2.2587 -0.6371 -0.5845
  669MOL0     H88297   5.065   1.208   7.657 -1.3113 -3.0842 -0.3132
  669MOL0     H88298   4.868   1.007   7.766 -2.5148 -1.6418  2.6884
  669MOL0     H88299   4.897   1.184   7.792 -0.5995  1.2777  0.1119
  669MOL0     H88300   4.683   1.135   7.886 -0.9306  2.0736  3.5707
  669MOL0     H88301   4.746   0.986   7.964  2.6469 -1.1639  0.9706
  669MOL0     H88302   4.871   1.108   8.117  1.2098  0.6251 -0.0262
  669MOL0     H88303   4.711   1.175   8.112  0.5218  0.0267  0.1005
  669MOL0     H88304   4.865   1.363   8.137  1.7057  1.1754  0.2508
  669MOL0     H88305   4.957   1.308   7.983 -0.3438 -1.3437 -0.0046
  669MOL0     H88306   4.713   1.584   7.833  1.2311  0.3203 -0.6871
  669MOL0     H88307   5.216   0.933   7.957  0.8311  1.5911  1.4895
  669MOL0     H88308   5.440   0.949   7.828 -1.0023  0.7742  4.8485
  670MOL0     O88309   0.617   4.377   7.637 -0.2754 -0.3531 -0.0047
  670MOL0     C88310   0.715   4.440   7.605 -0.3540  0.2873 -0.6485
  670MOL0     O88311   0.748   4.485   7.474  0.2539  0.0342 -0.1668
  670MOL0     C88312   0.649   4.482   7.380  0.0146 -0.0246 -0.2037
  670MOL0     C88313   0.682   4.426   7.259 -0.2128 -0.0284 -0.1256
  670MOL0     C88314   0.598   4.449   7.153  0.0512 -0.0668 -1.4087
  670MOL0     C88315   0.480   4.523   7.167  0.0015  0.6223  0.9027
  670MOL0     O88316   0.401   4.528   7.054 -0.5924 -0.4145  0.2112
  670MOL0     C88317   0.256   4.555   7.076 -0.0566  0.6246 -0.7067
  670MOL0     C88318   0.218   4.710   7.084  0.0163  0.0655 -0.1602
  670MOL0     C88319   0.103   4.739   6.996 -0.4647 -0.5333  0.5946
  670MOL0     C88320   0.067   4.884   6.969 -0.0220  0.4220  0.1516
  670MOL0     C88321  -0.049   4.907   6.859  0.1974 -0.6352  0.3910
  670MOL0     C88322  -0.033   5.043   6.790 -0.0876  1.0860 -0.1293
  670MOL0     C88323  -0.149   5.058   6.700  0.0959 -0.2750  0.2937
  670MOL0     C88324  -0.142   5.198   6.629 -0.9375  0.1089 -0.7701
  670MOL0     N88325  -0.178   5.225   6.495 -0.1625  0.9691 -0.6816
  670MOL0     C88326  -0.085   5.234   6.396 -0.7010  0.5881  1.2649
  670MOL0     C88327  -0.161   5.230   6.288  0.7716  0.1354  0.1834
  670MOL0     C88328  -0.119   5.216   6.144  0.5384 -0.8367  0.0189
  670MOL0     C88329  -0.240   5.222   6.045 -0.4834  0.5974 -0.5287
  670MOL0     C88330  -0.187   5.195   5.899  0.5384  0.3270  0.4747
  670MOL0     C88331  -0.295   5.160   5.801  0.1880  0.6999  0.1865
  670MOL0     O88332  -0.248   5.160   5.673  0.3421  0.1680  0.1048
  670MOL0     C88333  -0.318   5.130   5.562  1.0012  1.2273 -0.1885
  670MOL0     C88334  -0.251   5.132   5.444 -0.4775  0.0458 -0.4001
  670MOL0     C88335  -0.299   5.082   5.325 -0.9297 -0.5742  0.3018
  670MOL0     C88336  -0.432   5.040   5.305  0.1900  0.5145  0.0070
  670MOL0     C88337  -0.464   4.990   5.172  0.3605 -1.0298 -0.1505
  670MOL0     O88338  -0.372   4.899   5.130 -0.3441 -0.0742  0.3938
  670MOL0     C88339  -0.361   4.873   4.993  0.2565 -0.2458  0.4244
  670MOL0     C88340  -0.242   4.912   4.932 -1.0505 -0.2630  0.1090
  670MOL0     C88341  -0.215   4.880   4.795  1.0980  1.2946 -0.5956
  670MOL0     C88342  -0.302   4.796   4.722 -0.1041 -0.9958  0.0781
  670MOL0     O88343  -0.267   4.733   4.614  0.4128  0.3236  0.3773
  670MOL0     C88344  -0.195   4.788   4.499 -1.2465 -0.2057 -0.3304
  670MOL0     C88345  -0.077   4.693   4.477 -0.6970  0.0544  0.6300
  670MOL0     C88346   0.003   4.758   4.361 -0.1989  0.8031  0.2555
  670MOL0     C88347   0.010   4.661   4.234  0.0172 -0.5032  0.1446
  670MOL0     C88348   0.058   4.719   4.107  0.6528 -0.6187 -0.6510
  670MOL0     C88349   0.001   4.663   3.975 -0.6756  0.7467 -0.2086
  670MOL0     C88350   0.098   4.682   3.854  0.3352  1.5315  0.4686
  670MOL0     C88351   0.106   4.827   3.808  0.3650 -0.3251  0.6168
  670MOL0    Cl88352   0.232   4.862   3.694  0.0231  0.2426  0.1562
  670MOL0     C88353  -0.406   4.736   4.795  1.0103 -0.0959  0.2872
  670MOL0     C88354  -0.447   4.796   4.918 -0.1865  0.7419  0.1274
  670MOL0     O88355  -0.567   5.022   5.107  0.2035  0.0205  0.1828
  670MOL0     C88356  -0.509   5.039   5.428  0.1922  0.5491 -0.2419
  670MOL0     C88357  -0.449   5.079   5.551  0.6169  0.0793 -0.1839
  670MOL0     N88358  -0.293   5.238   6.319  0.0908 -0.2021  0.0146
  670MOL0     N88359  -0.301   5.236   6.451 -0.4483  0.0552 -0.0611
  670MOL0     C88360   0.439   4.568   7.293 -0.2251  1.0450 -0.2275
  670MOL0     C88361   0.527   4.542   7.399  0.9178 -1.1630  0.3349
  670MOL0     C88362   0.832   4.432   7.698 -0.2115 -0.6074 -0.5648
  670MOL0     C88363   0.829   4.330   7.796  0.1213 -0.7618  0.5127
  670MOL0     C88364   0.937   4.310   7.880  0.9592  0.5066  0.2614
  670MOL0     C88365   1.051   4.386   7.869  0.1663 -0.6362 -1.2116
  670MOL0     O88366   1.147   4.369   7.961  0.0042  0.0106 -0.7452
  670MOL0     C88367   1.225   4.243   7.969  0.6573 -1.8220 -0.5433
  670MOL0     C88368   1.379   4.271   7.999  0.6383  0.3829  0.1632
  670MOL0     C88369   1.426   4.394   7.922 -0.4359 -0.2107  0.0471
  670MOL0     C88370   1.569   4.417   7.915  0.3178  0.2865 -0.3499
  670MOL0     C88371   1.626   4.436   8.051  0.6226  0.9597 -0.1318
  670MOL0     C88372   1.667   4.477   8.154 -0.7107  0.0325 -0.4122
  670MOL0     C88373   1.057   4.492   7.782  0.0650  0.0036  0.2167
  670MOL0     C88374   0.945   4.520   7.694 -0.1866  0.8337  0.9139
  670MOL0     H88375   0.771   4.365   7.250 -0.9633 -1.6671  2.5513
  670MOL0     H88376   0.614   4.407   7.054 -0.1758 -0.8848 -1.1025
  670MOL0     H88377   0.222   4.491   7.159 -2.1313  1.4933 -0.8348
  670MOL0     H88378   0.205   4.513   6.989 -0.3190 -1.2054  0.2643
  670MOL0     H88379   0.306   4.771   7.060  0.9212 -0.4073  1.7882
  670MOL0     H88380   0.191   4.738   7.186  4.5350  0.3760  1.1720
  670MOL0     H88381   0.012   4.689   7.031 -1.5520  0.2671 -0.9249
  670MOL0     H88382   0.124   4.696   6.897 -0.4427  1.9174 -0.5372
  670MOL0     H88383   0.033   4.930   7.063 -1.7386 -0.9757  0.2567
  670MOL0     H88384   0.152   4.944   6.934 -1.3798  2.9547  0.9385
  670MOL0     H88385  -0.151   4.891   6.896  0.8347 -2.6043  1.4577
  670MOL0     H88386  -0.041   4.837   6.776 -2.3048 -0.3276 -0.1692
  670MOL0     H88387   0.058   5.050   6.730  0.0715  0.1801 -0.0083
  670MOL0     H88388  -0.035   5.117   6.871  0.9123 -1.0764  1.9735
  670MOL0     H88389  -0.163   4.979   6.626  0.1695  1.1137 -1.2733
  670MOL0     H88390  -0.231   5.060   6.773  1.5226 -0.6978  1.9552
  670MOL0     H88391  -0.038   5.228   6.641 -1.1672  0.7808 -0.4206
  670MOL0     H88392  -0.190   5.264   6.701  2.0908 -0.2048  1.7543
  670MOL0     H88393   0.022   5.227   6.410 -0.7662 -1.9461  0.9469
  670MOL0     H88394  -0.050   5.133   6.127  1.5332  0.2331 -1.4857
  670MOL0     H88395  -0.069   5.310   6.119  0.7955 -0.3747  2.0635
  670MOL0     H88396  -0.297   5.315   6.053  0.0966  0.8091  1.7164
  670MOL0     H88397  -0.313   5.141   6.056  1.6072 -1.4292 -0.9297
  670MOL0     H88398  -0.121   5.272   5.859  2.7486 -0.3848  2.5007
  670MOL0     H88399  -0.113   5.114   5.903  1.2129  0.8533 -0.6753
  670MOL0     H88400  -0.371   5.238   5.811  0.3204  0.6771  1.4265
  670MOL0     H88401  -0.355   5.071   5.823 -0.2609  0.6597 -1.1040
  670MOL0     H88402  -0.151   5.173   5.440 -0.5287  0.1878 -0.2661
  670MOL0     H88403  -0.228   5.073   5.244  1.5127 -1.0107  2.3340
  670MOL0     H88404  -0.172   4.968   4.993  0.5983 -1.9274 -0.1731
  670MOL0     H88405  -0.115   4.915   4.773 -0.0606  4.1278 -1.8340
  670MOL0     H88406  -0.152   4.888   4.511  3.6335 -1.9493 -1.4383
  670MOL0     H88407  -0.274   4.797   4.423 -5.4261 -2.7929  3.1932
  670MOL0     H88408  -0.121   4.595   4.459 -1.7867  0.2403  2.0526
  670MOL0     H88409  -0.004   4.690   4.558  2.7928 -1.6250 -2.3087
  670MOL0     H88410   0.106   4.777   4.392 -0.0521 -1.7803  1.6308
  670MOL0     H88411  -0.039   4.856   4.336 -1.9370  0.3550  1.2911
  670MOL0     H88412   0.073   4.577   4.264  0.4074 -1.3069 -2.6019
  670MOL0     H88413  -0.084   4.612   4.209 -0.0292 -0.0571 -0.5919
  670MOL0     H88414   0.167   4.717   4.106  0.9584  3.1075  2.4666
  670MOL0     H88415   0.029   4.824   4.097  1.4167 -0.5947 -3.7741
  670MOL0     H88416  -0.102   4.695   3.957 -1.6389 -1.1808  1.4387
  670MOL0     H88417  -0.005   4.555   3.990  3.2147  0.4338  0.0692
  670MOL0     H88418   0.192   4.639   3.889 -1.7016 -4.2847 -0.1161
  670MOL0     H88419   0.070   4.608   3.778 -0.5797  0.9446  1.3593
  670MOL0     H88420   0.114   4.892   3.896 -2.7045 -0.2965  0.9960
  670MOL0     H88421   0.005   4.850   3.771  1.4310  0.2910 -2.0927
  670MOL0     H88422  -0.459   4.662   4.736  1.8687  0.2352 -0.9285
  670MOL0     H88423  -0.548   4.774   4.953 -0.3750 -0.2657 -0.9913
  670MOL0     H88424  -0.611   5.003   5.414  1.0138 -1.4696 -1.6058
  670MOL0     H88425  -0.513   5.085   5.638 -0.0931  1.4811 -0.7772
  670MOL0     H88426   0.359   4.641   7.303 -0.4457  0.9039 -0.8966
  670MOL0     H88427   0.516   4.575   7.501  0.9290 -5.5075  1.9528
  670MOL0     H88428   0.748   4.261   7.818 -2.4380  2.4978  2.3124
  670MOL0     H88429   0.926   4.239   7.961  0.9046 -2.0387 -1.8433
  670MOL0     H88430   1.225   4.197   7.870 -0.4053  1.1005 -1.9944
  670MOL0     H88431   1.184   4.176   8.046 -3.1303  1.2688  0.3987
  670MOL0     H88432   1.386   4.293   8.106 -3.3151  3.6825  0.0013
  670MOL0     H88433   1.448   4.191   7.971  0.0956  0.3234 -1.0799
  670MOL0     H88434   1.375   4.486   7.954  0.3918 -0.1084  1.1263
  670MOL0     H88435   1.396   4.360   7.822 -1.4310 -1.0265  0.5962
  670MOL0     H88436   1.614   4.326   7.876  2.7047  1.5870 -0.8246
  670MOL0     H88437   1.586   4.505   7.852 -0.4853  1.1545  0.6080
  670MOL0     H88438   1.703   4.513   8.249 -1.5189  0.7117 -0.3550
  670MOL0     H88439   1.130   4.571   7.791 -0.4244  0.3652  1.2078
  670MOL0     H88440   0.944   4.604   7.626  0.5784  0.3248  0.2586
  671MOL0     O88441   0.440   4.630   4.843  0.6324  0.1571  0.8912
  671MOL0     C88442   0.438   4.595   4.727 -0.1907  0.3914 -0.0083
  671MOL0     O88443   0.338   4.509   4.676 -0.1417  0.4828 -0.2465
  671MOL0     C88444   0.234   4.491   4.761  0.2044 -0.2196 -0.9777
  671MOL0     C88445   0.150   4.595   4.807  0.8338  0.9195  0.0763
  671MOL0     C88446   0.035   4.561   4.887  0.0524 -0.1074  0.4433
  671MOL0     C88447  -0.002   4.428   4.912 -0.5495  0.1953 -0.1942
  671MOL0     O88448  -0.101   4.384   4.998  0.0823 -0.1684 -0.2604
  671MOL0     C88449  -0.183   4.489   5.060  0.2219  1.8033  0.6461
  671MOL0     C88450  -0.153   4.487   5.210  0.3203 -0.1833 -0.0667
  671MOL0     C88451  -0.200   4.616   5.276 -0.0307  0.5803 -0.5414
  671MOL0     C88452  -0.122   4.636   5.404 -0.0483 -0.5589  0.1923
  671MOL0     C88453  -0.148   4.788   5.452 -1.3327  0.5252  0.3297
  671MOL0     C88454  -0.104   4.833   5.584 -0.4139  0.8898  0.5220
  671MOL0     C88455   0.047   4.793   5.618  0.8097  1.1817  0.1818
  671MOL0     C88456   0.138   4.837   5.506 -0.7736  0.1357  0.0447
  671MOL0     N88457   0.272   4.790   5.539 -0.1905 -0.1740  0.0157
  671MOL0     C88458   0.380   4.878   5.551  0.3833 -0.0913 -0.5665
  671MOL0     C88459   0.484   4.804   5.567 -0.3422  0.3041 -0.1626
  671MOL0     C88460   0.615   4.868   5.597 -0.6311  0.7744  0.1603
  671MOL0     C88461   0.607   4.938   5.724 -0.3063  0.5469 -1.3114
  671MOL0     C88462   0.748   4.992   5.763  0.5914 -0.1847  0.7116
  671MOL0     C88463   0.779   5.131   5.713  0.3315  0.0511 -0.4045
  671MOL0     O88464   0.709   5.237   5.777  0.4728  0.0976  0.7215
  671MOL0     C88465   0.775   5.330   5.851  0.1576 -0.0338  0.5115
  671MOL0     C88466   0.691   5.421   5.912 -0.8851  1.5938  0.1086
  671MOL0     C88467   0.742   5.528   5.986  0.3025  1.4286  0.4580
  671MOL0     C88468   0.884   5.550   5.998  0.1191 -0.2059  0.6482
  671MOL0     C88469   0.928   5.654   6.101 -0.9367  0.2773 -0.0238
  671MOL0     O88470   1.070   5.647   6.133  0.4170  1.1028 -0.0815
  671MOL0     C88471   1.121   5.748   6.203  0.8526 -0.7113  0.0549
  671MOL0     C88472   1.065   5.883   6.229 -0.5853  2.0566  0.2695
  671MOL0     C88473   1.142   5.988   6.274  0.4660  0.4998  0.1636
  671MOL0     C88474   1.275   5.957   6.321  0.8906 -0.8724  0.4199
  671MOL0     O88475   1.343   6.060   6.381 -0.8079 -0.5473  0.1067
  671MOL0     C88476   1.478   6.034   6.431  0.4371  0.9955 -0.2037
  671MOL0     C88477   1.562   6.156   6.467  0.0566 -0.0410 -0.0233
  671MOL0     C88478   1.688   6.152   6.369  0.0993 -0.3262 -0.2628
  671MOL0     C88479   1.753   6.284   6.382  0.7544 -0.0757 -0.1260
  671MOL0     C88480   1.667   6.384   6.309 -0.8650 -0.0818  0.5346
  671MOL0     C88481   1.761   6.500   6.278  0.7419  0.3226  0.1992
  671MOL0     C88482   1.675   6.608   6.203 -0.7232  1.3763 -0.4182
  671MOL0     C88483   1.736   6.744   6.190 -0.2842  0.7318 -0.1207
  671MOL0    Cl88484   1.863   6.718   6.070  0.4163 -0.1614 -0.2860
  671MOL0     C88485   1.327   5.830   6.288 -0.0007 -0.4733 -0.7017
  671MOL0     C88486   1.256   5.734   6.223  0.2608 -0.3825  0.3017
  671MOL0     O88487   0.847   5.732   6.149  0.7925 -0.7515  0.4642
  671MOL0     C88488   0.971   5.460   5.939  0.1751 -0.1261  0.1801
  671MOL0     C88489   0.916   5.347   5.859  0.6540 -0.9731 -0.6063
  671MOL0     N88490   0.445   4.665   5.561  0.2153  0.2110 -0.7685
  671MOL0     N88491   0.314   4.662   5.554 -0.0239  0.3850 -0.4675
  671MOL0     C88492   0.076   4.321   4.859 -0.1505  0.3766 -0.1693
  671MOL0     C88493   0.193   4.358   4.791  1.6872 -0.3535  0.1896
  671MOL0     C88494   0.547   4.638   4.635  0.0531 -0.1993 -0.5678
  671MOL0     C88495   0.651   4.719   4.685  0.7620 -0.2915 -0.0075
  671MOL0     C88496   0.766   4.751   4.625 -0.0528 -0.2874  0.4676
  671MOL0     C88497   0.787   4.722   4.488 -0.3539  0.5805 -0.1645
  671MOL0     O88498   0.902   4.739   4.417  0.5093 -0.1196 -0.5998
  671MOL0     C88499   1.016   4.816   4.460 -0.5692  1.4003 -0.2224
  671MOL0     C88500   1.016   4.956   4.409  0.1641 -1.6055 -0.3909
  671MOL0     C88501   0.889   5.034   4.459  0.5575 -0.8714 -0.2007
  671MOL0     C88502   0.900   5.180   4.434 -0.4630 -0.1864  1.0003
  671MOL0     C88503   0.896   5.198   4.288  0.2938 -0.0666  0.1306
  671MOL0     C88504   0.873   5.209   4.171  1.0131  0.2275 -0.4666
  671MOL0     C88505   0.692   4.642   4.434  0.7353  0.1598  0.1329
  671MOL0     C88506   0.570   4.598   4.508  0.5197  0.3047 -0.1120
  671MOL0     H88507   0.163   4.700   4.786 -2.6245  1.7485  1.3219
  671MOL0     H88508  -0.016   4.646   4.929  1.0121 -0.9109  3.4427
  671MOL0     H88509  -0.287   4.465   5.035  1.0833  0.3572 -1.9205
  671MOL0     H88510  -0.175   4.591   5.022 -0.8663  1.3217 -0.9795
  671MOL0     H88511  -0.044   4.487   5.213  0.3344  0.6654 -0.3303
  671MOL0     H88512  -0.193   4.396   5.256 -0.5423 -1.1335 -2.5037
  671MOL0     H88513  -0.309   4.620   5.283 -0.1592 -1.1101 -1.1086
  671MOL0     H88514  -0.178   4.697   5.206 -0.3139  0.5363 -0.6831
  671MOL0     H88515  -0.167   4.570   5.479  1.1842 -2.1524 -0.4117
  671MOL0     H88516  -0.014   4.622   5.397  0.7771  3.2584  2.4235
  671MOL0     H88517  -0.256   4.806   5.449 -1.7661 -1.8796 -1.4191
  671MOL0     H88518  -0.088   4.849   5.383 -0.9085 -0.2246  0.0216
  671MOL0     H88519  -0.172   4.806   5.665  0.0697  1.7085  1.2180
  671MOL0     H88520  -0.107   4.942   5.581  0.7110  0.9139 -1.8174
  671MOL0     H88521   0.081   4.829   5.716 -1.5227 -0.2023  1.6029
  671MOL0     H88522   0.055   4.684   5.618 -2.3040  0.8585 -1.2532
  671MOL0     H88523   0.124   4.944   5.492 -1.6731  0.1055  0.5956
  671MOL0     H88524   0.105   4.785   5.416 -0.1138 -1.7452  0.8283
  671MOL0     H88525   0.375   4.986   5.560 -3.0744 -0.2903  2.1662
  671MOL0     H88526   0.650   4.928   5.513  1.0567  3.0453  2.3202
  671MOL0     H88527   0.690   4.789   5.611 -2.1096 -0.7838 -0.3572
  671MOL0     H88528   0.590   4.866   5.804  1.1325  0.4166 -1.0889
  671MOL0     H88529   0.530   5.015   5.729 -0.5021  0.2959 -0.3398
  671MOL0     H88530   0.748   4.996   5.873 -0.3344 -1.2539  0.7612
  671MOL0     H88531   0.830   4.924   5.741 -0.9485 -1.9234  0.1389
  671MOL0     H88532   0.753   5.133   5.607  0.1554 -1.4942 -0.4135
  671MOL0     H88533   0.888   5.140   5.725  0.3862  1.1956 -1.5670
  671MOL0     H88534   0.587   5.397   5.897 -0.6782  0.6679  0.0791
  671MOL0     H88535   0.687   5.599   6.048  0.8139  1.6769  0.6288
  671MOL0     H88536   0.967   5.915   6.193 -0.6913 -0.0868 -1.5395
  671MOL0     H88537   1.104   6.088   6.288  0.4526  0.4937  0.1706
  671MOL0     H88538   1.533   5.978   6.355  0.5053  0.4559  0.2385
  671MOL0     H88539   1.468   5.975   6.523  0.1885  1.8658  0.3420
  671MOL0     H88540   1.602   6.150   6.569 -2.7530  2.7370  1.4311
  671MOL0     H88541   1.494   6.242   6.456  0.7004  0.1525 -3.5950
  671MOL0     H88542   1.650   6.123   6.271 -0.9705  0.1259 -0.0002
  671MOL0     H88543   1.770   6.084   6.394  2.3819  1.6093 -1.9323
  671MOL0     H88544   1.776   6.316   6.483  0.1182 -1.5128  0.5064
  671MOL0     H88545   1.846   6.275   6.325  0.7393 -2.0843  0.0995
  671MOL0     H88546   1.587   6.419   6.375  0.2673  1.3521  1.2065
  671MOL0     H88547   1.639   6.344   6.211  2.6580  1.3816 -1.2614
  671MOL0     H88548   1.847   6.480   6.213 -1.2550  0.7780 -2.7579
  671MOL0     H88549   1.797   6.535   6.375 -0.0128 -1.9436  1.3590
  671MOL0     H88550   1.643   6.594   6.099  0.7948  1.0224 -0.8511
  671MOL0     H88551   1.583   6.619   6.262 -0.9430 -1.2764 -0.1485
  671MOL0     H88552   1.778   6.777   6.286 -0.4572 -1.1344  0.6345
  671MOL0     H88553   1.668   6.818   6.148 -4.1234 -1.6450  1.3661
  671MOL0     H88554   1.435   5.821   6.299  0.8255  6.1082  0.4334
  671MOL0     H88555   1.303   5.644   6.184 -1.6379 -1.8897  1.3411
  671MOL0     H88556   1.079   5.473   5.942  0.2619 -0.8802  0.9712
  671MOL0     H88557   0.997   5.306   5.800  4.0491  0.4474  2.6237
  671MOL0     H88558   0.061   4.215   4.873 -1.7320  0.8638  2.3647
  671MOL0     H88559   0.243   4.282   4.732  0.6515  0.2378 -1.5481
  671MOL0     H88560   0.647   4.751   4.789 -3.5136 -3.1023  0.9501
  671MOL0     H88561   0.833   4.799   4.696 -2.2964  0.9019  1.8977
  671MOL0     H88562   1.097   4.749   4.430 -2.6292 -2.7566  2.5405
  671MOL0     H88563   1.041   4.820   4.566  0.0061 -0.7297 -0.2217
  671MOL0     H88564   1.111   5.005   4.435 -0.7308 -0.2757  0.4977
  671MOL0     H88565   1.003   4.958   4.301  1.7864 -0.0587 -0.6155
  671MOL0     H88566   0.871   5.015   4.565 -5.2580  1.2114 -0.4699
  671MOL0     H88567   0.803   4.994   4.404 -0.6751  1.4116 -0.0540
  671MOL0     H88568   0.817   5.238   4.477 -1.2133  1.4413 -2.2792
  671MOL0     H88569   0.991   5.217   4.482 -2.0345  2.7601  2.0119
  671MOL0     H88570   0.851   5.232   4.069 -0.8993 -0.8970 -0.3592
  671MOL0     H88571   0.712   4.623   4.329  1.1983 -3.4077  0.7401
  671MOL0     H88572   0.487   4.540   4.469  0.4235 -0.1458  0.7511
  672MOL0     O88573   8.092   9.661  11.044  0.2443  0.5637 -0.5618
  672MOL0     C88574   8.163   9.565  11.014  0.2553 -0.2746  0.1958
  672MOL0     O88575   8.189   9.467  11.094 -0.0060 -0.7175 -0.2938
  672MOL0     C88576   8.131   9.473  11.220  0.0041  0.0992 -0.1060
  672MOL0     C88577   8.205   9.538  11.322  0.1461 -0.1870 -0.3263
  672MOL0     C88578   8.142   9.559  11.449  0.8321 -0.0970 -0.3133
  672MOL0     C88579   8.007   9.513  11.478 -0.6126 -0.5324 -0.3856
  672MOL0     O88580   7.963   9.530  11.611 -0.5935 -0.2203 -0.1888
  672MOL0     C88581   7.824   9.518  11.625  0.0434  1.2557 -1.1429
  672MOL0     C88582   7.773   9.523  11.770  0.1091  0.1398  0.7113
  672MOL0     C88583   7.625   9.483  11.791  0.0406 -0.1870  0.1999
  672MOL0     C88584   7.586   9.359  11.721  0.5367 -0.0579 -0.3302
  672MOL0     C88585   7.463   9.287  11.768 -0.1441 -0.3361 -0.1611
  672MOL0     C88586   7.331   9.375  11.774 -0.5498  0.3486  0.0360
  672MOL0     C88587   7.319   9.473  11.898  0.5928  0.3443  0.3713
  672MOL0     C88588   7.167   9.521  11.896 -0.0159  0.6893  0.1114
  672MOL0     N88589   7.141   9.618  12.008 -0.4013  0.6395  0.1077
  672MOL0     C88590   7.114   9.587  12.139 -0.5322 -0.0965  0.1564
  672MOL0     C88591   7.069   9.703  12.181 -1.5583 -0.3412  0.7667
  672MOL0     C88592   7.015   9.731  12.317 -0.0372  0.6832  0.1162
  672MOL0     C88593   6.872   9.788  12.309 -0.0034  0.6925  0.1073
  672MOL0     C88594   6.775   9.699  12.397 -0.0050 -0.7166 -0.4114
  672MOL0     C88595   6.624   9.732  12.389 -0.6484 -0.3986  0.9436
  672MOL0     O88596   6.557   9.618  12.339  0.1874  0.0011  0.7805
  672MOL0     C88597   6.428   9.639  12.295  0.0437  0.0993  1.4335
  672MOL0     C88598   6.344   9.747  12.335 -0.0209  0.7759  0.7101
  672MOL0     C88599   6.211   9.750  12.307  0.1538 -0.1519  0.2416
  672MOL0     C88600   6.155   9.653  12.227  0.6752  1.1069 -0.2806
  672MOL0     C88601   6.017   9.667  12.175  0.6421 -0.3718  0.0432
  672MOL0     O88602   5.935   9.758  12.245 -0.0803 -0.4509  0.3452
  672MOL0     C88603   5.799   9.749  12.226 -1.0305 -0.5795 -0.3793
  672MOL0     C88604   5.728   9.716  12.341 -0.4036  0.5699  0.1011
  672MOL0     C88605   5.594   9.690  12.331  0.6327 -0.4099 -0.6294
  672MOL0     C88606   5.510   9.723  12.217 -0.2165 -0.2812 -0.1584
  672MOL0     O88607   5.376   9.700  12.213 -0.1552 -0.6618 -0.3447
  672MOL0     C88608   5.310   9.710  12.339  0.6120  0.3028 -0.0321
  672MOL0     C88609   5.159   9.725  12.313  0.7685 -0.1285  0.0354
  672MOL0     C88610   5.074   9.692  12.434  0.4150  0.8806 -0.7303
  672MOL0     C88611   4.924   9.723  12.414 -0.7168  0.6507  0.1612
  672MOL0     C88612   4.838   9.634  12.497  0.1761  0.5973 -0.5705
  672MOL0     C88613   4.776   9.699  12.620  0.3940  0.8689  0.2496
  672MOL0     C88614   4.672   9.591  12.681 -0.2237 -0.4618  0.6884
  672MOL0     C88615   4.595   9.651  12.800  1.1634  0.0969 -0.7877
  672MOL0    Cl88616   4.470   9.540  12.873  0.0404  0.8348  0.0463
  672MOL0     C88617   5.587   9.747  12.098  0.5932 -0.0668 -0.0898
  672MOL0     C88618   5.727   9.761  12.103 -0.7891  0.2212 -0.1534
  672MOL0     O88619   5.974   9.594  12.080 -0.7413 -0.6971 -0.2780
  672MOL0     C88620   6.237   9.553  12.177 -0.6156  0.7056 -0.8179
  672MOL0     C88621   6.379   9.549  12.213  0.7768  1.1555  0.3332
  672MOL0     N88622   7.071   9.800  12.076  0.2699  0.6050 -0.5823
  672MOL0     N88623   7.104   9.739  11.975 -0.3145 -0.9931  0.8651
  672MOL0     C88624   7.941   9.448  11.370  0.1028  0.3647  0.0832
  672MOL0     C88625   7.997   9.445  11.245 -0.9036  0.2270  0.7734
  672MOL0     C88626   8.240   9.575  10.889 -0.9633 -0.1802 -0.2239
  672MOL0     C88627   8.328   9.482  10.830 -0.2853 -0.5583  0.5192
  672MOL0     C88628   8.385   9.509  10.705 -1.1984  0.6401  1.0856
  672MOL0     C88629   8.354   9.625  10.636 -1.0111 -0.4029  0.5909
  672MOL0     O88630   8.379   9.648  10.504 -0.3432 -0.1132  0.0526
  672MOL0     C88631   8.509   9.704  10.484 -1.1582  1.1170  1.3926
  672MOL0     C88632   8.507   9.820  10.378  1.1507  0.4047  0.3764
  672MOL0     C88633   8.420   9.801  10.256 -0.0352  0.2230  0.4646
  672MOL0     C88634   8.474   9.718  10.143 -0.6830 -0.9491 -0.4201
  672MOL0     C88635   8.383   9.735  10.032  0.0589 -0.4307  0.2748
  672MOL0     C88636   8.326   9.739   9.926  0.1779  0.3049 -0.7430
  672MOL0     C88637   8.271   9.715  10.690  0.7405 -0.3799  0.0758
  672MOL0     C88638   8.210   9.696  10.816  0.7792  0.4550  1.1166
  672MOL0     H88639   8.300   9.586  11.298 -1.4432  2.1805 -2.3586
  672MOL0     H88640   8.189   9.630  11.516  0.3457 -0.0088 -0.0651
  672MOL0     H88641   7.795   9.422  11.582  2.1092  0.3580 -0.6531
  672MOL0     H88642   7.767   9.587  11.562  1.2077  2.2158 -1.1792
  672MOL0     H88643   7.772   9.628  11.802 -4.1921  0.6301 -0.4209
  672MOL0     H88644   7.844   9.464  11.829  0.2439 -0.4813 -0.0608
  672MOL0     H88645   7.558   9.562  11.753  2.6567  1.9623 -0.2579
  672MOL0     H88646   7.604   9.488  11.898  0.1803  0.4363  0.2018
  672MOL0     H88647   7.567   9.373  11.614 -0.2231  0.5217 -0.1295
  672MOL0     H88648   7.658   9.281  11.746 -0.7350 -1.2808 -0.3801
  672MOL0     H88649   7.471   9.247  11.870 -2.2027  1.0431  0.6178
  672MOL0     H88650   7.443   9.206  11.697  0.1739 -0.4380 -0.1340
  672MOL0     H88651   7.248   9.305  11.775 -0.0442 -0.2624 -0.2530
  672MOL0     H88652   7.324   9.439  11.686  0.9956  2.3602  1.2763
  672MOL0     H88653   7.342   9.414  11.988  1.7849 -2.3666 -1.5479
  672MOL0     H88654   7.378   9.565  11.902 -4.5352  4.2191 -1.7556
  672MOL0     H88655   7.094   9.440  11.890 -1.6352  1.9458  1.8159
  672MOL0     H88656   7.156   9.574  11.800 -3.3750  2.1506  1.1485
  672MOL0     H88657   7.124   9.487  12.181  1.7017  0.0992  0.1917
  672MOL0     H88658   7.079   9.807  12.365  0.9822  1.6222 -2.5531
  672MOL0     H88659   7.022   9.642  12.380 -3.2737  0.4770  0.3373
  672MOL0     H88660   6.843   9.792  12.204 -1.3800  1.5763  0.4946
  672MOL0     H88661   6.868   9.885  12.360 -2.1323 -0.6747  2.8493
  672MOL0     H88662   6.799   9.593  12.385  0.8698 -0.4401 -1.2337
  672MOL0     H88663   6.801   9.718  12.502  0.0922 -2.3562 -0.1139
  672MOL0     H88664   6.609   9.829  12.342  2.0936 -0.6181 -0.5681
  672MOL0     H88665   6.580   9.731  12.489 -0.3520 -2.2481  1.1050
  672MOL0     H88666   6.376   9.836  12.387 -0.4042  1.2692  0.1229
  672MOL0     H88667   6.136   9.823  12.337 -1.4461 -1.6898  0.1602
  672MOL0     H88668   5.777   9.682  12.432 -3.7429 -1.3789  1.3558
  672MOL0     H88669   5.558   9.636  12.417  2.9959 -0.9648  0.0982
  672MOL0     H88670   5.339   9.792  12.406 -0.1851  2.2538 -1.9533
  672MOL0     H88671   5.333   9.627  12.406 -1.6140 -0.3595 -0.0222
  672MOL0     H88672   5.118   9.674  12.225 -1.2122  1.1939  0.1110
  672MOL0     H88673   5.139   9.832  12.305 -0.4788 -0.2816  0.8073
  672MOL0     H88674   5.099   9.753  12.521  3.2113 -2.2645  0.9381
  672MOL0     H88675   5.102   9.588  12.455 -1.4206  0.2690 -1.1151
  672MOL0     H88676   4.911   9.826  12.448  0.1477  1.1041 -0.8102
  672MOL0     H88677   4.901   9.715  12.307  1.7881  0.3624 -0.4248
  672MOL0     H88678   4.891   9.545  12.533  0.7658  1.3578  0.5136
  672MOL0     H88679   4.758   9.598  12.432 -0.7339  1.3716  0.0857
  672MOL0     H88680   4.710   9.785  12.602 -1.1245 -0.4481 -0.7082
  672MOL0     H88681   4.850   9.718  12.698  0.2287 -0.4299  0.7500
  672MOL0     H88682   4.603   9.566  12.600  1.5469 -1.9723 -0.4199
  672MOL0     H88683   4.730   9.501  12.703  1.8011 -0.1247 -2.6093
  672MOL0     H88684   4.539   9.740  12.766 -1.0835 -1.7115 -2.1604
  672MOL0     H88685   4.668   9.668  12.879  0.6680  0.0425 -0.3086
  672MOL0     H88686   5.539   9.752  12.001  0.6999  0.9658 -0.0985
  672MOL0     H88687   5.782   9.779  12.011 -1.4698 -2.0386 -1.0797
  672MOL0     H88688   6.206   9.484  12.100  0.8501 -0.5453 -0.3434
  672MOL0     H88689   6.450   9.477  12.173 -0.1195 -1.3696  2.9815
  672MOL0     H88690   7.841   9.407  11.377 -0.4855  1.9416  1.6574
  672MOL0     H88691   7.940   9.405  11.161  0.5909  1.4323 -0.9007
  672MOL0     H88692   8.355   9.402  10.899 -1.5360 -2.1485 -0.7398
  672MOL0     H88693   8.447   9.432  10.660 -1.4330 -0.4423  2.5164
  672MOL0     H88694   8.577   9.624  10.453 -2.0703  1.2169 -1.0281
  672MOL0     H88695   8.558   9.730  10.579  0.4888  2.8081  0.1409
  672MOL0     H88696   8.464   9.909  10.425 -3.1116 -0.1051 -2.1057
  672MOL0     H88697   8.608   9.839  10.339 -0.2106  3.2067 -2.1656
  672MOL0     H88698   8.403   9.899  10.211  1.3171  1.0962  1.7574
  672MOL0     H88699   8.326   9.759  10.293  1.6503 -1.9007  2.6603
  672MOL0     H88700   8.580   9.732  10.119 -0.4229 -0.5388  0.8723
  672MOL0     H88701   8.470   9.611  10.165 -1.1500 -1.1525 -1.4430
  672MOL0     H88702   8.261   9.751   9.842  0.2637 -0.1408 -0.8749
  672MOL0     H88703   8.257   9.808  10.636  1.3075  0.1645  0.8472
  672MOL0     H88704   8.148   9.776  10.857 -3.3769 -2.1787  0.5970
  673MOL0     O88705   3.227   2.772   6.321  0.3415  0.0118  0.4206
  673MOL0     C88706   3.350   2.724   6.322 -0.5663 -0.7932 -0.7456
  673MOL0     O88707   3.437   2.728   6.436 -0.4410 -0.0035  0.2866
  673MOL0     C88708   3.390   2.809   6.545 -0.8289  0.3280  0.5382
  673MOL0     C88709   3.270   2.785   6.617 -0.2654  0.5776 -0.1451
  673MOL0     C88710   3.262   2.862   6.734 -0.8122 -0.4457  0.0400
  673MOL0     C88711   3.353   2.960   6.778  0.4129  0.1825  1.2723
  673MOL0     O88712   3.329   3.036   6.888  0.4465  0.9297 -0.1270
  673MOL0     C88713   3.206   3.102   6.908 -0.6595  0.0290 -0.3072
  673MOL0     C88714   3.180   3.189   6.783  0.2669 -0.4328  0.9182
  673MOL0     C88715   3.091   3.313   6.822  0.6551 -0.4633 -0.7741
  673MOL0     C88716   3.082   3.415   6.707  0.3650  0.1325 -0.1484
  673MOL0     C88717   2.969   3.509   6.750  0.2405 -1.3781 -0.3731
  673MOL0     C88718   2.834   3.483   6.682 -0.1825 -0.1125 -0.5864
  673MOL0     C88719   2.724   3.599   6.701 -1.0965  0.5165  0.1394
  673MOL0     C88720   2.691   3.606   6.859 -0.0981 -0.1239 -1.0497
  673MOL0     N88721   2.599   3.704   6.904  1.3046 -0.8035 -0.2001
  673MOL0     C88722   2.493   3.696   6.994 -1.1356 -0.3985  0.6351
  673MOL0     C88723   2.427   3.804   6.986  0.1441 -0.7105 -0.2373
  673MOL0     C88724   2.293   3.833   7.056 -0.4571  0.8174  0.0773
  673MOL0     C88725   2.181   3.885   6.957  0.0812  0.5891 -0.4421
  673MOL0     C88726   2.100   3.771   6.886  0.3371  0.7035 -1.4618
  673MOL0     C88727   2.166   3.710   6.765 -0.4460  0.4760  0.5013
  673MOL0     O88728   2.172   3.812   6.659 -0.8058 -0.2275  0.9227
  673MOL0     C88729   2.077   3.828   6.561  0.0350 -0.0174  0.7724
  673MOL0     C88730   2.089   3.945   6.489  0.0967  1.0647  0.0781
  673MOL0     C88731   2.008   3.978   6.383  0.0339 -0.2712 -0.7606
  673MOL0     C88732   1.895   3.901   6.353  0.3800  0.2335 -0.0169
  673MOL0     C88733   1.803   3.936   6.244 -0.7821  0.7028  0.9964
  673MOL0     O88734   1.861   4.032   6.162 -1.1513  0.2232 -0.2998
  673MOL0     C88735   1.803   4.066   6.039  0.6047  0.6874  0.5587
  673MOL0     C88736   1.873   4.166   5.976 -1.1444 -0.4674  0.0950
  673MOL0     C88737   1.829   4.212   5.857  0.0300 -0.0085 -0.5231
  673MOL0     C88738   1.710   4.170   5.799 -0.3031 -0.1445 -1.4016
  673MOL0     O88739   1.683   4.197   5.668 -0.1455 -0.1178 -0.6786
  673MOL0     C88740   1.762   4.290   5.593  0.8180 -0.4739  0.5674
  673MOL0     C88741   1.686   4.293   5.454  0.1628 -0.5608 -0.2277
  673MOL0     C88742   1.763   4.362   5.346 -0.2038  0.5340  0.6408
  673MOL0     C88743   1.707   4.314   5.204  0.0513  0.6350 -0.4245
  673MOL0     C88744   1.760   4.406   5.090  0.7920  0.0713 -0.0580
  673MOL0     C88745   1.737   4.340   4.953  1.3965 -0.0761 -0.8957
  673MOL0     C88746   1.752   4.440   4.832 -0.3417  1.0568  0.9362
  673MOL0     C88747   1.725   4.366   4.698 -0.1074  0.5725  0.5724
  673MOL0    Cl88748   1.752   4.489   4.562 -0.0601 -0.1032 -0.2180
  673MOL0     C88749   1.635   4.079   5.868 -0.4650  0.9661  0.2845
  673MOL0     C88750   1.676   4.031   5.986  0.0096  0.1993  0.3457
  673MOL0     O88751   1.697   3.880   6.230  0.6316 -0.1720 -0.6778
  673MOL0     C88752   1.884   3.777   6.416  0.0121  0.7749  0.6992
  673MOL0     C88753   1.969   3.742   6.524 -0.1947 -0.9540  0.3341
  673MOL0     N88754   2.492   3.884   6.896  0.3373  0.0170 -0.7115
  673MOL0     N88755   2.597   3.823   6.848  0.4577 -0.3535  0.0506
  673MOL0     C88756   3.465   2.981   6.706  0.6479  0.3184 -0.1847
  673MOL0     C88757   3.492   2.905   6.589 -0.0668  0.8556 -0.4546
  673MOL0     C88758   3.404   2.672   6.197 -0.2074  0.1844 -0.7722
  673MOL0     C88759   3.540   2.652   6.184 -0.8015  0.4750  0.1128
  673MOL0     C88760   3.589   2.580   6.074  0.6646 -0.0864 -0.8921
  673MOL0     C88761   3.506   2.538   5.975 -1.1393  0.2919  0.7498
  673MOL0     O88762   3.560   2.475   5.854 -0.7446 -0.2942 -0.4410
  673MOL0     C88763   3.477   2.432   5.746 -0.1092  0.1382  0.9431
  673MOL0     C88764   3.555   2.361   5.636 -0.0718 -0.2046  1.0740
  673MOL0     C88765   3.463   2.310   5.527 -0.5853  0.3514  0.9682
  673MOL0     C88766   3.369   2.186   5.573  0.4869 -0.3910  0.3652
  673MOL0     C88767   3.442   2.080   5.638 -0.2515  0.5426 -0.3668
  673MOL0     C88768   3.506   1.992   5.695 -0.3268 -0.6301  0.4057
  673MOL0     C88769   3.367   2.556   5.983  0.0611  0.0328  0.2371
  673MOL0     C88770   3.313   2.627   6.092  0.2390 -1.1151  0.3996
  673MOL0     H88771   3.200   2.707   6.590  1.0060 -1.4753  2.0558
  673MOL0     H88772   3.173   2.843   6.794 -1.9105  1.6415 -0.7805
  673MOL0     H88773   3.211   3.155   7.004 -0.2652  0.7440 -0.7251
  673MOL0     H88774   3.122   3.031   6.910 -1.6422  1.1156 -1.1324
  673MOL0     H88775   3.133   3.133   6.702  1.9632 -0.2686 -0.2147
  673MOL0     H88776   3.266   3.240   6.742 -0.3800  0.9738  1.2606
  673MOL0     H88777   3.130   3.360   6.913 -1.7550  2.1736 -0.9520
  673MOL0     H88778   2.993   3.272   6.849  1.4309 -1.6534  0.3551
  673MOL0     H88779   3.183   3.458   6.701  1.8603 -3.2600 -1.5897
  673MOL0     H88780   3.060   3.357   6.617  0.3480 -1.2082  0.6904
  673MOL0     H88781   2.989   3.614   6.725 -1.4955 -0.5989  1.2853
  673MOL0     H88782   2.951   3.509   6.857 -1.9150  1.2170 -0.6250
  673MOL0     H88783   2.804   3.381   6.707  1.5709 -0.4527  0.3174
  673MOL0     H88784   2.853   3.482   6.574  0.0308 -1.4817 -0.5567
  673MOL0     H88785   2.765   3.697   6.676  0.5026 -0.4160 -1.0546
  673MOL0     H88786   2.628   3.581   6.652 -0.8927 -2.1372  0.5994
  673MOL0     H88787   2.777   3.621   6.924 -2.9492 -2.1633  3.7487
  673MOL0     H88788   2.645   3.508   6.875  1.5276 -0.6712  0.6923
  673MOL0     H88789   2.456   3.612   7.050  3.8406 -2.8286  0.8508
  673MOL0     H88790   2.306   3.924   7.116  0.9315 -0.4921  1.8922
  673MOL0     H88791   2.262   3.748   7.118  2.3789 -0.9189 -0.6966
  673MOL0     H88792   2.203   3.971   6.892 -0.7086  0.9888 -0.1938
  673MOL0     H88793   2.106   3.933   7.021 -2.0024 -1.5648 -1.1645
  673MOL0     H88794   2.078   3.689   6.955  2.8846  0.7353 -0.5126
  673MOL0     H88795   2.004   3.813   6.856  0.1573 -0.0451 -1.9524
  673MOL0     H88796   2.123   3.617   6.726 -1.5983  0.6575  1.2685
  673MOL0     H88797   2.272   3.693   6.783  0.1415  1.0465 -2.0545
  673MOL0     H88798   2.165   4.021   6.506 -0.5434  1.4994  1.1047
  673MOL0     H88799   2.030   4.075   6.338  1.4728  0.0894  0.6071
  673MOL0     H88800   1.966   4.210   6.009  0.6782 -2.4116 -2.1355
  673MOL0     H88801   1.897   4.278   5.804  2.9353 -0.3811  2.3871
  673MOL0     H88802   1.869   4.266   5.591  1.3917  1.8319 -0.6094
  673MOL0     H88803   1.756   4.391   5.636 -1.3657  0.4196 -1.5977
  673MOL0     H88804   1.582   4.325   5.463  0.7198  0.5971  3.7388
  673MOL0     H88805   1.675   4.191   5.415  0.4033 -0.2740 -1.0753
  673MOL0     H88806   1.867   4.329   5.350 -1.1539 -3.1491 -0.8810
  673MOL0     H88807   1.757   4.471   5.351  1.7486  1.0552 -3.6131
  673MOL0     H88808   1.736   4.210   5.186 -1.8114  0.0729 -0.3467
  673MOL0     H88809   1.599   4.320   5.190  0.0417 -0.7561 -1.1454
  673MOL0     H88810   1.865   4.435   5.106  0.6737 -0.2610  1.4574
  673MOL0     H88811   1.704   4.500   5.082  0.6550  0.0420  0.5604
  673MOL0     H88812   1.631   4.315   4.963  1.3438  0.2434 -0.6466
  673MOL0     H88813   1.797   4.249   4.941  0.8708 -0.9609  2.4029
  673MOL0     H88814   1.673   4.515   4.837 -0.8285  0.5267  1.3049
  673MOL0     H88815   1.855   4.476   4.845  0.2021  0.0099 -0.2004
  673MOL0     H88816   1.621   4.332   4.694 -0.6466  1.8547  2.1458
  673MOL0     H88817   1.796   4.284   4.690  0.4887  1.2308 -1.5626
  673MOL0     H88818   1.544   4.028   5.836  0.3592  1.1423 -2.6269
  673MOL0     H88819   1.599   3.970   6.033  0.2983  0.6192  1.4033
  673MOL0     H88820   1.800   3.712   6.393  0.2077  0.9819 -0.6499
  673MOL0     H88821   1.948   3.651   6.578  1.5979  0.1805  3.1118
  673MOL0     H88822   3.540   3.053   6.738 -0.5645  1.3513  0.4333
  673MOL0     H88823   3.580   2.929   6.530 -0.1778 -0.2014 -1.0743
  673MOL0     H88824   3.616   2.686   6.252  1.0329 -3.9228  0.5653
  673MOL0     H88825   3.698   2.575   6.079  0.5890 -1.5041 -0.0872
  673MOL0     H88826   3.427   2.513   5.691  1.4174  0.1327 -0.5430
  673MOL0     H88827   3.400   2.363   5.781 -2.4232  1.9993 -0.2097
  673MOL0     H88828   3.618   2.437   5.589  0.7715 -0.1624  2.2165
  673MOL0     H88829   3.632   2.290   5.670  1.5970  0.0759 -1.7511
  673MOL0     H88830   3.530   2.267   5.452  1.6890  0.9405  2.5418
  673MOL0     H88831   3.398   2.389   5.489  0.1959 -0.2005 -1.6605
  673MOL0     H88832   3.288   2.218   5.639 -1.2317  0.4108 -1.9882
  673MOL0     H88833   3.327   2.136   5.485  1.6409 -1.5982  0.4753
  673MOL0     H88834   3.559   1.918   5.753  1.1626  2.2968  3.0720
  673MOL0     H88835   3.291   2.522   5.913 -1.5158 -1.1324  2.3820
  673MOL0     H88836   3.206   2.641   6.096  0.6335  4.7415 -0.0555
  674MOL0     O88837   0.030   5.567   8.742  0.6122 -0.0206 -0.0946
  674MOL0     C88838   0.019   5.491   8.834  0.1476 -0.0169 -0.1143
  674MOL0     O88839   0.057   5.516   8.960 -0.4919  0.0321  0.7235
  674MOL0     C88840   0.128   5.632   8.983 -1.1695  0.1023 -0.4323
  674MOL0     C88841   0.262   5.654   8.936  0.1386 -0.3867  0.0431
  674MOL0     C88842   0.331   5.763   8.986 -0.5621 -0.5698  0.8289
  674MOL0     C88843   0.268   5.853   9.074  1.1012  0.4513 -0.0192
  674MOL0     O88844   0.338   5.971   9.106  0.3788  0.3436  0.1071
  674MOL0     C88845   0.408   5.968   9.231  0.0615 -0.4313 -0.8079
  674MOL0     C88846   0.540   6.044   9.226 -0.6753 -0.2413 -0.1181
  674MOL0     C88847   0.577   6.098   9.368 -0.4407 -0.3421  0.2184
  674MOL0     C88848   0.695   6.196   9.356  0.2080 -0.7554  0.6100
  674MOL0     C88849   0.804   6.174   9.254  0.1529  0.0914  0.1703
  674MOL0     C88850   0.889   6.047   9.303  0.2393  0.1916  0.8548
  674MOL0     C88851   0.977   6.078   9.420  0.6863 -0.3200 -1.0948
  674MOL0     C88852   1.066   5.960   9.467 -0.1241  0.6646 -0.2875
  674MOL0     N88853   1.124   5.969   9.602 -0.3582 -0.7819  0.1725
  674MOL0     C88854   1.247   6.025   9.631  0.2248  0.1667  0.4302
  674MOL0     C88855   1.263   6.008   9.764  0.1086  0.7350 -0.0454
  674MOL0     C88856   1.374   6.080   9.851  0.1815 -1.0224  1.2097
  674MOL0     C88857   1.478   5.979   9.898  0.7940 -0.5730 -0.5750
  674MOL0     C88858   1.559   6.003  10.022 -0.3431 -0.1928 -0.3126
  674MOL0     C88859   1.480   5.993  10.162 -0.3992  0.6648 -0.5494
  674MOL0     O88860   1.392   6.106  10.199  0.0870 -0.3911 -0.0439
  674MOL0     C88861   1.451   6.198  10.281 -0.6638  0.3955  0.3519
  674MOL0     C88862   1.589   6.223  10.291 -0.2433  0.3694  0.5488
  674MOL0     C88863   1.639   6.325  10.379  0.5029  0.9551 -0.7705
  674MOL0     C88864   1.548   6.367  10.475  1.2180  0.6108 -0.4795
  674MOL0     C88865   1.590   6.474  10.575  0.0061  0.4964 -0.3397
  674MOL0     O88866   1.496   6.511  10.669  0.1124 -0.0629  0.4653
  674MOL0     C88867   1.531   6.611  10.758  0.5365  0.4465  0.7075
  674MOL0     C88868   1.513   6.578  10.892 -1.2640  0.6979 -0.4623
  674MOL0     C88869   1.564   6.657  10.987  0.2531 -0.8180  0.0203
  674MOL0     C88870   1.632   6.776  10.962 -1.0266 -0.1824  0.2162
  674MOL0     O88871   1.697   6.860  11.055  1.6938 -0.1525  0.3007
  674MOL0     C88872   1.645   6.863  11.192 -0.0244 -0.0381  0.4596
  674MOL0     C88873   1.543   6.963  11.228 -0.3511 -0.1375  1.7339
  674MOL0     C88874   1.447   6.910  11.334 -0.2765  0.0322 -0.4645
  674MOL0     C88875   1.366   7.020  11.384 -0.3621  0.5643 -0.2474
  674MOL0     C88876   1.437   7.092  11.501 -0.2197 -1.6882  0.8802
  674MOL0     C88877   1.348   7.210  11.566  0.8098 -0.8014  0.0253
  674MOL0     C88878   1.366   7.218  11.714  0.1074 -0.2094 -0.4184
  674MOL0     C88879   1.464   7.319  11.744 -0.3140  0.1035  0.3311
  674MOL0    Cl88880   1.508   7.302  11.912  0.1791  0.0857  0.3549
  674MOL0     C88881   1.640   6.813  10.832 -0.2542 -0.3107  0.2685
  674MOL0     C88882   1.594   6.733  10.727 -0.1791 -0.4235 -1.3336
  674MOL0     O88883   1.705   6.528  10.560  0.3495  0.4218  0.7990
  674MOL0     C88884   1.408   6.339  10.456 -0.4345 -1.5648 -0.4910
  674MOL0     C88885   1.363   6.257  10.362 -0.0030 -0.7043 -0.6932
  674MOL0     N88886   1.149   5.953   9.823  0.6600  0.2115 -0.3055
  674MOL0     N88887   1.074   5.923   9.722  0.4472  0.5175  0.4058
  674MOL0     C88888   0.140   5.825   9.124  0.4970  0.0100  0.1226
  674MOL0     C88889   0.067   5.713   9.082 -0.4496 -0.8971  0.0990
  674MOL0     C88890  -0.060   5.372   8.799  0.2314  0.1786  0.5585
  674MOL0     C88891  -0.114   5.345   8.666  0.4475 -0.0236 -0.7303
  674MOL0     C88892  -0.182   5.210   8.650 -0.9370  0.0651  0.5791
  674MOL0     C88893  -0.202   5.113   8.749 -0.1683 -0.0474 -0.3335
  674MOL0     O88894  -0.260   4.993   8.715 -0.1952  0.3981 -0.1864
  674MOL0     C88895  -0.320   4.909   8.818 -1.0857  0.0293 -0.2250
  674MOL0     C88896  -0.405   4.796   8.745 -0.6562  0.3439  0.2116
  674MOL0     C88897  -0.544   4.851   8.697 -0.5686 -0.6826 -0.5413
  674MOL0     C88898  -0.550   4.923   8.567 -0.0138  0.0495 -0.0155
  674MOL0     C88899  -0.694   4.951   8.537 -0.1730  0.7119 -0.1913
  674MOL0     C88900  -0.813   4.980   8.528 -0.1841  0.1689 -0.1393
  674MOL0     C88901  -0.161   5.155   8.873 -0.4252  0.4603  0.6951
  674MOL0     C88902  -0.090   5.274   8.894 -0.6782  0.2142 -0.4890
  674MOL0     H88903   0.294   5.609   8.843  0.6451  0.5472 -0.2491
  674MOL0     H88904   0.424   5.797   8.941 -3.4791 -1.1037 -7.2246
  674MOL0     H88905   0.421   5.867   9.269 -0.9028 -0.9638 -1.8438
  674MOL0     H88906   0.347   6.024   9.302  1.7260  0.3642  0.0549
  674MOL0     H88907   0.540   6.133   9.164 -0.9805 -0.1826 -0.0334
  674MOL0     H88908   0.613   5.981   9.175 -2.2344 -1.7868 -0.5259
  674MOL0     H88909   0.595   6.014   9.436  0.3372 -0.1600  0.2455
  674MOL0     H88910   0.498   6.156   9.416  2.0770  4.7830 -1.1049
  674MOL0     H88911   0.657   6.295   9.328  0.3996 -1.0740 -0.9031
  674MOL0     H88912   0.732   6.207   9.458 -2.8135 -1.1919  1.8375
  674MOL0     H88913   0.866   6.264   9.242  1.7084 -0.8704  0.7010
  674MOL0     H88914   0.756   6.164   9.156 -2.5365  5.3535  0.6263
  674MOL0     H88915   0.960   6.026   9.222  2.6550  1.8887  2.3890
  674MOL0     H88916   0.829   5.959   9.326 -3.2757  2.1050 -0.2717
  674MOL0     H88917   1.044   6.161   9.397 -0.4136  1.3818  1.3545
  674MOL0     H88918   0.916   6.100   9.508  1.3227  0.6532 -0.8817
  674MOL0     H88919   1.152   5.944   9.401  0.9316 -1.2293  1.4525
  674MOL0     H88920   1.000   5.873   9.474 -0.3721  0.8269 -0.5795
  674MOL0     H88921   1.317   6.066   9.559  0.4850 -2.0099 -0.6212
  674MOL0     H88922   1.315   6.115   9.936 -3.5845  0.8871 -1.8577
  674MOL0     H88923   1.426   6.158   9.795  0.7321  0.0118  3.1020
  674MOL0     H88924   1.533   5.952   9.807  0.8973  2.2224 -1.4221
  674MOL0     H88925   1.419   5.889   9.918  0.8827  0.1264  3.8179
  674MOL0     H88926   1.639   5.928  10.021  1.4594  1.6425 -1.3439
  674MOL0     H88927   1.612   6.098  10.010  0.2001 -0.5349 -0.6485
  674MOL0     H88928   1.555   5.983  10.242  0.5062  2.3113 -1.1478
  674MOL0     H88929   1.425   5.898  10.160  3.2129 -1.5962 -1.8572
  674MOL0     H88930   1.671   6.183  10.233 -2.4777  0.0775 -2.6973
  674MOL0     H88931   1.746   6.342  10.383  0.5008  0.9361 -0.6317
  674MOL0     H88932   1.445   6.495  10.906 -1.6200  1.0497 -0.0690
  674MOL0     H88933   1.558   6.617  11.087 -1.2318  1.9751  1.1740
  674MOL0     H88934   1.727   6.888  11.260 -1.1341 -1.1040  2.2532
  674MOL0     H88935   1.616   6.762  11.219  0.4828 -1.0881 -2.5354
  674MOL0     H88936   1.475   6.979  11.144  0.9846 -1.5355  0.3514
  674MOL0     H88937   1.598   7.053  11.257 -0.5800  0.3166  0.7732
  674MOL0     H88938   1.505   6.875  11.420 -2.8048 -0.8940  0.9475
  674MOL0     H88939   1.390   6.823  11.299  0.4957 -0.8251  0.3465
  674MOL0     H88940   1.338   7.078  11.295 -0.7357  0.1889 -0.3768
  674MOL0     H88941   1.281   6.969  11.430  1.4209  0.8484  3.7596
  674MOL0     H88942   1.531   7.135  11.465 -1.6963  1.0060 -0.0264
  674MOL0     H88943   1.448   7.022  11.585 -1.8846  0.4021  2.9856
  674MOL0     H88944   1.247   7.178  11.539  1.3090 -2.2020 -0.2727
  674MOL0     H88945   1.375   7.302  11.512 -0.2064 -0.8771 -0.6260
  674MOL0     H88946   1.268   7.238  11.758  1.0982  0.4252  1.6300
  674MOL0     H88947   1.408   7.126  11.754  1.1737  1.7411  3.4566
  674MOL0     H88948   1.433   7.423  11.730  5.7954  2.1395 -1.3972
  674MOL0     H88949   1.550   7.304  11.679 -0.8957  0.7952 -0.6104
  674MOL0     H88950   1.699   6.899  10.805 -1.7708  1.3447  1.8860
  674MOL0     H88951   1.612   6.775  10.628 -1.5606  1.4794 -0.8487
  674MOL0     H88952   1.340   6.376  10.533  0.9811 -0.8393  0.4472
  674MOL0     H88953   1.259   6.227  10.357  0.3231 -1.6710 -2.2538
  674MOL0     H88954   0.098   5.903   9.186  2.5089  1.6856 -0.5061
  674MOL0     H88955  -0.036   5.698   9.113 -0.4043 -0.2432  0.5897
  674MOL0     H88956  -0.097   5.415   8.585 -4.7117 -0.5719 -2.6873
  674MOL0     H88957  -0.222   5.183   8.553  2.3956  0.0496 -0.9496
  674MOL0     H88958  -0.391   4.970   8.875 -1.7343  0.5505 -1.5710
  674MOL0     H88959  -0.242   4.858   8.877 -0.9157 -1.1447 -1.4225
  674MOL0     H88960  -0.346   4.763   8.659 -0.9296 -0.8796  0.4753
  674MOL0     H88961  -0.420   4.715   8.818 -0.0287  0.5443  0.5662
  674MOL0     H88962  -0.589   4.912   8.776 -1.5528 -1.1974 -0.6766
  674MOL0     H88963  -0.612   4.768   8.672 -4.2630  2.1278 -0.6997
  674MOL0     H88964  -0.492   5.014   8.556 -1.4152  0.8511 -1.1959
  674MOL0     H88965  -0.497   4.858   8.497  0.0736 -0.2042  0.2811
  674MOL0     H88966  -0.920   4.975   8.524 -0.1524 -0.8514  0.0698
  674MOL0     H88967  -0.174   5.096   8.963  0.1921  0.8598  1.0547
  674MOL0     H88968  -0.060   5.289   8.997 -0.0452  1.7315 -0.8569
  675MOL0     O88969   6.930   2.395   2.742 -0.1189  0.6286 -0.4354
  675MOL0     C88970   6.862   2.347   2.655  0.0355 -0.1329  0.6310
  675MOL0     O88971   6.753   2.273   2.677 -1.2020 -0.1790  0.8443
  675MOL0     C88972   6.625   2.322   2.707 -0.4518 -0.6384  0.8910
  675MOL0     C88973   6.528   2.225   2.737 -0.3790 -0.7386  0.3490
  675MOL0     C88974   6.402   2.254   2.798 -0.9806  0.3401  1.1842
  675MOL0     C88975   6.367   2.390   2.815  0.6770  0.4179  0.5855
  675MOL0     O88976   6.239   2.423   2.851 -0.9792 -0.8412 -0.2429
  675MOL0     C88977   6.218   2.461   2.989 -0.1114  0.6794  1.0005
  675MOL0     C88978   6.222   2.615   2.994  0.1426  0.1450 -0.3878
  675MOL0     C88979   6.139   2.692   2.894 -0.9077 -0.6076  0.7476
  675MOL0     C88980   5.993   2.641   2.885 -0.0496 -0.5736 -0.2613
  675MOL0     C88981   5.915   2.747   2.800  1.0475 -0.2080 -0.4442
  675MOL0     C88982   5.760   2.721   2.807  0.1360  0.5348 -0.9444
  675MOL0     C88983   5.663   2.837   2.750  0.0254 -0.1001 -0.6349
  675MOL0     C88984   5.515   2.803   2.756  0.3044  1.0647 -0.6266
  675MOL0     N88985   5.487   2.685   2.666 -0.2703  0.3947 -0.3194
  675MOL0     C88986   5.386   2.593   2.660 -0.6334 -0.1121 -0.8438
  675MOL0     C88987   5.400   2.508   2.558 -0.1145  0.1871 -1.1369
  675MOL0     C88988   5.303   2.390   2.525 -0.1855 -0.8130 -0.7805
  675MOL0     C88989   5.288   2.299   2.647 -0.1077 -0.1621  0.3657
  675MOL0     C88990   5.178   2.190   2.616 -0.7897 -1.1689  0.3024
  675MOL0     C88991   5.227   2.066   2.539  0.3531 -0.8418  0.2382
  675MOL0     O88992   5.219   1.948   2.624 -0.7292 -0.2275  0.1686
  675MOL0     C88993   5.101   1.891   2.648  0.3650 -0.5104 -0.1897
  675MOL0     C88994   5.109   1.766   2.693 -0.5888  0.0859 -0.4567
  675MOL0     C88995   5.002   1.679   2.711  0.2558  0.0248 -0.4757
  675MOL0     C88996   4.872   1.723   2.665 -0.8441 -0.2238  0.3014
  675MOL0     C88997   4.769   1.631   2.630 -0.2102  0.0527 -0.3835
  675MOL0     O88998   4.718   1.658   2.508  0.7412  0.6557  0.2092
  675MOL0     C88999   4.628   1.561   2.465 -0.1278 -0.1412 -0.1793
  675MOL0     C89000   4.499   1.601   2.433 -0.3296  0.3791 -0.0132
  675MOL0     C89001   4.403   1.511   2.401 -1.5636 -0.3020 -0.7763
  675MOL0     C89002   4.437   1.381   2.358 -0.3737  0.2245  0.2521
  675MOL0     O89003   4.337   1.306   2.298 -1.0875  1.3146 -0.2659
  675MOL0     C89004   4.340   1.163   2.340 -0.1161  0.5204  0.5236
  675MOL0     C89005   4.312   1.145   2.487  0.1912 -0.0651 -0.1940
  675MOL0     C89006   4.242   1.018   2.527  0.6958  0.2143  0.5422
  675MOL0     C89007   4.226   1.004   2.676 -0.3810 -0.2878  0.1166
  675MOL0     C89008   4.134   0.907   2.738  0.4613  0.2096  0.8604
  675MOL0     C89009   4.157   0.758   2.682  0.5453  0.0540  0.5395
  675MOL0     C89010   4.033   0.681   2.739  0.6454 -0.1275 -0.4397
  675MOL0     C89011   4.075   0.541   2.800 -0.1550  0.1449 -0.3758
  675MOL0    Cl89012   3.925   0.442   2.840  0.3877 -0.3181 -0.0616
  675MOL0     C89013   4.571   1.344   2.382  0.0099 -0.3576 -0.0134
  675MOL0     C89014   4.668   1.436   2.429  0.2392  1.0998 -0.3363
  675MOL0     O89015   4.737   1.533   2.700 -0.3355 -0.3948  0.1417
  675MOL0     C89016   4.864   1.857   2.635 -0.2181 -0.2893  0.6512
  675MOL0     C89017   4.977   1.945   2.629  0.4574  0.0014 -0.4795
  675MOL0     N89018   5.508   2.556   2.498 -1.7161 -0.2871 -0.3210
  675MOL0     N89019   5.564   2.659   2.555 -0.0622  1.3026  0.2568
  675MOL0     C89020   6.467   2.484   2.783  0.6093  0.0907 -0.1247
  675MOL0     C89021   6.595   2.455   2.739  0.0230 -0.5587  0.7752
  675MOL0     C89022   6.885   2.397   2.519 -0.3512  0.9247 -0.2777
  675MOL0     C89023   6.976   2.502   2.504 -0.9287 -0.2275 -0.3157
  675MOL0     C89024   7.022   2.544   2.379  1.0192  0.9880  0.7377
  675MOL0     C89025   6.978   2.455   2.268  0.1772  0.2128  0.2395
  675MOL0     O89026   7.040   2.478   2.153 -0.0124 -0.6851  0.2502
  675MOL0     C89027   7.105   2.371   2.083 -0.1008  0.0655  1.3309
  675MOL0     C89028   7.128   2.392   1.926  0.0927  0.5442  0.1161
  675MOL0     C89029   7.234   2.501   1.912  0.6273  0.3426 -0.3622
  675MOL0     C89030   7.271   2.497   1.761  0.1985  0.5525  0.0725
  675MOL0     C89031   7.315   2.619   1.695 -0.2730  0.7735  0.0892
  675MOL0     C89032   7.345   2.715   1.625  0.9326  0.8227 -0.2985
  675MOL0     C89033   6.876   2.357   2.272 -0.1979  0.3675  0.4753
  675MOL0     C89034   6.832   2.328   2.403  0.3989  0.2059  1.0932
  675MOL0     H89035   6.552   2.124   2.708  2.2921  0.5405 -2.4133
  675MOL0     H89036   6.327   2.176   2.807 -1.4063  0.5490 -0.3107
  675MOL0     H89037   6.287   2.422   3.065 -0.5904  1.1991  1.7145
  675MOL0     H89038   6.116   2.425   3.009  0.3350 -2.6184 -1.7387
  675MOL0     H89039   6.328   2.643   2.993 -0.0882  1.0633  0.0153
  675MOL0     H89040   6.167   2.648   3.083 -4.3721  2.5804 -3.6758
  675MOL0     H89041   6.173   2.676   2.792  1.7139  2.4154  0.9983
  675MOL0     H89042   6.161   2.799   2.902  3.4445 -1.3679  1.2591
  675MOL0     H89043   5.992   2.549   2.827  3.4400 -0.6753 -0.3681
  675MOL0     H89044   5.952   2.634   2.986 -2.1603  1.8392 -0.8467
  675MOL0     H89045   5.946   2.741   2.695 -1.8840 -0.9256 -1.3533
  675MOL0     H89046   5.918   2.852   2.833 -2.1720  0.0080 -0.4759
  675MOL0     H89047   5.724   2.704   2.909 -2.9493  2.5668 -1.5551
  675MOL0     H89048   5.750   2.628   2.751  0.1396  2.0550 -3.6307
  675MOL0     H89049   5.682   2.935   2.795 -0.4291  0.5576 -1.8070
  675MOL0     H89050   5.677   2.846   2.642 -3.5277 -1.1214 -1.3064
  675MOL0     H89051   5.456   2.887   2.718 -4.5983 -1.0977  1.4095
  675MOL0     H89052   5.478   2.787   2.857 -4.0585  1.5279 -1.9514
  675MOL0     H89053   5.301   2.599   2.728  0.7415 -1.8546  1.1841
  675MOL0     H89054   5.345   2.351   2.432 -0.4595  0.7268 -1.5696
  675MOL0     H89055   5.207   2.432   2.494  0.1188  1.2821  0.9119
  675MOL0     H89056   5.247   2.359   2.728 -0.7879  0.2913 -0.2968
  675MOL0     H89057   5.384   2.261   2.683  0.3700 -1.1280 -1.7834
  675MOL0     H89058   5.136   2.162   2.712 -1.5914  2.8953  1.3253
  675MOL0     H89059   5.108   2.253   2.560  1.7916  1.0611 -0.6967
  675MOL0     H89060   5.331   2.085   2.510  0.1386 -0.2186 -0.1462
  675MOL0     H89061   5.168   2.049   2.448 -0.7478  0.3917  0.6901
  675MOL0     H89062   5.206   1.726   2.721 -1.1766 -0.7573  0.4897
  675MOL0     H89063   5.026   1.576   2.736  2.7344 -0.1811 -3.1471
  675MOL0     H89064   4.466   1.704   2.447 -0.6779  0.1911  0.5791
  675MOL0     H89065   4.303   1.550   2.386 -1.5482  0.1150  0.1232
  675MOL0     H89066   4.434   1.117   2.311 -0.3599 -0.9993  2.0339
  675MOL0     H89067   4.270   1.100   2.284  4.0204 -3.4068 -0.7567
  675MOL0     H89068   4.277   1.240   2.528  1.4494  1.3924 -2.2736
  675MOL0     H89069   4.414   1.132   2.527 -0.0808 -4.8873 -0.5219
  675MOL0     H89070   4.280   0.930   2.475 -2.7379  0.1149 -2.1727
  675MOL0     H89071   4.145   1.043   2.485  0.6161  1.0607  1.1951
  675MOL0     H89072   4.324   0.988   2.722 -0.7393 -0.2090  0.9284
  675MOL0     H89073   4.193   1.103   2.709 -0.8609  0.5748 -2.7131
  675MOL0     H89074   4.037   0.942   2.703  1.2359  1.5791 -0.0156
  675MOL0     H89075   4.151   0.898   2.846 -0.4509  1.5150  1.1352
  675MOL0     H89076   4.252   0.716   2.715  1.0491 -0.7448 -1.7319
  675MOL0     H89077   4.164   0.767   2.573  1.0493 -1.3165  0.4419
  675MOL0     H89078   3.984   0.738   2.818  2.2103  3.5677 -1.8962
  675MOL0     H89079   3.968   0.669   2.652  0.1077  2.8142 -0.5258
  675MOL0     H89080   4.143   0.568   2.881 -0.6940  0.7139 -0.1011
  675MOL0     H89081   4.139   0.485   2.731  1.6350  0.5251  0.9005
  675MOL0     H89082   4.596   1.249   2.336  3.2223  0.7516 -0.8456
  675MOL0     H89083   4.766   1.407   2.467 -1.1953 -2.7091  0.9634
  675MOL0     H89084   4.773   1.897   2.590  0.7339 -1.0947 -2.2210
  675MOL0     H89085   4.968   2.048   2.596  0.3461 -0.3028 -1.4287
  675MOL0     H89086   6.447   2.590   2.796 -0.4708 -0.0416 -0.5523
  675MOL0     H89087   6.669   2.534   2.738  1.5328 -1.7332 -3.6414
  675MOL0     H89088   7.005   2.565   2.588 -0.4612 -3.2413  1.9753
  675MOL0     H89089   7.099   2.620   2.383  2.7369 -0.6070 -0.4667
  675MOL0     H89090   7.034   2.288   2.087 -1.4131  1.1724  1.5590
  675MOL0     H89091   7.202   2.339   2.121 -0.6884 -1.6834  1.4293
  675MOL0     H89092   7.165   2.300   1.879  2.4496  2.2919 -1.6512
  675MOL0     H89093   7.032   2.412   1.878 -0.3569  3.8436  2.0853
  675MOL0     H89094   7.322   2.477   1.972 -0.0339 -2.7023 -0.4113
  675MOL0     H89095   7.198   2.600   1.939  1.7257  0.2774  1.5068
  675MOL0     H89096   7.353   2.425   1.753  0.3660  0.9694 -3.9260
  675MOL0     H89097   7.186   2.470   1.697  0.4259  1.4177 -0.6197
  675MOL0     H89098   7.386   2.800   1.574  1.2483 -0.4990 -2.3535
  675MOL0     H89099   6.841   2.300   2.186  1.7009 -1.4155  0.8218
  675MOL0     H89100   6.752   2.255   2.415  0.3921  0.5525  3.7431
  676MOL0     O89101   7.413   9.170   6.083 -0.4072 -0.2228 -0.1734
  676MOL0     C89102   7.311   9.234   6.123 -1.3471 -0.1386  0.4555
  676MOL0     O89103   7.324   9.363   6.172  0.0822  0.0529 -0.2685
  676MOL0     C89104   7.450   9.414   6.209 -0.5028 -0.0975  0.8023
  676MOL0     C89105   7.568   9.341   6.243  0.0605 -0.0249  0.1604
  676MOL0     C89106   7.687   9.408   6.270  0.0682  1.4450 -0.4696
  676MOL0     C89107   7.688   9.550   6.265 -0.5520  0.2799 -0.1694
  676MOL0     O89108   7.806   9.626   6.288 -0.1903 -0.4361  0.3677
  676MOL0     C89109   7.908   9.556   6.350 -1.0829 -1.3128  0.3703
  676MOL0     C89110   7.984   9.675   6.412 -0.9639 -0.5939 -0.1452
  676MOL0     C89111   8.136   9.634   6.428 -0.6968  0.0073  0.5715
  676MOL0     C89112   8.217   9.757   6.458 -0.5986  0.1538  0.0582
  676MOL0     C89113   8.373   9.733   6.474  0.1206 -0.2927 -0.0225
  676MOL0     C89114   8.425   9.878   6.494 -0.3578  0.1476 -0.0933
  676MOL0     C89115   8.402   9.931   6.635 -0.8015 -1.1281 -0.2578
  676MOL0     C89116   8.483   9.856   6.741  0.1863  0.8517 -0.8984
  676MOL0     N89117   8.480   9.942   6.862 -0.2633  0.5060 -0.3787
  676MOL0     C89118   8.547  10.056   6.888 -0.7078  0.7839  0.2022
  676MOL0     C89119   8.505  10.107   7.001  0.0033  0.4088  0.0088
  676MOL0     C89120   8.549  10.226   7.067 -0.2321  0.5856 -1.2023
  676MOL0     C89121   8.556  10.346   6.972 -1.4895  0.7794 -0.1739
  676MOL0     C89122   8.587  10.474   7.044 -0.6644 -0.2401 -0.5546
  676MOL0     C89123   8.732  10.490   7.081 -0.3545  0.1750 -0.3279
  676MOL0     O89124   8.764  10.622   7.123  0.1549  0.4644 -0.2660
  676MOL0     C89125   8.874  10.685   7.065  0.9516 -0.1980 -0.2117
  676MOL0     C89126   8.842  10.781   6.963 -0.1036  0.5395  0.7426
  676MOL0     C89127   8.946  10.853   6.916 -0.0433  0.5324 -0.2173
  676MOL0     C89128   9.077  10.853   6.962 -0.2939  0.9604 -0.2192
  676MOL0     C89129   9.176  10.936   6.892 -0.8433 -0.1145 -0.6553
  676MOL0     O89130   9.304  10.918   6.941  0.5136 -0.2757  0.5773
  676MOL0     C89131   9.414  10.970   6.871 -0.0362  0.1844 -0.0145
  676MOL0     C89132   9.524  11.028   6.938 -0.6852 -0.3266  0.3388
  676MOL0     C89133   9.636  11.083   6.877  0.3442 -0.6163 -0.4606
  676MOL0     C89134   9.654  11.046   6.738 -0.0074 -0.4585 -0.5236
  676MOL0     O89135   9.763  11.069   6.663 -0.6128  0.3871 -0.0860
  676MOL0     C89136   9.849  11.187   6.683  0.3373 -0.4236 -0.0932
  676MOL0     C89137   9.974  11.184   6.600  0.0458  0.3351  0.7149
  676MOL0     C89138  10.058  11.310   6.618  0.1092 -0.0309  0.5011
  676MOL0     C89139  10.170  11.328   6.518 -0.2309 -1.1732  0.0052
  676MOL0     C89140  10.298  11.254   6.561 -0.1428  0.3361  0.2925
  676MOL0     C89141  10.410  11.298   6.481 -0.2541 -0.2681  0.2420
  676MOL0     C89142  10.526  11.216   6.529 -0.5675  0.8669 -0.2346
  676MOL0     C89143  10.647  11.258   6.443 -0.9153  0.3914 -0.9960
  676MOL0    Cl89144  10.787  11.145   6.475  0.0882  0.1594  0.2627
  676MOL0     C89145   9.553  10.973   6.675 -0.1082  0.3519  0.1801
  676MOL0     C89146   9.433  10.945   6.743  0.8616 -0.4850 -0.0444
  676MOL0     O89147   9.142  11.000   6.791  0.3093  0.6605  1.0060
  676MOL0     C89148   9.107  10.762   7.065  0.3163  0.1508  0.5852
  676MOL0     C89149   9.006  10.675   7.107  0.0083 -0.5720 -0.0441
  676MOL0     N89150   8.407  10.023   7.045 -0.8867  0.2861 -0.4010
  676MOL0     N89151   8.379   9.930   6.961  0.2202  0.4829  0.0119
  676MOL0     C89152   7.566   9.613   6.257 -0.3758 -0.1705 -0.4546
  676MOL0     C89153   7.448   9.554   6.226  0.2462  0.0056 -0.1164
  676MOL0     C89154   7.178   9.175   6.102  0.7481  0.3423 -0.3688
  676MOL0     C89155   7.079   9.248   6.038  0.2917 -0.6406 -0.1902
  676MOL0     C89156   6.953   9.185   6.010 -0.6679  0.1626 -0.4361
  676MOL0     C89157   6.936   9.050   6.051  0.8680 -0.4602 -0.0626
  676MOL0     O89158   6.820   8.976   6.035 -0.7222 -0.0108  0.2696
  676MOL0     C89159   6.697   9.041   5.997 -0.8562  0.1251  0.1845
  676MOL0     C89160   6.639   9.104   6.128 -0.9272  0.2855  0.1457
  676MOL0     C89161   6.515   9.183   6.107  0.0163 -0.3121  0.6505
  676MOL0     C89162   6.472   9.236   6.245  1.0797 -0.4979  0.3296
  676MOL0     C89163   6.336   9.293   6.229 -1.1119  0.7851  0.3351
  676MOL0     C89164   6.228   9.350   6.228  0.0243 -0.2256  0.2353
  676MOL0     C89165   7.039   8.988   6.106 -1.0911  0.4639 -0.8115
  676MOL0     C89166   7.158   9.039   6.126  1.1601  0.2076  0.9301
  676MOL0     H89167   7.573   9.233   6.249 -1.1939 -0.1419 -0.5690
  676MOL0     H89168   7.767   9.335   6.273  1.3563  2.5809 -3.5448
  676MOL0     H89169   7.983   9.510   6.285  0.9760  3.7153 -1.3322
  676MOL0     H89170   7.865   9.489   6.425  0.7267 -2.5056  0.3928
  676MOL0     H89171   7.948   9.699   6.512  1.8024 -0.8496  0.9894
  676MOL0     H89172   7.978   9.761   6.346  0.5907 -0.5888 -0.3060
  676MOL0     H89173   8.173   9.593   6.334 -0.1726  3.3853 -0.8198
  676MOL0     H89174   8.141   9.559   6.508 -1.4548 -0.0957  0.5315
  676MOL0     H89175   8.203   9.819   6.369 -0.9065 -0.6791 -0.4903
  676MOL0     H89176   8.170   9.799   6.547 -0.9250 -0.8761  0.3854
  676MOL0     H89177   8.412   9.698   6.378 -1.9286 -0.2302 -0.9129
  676MOL0     H89178   8.391   9.668   6.560 -0.6229  0.6180  0.8453
  676MOL0     H89179   8.398   9.939   6.408 -1.7441 -0.0826  0.1553
  676MOL0     H89180   8.534   9.864   6.487 -0.2714 -0.5501  1.8055
  676MOL0     H89181   8.422  10.038   6.648 -3.1336 -0.9124  2.4038
  676MOL0     H89182   8.297   9.912   6.659 -0.3931 -1.1183  1.6606
  676MOL0     H89183   8.585   9.847   6.702  0.7866 -0.3218  0.8645
  676MOL0     H89184   8.441   9.758   6.765 -1.4706  2.1637  2.1744
  676MOL0     H89185   8.617  10.097   6.816 -2.8850  0.1952 -2.3980
  676MOL0     H89186   8.645  10.209   7.117 -0.2539 -0.5714 -1.5331
  676MOL0     H89187   8.472  10.238   7.144  1.5634 -4.7635  1.9254
  676MOL0     H89188   8.460  10.350   6.921 -2.6726  2.5113  2.0141
  676MOL0     H89189   8.633  10.344   6.893 -1.9182  4.3150 -0.8501
  676MOL0     H89190   8.564  10.555   6.975  0.2318  0.9147  0.4639
  676MOL0     H89191   8.525  10.491   7.133 -3.6177  0.5009 -2.6034
  676MOL0     H89192   8.802  10.461   7.002  0.3476 -1.6255  0.9019
  676MOL0     H89193   8.771  10.417   7.152  1.7627 -0.9626 -2.4973
  676MOL0     H89194   8.742  10.794   6.922  1.4303  1.6040 -3.0942
  676MOL0     H89195   8.924  10.912   6.828  0.6389 -1.4431 -1.7851
  676MOL0     H89196   9.503  11.032   7.044  1.5075 -0.4909  0.8386
  676MOL0     H89197   9.712  11.145   6.924 -0.9704  0.1572  0.7394
  676MOL0     H89198   9.877  11.184   6.789  0.0313 -0.9536 -0.0254
  676MOL0     H89199   9.788  11.275   6.663  1.6279  0.9463  1.7259
  676MOL0     H89200   9.955  11.181   6.492 -1.5027 -0.2718  0.9760
  676MOL0     H89201  10.036  11.098   6.624  3.4516  2.2502 -0.6073
  676MOL0     H89202  10.108  11.302   6.714  3.0351 -2.4917 -1.0411
  676MOL0     H89203  10.004  11.405   6.620  2.2363  1.2470  0.6549
  676MOL0     H89204  10.130  11.330   6.416  1.7272  1.9496 -0.8615
  676MOL0     H89205  10.189  11.435   6.535 -2.0520 -0.9930  1.2275
  676MOL0     H89206  10.279  11.146   6.558  0.3015  0.2293  0.8662
  676MOL0     H89207  10.315  11.282   6.666 -1.3753  2.9018 -0.1291
  676MOL0     H89208  10.412  11.405   6.502 -3.1320 -0.5308  2.3988
  676MOL0     H89209  10.390  11.285   6.374  2.8062  2.0157 -0.7529
  676MOL0     H89210  10.551  11.242   6.632  0.1026 -2.6038  0.5944
  676MOL0     H89211  10.500  11.110   6.522  1.8809  0.2456 -0.9416
  676MOL0     H89212  10.692  11.352   6.476  1.0494 -0.1968 -1.8396
  676MOL0     H89213  10.624  11.259   6.336 -1.0749 -0.7928 -0.9871
  676MOL0     H89214   9.563  10.948   6.570 -1.4811  1.1098 -0.1563
  676MOL0     H89215   9.349  10.925   6.677  1.4978  1.3354 -1.4802
  676MOL0     H89216   9.209  10.755   7.102  0.7829  3.6237  0.3487
  676MOL0     H89217   9.034  10.604   7.184  0.6385  1.9404  2.1843
  676MOL0     H89218   7.559   9.721   6.266  1.4312 -0.1110  0.6377
  676MOL0     H89219   7.363   9.621   6.238 -0.2269 -0.7599  0.9527
  676MOL0     H89220   7.102   9.351   6.012  1.3168 -0.4809  1.2313
  676MOL0     H89221   6.874   9.252   5.979 -0.2286  0.8853 -0.0427
  676MOL0     H89222   6.635   8.964   5.951 -0.2491  0.1926 -0.7889
  676MOL0     H89223   6.725   9.119   5.925  2.2794 -3.3438 -2.7693
  676MOL0     H89224   6.620   9.027   6.204  0.9840 -1.6717 -1.2532
  676MOL0     H89225   6.705   9.176   6.177  0.2646  0.8789 -2.2006
  676MOL0     H89226   6.439   9.118   6.061  2.8495 -3.2664 -0.1853
  676MOL0     H89227   6.527   9.270   6.041 -1.0889 -1.0877 -0.6341
  676MOL0     H89228   6.475   9.161   6.325  0.4953  0.0576  0.8771
  676MOL0     H89229   6.539   9.313   6.285 -0.9104  0.0527  2.9044
  676MOL0     H89230   6.151   9.423   6.219 -2.7871 -3.2183 -1.9029
  676MOL0     H89231   7.030   8.883   6.135 -1.4450  0.0493 -2.3111
  676MOL0     H89232   7.221   8.976   6.188  4.2868  1.9166 -0.2349
  677MOL0     O89233   4.324   9.556   0.493  0.4740  0.3505  0.1406
  677MOL0     C89234   4.406   9.618   0.416  1.1939  0.7480  0.1917
  677MOL0     O89235   4.491   9.560   0.333  0.6531 -0.2326 -0.4305
  677MOL0     C89236   4.485   9.419   0.331 -0.1798  0.1930  0.2018
  677MOL0     C89237   4.364   9.342   0.319 -0.0652  0.2946 -0.4727
  677MOL0     C89238   4.375   9.203   0.301 -0.7858 -0.3646 -0.0525
  677MOL0     C89239   4.499   9.140   0.284  0.4196  1.0855  0.2104
  677MOL0     O89240   4.526   9.002   0.278 -0.2279  0.7626 -0.1053
  677MOL0     C89241   4.425   8.911   0.325 -0.8801 -0.0006  0.0762
  677MOL0     C89242   4.474   8.761   0.330 -1.0198  0.1642 -0.2246
  677MOL0     C89243   4.370   8.662   0.382 -0.3995  0.4089 -0.1582
  677MOL0     C89244   4.254   8.635   0.292 -0.0041 -0.2100  0.0585
  677MOL0     C89245   4.132   8.564   0.350  0.0488 -0.3168 -0.7187
  677MOL0     C89246   4.067   8.649   0.468 -0.1968 -0.5438  0.3110
  677MOL0     C89247   3.941   8.575   0.526 -0.5995 -0.6132  0.0855
  677MOL0     C89248   3.830   8.570   0.425  0.7774 -0.8349  0.0203
  677MOL0     N89249   3.710   8.497   0.477  0.1254  0.7070  1.5688
  677MOL0     C89250   3.686   8.444   0.605 -0.5153 -0.0434  0.4334
  677MOL0     C89251   3.565   8.377   0.593  0.2900 -1.2203 -0.6049
  677MOL0     C89252   3.476   8.312   0.701  0.2806 -0.2763 -0.3955
  677MOL0     C89253   3.395   8.421   0.772  0.2248  0.0581 -0.1968
  677MOL0     C89254   3.294   8.360   0.869  0.7060  0.2285 -0.0387
  677MOL0     C89255   3.234   8.464   0.973  0.7079 -0.2559  0.4100
  677MOL0     O89256   3.163   8.562   0.894 -0.1075  0.2984 -0.0587
  677MOL0     C89257   3.104   8.668   0.954  0.2871 -0.0614  0.3261
  677MOL0     C89258   3.079   8.680   1.089  0.2601  0.2516  0.0673
  677MOL0     C89259   3.030   8.797   1.135 -0.1009  0.4768 -0.4247
  677MOL0     C89260   2.991   8.903   1.058  0.3870 -0.1471 -0.5933
  677MOL0     C89261   2.933   9.021   1.118 -0.0067  0.3873  0.4806
  677MOL0     O89262   2.908   9.026   1.248 -0.3919  0.1764  0.0646
  677MOL0     C89263   2.846   9.142   1.297  0.1865  0.1600  0.6182
  677MOL0     C89264   2.705   9.164   1.264 -0.5810  0.0891 -0.7775
  677MOL0     C89265   2.636   9.266   1.328  0.6049  0.2590 -0.2297
  677MOL0     C89266   2.708   9.351   1.415  0.1351 -0.4346  0.6719
  677MOL0     O89267   2.654   9.465   1.467  0.2498  0.5638 -0.1109
  677MOL0     C89268   2.557   9.541   1.391 -0.1831  1.2547 -0.2288
  677MOL0     C89269   2.601   9.683   1.427  0.3012  0.7214  0.2608
  677MOL0     C89270   2.723   9.738   1.348 -1.8091  0.5834 -0.7632
  677MOL0     C89271   2.743   9.882   1.389  0.9361 -0.2690  0.2153
  677MOL0     C89272   2.823   9.970   1.284 -0.0346 -0.1434  0.5456
  677MOL0     C89273   2.961   9.907   1.247  0.2614  0.8370 -0.3637
  677MOL0     C89274   3.042   9.988   1.152  0.4390 -0.2947  0.4445
  677MOL0     C89275   3.051  10.137   1.196 -1.3548  0.3726  0.8449
  677MOL0    Cl89276   3.116  10.140   1.364  0.0599  0.2191 -0.0532
  677MOL0     C89277   2.842   9.321   1.444 -0.2428 -0.2845 -0.3790
  677MOL0     C89278   2.915   9.216   1.391 -0.3078 -0.3168 -0.2773
  677MOL0     O89279   2.918   9.108   1.030 -0.3857 -0.4975 -0.1705
  677MOL0     C89280   3.017   8.888   0.924 -0.5471 -0.2347 -0.1119
  677MOL0     C89281   3.060   8.773   0.872  0.3884  0.9411 -0.6769
  677MOL0     N89282   3.518   8.409   0.465 -0.9330  0.8911  0.1670
  677MOL0     N89283   3.604   8.483   0.400 -0.6003 -0.1702 -0.7568
  677MOL0     C89284   4.610   9.219   0.275 -0.5885  0.6099 -0.5521
  677MOL0     C89285   4.606   9.353   0.310 -0.3726 -0.8354 -0.1234
  677MOL0     C89286   4.387   9.763   0.408  0.2595  0.8893  0.7331
  677MOL0     C89287   4.468   9.838   0.321 -0.6169  0.1371 -0.3797
  677MOL0     C89288   4.473   9.977   0.332  0.4149 -0.0164 -0.7997
  677MOL0     C89289   4.389  10.044   0.430  0.0835  0.4767  0.7963
  677MOL0     O89290   4.390  10.182   0.456 -0.4479 -1.6864  0.1358
  677MOL0     C89291   4.514  10.243   0.449 -0.0520  0.4828  1.0088
  677MOL0     C89292   4.543  10.342   0.565 -0.5555  0.5273  0.8102
  677MOL0     C89293   4.560  10.255   0.694 -0.8999  0.4523  0.6574
  677MOL0     C89294   4.592  10.336   0.817 -0.0790  0.5666 -0.3413
  677MOL0     C89295   4.585  10.242   0.938 -0.6410 -0.4961  0.3038
  677MOL0     C89296   4.575  10.172   1.029 -0.5534 -0.4129 -0.3715
  677MOL0     C89297   4.284   9.968   0.483  0.2979 -0.1265 -0.0213
  677MOL0     C89298   4.288   9.821   0.476  0.5566 -1.1456 -0.3700
  677MOL0     H89299   4.271   9.395   0.331  1.1238  2.3747  0.1054
  677MOL0     H89300   4.288   9.143   0.325  0.0195 -1.4216  0.2721
  677MOL0     H89301   4.345   8.911   0.251 -0.5599 -2.1129 -0.3247
  677MOL0     H89302   4.375   8.952   0.414 -0.8701  2.1145 -0.8146
  677MOL0     H89303   4.566   8.761   0.389 -1.2352 -0.6829  0.1189
  677MOL0     H89304   4.508   8.729   0.231  0.1696  0.7540 -0.0315
  677MOL0     H89305   4.335   8.695   0.480 -0.7794 -2.7648  0.8971
  677MOL0     H89306   4.425   8.570   0.401 -0.5962  0.6878  1.9696
  677MOL0     H89307   4.216   8.731   0.255  0.3233  0.6831  1.9324
  677MOL0     H89308   4.279   8.572   0.206  2.0952  1.1873 -0.4398
  677MOL0     H89309   4.163   8.472   0.400  0.2657  0.4441  0.5940
  677MOL0     H89310   4.064   8.546   0.267  0.4790  0.5368 -1.2724
  677MOL0     H89311   4.044   8.747   0.425 -2.5162 -1.2266 -0.1518
  677MOL0     H89312   4.137   8.678   0.547 -1.8696  0.7977  1.3651
  677MOL0     H89313   3.985   8.477   0.544 -1.0853 -1.3396 -2.3190
  677MOL0     H89314   3.912   8.611   0.625 -0.2939 -0.7616  0.2303
  677MOL0     H89315   3.874   8.511   0.344  1.9985 -0.5879  0.4869
  677MOL0     H89316   3.802   8.670   0.390  2.4467 -0.5648 -0.6361
  677MOL0     H89317   3.750   8.442   0.693 -1.4105  0.6456  1.1229
  677MOL0     H89318   3.545   8.261   0.770  3.3871  0.7218 -2.5223
  677MOL0     H89319   3.416   8.237   0.650 -2.7380 -0.3482  2.8998
  677MOL0     H89320   3.342   8.478   0.695 -1.7439 -0.1452  0.9430
  677MOL0     H89321   3.471   8.479   0.825  3.3092 -3.0822 -0.7960
  677MOL0     H89322   3.215   8.313   0.809  0.6563 -2.7126  2.1339
  677MOL0     H89323   3.341   8.279   0.925 -1.2458 -1.7833 -1.1526
  677MOL0     H89324   3.324   8.508   1.017 -0.8310 -0.3084  3.8804
  677MOL0     H89325   3.183   8.423   1.060  0.3842  0.7887  0.7338
  677MOL0     H89326   3.095   8.586   1.142 -0.1235  1.1466  1.8464
  677MOL0     H89327   2.995   8.792   1.238 -3.6451  0.0192 -1.5115
  677MOL0     H89328   2.660   9.083   1.207 -1.3068  0.0971 -0.2260
  677MOL0     H89329   2.531   9.264   1.299  1.7215 -1.1352 -5.1357
  677MOL0     H89330   2.455   9.526   1.427  0.2306 -1.5212 -0.0015
  677MOL0     H89331   2.566   9.530   1.283  2.8312  0.9830 -0.0383
  677MOL0     H89332   2.614   9.678   1.536 -1.5027  2.7312  0.6411
  677MOL0     H89333   2.512   9.747   1.425 -0.7175 -0.6630 -0.0431
  677MOL0     H89334   2.712   9.730   1.240  0.5191 -2.5817 -0.9201
  677MOL0     H89335   2.811   9.681   1.379 -3.0149 -2.3689 -2.3921
  677MOL0     H89336   2.649   9.933   1.412  0.3665 -3.1069  5.8065
  677MOL0     H89337   2.800   9.869   1.481 -1.1641  0.7936  1.7626
  677MOL0     H89338   2.828  10.071   1.327  3.7018  0.1665 -0.2543
  677MOL0     H89339   2.766   9.976   1.191 -0.3700  1.6023  0.8271
  677MOL0     H89340   2.941   9.809   1.203  3.1845 -0.7214  1.4458
  677MOL0     H89341   3.015   9.885   1.340 -0.0091 -0.2866 -0.4595
  677MOL0     H89342   3.143   9.948   1.148 -0.2215 -2.2560  1.7518
  677MOL0     H89343   2.997   9.978   1.052  1.1139 -1.6689  0.2578
  677MOL0     H89344   2.956  10.190   1.204 -0.7170  1.2317  4.0420
  677MOL0     H89345   3.112  10.182   1.116  0.1500 -1.8075  0.6662
  677MOL0     H89346   2.890   9.389   1.514  2.8377 -2.2834 -0.3721
  677MOL0     H89347   3.012   9.206   1.439 -0.9484  0.8232  1.3274
  677MOL0     H89348   2.993   8.969   0.855  0.8410  0.9139  0.6907
  677MOL0     H89349   3.064   8.760   0.764  0.4988  1.8107 -0.7834
  677MOL0     H89350   4.709   9.185   0.245 -0.1694  2.2869 -1.1459
  677MOL0     H89351   4.699   9.408   0.306  0.5655 -2.2566  1.0664
  677MOL0     H89352   4.531   9.798   0.242 -2.8731  2.5354 -3.6393
  677MOL0     H89353   4.537  10.030   0.262 -0.7174  0.6699 -1.3418
  677MOL0     H89354   4.531  10.294   0.353  1.9708  0.2930  1.2159
  677MOL0     H89355   4.580  10.157   0.438 -1.9543 -0.7846 -1.6588
  677MOL0     H89356   4.629  10.405   0.540 -0.6512 -0.3047 -1.9825
  677MOL0     H89357   4.455  10.406   0.574 -0.2240  0.8425  1.8938
  677MOL0     H89358   4.650  10.193   0.680 -1.4320 -0.7253  2.1741
  677MOL0     H89359   4.481  10.182   0.712  0.8216 -1.1836  1.9808
  677MOL0     H89360   4.689  10.386   0.819  1.5288 -2.2599  2.9211
  677MOL0     H89361   4.512  10.409   0.829 -1.7543 -1.3108  0.5090
  677MOL0     H89362   4.572  10.099   1.107  1.7473  1.2309  1.3849
  677MOL0     H89363   4.221  10.015   0.558  0.5646 -1.8949  1.3591
  677MOL0     H89364   4.213   9.765   0.531 -1.0626  2.4357  1.4040
  678MOL0     O89365   5.730   2.112   3.001  0.0376  0.1108  0.2984
  678MOL0     C89366   5.628   2.085   2.947  0.1356  0.1349 -0.6226
  678MOL0     O89367   5.590   2.127   2.822  0.2451  0.0308 -0.2246
  678MOL0     C89368   5.676   2.180   2.730 -0.3500 -0.3170 -0.7000
  678MOL0     C89369   5.768   2.276   2.762 -0.1478 -0.1024 -1.2188
  678MOL0     C89370   5.873   2.295   2.674 -0.4524  0.1862 -0.1292
  678MOL0     C89371   5.886   2.247   2.545 -0.8973 -0.1248  0.0449
  678MOL0     O89372   5.995   2.265   2.455  0.0285 -0.1399  0.0858
  678MOL0     C89373   6.118   2.299   2.525 -0.1610 -0.4384 -0.4866
  678MOL0     C89374   6.223   2.301   2.418 -1.2290  0.0313  0.4319
  678MOL0     C89375   6.241   2.451   2.379 -0.0610  0.0810  1.2488
  678MOL0     C89376   6.321   2.465   2.239 -0.1238  0.4262  0.3741
  678MOL0     C89377   6.473   2.458   2.229  1.0667  0.4360  0.7360
  678MOL0     C89378   6.552   2.591   2.270  0.0360  0.0648 -0.8169
  678MOL0     C89379   6.544   2.702   2.165  0.4793 -0.0328  0.8652
  678MOL0     C89380   6.578   2.838   2.231  0.8737  0.7272  0.6982
  678MOL0     N89381   6.464   2.891   2.315 -0.0924  0.1088 -0.2244
  678MOL0     C89382   6.351   2.927   2.249  0.2319 -1.5261 -0.4656
  678MOL0     C89383   6.267   2.973   2.345  0.9325 -0.2276 -0.5273
  678MOL0     C89384   6.132   3.035   2.329 -0.3622 -0.5486 -0.1960
  678MOL0     C89385   6.039   2.934   2.297 -0.2112  0.9707 -0.8740
  678MOL0     C89386   6.057   2.800   2.380  0.0845 -1.0068 -0.1873
  678MOL0     C89387   5.943   2.691   2.355 -0.0856  0.4116  0.1126
  678MOL0     O89388   5.969   2.606   2.243 -0.0342  0.3628  0.8186
  678MOL0     C89389   5.885   2.512   2.196 -0.3192  0.4667 -1.1641
  678MOL0     C89390   5.945   2.431   2.096 -0.0027  0.7410 -0.7911
  678MOL0     C89391   5.865   2.326   2.046 -0.7859 -0.3389  1.1381
  678MOL0     C89392   5.737   2.305   2.090  0.0214  0.4349  0.0916
  678MOL0     C89393   5.661   2.190   2.035  0.0032  0.7644  0.2506
  678MOL0     O89394   5.707   2.133   1.921 -0.2380 -0.1308  0.1047
  678MOL0     C89395   5.675   1.999   1.899 -0.9529  0.4059 -0.1118
  678MOL0     C89396   5.547   1.946   1.891  0.6731 -0.5319  1.1281
  678MOL0     C89397   5.517   1.804   1.858  0.1717 -0.9275  0.9083
  678MOL0     C89398   5.630   1.713   1.841  0.5250  1.0663  0.5928
  678MOL0     O89399   5.613   1.581   1.811  0.4216 -0.0984  0.5842
  678MOL0     C89400   5.669   1.481   1.908  0.2031  0.7003  0.3027
  678MOL0     C89401   5.720   1.359   1.826 -0.4513 -0.6974  1.4872
  678MOL0     C89402   5.779   1.240   1.899 -0.0323 -0.4248 -0.1744
  678MOL0     C89403   5.670   1.172   1.965 -0.3350 -0.2932  0.7469
  678MOL0     C89404   5.702   1.084   2.083 -0.2239 -0.1351  0.1241
  678MOL0     C89405   5.831   0.995   2.071 -0.4483 -0.5189 -0.2763
  678MOL0     C89406   5.805   0.874   1.980  0.7294 -0.0433 -1.0863
  678MOL0     C89407   5.919   0.785   1.975 -0.2558  0.7830 -1.1599
  678MOL0    Cl89408   6.050   0.859   1.889  0.0371  0.2567 -0.3042
  678MOL0     C89409   5.759   1.768   1.859 -0.2034 -1.0066  0.1037
  678MOL0     C89410   5.776   1.902   1.885 -0.2673  0.3663 -0.3435
  678MOL0     O89411   5.567   2.147   2.103 -0.9920  0.5711 -0.9210
  678MOL0     C89412   5.688   2.384   2.189  0.4530 -0.4501 -0.0690
  678MOL0     C89413   5.753   2.491   2.241 -0.7424 -0.4776 -0.2386
  678MOL0     N89414   6.342   2.955   2.459  0.9364 -0.1785 -1.0081
  678MOL0     N89415   6.458   2.910   2.441 -0.4625 -0.0090 -0.7303
  678MOL0     C89416   5.776   2.169   2.502 -0.1700 -0.3851  0.1045
  678MOL0     C89417   5.677   2.134   2.597  0.1615  0.2240 -0.6816
  678MOL0     C89418   5.529   2.003   3.030 -0.1861 -0.4122  0.0899
  678MOL0     C89419   5.556   1.974   3.168 -0.2374 -0.3903  0.1156
  678MOL0     C89420   5.463   1.897   3.243 -0.1997  0.4203  0.1328
  678MOL0     C89421   5.342   1.862   3.194  0.5447 -0.0393  0.0542
  678MOL0     O89422   5.252   1.797   3.266  0.2867  0.6357 -0.9830
  678MOL0     C89423   5.285   1.654   3.283  0.3374  0.6493 -0.2576
  678MOL0     C89424   5.153   1.576   3.242 -0.2311 -0.6664  0.9686
  678MOL0     C89425   5.022   1.629   3.293  0.3177  0.1414 -1.0470
  678MOL0     C89426   4.903   1.541   3.277 -0.1167  0.7940  0.2408
  678MOL0     C89427   4.885   1.502   3.135  1.1228  0.0493  0.4547
  678MOL0     C89428   4.894   1.480   3.016 -0.5398 -0.3942  0.3269
  678MOL0     C89429   5.311   1.890   3.058  0.0373  0.3726  0.1298
  678MOL0     C89430   5.405   1.958   2.981 -0.4045  0.4485  0.2203
  678MOL0     H89431   5.779   2.335   2.852 -1.2814 -0.9172 -0.5144
  678MOL0     H89432   5.958   2.349   2.715 -1.0787 -0.2888  1.9066
  678MOL0     H89433   6.144   2.219   2.595  0.8017  2.1319  2.3368
  678MOL0     H89434   6.114   2.398   2.572 -0.5932 -2.1422  3.4260
  678MOL0     H89435   6.193   2.237   2.335 -4.2689  2.2936 -0.4132
  678MOL0     H89436   6.317   2.268   2.464 -2.5168 -3.1555  1.0072
  678MOL0     H89437   6.284   2.511   2.459 -2.4728  2.4972  0.8660
  678MOL0     H89438   6.141   2.489   2.359 -0.7307 -0.8363  2.7011
  678MOL0     H89439   6.284   2.380   2.181  0.9650  0.2747 -0.1259
  678MOL0     H89440   6.288   2.556   2.188 -1.1790 -1.3483 -2.3231
  678MOL0     H89441   6.498   2.435   2.124  2.6163  2.3264  0.6396
  678MOL0     H89442   6.491   2.368   2.289 -0.5545 -0.6862 -0.3622
  678MOL0     H89443   6.660   2.577   2.281  0.3443  0.1778 -3.2149
  678MOL0     H89444   6.515   2.620   2.369 -2.8270  0.2840 -1.8576
  678MOL0     H89445   6.622   2.684   2.091  2.0055 -1.5956  2.7535
  678MOL0     H89446   6.449   2.700   2.111 -0.9147 -0.7922  3.2105
  678MOL0     H89447   6.582   2.907   2.145  0.1848 -0.0300  0.0397
  678MOL0     H89448   6.679   2.838   2.273  0.7006 -1.5181  1.2354
  678MOL0     H89449   6.336   2.919   2.142 -2.3262 -5.3726 -0.0037
  678MOL0     H89450   6.145   3.114   2.254  0.6708 -0.3889  0.1329
  678MOL0     H89451   6.105   3.087   2.422 -1.4495  1.9188 -1.7621
  678MOL0     H89452   6.053   2.914   2.191  0.5239  1.4528 -0.8731
  678MOL0     H89453   5.937   2.974   2.305 -0.0862  1.3510 -1.1420
  678MOL0     H89454   6.154   2.756   2.355  0.0991 -0.3954 -1.2603
  678MOL0     H89455   6.059   2.822   2.487  0.2853  1.7797 -0.7056
  678MOL0     H89456   5.844   2.738   2.355  0.2000  1.1212  2.1086
  678MOL0     H89457   5.941   2.630   2.446  2.6447  0.0811  0.0201
  678MOL0     H89458   6.048   2.454   2.069  0.4633  0.6408  0.8076
  678MOL0     H89459   5.910   2.252   1.981 -1.3456  0.4728 -0.2221
  678MOL0     H89460   5.463   2.001   1.931  2.1291  0.1873  3.3496
  678MOL0     H89461   5.413   1.772   1.861 -0.0744 -0.1416  0.9686
  678MOL0     H89462   5.586   1.441   1.967  1.1416  1.1731  1.9837
  678MOL0     H89463   5.757   1.513   1.963  0.2908 -2.7062  2.3946
  678MOL0     H89464   5.792   1.410   1.763 -3.0678 -0.0245 -1.1846
  678MOL0     H89465   5.649   1.321   1.752  2.0102 -0.3594 -1.2074
  678MOL0     H89466   5.855   1.276   1.969  0.7999  1.4622 -1.9516
  678MOL0     H89467   5.821   1.164   1.832  1.7696  0.1168  0.2851
  678MOL0     H89468   5.594   1.248   1.984 -0.2754  0.9242 -3.1109
  678MOL0     H89469   5.629   1.105   1.889 -0.7784  0.5754  0.2148
  678MOL0     H89470   5.617   1.016   2.099 -0.5401  0.2955  0.2858
  678MOL0     H89471   5.728   1.151   2.165  0.1880 -0.6760  0.4398
  678MOL0     H89472   5.849   0.954   2.171  1.7181  1.8731  0.4230
  678MOL0     H89473   5.922   1.047   2.042 -0.4336 -1.3888 -1.8773
  678MOL0     H89474   5.722   0.818   2.023 -0.4887  0.8487 -2.2055
  678MOL0     H89475   5.775   0.903   1.879 -0.8629  1.5228 -0.2146
  678MOL0     H89476   5.895   0.696   1.916 -1.2141  0.2251  0.0165
  678MOL0     H89477   5.960   0.752   2.071 -1.5233 -0.6385 -1.0583
  678MOL0     H89478   5.831   1.688   1.852  1.6105  0.4225  1.5122
  678MOL0     H89479   5.874   1.946   1.898  0.1765 -0.6701 -0.1006
  678MOL0     H89480   5.589   2.362   2.228  1.0124 -2.3926  0.3383
  678MOL0     H89481   5.702   2.554   2.313 -1.6189  0.2967 -1.4918
  678MOL0     H89482   5.761   2.136   2.399 -1.0477  1.4657 -0.4056
  678MOL0     H89483   5.602   2.060   2.571 -0.2361 -0.6354  2.4594
  678MOL0     H89484   5.646   2.004   3.219 -1.2361  1.2890  0.9922
  678MOL0     H89485   5.487   1.886   3.348 -0.8066  0.0036  0.2355
  678MOL0     H89486   5.312   1.641   3.388 -2.4800  4.3182  1.1457
  678MOL0     H89487   5.364   1.614   3.219  1.3124  0.4208  1.0469
  678MOL0     H89488   5.149   1.583   3.133 -1.6197  3.4237  1.1178
  678MOL0     H89489   5.180   1.472   3.263  5.1975  0.5680  1.5698
  678MOL0     H89490   4.990   1.722   3.246 -1.7015  0.5316  0.8986
  678MOL0     H89491   5.042   1.642   3.400 -0.8267 -1.9361 -0.5211
  678MOL0     H89492   4.917   1.454   3.342  5.1612  0.5682 -0.7801
  678MOL0     H89493   4.819   1.595   3.321 -1.2169 -0.7181  0.0960
  678MOL0     H89494   4.928   1.459   2.917 -1.7909  0.3280 -0.2782
  678MOL0     H89495   5.210   1.860   3.031  0.5383 -1.6997  0.3643
  678MOL0     H89496   5.383   1.970   2.875  0.8883  0.8759 -0.0173
  679MOL0     O89497   4.884   8.404  11.123  0.3078 -0.4123  0.4937
  679MOL0     C89498   4.951   8.429  11.223 -0.5877  0.0705 -0.2999
  679MOL0     O89499   4.913   8.414  11.356 -0.3248  0.7735 -0.6932
  679MOL0     C89500   4.794   8.356  11.402  0.5620 -0.3258  0.0015
  679MOL0     C89501   4.670   8.353  11.327 -1.1130  0.2000  0.0820
  679MOL0     C89502   4.558   8.298  11.391 -0.6408  0.3754  0.3069
  679MOL0     C89503   4.570   8.240  11.521  0.1064  0.2435  0.0551
  679MOL0     O89504   4.474   8.158  11.579  0.4775 -0.0629  0.2168
  679MOL0     C89505   4.342   8.150  11.528  0.2578  0.3127 -1.0846
  679MOL0     C89506   4.252   8.086  11.640 -0.0317 -0.0148  0.6218
  679MOL0     C89507   4.243   8.184  11.756  1.1190  0.3191 -0.7786
  679MOL0     C89508   4.159   8.135  11.878  0.6168 -0.4850  0.3173
  679MOL0     C89509   4.227   8.174  12.006  0.0874  0.1449  0.6531
  679MOL0     C89510   4.152   8.137  12.140 -1.1371 -1.1879 -0.0828
  679MOL0     C89511   4.147   7.981  12.147  0.2175 -0.6924  0.2717
  679MOL0     C89512   4.050   7.921  12.241 -0.5917  0.0358  0.0878
  679MOL0     N89513   3.907   7.939  12.210  0.1670 -0.3474  0.2496
  679MOL0     C89514   3.859   7.951  12.081  0.5075 -0.5934  0.6517
  679MOL0     C89515   3.728   7.991  12.112 -0.7702 -0.0811  0.3152
  679MOL0     C89516   3.623   7.998  12.005 -0.4997  0.6676 -0.2253
  679MOL0     C89517   3.674   8.007  11.863  0.2412 -0.6926 -0.1897
  679MOL0     C89518   3.551   8.034  11.764  0.0656  0.8432 -0.5195
  679MOL0     C89519   3.585   8.010  11.612  0.5376  0.6309 -0.1229
  679MOL0     O89520   3.721   8.022  11.590 -0.3042  1.1596 -0.0639
  679MOL0     C89521   3.778   8.151  11.581 -0.3467  0.1433  0.0610
  679MOL0     C89522   3.902   8.174  11.513 -0.2408  1.3172  1.0870
  679MOL0     C89523   3.971   8.288  11.495 -0.2666 -0.0685  0.5193
  679MOL0     C89524   3.911   8.409  11.531  0.0259  0.8270  0.0826
  679MOL0     C89525   3.971   8.536  11.492 -0.0843 -0.4315  0.3403
  679MOL0     O89526   3.874   8.639  11.463 -1.0910  0.0726  0.4459
  679MOL0     C89527   3.920   8.770  11.457  0.4030  0.3072 -0.9512
  679MOL0     C89528   3.886   8.853  11.362  0.6602 -0.3967  0.9447
  679MOL0     C89529   3.944   8.985  11.347  0.1636  0.2543 -0.3735
  679MOL0     C89530   4.015   9.041  11.464  0.0445 -0.3311  0.8449
  679MOL0     O89531   4.072   9.162  11.478 -0.2781 -0.4604  0.0345
  679MOL0     C89532   4.064   9.257  11.372  0.5237 -0.6450 -0.3637
  679MOL0     C89533   4.188   9.261  11.285 -0.0374  0.2911  0.1317
  679MOL0     C89534   4.165   9.297  11.147 -0.3066  1.1936  0.4699
  679MOL0     C89535   4.289   9.272  11.053 -0.3921  0.4402  0.1122
  679MOL0     C89536   4.262   9.227  10.913  0.5543  0.5110 -0.3160
  679MOL0     C89537   4.371   9.243  10.812 -0.2730  0.0098  0.0959
  679MOL0     C89538   4.360   9.145  10.696  0.2168  0.6696 -0.2358
  679MOL0     C89539   4.483   9.152  10.608 -0.2922 -0.0391  0.0165
  679MOL0    Cl89540   4.473   9.063  10.457  0.1193 -0.1771  0.5105
  679MOL0     C89541   4.036   8.964  11.576  0.4081 -0.4342  0.1519
  679MOL0     C89542   3.997   8.829  11.571  0.7273  0.8134 -0.6869
  679MOL0     O89543   4.097   8.553  11.475  0.9153 -0.0701 -0.6497
  679MOL0     C89544   3.790   8.404  11.593  0.7446  0.1959 -0.4345
  679MOL0     C89545   3.719   8.281  11.614 -0.2678  0.5607 -0.2566
  679MOL0     N89546   3.718   8.013  12.245  0.1496  0.5670 -0.1574
  679MOL0     N89547   3.824   7.982  12.306 -0.3317  0.5008  0.4771
  679MOL0     C89548   4.693   8.240  11.585  0.7530  1.4169 -0.2654
  679MOL0     C89549   4.802   8.295  11.522  0.3748  0.1460 -0.8673
  679MOL0     C89550   5.088   8.465  11.191 -0.6509 -0.9367 -0.2380
  679MOL0     C89551   5.128   8.484  11.055 -0.9365  0.1592 -0.4172
  679MOL0     C89552   5.261   8.501  11.029  0.7996  0.2324  0.3154
  679MOL0     C89553   5.356   8.503  11.126 -1.0453 -0.3307 -0.6218
  679MOL0     O89554   5.495   8.526  11.095  0.2243 -0.2628 -0.3387
  679MOL0     C89555   5.552   8.454  10.979 -0.4564  0.0152  0.3782
  679MOL0     C89556   5.520   8.307  10.994 -1.0097  0.4718  0.8646
  679MOL0     C89557   5.561   8.234  10.858 -0.7698 -0.8928 -0.8478
  679MOL0     C89558   5.617   8.096  10.862  0.7941  0.1257 -0.4192
  679MOL0     C89559   5.520   7.994  10.908  0.0039 -0.3032 -0.3507
  679MOL0     C89560   5.422   7.927  10.917 -0.3960 -0.6803 -0.8066
  679MOL0     C89561   5.327   8.496  11.261  0.5264 -0.2426  0.0181
  679MOL0     C89562   5.189   8.470  11.295 -0.8830  0.1112 -0.4094
  679MOL0     H89563   4.662   8.386  11.225  0.5083 -3.0808 -1.2546
  679MOL0     H89564   4.463   8.301  11.339 -0.4052  1.1815 -0.0997
  679MOL0     H89565   4.326   8.115  11.425 -0.3872  1.7592 -1.5067
  679MOL0     H89566   4.290   8.247  11.519 -3.3386 -1.4520 -1.1033
  679MOL0     H89567   4.292   7.989  11.674  1.0742  1.0241  2.4364
  679MOL0     H89568   4.165   8.068  11.576 -0.2030 -1.7929  1.3025
  679MOL0     H89569   4.205   8.281  11.725  2.6520  0.7046 -1.5649
  679MOL0     H89570   4.336   8.222  11.799  0.6684  1.3673 -0.7000
  679MOL0     H89571   4.058   8.177  11.881  1.3748  1.4804  0.3243
  679MOL0     H89572   4.158   8.026  11.876 -0.7534 -0.4720 -0.9768
  679MOL0     H89573   4.258   8.279  11.996 -3.1171  1.0394 -1.4612
  679MOL0     H89574   4.318   8.114  11.997 -0.2473 -0.0233 -2.9462
  679MOL0     H89575   4.063   8.198  12.122  0.4138  0.5899 -2.4194
  679MOL0     H89576   4.204   8.182  12.225 -1.6641 -0.5683 -0.0836
  679MOL0     H89577   4.136   7.931  12.050 -0.1398 -0.3515  0.1323
  679MOL0     H89578   4.248   7.951  12.178 -0.0286 -1.5916  0.2415
  679MOL0     H89579   4.075   7.957  12.341  2.0374 -0.7051 -0.2326
  679MOL0     H89580   4.073   7.814  12.240  1.0457  0.3532 -1.4758
  679MOL0     H89581   3.899   7.922  11.984  0.8645 -0.5187  0.7765
  679MOL0     H89582   3.542   8.071  12.018 -1.5436 -0.5951  0.6267
  679MOL0     H89583   3.573   7.901  12.012  0.3764  0.0678 -1.7525
  679MOL0     H89584   3.727   7.918  11.828 -0.2739 -1.3332  0.6195
  679MOL0     H89585   3.742   8.091  11.876  1.6026 -1.7798 -0.1077
  679MOL0     H89586   3.472   7.961  11.786  2.7158 -2.4738 -1.2577
  679MOL0     H89587   3.497   8.129  11.778 -3.5554 -0.4790 -3.6302
  679MOL0     H89588   3.529   8.085  11.555  0.4325  4.2161  4.1155
  679MOL0     H89589   3.553   7.909  11.587  1.7468 -0.0536  0.9844
  679MOL0     H89590   3.951   8.083  11.479 -1.1403  1.3171 -0.2905
  679MOL0     H89591   4.073   8.306  11.462 -0.8998  2.2718 -0.3226
  679MOL0     H89592   3.809   8.827  11.290 -0.3663  2.2161  1.0006
  679MOL0     H89593   3.917   9.044  11.261 -3.2428 -1.5728 -0.7638
  679MOL0     H89594   4.055   9.359  11.412  4.4154  0.8247 -2.6349
  679MOL0     H89595   3.979   9.241  11.305  1.5171 -2.0940 -1.3231
  679MOL0     H89596   4.232   9.161  11.284 -1.2050 -0.2553  0.9147
  679MOL0     H89597   4.268   9.318  11.332  1.9049 -2.4672  0.4216
  679MOL0     H89598   4.118   9.395  11.135  0.7488  1.4543 -2.1645
  679MOL0     H89599   4.091   9.224  11.113  0.5187  0.7574 -0.4261
  679MOL0     H89600   4.330   9.374  11.054  0.8058 -0.0017  2.2756
  679MOL0     H89601   4.363   9.210  11.106 -3.5509 -3.3714  0.4856
  679MOL0     H89602   4.185   9.289  10.866  1.4413  0.9676 -1.2069
  679MOL0     H89603   4.234   9.121  10.912 -0.5964  0.7524  1.4092
  679MOL0     H89604   4.472   9.227  10.851  0.0108  3.2785  1.0351
  679MOL0     H89605   4.373   9.342  10.764  1.9722 -1.1364 -2.4735
  679MOL0     H89606   4.361   9.042  10.734  0.7424 -0.0357 -2.0779
  679MOL0     H89607   4.263   9.159  10.648 -1.3836  1.4631  2.9120
  679MOL0     H89608   4.566   9.127  10.674 -1.1033 -0.7064  0.8066
  679MOL0     H89609   4.513   9.252  10.574  0.0084 -0.5868 -1.4287
  679MOL0     H89610   4.095   8.999  11.660  2.2899  0.5086 -1.4704
  679MOL0     H89611   3.996   8.766  11.659 -1.1485 -1.3698 -2.1774
  679MOL0     H89612   3.740   8.496  11.621 -0.8760 -1.1165  1.1879
  679MOL0     H89613   3.620   8.275  11.658  1.5581  3.4957  5.1651
  679MOL0     H89614   4.703   8.205  11.687 -1.2464  0.8767 -0.2200
  679MOL0     H89615   4.899   8.306  11.570 -0.5549 -1.3690  1.5626
  679MOL0     H89616   5.049   8.470  10.982 -2.1675 -1.6938  1.1562
  679MOL0     H89617   5.287   8.501  10.924 -0.8441  0.1322 -0.1188
  679MOL0     H89618   5.660   8.473  10.979 -0.1525 -1.5123 -0.4407
  679MOL0     H89619   5.506   8.491  10.886  3.6555 -0.2122 -2.0076
  679MOL0     H89620   5.576   8.268  11.079  1.2034 -1.1842 -1.2314
  679MOL0     H89621   5.412   8.292  11.006 -1.6738  2.8177 -1.2182
  679MOL0     H89622   5.639   8.289  10.806  0.4405 -4.4776 -3.2449
  679MOL0     H89623   5.477   8.236  10.787 -0.9006 -1.6130 -0.7257
  679MOL0     H89624   5.665   8.063  10.770 -0.3158  1.6733 -1.5850
  679MOL0     H89625   5.696   8.086  10.938 -1.5568 -0.9402  2.0608
  679MOL0     H89626   5.327   7.877  10.914 -2.0977  2.3107 -1.0270
  679MOL0     H89627   5.413   8.496  11.327 -1.0024  2.1478  2.2079
  679MOL0     H89628   5.169   8.465  11.401  0.0272 -2.7715 -0.3037
  680MOL0     O89629   1.383   7.792   1.145  0.7183  0.0614  0.0162
  680MOL0     C89630   1.286   7.759   1.215  0.8546  0.6702  0.8888
  680MOL0     O89631   1.271   7.776   1.359  0.5714 -1.3569  1.0664
  680MOL0     C89632   1.369   7.831   1.432  0.4800 -0.4452 -0.6112
  680MOL0     C89633   1.343   7.938   1.523  1.2631 -0.1956  0.2195
  680MOL0     C89634   1.441   8.019   1.579 -0.3422 -0.2662  0.4382
  680MOL0     C89635   1.573   7.990   1.545 -0.0164  0.5823  0.3516
  680MOL0     O89636   1.666   8.081   1.588 -0.8690 -0.7666 -0.1921
  680MOL0     C89637   1.800   8.036   1.612 -0.0583  0.0088  0.3210
  680MOL0     C89638   1.872   8.121   1.716  0.1977  1.2165  0.4934
  680MOL0     C89639   1.975   8.026   1.783 -0.6216 -1.3748 -0.7160
  680MOL0     C89640   2.068   8.110   1.870  0.6950  0.4259  0.3209
  680MOL0     C89641   2.176   8.025   1.936  0.1842  0.2127 -0.1207
  680MOL0     C89642   2.191   8.070   2.087 -0.7271  0.4852  0.3142
  680MOL0     C89643   2.069   8.029   2.171 -0.4811  0.3709 -0.5448
  680MOL0     C89644   2.035   8.137   2.262 -0.6128 -0.7432 -0.7806
  680MOL0     N89645   1.913   8.101   2.337 -0.3233 -0.4088  0.7895
  680MOL0     C89646   1.898   8.016   2.447 -1.0643 -0.2725 -0.1374
  680MOL0     C89647   1.760   8.018   2.462 -0.8474 -0.3423 -0.4840
  680MOL0     C89648   1.682   7.935   2.571  0.3429  0.3746  0.1829
  680MOL0     C89649   1.620   8.022   2.677  0.0794 -0.4440 -0.0443
  680MOL0     C89650   1.605   7.954   2.812  0.4126  0.0497  1.0238
  680MOL0     C89651   1.465   7.892   2.847  0.6213 -0.1109 -0.1678
  680MOL0     O89652   1.446   7.850   2.985 -0.2171 -0.3189  0.1629
  680MOL0     C89653   1.325   7.797   3.027 -0.0034  0.2452  0.1995
  680MOL0     C89654   1.299   7.790   3.168 -0.2398  0.3791  0.0541
  680MOL0     C89655   1.182   7.741   3.212  0.3384  0.3851 -0.3024
  680MOL0     C89656   1.075   7.686   3.124  0.2438 -0.1080  0.1513
  680MOL0     C89657   0.949   7.637   3.186  0.1549 -0.1806  0.0658
  680MOL0     O89658   0.862   7.549   3.120 -0.3500 -0.1584  0.3420
  680MOL0     C89659   0.742   7.502   3.174 -0.0993  0.5076  1.6406
  680MOL0     C89660   0.720   7.514   3.308 -0.6903  0.3376 -0.2913
  680MOL0     C89661   0.599   7.478   3.358  0.6642 -0.2851  1.1632
  680MOL0     C89662   0.496   7.414   3.283 -0.4747  0.4901  0.3160
  680MOL0     O89663   0.369   7.387   3.336  0.0060  0.2472 -0.1484
  680MOL0     C89664   0.250   7.430   3.270  0.4628  0.3466  0.1637
  680MOL0     C89665   0.139   7.446   3.375 -0.7732 -0.4560 -0.8106
  680MOL0     C89666   0.182   7.533   3.491  0.1607 -0.2927 -0.3838
  680MOL0     C89667   0.241   7.668   3.462  0.1331 -0.3315 -0.2339
  680MOL0     C89668   0.159   7.771   3.393  0.9083  0.2860  0.8145
  680MOL0     C89669   0.244   7.887   3.343  0.5360  0.6386  0.1949
  680MOL0     C89670   0.287   7.989   3.444  0.2109  0.2529 -0.9196
  680MOL0     C89671   0.369   8.105   3.387  1.1181  0.7977 -0.3032
  680MOL0    Cl89672   0.281   8.236   3.304  0.1974  0.2265  0.0269
  680MOL0     C89673   0.516   7.409   3.143  0.6228 -0.1231  0.7079
  680MOL0     C89674   0.637   7.455   3.089  0.3813 -0.1597  0.9556
  680MOL0     O89675   0.922   7.706   3.282 -0.1355  0.3323  0.1630
  680MOL0     C89676   1.098   7.692   2.988 -0.0515  0.3366  0.2289
  680MOL0     C89677   1.224   7.751   2.941 -0.9033  0.6606  1.1695
  680MOL0     N89678   1.688   8.094   2.366 -0.0411  0.0034  0.3960
  680MOL0     N89679   1.783   8.147   2.298 -0.7496  0.0015 -0.2990
  680MOL0     C89680   1.606   7.872   1.481 -0.4117  0.7079  0.0393
  680MOL0     C89681   1.499   7.794   1.430  0.1076  0.9181 -0.2098
  680MOL0     C89682   1.179   7.690   1.147 -0.0667  0.0256 -0.6029
  680MOL0     C89683   1.080   7.616   1.219  0.0418  0.0959 -0.1323
  680MOL0     C89684   0.989   7.534   1.150 -0.0683 -1.0045  0.1603
  680MOL0     C89685   0.986   7.524   1.013 -0.7905 -0.6904 -1.3148
  680MOL0     O89686   0.900   7.444   0.948 -0.5325  0.8012 -0.2264
  680MOL0     C89687   0.795   7.369   1.017  0.7360 -0.7000 -0.7783
  680MOL0     C89688   0.663   7.344   0.938  0.4964  0.7218  0.1037
  680MOL0     C89689   0.668   7.234   0.831  0.1609  0.5887 -0.3836
  680MOL0     C89690   0.535   7.232   0.755 -0.6010 -0.1688  0.2698
  680MOL0     C89691   0.532   7.146   0.643  0.3639  0.2896  0.8572
  680MOL0     C89692   0.522   7.075   0.542 -0.5050  0.3672 -0.5399
  680MOL0     C89693   1.074   7.612   0.941 -0.2668  0.0722  0.9410
  680MOL0     C89694   1.166   7.694   1.009  0.0189 -0.7080  1.0673
  680MOL0     H89695   1.239   7.963   1.543  0.2764 -3.0089 -1.0046
  680MOL0     H89696   1.404   8.109   1.627 -1.8567 -0.5108 -0.2364
  680MOL0     H89697   1.865   8.048   1.525  3.6132  3.1549  3.1349
  680MOL0     H89698   1.814   7.932   1.643  3.2017 -0.1990 -1.4718
  680MOL0     H89699   1.800   8.157   1.791  1.8304  2.2948  1.6161
  680MOL0     H89700   1.912   8.206   1.659 -1.0961  2.1314  0.8917
  680MOL0     H89701   2.036   7.985   1.702  0.6030  1.1730 -1.2037
  680MOL0     H89702   1.924   7.961   1.855 -0.3714  0.4817  1.2442
  680MOL0     H89703   2.110   8.192   1.811  2.8059  0.8049  2.1857
  680MOL0     H89704   2.018   8.160   1.954  2.6553  0.8300  1.3118
  680MOL0     H89705   2.258   8.047   1.866 -1.9484  2.0149 -2.1940
  680MOL0     H89706   2.158   7.917   1.925  2.9246 -0.5796  1.9754
  680MOL0     H89707   2.219   8.175   2.093  2.2224 -0.1347 -0.5084
  680MOL0     H89708   2.267   8.018   2.147 -2.8780 -1.3205  1.6222
  680MOL0     H89709   1.987   8.000   2.105  0.9391 -2.0565 -1.3582
  680MOL0     H89710   2.096   7.934   2.219  0.9282  1.1576  0.3104
  680MOL0     H89711   2.011   8.222   2.197 -0.3492 -0.2722 -0.2706
  680MOL0     H89712   2.123   8.154   2.325  0.6259  0.0467 -2.6316
  680MOL0     H89713   1.969   7.969   2.515 -1.7511  0.7120  1.3069
  680MOL0     H89714   1.749   7.861   2.616 -2.8005 -3.7713 -1.3014
  680MOL0     H89715   1.592   7.881   2.543 -0.2802 -0.5299  3.5274
  680MOL0     H89716   1.525   8.055   2.634  0.0137 -1.0585 -0.3783
  680MOL0     H89717   1.700   8.096   2.691  1.2027 -1.5964 -0.1579
  680MOL0     H89718   1.683   7.878   2.817 -0.4704 -0.8384  1.8701
  680MOL0     H89719   1.639   8.021   2.892  0.1516 -1.3001  2.3076
  680MOL0     H89720   1.446   7.806   2.782 -0.5545 -0.1900  0.2409
  680MOL0     H89721   1.394   7.968   2.812  0.6403  0.0921  0.2292
  680MOL0     H89722   1.369   7.822   3.245  1.8488 -0.9609 -1.1924
  680MOL0     H89723   1.173   7.736   3.320 -3.0982 -0.3830 -0.5007
  680MOL0     H89724   0.772   7.567   3.388 -1.4424  0.9749 -0.2183
  680MOL0     H89725   0.578   7.527   3.452  0.2170  1.6336  0.1115
  680MOL0     H89726   0.229   7.348   3.201  1.0875  0.3460 -0.0321
  680MOL0     H89727   0.272   7.517   3.207  0.1799 -0.3243 -0.8777
  680MOL0     H89728   0.102   7.350   3.413  3.2962 -1.0440  2.4457
  680MOL0     H89729   0.058   7.485   3.312  0.2981 -1.5314 -2.9512
  680MOL0     H89730   0.247   7.479   3.561 -4.7404 -2.2659  3.2199
  680MOL0     H89731   0.088   7.556   3.543  0.5421  0.5661 -0.0508
  680MOL0     H89732   0.278   7.719   3.551 -0.8420  3.5136 -1.8200
  680MOL0     H89733   0.328   7.661   3.396 -0.7221  0.5434 -1.5110
  680MOL0     H89734   0.072   7.797   3.455 -1.0755 -2.9492 -0.3402
  680MOL0     H89735   0.109   7.728   3.306 -1.3384  0.7227  1.7952
  680MOL0     H89736   0.183   7.947   3.275  0.4703 -0.1299 -0.4326
  680MOL0     H89737   0.325   7.853   3.277  0.0028  0.0699 -0.1658
  680MOL0     H89738   0.196   8.025   3.493 -0.3469 -1.2170 -0.8082
  680MOL0     H89739   0.345   7.952   3.529 -4.3128 -0.0740  2.4597
  680MOL0     H89740   0.437   8.056   3.317 -1.1250  0.8511 -2.7008
  680MOL0     H89741   0.426   8.151   3.467  1.9342 -1.7857  0.6826
  680MOL0     H89742   0.448   7.348   3.083  2.3395  1.6182 -3.4483
  680MOL0     H89743   0.661   7.444   2.983 -0.1158  1.5379  0.6355
  680MOL0     H89744   1.026   7.661   2.913 -2.2485  3.1748  0.9874
  680MOL0     H89745   1.250   7.766   2.837  3.0902  0.8528  2.0048
  680MOL0     H89746   1.705   7.837   1.453 -0.8466 -0.1773 -0.4492
  680MOL0     H89747   1.524   7.702   1.379 -0.7382 -0.4877  1.7754
  680MOL0     H89748   1.070   7.626   1.327 -3.6683  0.7501 -0.4178
  680MOL0     H89749   0.937   7.469   1.220  0.3198 -1.8171 -0.2945
  680MOL0     H89750   0.762   7.414   1.111  3.7069  1.6613 -0.7187
  680MOL0     H89751   0.841   7.274   1.045  0.3350 -1.5967 -2.9810
  680MOL0     H89752   0.579   7.301   0.993  0.6667 -0.6103 -0.6321
  680MOL0     H89753   0.626   7.442   0.904  1.5695  1.9329  2.1987
  680MOL0     H89754   0.681   7.135   0.876 -0.3987  1.8410  2.8015
  680MOL0     H89755   0.741   7.255   0.752  2.1749 -1.3101  0.8427
  680MOL0     H89756   0.465   7.185   0.824 -0.7694 -0.1902  0.0851
  680MOL0     H89757   0.509   7.330   0.713  4.8869  0.9639 -1.2472
  680MOL0     H89758   0.508   7.016   0.454 -0.3456 -2.5310  1.2403
  680MOL0     H89759   1.053   7.613   0.834 -0.0752 -0.2786  0.9004
  680MOL0     H89760   1.222   7.768   0.953 -0.6602  1.4544  3.1167
  681MOL0     O89761   4.274   3.529  11.090  0.9455  0.2520 -0.2845
  681MOL0     C89762   4.333   3.561  10.990 -0.7375  0.2802  0.3570
  681MOL0     O89763   4.416   3.476  10.915 -0.0681 -0.2849 -0.0706
  681MOL0     C89764   4.390   3.340  10.930  0.3496  0.2623 -0.0287
  681MOL0     C89765   4.450   3.259  11.021  0.6690 -0.1194 -0.8768
  681MOL0     C89766   4.423   3.124  11.040  0.0610 -0.1769  0.3496
  681MOL0     C89767   4.326   3.067  10.955 -0.0987  0.0667  0.6504
  681MOL0     O89768   4.286   2.936  10.963 -0.1268  0.2141  0.0048
  681MOL0     C89769   4.347   2.832  11.051  0.3889 -0.4436 -0.0540
  681MOL0     C89770   4.229   2.793  11.146  0.6928  0.4743  1.1028
  681MOL0     C89771   4.203   2.893  11.275 -0.1890  0.5290  0.5105
  681MOL0     C89772   4.056   2.877  11.315  0.3796 -0.3979 -0.4850
  681MOL0     C89773   4.043   2.878  11.471 -0.7335 -0.5654  0.1375
  681MOL0     C89774   4.014   3.017  11.529 -0.3263  0.4617  0.4113
  681MOL0     C89775   4.118   3.129  11.514  0.1906  0.3545  0.7341
  681MOL0     C89776   4.260   3.091  11.564  0.3800 -0.7722  0.5264
  681MOL0     N89777   4.356   3.184  11.499 -0.6188 -0.5931  0.6354
  681MOL0     C89778   4.369   3.316  11.540  0.0659 -0.6945 -0.2976
  681MOL0     C89779   4.445   3.373  11.449  0.8757  0.6259  0.8006
  681MOL0     C89780   4.461   3.517  11.434 -0.4738 -0.1898  0.3086
  681MOL0     C89781   4.558   3.573  11.331  1.2625  0.0543  0.1075
  681MOL0     C89782   4.699   3.597  11.364 -0.5197 -0.0822 -0.8902
  681MOL0     C89783   4.772   3.483  11.432  0.1750 -0.8079  0.1934
  681MOL0     O89784   4.912   3.509  11.441  0.1457 -0.6760 -0.0144
  681MOL0     C89785   4.986   3.473  11.339 -0.8421 -0.4320 -0.4540
  681MOL0     C89786   4.944   3.434  11.212  0.5845 -0.9029  0.4491
  681MOL0     C89787   5.041   3.394  11.120 -0.4712  0.0302  0.0257
  681MOL0     C89788   5.180   3.409  11.143  0.6964 -0.2330 -0.3773
  681MOL0     C89789   5.275   3.368  11.041 -0.3529 -0.3716 -0.5846
  681MOL0     O89790   5.415   3.376  11.076  0.0414 -0.1610  0.9175
  681MOL0     C89791   5.504   3.327  10.982  1.1282  0.1957  0.6043
  681MOL0     C89792   5.539   3.192  11.000 -0.6153  0.0988  0.4784
  681MOL0     C89793   5.642   3.138  10.915 -0.2893  0.1158 -0.9584
  681MOL0     C89794   5.699   3.214  10.814  0.2416  0.5700  0.5605
  681MOL0     O89795   5.788   3.152  10.724 -0.8418  0.2744  0.1356
  681MOL0     C89796   5.911   3.093  10.770  0.4864  0.4632 -0.4531
  681MOL0     C89797   6.007   3.204  10.830 -0.0802 -0.3140 -1.2252
  681MOL0     C89798   6.118   3.224  10.729 -0.6731 -0.2010 -0.0651
  681MOL0     C89799   6.225   3.306  10.795 -0.0260 -0.6079 -0.0821
  681MOL0     C89800   6.303   3.386  10.685 -0.6374 -0.7062  1.1238
  681MOL0     C89801   6.375   3.287  10.594  0.1267 -0.6877 -0.2052
  681MOL0     C89802   6.495   3.358  10.520 -0.2663 -0.1591 -0.1066
  681MOL0     C89803   6.467   3.509  10.471 -0.2814  0.8327  0.7921
  681MOL0    Cl89804   6.517   3.652  10.584  0.0550  0.1905 -0.5590
  681MOL0     C89805   5.663   3.346  10.800 -0.3371 -0.6283 -0.1716
  681MOL0     C89806   5.572   3.410  10.883  0.1040  0.2619  0.6848
  681MOL0     O89807   5.232   3.319  10.937  0.2689  0.2963 -0.5644
  681MOL0     C89808   5.216   3.469  11.262 -1.2162 -0.0789  0.3606
  681MOL0     C89809   5.125   3.490  11.361  0.8263  0.1151 -1.1006
  681MOL0     N89810   4.495   3.274  11.360 -0.4907 -0.4163  0.9487
  681MOL0     N89811   4.444   3.162  11.399  1.0483 -0.2228  0.3898
  681MOL0     C89812   4.261   3.152  10.861 -0.5291 -0.1787 -0.5092
  681MOL0     C89813   4.298   3.286  10.848  0.3034  0.0681 -0.2085
  681MOL0     C89814   4.310   3.699  10.940 -0.9079  0.0418 -0.5818
  681MOL0     C89815   4.246   3.795  11.021 -1.1614  0.4416 -0.2810
  681MOL0     C89816   4.223   3.917  10.957 -0.0003 -0.7010 -0.6597
  681MOL0     C89817   4.266   3.946  10.835  0.2517 -0.3578 -0.3532
  681MOL0     O89818   4.239   4.073  10.773 -0.3379  0.4077  0.4254
  681MOL0     C89819   4.147   4.173  10.838 -0.3814  0.3565  0.0678
  681MOL0     C89820   4.132   4.301  10.756 -0.0132  0.1039 -0.1927
  681MOL0     C89821   4.003   4.302  10.664 -0.2333  0.3422 -0.5005
  681MOL0     C89822   3.876   4.306  10.739  0.1581 -0.1128 -0.5641
  681MOL0     C89823   3.859   4.400  10.855  0.1814 -1.1148 -0.9629
  681MOL0     C89824   3.868   4.462  10.956  1.2425 -0.0311 -0.0977
  681MOL0     C89825   4.346   3.853  10.760  0.0179  0.8361  0.6065
  681MOL0     C89826   4.366   3.733  10.818  0.3967 -0.1576 -0.8349
  681MOL0     H89827   4.532   3.305  11.075  0.6996 -2.4740  1.2963
  681MOL0     H89828   4.474   3.060  11.111  1.2811 -3.4859 -3.1474
  681MOL0     H89829   4.438   2.847  11.111  0.5476  0.5961 -0.5269
  681MOL0     H89830   4.364   2.746  10.985 -2.3819  0.4461 -2.1015
  681MOL0     H89831   4.251   2.690  11.174  0.3873  0.1759  0.2804
  681MOL0     H89832   4.135   2.789  11.090  0.6351  1.0941  1.1488
  681MOL0     H89833   4.231   2.994  11.242 -0.1328 -0.4860 -2.9527
  681MOL0     H89834   4.277   2.858  11.348  0.4546  0.2302 -0.2573
  681MOL0     H89835   3.992   2.957  11.277 -2.2479 -2.0301  0.2221
  681MOL0     H89836   4.004   2.789  11.275 -1.6438  1.1346 -1.4036
  681MOL0     H89837   4.142   2.847  11.504 -0.1746  0.4568 -0.5601
  681MOL0     H89838   3.966   2.810  11.509 -1.8626  1.2431  1.2840
  681MOL0     H89839   3.974   3.000  11.629  0.9695 -2.8016  0.4998
  681MOL0     H89840   3.931   3.046  11.464  0.4212 -1.6676 -1.6443
  681MOL0     H89841   4.121   3.140  11.405 -1.0215 -0.1049  0.6384
  681MOL0     H89842   4.086   3.222  11.562 -1.1388  0.9139 -1.1390
  681MOL0     H89843   4.280   2.988  11.532 -4.0490 -2.0079  1.0247
  681MOL0     H89844   4.270   3.094  11.673 -0.1632 -3.1423  0.6836
  681MOL0     H89845   4.306   3.366  11.613 -0.9495 -0.4584 -1.3075
  681MOL0     H89846   4.502   3.547  11.531  2.0371 -0.1177 -0.6979
  681MOL0     H89847   4.365   3.561  11.407  0.4285  3.0324  1.8359
  681MOL0     H89848   4.518   3.667  11.291  0.8572  0.7521  2.0260
  681MOL0     H89849   4.563   3.510  11.241 -0.9914  1.5078 -1.1523
  681MOL0     H89850   4.747   3.613  11.267  4.2174  0.8111  1.2906
  681MOL0     H89851   4.715   3.688  11.423 -0.0091 -2.4080  2.8842
  681MOL0     H89852   4.753   3.387  11.383  0.1830  0.1951 -1.8490
  681MOL0     H89853   4.718   3.477  11.527  0.0597  1.5693  0.3280
  681MOL0     H89854   4.837   3.426  11.192  0.0619  0.4814  2.3739
  681MOL0     H89855   5.009   3.351  11.025 -0.3765  2.4147 -1.1681
  681MOL0     H89856   5.497   3.147  11.089 -0.0771 -0.7450  0.3151
  681MOL0     H89857   5.666   3.034  10.933  1.1367  0.8128  1.5793
  681MOL0     H89858   5.961   3.035  10.692  0.7174 -2.1984  1.5353
  681MOL0     H89859   5.886   3.029  10.855 -1.8980  1.0670 -0.6120
  681MOL0     H89860   6.039   3.174  10.930  3.0160 -0.9493 -2.2810
  681MOL0     H89861   5.953   3.298  10.838 -0.6554 -0.5903 -1.7129
  681MOL0     H89862   6.070   3.271  10.644  0.4449  1.3539  0.1332
  681MOL0     H89863   6.162   3.127  10.704 -0.0943 -0.6364  2.3707
  681MOL0     H89864   6.176   3.383  10.855 -0.5320 -0.2256 -0.9692
  681MOL0     H89865   6.294   3.248  10.856 -1.2384 -1.9735  0.0433
  681MOL0     H89866   6.375   3.449  10.739 -2.2413  2.2641  0.0456
  681MOL0     H89867   6.247   3.445  10.611 -0.5024 -2.2948 -0.3163
  681MOL0     H89868   6.296   3.249  10.528 -0.7136 -1.3671  1.1574
  681MOL0     H89869   6.404   3.196  10.647 -2.1701 -1.0577  0.5234
  681MOL0     H89870   6.583   3.359  10.585  0.2836 -0.1722 -0.8355
  681MOL0     H89871   6.531   3.295  10.439 -0.7557  0.9330 -1.1976
  681MOL0     H89872   6.374   3.520  10.413  0.9344 -1.8579 -1.9356
  681MOL0     H89873   6.529   3.518  10.381  0.2021 -1.2464  0.8849
  681MOL0     H89874   5.710   3.414  10.730  1.0373 -0.4802  0.8676
  681MOL0     H89875   5.547   3.516  10.880 -2.0026 -0.1966 -0.8729
  681MOL0     H89876   5.317   3.494  11.295  0.4989 -2.0367 -2.9843
  681MOL0     H89877   5.163   3.532  11.453  1.3423 -1.1203 -0.7402
  681MOL0     H89878   4.189   3.115  10.788 -0.4301  1.3813 -1.4572
  681MOL0     H89879   4.236   3.351  10.787 -1.9488 -0.4218  1.3889
  681MOL0     H89880   4.201   3.772  11.117 -0.8462 -2.7177 -0.7808
  681MOL0     H89881   4.165   3.989  11.013 -0.5533 -0.7917 -1.1112
  681MOL0     H89882   4.189   4.212  10.932  2.5272  1.0332 -1.4046
  681MOL0     H89883   4.054   4.120  10.858  0.0865 -1.7154 -2.7402
  681MOL0     H89884   4.130   4.389  10.822  0.8132  1.0960 -1.4482
  681MOL0     H89885   4.218   4.320  10.692 -0.8140 -0.4209 -1.4565
  681MOL0     H89886   3.991   4.214  10.601  0.0270  0.9568 -1.4180
  681MOL0     H89887   4.019   4.393  10.606 -1.3035  1.7363  1.2579
  681MOL0     H89888   3.806   4.332  10.659 -1.6427 -3.4345 -0.2424
  681MOL0     H89889   3.838   4.207  10.763  1.1203 -0.6052 -1.0225
  681MOL0     H89890   3.864   4.509  11.052 -4.1625  2.6447 -1.2748
  681MOL0     H89891   4.388   3.887  10.666  0.8254  0.3548  0.7852
  681MOL0     H89892   4.451   3.682  10.772  1.2299 -0.4788  0.9516
  682MOL0     O89893   7.288   6.505   1.051 -0.2119  0.2438  0.3343
  682MOL0     C89894   7.312   6.407   1.127 -0.5254  0.0810 -0.2150
  682MOL0     O89895   7.221   6.333   1.209  0.2330  0.1403  0.0135
  682MOL0     C89896   7.084   6.366   1.201  0.4524 -0.4260  0.5978
  682MOL0     C89897   7.021   6.409   1.316 -0.0089  0.3399  0.4880
  682MOL0     C89898   6.883   6.432   1.325 -0.3670 -0.6170  0.4223
  682MOL0     C89899   6.816   6.429   1.199  0.1423  0.2433 -1.0605
  682MOL0     O89900   6.683   6.428   1.185  0.8314 -0.6843  0.4382
  682MOL0     C89901   6.625   6.315   1.256 -0.4685  0.1811 -0.0822
  682MOL0     C89902   6.498   6.255   1.191 -0.1683  0.6577 -0.2742
  682MOL0     C89903   6.380   6.225   1.284 -0.1355 -0.0309  0.2583
  682MOL0     C89904   6.273   6.149   1.205 -0.1794 -0.5416 -0.7589
  682MOL0     C89905   6.150   6.153   1.298 -0.9246  0.8027  0.6450
  682MOL0     C89906   6.047   6.042   1.262 -0.4627  1.2877  0.6672
  682MOL0     C89907   5.921   6.045   1.352  0.4699 -0.0473 -0.0506
  682MOL0     C89908   5.851   6.183   1.328 -1.3598  0.1955  0.0601
  682MOL0     N89909   5.717   6.173   1.385  0.2137  0.0032 -0.4399
  682MOL0     C89910   5.607   6.095   1.350  0.9934  0.2953  0.0385
  682MOL0     C89911   5.505   6.159   1.416  0.5870 -0.2365 -0.9324
  682MOL0     C89912   5.355   6.115   1.416 -0.0267 -0.2697 -0.1112
  682MOL0     C89913   5.307   6.081   1.279  0.0895  0.0254 -0.4499
  682MOL0     C89914   5.305   6.196   1.177  0.9495 -0.5107 -0.5460
  682MOL0     C89915   5.294   6.154   1.033  0.4422 -1.0486 -0.1898
  682MOL0     O89916   5.379   6.048   0.993  0.1587 -0.1535 -0.0775
  682MOL0     C89917   5.515   6.065   0.981 -0.0378  0.8803  0.2197
  682MOL0     C89918   5.608   5.958   0.959  0.5928  0.5004  0.1736
  682MOL0     C89919   5.735   5.970   0.923 -0.6033  0.0670 -0.4878
  682MOL0     C89920   5.806   6.089   0.938  0.9280 -0.5893  1.1437
  682MOL0     C89921   5.953   6.104   0.923  1.1773  1.1154 -0.5055
  682MOL0     O89922   6.017   5.999   0.874  0.2707 -0.7389  0.3667
  682MOL0     C89923   6.145   6.033   0.840 -0.3613 -0.6229 -0.2846
  682MOL0     C89924   6.173   6.114   0.727 -0.1021 -0.1242  0.2380
  682MOL0     C89925   6.307   6.135   0.702 -0.1891 -0.3353  0.1871
  682MOL0     C89926   6.408   6.067   0.758  0.4819  0.6805 -0.1514
  682MOL0     O89927   6.538   6.080   0.719 -0.6647  0.0709  0.1902
  682MOL0     C89928   6.605   6.183   0.785 -0.2302 -0.3798  0.2116
  682MOL0     C89929   6.718   6.233   0.692 -0.3534  0.7219 -0.9446
  682MOL0     C89930   6.674   6.333   0.582  1.0452 -0.1641  0.8202
  682MOL0     C89931   6.781   6.435   0.537 -0.4937  0.4131 -0.3825
  682MOL0     C89932   6.905   6.363   0.478  0.3195  0.2206  0.5413
  682MOL0     C89933   6.955   6.429   0.348  0.5884  0.2253 -1.0071
  682MOL0     C89934   7.054   6.325   0.291  0.1143 -0.4016  0.1271
  682MOL0     C89935   7.079   6.355   0.153 -0.8925  0.3694  0.0750
  682MOL0    Cl89936   6.943   6.347   0.042 -0.8204  0.7188  0.0850
  682MOL0     C89937   6.374   5.975   0.863 -0.1036  0.3214  0.5482
  682MOL0     C89938   6.244   5.965   0.905 -0.9045  0.9703 -0.6156
  682MOL0     O89939   6.006   6.210   0.954 -0.2833  0.9009 -0.6896
  682MOL0     C89940   5.719   6.197   0.971  1.0535 -0.7507  0.1832
  682MOL0     C89941   5.580   6.186   0.989 -0.2112  0.0877  0.1226
  682MOL0     N89942   5.546   6.273   1.486  1.0273 -0.7746 -0.8437
  682MOL0     N89943   5.672   6.273   1.471  0.4272  0.2602  0.2877
  682MOL0     C89944   6.879   6.391   1.083  0.0384  0.2064  0.5674
  682MOL0     C89945   7.010   6.354   1.084 -1.0132 -0.6917  0.5416
  682MOL0     C89946   7.451   6.364   1.135 -1.1064  0.2790  0.5089
  682MOL0     C89947   7.548   6.405   1.045  0.2308  0.4808 -0.5194
  682MOL0     C89948   7.681   6.377   1.057 -0.8055  0.2859  0.6499
  682MOL0     C89949   7.734   6.294   1.165  0.7925 -0.0568 -0.2195
  682MOL0     O89950   7.859   6.274   1.203 -0.1025  0.6324  0.8516
  682MOL0     C89951   7.957   6.303   1.107  0.6017 -0.1910  0.6861
  682MOL0     C89952   8.098   6.234   1.144  0.2171  0.8489  0.1535
  682MOL0     C89953   8.225   6.309   1.089  0.5495 -0.5748  0.6712
  682MOL0     C89954   8.254   6.434   1.178  0.3435  0.9192  1.1264
  682MOL0     C89955   8.383   6.497   1.164  0.1328 -0.6216  0.0352
  682MOL0     C89956   8.492   6.555   1.155 -0.1627  0.2915  0.7449
  682MOL0     C89957   7.632   6.256   1.259 -0.8959 -0.1433  0.3479
  682MOL0     C89958   7.501   6.286   1.235  0.4058  0.5025  0.9395
  682MOL0     H89959   7.084   6.420   1.404  0.2961  4.7638 -0.0776
  682MOL0     H89960   6.832   6.451   1.419  0.7533  1.2712  0.6798
  682MOL0     H89961   6.594   6.355   1.353  1.1782  1.0687  0.1270
  682MOL0     H89962   6.695   6.233   1.274 -0.0832  0.5264  0.0130
  682MOL0     H89963   6.527   6.155   1.158 -2.0142  0.0626 -0.2273
  682MOL0     H89964   6.460   6.316   1.108 -3.5612  0.2989  0.8682
  682MOL0     H89965   6.341   6.321   1.319  0.1073  0.0465  0.3210
  682MOL0     H89966   6.422   6.169   1.369  1.2685 -1.6017 -1.3986
  682MOL0     H89967   6.259   6.205   1.112  3.3556 -2.5066 -2.6736
  682MOL0     H89968   6.317   6.050   1.196 -1.1274 -1.5541  3.4431
  682MOL0     H89969   6.101   6.248   1.279 -3.2958 -0.0288  2.2005
  682MOL0     H89970   6.186   6.139   1.401  4.5303 -2.5358 -1.2565
  682MOL0     H89971   6.091   5.944   1.283  0.1173  2.1706  4.1328
  682MOL0     H89972   6.020   6.040   1.156  2.3386 -0.5763 -0.1436
  682MOL0     H89973   5.851   5.967   1.323  0.7487  0.0473 -0.9908
  682MOL0     H89974   5.955   6.031   1.455 -0.5249  2.6693  0.7309
  682MOL0     H89975   5.837   6.205   1.221  0.7281  0.0826 -0.2815
  682MOL0     H89976   5.911   6.256   1.383 -1.7071 -0.3501  1.1954
  682MOL0     H89977   5.602   6.008   1.285 -1.1689  0.1158  0.3874
  682MOL0     H89978   5.288   6.192   1.456 -1.3375 -0.4693 -1.8221
  682MOL0     H89979   5.349   6.025   1.479 -0.3545 -0.6975 -0.7433
  682MOL0     H89980   5.209   6.034   1.279 -1.2316  2.6109  0.3518
  682MOL0     H89981   5.380   6.012   1.235  0.3701 -0.4305  0.7005
  682MOL0     H89982   5.223   6.259   1.212 -0.0435 -1.1970 -1.5873
  682MOL0     H89983   5.398   6.252   1.189  0.0574  1.0859 -0.7854
  682MOL0     H89984   5.321   6.242   0.973  2.0043 -1.9589 -0.8794
  682MOL0     H89985   5.189   6.127   1.017  0.6665 -1.6137 -0.7671
  682MOL0     H89986   5.562   5.861   0.940 -1.9873  1.8663 -0.9892
  682MOL0     H89987   5.797   5.882   0.909 -1.2057 -0.6791  1.2288
  682MOL0     H89988   6.105   6.173   0.665 -0.5273 -0.6274  0.2212
  682MOL0     H89989   6.328   6.209   0.625  0.9751 -1.1125 -0.2747
  682MOL0     H89990   6.637   6.142   0.881  0.1297 -1.5408 -0.3963
  682MOL0     H89991   6.538   6.265   0.814  1.4037  2.4277 -3.2536
  682MOL0     H89992   6.765   6.143   0.652 -3.1901  0.2434 -3.5944
  682MOL0     H89993   6.786   6.285   0.759 -0.0137  0.6097 -1.2024
  682MOL0     H89994   6.588   6.392   0.615  2.6761  2.9023 -0.0625
  682MOL0     H89995   6.643   6.279   0.492  0.2501  1.5867 -0.0078
  682MOL0     H89996   6.740   6.509   0.467  2.8195  0.7060 -2.2485
  682MOL0     H89997   6.820   6.482   0.628  2.7624 -3.0601  0.2562
  682MOL0     H89998   6.855   6.275   0.438 -2.0736  1.4750  0.6441
  682MOL0     H89999   6.973   6.338   0.560  0.4822 -1.1245  0.0123
  682MOL0     H90000   7.008   6.523   0.363 -2.4447  2.2152 -1.7571
  682MOL0     H90001   6.870   6.450   0.282 -1.2813 -1.5064  0.6842
  682MOL0     H90002   7.137   6.336   0.361 -1.3083  2.9170  1.5360
  682MOL0     H90003   7.014   6.223   0.286  0.5710 -0.6970  1.8011
  682MOL0     H90004   7.153   6.284   0.115 -1.9007  0.0071 -1.2933
  682MOL0     H90005   7.124   6.452   0.131  0.0303 -0.4386 -1.9125
  682MOL0     H90006   6.451   5.920   0.916  0.6282 -1.2526 -1.9528
  682MOL0     H90007   6.216   5.896   0.984  0.8587  0.2634 -0.5726
  682MOL0     H90008   5.766   6.295   0.979 -2.3962  1.1820 -1.1410
  682MOL0     H90009   5.525   6.277   1.009 -0.4090  0.7036 -2.7579
  682MOL0     H90010   6.818   6.374   0.994  1.2706 -1.7519  0.0397
  682MOL0     H90011   7.041   6.314   0.988  0.3381  0.7021  0.3615
  682MOL0     H90012   7.510   6.464   0.963 -2.6982 -0.8270 -0.2442
  682MOL0     H90013   7.739   6.423   0.978 -2.6613  0.9030 -0.4114
  682MOL0     H90014   7.963   6.412   1.102  0.4243 -0.2535 -1.5321
  682MOL0     H90015   7.927   6.267   1.008  0.1258  0.5526  0.5541
  682MOL0     H90016   8.092   6.226   1.253  0.7273 -2.6428  0.0541
  682MOL0     H90017   8.098   6.133   1.102  3.8726  0.6034  0.4203
  682MOL0     H90018   8.218   6.341   0.984 -0.9830 -0.4650  0.7786
  682MOL0     H90019   8.306   6.237   1.100  0.7651 -0.7431 -1.5911
  682MOL0     H90020   8.185   6.515   1.155  0.9474  1.1551  0.0979
  682MOL0     H90021   8.253   6.406   1.284 -2.5600 -0.8287  0.7378
  682MOL0     H90022   8.591   6.594   1.145 -0.8732  1.9806 -0.0491
  682MOL0     H90023   7.667   6.194   1.341  5.0222  0.4811 -1.1884
  682MOL0     H90024   7.436   6.234   1.304 -1.0717 -0.8239 -1.3077
  683MOL0     O90025   5.291   8.515   7.946  0.3124  0.1331  0.6857
  683MOL0     C90026   5.385   8.438   7.922  0.2726  0.4523 -1.2223
  683MOL0     O90027   5.512   8.471   7.897  0.1561  0.3537 -0.2848
  683MOL0     C90028   5.558   8.591   7.932  0.5725 -1.1990 -0.2313
  683MOL0     C90029   5.569   8.622   8.059 -0.8117  0.4387 -0.6057
  683MOL0     C90030   5.622   8.750   8.093  0.5060  0.6562 -0.2205
  683MOL0     C90031   5.680   8.837   8.000  0.7245  0.6611 -0.7637
  683MOL0     O90032   5.751   8.946   8.041  0.7098  0.7221  0.3900
  683MOL0     C90033   5.853   8.992   7.960 -0.5757  0.2430  0.5713
  683MOL0     C90034   5.981   8.924   7.988  0.0160  0.0709  0.3877
  683MOL0     C90035   6.096   8.993   7.909  0.2998 -0.4008  0.4093
  683MOL0     C90036   6.227   8.910   7.912 -0.1975 -0.4089 -0.7220
  683MOL0     C90037   6.346   8.988   7.857  0.1444 -0.3450 -0.2829
  683MOL0     C90038   6.480   8.921   7.864  0.5568  0.0179 -0.0934
  683MOL0     C90039   6.530   8.902   8.010  1.6539  0.2256  0.7153
  683MOL0     C90040   6.682   8.866   8.011  0.3636  0.0084  0.8720
  683MOL0     N90041   6.718   8.727   7.980  0.2026  0.7664 -1.4528
  683MOL0     C90042   6.809   8.653   8.037  0.3730  0.7323 -0.2807
  683MOL0     C90043   6.829   8.540   7.964  1.2248  0.7252 -0.9337
  683MOL0     C90044   6.920   8.426   8.014  0.5278  0.5090  0.7277
  683MOL0     C90045   6.839   8.308   8.064 -0.5392  0.2112 -1.0026
  683MOL0     C90046   6.916   8.206   8.136  0.0967 -0.3621  1.2104
  683MOL0     C90047   6.972   8.100   8.050 -1.0004  0.1804  1.0664
  683MOL0     O90048   7.104   8.119   7.998  0.1408  0.7326 -0.8159
  683MOL0     C90049   7.200   8.151   8.091  1.0636  0.9354  0.3262
  683MOL0     C90050   7.236   8.286   8.114  0.3594 -0.3924  0.0784
  683MOL0     C90051   7.346   8.325   8.193 -0.3353  0.0631  0.7265
  683MOL0     C90052   7.430   8.220   8.249  0.2261  0.3155 -0.3830
  683MOL0     C90053   7.564   8.236   8.321 -0.2737 -0.4273  0.3824
  683MOL0     O90054   7.640   8.135   8.372  0.2639 -0.3795  0.2738
  683MOL0     C90055   7.774   8.163   8.399 -0.1202  0.2742 -0.2190
  683MOL0     C90056   7.820   8.259   8.485  0.1953  0.1624  0.5774
  683MOL0     C90057   7.960   8.281   8.499 -0.5006 -0.5947  0.5278
  683MOL0     C90058   8.060   8.201   8.444 -0.1275  0.2026 -0.1086
  683MOL0     O90059   8.188   8.225   8.485  0.1446 -0.1158  0.0104
  683MOL0     C90060   8.281   8.114   8.484 -1.3774  1.5027  0.9213
  683MOL0     C90061   8.419   8.127   8.560  0.3057  0.1017  0.6685
  683MOL0     C90062   8.478   8.257   8.527  0.2360  0.4689  0.3819
  683MOL0     C90063   8.506   8.262   8.379 -0.7565 -0.1183 -0.1585
  683MOL0     C90064   8.601   8.376   8.338  0.0723 -0.0644 -0.2914
  683MOL0     C90065   8.540   8.510   8.357  0.1008 -0.4951 -0.9863
  683MOL0     C90066   8.637   8.635   8.324 -1.2091  0.0106  0.4344
  683MOL0     C90067   8.707   8.609   8.192  0.4215  0.3386  0.3923
  683MOL0    Cl90068   8.819   8.752   8.159  0.3583  0.3099  0.0994
  683MOL0     C90069   8.008   8.092   8.360 -0.6312 -0.2651 -0.5263
  683MOL0     C90070   7.866   8.067   8.343 -0.0357 -0.4718 -0.3274
  683MOL0     O90071   7.601   8.349   8.312  0.3639 -0.1691  0.3857
  683MOL0     C90072   7.389   8.085   8.225 -0.4015  0.7778  1.0213
  683MOL0     C90073   7.283   8.051   8.155  0.9135 -0.1000  0.8463
  683MOL0     N90074   6.744   8.547   7.855  0.2173 -0.1857 -0.0814
  683MOL0     N90075   6.691   8.666   7.862  0.4310  0.2064 -0.0793
  683MOL0     C90076   5.684   8.788   7.867 -0.7518 -0.6206 -0.0869
  683MOL0     C90077   5.627   8.667   7.829  0.7443 -0.4860  0.4069
  683MOL0     C90078   5.353   8.292   7.928  0.5809  0.4553 -1.8586
  683MOL0     C90079   5.221   8.233   7.907 -0.9328 -0.1016 -0.0332
  683MOL0     C90080   5.196   8.094   7.911  0.0741  0.0356 -0.8158
  683MOL0     C90081   5.307   8.007   7.935 -0.0961  0.2738 -0.5008
  683MOL0     O90082   5.288   7.869   7.948 -0.4161  0.4162 -0.8421
  683MOL0     C90083   5.165   7.810   7.899  0.0760 -0.2452  0.0412
  683MOL0     C90084   5.188   7.661   7.907  0.6270 -0.3109  0.8586
  683MOL0     C90085   5.184   7.620   8.054  0.1369  1.0671 -0.5424
  683MOL0     C90086   5.197   7.472   8.075 -0.1880  0.5618 -0.5551
  683MOL0     C90087   5.333   7.422   8.047 -0.2235  0.2644 -0.8843
  683MOL0     C90088   5.453   7.413   8.048 -0.1004 -0.4697  0.4559
  683MOL0     C90089   5.434   8.064   7.961 -0.0490 -0.4580  0.4401
  683MOL0     C90090   5.455   8.202   7.959 -0.2235 -1.0585 -0.9765
  683MOL0     H90091   5.539   8.569   8.149 -2.3686  3.7601  1.0163
  683MOL0     H90092   5.626   8.767   8.200 -3.0283 -2.9913  0.7808
  683MOL0     H90093   5.871   9.095   7.992  2.2451  1.4737 -3.9754
  683MOL0     H90094   5.847   8.998   7.851 -1.9841  3.3068  0.7434
  683MOL0     H90095   5.967   8.825   7.944  0.1601  0.4269 -0.4778
  683MOL0     H90096   6.002   8.921   8.096  0.1495 -2.1904  0.3482
  683MOL0     H90097   6.110   9.095   7.947 -0.7861 -0.3176  0.6187
  683MOL0     H90098   6.069   8.997   7.804  4.1660  0.9920 -0.7128
  683MOL0     H90099   6.252   8.877   8.014  0.2404  1.5403 -0.1577
  683MOL0     H90100   6.219   8.817   7.854 -1.9047  0.9535 -2.8122
  683MOL0     H90101   6.351   9.081   7.914  3.3582 -0.9437  0.5841
  683MOL0     H90102   6.324   9.014   7.753 -3.7217  0.1080  0.5000
  683MOL0     H90103   6.549   8.987   7.811 -0.1295 -0.0491 -1.0769
  683MOL0     H90104   6.473   8.824   7.814 -0.6867 -2.2842  4.0271
  683MOL0     H90105   6.509   9.001   8.049 -3.6830 -0.1997 -0.3468
  683MOL0     H90106   6.465   8.826   8.055 -0.3245 -0.6352 -3.1152
  683MOL0     H90107   6.708   8.879   8.116 -1.5142  1.6225  1.1835
  683MOL0     H90108   6.742   8.930   7.946  2.2240  0.8970  3.3174
  683MOL0     H90109   6.866   8.674   8.127  0.9380  3.1211 -1.1064
  683MOL0     H90110   6.984   8.470   8.091 -0.4226 -0.2526  1.9934
  683MOL0     H90111   6.972   8.387   7.925 -1.4002 -2.3639  0.7206
  683MOL0     H90112   6.783   8.258   7.985 -5.1690  0.8414  1.5592
  683MOL0     H90113   6.761   8.355   8.124 -1.5634 -1.3531 -1.0280
  683MOL0     H90114   6.992   8.252   8.200 -1.2133  0.4910  2.1931
  683MOL0     H90115   6.848   8.152   8.201  1.1687 -3.2781  0.0561
  683MOL0     H90116   6.908   8.087   7.962 -0.3623 -0.9456  0.7592
  683MOL0     H90117   6.961   8.001   8.094  0.8306  0.7540  2.9522
  683MOL0     H90118   7.177   8.358   8.058 -1.4422 -2.0811 -0.3232
  683MOL0     H90119   7.365   8.428   8.221  1.4315  0.3309 -1.2504
  683MOL0     H90120   7.740   8.309   8.539  0.9409  3.2414 -0.9646
  683MOL0     H90121   7.988   8.368   8.558  0.4359  2.2791 -3.7098
  683MOL0     H90122   8.303   8.076   8.383 -1.2672  2.6845  0.4818
  683MOL0     H90123   8.235   8.019   8.511 -0.5444  0.6969 -0.3640
  683MOL0     H90124   8.498   8.053   8.540 -0.5910 -1.0832  1.3530
  683MOL0     H90125   8.385   8.120   8.663 -3.6947 -0.3684 -0.5212
  683MOL0     H90126   8.564   8.281   8.590  2.6671 -2.0584 -1.7188
  683MOL0     H90127   8.408   8.335   8.557 -2.2386 -1.4607 -0.0452
  683MOL0     H90128   8.559   8.170   8.354  3.1683  2.2801 -1.7121
  683MOL0     H90129   8.413   8.285   8.327 -0.2994  3.0548  0.1796
  683MOL0     H90130   8.622   8.371   8.231 -0.5102  2.9758 -0.6390
  683MOL0     H90131   8.699   8.354   8.381  0.1547 -3.6268 -1.9498
  683MOL0     H90132   8.487   8.523   8.452 -1.8728  0.2907 -2.1284
  683MOL0     H90133   8.448   8.512   8.298 -0.9086  0.5900  0.5263
  683MOL0     H90134   8.583   8.730   8.311 -3.0945 -1.0805 -0.1617
  683MOL0     H90135   8.714   8.645   8.400 -0.2652  0.1581 -0.5226
  683MOL0     H90136   8.631   8.604   8.114 -0.3239  0.2385  1.1108
  683MOL0     H90137   8.768   8.519   8.201 -0.2900 -0.3305 -1.1486
  683MOL0     H90138   8.081   8.017   8.331  0.7053  0.7270  0.1386
  683MOL0     H90139   7.829   7.990   8.276 -0.8889  0.4425 -0.9316
  683MOL0     H90140   7.436   7.991   8.250  1.7623  1.0233 -1.6626
  683MOL0     H90141   7.258   7.945   8.151  0.0501  0.0490  1.8248
  683MOL0     H90142   5.747   8.832   7.791  0.3637  2.7895  2.5799
  683MOL0     H90143   5.633   8.638   7.725 -1.5822 -0.2087  0.1421
  683MOL0     H90144   5.131   8.286   7.877 -2.1309 -3.0773 -2.1189
  683MOL0     H90145   5.097   8.058   7.885 -1.0548  1.0551  1.6945
  683MOL0     H90146   5.145   7.841   7.795  0.4616 -0.5812 -0.1319
  683MOL0     H90147   5.074   7.838   7.953 -0.5831 -3.0385  0.5331
  683MOL0     H90148   5.103   7.608   7.862  2.0813 -1.3049 -0.8426
  683MOL0     H90149   5.277   7.633   7.850 -0.9086 -0.4353 -1.6272
  683MOL0     H90150   5.088   7.656   8.094  0.7680  0.8391  1.2995
  683MOL0     H90151   5.265   7.672   8.106  0.3313 -0.0338  0.2851
  683MOL0     H90152   5.171   7.445   8.178 -1.0834  1.4982 -0.5142
  683MOL0     H90153   5.131   7.422   8.003  1.8268  1.5707 -3.2523
  683MOL0     H90154   5.558   7.420   8.026 -0.2680 -0.3562 -0.3560
  683MOL0     H90155   5.521   8.001   7.978  0.3678 -0.2069 -0.6348
  683MOL0     H90156   5.553   8.236   7.988  0.1839  0.5436 -3.9095
  684MOL0     O90157   1.499   5.153   3.840  0.5748  0.5258  0.4175
  684MOL0     C90158   1.545   5.247   3.912  1.1502  0.5274  0.4339
  684MOL0     O90159   1.472   5.361   3.941 -0.0967 -0.2538 -0.1122
  684MOL0     C90160   1.343   5.377   3.910 -0.5793 -0.9380  0.0582
  684MOL0     C90161   1.306   5.364   3.778 -0.0324  0.0602  0.0511
  684MOL0     C90162   1.176   5.382   3.737  0.3155 -0.9983 -0.9803
  684MOL0     C90163   1.083   5.422   3.829 -0.1796 -0.4508  0.2058
  684MOL0     O90164   0.954   5.445   3.792 -0.3703  0.2579 -0.0511
  684MOL0     C90165   0.880   5.325   3.777 -0.0745 -0.5517  0.4410
  684MOL0     C90166   0.733   5.339   3.737 -0.3357  0.3190 -0.3990
  684MOL0     C90167   0.728   5.360   3.589  0.8933  1.2510 -0.0295
  684MOL0     C90168   0.582   5.351   3.549  0.3179 -0.4570  0.2211
  684MOL0     C90169   0.509   5.220   3.585  0.2395 -0.2868  0.2919
  684MOL0     C90170   0.565   5.092   3.506  0.5731  1.2112  0.4229
  684MOL0     C90171   0.583   5.108   3.356  0.4259  0.1898 -0.6641
  684MOL0     C90172   0.452   5.163   3.295 -0.1306  1.0485  0.4954
  684MOL0     N90173   0.444   5.132   3.154 -0.4712  0.6081  0.4235
  684MOL0     C90174   0.391   5.016   3.106 -0.1832  0.3546  0.7467
  684MOL0     C90175   0.406   5.020   2.969  0.5696  0.1332  0.3590
  684MOL0     C90176   0.377   4.919   2.857  1.1190 -0.1017 -1.0143
  684MOL0     C90177   0.227   4.937   2.817  0.1993 -0.0201  0.8866
  684MOL0     C90178   0.185   4.850   2.708 -0.1559  0.3004  0.6764
  684MOL0     C90179   0.048   4.867   2.637  0.6068  0.0972 -0.2616
  684MOL0     O90180  -0.023   4.976   2.697 -0.8507 -0.4757 -0.2611
  684MOL0     C90181  -0.115   4.951   2.793 -0.6709  0.0019  1.1147
  684MOL0     C90182  -0.122   5.038   2.906  0.1006  0.2066  0.8250
  684MOL0     C90183  -0.210   4.995   3.004  0.1374  0.7939  0.0945
  684MOL0     C90184  -0.300   4.893   2.986  0.5289  0.6768  0.7904
  684MOL0     C90185  -0.408   4.869   3.087 -1.1971 -0.1393  0.6097
  684MOL0     O90186  -0.394   4.914   3.216  0.0896 -0.4440  0.3710
  684MOL0     C90187  -0.482   4.904   3.320 -0.0666  0.8972  0.5806
  684MOL0     C90188  -0.619   4.908   3.304  0.7184  0.0506 -0.2652
  684MOL0     C90189  -0.710   4.917   3.416  1.0023  0.2229 -0.0373
  684MOL0     C90190  -0.663   4.912   3.544  0.2684  0.1331  0.5153
  684MOL0     O90191  -0.758   4.907   3.643 -0.6078  0.3318 -0.5670
  684MOL0     C90192  -0.782   4.770   3.689 -0.3659  0.3870 -0.2705
  684MOL0     C90193  -0.733   4.759   3.831  0.2692  0.5333  0.5643
  684MOL0     C90194  -0.820   4.675   3.927  0.2652  0.6411 -0.0515
  684MOL0     C90195  -0.742   4.623   4.045 -0.0473  0.0685 -0.3920
  684MOL0     C90196  -0.827   4.544   4.148  0.7577 -0.0862  0.3809
  684MOL0     C90197  -0.742   4.510   4.270 -0.1877  0.7619 -0.0225
  684MOL0     C90198  -0.818   4.420   4.365  0.3658 -0.8669 -1.2814
  684MOL0     C90199  -0.724   4.366   4.474  0.7655 -0.1614  0.1920
  684MOL0    Cl90200  -0.719   4.504   4.588  0.0931  0.2162  0.7302
  684MOL0     C90201  -0.521   4.909   3.568 -0.2476 -0.7504  0.0092
  684MOL0     C90202  -0.432   4.905   3.456  0.4002  0.5269 -0.3504
  684MOL0     O90203  -0.513   4.822   3.039 -0.4032 -0.1268  0.2498
  684MOL0     C90204  -0.306   4.824   2.858  0.1801 -0.2404  0.5196
  684MOL0     C90205  -0.210   4.853   2.764  0.8805  0.0590 -0.4549
  684MOL0     N90206   0.474   5.140   2.941 -0.5475 -0.1629  0.3174
  684MOL0     N90207   0.481   5.206   3.046 -0.3098 -0.2928 -0.2024
  684MOL0     C90208   1.114   5.428   3.961  0.8390 -0.2466 -0.6590
  684MOL0     C90209   1.246   5.407   4.004  0.1433  0.3462  0.0928
  684MOL0     C90210   1.685   5.240   3.962 -0.3637  0.0926 -0.0325
  684MOL0     C90211   1.741   5.112   3.984  0.3626  0.2497  1.0250
  684MOL0     C90212   1.865   5.100   4.044 -0.1205  0.7521 -1.0425
  684MOL0     C90213   1.946   5.216   4.051 -0.4454  0.6849  0.6136
  684MOL0     O90214   2.055   5.187   4.129  0.1639 -0.8507  0.2028
  684MOL0     C90215   2.164   5.269   4.134  1.4412 -1.2521  0.0765
  684MOL0     C90216   2.251   5.216   4.250 -0.1329  0.2473  0.2841
  684MOL0     C90217   2.400   5.223   4.197  0.4360  0.1428 -1.1806
  684MOL0     C90218   2.496   5.170   4.312 -0.1303 -0.5366 -0.4820
  684MOL0     C90219   2.499   5.022   4.334  1.0752  0.1217 -0.5186
  684MOL0     C90220   2.471   4.907   4.362  0.4257  0.3493  0.0463
  684MOL0     C90221   1.899   5.338   4.003 -0.2791  0.1784 -1.3375
  684MOL0     C90222   1.769   5.350   3.966 -0.4233  0.1814  0.1707
  684MOL0     H90223   1.388   5.328   3.716  0.7972 -0.4983  1.3987
  684MOL0     H90224   1.156   5.348   3.636  0.9100 -2.6715 -0.5694
  684MOL0     H90225   0.877   5.265   3.868  0.7460 -2.6728 -0.8497
  684MOL0     H90226   0.932   5.254   3.713 -0.4252 -2.2145  1.9458
  684MOL0     H90227   0.676   5.414   3.793  0.3741 -0.2866  1.1720
  684MOL0     H90228   0.682   5.249   3.774 -0.2246  0.5206  0.2573
  684MOL0     H90229   0.788   5.281   3.541 -2.3159 -0.0775 -2.2583
  684MOL0     H90230   0.764   5.461   3.569  1.4768  0.6599 -2.4120
  684MOL0     H90231   0.525   5.435   3.589 -0.9119 -0.7065 -0.9075
  684MOL0     H90232   0.588   5.355   3.440 -2.2723 -1.5854 -0.0500
  684MOL0     H90233   0.405   5.227   3.552  0.5708  1.2314 -0.4728
  684MOL0     H90234   0.500   5.212   3.694 -2.5531 -2.1335  0.0552
  684MOL0     H90235   0.488   5.019   3.535 -0.2628  2.1118  0.5510
  684MOL0     H90236   0.659   5.046   3.537 -1.1944 -3.7904 -0.5738
  684MOL0     H90237   0.678   5.158   3.337 -0.4176  3.1201  2.0144
  684MOL0     H90238   0.598   5.008   3.314  2.3379  0.6181 -1.0864
  684MOL0     H90239   0.448   5.272   3.309  1.1879  1.2682 -0.6147
  684MOL0     H90240   0.369   5.123   3.354 -1.5526  2.1989 -0.6281
  684MOL0     H90241   0.345   4.936   3.163 -0.7843  1.7063  2.2643
  684MOL0     H90242   0.383   4.817   2.894 -2.0967  0.1772  0.7107
  684MOL0     H90243   0.430   4.941   2.764 -2.3518  1.3352 -2.8683
  684MOL0     H90244   0.218   5.042   2.791  0.0884  0.1343  1.5302
  684MOL0     H90245   0.162   4.921   2.904  2.3570  2.7131  3.2218
  684MOL0     H90246   0.264   4.863   2.634  0.5560  0.9853  1.5405
  684MOL0     H90247   0.191   4.743   2.731  3.9415 -0.6841 -3.3549
  684MOL0     H90248  -0.003   4.771   2.644  3.2341 -1.3245  0.6464
  684MOL0     H90249   0.055   4.907   2.535  2.6425  0.7233  0.0855
  684MOL0     H90250  -0.054   5.121   2.916 -0.3763  0.8327 -0.9064
  684MOL0     H90251  -0.217   5.052   3.097 -1.3077  3.3321 -1.4443
  684MOL0     H90252  -0.655   4.935   3.205  0.3018 -3.7861 -1.3277
  684MOL0     H90253  -0.817   4.909   3.407  1.1363 -1.3144 -0.5781
  684MOL0     H90254  -0.727   4.701   3.624 -2.7050  0.0272 -1.9761
  684MOL0     H90255  -0.887   4.743   3.682 -0.2499 -0.3025  0.5307
  684MOL0     H90256  -0.723   4.860   3.872 -1.6412  0.2033  2.0419
  684MOL0     H90257  -0.641   4.700   3.828 -1.3127 -2.2793  2.5125
  684MOL0     H90258  -0.862   4.587   3.877  0.5091 -0.4123  1.5180
  684MOL0     H90259  -0.904   4.725   3.977  1.4622 -1.8131  5.1392
  684MOL0     H90260  -0.656   4.560   4.020  0.1809  1.0906 -2.3616
  684MOL0     H90261  -0.691   4.699   4.105  1.7564 -2.2237  1.1546
  684MOL0     H90262  -0.879   4.455   4.112 -2.0876  0.2103  3.3262
  684MOL0     H90263  -0.917   4.593   4.188  0.8928 -1.2706  2.2341
  684MOL0     H90264  -0.714   4.604   4.320  0.8699  1.6498 -2.1594
  684MOL0     H90265  -0.647   4.464   4.243 -0.8829 -0.6127 -0.2165
  684MOL0     H90266  -0.886   4.484   4.423 -0.5330 -0.1957 -2.9821
  684MOL0     H90267  -0.885   4.352   4.311 -0.0933 -0.1198 -1.6830
  684MOL0     H90268  -0.623   4.351   4.434  1.3853  1.9954  0.7943
  684MOL0     H90269  -0.756   4.279   4.531  0.9103  1.1220  2.3123
  684MOL0     H90270  -0.481   4.928   3.667  3.8484  3.2724 -2.0328
  684MOL0     H90271  -0.324   4.913   3.468  0.5314 -0.3630 -0.8301
  684MOL0     H90272  -0.379   4.746   2.841 -1.2571  1.5795 -2.4872
  684MOL0     H90273  -0.210   4.811   2.664 -0.6391  1.8902 -1.2825
  684MOL0     H90274   1.040   5.470   4.028  0.8610 -0.2620 -0.6247
  684MOL0     H90275   1.275   5.421   4.108 -2.2471 -0.2512  0.9045
  684MOL0     H90276   1.672   5.029   3.973  2.4257 -1.2030 -3.4692
  684MOL0     H90277   1.901   5.004   4.079 -2.5229  0.7735  1.8723
  684MOL0     H90278   2.126   5.370   4.151  0.5420 -1.0495 -2.7307
  684MOL0     H90279   2.214   5.265   4.037 -0.2755  1.7087 -1.0624
  684MOL0     H90280   2.241   5.275   4.342 -1.6472  0.3523  0.0759
  684MOL0     H90281   2.219   5.114   4.274 -0.7388  0.1166 -1.0247
  684MOL0     H90282   2.421   5.326   4.166 -1.7509  1.8082  2.2432
  684MOL0     H90283   2.406   5.172   4.100 -3.0742  2.3608 -2.7739
  684MOL0     H90284   2.593   5.203   4.276 -1.1020  0.7157 -2.0935
  684MOL0     H90285   2.479   5.221   4.407  2.2671  1.5702 -1.0793
  684MOL0     H90286   2.422   4.812   4.370  0.0313  0.5017 -0.4857
  684MOL0     H90287   1.962   5.424   4.022  1.9985 -1.7607  0.5063
  684MOL0     H90288   1.742   5.445   3.921 -0.8273  1.0272  2.0641
  685MOL0     O90289   9.084  10.443   4.797 -0.4198  0.2876  0.2036
  685MOL0     C90290   9.074  10.383   4.903 -0.5894  0.5513  0.7892
  685MOL0     O90291   9.121  10.431   5.027  0.1172 -0.0705  0.7431
  685MOL0     C90292   9.200  10.539   5.036 -0.2416  0.7243 -0.3645
  685MOL0     C90293   9.314  10.570   4.962 -1.0569 -0.2769 -0.1581
  685MOL0     C90294   9.394  10.693   4.966 -0.0930  1.2447  0.0885
  685MOL0     C90295   9.342  10.787   5.062 -0.5917 -1.3423  0.2835
  685MOL0     O90296   9.433  10.888   5.092 -0.3702 -0.8285  0.1130
  685MOL0     C90297   9.435  10.996   4.998  0.2081 -0.2352 -0.2357
  685MOL0     C90298   9.405  11.133   5.066 -0.4630 -0.1093 -0.4949
  685MOL0     C90299   9.258  11.139   5.115  0.1287 -0.4292 -0.6822
  685MOL0     C90300   9.222  11.243   5.229 -0.1155  0.1794  0.1866
  685MOL0     C90301   9.300  11.374   5.227 -0.5273 -0.1712 -0.0138
  685MOL0     C90302   9.274  11.454   5.357 -0.1390 -0.1886  0.4545
  685MOL0     C90303   9.405  11.500   5.427  0.3861  0.5707  1.3737
  685MOL0     C90304   9.379  11.591   5.549 -0.0493 -0.6812  0.5023
  685MOL0     N90305   9.505  11.603   5.627 -0.7974 -0.4879 -0.2586
  685MOL0     C90306   9.631  11.632   5.584  0.6846  0.1208  0.4490
  685MOL0     C90307   9.689  11.713   5.678  0.1503 -0.0424  0.2036
  685MOL0     C90308   9.818  11.785   5.680 -0.0224 -0.3501  0.2927
  685MOL0     C90309   9.822  11.939   5.701  0.3675 -0.4285 -0.3941
  685MOL0     C90310   9.958  11.998   5.671  1.1201  0.3843 -0.1605
  685MOL0     C90311   9.984  12.140   5.701  0.0658 -0.6823  0.6259
  685MOL0     O90312   9.908  12.215   5.606  0.1911 -0.4479  0.1933
  685MOL0     C90313   9.926  12.354   5.605 -0.1654  0.3829 -0.3466
  685MOL0     C90314  10.013  12.430   5.694  0.3226  0.7781  0.8109
  685MOL0     C90315  10.047  12.566   5.681  0.2400 -1.1018 -0.3095
  685MOL0     C90316   9.985  12.638   5.582 -0.3478 -0.9512 -0.3797
  685MOL0     C90317  10.004  12.783   5.580 -0.4672 -0.5779 -0.3668
  685MOL0     O90318  10.116  12.836   5.653  0.3171 -0.7939  0.5217
  685MOL0     C90319  10.133  12.977   5.656  0.0643 -0.0724  0.4114
  685MOL0     C90320  10.071  13.079   5.590 -0.6912 -0.8037  1.0333
  685MOL0     C90321  10.113  13.213   5.605 -0.0288 -0.6880  1.2917
  685MOL0     C90322  10.232  13.248   5.673  0.3407  0.7068  0.0211
  685MOL0     O90323  10.267  13.378   5.682 -0.1834 -0.0058  0.1010
  685MOL0     C90324  10.278  13.417   5.817  0.0337 -0.6340  0.5924
  685MOL0     C90325  10.213  13.561   5.821 -0.2082  0.6773 -0.3530
  685MOL0     C90326  10.296  13.657   5.742  0.2790  0.0241 -0.0168
  685MOL0     C90327  10.282  13.804   5.783 -0.0877 -0.3936 -0.1156
  685MOL0     C90328  10.349  13.824   5.920  0.9429 -0.2155 -0.0331
  685MOL0     C90329  10.422  13.961   5.928 -0.2815  0.2759  0.0164
  685MOL0     C90330  10.331  14.071   5.899  0.1214 -0.7836  0.1426
  685MOL0     C90331  10.401  14.216   5.916 -0.5614 -0.9242  0.3154
  685MOL0    Cl90332  10.471  14.206   6.084 -0.0560  0.0057 -0.2828
  685MOL0     C90333  10.296  13.150   5.744 -0.4941  0.8434 -0.0498
  685MOL0     C90334  10.240  13.016   5.742  0.1405 -0.2460  0.1613
  685MOL0     O90335   9.929  12.848   5.511 -0.6554  0.6749 -0.0024
  685MOL0     C90336   9.885  12.575   5.502 -0.1416 -0.1614 -0.7089
  685MOL0     C90337   9.867  12.433   5.509 -0.0343 -0.9594 -0.2208
  685MOL0     N90338   9.608  11.705   5.791  0.2680  0.8744 -0.4199
  685MOL0     N90339   9.501  11.640   5.757  0.2153  0.6004  0.7658
  685MOL0     C90340   9.238  10.762   5.149  0.4311  0.1747 -0.0990
  685MOL0     C90341   9.158  10.642   5.128 -0.0243 -0.4664 -0.0681
  685MOL0     C90342   8.996  10.245   4.916 -0.4074  0.6442  0.5111
  685MOL0     C90343   8.969  10.172   4.799 -0.5234 -1.2545 -0.0394
  685MOL0     C90344   8.930  10.042   4.796  0.8623 -0.2886  0.5004
  685MOL0     C90345   8.891   9.990   4.918  0.3891  0.6562  0.4412
  685MOL0     O90346   8.833   9.863   4.907 -0.0198 -0.5166 -0.0885
  685MOL0     C90347   8.822   9.771   5.018 -0.3368  0.3387  0.2355
  685MOL0     C90348   8.754   9.652   4.957  0.4089  0.3122 -0.5894
  685MOL0     C90349   8.730   9.545   5.066 -0.4039  0.2302 -0.2917
  685MOL0     C90350   8.622   9.439   5.036 -0.9004 -0.5769  1.0715
  685MOL0     C90351   8.490   9.498   5.034  0.0140 -0.4062  0.2971
  685MOL0     C90352   8.376   9.564   5.022 -0.3727  0.4777 -0.5468
  685MOL0     C90353   8.903  10.059   5.042  0.7190 -0.1412 -0.3147
  685MOL0     C90354   8.962  10.189   5.035  0.4609 -0.0792 -0.3192
  685MOL0     H90355   9.344  10.497   4.887 -3.3840 -0.4100 -1.0351
  685MOL0     H90356   9.487  10.703   4.911 -2.5659  1.7753 -4.4330
  685MOL0     H90357   9.359  10.985   4.921  0.3442  1.8888 -0.7114
  685MOL0     H90358   9.536  10.979   4.958  0.2418 -1.8829  0.4500
  685MOL0     H90359   9.432  11.216   4.999 -0.9122  0.8968  0.5402
  685MOL0     H90360   9.468  11.128   5.155 -1.0936 -2.0063 -0.1095
  685MOL0     H90361   9.230  11.040   5.153 -4.9342  0.0007 -2.5830
  685MOL0     H90362   9.203  11.156   5.022  1.7263  1.1894 -1.3788
  685MOL0     H90363   9.113  11.257   5.230 -0.1484  0.1359 -1.3261
  685MOL0     H90364   9.246  11.184   5.318 -1.3134  1.9510  1.7606
  685MOL0     H90365   9.298  11.438   5.138 -0.7926 -0.3379 -0.1294
  685MOL0     H90366   9.402  11.333   5.229 -0.8271 -1.0240 -1.0756
  685MOL0     H90367   9.212  11.386   5.418  1.8049 -3.5146 -1.0312
  685MOL0     H90368   9.222  11.546   5.330  1.7013  0.6734 -0.2867
  685MOL0     H90369   9.462  11.406   5.436  1.1892  0.5910 -2.0536
  685MOL0     H90370   9.460  11.558   5.353 -0.4930  1.1693  1.1737
  685MOL0     H90371   9.306  11.547   5.618  1.7319 -3.2350  0.8789
  685MOL0     H90372   9.326  11.683   5.523  2.0276  0.4507  0.0747
  685MOL0     H90373   9.674  11.613   5.486  1.6088  1.3352  0.5890
  685MOL0     H90374   9.880  11.751   5.596 -2.0517  1.1221 -1.9427
  685MOL0     H90375   9.882  11.744   5.758  3.6797  0.7552 -1.8851
  685MOL0     H90376   9.795  11.968   5.803  2.4567 -0.5182  0.2116
  685MOL0     H90377   9.746  11.980   5.633 -0.2964 -0.4650  0.3017
  685MOL0     H90378  10.030  11.930   5.720 -0.5057 -2.6719 -1.7181
  685MOL0     H90379   9.968  11.985   5.563 -0.3979  3.5084 -0.7669
  685MOL0     H90380  10.091  12.162   5.700  0.0790 -0.7453  0.6563
  685MOL0     H90381   9.945  12.162   5.801 -0.7864  0.9565 -0.0238
  685MOL0     H90382  10.075  12.376   5.765  0.0271 -0.2688  0.2921
  685MOL0     H90383  10.124  12.592   5.753 -0.8010 -2.1964  1.2864
  685MOL0     H90384   9.990  13.073   5.517  2.0661 -2.6423 -2.1680
  685MOL0     H90385  10.063  13.300   5.564 -2.1073 -2.2218  0.3753
  685MOL0     H90386  10.380  13.412   5.854  0.4809 -2.4263 -0.7413
  685MOL0     H90387  10.211  13.358   5.881 -1.7497 -0.8464 -1.3445
  685MOL0     H90388  10.223  13.580   5.928  0.2401 -4.4631  0.7682
  685MOL0     H90389  10.107  13.560   5.794 -0.8523  1.2144  1.9371
  685MOL0     H90390  10.269  13.651   5.636  1.0131  2.1291 -0.3790
  685MOL0     H90391  10.397  13.616   5.734 -0.8252 -3.0843  0.6808
  685MOL0     H90392  10.337  13.861   5.708  2.3871 -3.1311 -0.5882
  685MOL0     H90393  10.175  13.828   5.779  0.6721  3.5555 -0.1443
  685MOL0     H90394  10.421  13.745   5.944 -2.7375 -3.6617  0.8809
  685MOL0     H90395  10.270  13.815   5.996  1.1388 -2.9416 -0.0485
  685MOL0     H90396  10.511  13.970   5.866  0.3680  1.6919  1.0949
  685MOL0     H90397  10.459  13.959   6.031  0.0674  0.1324 -0.1105
  685MOL0     H90398  10.296  14.076   5.796 -0.4562 -1.0251  0.3251
  685MOL0     H90399  10.242  14.053   5.960 -1.8259  0.0666 -2.2646
  685MOL0     H90400  10.328  14.297   5.906  4.1268  3.5658 -2.4127
  685MOL0     H90401  10.480  14.243   5.845 -0.6736  4.0155  1.6750
  685MOL0     H90402  10.393  13.180   5.783  1.4757 -1.5332 -2.7146
  685MOL0     H90403  10.289  12.933   5.791  1.4199 -0.1493 -0.9164
  685MOL0     H90404   9.833  12.637   5.428 -1.0034  1.7351  1.3550
  685MOL0     H90405   9.809  12.379   5.434  0.2298 -0.9587 -0.4273
  685MOL0     H90406   9.223  10.833   5.229  2.4175  0.2953  0.2223
  685MOL0     H90407   9.067  10.617   5.182  0.1333 -4.1847 -1.2604
  685MOL0     H90408   8.993  10.225   4.707 -0.2905  1.1893  1.3206
  685MOL0     H90409   8.913   9.985   4.705 -0.6607  0.9596 -0.0386
  685MOL0     H90410   8.764   9.819   5.098 -0.5872 -3.3171  2.4915
  685MOL0     H90411   8.917   9.728   5.052 -2.2202 -5.6790 -0.9433
  685MOL0     H90412   8.660   9.688   4.917 -0.2250  0.1701  0.7208
  685MOL0     H90413   8.823   9.613   4.881  1.0605 -0.5987  0.4397
  685MOL0     H90414   8.700   9.583   5.163 -1.2362 -2.9522  0.8413
  685MOL0     H90415   8.829   9.500   5.082  0.1618  1.3608 -0.5008
  685MOL0     H90416   8.650   9.399   4.938 -1.9060  0.0941  0.4925
  685MOL0     H90417   8.614   9.356   5.107 -1.7148 -1.0578  0.4340
  685MOL0     H90418   8.289   9.616   4.989 -0.7395  1.1602  1.3902
  685MOL0     H90419   8.885  10.009   5.137 -0.8456  1.8955  0.5160
  685MOL0     H90420   8.980  10.253   5.121  3.5801 -0.7765 -0.3229
  686MOL0     O90421   2.059   8.421   2.026 -0.1469  0.4530 -0.2404
  686MOL0     C90422   2.020   8.492   1.930 -0.1797  0.3751  0.1134
  686MOL0     O90423   2.098   8.558   1.841  0.1595  0.0115  0.7995
  686MOL0     C90424   2.239   8.564   1.855 -0.5825 -0.6995 -0.3964
  686MOL0     C90425   2.300   8.687   1.834 -0.8612  0.2252 -0.0345
  686MOL0     C90426   2.438   8.698   1.833 -0.3839 -0.2113 -0.3143
  686MOL0     C90427   2.526   8.585   1.877  0.8410 -0.0575  0.1173
  686MOL0     O90428   2.653   8.600   1.891 -0.4181 -0.3984  0.4661
  686MOL0     C90429   2.690   8.609   2.029 -0.6159  0.8334 -0.1738
  686MOL0     C90430   2.692   8.751   2.087 -0.6981 -0.6225 -0.0295
  686MOL0     C90431   2.752   8.767   2.224  0.0085  1.0633 -0.8813
  686MOL0     C90432   2.733   8.901   2.290 -0.1358  0.4219  0.2819
  686MOL0     C90433   2.816   8.908   2.427  0.2128 -0.5310  0.2840
  686MOL0     C90434   2.727   8.829   2.527 -0.7437  0.7957  0.5680
  686MOL0     C90435   2.756   8.857   2.674 -0.2238  0.0112  0.0715
  686MOL0     C90436   2.744   9.001   2.729 -0.0828  0.5575  0.9932
  686MOL0     N90437   2.841   9.102   2.681 -0.3529 -0.1417 -0.1818
  686MOL0     C90438   2.979   9.095   2.684  0.6222 -0.1242 -0.0214
  686MOL0     C90439   3.025   9.203   2.613  0.7592  0.2439  0.8321
  686MOL0     C90440   3.170   9.223   2.584 -0.3767  0.4633 -0.3276
  686MOL0     C90441   3.198   9.369   2.630  0.2292 -0.4110 -0.2599
  686MOL0     C90442   3.336   9.423   2.596  0.1562 -0.0794 -0.0517
  686MOL0     C90443   3.420   9.348   2.498 -0.6680  0.1171  0.4072
  686MOL0     O90444   3.539   9.425   2.466  0.3662 -0.1853  0.1654
  686MOL0     C90445   3.557   9.460   2.338 -0.0062 -0.0620 -0.2307
  686MOL0     C90446   3.690   9.443   2.294  0.6134 -0.7376  0.0147
  686MOL0     C90447   3.720   9.483   2.158 -1.1852 -0.6448  0.6766
  686MOL0     C90448   3.639   9.547   2.071 -0.3753 -0.8543  0.4642
  686MOL0     C90449   3.679   9.606   1.945 -0.5207  0.2754  0.0920
  686MOL0     O90450   3.813   9.620   1.923  0.0912 -0.1104  1.0588
  686MOL0     C90451   3.865   9.672   1.805 -0.1787 -0.1369 -0.5570
  686MOL0     C90452   3.799   9.675   1.674  0.1290  0.9567  0.3943
  686MOL0     C90453   3.859   9.723   1.555 -0.2907 -0.1111  0.2144
  686MOL0     C90454   3.995   9.760   1.563  0.4605 -0.0526  0.1784
  686MOL0     O90455   4.058   9.788   1.444  0.8253 -0.1392  0.5047
  686MOL0     C90456   4.198   9.773   1.438  0.1725  0.0097  0.8584
  686MOL0     C90457   4.233   9.820   1.288 -0.1222  0.2347 -0.1752
  686MOL0     C90458   4.208   9.972   1.274 -0.0829  0.1121 -0.1352
  686MOL0     C90459   4.144  10.008   1.135  0.5419  1.1239 -0.2539
  686MOL0     C90460   4.101  10.158   1.123  0.4390  1.0170  0.6086
  686MOL0     C90461   4.023  10.200   0.993 -0.2739  0.9523 -0.0247
  686MOL0     C90462   4.108  10.176   0.861  0.2364 -0.4135 -0.0022
  686MOL0     C90463   4.222  10.277   0.851 -0.5015 -0.7747  0.4594
  686MOL0    Cl90464   4.209  10.439   0.899 -0.0270 -0.2909  0.0086
  686MOL0     C90465   4.057   9.774   1.691  0.2012 -0.4090 -0.4171
  686MOL0     C90466   3.993   9.720   1.809 -1.1568 -0.2593 -0.0728
  686MOL0     O90467   3.595   9.648   1.865  0.3644  0.7955 -0.0307
  686MOL0     C90468   3.509   9.561   2.114 -0.1510  0.1448 -0.9114
  686MOL0     C90469   3.465   9.512   2.240 -0.0521  0.4679  0.9332
  686MOL0     N90470   2.911   9.277   2.572 -0.4761 -0.6195 -0.8650
  686MOL0     N90471   2.806   9.219   2.611  0.5100  0.7222 -0.4192
  686MOL0     C90472   2.460   8.457   1.893 -0.2049  0.3593 -0.6690
  686MOL0     C90473   2.320   8.451   1.888 -0.0558  0.2570  1.2700
  686MOL0     C90474   1.875   8.487   1.887 -0.1975  0.0216  0.6891
  686MOL0     C90475   1.772   8.441   1.970 -0.3787  0.5502 -0.7149
  686MOL0     C90476   1.644   8.414   1.922 -0.2094  0.3104  0.3639
  686MOL0     C90477   1.606   8.444   1.795 -0.2921 -0.0140 -0.0704
  686MOL0     O90478   1.477   8.407   1.773 -0.7733 -0.2274 -0.3952
  686MOL0     C90479   1.410   8.462   1.651 -0.1397  0.3250 -0.5814
  686MOL0     C90480   1.269   8.471   1.677  0.1460  0.0433  0.1886
  686MOL0     C90481   1.197   8.337   1.689 -0.0206  0.2767 -0.0086
  686MOL0     C90482   1.058   8.332   1.742  0.4554  0.3096 -0.3080
  686MOL0     C90483   0.959   8.400   1.665 -0.7176 -0.3321  0.3150
  686MOL0     C90484   0.867   8.459   1.599  0.2436  0.3253  0.1551
  686MOL0     C90485   1.703   8.498   1.705 -0.7718 -1.1338 -0.2095
  686MOL0     C90486   1.840   8.519   1.752 -0.3382  0.0816  0.3163
  686MOL0     H90487   2.228   8.763   1.804 -0.4419  0.2479 -0.9997
  686MOL0     H90488   2.499   8.786   1.815  0.1680 -0.8727 -1.8654
  686MOL0     H90489   2.792   8.569   2.032 -0.9564 -0.3731 -2.3923
  686MOL0     H90490   2.636   8.540   2.095  1.1691 -0.2085  0.2651
  686MOL0     H90491   2.611   8.821   2.065  0.1955  0.3640 -0.2679
  686MOL0     H90492   2.775   8.797   2.033 -2.9580  2.9085 -0.8882
  686MOL0     H90493   2.858   8.741   2.230  0.8197  4.2531  2.6715
  686MOL0     H90494   2.683   8.702   2.279 -1.6066  3.1719 -0.2572
  686MOL0     H90495   2.770   8.977   2.221  3.7475 -2.7232 -1.4353
  686MOL0     H90496   2.625   8.916   2.303 -0.2849 -1.0103  0.8249
  686MOL0     H90497   2.810   9.013   2.456  1.2999 -1.1959  3.2218
  686MOL0     H90498   2.921   8.878   2.424  1.6411  3.8904 -0.3548
  686MOL0     H90499   2.744   8.726   2.493 -0.3481  1.1268 -0.2711
  686MOL0     H90500   2.628   8.870   2.504 -0.3320  1.3034 -0.3769
  686MOL0     H90501   2.699   8.784   2.732  0.2913  0.1295  0.7396
  686MOL0     H90502   2.856   8.825   2.705  0.1391  2.6085  1.8372
  686MOL0     H90503   2.771   8.985   2.833  1.2744 -4.7365  0.1267
  686MOL0     H90504   2.642   9.039   2.725 -1.0354 -1.8095 -2.8622
  686MOL0     H90505   3.042   9.024   2.737  0.7755  1.0939  1.4983
  686MOL0     H90506   3.188   9.219   2.476  1.0880  3.7636 -0.3164
  686MOL0     H90507   3.233   9.145   2.627 -1.1867 -1.0983 -1.8476
  686MOL0     H90508   3.190   9.371   2.739  3.2392  1.2414  0.0396
  686MOL0     H90509   3.125   9.441   2.593  0.0225  1.9113  3.9341
  686MOL0     H90510   3.323   9.526   2.564  1.7491 -0.3919 -1.8430
  686MOL0     H90511   3.390   9.428   2.691  0.0289 -1.5185  0.1247
  686MOL0     H90512   3.355   9.343   2.410 -1.2968 -1.5792  0.9290
  686MOL0     H90513   3.446   9.248   2.535 -0.1732 -0.8941 -2.4249
  686MOL0     H90514   3.768   9.413   2.362  0.9763 -3.5648 -1.4900
  686MOL0     H90515   3.824   9.458   2.140 -1.2730  0.4311 -1.8070
  686MOL0     H90516   3.695   9.649   1.661 -0.0357  1.1079  1.3390
  686MOL0     H90517   3.808   9.732   1.460  2.0181  1.7001 -0.9614
  686MOL0     H90518   4.209   9.664   1.449 -0.5945 -0.4237 -1.9795
  686MOL0     H90519   4.253   9.831   1.513  0.6544  0.8693 -0.1387
  686MOL0     H90520   4.162   9.776   1.218 -3.1920 -0.6641  3.1675
  686MOL0     H90521   4.336   9.798   1.261 -0.2443 -1.3403  0.5334
  686MOL0     H90522   4.311  10.007   1.264  1.3165 -3.7613 -1.1441
  686MOL0     H90523   4.158  10.020   1.359  2.7615 -1.9137  2.9106
  686MOL0     H90524   4.223   9.992   1.061  0.0776 -1.9646 -0.2325
  686MOL0     H90525   4.062   9.945   1.100  1.1131 -0.4197  1.0069
  686MOL0     H90526   4.195  10.213   1.132  1.2240 -0.6223  3.7946
  686MOL0     H90527   4.034  10.172   1.208  2.0158  0.7216  1.9563
  686MOL0     H90528   3.994  10.305   1.007  1.0956  1.2687  0.6203
  686MOL0     H90529   3.935  10.135   0.993 -0.5166  1.2522  1.1246
  686MOL0     H90530   4.133  10.069   0.857 -3.5471 -1.4725  1.0356
  686MOL0     H90531   4.048  10.188   0.770  1.8565  2.1206 -0.8538
  686MOL0     H90532   4.252  10.276   0.745  3.1933 -0.4330  1.3752
  686MOL0     H90533   4.308  10.235   0.903 -1.1147  0.2508  2.4090
  686MOL0     H90534   4.159   9.811   1.701 -0.1277 -0.0112  1.8489
  686MOL0     H90535   4.043   9.713   1.905 -0.5695 -0.6323 -0.4018
  686MOL0     H90536   3.436   9.611   2.051  1.0889 -1.5636 -3.8622
  686MOL0     H90537   3.358   9.522   2.255 -0.9899  3.4842 -4.7937
  686MOL0     H90538   2.526   8.372   1.904 -2.4040 -1.1463  1.9111
  686MOL0     H90539   2.272   8.353   1.894  0.6743 -0.5702 -2.8965
  686MOL0     H90540   1.793   8.413   2.073 -0.7936 -1.3782 -1.1147
  686MOL0     H90541   1.567   8.370   1.984 -0.3483  0.2327  0.1382
  686MOL0     H90542   1.424   8.393   1.568  1.0788 -0.2723  0.0919
  686MOL0     H90543   1.457   8.560   1.636  0.0649  1.0073  3.2989
  686MOL0     H90544   1.247   8.533   1.764 -0.9101  0.4468 -0.3369
  686MOL0     H90545   1.222   8.529   1.597  0.6356 -0.7514 -0.6965
  686MOL0     H90546   1.261   8.272   1.749 -1.1322  1.5370  2.6769
  686MOL0     H90547   1.186   8.293   1.589 -2.1768  1.3589 -0.3093
  686MOL0     H90548   1.022   8.229   1.746  0.3838  0.3580  1.4201
  686MOL0     H90549   1.055   8.383   1.840  1.1576  0.9620 -0.6171
  686MOL0     H90550   0.799   8.509   1.533  0.7854  2.8940  1.4322
  686MOL0     H90551   1.677   8.498   1.599  2.9008 -2.7265 -1.2923
  686MOL0     H90552   1.915   8.544   1.679 -0.5588  2.3964  0.8046
  687MOL0     O90553   7.114   6.401   9.236  0.7645 -0.2986  0.9715
  687MOL0     C90554   7.081   6.482   9.146  0.8256  0.0015  0.1990
  687MOL0     O90555   7.000   6.597   9.174 -0.3727  0.0583 -0.3700
  687MOL0     C90556   6.969   6.645   9.298 -0.4202 -0.6657 -0.1325
  687MOL0     C90557   7.028   6.598   9.422  0.3747  0.2897  1.0971
  687MOL0     C90558   6.985   6.663   9.536 -0.7206  0.2739  0.4978
  687MOL0     C90559   6.912   6.778   9.537  0.5770 -0.2853  0.0273
  687MOL0     O90560   6.898   6.840   9.653  0.2067 -0.4382  0.1695
  687MOL0     C90561   6.836   6.966   9.671  0.5420 -0.5103  0.1407
  687MOL0     C90562   6.684   6.960   9.657  0.7267  0.2293  0.0735
  687MOL0     C90563   6.624   7.103   9.689 -1.0967 -0.3367  0.9401
  687MOL0     C90564   6.476   7.090   9.746  0.2128 -0.2634  0.1570
  687MOL0     C90565   6.424   7.219   9.788  0.2331  0.0462 -0.4627
  687MOL0     C90566   6.364   7.295   9.675  0.8291 -0.2706  0.2428
  687MOL0     C90567   6.270   7.424   9.703 -0.1880  0.6266 -0.4898
  687MOL0     C90568   6.226   7.485   9.569 -0.8901  0.3389  0.2062
  687MOL0     N90569   6.356   7.531   9.484 -0.6627  0.5984  0.0799
  687MOL0     C90570   6.426   7.645   9.521 -0.6612  0.8132 -0.1256
  687MOL0     C90571   6.543   7.634   9.456 -0.3530  0.8127  0.1106
  687MOL0     C90572   6.656   7.739   9.450 -0.2841 -0.4752  0.3523
  687MOL0     C90573   6.705   7.785   9.587  0.4516  0.7973 -0.1553
  687MOL0     C90574   6.804   7.894   9.579  0.1881  0.0523 -0.2335
  687MOL0     C90575   6.740   8.032   9.570  1.0786  0.3825 -0.4398
  687MOL0     O90576   6.845   8.127   9.591  0.5684 -0.4284  0.7137
  687MOL0     C90577   6.804   8.250   9.648 -0.1461  1.3637 -0.8072
  687MOL0     C90578   6.919   8.342   9.674  0.1333 -0.3340  0.0226
  687MOL0     C90579   6.900   8.459   9.749  0.1033  0.9940 -0.0341
  687MOL0     C90580   6.770   8.490   9.790  0.7827 -0.2706 -0.7139
  687MOL0     C90581   6.760   8.592   9.898  0.0185  0.4418  0.8565
  687MOL0     O90582   6.633   8.594   9.947  0.0987  0.5034 -1.6247
  687MOL0     C90583   6.599   8.645  10.074 -0.1705 -0.5137 -0.4429
  687MOL0     C90584   6.682   8.699  10.168 -0.8578  0.1357 -0.7600
  687MOL0     C90585   6.652   8.739  10.290 -0.0246 -0.0452 -0.1395
  687MOL0     C90586   6.515   8.747  10.326  0.4543  0.1642  0.4360
  687MOL0     O90587   6.468   8.792  10.452  0.3536  0.4113  1.4950
  687MOL0     C90588   6.555   8.878  10.527  0.0480  0.4573  0.1671
  687MOL0     C90589   6.485   8.941  10.654  0.6973  0.2261  0.6749
  687MOL0     C90590   6.601   8.976  10.746 -0.3816 -0.3752 -0.4812
  687MOL0     C90591   6.636   8.857  10.831 -0.1932  0.2421  0.0489
  687MOL0     C90592   6.705   8.891  10.960 -0.3849  0.5489 -0.4453
  687MOL0     C90593   6.622   8.829  11.074 -0.5427  0.2675  0.1869
  687MOL0     C90594   6.658   8.887  11.216  0.0849  0.4346  0.5770
  687MOL0     C90595   6.574   8.814  11.313  0.3090 -0.1404 -0.2022
  687MOL0    Cl90596   6.411   8.856  11.342 -0.6383 -0.3493 -0.0625
  687MOL0     C90597   6.427   8.712  10.223 -0.6229  0.8370 -0.5335
  687MOL0     C90598   6.464   8.659  10.096 -0.5177  0.6445 -1.3652
  687MOL0     O90599   6.862   8.658   9.935  0.9405 -0.0167  0.5144
  687MOL0     C90600   6.660   8.409   9.762  0.4141  0.2863 -0.5562
  687MOL0     C90601   6.677   8.287   9.692  0.2949 -0.2272 -0.0221
  687MOL0     N90602   6.550   7.519   9.382  1.3906  0.3895 -0.5512
  687MOL0     N90603   6.439   7.458   9.401  0.4614  0.4105  0.0501
  687MOL0     C90604   6.856   6.830   9.419  0.5911  1.3405  0.5652
  687MOL0     C90605   6.878   6.750   9.307 -0.3944  1.0486  0.4546
  687MOL0     C90606   7.138   6.453   9.015  0.5241  0.3269  0.1879
  687MOL0     C90607   7.206   6.342   8.979 -0.0724  0.9840  0.6270
  687MOL0     C90608   7.245   6.322   8.846  0.3594  0.9041  0.2882
  687MOL0     C90609   7.200   6.405   8.736  0.2651  0.3634 -1.1288
  687MOL0     O90610   7.218   6.362   8.615 -0.8029  0.2183  0.7880
  687MOL0     C90611   7.165   6.426   8.498 -0.6034 -0.0987  0.1437
  687MOL0     C90612   7.231   6.361   8.373  0.5004  0.0197  0.2519
  687MOL0     C90613   7.380   6.344   8.391 -0.4964  0.0312 -0.3814
  687MOL0     C90614   7.461   6.475   8.407  0.2075  0.7080 -0.6811
  687MOL0     C90615   7.437   6.547   8.284  0.1242 -0.3831 -0.2347
  687MOL0     C90616   7.413   6.595   8.173  0.7170  0.2523 -0.7941
  687MOL0     C90617   7.145   6.529   8.770  0.7044 -0.3604 -0.3155
  687MOL0     C90618   7.114   6.548   8.912 -0.0101  0.7146  0.2774
  687MOL0     H90619   7.089   6.509   9.426  0.3491 -0.0592 -2.7307
  687MOL0     H90620   7.024   6.634   9.633 -1.5981  2.7191  1.6604
  687MOL0     H90621   6.883   7.041   9.607 -2.3405  0.4947 -0.9553
  687MOL0     H90622   6.862   7.000   9.772  2.4311 -0.7568 -0.2144
  687MOL0     H90623   6.650   6.885   9.728  0.6647 -3.2467 -3.2727
  687MOL0     H90624   6.639   6.914   9.568  2.3896  1.0097 -1.2247
  687MOL0     H90625   6.633   7.174   9.607  2.1204 -0.6134  0.9356
  687MOL0     H90626   6.676   7.150   9.773 -1.1127  0.4716  0.5048
  687MOL0     H90627   6.428   7.058   9.653 -1.4004  0.4940  0.6984
  687MOL0     H90628   6.474   7.013   9.824 -3.9542 -0.4370  0.0548
  687MOL0     H90629   6.494   7.282   9.844 -1.6896  1.6625  0.2734
  687MOL0     H90630   6.357   7.194   9.872  3.2877  1.1741  2.5685
  687MOL0     H90631   6.287   7.238   9.620  1.4043 -0.7325 -0.1005
  687MOL0     H90632   6.449   7.320   9.612  1.8969 -0.1357  1.7020
  687MOL0     H90633   6.192   7.379   9.766 -0.2397 -1.0560 -1.6970
  687MOL0     H90634   6.315   7.497   9.771  3.3117 -1.7827  0.0479
  687MOL0     H90635   6.163   7.572   9.591 -0.1407  0.9919 -0.1578
  687MOL0     H90636   6.168   7.408   9.518 -0.2403  0.0328 -0.0835
  687MOL0     H90637   6.414   7.733   9.584 -0.4639  1.1581 -0.5560
  687MOL0     H90638   6.618   7.828   9.399  1.6648  1.3649  1.8971
  687MOL0     H90639   6.735   7.698   9.388 -1.4846 -1.2035 -0.7413
  687MOL0     H90640   6.752   7.706   9.647  2.8701  0.6922 -2.0154
  687MOL0     H90641   6.618   7.809   9.648  1.3798  0.1458  1.5083
  687MOL0     H90642   6.876   7.886   9.661 -0.5874 -3.2015  0.2690
  687MOL0     H90643   6.855   7.873   9.485 -2.6024  0.2459 -1.9107
  687MOL0     H90644   6.674   8.033   9.658  3.4172 -0.0371  1.4176
  687MOL0     H90645   6.683   8.045   9.477  1.8399  4.6165 -0.5402
  687MOL0     H90646   7.004   8.295   9.625 -0.6196 -0.6651 -0.9921
  687MOL0     H90647   6.990   8.507   9.787 -1.3793  0.3860  5.1192
  687MOL0     H90648   6.789   8.695  10.154 -0.8747 -1.9281 -0.5960
  687MOL0     H90649   6.727   8.762  10.366 -2.0435  1.3434  1.5486
  687MOL0     H90650   6.603   8.965  10.481  0.1679  1.6206  2.3162
  687MOL0     H90651   6.634   8.814  10.568  0.4471  2.0382  2.0244
  687MOL0     H90652   6.416   8.868  10.698  2.8110  0.0836  4.1299
  687MOL0     H90653   6.437   9.035  10.626 -1.8161 -1.6325 -1.8313
  687MOL0     H90654   6.559   9.061  10.801 -1.4506  1.3993 -3.7397
  687MOL0     H90655   6.688   9.018  10.695  0.5845 -5.6696 -3.9210
  687MOL0     H90656   6.541   8.806  10.847 -0.5442  0.2516 -1.7968
  687MOL0     H90657   6.697   8.790  10.769 -1.0460  1.4371 -2.1931
  687MOL0     H90658   6.686   8.999  10.971  2.7260  1.5260 -3.0050
  687MOL0     H90659   6.810   8.861  10.960  0.2451  2.4586 -2.4055
  687MOL0     H90660   6.652   8.724  11.074  0.5889  0.5833  0.7652
  687MOL0     H90661   6.515   8.843  11.055 -0.7671 -1.1558  0.2988
  687MOL0     H90662   6.763   8.875  11.246  0.0753  3.4540  2.1752
  687MOL0     H90663   6.642   8.995  11.220 -0.4733  0.5484 -2.6162
  687MOL0     H90664   6.633   8.835  11.403  0.6283  0.6441 -0.5860
  687MOL0     H90665   6.581   8.708  11.286 -2.0694 -1.4708  3.5559
  687MOL0     H90666   6.325   8.728  10.256 -0.5507 -3.1980  2.4318
  687MOL0     H90667   6.395   8.630  10.017 -1.9397  0.5323 -0.1143
  687MOL0     H90668   6.559   8.433   9.794  2.0879  0.7124  5.9235
  687MOL0     H90669   6.588   8.227   9.679  0.0858 -0.7898  3.1684
  687MOL0     H90670   6.807   6.927   9.413 -0.7226  0.5944 -2.4043
  687MOL0     H90671   6.838   6.784   9.212  0.7935  4.1435  0.9356
  687MOL0     H90672   7.220   6.258   9.046  1.7108 -0.3114 -1.2255
  687MOL0     H90673   7.289   6.230   8.809 -2.3450 -0.4528  0.2260
  687MOL0     H90674   7.181   6.534   8.500 -1.1379 -0.0236  0.5836
  687MOL0     H90675   7.056   6.421   8.497 -0.7470  1.4493  2.5294
  687MOL0     H90676   7.180   6.266   8.356 -1.0618  0.0796  3.7226
  687MOL0     H90677   7.209   6.429   8.290  2.1816  0.8665  0.4354
  687MOL0     H90678   7.412   6.272   8.315 -1.4157  1.8583 -2.6009
  687MOL0     H90679   7.406   6.294   8.485  3.9135  1.4567 -0.6221
  687MOL0     H90680   7.430   6.530   8.497  1.6031 -0.3275  0.4852
  687MOL0     H90681   7.564   6.441   8.418  0.2686 -0.3290 -3.7149
  687MOL0     H90682   7.422   6.637   8.075  2.3370 -1.8161 -1.5952
  687MOL0     H90683   7.132   6.617   8.707  5.5756  1.0549  0.2397
  687MOL0     H90684   7.071   6.646   8.928 -0.9667  0.7193 -2.0032
  688MOL0     O90685  11.155   7.877   3.626  0.0060  0.1530  1.1137
  688MOL0     C90686  11.137   7.990   3.640  1.5481  0.3774 -0.2884
  688MOL0     O90687  11.015   8.055   3.634 -0.1835  0.0708  0.0766
  688MOL0     C90688  10.888   7.997   3.622 -0.0318 -0.3283 -0.3302
  688MOL0     C90689  10.771   8.060   3.687 -0.8173  0.5715  0.3515
  688MOL0     C90690  10.643   8.006   3.682 -0.4736 -0.0337 -0.1496
  688MOL0     C90691  10.632   7.879   3.621 -0.5120 -0.1773 -0.4851
  688MOL0     O90692  10.503   7.839   3.634 -0.3864  0.1075 -0.3023
  688MOL0     C90693  10.487   7.705   3.674  0.6349 -0.4709 -0.0707
  688MOL0     C90694  10.341   7.665   3.702  0.0664  0.0872 -0.2408
  688MOL0     C90695  10.277   7.729   3.825  0.0375  0.8044  0.2704
  688MOL0     C90696  10.120   7.715   3.828  0.0915  0.8255 -0.2549
  688MOL0     C90697  10.038   7.799   3.731  0.3396  0.1648  0.2136
  688MOL0     C90698   9.902   7.741   3.703 -0.4924 -0.7564  0.5827
  688MOL0     C90699   9.813   7.832   3.622  1.1529 -0.5580  0.3706
  688MOL0     C90700   9.663   7.787   3.633 -0.4597 -0.4303  0.9227
  688MOL0     N90701   9.653   7.654   3.570  0.0262  0.4677 -0.1864
  688MOL0     C90702   9.663   7.623   3.441  0.3784  1.0336 -0.7012
  688MOL0     C90703   9.591   7.512   3.436  0.0104  0.1788  0.1550
  688MOL0     C90704   9.551   7.446   3.306 -0.2895  0.1622  0.0777
  688MOL0     C90705   9.469   7.530   3.217 -0.1594 -0.3378  0.0033
  688MOL0     C90706   9.445   7.469   3.081 -1.0191 -0.1148  0.7997
  688MOL0     C90707   9.572   7.490   2.998 -0.6527  0.9795 -0.0750
  688MOL0     O90708   9.570   7.440   2.862 -0.5129  0.1423 -0.4468
  688MOL0     C90709   9.679   7.469   2.793 -0.6530 -0.4039  0.6290
  688MOL0     C90710   9.685   7.590   2.721 -0.0689  0.5787  0.0188
  688MOL0     C90711   9.798   7.616   2.646 -0.0935 -0.3348 -0.5183
  688MOL0     C90712   9.907   7.528   2.641 -0.7606 -0.4315  0.4409
  688MOL0     C90713  10.038   7.565   2.569 -0.3391  0.1055  0.1779
  688MOL0     O90714  10.128   7.468   2.532 -0.1581 -0.1724  0.5596
  688MOL0     C90715  10.228   7.499   2.444  0.0326  0.1707 -0.7470
  688MOL0     C90716  10.229   7.434   2.326 -0.5984 -0.2238 -0.9353
  688MOL0     C90717  10.322   7.467   2.228 -0.2320 -0.9808  0.1196
  688MOL0     C90718  10.426   7.553   2.260 -1.2484  1.2628 -0.0045
  688MOL0     O90719  10.524   7.583   2.164  0.2355  0.0098 -0.8965
  688MOL0     C90720  10.530   7.500   2.053 -0.4778 -0.3639 -0.0687
  688MOL0     C90721  10.640   7.518   1.954 -0.1836  0.4757 -0.7636
  688MOL0     C90722  10.613   7.432   1.826 -0.5624  0.6623  1.0256
  688MOL0     C90723  10.704   7.494   1.714  0.2087  0.4197 -0.3428
  688MOL0     C90724  10.682   7.428   1.575 -0.3770  0.4209 -0.3833
  688MOL0     C90725  10.810   7.476   1.506  0.3351 -0.0738 -0.9911
  688MOL0     C90726  10.775   7.514   1.361 -0.0601 -0.3582  0.2447
  688MOL0     C90727  10.743   7.387   1.266  0.1668 -0.7999 -0.8727
  688MOL0    Cl90728  10.716   7.450   1.107  0.6069 -0.1357 -0.3083
  688MOL0     C90729  10.423   7.620   2.385  0.6804 -0.2698  1.1339
  688MOL0     C90730  10.320   7.599   2.475 -0.1704  0.0460 -1.0831
  688MOL0     O90731  10.046   7.685   2.540  0.1705 -0.0479  0.5567
  688MOL0     C90732   9.900   7.401   2.707 -0.3009  0.3347  0.7133
  688MOL0     C90733   9.786   7.375   2.787 -0.0267 -0.0286  1.2005
  688MOL0     N90734   9.554   7.471   3.563  0.6127  0.7159 -0.5902
  688MOL0     N90735   9.605   7.551   3.646 -0.2601 -0.4922  0.5333
  688MOL0     C90736  10.740   7.804   3.563  0.2211  0.3975 -0.2289
  688MOL0     C90737  10.863   7.868   3.568  0.1138 -0.6204  0.8415
  688MOL0     C90738  11.252   8.076   3.685  0.1913  0.6295 -0.2839
  688MOL0     C90739  11.240   8.203   3.734  0.0432  0.0940 -0.0040
  688MOL0     C90740  11.353   8.276   3.767 -0.1309  0.5980 -0.0857
  688MOL0     C90741  11.474   8.218   3.771 -0.1065 -0.3964  0.3255
  688MOL0     O90742  11.580   8.303   3.805 -0.7665 -0.5090  0.5387
  688MOL0     C90743  11.711   8.255   3.800 -0.2913  0.5634  0.2950
  688MOL0     C90744  11.816   8.366   3.827  0.2136 -0.3501 -0.5372
  688MOL0     C90745  11.953   8.310   3.821 -0.9828  1.4990  0.3428
  688MOL0     C90746  12.051   8.390   3.907 -0.0565 -1.0421  0.5847
  688MOL0     C90747  12.176   8.306   3.925  0.1299 -0.0063  0.2994
  688MOL0     C90748  12.288   8.257   3.925 -0.6605  0.2839  0.0499
  688MOL0     C90749  11.494   8.087   3.742  0.0341  0.4872  0.4621
  688MOL0     C90750  11.384   8.008   3.702 -0.0281 -0.1908  0.5258
  688MOL0     H90751  10.779   8.157   3.736 -2.5073 -0.0440  1.9872
  688MOL0     H90752  10.559   8.050   3.733  0.3318  0.1365  1.0787
  688MOL0     H90753  10.538   7.693   3.770 -0.8883 -0.4354  0.7707
  688MOL0     H90754  10.540   7.634   3.610  2.7889  1.0113 -0.0536
  688MOL0     H90755  10.333   7.557   3.720  0.8923  0.0543 -0.0145
  688MOL0     H90756  10.289   7.696   3.611 -1.6905 -1.3399  0.2174
  688MOL0     H90757  10.294   7.837   3.826 -3.3230  1.4684  2.1701
  688MOL0     H90758  10.317   7.686   3.917  3.2227 -1.5394 -1.9914
  688MOL0     H90759  10.085   7.612   3.819 -1.1771  1.0172  1.8654
  688MOL0     H90760  10.093   7.755   3.926  1.9841  1.8150 -0.0843
  688MOL0     H90761  10.093   7.817   3.638  0.3573 -1.7638 -0.1728
  688MOL0     H90762  10.027   7.897   3.779  0.6380  0.4917 -0.3729
  688MOL0     H90763   9.857   7.719   3.800  1.5135  1.3904  2.1170
  688MOL0     H90764   9.923   7.656   3.638 -3.4285  0.5717 -2.4696
  688MOL0     H90765   9.820   7.935   3.658  2.1275 -0.7375  0.7135
  688MOL0     H90766   9.836   7.835   3.515  2.5520  0.0930  0.6701
  688MOL0     H90767   9.594   7.852   3.579  0.0061 -1.0079 -0.4072
  688MOL0     H90768   9.634   7.792   3.738 -0.4360  1.1103  0.8739
  688MOL0     H90769   9.708   7.689   3.369 -0.2629  2.7697  0.4180
  688MOL0     H90770   9.497   7.360   3.346 -1.3167  1.3266  1.2741
  688MOL0     H90771   9.641   7.418   3.250  0.5913 -3.1991  2.8378
  688MOL0     H90772   9.520   7.625   3.199  0.4822 -0.2645  2.0033
  688MOL0     H90773   9.382   7.546   3.281  0.6838 -0.8200  1.3045
  688MOL0     H90774   9.409   7.368   3.105  1.2562 -1.0591  0.4899
  688MOL0     H90775   9.366   7.528   3.034  1.0941  1.0849 -1.4560
  688MOL0     H90776   9.653   7.434   3.046 -0.4003 -1.0327 -2.6181
  688MOL0     H90777   9.591   7.597   2.986 -1.5076  0.9859 -1.6782
  688MOL0     H90778   9.597   7.653   2.713  1.0757  2.1072 -1.2073
  688MOL0     H90779   9.811   7.714   2.602  0.0840 -1.0558 -2.1167
  688MOL0     H90780  10.155   7.356   2.310  2.3806 -3.7930  0.9765
  688MOL0     H90781  10.305   7.419   2.132 -0.0033  1.0720 -0.9914
  688MOL0     H90782  10.435   7.509   1.999 -0.9390  1.5564  0.9928
  688MOL0     H90783  10.533   7.396   2.086 -3.5844 -0.2810  0.8358
  688MOL0     H90784  10.738   7.501   2.000 -1.1988  2.1888  2.3481
  688MOL0     H90785  10.636   7.625   1.934 -3.1011  0.3893 -1.1667
  688MOL0     H90786  10.511   7.428   1.788 -0.1294  1.2685 -0.2896
  688MOL0     H90787  10.653   7.330   1.826  0.9767  1.2290  1.3661
  688MOL0     H90788  10.689   7.603   1.714 -0.5492  0.3471  1.2049
  688MOL0     H90789  10.805   7.482   1.753  0.0829  2.9418  1.0028
  688MOL0     H90790  10.586   7.461   1.535 -1.0232  0.0293  0.7806
  688MOL0     H90791  10.677   7.319   1.577 -0.5500  0.4073 -1.2541
  688MOL0     H90792  10.896   7.408   1.516 -0.5134 -0.9162  1.1980
  688MOL0     H90793  10.847   7.567   1.553  2.5258  0.6866 -3.9060
  688MOL0     H90794  10.691   7.583   1.363 -1.6529 -2.0771  4.1791
  688MOL0     H90795  10.862   7.569   1.323 -2.9294  3.3638 -1.4960
  688MOL0     H90796  10.657   7.326   1.294  0.1637 -1.6270 -2.5749
  688MOL0     H90797  10.818   7.308   1.274 -3.2649 -4.4714 -1.7817
  688MOL0     H90798  10.498   7.695   2.409  0.9450 -0.2615  0.3094
  688MOL0     H90799  10.321   7.668   2.559  2.5464  1.5337 -2.2130
  688MOL0     H90800   9.971   7.319   2.702 -3.2803 -2.3843 -0.1643
  688MOL0     H90801   9.781   7.271   2.820 -1.3311 -0.8378 -1.3385
  688MOL0     H90802  10.736   7.699   3.535 -1.0967  0.1121  0.9338
  688MOL0     H90803  10.948   7.819   3.523 -0.8372 -4.4029  2.7884
  688MOL0     H90804  11.142   8.250   3.727  0.8965  1.7463 -1.5522
  688MOL0     H90805  11.359   8.385   3.773  0.0317  0.9144 -3.7144
  688MOL0     H90806  11.727   8.195   3.710 -0.8378  1.7343 -0.6165
  688MOL0     H90807  11.729   8.195   3.890 -1.8588 -1.0874 -0.4265
  688MOL0     H90808  11.808   8.441   3.747  0.8614  0.4217  0.1088
  688MOL0     H90809  11.804   8.434   3.912  3.7627 -1.1250  0.7312
  688MOL0     H90810  11.995   8.296   3.721  0.0694  2.3370  0.6596
  688MOL0     H90811  11.951   8.214   3.873  1.5492  2.1404  1.7450
  688MOL0     H90812  12.074   8.483   3.854  5.0392 -2.4610 -0.2270
  688MOL0     H90813  12.025   8.416   4.010  2.3380  2.8304  0.4139
  688MOL0     H90814  12.387   8.218   3.932 -0.4794  0.8187  0.5834
  688MOL0     H90815  11.584   8.026   3.751 -0.2220  0.3833  3.2158
  688MOL0     H90816  11.404   7.903   3.681  2.1939 -0.0115  1.3880
  689MOL0     O90817   0.647   3.029   2.125 -0.2676  0.6417 -0.4854
  689MOL0     C90818   0.603   3.137   2.087 -0.6163 -0.3032 -0.4017
  689MOL0     O90819   0.637   3.199   1.963  0.5636  0.2233  0.2662
  689MOL0     C90820   0.689   3.132   1.854 -0.6568 -0.6586 -1.4312
  689MOL0     C90821   0.672   2.996   1.834  0.1892 -0.2801  0.2278
  689MOL0     C90822   0.730   2.941   1.716  0.7380  0.0504  0.6607
  689MOL0     C90823   0.804   3.011   1.626  0.3465  0.6405 -0.2813
  689MOL0     O90824   0.867   2.949   1.521  0.0807  0.2123 -0.0552
  689MOL0     C90825   0.991   2.895   1.577  0.2212  0.6101  0.8706
  689MOL0     C90826   1.080   2.831   1.463  0.1430 -0.0592  0.0652
  689MOL0     C90827   1.055   2.684   1.407 -0.2394 -1.7480 -0.1556
  689MOL0     C90828   1.020   2.669   1.260  0.7258 -0.0941  0.7604
  689MOL0     C90829   0.886   2.751   1.230 -0.0304 -0.2346  0.0652
  689MOL0     C90830   0.813   2.687   1.114 -0.2172 -0.1981 -0.1889
  689MOL0     C90831   0.686   2.783   1.096  0.1954  0.0744  0.7528
  689MOL0     C90832   0.599   2.718   0.993  0.0060  0.2096  0.7010
  689MOL0     N90833   0.477   2.807   0.965  0.2084 -0.0463  0.1855
  689MOL0     C90834   0.362   2.814   1.042 -0.3135 -0.0784  0.0397
  689MOL0     C90835   0.286   2.916   0.990 -0.3847  0.2109  0.1580
  689MOL0     C90836   0.157   2.960   1.039 -0.0870 -0.5882  0.0943
  689MOL0     C90837   0.175   3.096   1.104 -0.3870  0.0008  0.1875
  689MOL0     C90838   0.257   3.086   1.238  0.0909  0.4305  0.7801
  689MOL0     C90839   0.233   3.206   1.327  0.0988  0.7415  0.8446
  689MOL0     O90840   0.313   3.192   1.441  1.0890  0.3836  0.7882
  689MOL0     C90841   0.334   3.294   1.530  0.2639  0.1185 -0.4185
  689MOL0     C90842   0.392   3.269   1.654 -0.1132  0.4092  0.6833
  689MOL0     C90843   0.400   3.370   1.746  0.1567 -0.5673  0.4713
  689MOL0     C90844   0.349   3.502   1.729 -0.9026 -0.6338  0.2185
  689MOL0     C90845   0.360   3.603   1.842 -0.4574 -0.3156  0.7009
  689MOL0     O90846   0.336   3.736   1.814 -1.0377 -0.4977 -0.3922
  689MOL0     C90847   0.371   3.848   1.895 -0.8543 -0.2416 -0.5684
  689MOL0     C90848   0.330   3.871   2.025  0.4483 -0.4907 -0.4172
  689MOL0     C90849   0.386   3.974   2.100  0.8255  0.6612  0.0337
  689MOL0     C90850   0.496   4.046   2.049  0.2650  0.9133  0.1749
  689MOL0     O90851   0.568   4.122   2.126  0.4642 -0.3339  0.2268
  689MOL0     C90852   0.710   4.116   2.118 -0.4932 -0.1341 -0.1353
  689MOL0     C90853   0.765   4.184   2.250  0.9045  0.2408  0.4418
  689MOL0     C90854   0.711   4.334   2.250  0.4565 -0.0552 -0.2824
  689MOL0     C90855   0.773   4.425   2.363  0.5792  0.1843  0.9391
  689MOL0     C90856   0.673   4.532   2.406 -0.1671  0.6413  0.9680
  689MOL0     C90857   0.604   4.609   2.294  0.1898 -0.3277  0.1209
  689MOL0     C90858   0.480   4.690   2.336  0.1793 -0.1966  0.0274
  689MOL0     C90859   0.362   4.589   2.347  0.4191 -0.2507 -1.4419
  689MOL0    Cl90860   0.210   4.690   2.376 -0.1706  0.1620  0.4109
  689MOL0     C90861   0.525   4.029   1.911 -0.1779  0.4345 -0.3244
  689MOL0     C90862   0.463   3.930   1.843  1.0199 -0.7725 -0.4543
  689MOL0     O90863   0.389   3.563   1.954 -0.0142  0.4507  1.0636
  689MOL0     C90864   0.293   3.530   1.603  0.3073  1.4688  0.6830
  689MOL0     C90865   0.279   3.420   1.510  0.3063 -0.4829 -0.5812
  689MOL0     N90866   0.354   2.979   0.887  0.0211  0.3983  0.2692
  689MOL0     N90867   0.472   2.913   0.876  0.2995  0.1323  0.7033
  689MOL0     C90868   0.810   3.150   1.643  0.3604  0.0793 -0.2684
  689MOL0     C90869   0.747   3.210   1.753 -0.3265 -0.1339  0.0894
  689MOL0     C90870   0.522   3.214   2.185  0.5819  0.3681 -0.8053
  689MOL0     C90871   0.479   3.344   2.153  0.1477 -0.2612  0.3775
  689MOL0     C90872   0.420   3.423   2.242  1.2712 -1.0376 -0.2410
  689MOL0     C90873   0.368   3.374   2.357 -0.5478 -0.1520  0.2995
  689MOL0     O90874   0.309   3.436   2.461 -0.1755 -0.2311  0.2640
  689MOL0     C90875   0.265   3.575   2.462 -0.8638 -0.2171 -0.4018
  689MOL0     C90876   0.274   3.611   2.617 -0.6203  0.6374 -0.4715
  689MOL0     C90877   0.406   3.564   2.686 -0.0788 -0.2660 -0.1889
  689MOL0     C90878   0.432   3.640   2.816  0.1296 -0.4073  0.5196
  689MOL0     C90879   0.536   3.586   2.898  0.3708 -0.4316 -1.2346
  689MOL0     C90880   0.623   3.528   2.961 -0.0573  0.5297  0.0389
  689MOL0     C90881   0.405   3.249   2.401 -0.7485  0.0188  0.2414
  689MOL0     C90882   0.481   3.167   2.320 -1.0137  1.1156  0.2461
  689MOL0     H90883   0.620   2.924   1.897  0.5717 -0.6001  0.1826
  689MOL0     H90884   0.729   2.833   1.702 -0.9028  0.2577 -1.3880
  689MOL0     H90885   0.965   2.826   1.658 -0.6296 -0.0825  0.0305
  689MOL0     H90886   1.046   2.979   1.620  1.5616  0.2690 -0.1105
  689MOL0     H90887   1.178   2.823   1.511 -0.2609  0.2828  0.9690
  689MOL0     H90888   1.080   2.911   1.388 -2.5792  1.3907  1.4947
  689MOL0     H90889   0.960   2.648   1.448 -0.6290 -0.0821  0.4939
  689MOL0     H90890   1.137   2.622   1.443  1.0629  1.3041  2.7526
  689MOL0     H90891   1.109   2.698   1.203 -1.8409  1.1669 -2.9130
  689MOL0     H90892   1.009   2.561   1.244 -0.1014 -0.5145  3.6130
  689MOL0     H90893   0.909   2.854   1.201  0.4220 -1.1723 -3.3849
  689MOL0     H90894   0.820   2.742   1.317  0.1583 -0.2453  0.2064
  689MOL0     H90895   0.788   2.583   1.137 -1.2898  0.0235 -0.3091
  689MOL0     H90896   0.884   2.688   1.031  1.0077  2.8283  0.7626
  689MOL0     H90897   0.632   2.828   1.179  0.2221  0.9017  0.3289
  689MOL0     H90898   0.740   2.866   1.048  0.4539  2.3734  4.6323
  689MOL0     H90899   0.557   2.622   1.025 -0.1753 -0.1713 -0.6224
  689MOL0     H90900   0.652   2.689   0.902 -2.9209 -0.1713 -0.9980
  689MOL0     H90901   0.333   2.750   1.125  0.0869 -0.8888 -0.4354
  689MOL0     H90902   0.104   2.891   1.107 -1.9590  1.0737  0.4216
  689MOL0     H90903   0.092   2.971   0.952  1.5990 -2.1159 -1.4284
  689MOL0     H90904   0.075   3.137   1.120 -1.1105 -2.5639  3.0870
  689MOL0     H90905   0.219   3.161   1.028 -1.0657 -1.9242 -1.9477
  689MOL0     H90906   0.239   2.993   1.294  1.5007  0.4672  1.3370
  689MOL0     H90907   0.364   3.069   1.223 -0.0590  0.6897 -0.7080
  689MOL0     H90908   0.136   3.195   1.376 -1.0007  0.9479 -1.1611
  689MOL0     H90909   0.250   3.302   1.277  0.2805  1.0882  1.5697
  689MOL0     H90910   0.440   3.172   1.658 -2.9821 -1.1437 -0.0012
  689MOL0     H90911   0.445   3.345   1.842 -1.7052  0.4517  1.6745
  689MOL0     H90912   0.250   3.802   2.048  1.5295 -2.1238 -1.3769
  689MOL0     H90913   0.347   3.982   2.201  1.1097 -2.6736  0.5129
  689MOL0     H90914   0.752   4.162   2.028  0.1977  2.0576  1.2397
  689MOL0     H90915   0.737   4.010   2.115 -0.3748 -0.2613  2.8738
  689MOL0     H90916   0.874   4.188   2.244  0.8560  0.8732 -0.1215
  689MOL0     H90917   0.733   4.139   2.345 -1.7423  2.2574  0.6329
  689MOL0     H90918   0.603   4.348   2.239  0.3661 -2.2893 -6.4118
  689MOL0     H90919   0.737   4.374   2.151 -0.9158 -0.2459 -0.7366
  689MOL0     H90920   0.784   4.357   2.448  2.3375  0.4207  0.9478
  689MOL0     H90921   0.865   4.472   2.327 -0.0579  1.4792  0.9576
  689MOL0     H90922   0.722   4.596   2.480  1.8005  0.8403 -0.4227
  689MOL0     H90923   0.597   4.484   2.468 -0.4322  2.6068  2.2469
  689MOL0     H90924   0.565   4.542   2.218 -0.6849 -1.1050  1.2308
  689MOL0     H90925   0.671   4.678   2.241 -0.9707  0.6561 -0.0907
  689MOL0     H90926   0.496   4.736   2.434 -0.8334 -0.5303  0.3585
  689MOL0     H90927   0.462   4.763   2.256 -1.0017  1.3131  1.6026
  689MOL0     H90928   0.369   4.536   2.442 -1.4182 -1.4967 -1.9413
  689MOL0     H90929   0.349   4.519   2.264  0.1521 -2.3762  0.2951
  689MOL0     H90930   0.607   4.077   1.858  0.8605 -2.7759 -1.8612
  689MOL0     H90931   0.516   3.905   1.751  1.1405 -3.1312  0.1929
  689MOL0     H90932   0.242   3.620   1.570  1.9678  2.2685  0.1730
  689MOL0     H90933   0.202   3.427   1.433  1.0987  0.8070 -1.2925
  689MOL0     H90934   0.846   3.217   1.565  0.1021  1.0052  0.3905
  689MOL0     H90935   0.741   3.319   1.758 -2.7942 -0.2079 -0.0413
  689MOL0     H90936   0.497   3.389   2.055  0.5256 -0.8549  0.1679
  689MOL0     H90937   0.405   3.526   2.211  2.8071 -1.3149 -2.0658
  689MOL0     H90938   0.160   3.582   2.434 -1.1450 -1.4046  0.3091
  689MOL0     H90939   0.346   3.632   2.413  1.1191 -2.2509  0.3365
  689MOL0     H90940   0.253   3.717   2.639  0.5415  0.9182 -0.6172
  689MOL0     H90941   0.202   3.562   2.682  0.0606  0.4041  0.1308
  689MOL0     H90942   0.484   3.593   2.615 -0.6515 -1.3503 -1.2936
  689MOL0     H90943   0.409   3.456   2.699 -1.2746 -0.4622 -1.3632
  689MOL0     H90944   0.453   3.744   2.789  0.0041 -0.0708  1.6344
  689MOL0     H90945   0.346   3.636   2.884 -1.0669 -0.8664 -0.9816
  689MOL0     H90946   0.705   3.472   3.001 -1.2364 -1.1439  0.1768
  689MOL0     H90947   0.390   3.199   2.496  3.6762 -2.2158  0.0166
  689MOL0     H90948   0.501   3.062   2.340  2.9705  1.6738 -0.0937
  690MOL0     O90949   6.858  11.190   9.346 -0.3701  0.0771  0.3036
  690MOL0     C90950   6.836  11.134   9.449 -0.4242  0.9884  0.3550
  690MOL0     O90951   6.772  11.197   9.555 -0.3562 -0.0067  0.3772
  690MOL0     C90952   6.763  11.343   9.566 -0.0744  0.5961 -0.2026
  690MOL0     C90953   6.655  11.391   9.640  0.2694 -0.7939 -0.6849
  690MOL0     C90954   6.642  11.530   9.666 -0.3532  0.2681  0.2793
  690MOL0     C90955   6.736  11.620   9.615  1.3774  0.5327 -0.2577
  690MOL0     O90956   6.715  11.747   9.659 -0.5267  0.4795 -0.2474
  690MOL0     C90957   6.821  11.833   9.695  0.3603 -0.3742 -0.7855
  690MOL0     C90958   6.913  11.779   9.804 -0.4843 -0.2575  0.4171
  690MOL0     C90959   6.838  11.727   9.931 -0.4591 -0.1616  0.6677
  690MOL0     C90960   6.784  11.850  10.003  0.1000 -0.6865 -0.1381
  690MOL0     C90961   6.677  11.813  10.108 -0.0835 -0.1676 -0.5815
  690MOL0     C90962   6.583  11.924  10.157 -0.8611  0.0493  0.0817
  690MOL0     C90963   6.540  11.886  10.292  0.1201 -0.2337  0.4877
  690MOL0     C90964   6.436  11.974  10.340  0.3648  0.0143 -0.2468
  690MOL0     N90965   6.391  11.912  10.467  0.2890  0.6586 -0.1261
  690MOL0     C90966   6.467  11.923  10.584  0.4300 -0.3676  0.0251
  690MOL0     C90967   6.388  11.885  10.684 -0.8551 -0.5394  0.3727
  690MOL0     C90968   6.416  11.889  10.824  0.1636  0.6669 -0.2136
  690MOL0     C90969   6.515  11.772  10.853  0.0351  0.9526  0.0571
  690MOL0     C90970   6.444  11.644  10.850  0.9169  0.5480 -0.0910
  690MOL0     C90971   6.539  11.525  10.881 -0.6104  0.2554 -0.4359
  690MOL0     O90972   6.476  11.405  10.929  0.1649 -0.0285  0.0473
  690MOL0     C90973   6.425  11.305  10.852 -0.6414 -0.1630 -0.0974
  690MOL0     C90974   6.425  11.290  10.712 -0.3094  0.5991  1.0665
  690MOL0     C90975   6.389  11.173  10.644 -0.0956  0.8758  0.8613
  690MOL0     C90976   6.362  11.059  10.720 -0.2471  0.6529  0.1691
  690MOL0     C90977   6.341  10.922  10.660  0.2028 -0.5688  1.0747
  690MOL0     O90978   6.343  10.822  10.748  0.2617 -0.4163  0.1400
  690MOL0     C90979   6.282  10.701  10.726  0.0242  0.4126  1.1747
  690MOL0     C90980   6.223  10.654  10.605 -0.9444  0.9136  0.5027
  690MOL0     C90981   6.175  10.524  10.584 -0.4206  0.5978 -0.7138
  690MOL0     C90982   6.192  10.429  10.683 -0.2153 -0.3671  0.4027
  690MOL0     O90983   6.164  10.299  10.648 -0.6515 -0.0341 -0.0303
  690MOL0     C90984   6.068  10.228  10.726  0.2656 -0.0044 -0.3372
  690MOL0     C90985   6.015  10.105  10.656  0.3200 -0.3729 -0.7718
  690MOL0     C90986   5.906  10.031  10.731 -0.4454  0.0896 -0.2120
  690MOL0     C90987   5.823   9.928  10.652  0.5768  0.3644 -0.6636
  690MOL0     C90988   5.723   9.869  10.749 -0.2707  0.7238 -0.9678
  690MOL0     C90989   5.626   9.770  10.684  0.7067 -0.0313  0.2525
  690MOL0     C90990   5.472   9.780  10.713  0.3173  0.5424  0.8104
  690MOL0     C90991   5.434   9.777  10.860  1.1520 -0.6844  0.2368
  690MOL0    Cl90992   5.271   9.740  10.877  0.2283  0.1457 -0.1794
  690MOL0     C90993   6.241  10.470  10.804  0.2914 -0.4533  0.1909
  690MOL0     C90994   6.282  10.597  10.829 -0.8571 -0.0246  0.4074
  690MOL0     O90995   6.321  10.922  10.532  0.0007 -0.1431  0.3696
  690MOL0     C90996   6.348  11.067  10.861 -0.4800 -0.2183 -0.8053
  690MOL0     C90997   6.375  11.191  10.918 -0.8734  0.4800  0.1762
  690MOL0     N90998   6.274  11.841  10.625  1.2346  0.2860 -0.5532
  690MOL0     N90999   6.268  11.857  10.491 -0.0598 -0.5979 -0.3556
  690MOL0     C91000   6.837  11.579   9.530  0.3416  1.0892  0.3915
  690MOL0     C91001   6.857  11.440   9.505  0.0160 -0.1750 -1.1807
  690MOL0     C91002   6.864  10.988   9.446  0.1625 -0.8316 -0.4859
  690MOL0     C91003   6.915  10.915   9.339  0.3836  0.2576  0.3563
  690MOL0     C91004   6.943  10.779   9.349  0.4068 -0.5565  1.1327
  690MOL0     C91005   6.923  10.704   9.463 -0.6264  0.3451  0.2846
  690MOL0     O91006   6.963  10.570   9.483  0.1298  0.6833  0.3410
  690MOL0     C91007   7.015  10.493   9.372 -0.1372 -0.9437 -0.2590
  690MOL0     C91008   7.029  10.338   9.409  0.0056  0.7303 -0.8432
  690MOL0     C91009   7.103  10.313   9.544 -0.2067 -0.2623 -0.0452
  690MOL0     C91010   7.111  10.160   9.574  0.4064 -0.4974  0.5380
  690MOL0     C91011   7.251  10.111   9.567 -0.0056 -0.1138 -0.1880
  690MOL0     C91012   7.361  10.069   9.546  0.0675 -0.0964  0.1107
  690MOL0     C91013   6.846  10.769   9.568 -0.0022  0.0142 -0.3493
  690MOL0     C91014   6.827  10.907   9.564  0.3781  0.5374  0.6748
  690MOL0     H91015   6.585  11.319   9.678  1.3214  0.0183  3.1644
  690MOL0     H91016   6.564  11.559   9.736  1.3000  0.8116  1.9985
  690MOL0     H91017   6.794  11.934   9.727  1.6963  0.3457 -1.8140
  690MOL0     H91018   6.876  11.849   9.602  0.7214  2.3526 -0.1657
  690MOL0     H91019   6.979  11.866   9.818 -0.0895 -0.0613 -2.0797
  690MOL0     H91020   6.965  11.694   9.759 -0.8791 -0.4652  0.3506
  690MOL0     H91021   6.917  11.677   9.989  0.7621  1.5585  0.5610
  690MOL0     H91022   6.757  11.655   9.917  0.3238 -1.2277  1.4859
  690MOL0     H91023   6.868  11.909  10.041 -1.5764  0.5269  1.9088
  690MOL0     H91024   6.745  11.913   9.924 -0.6675 -2.1783 -1.0000
  690MOL0     H91025   6.743  11.790  10.192 -0.7661  2.8814  0.9411
  690MOL0     H91026   6.616  11.723  10.095 -0.6047  0.0503  0.3277
  690MOL0     H91027   6.503  11.936  10.085 -0.8012  0.1052  0.0238
  690MOL0     H91028   6.642  12.016  10.153 -2.8512  1.3226 -1.8688
  690MOL0     H91029   6.502  11.783  10.293  0.8752 -0.5838  3.4721
  690MOL0     H91030   6.624  11.875  10.361  0.6337  0.6427  0.0193
  690MOL0     H91031   6.357  11.986  10.265 -0.7708 -0.7128  0.7979
  690MOL0     H91032   6.464  12.078  10.361  0.2337 -0.2927  1.5630
  690MOL0     H91033   6.572  11.947  10.596  0.4904 -1.9056  4.2855
  690MOL0     H91034   6.328  11.890  10.889  1.6329  3.1635  1.9750
  690MOL0     H91035   6.457  11.989  10.842  3.1108  0.0961 -2.8820
  690MOL0     H91036   6.550  11.800  10.953 -4.0382 -1.2276  2.3644
  690MOL0     H91037   6.596  11.760  10.781 -1.1318  1.1722 -1.3394
  690MOL0     H91038   6.372  11.635  10.932  0.2389  1.2891 -0.5991
  690MOL0     H91039   6.406  11.629  10.749  0.3796  1.3474 -0.0133
  690MOL0     H91040   6.610  11.557  10.958 -0.0326 -0.5686 -0.6039
  690MOL0     H91041   6.599  11.500  10.792  0.5149  1.7821 -0.1391
  690MOL0     H91042   6.467  11.379  10.665  1.4438 -0.0165  1.4105
  690MOL0     H91043   6.388  11.164  10.536 -0.3036 -0.2335  0.9371
  690MOL0     H91044   6.197  10.730  10.532 -0.3248  0.6200 -0.0235
  690MOL0     H91045   6.127  10.486  10.494  4.3149 -0.5328 -3.1116
  690MOL0     H91046   5.984  10.295  10.748 -0.0099  0.1778 -1.8374
  690MOL0     H91047   6.106  10.198  10.824 -0.6818  0.4045  0.1727
  690MOL0     H91048   6.103  10.043  10.639  0.2319  0.2130 -3.9702
  690MOL0     H91049   5.978  10.143  10.560  3.0883  1.2499 -1.3126
  690MOL0     H91050   5.836  10.110  10.761 -0.4227  0.9188 -2.1637
  690MOL0     H91051   5.947   9.985  10.821 -1.7309  1.1369  0.9659
  690MOL0     H91052   5.776   9.977  10.566 -1.5097  0.3945  0.4358
  690MOL0     H91053   5.893   9.855  10.611  0.3750  0.0408 -0.4340
  690MOL0     H91054   5.675   9.953  10.800 -0.1942 -0.2380  0.7437
  690MOL0     H91055   5.783   9.830  10.831 -0.6637  2.1809  0.0453
  690MOL0     H91056   5.653   9.667  10.707 -0.5563 -1.2622 -3.1865
  690MOL0     H91057   5.636   9.776  10.575 -1.6513  1.4495  0.0470
  690MOL0     H91058   5.432   9.865  10.657  1.3590 -0.2373 -1.2603
  690MOL0     H91059   5.425   9.697  10.658  2.0688 -1.3672  2.0243
  690MOL0     H91060   5.448   9.868  10.919  1.0120 -0.5116  0.0011
  690MOL0     H91061   5.495   9.698  10.905  0.9748 -1.6229 -1.1156
  690MOL0     H91062   6.252  10.392  10.879 -0.9864  0.2967  1.1931
  690MOL0     H91063   6.333  10.627  10.920  0.5140  2.3038 -1.0082
  690MOL0     H91064   6.314  10.986  10.925  0.3694  0.4046  0.4703
  690MOL0     H91065   6.362  11.200  11.026 -0.8008 -1.9510  0.4465
  690MOL0     H91066   6.914  11.647   9.495  0.9721  0.9584  1.5110
  690MOL0     H91067   6.942  11.406   9.446 -0.0399 -2.0934 -0.2154
  690MOL0     H91068   6.927  10.955   9.238 -1.8650  2.7575  0.9463
  690MOL0     H91069   6.981  10.735   9.257  0.0191 -1.8789  1.5839
  690MOL0     H91070   7.105  10.551   9.352  0.3460 -0.9716  1.6380
  690MOL0     H91071   6.953  10.504   9.282  1.9243 -2.8229 -2.0477
  690MOL0     H91072   6.931  10.291   9.426  0.6989 -0.8585 -1.0717
  690MOL0     H91073   7.076  10.277   9.332 -0.5907 -1.3964  0.4019
  690MOL0     H91074   7.042  10.357   9.624 -0.8760  0.8647 -1.1353
  690MOL0     H91075   7.208  10.345   9.543  0.1742 -1.4082  0.8227
  690MOL0     H91076   7.076  10.149   9.678 -0.2311  0.2260  0.4155
  690MOL0     H91077   7.042  10.099   9.516  0.7157  1.1240 -1.6380
  690MOL0     H91078   7.444  10.028   9.491  1.6635 -0.7217  2.8302
  690MOL0     H91079   6.803  10.723   9.656 -2.4899  0.1603 -1.4228
  690MOL0     H91080   6.766  10.947   9.644 -0.3872 -4.2565  2.8334
  691MOL0     O91081   9.455   4.312   0.249  0.2772 -0.3278 -0.0154
  691MOL0     C91082   9.362   4.249   0.190 -1.0246  0.0386  0.5168
  691MOL0     O91083   9.314   4.123   0.211 -0.7355  1.1249  0.6225
  691MOL0     C91084   9.377   4.055   0.314 -0.1751  0.0424 -0.2039
  691MOL0     C91085   9.510   4.002   0.307 -0.8655 -0.4236 -0.4591
  691MOL0     C91086   9.565   3.910   0.397  0.1642 -1.3747  0.6754
  691MOL0     C91087   9.494   3.872   0.517  0.5407 -0.5293  0.6617
  691MOL0     O91088   9.554   3.781   0.606 -0.3831  0.1077 -0.5707
  691MOL0     C91089   9.571   3.818   0.748  0.3124  0.1514 -0.4383
  691MOL0     C91090   9.724   3.786   0.785  0.8505 -1.0357 -0.2835
  691MOL0     C91091   9.759   3.849   0.928  0.5247  0.7391 -0.3552
  691MOL0     C91092   9.898   3.803   0.965  0.5433 -0.5037  0.7452
  691MOL0     C91093   9.914   3.674   1.045 -0.4772 -0.3861  0.6665
  691MOL0     C91094  10.014   3.587   0.994 -0.7612 -0.3266 -0.2395
  691MOL0     C91095   9.991   3.436   1.024  0.2317 -0.2577  0.1104
  691MOL0     C91096  10.013   3.404   1.167 -1.5133 -0.2415 -0.4125
  691MOL0     N91097   9.953   3.266   1.190  0.6860 -0.3016  0.8635
  691MOL0     C91098   9.843   3.252   1.271  0.7066 -0.3682  0.0424
  691MOL0     C91099   9.802   3.127   1.259 -0.6634  0.1706 -0.1294
  691MOL0     C91100   9.697   3.065   1.346  0.3671 -0.0730  0.1401
  691MOL0     C91101   9.729   3.051   1.505 -0.1930 -0.4207  0.6868
  691MOL0     C91102   9.874   2.998   1.539 -0.1683  1.0592 -0.6913
  691MOL0     C91103   9.918   3.011   1.691  0.3765 -0.1164 -0.2519
  691MOL0     O91104   9.910   3.150   1.719 -0.3948 -0.4519  0.0139
  691MOL0     C91105   9.889   3.170   1.854 -0.2091  0.5170  1.0496
  691MOL0     C91106   9.764   3.207   1.901  0.3161 -0.3084  0.4981
  691MOL0     C91107   9.726   3.197   2.030 -0.7115  0.3525  0.8073
  691MOL0     C91108   9.827   3.170   2.125  0.1855 -0.6150 -1.5369
  691MOL0     C91109   9.795   3.166   2.268  1.1681 -0.5850  0.7596
  691MOL0     O91110   9.664   3.186   2.307  0.0442 -0.9416  0.0132
  691MOL0     C91111   9.647   3.258   2.424  0.7958 -0.4008 -0.1866
  691MOL0     C91112   9.727   3.368   2.456 -0.0357  0.2929  0.0999
  691MOL0     C91113   9.729   3.431   2.576  0.8691 -0.4911  0.1855
  691MOL0     C91114   9.631   3.391   2.682 -0.3518 -0.9688 -0.0949
  691MOL0     O91115   9.617   3.469   2.802 -0.9233  0.1335 -0.0042
  691MOL0     C91116   9.581   3.404   2.925  0.3879 -0.8635  0.8636
  691MOL0     C91117   9.625   3.506   3.029  0.3565  0.7292  0.3565
  691MOL0     C91118   9.553   3.475   3.152 -0.0804  1.1419 -0.4384
  691MOL0     C91119   9.595   3.571   3.269  0.0498  0.4556 -0.0245
  691MOL0     C91120   9.552   3.516   3.402 -0.2113 -0.0154  0.4910
  691MOL0     C91121   9.645   3.548   3.520 -0.4875 -0.0210  0.6698
  691MOL0     C91122   9.792   3.486   3.507  0.0598 -0.1641  0.7390
  691MOL0     C91123   9.873   3.521   3.628  0.5654  0.3231 -0.1383
  691MOL0    Cl91124   9.781   3.468   3.778 -0.3884  0.4977 -0.4292
  691MOL0     C91125   9.548   3.285   2.647 -0.3416 -0.7046  0.7496
  691MOL0     C91126   9.557   3.220   2.517 -0.2858 -0.9106 -1.4608
  691MOL0     O91127   9.887   3.154   2.347 -0.1031  0.5220  0.7454
  691MOL0     C91128   9.956   3.141   2.079  0.5351  1.0176  0.2641
  691MOL0     C91129   9.991   3.152   1.950 -0.0452 -1.0359 -0.3978
  691MOL0     N91130   9.902   3.058   1.182 -0.2604 -0.3189  1.2178
  691MOL0     N91131   9.976   3.145   1.124  0.6325  0.5148  0.3721
  691MOL0     C91132   9.358   3.922   0.521  0.2897  1.1681  0.2646
  691MOL0     C91133   9.305   4.013   0.429 -0.0562  0.2511  0.2025
  691MOL0     C91134   9.284   4.326   0.082 -0.9515  0.0449  0.2240
  691MOL0     C91135   9.342   4.447   0.049 -0.9237  0.3873  0.1537
  691MOL0     C91136   9.285   4.533  -0.045 -1.1118  0.1267 -0.6167
  691MOL0     C91137   9.174   4.490  -0.109  1.7283 -0.3203  0.3565
  691MOL0     O91138   9.103   4.590  -0.179 -0.5320  0.0019 -0.1335
  691MOL0     C91139   8.971   4.576  -0.230 -0.4418 -0.4501  0.4953
  691MOL0     C91140   8.862   4.632  -0.137  0.5380 -0.3000  0.3048
  691MOL0     C91141   8.727   4.627  -0.200  0.8105  0.1307 -1.0818
  691MOL0     C91142   8.690   4.713  -0.318 -0.0163 -0.0737  0.0567
  691MOL0     C91143   8.722   4.849  -0.281 -0.4816 -0.0231 -0.3574
  691MOL0     C91144   8.772   4.947  -0.242 -1.0944 -0.8068 -0.9555
  691MOL0     C91145   9.112   4.370  -0.080 -0.6156 -0.2315  0.3629
  691MOL0     C91146   9.173   4.284   0.008  1.6972  0.1241  0.3661
  691MOL0     H91147   9.574   4.024   0.222 -1.6080  1.5608 -0.5485
  691MOL0     H91148   9.651   3.851   0.368  0.8964  0.5457 -1.2636
  691MOL0     H91149   9.498   3.773   0.817 -0.2012 -2.0349 -2.2980
  691MOL0     H91150   9.542   3.923   0.763  0.9932  0.1045  1.5832
  691MOL0     H91151   9.780   3.829   0.702  1.3163  0.0464  0.5641
  691MOL0     H91152   9.733   3.678   0.802  1.9633 -0.6517  2.1147
  691MOL0     H91153   9.682   3.820   1.000  1.5337  1.1078  0.9215
  691MOL0     H91154   9.748   3.958   0.930  0.7180  0.7502  1.1631
  691MOL0     H91155   9.954   3.781   0.874  0.1687 -0.0050  0.3937
  691MOL0     H91156   9.949   3.882   1.020  0.9985  0.7790 -1.3979
  691MOL0     H91157   9.821   3.618   1.053  0.0981 -1.3394  0.8069
  691MOL0     H91158   9.926   3.702   1.150  3.1354 -0.3882  0.3766
  691MOL0     H91159  10.113   3.606   1.036 -0.8410 -1.4505  0.4963
  691MOL0     H91160  10.024   3.592   0.885  2.4510  1.7751  0.0128
  691MOL0     H91161   9.891   3.410   0.987 -0.8785 -1.3886  3.5569
  691MOL0     H91162  10.057   3.372   0.965  0.2663 -0.9853  0.9366
  691MOL0     H91163   9.977   3.481   1.236 -0.9479 -1.9580  1.9274
  691MOL0     H91164  10.122   3.401   1.179 -1.3631  0.7525 -1.3380
  691MOL0     H91165   9.788   3.332   1.319  1.9051 -0.5994  1.9049
  691MOL0     H91166   9.669   2.972   1.297  0.2800  0.8017 -1.5210
  691MOL0     H91167   9.601   3.117   1.337 -1.4005 -3.4395 -2.5869
  691MOL0     H91168   9.652   2.990   1.553  0.4916 -0.3537  1.9001
  691MOL0     H91169   9.709   3.154   1.537  0.1259  0.8132 -2.5934
  691MOL0     H91170   9.885   2.891   1.518  3.3906  1.8530 -3.9807
  691MOL0     H91171   9.942   3.041   1.465 -0.2033 -0.1381 -1.4450
  691MOL0     H91172  10.019   2.973   1.706 -0.4545 -2.9713 -1.2375
  691MOL0     H91173   9.845   2.961   1.756  0.3112 -1.0563 -1.0281
  691MOL0     H91174   9.683   3.223   1.830  0.3719 -1.8199  0.0501
  691MOL0     H91175   9.622   3.215   2.058 -1.9179 -0.7652 -2.4751
  691MOL0     H91176   9.806   3.402   2.390 -0.3026  0.2896 -0.2217
  691MOL0     H91177   9.795   3.517   2.588  0.7292 -0.5123  1.2567
  691MOL0     H91178   9.634   3.309   2.934  0.9882 -0.9082 -2.0508
  691MOL0     H91179   9.473   3.383   2.922 -0.3618  2.5376  0.1124
  691MOL0     H91180   9.610   3.612   3.007  2.1411  1.2150  1.3389
  691MOL0     H91181   9.731   3.483   3.040 -0.0837 -2.1320 -0.4627
  691MOL0     H91182   9.574   3.371   3.179  0.2068  1.0083 -1.1351
  691MOL0     H91183   9.446   3.479   3.131 -0.1335 -1.0349 -0.7679
  691MOL0     H91184   9.704   3.577   3.265  0.1347 -1.1904 -1.2113
  691MOL0     H91185   9.564   3.675   3.255 -1.9295  0.3321  2.6390
  691MOL0     H91186   9.538   3.407   3.404  4.1323 -0.8256 -1.8160
  691MOL0     H91187   9.455   3.564   3.416  0.8383  1.8122  1.9267
  691MOL0     H91188   9.591   3.504   3.604  0.0044  1.6362  1.8880
  691MOL0     H91189   9.653   3.657   3.527 -0.9309  0.1891 -1.4115
  691MOL0     H91190   9.782   3.377   3.505 -0.5593 -0.1164  1.0591
  691MOL0     H91191   9.835   3.539   3.421  0.4931  2.8598  2.6677
  691MOL0     H91192   9.892   3.629   3.623  1.5617  0.0889 -2.4490
  691MOL0     H91193   9.969   3.469   3.631  1.6917  2.2715 -0.5101
  691MOL0     H91194   9.490   3.241   2.727 -1.1848  1.1718  1.2196
  691MOL0     H91195   9.502   3.127   2.508 -0.2223 -0.8499 -2.6142
  691MOL0     H91196  10.033   3.113   2.150 -0.6093  1.4742  1.7527
  691MOL0     H91197  10.089   3.118   1.918  1.1115  1.5717  0.0927
  691MOL0     H91198   9.286   3.896   0.599  2.4893 -2.0391  1.4160
  691MOL0     H91199   9.205   4.052   0.440 -0.2578 -0.7254  2.3775
  691MOL0     H91200   9.433   4.488   0.091 -1.7306  1.6790  0.7061
  691MOL0     H91201   9.339   4.627  -0.050  1.8684 -1.3283  1.2819
  691MOL0     H91202   8.948   4.479  -0.275  1.5534 -0.0576 -1.5277
  691MOL0     H91203   8.968   4.644  -0.315 -1.7812 -0.6997  0.3134
  691MOL0     H91204   8.850   4.583  -0.040 -5.9689  2.6433  1.5479
  691MOL0     H91205   8.887   4.738  -0.121  1.3095 -0.1754 -1.5301
  691MOL0     H91206   8.650   4.662  -0.130  1.3832  2.4565 -1.5354
  691MOL0     H91207   8.711   4.521  -0.224 -1.9691  0.5881 -1.6091
  691MOL0     H91208   8.755   4.695  -0.404  0.0280  2.9699 -0.6496
  691MOL0     H91209   8.583   4.709  -0.343 -0.1658  0.9989  0.4699
  691MOL0     H91210   8.812   5.039  -0.204 -2.2087  1.2340 -4.2962
  691MOL0     H91211   9.013   4.346  -0.119 -1.5128 -0.6807  2.7821
  691MOL0     H91212   9.135   4.186   0.031  2.7366 -1.1188 -2.6423
  692MOL0     O91213   1.172   5.927   0.953 -0.6206  0.0627  0.4915
  692MOL0     C91214   1.187   5.810   0.924  0.5992  0.1884 -0.2727
  692MOL0     O91215   1.181   5.756   0.804 -1.3172  0.2372  0.6123
  692MOL0     C91216   1.123   5.822   0.706 -1.3952 -0.9083  0.4348
  692MOL0     C91217   1.175   5.939   0.654 -0.6639 -0.3780  1.0208
  692MOL0     C91218   1.105   6.022   0.566  0.9229  0.6346  0.0756
  692MOL0     C91219   0.980   5.979   0.527 -0.3535 -1.4324  0.6193
  692MOL0     O91220   0.896   6.055   0.451  0.4976  0.2249 -0.4250
  692MOL0     C91221   0.869   6.177   0.508  0.2042 -0.0495  0.6552
  692MOL0     C91222   0.714   6.195   0.518  0.2387  0.0307 -0.3459
  692MOL0     C91223   0.658   6.081   0.611  0.1246 -0.9695  0.1700
  692MOL0     C91224   0.505   6.113   0.627 -0.1810 -0.1502 -0.2426
  692MOL0     C91225   0.432   5.986   0.669 -0.5180 -0.0346  0.7759
  692MOL0     C91226   0.481   5.914   0.792 -0.1254 -0.0122 -0.5416
  692MOL0     C91227   0.406   5.795   0.843  0.7082 -0.7010  0.1011
  692MOL0     C91228   0.391   5.692   0.727  0.1952  0.6242  0.1449
  692MOL0     N91229   0.522   5.634   0.692 -0.9194  0.3568 -0.0013
  692MOL0     C91230   0.570   5.523   0.757  0.9306  1.3821 -0.2335
  692MOL0     C91231   0.669   5.484   0.679  0.1310 -0.3209  0.2709
  692MOL0     C91232   0.722   5.347   0.685 -0.5991  0.9722  0.0066
  692MOL0     C91233   0.814   5.340   0.809  0.2087 -0.0853  0.1987
  692MOL0     C91234   0.887   5.209   0.800  0.3409  0.7012 -0.6285
  692MOL0     C91235   1.006   5.202   0.886 -0.3197 -0.3356  0.0394
  692MOL0     O91236   1.085   5.096   0.835 -0.6052 -0.0486  0.4038
  692MOL0     C91237   1.195   5.041   0.908  0.2284 -0.1934  0.1231
  692MOL0     C91238   1.284   4.957   0.837  0.4164  0.9686 -1.0299
  692MOL0     C91239   1.392   4.907   0.909 -0.2388 -0.0772 -0.2438
  692MOL0     C91240   1.416   4.956   1.041  0.0271 -1.0829 -0.3581
  692MOL0     C91241   1.530   4.909   1.117 -0.5144  0.6576  0.2517
  692MOL0     O91242   1.535   4.775   1.128 -0.5858  0.8683  0.4640
  692MOL0     C91243   1.653   4.722   1.184 -0.7664 -0.0356 -0.3141
  692MOL0     C91244   1.661   4.636   1.297  0.6072  0.0262  0.5271
  692MOL0     C91245   1.785   4.584   1.338 -0.3368 -0.4030  0.6113
  692MOL0     C91246   1.895   4.607   1.258  0.3906 -0.4801  0.3055
  692MOL0     O91247   2.021   4.566   1.301 -0.1284 -0.0999 -0.9434
  692MOL0     C91248   2.023   4.428   1.340  0.6195 -0.6136  0.6552
  692MOL0     C91249   2.052   4.404   1.481  0.5528  0.4050 -0.9851
  692MOL0     C91250   2.006   4.261   1.538  0.6587 -0.2800  0.0068
  692MOL0     C91251   2.070   4.154   1.451 -0.3135  0.0772 -0.5539
  692MOL0     C91252   2.063   4.027   1.523 -0.4267  0.4753 -0.4041
  692MOL0     C91253   1.929   3.948   1.507  0.9688 -0.1243  0.1427
  692MOL0     C91254   1.931   3.794   1.536  0.1981  0.5825 -0.2537
  692MOL0     C91255   2.000   3.712   1.423  0.7508 -0.2386 -0.3186
  692MOL0    Cl91256   2.119   3.593   1.484  0.1057 -0.2225  0.7707
  692MOL0     C91257   1.893   4.682   1.137  0.3331  0.4294 -0.3025
  692MOL0     C91258   1.770   4.735   1.104 -0.8518 -0.5692  0.3731
  692MOL0     O91259   1.629   4.986   1.143 -0.4932  0.3833 -0.1964
  692MOL0     C91260   1.329   5.044   1.109  0.7000 -0.4976 -0.0212
  692MOL0     C91261   1.222   5.091   1.040  0.0639  1.2912  0.2320
  692MOL0     N91262   0.687   5.581   0.579  1.1051  0.1629 -0.4084
  692MOL0     N91263   0.592   5.658   0.582 -0.2099  0.1908  0.1784
  692MOL0     C91264   0.928   5.861   0.575  0.1347 -0.3838 -0.0365
  692MOL0     C91265   1.002   5.778   0.661  0.2559 -0.0178  0.0088
  692MOL0     C91266   1.222   5.715   1.037 -0.3868 -0.1651 -0.4105
  692MOL0     C91267   1.268   5.759   1.163  0.0724 -0.1642  0.4990
  692MOL0     C91268   1.301   5.667   1.263  0.4879 -0.0546  0.9083
  692MOL0     C91269   1.313   5.535   1.239 -0.8400 -0.3077 -1.0328
  692MOL0     O91270   1.355   5.451   1.344 -0.3707  0.1637 -0.5046
  692MOL0     C91271   1.487   5.394   1.322 -0.1455  0.6789 -0.0242
  692MOL0     C91272   1.510   5.271   1.420  0.0304 -0.0688 -0.1605
  692MOL0     C91273   1.592   5.326   1.541  0.6634  0.4106 -0.7088
  692MOL0     C91274   1.595   5.221   1.655 -0.5231 -0.0390 -0.0393
  692MOL0     C91275   1.711   5.243   1.749 -0.2496 -0.0676 -0.3569
  692MOL0     C91276   1.805   5.271   1.817 -0.5362  0.0003  0.4282
  692MOL0     C91277   1.286   5.490   1.116  0.0175 -0.1143 -0.5962
  692MOL0     C91278   1.237   5.575   1.011  0.1198  0.0965 -0.6038
  692MOL0     H91279   1.270   5.973   0.693  1.5953 -2.0871 -2.4487
  692MOL0     H91280   1.145   6.118   0.534  1.6369  0.2460 -0.2314
  692MOL0     H91281   0.913   6.248   0.438 -0.3951  0.5787  0.9069
  692MOL0     H91282   0.908   6.192   0.609 -1.8486  1.2351  1.3216
  692MOL0     H91283   0.661   6.188   0.423 -1.0977 -1.1486  0.4414
  692MOL0     H91284   0.682   6.287   0.569 -0.2645 -0.6884  0.6700
  692MOL0     H91285   0.712   6.079   0.706 -0.9639  0.2076  0.8363
  692MOL0     H91286   0.666   5.979   0.573  0.1235 -0.7479 -0.4330
  692MOL0     H91287   0.498   6.196   0.698 -0.7137 -0.6048  0.2564
  692MOL0     H91288   0.451   6.147   0.538  0.5568  0.2752 -0.5320
  692MOL0     H91289   0.447   5.926   0.580  1.1008  4.0485 -2.0026
  692MOL0     H91290   0.328   6.019   0.675 -1.4846 -2.5153 -0.9695
  692MOL0     H91291   0.480   5.978   0.881  4.4046  2.2042 -1.8191
  692MOL0     H91292   0.583   5.880   0.775 -0.3596 -0.4035 -1.2188
  692MOL0     H91293   0.447   5.754   0.936  0.5565 -1.9813 -0.3730
  692MOL0     H91294   0.305   5.829   0.866  0.9882 -0.2099  0.6188
  692MOL0     H91295   0.344   5.734   0.637  1.2009  0.4082 -0.4983
  692MOL0     H91296   0.315   5.617   0.752  0.7539 -0.6821 -1.8504
  692MOL0     H91297   0.530   5.478   0.847 -0.1976 -0.2905 -1.5207
  692MOL0     H91298   0.770   5.325   0.589  4.5239  2.6482  1.8516
  692MOL0     H91299   0.648   5.268   0.703  1.5193 -0.2876  4.9209
  692MOL0     H91300   0.761   5.348   0.904 -0.3811  3.9485 -0.2723
  692MOL0     H91301   0.885   5.423   0.800 -3.5555  3.4968  0.7048
  692MOL0     H91302   0.828   5.118   0.813  0.9246  0.1533 -1.7110
  692MOL0     H91303   0.926   5.208   0.698  1.0512 -0.1907 -0.3672
  692MOL0     H91304   0.966   5.192   0.987 -3.0265 -1.2786 -1.0102
  692MOL0     H91305   1.055   5.299   0.880 -0.8217 -0.0735  0.0895
  692MOL0     H91306   1.270   4.904   0.743  1.3292 -1.8197  0.2887
  692MOL0     H91307   1.443   4.828   0.855 -2.7686  0.1608 -3.2361
  692MOL0     H91308   1.572   4.622   1.357 -2.6367 -0.6506 -3.9242
  692MOL0     H91309   1.793   4.535   1.435  3.9509  1.4763  1.4101
  692MOL0     H91310   2.099   4.372   1.283  0.5256 -2.6204  2.3877
  692MOL0     H91311   1.926   4.385   1.312 -1.1267  3.0005  0.6108
  692MOL0     H91312   1.988   4.475   1.534 -1.6981 -1.9432 -0.3440
  692MOL0     H91313   2.158   4.427   1.498  0.4230 -1.1117  3.4404
  692MOL0     H91314   1.897   4.254   1.527  0.7035 -1.4272  0.1568
  692MOL0     H91315   2.034   4.236   1.640  1.0581 -3.4767 -0.7709
  692MOL0     H91316   2.017   4.155   1.356 -1.9558 -0.7505  0.3035
  692MOL0     H91317   2.176   4.171   1.432 -0.1032  0.3919  0.7429
  692MOL0     H91318   2.086   4.025   1.630  2.7543  1.3217 -0.9650
  692MOL0     H91319   2.137   3.958   1.482  0.4958  0.4897  1.1265
  692MOL0     H91320   1.881   3.943   1.409 -0.0767 -2.3641  0.7018
  692MOL0     H91321   1.866   3.998   1.581 -0.5884 -1.3155 -0.3190
  692MOL0     H91322   1.993   3.782   1.626  0.6954 -0.2205 -0.6941
  692MOL0     H91323   1.829   3.760   1.556  0.8372 -2.7820 -2.0409
  692MOL0     H91324   2.046   3.779   1.350 -0.8773 -1.4727 -2.6083
  692MOL0     H91325   1.930   3.659   1.358  1.3121 -2.8285  1.0475
  692MOL0     H91326   1.979   4.711   1.077  0.8459  3.7741  1.7874
  692MOL0     H91327   1.781   4.815   1.031 -0.0041 -0.3931  0.6862
  692MOL0     H91328   1.343   5.078   1.211 -0.2851  1.7000 -0.5738
  692MOL0     H91329   1.155   5.156   1.096  0.8865  0.3606  2.4040
  692MOL0     H91330   0.824   5.835   0.559  0.0552 -0.1201  0.0376
  692MOL0     H91331   0.955   5.696   0.715  0.0646  0.9896  1.4320
  692MOL0     H91332   1.259   5.866   1.183  0.6759 -0.2308  1.1972
  692MOL0     H91333   1.324   5.703   1.362 -2.4339  1.8948  0.9892
  692MOL0     H91334   1.563   5.473   1.328  0.0674  0.5135 -0.4631
  692MOL0     H91335   1.486   5.350   1.222  1.9216 -1.4269  0.7942
  692MOL0     H91336   1.415   5.231   1.457  0.2496 -0.2653  0.1856
  692MOL0     H91337   1.567   5.191   1.372  0.0127 -1.2078  1.6512
  692MOL0     H91338   1.541   5.419   1.568 -1.7072 -0.2232 -2.6600
  692MOL0     H91339   1.695   5.348   1.511  0.8639 -1.1514 -1.2833
  692MOL0     H91340   1.495   5.218   1.700 -1.3925  1.1685 -1.8032
  692MOL0     H91341   1.626   5.127   1.608 -0.4522  1.6589 -3.6491
  692MOL0     H91342   1.876   5.296   1.893 -3.1115  1.8816  2.3769
  692MOL0     H91343   1.300   5.385   1.089  0.1854 -1.0628  2.7260
  692MOL0     H91344   1.224   5.537   0.910 -2.3687 -1.3897  0.1886
  693MOL0     O91345   0.939   9.607   5.178  0.2292 -0.2590 -0.7415
  693MOL0     C91346   0.929   9.716   5.126 -0.0843 -0.3918 -0.3642
  693MOL0     O91347   0.816   9.778   5.118 -0.0512 -0.6218 -0.1389
  693MOL0     C91348   0.690   9.734   5.142  0.5439  0.5549 -0.9590
  693MOL0     C91349   0.653   9.601   5.151 -0.4311  0.2072  0.2263
  693MOL0     C91350   0.515   9.567   5.167  0.3202  0.0883  0.2188
  693MOL0     C91351   0.415   9.658   5.156  0.0320 -0.7497  0.2399
  693MOL0     O91352   0.287   9.629   5.166  0.6620  0.3475 -0.4239
  693MOL0     C91353   0.222   9.552   5.067 -0.4733  0.0373 -0.4702
  693MOL0     C91354   0.135   9.641   4.985 -0.1685 -0.3210  0.8304
  693MOL0     C91355   0.041   9.559   4.899  0.7119 -0.4037  0.3311
  693MOL0     C91356   0.122   9.467   4.804  0.1881 -0.0136 -0.3829
  693MOL0     C91357   0.044   9.376   4.705  0.3541 -0.3251 -0.0035
  693MOL0     C91358   0.136   9.288   4.617  0.2918  0.3133  1.2539
  693MOL0     C91359   0.226   9.376   4.532  0.2722 -0.5397 -0.7460
  693MOL0     C91360   0.317   9.312   4.427  0.1894  0.2536 -0.4776
  693MOL0     N91361   0.422   9.416   4.399 -0.3640 -0.4774 -1.3018
  693MOL0     C91362   0.541   9.413   4.468  0.0995  0.6827  0.2807
  693MOL0     C91363   0.599   9.531   4.430 -0.3784  0.2394  0.3501
  693MOL0     C91364   0.733   9.572   4.471  0.4024 -0.2033 -0.7752
  693MOL0     C91365   0.823   9.609   4.350 -0.1662  1.3061  0.7769
  693MOL0     C91366   0.938   9.689   4.402  0.1999 -0.2888 -0.4390
  693MOL0     C91367   1.038   9.725   4.295 -0.1522  0.3105  0.2080
  693MOL0     O91368   1.091   9.607   4.241 -0.0405  0.1060  0.1009
  693MOL0     C91369   1.169   9.616   4.122 -0.0502 -0.8472  0.0968
  693MOL0     C91370   1.211   9.740   4.057  0.1496 -0.0068 -0.5184
  693MOL0     C91371   1.282   9.736   3.937 -0.4915  0.9089  0.3651
  693MOL0     C91372   1.328   9.615   3.887  1.0577 -0.8995  0.8793
  693MOL0     C91373   1.425   9.609   3.776 -0.0244 -0.2631 -0.0113
  693MOL0     O91374   1.437   9.496   3.706  0.7769  0.0947  0.7116
  693MOL0     C91375   1.560   9.477   3.659 -0.2753 -0.2406  0.9879
  693MOL0     C91376   1.642   9.383   3.733 -0.6332 -0.5702  0.2624
  693MOL0     C91377   1.753   9.332   3.660 -0.3443  0.5909 -0.5910
  693MOL0     C91378   1.786   9.367   3.532  0.8379 -0.0576  1.1975
  693MOL0     O91379   1.882   9.296   3.469 -0.2335  0.3016 -0.1871
  693MOL0     C91380   1.908   9.315   3.325 -0.7059  0.1173 -0.0524
  693MOL0     C91381   2.011   9.216   3.263  0.0271 -0.0881 -0.3248
  693MOL0     C91382   1.983   9.068   3.301  0.1454 -0.3110 -0.2681
  693MOL0     C91383   2.048   8.969   3.220  0.3980  0.1926 -0.4459
  693MOL0     C91384   2.187   8.956   3.252 -0.7610 -0.2689  0.3252
  693MOL0     C91385   2.257   8.871   3.141 -0.3131 -0.0678  0.2529
  693MOL0     C91386   2.285   8.963   3.005 -1.1361  0.5638 -0.7062
  693MOL0     C91387   2.411   8.908   2.930 -0.2138  0.5199 -0.0280
  693MOL0    Cl91388   2.557   8.973   3.002  0.1097  0.2416  0.2622
  693MOL0     C91389   1.703   9.460   3.465  0.1120 -0.4117 -0.3983
  693MOL0     C91390   1.586   9.514   3.527 -0.3920  0.4535 -0.3764
  693MOL0     O91391   1.509   9.697   3.782  0.4862 -0.1359  0.0975
  693MOL0     C91392   1.282   9.493   3.950  0.4035 -0.7356 -0.2860
  693MOL0     C91393   1.197   9.495   4.068 -1.1461 -0.5838 -0.4071
  693MOL0     N91394   0.512   9.600   4.345 -0.8663  0.2486 -0.1013
  693MOL0     N91395   0.395   9.536   4.342  0.0942 -0.6181  0.0006
  693MOL0     C91396   0.450   9.793   5.146  0.0418  0.8649  0.2253
  693MOL0     C91397   0.583   9.828   5.147  1.2341 -0.6074 -0.8106
  693MOL0     C91398   1.052   9.795   5.092  0.1008  0.1044  1.0483
  693MOL0     C91399   1.050   9.918   5.022  0.0140  1.9680  0.3358
  693MOL0     C91400   1.169   9.979   4.989  0.0902  0.7842 -0.3466
  693MOL0     C91401   1.297   9.920   5.010  0.1689 -0.2014  1.1388
  693MOL0     O91402   1.413   9.976   4.973  0.0374  0.5528  0.7961
  693MOL0     C91403   1.409  10.109   4.912 -0.6499 -0.6697  0.3658
  693MOL0     C91404   1.384  10.224   5.015  0.2495  0.1335  0.8992
  693MOL0     C91405   1.499  10.230   5.121  0.2378  0.3132 -0.0773
  693MOL0     C91406   1.637  10.250   5.051  0.1237 -0.4990 -0.5146
  693MOL0     C91407   1.738  10.275   5.159  0.9724  0.7353 -0.3556
  693MOL0     C91408   1.817  10.291   5.253 -0.3274 -0.7217 -0.0567
  693MOL0     C91409   1.301   9.810   5.094 -0.7110 -0.7010  0.4922
  693MOL0     C91410   1.186   9.749   5.126  0.5183 -0.2016  0.5223
  693MOL0     H91411   0.731   9.526   5.160 -1.2703 -0.5672  1.3136
  693MOL0     H91412   0.492   9.461   5.168  2.4604 -0.4306 -0.3430
  693MOL0     H91413   0.150   9.485   5.115  0.6244 -1.7098 -1.1440
  693MOL0     H91414   0.286   9.488   5.005 -0.9108 -1.8212  0.8891
  693MOL0     H91415   0.194   9.705   4.918 -0.9355 -1.1592 -0.7044
  693MOL0     H91416   0.086   9.710   5.054  2.4006  3.8565 -1.1301
  693MOL0     H91417  -0.029   9.613   4.835 -0.0592 -3.3942 -1.5295
  693MOL0     H91418  -0.019   9.493   4.962 -0.7184  1.4211  0.9503
  693MOL0     H91419   0.180   9.540   4.747 -0.5873  0.7663 -0.1920
  693MOL0     H91420   0.182   9.396   4.862  0.8913 -1.3459 -2.6038
  693MOL0     H91421  -0.026   9.432   4.643 -1.5136 -0.1299  2.1333
  693MOL0     H91422  -0.013   9.301   4.761 -0.3487 -1.4509 -2.1170
  693MOL0     H91423   0.068   9.238   4.548 -1.0046  1.8318  1.3768
  693MOL0     H91424   0.206   9.231   4.679 -3.3331 -3.8281  2.0502
  693MOL0     H91425   0.188   9.476   4.508 -1.2755 -0.7813  0.4730
  693MOL0     H91426   0.306   9.400   4.603 -0.3756 -0.6952  0.0517
  693MOL0     H91427   0.267   9.276   4.337 -0.7013 -1.7067  0.7421
  693MOL0     H91428   0.374   9.231   4.472  0.9911  0.8412 -0.3986
  693MOL0     H91429   0.582   9.345   4.542 -1.2522  2.3252  2.7208
  693MOL0     H91430   0.784   9.487   4.517 -1.7872 -0.0536  2.1963
  693MOL0     H91431   0.718   9.649   4.546 -0.5710 -1.9659  0.9268
  693MOL0     H91432   0.771   9.678   4.283 -0.1669 -1.5889 -2.5110
  693MOL0     H91433   0.858   9.517   4.304  0.7472 -0.2003  4.1301
  693MOL0     H91434   0.899   9.781   4.446  2.6458  0.2476  0.7639
  693MOL0     H91435   0.994   9.639   4.481  3.3261  0.2040 -2.1716
  693MOL0     H91436   1.117   9.787   4.337  0.4335 -0.4085  0.1905
  693MOL0     H91437   0.998   9.786   4.213 -1.5520 -0.5616  0.2074
  693MOL0     H91438   1.174   9.838   4.088  0.1351  1.8497 -5.4709
  693MOL0     H91439   1.302   9.827   3.880 -1.6799 -0.0226 -1.6255
  693MOL0     H91440   1.620   9.333   3.827 -2.2274  1.6227  1.1519
  693MOL0     H91441   1.806   9.243   3.693 -0.1071  1.5306  1.7519
  693MOL0     H91442   1.940   9.418   3.308  0.6822  0.1583  2.3164
  693MOL0     H91443   1.822   9.272   3.273  0.2237 -1.9989  0.0496
  693MOL0     H91444   2.114   9.248   3.280 -0.2044  0.1966  0.5877
  693MOL0     H91445   2.015   9.214   3.154  0.2209 -0.7249 -0.3095
  693MOL0     H91446   1.875   9.049   3.296  0.4150 -1.8244 -0.6016
  693MOL0     H91447   2.006   9.053   3.407 -0.3914  1.5267  0.1575
  693MOL0     H91448   2.012   8.869   3.245  0.0760 -0.1774 -2.2325
  693MOL0     H91449   2.036   8.978   3.111  0.6415 -1.5202 -0.6426
  693MOL0     H91450   2.211   8.919   3.352  0.8549 -0.6719 -0.1969
  693MOL0     H91451   2.232   9.055   3.249  0.0483 -0.6078  1.0605
  693MOL0     H91452   2.191   8.789   3.110 -4.0101  2.4872  0.7284
  693MOL0     H91453   2.350   8.827   3.177  0.0712  1.4595  1.2276
  693MOL0     H91454   2.206   8.948   2.930 -1.3616 -0.9668 -0.1890
  693MOL0     H91455   2.294   9.070   3.023 -2.3235  0.5897 -0.1394
  693MOL0     H91456   2.404   8.935   2.824  1.8404  2.4193  0.2531
  693MOL0     H91457   2.419   8.799   2.937  0.3833  0.6780  3.7037
  693MOL0     H91458   1.716   9.494   3.363 -0.2384 -0.4540 -0.4615
  693MOL0     H91459   1.503   9.564   3.478 -2.4529 -3.3191 -1.0773
  693MOL0     H91460   1.319   9.401   3.905  0.3057 -2.7535  3.3141
  693MOL0     H91461   1.159   9.404   4.114 -1.5813  0.8637  2.3098
  693MOL0     H91462   0.381   9.876   5.134 -1.6188 -0.6446 -1.3298
  693MOL0     H91463   0.621   9.929   5.132 -1.3191  0.4180 -0.9487
  693MOL0     H91464   0.957   9.968   4.999 -1.7861 -1.4041 -0.4144
  693MOL0     H91465   1.171  10.074   4.936  1.4744  1.1356  0.3081
  693MOL0     H91466   1.344  10.106   4.824  1.9291 -3.4030 -1.6404
  693MOL0     H91467   1.503  10.125   4.859 -1.0373  1.7950  0.3464
  693MOL0     H91468   1.377  10.322   4.967  0.1037 -0.3070 -0.0026
  693MOL0     H91469   1.286  10.196   5.056  1.2605 -4.0190  0.9230
  693MOL0     H91470   1.489  10.134   5.173  0.6676 -2.1106 -4.0132
  693MOL0     H91471   1.480  10.309   5.194 -0.5632 -1.3693  1.6301
  693MOL0     H91472   1.662  10.158   4.996 -5.4976 -2.0985 -1.0260
  693MOL0     H91473   1.647  10.340   4.990 -3.1552 -0.8352 -1.7843
  693MOL0     H91474   1.888  10.316   5.329 -1.2514  0.7513  0.3671
  693MOL0     H91475   1.395   9.773   5.136 -0.8136 -2.7269 -0.9110
  693MOL0     H91476   1.182   9.662   5.191 -2.1647 -0.2295  0.4345
  694MOL0     O91477  10.908   6.446   7.497 -0.1751  0.1487 -0.0635
  694MOL0     C91478  10.835   6.382   7.575 -0.9014 -0.4761  0.4556
  694MOL0     O91479  10.797   6.423   7.702 -0.3958  0.3705 -0.1200
  694MOL0     C91480  10.867   6.529   7.750 -0.0265 -0.5932  0.3481
  694MOL0     C91481  10.802   6.652   7.778  0.7304 -0.3235  0.6836
  694MOL0     C91482  10.866   6.759   7.831  0.8134 -0.5415 -0.0837
  694MOL0     C91483  11.001   6.755   7.854  0.0856  0.1185 -0.2698
  694MOL0     O91484  11.044   6.866   7.911  0.4539  0.2300 -0.4054
  694MOL0     C91485  11.185   6.883   7.932  0.1808  0.3907  0.3931
  694MOL0     C91486  11.213   6.997   8.033 -0.6968  0.2127  0.0267
  694MOL0     C91487  11.359   7.032   8.043  1.9049 -0.5243  0.3288
  694MOL0     C91488  11.377   7.160   8.123  1.0925 -0.2431  0.1131
  694MOL0     C91489  11.523   7.200   8.127 -0.0794  0.5877 -0.0859
  694MOL0     C91490  11.516   7.333   8.196 -0.5673  0.0101  0.2426
  694MOL0     C91491  11.520   7.321   8.352 -0.5710 -0.3414  0.0204
  694MOL0     C91492  11.546   7.465   8.400 -0.2441 -0.3025  0.2983
  694MOL0     N91493  11.551   7.465   8.543  0.2712 -0.1936  0.3782
  694MOL0     C91494  11.636   7.392   8.623  0.6095  0.4446  1.1795
  694MOL0     C91495  11.626   7.442   8.745  0.3568  0.1477 -1.2452
  694MOL0     C91496  11.695   7.389   8.863 -1.0035 -0.7182  0.5150
  694MOL0     C91497  11.784   7.482   8.940 -0.3587 -0.6592  0.5275
  694MOL0     C91498  11.852   7.584   8.843 -0.4299 -0.0123 -1.2020
  694MOL0     C91499  11.992   7.618   8.895  0.3128  0.3861 -0.4490
  694MOL0     O91500  11.974   7.743   8.972 -0.2522  0.4734 -0.2654
  694MOL0     C91501  12.095   7.795   9.019  0.5196 -0.2209 -1.1033
  694MOL0     C91502  12.088   7.908   9.104 -0.3820  0.1376  0.4731
  694MOL0     C91503  12.201   7.960   9.159  0.3712  0.1662 -0.2483
  694MOL0     C91504  12.330   7.914   9.123 -0.3411 -0.6127 -0.5180
  694MOL0     C91505  12.452   7.967   9.185 -0.2290  0.0125 -0.5847
  694MOL0     O91506  12.566   7.890   9.189 -0.3745  0.2727  0.6909
  694MOL0     C91507  12.680   7.939   9.252 -1.4409 -1.1131  0.8795
  694MOL0     C91508  12.757   7.859   9.335  0.2080  0.0153  0.3392
  694MOL0     C91509  12.874   7.902   9.397  0.0985  0.1379 -0.1704
  694MOL0     C91510  12.916   8.032   9.390 -0.2745 -0.3862  0.7217
  694MOL0     O91511  13.032   8.068   9.455  0.0719 -0.6163  0.8370
  694MOL0     C91512  13.139   8.100   9.357 -0.1584 -1.2111 -0.4915
  694MOL0     C91513  13.277   8.066   9.422  0.3620 -0.2911  0.0853
  694MOL0     C91514  13.281   7.917   9.447 -0.3263  0.7510  0.1316
  694MOL0     C91515  13.286   7.844   9.311  0.3691 -0.7800  0.0864
  694MOL0     C91516  13.337   7.701   9.326 -0.0144  0.3682 -0.0101
  694MOL0     C91517  13.335   7.631   9.192 -0.4999 -0.1675 -0.3285
  694MOL0     C91518  13.395   7.496   9.207  0.4082  0.3043  0.1866
  694MOL0     C91519  13.326   7.399   9.113 -0.5231  0.7714  0.7266
  694MOL0    Cl91520  13.372   7.448   8.945 -0.5392  0.4619 -0.1004
  694MOL0     C91521  12.832   8.120   9.324 -0.0391  0.1796 -0.3478
  694MOL0     C91522  12.719   8.077   9.254 -0.6841 -0.2067  0.1756
  694MOL0     O91523  12.438   8.078   9.219  0.1720  0.1835 -0.4042
  694MOL0     C91524  12.337   7.802   9.046 -0.2099  0.1145 -0.1810
  694MOL0     C91525  12.223   7.737   8.993 -0.6685 -0.2330 -0.1462
  694MOL0     N91526  11.545   7.556   8.740  0.1986  0.0224 -0.4934
  694MOL0     N91527  11.500   7.565   8.623 -0.2093 -0.6778 -0.3733
  694MOL0     C91528  11.070   6.640   7.814  0.0602  0.7221  0.5639
  694MOL0     C91529  11.006   6.531   7.770 -0.6881  0.7313  0.8705
  694MOL0     C91530  10.805   6.232   7.558 -0.5257  0.7917  0.4195
  694MOL0     C91531  10.720   6.160   7.639  0.4596  0.0186  0.2482
  694MOL0     C91532  10.711   6.018   7.622 -0.0300  0.0410  0.1924
  694MOL0     C91533  10.800   5.949   7.549  0.3344 -0.9200  0.5936
  694MOL0     O91534  10.804   5.811   7.538 -0.6230  0.0073  0.5750
  694MOL0     C91535  10.896   5.747   7.628  0.2445  0.5973  0.1752
  694MOL0     C91536  10.812   5.685   7.750 -0.3644 -0.4419  0.0961
  694MOL0     C91537  10.893   5.656   7.877  0.7595  1.2220 -0.1201
  694MOL0     C91538  10.971   5.778   7.921  0.2097  0.2555 -0.0309
  694MOL0     C91539  11.045   5.754   8.040 -0.1628  0.1119  0.2441
  694MOL0     C91540  11.109   5.739   8.139 -1.0715  0.2644  0.5521
  694MOL0     C91541  10.891   6.018   7.468 -0.4470  0.9380  1.1561
  694MOL0     C91542  10.890   6.159   7.471 -0.3990  0.0254 -0.6736
  694MOL0     H91543  10.696   6.657   7.755  1.1874 -1.9064 -2.4002
  694MOL0     H91544  10.815   6.854   7.843 -2.4704 -2.1055 -0.6484
  694MOL0     H91545  11.219   6.904   7.831  0.1804 -0.5252  0.1909
  694MOL0     H91546  11.232   6.793   7.974  2.7561  2.7896  3.0690
  694MOL0     H91547  11.173   6.979   8.134  0.3660 -4.0129 -0.0827
  694MOL0     H91548  11.162   7.077   7.980 -0.9229  1.4156  1.9617
  694MOL0     H91549  11.382   7.055   7.939 -6.0970 -0.5165 -2.1394
  694MOL0     H91550  11.410   6.953   8.099 -0.5771 -1.8859  0.8588
  694MOL0     H91551  11.327   7.244   8.075  2.8543  1.5163  1.2112
  694MOL0     H91552  11.346   7.139   8.226 -1.9848  2.1055 -0.2152
  694MOL0     H91553  11.554   7.215   8.024  1.5816 -2.4169 -0.1483
  694MOL0     H91554  11.585   7.123   8.174 -1.1227  0.3551  0.9623
  694MOL0     H91555  11.425   7.388   8.169 -0.6847  0.3727  1.3438
  694MOL0     H91556  11.604   7.384   8.154  0.3459 -2.1251 -0.6288
  694MOL0     H91557  11.417   7.289   8.371 -1.2303 -0.2314 -2.9470
  694MOL0     H91558  11.596   7.250   8.385  1.3351  2.0578  1.0775
  694MOL0     H91559  11.456   7.519   8.370  0.5619 -0.2938 -2.3957
  694MOL0     H91560  11.642   7.505   8.364 -1.4694  1.7844 -0.8726
  694MOL0     H91561  11.696   7.307   8.592  2.0750  0.8997  2.6257
  694MOL0     H91562  11.771   7.315   8.838  1.4500  2.2945 -1.7100
  694MOL0     H91563  11.617   7.342   8.924 -1.0147  0.1959  1.2409
  694MOL0     H91564  11.858   7.435   9.005 -0.1116  0.1329  0.8305
  694MOL0     H91565  11.720   7.542   9.005  0.6563  0.0217  0.9214
  694MOL0     H91566  11.872   7.523   8.754 -0.0871 -0.1462 -1.0324
  694MOL0     H91567  11.787   7.671   8.825 -0.4795 -0.0103 -1.0182
  694MOL0     H91568  12.049   7.663   8.813  1.4782 -0.8981 -0.3881
  694MOL0     H91569  12.050   7.535   8.936  3.7299  2.9234  0.3863
  694MOL0     H91570  11.992   7.940   9.143  0.1626  0.3485  1.6875
  694MOL0     H91571  12.207   8.043   9.229 -0.6633 -2.5895  3.3934
  694MOL0     H91572  12.725   7.755   9.330 -0.3195  0.2294 -1.4411
  694MOL0     H91573  12.943   7.836   9.447 -1.7494 -1.6747  0.1372
  694MOL0     H91574  13.139   8.210   9.353  1.6491 -1.0597  1.4339
  694MOL0     H91575  13.135   8.054   9.259  3.0713  0.0925 -1.3711
  694MOL0     H91576  13.289   8.120   9.517  1.5388  0.0545 -0.2367
  694MOL0     H91577  13.366   8.101   9.368 -0.4888 -4.4359 -4.7367
  694MOL0     H91578  13.192   7.889   9.504  0.5395  0.2384  1.2868
  694MOL0     H91579  13.370   7.879   9.498 -0.5815 -0.2204 -0.1277
  694MOL0     H91580  13.190   7.845   9.257 -0.7544 -1.1103  2.0098
  694MOL0     H91581  13.346   7.910   9.247  0.7869 -1.0511  0.2017
  694MOL0     H91582  13.268   7.644   9.390 -0.1341  0.3658 -0.1422
  694MOL0     H91583  13.436   7.690   9.371 -0.0133 -2.1022 -0.4650
  694MOL0     H91584  13.389   7.698   9.125 -0.0910  0.3310  0.4834
  694MOL0     H91585  13.228   7.637   9.168 -0.7392 -0.6807  0.5474
  694MOL0     H91586  13.501   7.505   9.184  0.3727  2.3726  0.6615
  694MOL0     H91587  13.377   7.461   9.309 -1.9157  0.7864  0.0100
  694MOL0     H91588  13.219   7.411   9.127 -1.0999 -1.1304 -1.5172
  694MOL0     H91589  13.355   7.296   9.136 -1.0640  0.1806 -1.1129
  694MOL0     H91590  12.851   8.225   9.344 -0.9516 -0.1587  2.8890
  694MOL0     H91591  12.665   8.152   9.197 -1.5602 -1.0869 -0.2041
  694MOL0     H91592  12.434   7.765   9.016  1.0728  3.0574 -0.0523
  694MOL0     H91593  12.237   7.657   8.921  1.4830  0.9049 -1.0815
  694MOL0     H91594  11.177   6.651   7.829 -0.2566  0.9760  3.0228
  694MOL0     H91595  11.064   6.446   7.735 -1.5839  0.5011 -0.1367
  694MOL0     H91596  10.659   6.211   7.713 -0.1526  1.0346 -0.9289
  694MOL0     H91597  10.632   5.968   7.677 -0.5178  0.1519 -0.4054
  694MOL0     H91598  10.971   5.822   7.655 -0.5733  1.0498  1.2555
  694MOL0     H91599  10.943   5.663   7.576  0.9033 -0.7520  2.7642
  694MOL0     H91600  10.734   5.758   7.772  0.7137  0.8707 -0.2652
  694MOL0     H91601  10.761   5.596   7.711 -2.2240  1.6868 -2.6982
  694MOL0     H91602  10.965   5.578   7.852 -1.0776 -0.0593 -1.7528
  694MOL0     H91603  10.831   5.615   7.957 -1.3958  0.9096 -1.8437
  694MOL0     H91604  11.037   5.816   7.843  1.5276 -2.7129 -0.5261
  694MOL0     H91605  10.901   5.862   7.927  2.0048  1.7729  0.3226
  694MOL0     H91606  11.165   5.727   8.230 -0.0632 -2.3793 -0.3166
  694MOL0     H91607  10.961   5.963   7.406 -4.9398 -1.5997 -2.3315
  694MOL0     H91608  10.963   6.204   7.404  0.5668 -2.2685 -1.2504
  695MOL0     O91609   9.394   4.500  10.186 -0.5315 -0.3780  0.5631
  695MOL0     C91610   9.450   4.610  10.173  0.2920 -0.1215 -0.1060
  695MOL0     O91611   9.484   4.679  10.067  0.9384  0.2513 -0.3999
  695MOL0     C91612   9.449   4.649   9.935 -0.2862 -0.3057 -0.0742
  695MOL0     C91613   9.455   4.522   9.879  0.5354  0.0438  0.5894
  695MOL0     C91614   9.414   4.501   9.752  0.3353  0.6715  0.2328
  695MOL0     C91615   9.371   4.604   9.661  0.7213  1.1400 -0.8023
  695MOL0     O91616   9.339   4.597   9.534  0.4838  0.2879  0.2614
  695MOL0     C91617   9.348   4.475   9.467 -0.3795  0.7734  0.9473
  695MOL0     C91618   9.298   4.494   9.317 -0.2800  0.4100 -1.5051
  695MOL0     C91619   9.376   4.391   9.239  0.1573 -1.6824 -0.4247
  695MOL0     C91620   9.276   4.270   9.210  0.5464 -0.6070  0.4251
  695MOL0     C91621   9.343   4.174   9.107  0.4335 -0.0333  0.2791
  695MOL0     C91622   9.271   4.040   9.091 -0.6398  0.1659  0.1318
  695MOL0     C91623   9.343   3.945   9.194 -0.6264 -0.4041 -0.7092
  695MOL0     C91624   9.307   3.795   9.166 -0.4434 -0.5588 -0.7915
  695MOL0     N91625   9.313   3.759   9.022  0.8149  0.6034  0.2900
  695MOL0     C91626   9.209   3.707   8.950 -0.2616  0.3972 -0.4722
  695MOL0     C91627   9.269   3.662   8.840 -0.3430 -0.7070 -0.1624
  695MOL0     C91628   9.196   3.584   8.738 -0.2168  0.3558  0.3183
  695MOL0     C91629   9.127   3.467   8.797  0.4494  0.5373  0.4235
  695MOL0     C91630   9.103   3.354   8.684  0.1375  0.4448 -0.6141
  695MOL0     C91631   9.065   3.420   8.550 -0.3312 -0.1462  0.6431
  695MOL0     O91632   9.017   3.329   8.457  0.7737  0.4489 -0.4154
  695MOL0     C91633   8.897   3.268   8.473  0.1243  0.1975 -0.0049
  695MOL0     C91634   8.870   3.146   8.410  0.6956  0.6364  0.7668
  695MOL0     C91635   8.745   3.074   8.432 -0.2180  0.3222  0.0555
  695MOL0     C91636   8.656   3.130   8.518  0.3147 -0.9771 -1.1973
  695MOL0     C91637   8.530   3.069   8.532  0.7413 -0.4437  0.3926
  695MOL0     O91638   8.519   2.942   8.478 -0.9437  0.2859  0.4598
  695MOL0     C91639   8.398   2.915   8.423  0.3092 -0.4308 -0.0703
  695MOL0     C91640   8.360   2.958   8.292 -0.3610  0.2661  0.0617
  695MOL0     C91641   8.224   2.956   8.271 -0.0294 -0.1531  0.4278
  695MOL0     C91642   8.125   2.897   8.349  0.1458  0.6350  0.3097
  695MOL0     O91643   7.995   2.877   8.310 -0.1705 -0.4201  0.9198
  695MOL0     C91644   7.893   2.856   8.411 -0.2826 -0.0247  0.4177
  695MOL0     C91645   7.761   2.881   8.334  0.1221  0.1168  0.0691
  695MOL0     C91646   7.753   3.033   8.293 -1.3637 -0.0731 -0.1176
  695MOL0     C91647   7.616   3.072   8.240  0.1242 -0.7637  0.6361
  695MOL0     C91648   7.621   3.212   8.175 -0.2926 -0.0284 -0.1139
  695MOL0     C91649   7.477   3.244   8.145 -0.6551 -0.4153 -0.5966
  695MOL0     C91650   7.463   3.321   8.014  0.2350 -0.4279 -0.1678
  695MOL0     C91651   7.482   3.468   8.061 -0.2513  0.4236  0.3417
  695MOL0    Cl91652   7.501   3.581   7.926  0.5110  0.0941  0.1380
  695MOL0     C91653   8.175   2.838   8.470  0.0833  0.2905 -0.4071
  695MOL0     C91654   8.309   2.852   8.506  0.3531 -0.3150  0.3082
  695MOL0     O91655   8.434   3.137   8.570  0.4040 -0.3285 -0.0692
  695MOL0     C91656   8.678   3.249   8.594  0.1910  0.3041  0.6419
  695MOL0     C91657   8.799   3.316   8.569 -0.7609 -0.8437 -0.5155
  695MOL0     N91658   9.402   3.685   8.844 -0.6630  0.3272 -0.0191
  695MOL0     N91659   9.429   3.731   8.960 -0.4341 -0.3853  0.4771
  695MOL0     C91660   9.369   4.729   9.720  0.4015 -0.0758  0.0033
  695MOL0     C91661   9.407   4.748   9.848  1.0778 -0.7449 -0.6968
  695MOL0     C91662   9.472   4.696  10.298 -0.8662 -0.3319  1.0947
  695MOL0     C91663   9.471   4.835  10.283 -0.0668  0.4614  0.5499
  695MOL0     C91664   9.491   4.911  10.399  0.0166  0.4567  0.6529
  695MOL0     C91665   9.485   4.860  10.532 -0.4956  0.1710  0.6540
  695MOL0     O91666   9.495   4.953  10.631  0.8750  0.1465  0.8794
  695MOL0     C91667   9.483   4.916  10.768 -0.4915  1.5575  0.2626
  695MOL0     C91668   9.619   4.867  10.807  0.0102 -0.1240  0.7201
  695MOL0     C91669   9.714   4.998  10.816 -0.8768  1.0551  0.3118
  695MOL0     C91670   9.840   4.973  10.738 -0.5711 -0.0798 -0.3949
  695MOL0     C91671   9.827   4.941  10.600 -0.0622 -0.7673 -0.0036
  695MOL0     C91672   9.831   4.917  10.483  0.7680 -0.3853  0.8569
  695MOL0     C91673   9.458   4.720  10.544 -0.7079 -0.5472  0.5237
  695MOL0     C91674   9.465   4.638  10.429  0.9322 -0.1757 -0.3717
  695MOL0     H91675   9.474   4.437   9.943 -2.1853 -0.4589  0.8402
  695MOL0     H91676   9.409   4.399   9.715 -0.8215  0.6329  0.4618
  695MOL0     H91677   9.278   4.405   9.513 -0.8167 -1.1674 -2.3583
  695MOL0     H91678   9.451   4.439   9.470 -1.2674 -2.2424 -0.5074
  695MOL0     H91679   9.329   4.591   9.279 -0.2259 -0.3486 -3.4677
  695MOL0     H91680   9.190   4.474   9.312 -0.8954  1.2366  3.4163
  695MOL0     H91681   9.472   4.362   9.280 -0.2179  0.0241  1.8373
  695MOL0     H91682   9.394   4.431   9.139 -4.1701  1.2651 -0.3218
  695MOL0     H91683   9.244   4.215   9.299  1.8939 -0.0451  1.3017
  695MOL0     H91684   9.189   4.318   9.163  2.8901  1.5936 -1.9789
  695MOL0     H91685   9.444   4.155   9.144  0.2266  0.4296  1.1170
  695MOL0     H91686   9.339   4.214   9.006  1.3760 -0.2322  0.1550
  695MOL0     H91687   9.290   4.010   8.987  0.2990  0.0620  0.3256
  695MOL0     H91688   9.162   4.051   9.092 -0.6564  1.2400 -2.7194
  695MOL0     H91689   9.452   3.948   9.184 -0.4286 -0.6920  1.0147
  695MOL0     H91690   9.327   3.980   9.297 -0.3571 -1.5203 -0.2678
  695MOL0     H91691   9.203   3.777   9.195 -1.1714  3.2218 -0.5898
  695MOL0     H91692   9.377   3.742   9.231 -0.4319 -0.3076 -0.5972
  695MOL0     H91693   9.105   3.695   8.977  0.4087 -1.4962  1.5596
  695MOL0     H91694   9.266   3.557   8.659 -1.1463 -2.1606  0.2776
  695MOL0     H91695   9.123   3.651   8.690 -0.7743 -0.4211  0.0692
  695MOL0     H91696   9.022   3.491   8.815  0.1385 -0.0392 -0.5326
  695MOL0     H91697   9.176   3.438   8.890  3.0685 -1.3905 -1.3709
  695MOL0     H91698   9.200   3.307   8.666  0.1884  0.4871 -0.4605
  695MOL0     H91699   9.025   3.287   8.721  1.6983 -1.1771 -0.1247
  695MOL0     H91700   9.148   3.466   8.496 -0.9953 -1.5958 -1.7371
  695MOL0     H91701   8.987   3.492   8.577 -0.0449  0.4697 -0.1283
  695MOL0     H91702   8.934   3.106   8.332  0.0777  0.1639  0.4868
  695MOL0     H91703   8.721   2.985   8.375  0.3410  0.2539 -0.0767
  695MOL0     H91704   8.435   2.995   8.223 -2.2250  0.8632 -1.7598
  695MOL0     H91705   8.182   2.996   8.179 -1.6864 -3.0950 -0.1992
  695MOL0     H91706   7.909   2.932   8.489  2.7846 -0.4155  0.3223
  695MOL0     H91707   7.903   2.758   8.459  2.1306 -0.2224 -0.3277
  695MOL0     H91708   7.676   2.847   8.394  1.3022 -1.7259  0.7914
  695MOL0     H91709   7.762   2.817   8.245 -1.3041 -3.0520  2.1325
  695MOL0     H91710   7.816   3.043   8.205 -0.7701 -3.3396 -0.2116
  695MOL0     H91711   7.781   3.098   8.375  2.8445 -1.1732 -0.4877
  695MOL0     H91712   7.584   2.999   8.164 -1.4544  0.4466  0.0781
  695MOL0     H91713   7.548   3.070   8.326 -1.1551 -7.1565  0.0202
  695MOL0     H91714   7.697   3.206   8.096 -0.3481 -2.2000 -0.0576
  695MOL0     H91715   7.645   3.293   8.245 -3.5089 -0.6756  1.9263
  695MOL0     H91716   7.429   3.298   8.227 -0.9196  2.7112 -2.6303
  695MOL0     H91717   7.422   3.150   8.131  1.6727 -1.6614 -1.9459
  695MOL0     H91718   7.536   3.292   7.938  0.5820 -0.5684  0.2139
  695MOL0     H91719   7.364   3.303   7.972 -1.2373 -1.3959  3.3198
  695MOL0     H91720   7.573   3.478   8.121  0.4582  0.3721 -0.6903
  695MOL0     H91721   7.409   3.520   8.124  2.4730  3.5924  1.1540
  695MOL0     H91722   8.113   2.774   8.532  0.9350 -0.6567 -0.5117
  695MOL0     H91723   8.344   2.800   8.594  1.1934 -1.2211 -0.5446
  695MOL0     H91724   8.595   3.292   8.649  0.3346 -3.3324  4.1362
  695MOL0     H91725   8.821   3.399   8.635 -0.4512  0.3259 -2.0445
  695MOL0     H91726   9.325   4.811   9.664 -2.6237 -0.5315  1.4827
  695MOL0     H91727   9.398   4.846   9.894 -0.9146  0.3901 -3.2739
  695MOL0     H91728   9.484   4.878  10.185 -0.3938 -4.0487 -1.7117
  695MOL0     H91729   9.501   5.018  10.385  2.7330  0.2938  0.9309
  695MOL0     H91730   9.400   4.846  10.778 -0.4378  0.9438 -2.5768
  695MOL0     H91731   9.464   4.997  10.839 -0.2157  1.3173  0.6107
  695MOL0     H91732   9.615   4.824  10.907  1.8476  0.5245  1.1247
  695MOL0     H91733   9.666   4.794  10.740  3.2284  0.7565  1.8222
  695MOL0     H91734   9.718   5.025  10.922 -0.2838 -1.0088  0.8588
  695MOL0     H91735   9.665   5.079  10.761  1.5315  0.9773 -2.1886
  695MOL0     H91736   9.891   5.070  10.749  0.6013 -0.7503  0.2479
  695MOL0     H91737   9.887   4.894  10.797  1.2946  1.0405 -0.2964
  695MOL0     H91738   9.828   4.876  10.385 -2.2009 -1.8035  1.4466
  695MOL0     H91739   9.463   4.676  10.643  3.6946  1.2639  1.3388
  695MOL0     H91740   9.464   4.530  10.420  0.3309 -0.2820  0.8291
  696MOL0     O91741   6.668   2.540   8.828 -0.2635 -0.2113  0.7243
  696MOL0     C91742   6.639   2.439   8.758 -0.3774  0.4573 -0.7421
  696MOL0     O91743   6.609   2.445   8.628  0.0800  0.1522  0.9796
  696MOL0     C91744   6.638   2.548   8.546 -0.0645 -0.0397  0.4171
  696MOL0     C91745   6.534   2.591   8.468 -0.2291  0.1512  0.3350
  696MOL0     C91746   6.536   2.716   8.392  0.3802  0.4382  0.1774
  696MOL0     C91747   6.652   2.788   8.387  0.0668 -0.7484 -0.0712
  696MOL0     O91748   6.661   2.904   8.306 -0.3221  0.7248 -0.0726
  696MOL0     C91749   6.662   3.019   8.388 -0.0327 -0.1494  0.0183
  696MOL0     C91750   6.673   3.136   8.295 -0.2807 -0.4884 -0.2676
  696MOL0     C91751   6.676   3.275   8.367  0.2079  0.8192  0.3077
  696MOL0     C91752   6.798   3.275   8.454  0.3281  0.1127 -0.0284
  696MOL0     C91753   6.873   3.412   8.461 -0.6582  0.6297  0.0024
  696MOL0     C91754   6.787   3.523   8.510  1.0922  0.0622 -0.8665
  696MOL0     C91755   6.696   3.488   8.627 -0.6655  0.3007  0.4571
  696MOL0     C91756   6.779   3.464   8.759 -0.4806  0.2276  1.1324
  696MOL0     N91757   6.832   3.593   8.799 -0.1119 -0.3247 -0.0010
  696MOL0     C91758   6.764   3.708   8.841 -0.7973 -0.4863  0.0358
  696MOL0     C91759   6.849   3.808   8.842 -0.4862 -0.2447  0.3238
  696MOL0     C91760   6.817   3.953   8.882 -0.3823 -0.3665  0.2305
  696MOL0     C91761   6.925   4.028   8.954 -0.0966 -0.8252  0.5584
  696MOL0     C91762   6.964   3.947   9.088 -0.7382  0.0260  0.0100
  696MOL0     C91763   6.945   4.026   9.214  0.0237  0.0081  0.5776
  696MOL0     O91764   6.803   4.042   9.223  0.1112 -0.5133  0.1932
  696MOL0     C91765   6.761   4.160   9.269  0.3838 -0.4589  0.0675
  696MOL0     C91766   6.754   4.171   9.405 -0.4377  0.1038  0.7468
  696MOL0     C91767   6.700   4.290   9.455  0.1636 -1.1065 -0.7448
  696MOL0     C91768   6.656   4.394   9.372 -0.0675 -0.0016  0.0614
  696MOL0     C91769   6.591   4.513   9.431  0.2168  1.4835 -0.2602
  696MOL0     O91770   6.616   4.527   9.562 -0.6978 -0.1681 -0.0953
  696MOL0     C91771   6.550   4.614   9.641 -0.5571  0.2619  0.0338
  696MOL0     C91772   6.576   4.594   9.780 -0.1509 -0.4944  0.3441
  696MOL0     C91773   6.521   4.672   9.881 -0.4494  0.1439 -0.2978
  696MOL0     C91774   6.434   4.785   9.839  0.4223  0.7666  0.3714
  696MOL0     O91775   6.387   4.871   9.938  0.3972 -0.2365 -0.1598
  696MOL0     C91776   6.246   4.908   9.944 -1.0557 -1.6491 -0.6214
  696MOL0     C91777   6.223   5.049  10.008  0.1629  0.0237 -0.2373
  696MOL0     C91778   6.336   5.154   9.987 -0.3197 -0.6535  0.0633
  696MOL0     C91779   6.365   5.193   9.840 -0.0362  0.2731  0.6169
  696MOL0     C91780   6.267   5.306   9.781 -1.2555  0.1529 -0.3310
  696MOL0     C91781   6.279   5.334   9.629  0.0026 -0.5115 -1.5869
  696MOL0     C91782   6.407   5.384   9.584 -0.5916  0.0147  0.3135
  696MOL0     C91783   6.461   5.502   9.665  0.7772  0.2320 -0.4011
  696MOL0    Cl91784   6.362   5.646   9.643  0.2316 -0.6019 -0.0911
  696MOL0     C91785   6.412   4.810   9.705  0.8002  0.7112  1.0236
  696MOL0     C91786   6.466   4.732   9.605  0.0234  0.5673 -0.3478
  696MOL0     O91787   6.534   4.591   9.360  0.1672 -0.4674  0.1200
  696MOL0     C91788   6.702   4.395   9.240  0.3900  0.0499  0.1909
  696MOL0     C91789   6.751   4.273   9.182 -0.3589 -0.2824 -0.2056
  696MOL0     N91790   6.964   3.763   8.773 -0.2325 -0.1276 -1.2964
  696MOL0     N91791   6.954   3.636   8.756 -1.0622 -0.3555 -0.0453
  696MOL0     C91792   6.764   2.739   8.459  0.5655 -0.5679  0.6119
  696MOL0     C91793   6.755   2.622   8.547 -0.6419 -0.8004  0.4477
  696MOL0     C91794   6.677   2.302   8.813 -0.8018  0.0219  0.5514
  696MOL0     C91795   6.746   2.212   8.736  1.3391  1.4224  1.0007
  696MOL0     C91796   6.793   2.085   8.787  0.5196 -0.4269 -0.8245
  696MOL0     C91797   6.769   2.063   8.925  0.2914  0.6122  0.5203
  696MOL0     O91798   6.788   1.946   8.992  0.0469  0.9613  0.8183
  696MOL0     C91799   6.856   1.838   8.917 -0.0646 -0.0527 -1.5408
  696MOL0     C91800   7.002   1.877   8.898 -0.4195 -0.1672 -0.5842
  696MOL0     C91801   7.082   1.896   9.028 -0.0554 -0.2799 -0.1706
  696MOL0     C91802   7.232   1.930   8.996  0.2996 -0.8377 -0.8049
  696MOL0     C91803   7.307   1.947   9.120  0.2929  0.2065  0.3551
  696MOL0     C91804   7.374   1.976   9.205 -0.2585  0.8313  0.8446
  696MOL0     C91805   6.715   2.166   9.006  0.7077 -0.5247 -0.4184
  696MOL0     C91806   6.670   2.281   8.955 -0.2397 -0.4079  0.9366
  696MOL0     H91807   6.441   2.536   8.484 -1.0813  1.5055  0.2414
  696MOL0     H91808   6.447   2.737   8.334  0.5839  1.1696  0.1177
  696MOL0     H91809   6.733   3.015   8.471 -0.3884 -0.8999  0.3032
  696MOL0     H91810   6.563   3.020   8.434 -0.0366 -1.0274  0.0572
  696MOL0     H91811   6.593   3.131   8.221  0.5820 -0.9550 -1.1889
  696MOL0     H91812   6.767   3.119   8.242 -1.3450 -4.6606 -1.1722
  696MOL0     H91813   6.588   3.299   8.427  0.2692 -0.7842  1.0692
  696MOL0     H91814   6.682   3.349   8.286 -1.8684 -0.1474 -0.8220
  696MOL0     H91815   6.781   3.240   8.556  1.9421  2.1964  1.0238
  696MOL0     H91816   6.877   3.209   8.416  3.3745  2.2130  2.1967
  696MOL0     H91817   6.912   3.446   8.365 -0.9548 -0.3185 -0.4615
  696MOL0     H91818   6.967   3.401   8.517  0.2468 -2.6482 -1.8967
  696MOL0     H91819   6.722   3.556   8.428  1.7274  0.0797 -1.3724
  696MOL0     H91820   6.851   3.612   8.517  0.9450  0.3973 -3.1894
  696MOL0     H91821   6.640   3.582   8.632  2.0795  2.0338  0.7357
  696MOL0     H91822   6.622   3.409   8.612  0.3248 -0.9527  1.8872
  696MOL0     H91823   6.864   3.399   8.735  0.2046  0.4052  2.8958
  696MOL0     H91824   6.712   3.414   8.829 -2.6907 -0.2210 -1.1642
  696MOL0     H91825   6.668   3.690   8.887  0.0461 -1.2708  1.5378
  696MOL0     H91826   6.740   3.946   8.959  0.7121 -1.0001  1.3009
  696MOL0     H91827   6.784   4.012   8.795 -0.8180  0.6378  1.0593
  696MOL0     H91828   6.896   4.134   8.961 -1.2703 -1.0056 -1.1303
  696MOL0     H91829   7.014   4.034   8.891 -0.8522 -0.0095 -0.4670
  696MOL0     H91830   6.905   3.855   9.096  0.7707 -0.9065  1.0636
  696MOL0     H91831   7.072   3.930   9.083  0.4382  5.5113  0.5369
  696MOL0     H91832   6.994   4.123   9.220  0.3151 -0.2032  2.0853
  696MOL0     H91833   6.988   3.969   9.298  0.3816 -4.5182 -2.3126
  696MOL0     H91834   6.787   4.086   9.463 -1.6662 -1.6483 -0.9865
  696MOL0     H91835   6.660   4.290   9.556  1.2572  0.3748 -0.2732
  696MOL0     H91836   6.635   4.503   9.786 -1.5892 -1.3607  2.1855
  696MOL0     H91837   6.538   4.638   9.982 -0.3834  1.5678  0.1987
  696MOL0     H91838   6.198   4.842  10.017 -2.3340  0.8262  0.8745
  696MOL0     H91839   6.212   4.895   9.841 -0.3043 -1.3721 -0.9158
  696MOL0     H91840   6.221   5.017  10.112 -0.8546  0.4266 -0.1267
  696MOL0     H91841   6.120   5.082   9.994 -1.4665 -0.1790  7.3458
  696MOL0     H91842   6.431   5.120  10.030  0.2783 -1.5049 -1.8341
  696MOL0     H91843   6.319   5.249  10.039  4.5615  0.1699  0.6941
  696MOL0     H91844   6.467   5.234   9.838 -0.8217  2.3568  0.2616
  696MOL0     H91845   6.348   5.103   9.780 -0.8097  0.0706  1.1261
  696MOL0     H91846   6.285   5.397   9.840 -0.7943  0.6122 -1.1594
  696MOL0     H91847   6.165   5.273   9.803 -0.1701 -1.8112  2.1726
  696MOL0     H91848   6.193   5.400   9.616  3.1618  4.5973  0.3699
  696MOL0     H91849   6.253   5.245   9.571  0.9168 -2.8732  1.3354
  696MOL0     H91850   6.473   5.297   9.584 -2.3017 -1.3619 -1.3648
  696MOL0     H91851   6.415   5.414   9.480  0.7071  0.0749  0.4159
  696MOL0     H91852   6.563   5.532   9.637  1.4611  1.7166  3.1262
  696MOL0     H91853   6.466   5.470   9.769  2.2540 -0.0905 -0.5469
  696MOL0     H91854   6.353   4.896   9.675  3.5041  1.9018 -1.3716
  696MOL0     H91855   6.437   4.760   9.504 -2.7549 -0.2449  0.1303
  696MOL0     H91856   6.677   4.481   9.179  0.6892  0.8814  1.2170
  696MOL0     H91857   6.779   4.278   9.077  1.1537  2.5046  0.2354
  696MOL0     H91858   6.861   2.787   8.455 -0.9290  2.7517  0.0346
  696MOL0     H91859   6.833   2.597   8.619  0.7262  0.6775 -0.4494
  696MOL0     H91860   6.769   2.235   8.632 -1.1577 -0.7383 -0.1433
  696MOL0     H91861   6.842   2.017   8.719  1.7797 -0.6101  0.2295
  696MOL0     H91862   6.804   1.828   8.821  0.3365  2.3695 -2.0732
  696MOL0     H91863   6.846   1.746   8.977 -0.5102  0.3588 -0.9727
  696MOL0     H91864   7.047   1.796   8.840  0.7373 -1.3117  1.7808
  696MOL0     H91865   7.013   1.965   8.834  0.3084 -1.5089 -2.4086
  696MOL0     H91866   7.082   1.802   9.083 -3.0493 -0.7701 -0.8241
  696MOL0     H91867   7.037   1.982   9.078 -2.5156 -0.1030 -2.4480
  696MOL0     H91868   7.279   1.849   8.941  2.0263 -0.6028  0.2557
  696MOL0     H91869   7.237   2.022   8.937 -1.0250  0.1799  0.5738
  696MOL0     H91870   7.460   1.991   9.267  0.1725 -0.5597  0.6184
  696MOL0     H91871   6.715   2.155   9.113  4.1338 -0.6855 -0.3304
  696MOL0     H91872   6.639   2.364   9.017  1.2064  1.2774 -0.4885
  697MOL0     O91873   0.834   1.880   0.748 -0.4207  0.2697  0.3737
  697MOL0     C91874   0.932   1.927   0.693 -0.1826 -0.9574 -0.0291
  697MOL0     O91875   1.056   1.925   0.747 -0.2992  0.1147  0.5471
  697MOL0     C91876   1.079   1.882   0.872  0.5417  0.1559 -0.1619
  697MOL0     C91877   0.996   1.911   0.973  0.2217 -0.6350 -0.2129
  697MOL0     C91878   1.010   1.877   1.097  0.2417  0.5183 -0.5059
  697MOL0     C91879   1.117   1.789   1.132 -1.3772 -0.7082  0.1237
  697MOL0     O91880   1.126   1.752   1.263 -0.5621 -0.8960 -0.0662
  697MOL0     C91881   1.235   1.822   1.327 -0.3059  0.4492  0.3770
  697MOL0     C91882   1.205   1.850   1.468 -0.0735 -0.1329  0.4395
  697MOL0     C91883   1.242   1.750   1.572 -0.1941  0.7046 -0.1873
  697MOL0     C91884   1.205   1.783   1.720  0.0623 -0.2785  0.1208
  697MOL0     C91885   1.223   1.668   1.819  0.1756 -0.5576  0.1041
  697MOL0     C91886   1.204   1.728   1.957  0.2289  0.3736 -1.0672
  697MOL0     C91887   1.293   1.650   2.062 -0.1474 -1.1552  0.6413
  697MOL0     C91888   1.440   1.689   2.042  0.4701 -0.3522 -0.4847
  697MOL0     N91889   1.527   1.667   2.163 -0.2483  0.0169  0.7113
  697MOL0     C91890   1.582   1.550   2.218 -0.5718  1.1735 -0.4614
  697MOL0     C91891   1.666   1.591   2.316 -0.4488 -0.0147  0.1363
  697MOL0     C91892   1.750   1.496   2.402 -0.4123  0.3884  0.3015
  697MOL0     C91893   1.879   1.573   2.453  0.1906 -0.2717  0.3214
  697MOL0     C91894   1.966   1.502   2.553  0.4843 -0.1116  0.3942
  697MOL0     C91895   2.040   1.610   2.640  0.1645 -0.5237 -0.6548
  697MOL0     O91896   2.095   1.712   2.549 -0.0575  0.3543  0.0667
  697MOL0     C91897   2.103   1.839   2.596 -0.8660 -0.3038 -0.5163
  697MOL0     C91898   2.149   1.858   2.729 -0.5131  0.1324  0.7607
  697MOL0     C91899   2.168   1.988   2.772 -0.0864 -0.0281 -0.3575
  697MOL0     C91900   2.143   2.101   2.688 -0.0780 -0.1076 -0.3101
  697MOL0     C91901   2.144   2.240   2.743 -1.5162  0.7744  1.1461
  697MOL0     O91902   2.074   2.351   2.683  0.0491  0.2706  0.8618
  697MOL0     C91903   2.130   2.474   2.716 -0.0393  0.1190 -0.1482
  697MOL0     C91904   2.248   2.515   2.645  0.6098 -0.8845 -0.8857
  697MOL0     C91905   2.314   2.627   2.681 -0.5662 -1.2655 -0.6787
  697MOL0     C91906   2.258   2.705   2.787  0.3345 -0.7186 -0.2160
  697MOL0     O91907   2.337   2.815   2.818 -0.2543  0.1069 -0.1456
  697MOL0     C91908   2.321   2.890   2.940 -0.2414  0.2507 -0.2765
  697MOL0     C91909   2.419   3.005   2.953 -0.3059  0.0640  0.1947
  697MOL0     C91910   2.551   2.951   2.981 -0.2841 -0.6604  0.2596
  697MOL0     C91911   2.663   3.050   2.978 -0.3583 -1.0424  0.4340
  697MOL0     C91912   2.675   3.144   3.100 -0.1063 -0.9794  1.1999
  697MOL0     C91913   2.746   3.275   3.056 -0.7343  0.1531 -0.9395
  697MOL0     C91914   2.891   3.268   3.025 -0.3472  0.4595  0.0297
  697MOL0     C91915   2.930   3.394   2.944  0.2052 -0.4569 -0.4123
  697MOL0    Cl91916   3.114   3.388   2.889  0.6030  0.5276  0.0214
  697MOL0     C91917   2.140   2.669   2.854 -1.0078 -0.0788 -0.2369
  697MOL0     C91918   2.081   2.549   2.826 -0.7016  0.6747  0.2670
  697MOL0     O91919   2.208   2.247   2.843 -0.2151  0.3070 -0.3836
  697MOL0     C91920   2.111   2.073   2.552  0.7783  0.3913  0.7573
  697MOL0     C91921   2.086   1.946   2.507 -0.3484  0.5702 -0.9212
  697MOL0     N91922   1.647   1.731   2.321 -0.8365  0.3849  0.8489
  697MOL0     N91923   1.575   1.773   2.224  0.7683  0.9634 -0.1204
  697MOL0     C91924   1.215   1.764   1.039 -0.4616 -0.7378  0.3997
  697MOL0     C91925   1.191   1.810   0.906  0.8469 -0.3447  0.8733
  697MOL0     C91926   0.903   2.020   0.580  0.2365  0.0853  0.5131
  697MOL0     C91927   1.006   2.041   0.484 -1.1762  0.9020  0.0873
  697MOL0     C91928   0.978   2.123   0.376 -0.0950  0.2963 -0.1092
  697MOL0     C91929   0.858   2.186   0.357  0.2441  0.7597 -0.1458
  697MOL0     O91930   0.843   2.274   0.255 -0.6063  0.2866 -0.4901
  697MOL0     C91931   0.802   2.217   0.130 -0.4753  0.3936 -0.0764
  697MOL0     C91932   0.911   2.229   0.026 -0.0777  0.2445  0.4360
  697MOL0     C91933   0.954   2.371  -0.013 -0.2127  0.0924 -0.1351
  697MOL0     C91934   0.849   2.445  -0.092 -0.2675  0.7096 -0.4877
  697MOL0     C91935   0.870   2.434  -0.239 -0.9422  0.4072 -0.8490
  697MOL0     C91936   0.878   2.438  -0.359 -0.3239 -0.2267 -0.1793
  697MOL0     C91937   0.754   2.145   0.444 -0.7730 -0.6022  0.5318
  697MOL0     C91938   0.775   2.071   0.556 -0.0898  0.1332  0.3449
  697MOL0     H91939   0.915   1.981   0.956 -0.4576 -1.5271 -0.7839
  697MOL0     H91940   0.938   1.911   1.170 -0.5714 -1.6636 -0.2216
  697MOL0     H91941   1.258   1.918   1.278  3.7809  0.3430  1.7168
  697MOL0     H91942   1.320   1.753   1.321 -2.7029 -2.9120  2.1495
  697MOL0     H91943   1.097   1.863   1.464 -0.3064 -1.3889  1.7404
  697MOL0     H91944   1.240   1.950   1.496 -2.4390  1.0632 -0.6479
  697MOL0     H91945   1.348   1.724   1.570 -0.4826 -1.1334  2.5704
  697MOL0     H91946   1.194   1.653   1.558  0.7116  0.1121  0.6318
  697MOL0     H91947   1.263   1.875   1.734 -0.6856  0.5397 -1.7158
  697MOL0     H91948   1.102   1.818   1.722  0.5052  1.1609 -0.4735
  697MOL0     H91949   1.321   1.621   1.808  0.0632 -1.3547  2.1052
  697MOL0     H91950   1.150   1.588   1.807 -0.8399  0.1898  1.0548
  697MOL0     H91951   1.098   1.715   1.981 -0.2035  5.5325  1.0485
  697MOL0     H91952   1.234   1.833   1.963  1.8192 -0.1377  1.0059
  697MOL0     H91953   1.258   1.663   2.165  2.3476 -2.0337  1.6536
  697MOL0     H91954   1.282   1.543   2.048 -3.5981 -0.8628  0.1266
  697MOL0     H91955   1.451   1.797   2.025  0.7647 -0.2132  0.5377
  697MOL0     H91956   1.491   1.638   1.959  1.9004 -1.6570  1.1061
  697MOL0     H91957   1.567   1.449   2.180  1.2682  0.3464  0.8449
  697MOL0     H91958   1.782   1.414   2.336 -2.6844 -0.4002  0.1048
  697MOL0     H91959   1.684   1.452   2.477 -0.4992  1.9062  1.1376
  697MOL0     H91960   1.847   1.672   2.489 -1.5966 -1.2062  1.4146
  697MOL0     H91961   1.933   1.589   2.359 -0.3875 -2.0631 -0.3481
  697MOL0     H91962   1.903   1.456   2.629  0.1522  1.9714  1.4436
  697MOL0     H91963   2.022   1.429   2.493 -1.2150 -0.7470 -0.5005
  697MOL0     H91964   2.119   1.587   2.712 -0.7449 -0.2713  0.4504
  697MOL0     H91965   1.974   1.652   2.716  3.4811  0.6108  1.8586
  697MOL0     H91966   2.180   1.779   2.797  3.7965  0.5686 -0.3977
  697MOL0     H91967   2.212   2.002   2.870 -1.7409 -0.9737  0.5663
  697MOL0     H91968   2.279   2.461   2.556  2.9752  1.8903 -1.9249
  697MOL0     H91969   2.403   2.670   2.636 -0.4662  2.7109  2.7596
  697MOL0     H91970   2.330   2.819   3.023 -2.2658 -0.0330 -0.2488
  697MOL0     H91971   2.218   2.926   2.938 -0.6019 -0.6934  0.3732
  697MOL0     H91972   2.379   3.064   3.036 -0.7506 -3.5246  2.7877
  697MOL0     H91973   2.421   3.065   2.862  0.0116  1.6013  1.1761
  697MOL0     H91974   2.577   2.880   2.903  0.6765  1.6994 -1.7044
  697MOL0     H91975   2.535   2.899   3.076 -2.0026 -1.3821 -0.3848
  697MOL0     H91976   2.753   2.988   2.981 -1.1158 -2.5809 -3.5470
  697MOL0     H91977   2.659   3.104   2.883 -1.1850 -1.5725  0.1603
  697MOL0     H91978   2.732   3.083   3.170 -0.1451  1.6929  3.7891
  697MOL0     H91979   2.576   3.164   3.143 -1.3198  0.2372 -1.8353
  697MOL0     H91980   2.741   3.347   3.138 -1.8074 -3.5756  2.5570
  697MOL0     H91981   2.696   3.322   2.970  0.7838  0.9600 -1.4135
  697MOL0     H91982   2.939   3.262   3.123 -0.8046  1.4184  0.3201
  697MOL0     H91983   2.913   3.179   2.965  1.6556  1.4424 -0.7932
  697MOL0     H91984   2.939   3.478   3.013  2.2225  1.1520 -2.4512
  697MOL0     H91985   2.859   3.417   2.865 -1.0958  0.4330  0.9713
  697MOL0     H91986   2.117   2.743   2.930  0.7751  0.6226 -0.3180
  697MOL0     H91987   1.998   2.517   2.889 -2.6455  0.9908 -1.9759
  697MOL0     H91988   2.097   2.140   2.467 -1.4630 -2.6956 -1.5550
  697MOL0     H91989   2.050   1.932   2.406 -2.3180  1.5374 -0.4060
  697MOL0     H91990   1.304   1.708   1.063  0.5571  0.6271 -0.0144
  697MOL0     H91991   1.251   1.781   0.820  0.0749 -2.8074  1.1003
  697MOL0     H91992   1.104   1.995   0.486 -0.1705  2.8365 -1.0125
  697MOL0     H91993   1.056   2.139   0.303  0.1738 -1.0442 -0.1511
  697MOL0     H91994   0.713   2.272   0.097  0.6322  1.1688 -1.9791
  697MOL0     H91995   0.781   2.110   0.131  2.2275 -0.4626 -4.5560
  697MOL0     H91996   0.998   2.173   0.061 -0.3233  0.8512  2.1219
  697MOL0     H91997   0.871   2.182  -0.064 -0.9947  0.5416  0.6749
  697MOL0     H91998   1.057   2.369  -0.049  0.5250  2.1043  1.6515
  697MOL0     H91999   0.968   2.419   0.085 -1.5355 -1.9739  1.1546
  697MOL0     H92000   0.751   2.400  -0.074  0.6409 -0.6779  1.2534
  697MOL0     H92001   0.855   2.552  -0.069  1.4903  0.5286  0.0250
  697MOL0     H92002   0.884   2.442  -0.466 -0.1165  0.1546 -0.1550
  697MOL0     H92003   0.665   2.198   0.410  0.7988 -0.2279 -3.5870
  697MOL0     H92004   0.689   2.052   0.619 -0.6580  2.3391  0.3176
  698MOL0     O92005   2.427  10.447   2.928 -0.2945 -0.6047  0.5636
  698MOL0     C92006   2.442  10.449   2.804 -0.4395 -0.1376 -0.0761
  698MOL0     O92007   2.518  10.534   2.736  0.0219  0.7007 -0.5741
  698MOL0     C92008   2.585  10.633   2.809  0.2036  0.7428 -0.3615
  698MOL0     C92009   2.715  10.611   2.867 -0.2988  0.0006 -0.5165
  698MOL0     C92010   2.771  10.695   2.967 -0.4874 -0.3706  0.2396
  698MOL0     C92011   2.715  10.825   2.975  0.2099  0.4433 -0.4358
  698MOL0     O92012   2.760  10.913   3.077  0.8297  0.5540  0.1617
  698MOL0     C92013   2.667  11.007   3.127 -0.7759  0.4804 -0.1964
  698MOL0     C92014   2.723  11.082   3.240 -1.2109 -0.7580 -0.3946
  698MOL0     C92015   2.858  11.160   3.208 -0.7642  0.1856 -0.3594
  698MOL0     C92016   2.912  11.220   3.344  0.6347  0.1867  1.4154
  698MOL0     C92017   3.031  11.314   3.315  0.2092 -0.4481 -0.4803
  698MOL0     C92018   3.101  11.366   3.441 -0.3771  1.1344  0.2814
  698MOL0     C92019   3.190  11.255   3.515 -0.5381 -0.2265 -0.4582
  698MOL0     C92020   3.208  11.308   3.656 -0.9864  0.8559  0.5103
  698MOL0     N92021   3.327  11.391   3.641 -0.2070 -0.2224 -1.3518
  698MOL0     C92022   3.321  11.524   3.606 -0.5535  0.3035  0.4827
  698MOL0     C92023   3.443  11.572   3.614  0.7658  0.8049  0.0263
  698MOL0     C92024   3.495  11.717   3.606 -0.2770  0.7105  0.7691
  698MOL0     C92025   3.453  11.793   3.722  0.0090 -0.2660  0.4382
  698MOL0     C92026   3.299  11.820   3.723 -1.1141 -1.0521 -0.4338
  698MOL0     C92027   3.255  11.923   3.822 -0.1081  0.5720 -0.4992
  698MOL0     O92028   3.114  11.929   3.805 -0.3529  0.5892  0.6953
  698MOL0     C92029   3.042  12.026   3.873  0.6017 -0.8166 -0.1542
  698MOL0     C92030   3.093  12.086   3.991 -0.4455  0.3983  1.1380
  698MOL0     C92031   3.026  12.178   4.057 -0.5623 -0.9571  0.9364
  698MOL0     C92032   2.891  12.203   4.028  0.6858  0.5718 -0.3837
  698MOL0     C92033   2.805  12.292   4.105 -0.2581  0.6939 -0.5803
  698MOL0     O92034   2.859  12.360   4.201 -0.5167  0.0564 -0.8979
  698MOL0     C92035   2.775  12.444   4.268  0.8333 -0.1274 -0.3518
  698MOL0     C92036   2.752  12.421   4.396 -0.4128  0.1051  0.0306
  698MOL0     C92037   2.662  12.496   4.480 -0.3885 -0.0738  0.0539
  698MOL0     C92038   2.601  12.607   4.419 -1.2536  0.1341  0.7100
  698MOL0     O92039   2.501  12.668   4.489 -0.8396  0.1918  0.2885
  698MOL0     C92040   2.552  12.791   4.548  0.1743  0.0214 -0.4916
  698MOL0     C92041   2.432  12.867   4.614  1.2392 -0.4194 -0.7593
  698MOL0     C92042   2.368  12.824   4.751  0.5497  0.2746  0.4313
  698MOL0     C92043   2.333  12.667   4.777  0.5219 -0.2525  0.5802
  698MOL0     C92044   2.238  12.649   4.897 -0.2712  0.2618 -1.0997
  698MOL0     C92045   2.097  12.696   4.865  0.0664 -0.3119 -0.0072
  698MOL0     C92046   2.029  12.587   4.780  0.5146 -0.0332  0.8899
  698MOL0     C92047   1.884  12.610   4.759  0.5423  0.2685 -0.0011
  698MOL0    Cl92048   1.843  12.748   4.670  0.1452  0.0341  0.4303
  698MOL0     C92049   2.624  12.636   4.282  0.0682 -0.2096  0.1893
  698MOL0     C92050   2.706  12.544   4.206 -0.3794 -0.7250 -0.1742
  698MOL0     O92051   2.688  12.289   4.071 -0.4730  0.2633 -0.4260
  698MOL0     C92052   2.832  12.134   3.921  0.4058 -0.2203  0.0288
  698MOL0     C92053   2.906  12.048   3.836 -0.2195  0.0224  0.6679
  698MOL0     N92054   3.531  11.471   3.653 -0.3427 -0.2884  0.7291
  698MOL0     N92055   3.460  11.360   3.668 -0.2945  0.3627  0.9617
  698MOL0     C92056   2.586  10.845   2.911  0.2157 -0.3225 -0.0712
  698MOL0     C92057   2.516  10.748   2.834  0.5251  1.1701  0.5206
  698MOL0     C92058   2.358  10.375   2.717  1.0530  0.4468 -0.9279
  698MOL0     C92059   2.259  10.294   2.776 -0.1670  0.0163 -0.3789
  698MOL0     C92060   2.179  10.213   2.704  0.1927 -0.7496 -0.4095
  698MOL0     C92061   2.197  10.207   2.569  0.6016 -0.7406 -0.0993
  698MOL0     O92062   2.133  10.121   2.485 -0.0681  0.1944  0.2505
  698MOL0     C92063   2.042  10.022   2.533  0.5590  0.1797  0.8800
  698MOL0     C92064   1.994   9.923   2.420 -1.1432 -0.7484 -0.2252
  698MOL0     C92065   1.952   9.797   2.478 -0.7294 -0.0865 -0.8114
  698MOL0     C92066   1.891   9.696   2.384  0.5684 -0.5559  0.1029
  698MOL0     C92067   1.899   9.560   2.443 -0.0267 -0.3402 -0.4454
  698MOL0     C92068   1.900   9.459   2.511 -0.3751  0.8663  0.1378
  698MOL0     C92069   2.285  10.294   2.511  0.9312  0.1692  1.1224
  698MOL0     C92070   2.360  10.376   2.580 -0.4810  0.3153 -0.3297
  698MOL0     H92071   2.771  10.521   2.843 -0.5550  0.3151 -2.4379
  698MOL0     H92072   2.851  10.698   3.040 -1.1818 -0.6775  1.0379
  698MOL0     H92073   2.575  10.960   3.163 -0.2600  1.4034  2.5939
  698MOL0     H92074   2.637  11.080   3.050  2.8683  2.0029 -0.3474
  698MOL0     H92075   2.761  11.007   3.310  2.1008 -0.7991 -2.0845
  698MOL0     H92076   2.654  11.147   3.296 -0.5507 -1.9625  1.9584
  698MOL0     H92077   2.829  11.243   3.142 -2.0407  1.3398  1.5565
  698MOL0     H92078   2.941  11.112   3.155 -0.3504 -0.5681  0.9163
  698MOL0     H92079   2.847  11.285   3.403 -0.5604  0.4445 -0.1198
  698MOL0     H92080   2.940  11.132   3.404 -2.1927 -2.4050 -0.8073
  698MOL0     H92081   2.991  11.398   3.258 -3.4807  0.3986  2.8761
  698MOL0     H92082   3.111  11.268   3.256  1.8351  1.5056  0.0966
  698MOL0     H92083   3.032  11.406   3.515  1.8628  3.7291  1.1153
  698MOL0     H92084   3.168  11.444   3.403 -1.3431  1.3670 -1.0049
  698MOL0     H92085   3.130  11.164   3.527  0.2162 -0.9628 -1.9493
  698MOL0     H92086   3.277  11.240   3.451  0.5365 -3.3693  1.5151
  698MOL0     H92087   3.232  11.218   3.713  0.4203 -0.8147 -2.4962
  698MOL0     H92088   3.123  11.352   3.709 -0.9540  2.0324 -0.3615
  698MOL0     H92089   3.235  11.577   3.565 -0.0454 -0.1057 -1.2084
  698MOL0     H92090   3.456  11.769   3.519 -0.5074 -0.5733  0.0715
  698MOL0     H92091   3.601  11.724   3.581 -0.6495  0.4403 -1.0634
  698MOL0     H92092   3.514  11.884   3.731  1.0722 -1.1190  2.7981
  698MOL0     H92093   3.481  11.735   3.811 -2.1658 -0.9634  0.7093
  698MOL0     H92094   3.268  11.852   3.623 -0.2643  0.4142 -0.2574
  698MOL0     H92095   3.250  11.729   3.758 -0.8834 -0.1658  2.5169
  698MOL0     H92096   3.302  12.019   3.797 -0.4809  0.7928 -0.3583
  698MOL0     H92097   3.275  11.881   3.921 -5.8398 -1.1589  0.2776
  698MOL0     H92098   3.200  12.073   4.003 -0.2087 -2.2325 -2.3398
  698MOL0     H92099   3.061  12.227   4.147 -0.3680  0.5763  0.0569
  698MOL0     H92100   2.804  12.343   4.450  1.2302  1.3563  0.3192
  698MOL0     H92101   2.646  12.454   4.579  0.5509  0.9900  0.6966
  698MOL0     H92102   2.593  12.856   4.470  2.2430  0.1521  0.6391
  698MOL0     H92103   2.635  12.774   4.618  1.5961  2.3208 -1.4931
  698MOL0     H92104   2.349  12.878   4.544 -0.2327  2.3895  1.2438
  698MOL0     H92105   2.463  12.968   4.644  0.0410 -0.7997  2.1105
  698MOL0     H92106   2.275  12.880   4.761  1.2416  1.6542 -0.5480
  698MOL0     H92107   2.421  12.857   4.841 -2.6502  0.0269  2.5751
  698MOL0     H92108   2.275  12.637   4.689 -0.6379  0.7728  0.9681
  698MOL0     H92109   2.417  12.596   4.775  2.6116  1.9990  2.6034
  698MOL0     H92110   2.279  12.715   4.974 -3.5827  0.5595  0.6270
  698MOL0     H92111   2.246  12.550   4.944  1.3533  0.7176 -0.3553
  698MOL0     H92112   2.103  12.790   4.811  2.9367  0.7159  1.8382
  698MOL0     H92113   2.032  12.719   4.950 -0.0403 -0.6925  0.0184
  698MOL0     H92114   2.079  12.580   4.683  1.4805  2.3381  1.1477
  698MOL0     H92115   2.035  12.491   4.831  0.0506 -1.0650 -0.9162
  698MOL0     H92116   1.841  12.619   4.859 -3.8178  1.0928 -1.7293
  698MOL0     H92117   1.848  12.518   4.711  0.0325  1.1219 -1.3191
  698MOL0     H92118   2.563  12.716   4.244  1.7173  0.8794 -0.2719
  698MOL0     H92119   2.727  12.571   4.103  1.2736  2.0305  0.7632
  698MOL0     H92120   2.724  12.127   3.906  0.2171 -2.9594  1.8867
  698MOL0     H92121   2.875  11.993   3.748 -0.4350 -2.7496  2.3712
  698MOL0     H92122   2.526  10.934   2.926  2.0130  0.6912  1.5263
  698MOL0     H92123   2.421  10.752   2.781  1.3064 -1.6410 -1.2807
  698MOL0     H92124   2.232  10.298   2.881 -3.8568 -1.8190 -1.0972
  698MOL0     H92125   2.114  10.140   2.751  3.0233 -2.9411  0.4032
  698MOL0     H92126   1.962  10.065   2.596  0.6869 -0.5750  1.5680
  698MOL0     H92127   2.085   9.952   2.605  1.3568  3.4956  3.9713
  698MOL0     H92128   1.918   9.975   2.361  1.3058  0.4419 -2.5338
  698MOL0     H92129   2.074   9.909   2.348  0.5663  1.7417  1.0384
  698MOL0     H92130   1.886   9.818   2.563 -0.9191 -0.9701 -0.7355
  698MOL0     H92131   2.050   9.758   2.505 -1.1424  0.1213  1.1355
  698MOL0     H92132   1.789   9.721   2.354  0.3832 -0.9860  0.3567
  698MOL0     H92133   1.949   9.698   2.292 -1.3921 -0.1610 -1.1907
  698MOL0     H92134   1.916   9.365   2.560  4.3591  0.5212 -1.4746
  698MOL0     H92135   2.304  10.297   2.404 -2.8030  1.3943  0.3349
  698MOL0     H92136   2.429  10.447   2.536  2.4701 -2.1260  0.1000
  699MOL0     O92137   5.700   7.841   1.542  1.4701 -0.1756  1.1825
  699MOL0     C92138   5.823   7.849   1.533 -0.4215  0.7106 -1.4980
  699MOL0     O92139   5.902   7.897   1.628  0.4106 -0.2780 -1.1039
  699MOL0     C92140   5.847   7.996   1.713 -1.2491 -0.3514  1.0874
  699MOL0     C92141   5.873   7.987   1.849  0.4636  0.6100 -0.6174
  699MOL0     C92142   5.814   8.082   1.944 -0.6199 -0.4228  0.0039
  699MOL0     C92143   5.749   8.197   1.901 -0.4388 -0.1776  1.4891
  699MOL0     O92144   5.712   8.292   1.991  0.0452 -0.5464 -0.2299
  699MOL0     C92145   5.587   8.264   2.061  0.3758  1.5306  0.3397
  699MOL0     C92146   5.537   8.379   2.141  0.7199 -0.1186 -0.1237
  699MOL0     C92147   5.629   8.410   2.254  0.0669 -0.3509 -0.2879
  699MOL0     C92148   5.568   8.531   2.336  0.3282 -0.6742  0.6319
  699MOL0     C92149   5.645   8.569   2.464 -0.3678  0.4802 -0.7809
  699MOL0     C92150   5.655   8.455   2.573  0.3275 -0.5416 -0.2272
  699MOL0     C92151   5.731   8.500   2.700  0.0473 -0.9183  0.1349
  699MOL0     C92152   5.691   8.424   2.822 -0.1173 -0.1680  0.1205
  699MOL0     N92153   5.711   8.280   2.817  0.4335 -0.7223 -0.1246
  699MOL0     C92154   5.775   8.217   2.916 -0.0702  0.3342 -0.4940
  699MOL0     C92155   5.739   8.087   2.890 -0.9852  0.1908 -0.5786
  699MOL0     C92156   5.772   7.976   2.985 -0.3947 -0.2897  0.1976
  699MOL0     C92157   5.908   7.926   2.935 -0.0010  0.4363 -0.8998
  699MOL0     C92158   5.966   7.820   3.033  0.7283 -0.2557 -0.6126
  699MOL0     C92159   5.995   7.861   3.176  0.4572  1.0538 -0.1122
  699MOL0     O92160   6.067   7.985   3.160  0.3307 -0.0548 -0.2670
  699MOL0     C92161   6.148   8.018   3.267  0.1298 -0.8881 -1.1604
  699MOL0     C92162   6.227   7.924   3.320 -1.0288 -0.7045 -1.3009
  699MOL0     C92163   6.334   7.955   3.417 -0.3154 -0.4496  0.2175
  699MOL0     C92164   6.361   8.094   3.447  0.1573  0.2468 -0.4309
  699MOL0     C92165   6.462   8.121   3.548 -0.2665  0.4972 -0.3372
  699MOL0     O92166   6.452   8.243   3.601 -0.2561 -1.1091  0.2333
  699MOL0     C92167   6.574   8.308   3.638 -0.0035  0.2104  0.8272
  699MOL0     C92168   6.601   8.360   3.761  0.9901  0.2163 -0.4629
  699MOL0     C92169   6.718   8.433   3.793 -0.7307  0.5910  0.0928
  699MOL0     C92170   6.810   8.464   3.687  0.6594 -0.1776 -0.0997
  699MOL0     O92171   6.923   8.544   3.698  0.5414 -0.1610 -0.5498
  699MOL0     C92172   6.937   8.602   3.832 -0.1174 -0.0783  0.7144
  699MOL0     C92173   7.027   8.726   3.840 -0.1007 -0.3454 -0.1608
  699MOL0     C92174   7.170   8.695   3.786  0.8999  0.0104  0.6440
  699MOL0     C92175   7.253   8.819   3.777 -1.2356  0.0353 -0.0394
  699MOL0     C92176   7.400   8.785   3.737  0.6563  0.6587  0.0912
  699MOL0     C92177   7.419   8.780   3.581 -1.0009  0.3388 -0.8514
  699MOL0     C92178   7.573   8.763   3.560 -0.1845 -0.3656  0.4034
  699MOL0     C92179   7.612   8.778   3.420 -0.2423 -0.3848  0.5005
  699MOL0    Cl92180   7.567   8.621   3.339  0.4001 -0.1644 -0.3495
  699MOL0     C92181   6.777   8.411   3.558  0.4273  0.7209 -0.4824
  699MOL0     C92182   6.664   8.343   3.537  0.0149 -0.7436  0.3985
  699MOL0     O92183   6.551   8.049   3.540  0.2411 -0.2658  0.0508
  699MOL0     C92184   6.280   8.193   3.382 -0.2881  0.9482  1.4791
  699MOL0     C92185   6.168   8.152   3.305 -0.3260  0.4151 -0.3085
  699MOL0     N92186   5.674   8.070   2.774 -0.2817 -0.8273  0.0844
  699MOL0     N92187   5.663   8.190   2.726 -0.0013  0.2603 -1.1097
  699MOL0     C92188   5.746   8.214   1.758  0.0641 -1.0631  0.3893
  699MOL0     C92189   5.786   8.116   1.669 -0.0401  0.2536  0.6455
  699MOL0     C92190   5.914   7.803   1.415 -0.4024  0.1423 -0.6089
  699MOL0     C92191   6.048   7.753   1.432 -0.3824  0.4754 -0.4352
  699MOL0     C92192   6.108   7.706   1.320  0.1989  0.5396  0.4990
  699MOL0     C92193   6.040   7.667   1.200 -0.2994 -0.5711 -0.4669
  699MOL0     O92194   6.089   7.623   1.079 -0.4198 -0.4577 -0.9538
  699MOL0     C92195   6.213   7.553   1.066 -0.3414  0.3567 -0.0077
  699MOL0     C92196   6.184   7.404   1.058 -0.0842 -0.2917  0.3645
  699MOL0     C92197   6.283   7.303   1.008  0.2057 -0.1774  0.4554
  699MOL0     C92198   6.219   7.201   0.912  0.1736 -0.4127 -0.8594
  699MOL0     C92199   6.312   7.086   0.898  0.8403 -0.5636 -0.0283
  699MOL0     C92200   6.396   7.001   0.886  0.5416 -0.1455 -0.2961
  699MOL0     C92201   5.906   7.701   1.192  0.2885  0.4889  0.6599
  699MOL0     C92202   5.843   7.756   1.300 -0.7054  0.5821  1.1160
  699MOL0     H92203   5.924   7.903   1.895 -1.2100 -0.6175 -0.9106
  699MOL0     H92204   5.848   8.078   2.047  1.8643 -0.8289 -0.7640
  699MOL0     H92205   5.594   8.176   2.126  1.0883  1.5474  0.2915
  699MOL0     H92206   5.504   8.247   1.992  0.9018 -3.5631  0.5886
  699MOL0     H92207   5.447   8.336   2.186 -1.5294  1.9772 -2.3814
  699MOL0     H92208   5.516   8.473   2.090 -1.6113  0.3496  1.5271
  699MOL0     H92209   5.726   8.449   2.221  2.5670 -3.3132  2.9033
  699MOL0     H92210   5.658   8.331   2.323  1.9464  2.6880  2.7107
  699MOL0     H92211   5.561   8.622   2.276 -1.0573 -0.1546  1.5210
  699MOL0     H92212   5.467   8.503   2.368  1.0450 -2.6455  1.2802
  699MOL0     H92213   5.593   8.651   2.513  0.7247 -0.0299  1.3597
  699MOL0     H92214   5.745   8.604   2.436  1.1574 -1.8369  1.3516
  699MOL0     H92215   5.702   8.365   2.532 -1.6413 -0.5489 -2.6942
  699MOL0     H92216   5.553   8.421   2.593  0.5487 -0.4757  1.0624
  699MOL0     H92217   5.839   8.492   2.684  0.2544 -2.3255  1.9814
  699MOL0     H92218   5.715   8.603   2.731 -0.5272 -0.8255 -0.4312
  699MOL0     H92219   5.587   8.451   2.843 -0.0980  1.1963 -1.3057
  699MOL0     H92220   5.738   8.470   2.909 -2.3492  1.2295  0.6689
  699MOL0     H92221   5.840   8.246   2.998  1.6312  0.6084 -1.8816
  699MOL0     H92222   5.683   7.913   2.979 -3.1650  3.4203 -2.9126
  699MOL0     H92223   5.767   7.997   3.093 -0.8416 -0.7119  0.2659
  699MOL0     H92224   5.977   8.010   2.947 -1.7509  1.8116  0.0947
  699MOL0     H92225   5.897   7.898   2.830 -2.3925  1.4043 -0.9820
  699MOL0     H92226   5.899   7.734   3.045  2.3181 -1.3475  1.0100
  699MOL0     H92227   6.056   7.782   2.984  1.1366 -0.7718  0.4909
  699MOL0     H92228   6.043   7.774   3.221 -3.1287  0.2206  2.5442
  699MOL0     H92229   5.901   7.884   3.228 -0.3161 -1.1982 -0.4171
  699MOL0     H92230   6.225   7.821   3.285 -1.1450 -1.0507 -0.3135
  699MOL0     H92231   6.397   7.881   3.466  1.4184  0.0024 -1.2366
  699MOL0     H92232   6.539   8.335   3.846 -0.1625  3.2257 -0.3068
  699MOL0     H92233   6.746   8.464   3.893 -0.2583 -0.8624  0.4430
  699MOL0     H92234   6.965   8.523   3.903  3.0434 -0.9332 -1.2782
  699MOL0     H92235   6.836   8.642   3.844 -0.4603 -0.1031 -1.7155
  699MOL0     H92236   7.018   8.760   3.943  2.1807 -3.7015  1.3246
  699MOL0     H92237   6.974   8.797   3.775 -0.9170 -0.8008 -0.0218
  699MOL0     H92238   7.170   8.658   3.683 -0.3918  1.9459 -0.0934
  699MOL0     H92239   7.211   8.617   3.852 -1.5148 -2.5736 -0.6620
  699MOL0     H92240   7.208   8.893   3.710  1.1302  2.4833  0.9378
  699MOL0     H92241   7.257   8.863   3.876  2.9006 -0.5218  0.2124
  699MOL0     H92242   7.424   8.688   3.781 -1.9022 -0.9358 -1.7887
  699MOL0     H92243   7.456   8.874   3.770  0.3573  1.0893 -0.5357
  699MOL0     H92244   7.388   8.878   3.543 -1.4186  0.5941  0.1151
  699MOL0     H92245   7.352   8.712   3.527 -0.9972 -0.9595  0.7121
  699MOL0     H92246   7.617   8.852   3.606  2.4429 -1.2341 -0.2342
  699MOL0     H92247   7.619   8.680   3.614 -0.1959  1.8805  4.2485
  699MOL0     H92248   7.721   8.793   3.416  0.3898 -3.2382  3.1117
  699MOL0     H92249   7.563   8.863   3.371  2.0029  2.2805  2.5580
  699MOL0     H92250   6.834   8.438   3.470 -0.7193 -0.9388 -1.8073
  699MOL0     H92251   6.647   8.304   3.437  1.0681 -4.0561  1.3796
  699MOL0     H92252   6.288   8.300   3.397  2.5610  1.0613 -0.1350
  699MOL0     H92253   6.100   8.223   3.260 -0.5623  0.3244 -0.0983
  699MOL0     H92254   5.706   8.305   1.716  3.1370  1.0965  1.8046
  699MOL0     H92255   5.765   8.129   1.563  1.9631  0.6454  0.2614
  699MOL0     H92256   6.110   7.770   1.519 -1.9893  0.0626  0.8366
  699MOL0     H92257   6.217   7.703   1.326  0.3425  2.4343 -0.4076
  699MOL0     H92258   6.285   7.573   1.146 -1.8104 -0.0705  1.4750
  699MOL0     H92259   6.275   7.583   0.980 -0.3887 -1.4999 -0.7345
  699MOL0     H92260   6.136   7.377   1.152  0.9290  0.3539  1.0824
  699MOL0     H92261   6.101   7.398   0.987 -0.2888 -2.2006  0.7276
  699MOL0     H92262   6.332   7.257   1.094  2.1617 -0.0178 -0.5292
  699MOL0     H92263   6.355   7.354   0.944 -2.5317 -1.3827 -4.0272
  699MOL0     H92264   6.131   7.162   0.965 -1.5664  3.9380 -0.0594
  699MOL0     H92265   6.196   7.254   0.820 -0.2940  0.8613 -0.0396
  699MOL0     H92266   6.466   6.920   0.888 -0.8966 -1.4347 -0.2706
  699MOL0     H92267   5.848   7.671   1.106 -5.4566  1.0991  3.8374
  699MOL0     H92268   5.735   7.771   1.307 -0.7047  0.3321  1.7324
  700MOL0     O92269  11.386   6.111   1.499 -0.2986 -0.5197 -0.0321
  700MOL0     C92270  11.320   6.099   1.599 -0.0073 -0.1196 -0.6677
  700MOL0     O92271  11.218   6.183   1.634  0.0846  0.4732 -0.8743
  700MOL0     C92272  11.132   6.234   1.537  0.0883 -1.1538 -0.0155
  700MOL0     C92273  11.058   6.356   1.563 -1.6288  0.4010 -0.2002
  700MOL0     C92274  10.987   6.415   1.458 -0.2545  0.3138 -1.0347
  700MOL0     C92275  10.993   6.359   1.328 -0.8266 -0.6216 -0.7293
  700MOL0     O92276  10.946   6.447   1.228  0.6053 -0.0011 -0.2320
  700MOL0     C92277  11.021   6.453   1.111  0.2185 -0.1554  0.1882
  700MOL0     C92278  11.070   6.586   1.076 -0.1276 -0.0909 -0.3628
  700MOL0     C92279  10.947   6.666   1.025  0.7025 -0.3404  0.9703
  700MOL0     C92280  10.988   6.803   0.961 -0.3050  0.3241 -0.1762
  700MOL0     C92281  10.864   6.863   0.889  0.4188 -0.6830 -0.4718
  700MOL0     C92282  10.847   7.016   0.899  0.1425 -1.5686 -0.6829
  700MOL0     C92283  10.748   7.069   0.789 -1.4116 -0.1342  0.0810
  700MOL0     C92284  10.609   7.081   0.844  1.2756  0.0367  0.7574
  700MOL0     N92285  10.504   7.047   0.744  0.3036  0.9737  0.5552
  700MOL0     C92286  10.415   7.131   0.687 -0.0219  0.0621  0.4127
  700MOL0     C92287  10.344   7.057   0.606  1.5152 -0.3420 -0.8800
  700MOL0     C92288  10.221   7.102   0.530 -0.0525  0.0404  0.6108
  700MOL0     C92289  10.155   6.978   0.471 -0.1798 -0.4119  0.5770
  700MOL0     C92290  10.036   7.022   0.376 -0.1460 -0.0784 -0.3198
  700MOL0     C92291   9.992   6.916   0.274  0.0694  0.1257  0.8299
  700MOL0     O92292  10.068   6.910   0.155  0.9372 -0.2648  1.0095
  700MOL0     C92293  10.160   6.810   0.131  0.1540  0.1796 -0.7122
  700MOL0     C92294  10.121   6.676   0.137  0.4958 -1.0012 -0.6353
  700MOL0     C92295  10.200   6.565   0.113  0.5592 -0.0120  0.2300
  700MOL0     C92296  10.339   6.583   0.080  1.4693 -0.8807  0.5353
  700MOL0     C92297  10.430   6.465   0.059 -0.0696  0.4755  0.3257
  700MOL0     O92298  10.551   6.504   0.018  0.1316  0.0537  0.5156
  700MOL0     C92299  10.646   6.405  -0.011 -1.1989 -0.9782  0.5411
  700MOL0     C92300  10.741   6.453  -0.109  0.4207 -0.8841  1.1997
  700MOL0     C92301  10.841   6.374  -0.152  0.4219  0.4985 -0.7186
  700MOL0     C92302  10.855   6.251  -0.084 -0.5190 -0.1194 -0.0557
  700MOL0     O92303  10.950   6.159  -0.112  0.0082 -0.1283  0.2806
  700MOL0     C92304  10.999   6.141  -0.249  0.9372 -0.1609  0.0055
  700MOL0     C92305  10.879   6.118  -0.345  0.7561  1.1658  0.0209
  700MOL0     C92306  10.794   6.002  -0.304  0.2058  0.2153  0.2521
  700MOL0     C92307  10.659   6.028  -0.359  0.3999  0.0288 -0.1257
  700MOL0     C92308  10.553   5.946  -0.299  1.5218 -0.8538  0.1871
  700MOL0     C92309  10.499   5.998  -0.166  0.4579  0.0442 -0.9872
  700MOL0     C92310  10.356   5.951  -0.139 -0.2374  0.0775 -0.2473
  700MOL0     C92311  10.301   6.017  -0.012  0.2515  0.0136  0.6303
  700MOL0    Cl92312  10.132   5.983   0.005 -0.1491  0.4395 -0.0348
  700MOL0     C92313  10.765   6.206   0.011 -0.7322 -0.6806 -0.6040
  700MOL0     C92314  10.657   6.290   0.056 -0.2096 -0.2790  0.0561
  700MOL0     O92315  10.385   6.354   0.083  0.3172 -0.1357  0.6789
  700MOL0     C92316  10.382   6.716   0.066  0.4334 -1.2877 -0.1364
  700MOL0     C92317  10.293   6.825   0.086  0.5483 -1.2790 -0.0760
  700MOL0     N92318  10.382   6.929   0.620 -0.4893 -0.0542 -0.3206
  700MOL0     N92319  10.482   6.925   0.703 -0.0631  0.4100  0.2034
  700MOL0     C92320  11.061   6.241   1.303  0.2403 -1.2481  0.1518
  700MOL0     C92321  11.113   6.174   1.409 -0.5500  0.1947 -0.1891
  700MOL0     C92322  11.353   6.007   1.703 -0.5924 -0.2840 -0.1399
  700MOL0     C92323  11.470   5.942   1.709 -1.0313  1.4471  0.4643
  700MOL0     C92324  11.494   5.853   1.817  0.5585 -0.2977 -0.1476
  700MOL0     C92325  11.402   5.851   1.929  0.4617  0.5020  0.1098
  700MOL0     O92326  11.425   5.802   2.055 -0.6123 -0.1556 -0.0943
  700MOL0     C92327  11.530   5.703   2.068  0.1075  0.1760  0.2157
  700MOL0     C92328  11.670   5.757   2.091  0.3210  0.1940 -0.4756
  700MOL0     C92329  11.699   5.815   2.234  0.4861 -0.0397 -0.3022
  700MOL0     C92330  11.682   5.717   2.345 -0.5484 -0.3636  0.4040
  700MOL0     C92331  11.750   5.757   2.473  0.3090 -0.6802 -0.4840
  700MOL0     C92332  11.785   5.779   2.589 -0.1883  0.7376 -0.3531
  700MOL0     C92333  11.295   5.930   1.926 -0.1230 -0.7087 -0.6205
  700MOL0     C92334  11.260   5.986   1.811  0.2366  0.6413 -0.4506
  700MOL0     H92335  11.070   6.403   1.660  1.5686  0.3100 -0.4411
  700MOL0     H92336  10.943   6.510   1.485 -0.6676 -0.9403  3.5051
  700MOL0     H92337  10.947   6.419   1.038 -0.0732  2.2466 -0.7553
  700MOL0     H92338  11.112   6.392   1.112  0.0798 -0.3721 -0.2309
  700MOL0     H92339  11.135   6.574   0.989  1.8479 -0.2900  1.0714
  700MOL0     H92340  11.126   6.647   1.147  0.5539  2.2599 -2.7667
  700MOL0     H92341  10.881   6.695   1.107  0.7863  0.4132  0.7823
  700MOL0     H92342  10.892   6.611   0.948  1.9973  1.5749 -1.4859
  700MOL0     H92343  11.023   6.876   1.035 -2.1397  0.3864  0.6719
  700MOL0     H92344  11.059   6.795   0.879  0.5126  1.8064  0.3387
  700MOL0     H92345  10.768   6.827   0.927  0.0322  0.3304 -0.4634
  700MOL0     H92346  10.860   6.842   0.781 -1.7135 -1.0321 -0.3690
  700MOL0     H92347  10.946   7.058   0.880  1.0100 -2.4982  1.4634
  700MOL0     H92348  10.820   7.043   1.001  3.2720 -1.0264  0.0961
  700MOL0     H92349  10.773   7.172   0.762 -1.2053  0.7028  3.0780
  700MOL0     H92350  10.741   7.007   0.699 -3.4957 -1.1505  0.8734
  700MOL0     H92351  10.605   7.185   0.875  1.4340  0.6883 -1.2309
  700MOL0     H92352  10.611   7.016   0.932  4.6785  0.2883  1.0017
  700MOL0     H92353  10.397   7.232   0.723 -3.7706 -0.4134  0.2831
  700MOL0     H92354  10.239   7.180   0.455  2.3036  2.5434  3.5324
  700MOL0     H92355  10.156   7.144   0.608 -0.0582 -0.0073  0.6318
  700MOL0     H92356  10.124   6.913   0.553 -1.5306  0.0900  0.4831
  700MOL0     H92357  10.228   6.926   0.407 -0.9380 -3.4135  1.9837
  700MOL0     H92358   9.944   7.035   0.434  1.0704 -0.3847  1.7705
  700MOL0     H92359  10.080   7.110   0.327  4.0917 -1.5575  0.3782
  700MOL0     H92360   9.892   6.940   0.239  0.6881 -1.3040 -2.1968
  700MOL0     H92361   9.983   6.817   0.319  0.9423 -1.1223 -1.5438
  700MOL0     H92362  10.019   6.657   0.168 -0.4600  0.1879 -2.8326
  700MOL0     H92363  10.155   6.467   0.126 -3.4730  1.9335  3.0607
  700MOL0     H92364  10.729   6.548  -0.160 -2.6855 -2.0044 -0.3949
  700MOL0     H92365  10.913   6.401  -0.229  1.6901 -1.0097 -0.1173
  700MOL0     H92366  11.066   6.055  -0.251 -0.1210 -1.0205  0.2561
  700MOL0     H92367  11.056   6.228  -0.282 -0.3757  2.0346  3.0136
  700MOL0     H92368  10.917   6.103  -0.446 -0.4982 -0.0341 -0.3046
  700MOL0     H92369  10.818   6.209  -0.351 -0.9045  0.0141 -1.7377
  700MOL0     H92370  10.799   5.980  -0.197  1.5218 -0.2958  0.0957
  700MOL0     H92371  10.824   5.906  -0.346 -2.1350 -2.1727  3.4740
  700MOL0     H92372  10.634   6.135  -0.362  3.9765  0.9623 -1.8308
  700MOL0     H92373  10.667   5.997  -0.464  1.4437  1.4863 -0.5042
  700MOL0     H92374  10.591   5.843  -0.295  3.5955 -0.2495 -1.7264
  700MOL0     H92375  10.465   5.950  -0.364  1.0585  0.0710  0.8411
  700MOL0     H92376  10.491   6.107  -0.169 -1.8170 -0.0631 -5.4060
  700MOL0     H92377  10.554   5.968  -0.076  1.0470  2.6144 -0.3938
  700MOL0     H92378  10.293   5.980  -0.223  1.1264 -3.2303 -2.6206
  700MOL0     H92379  10.356   5.842  -0.129  3.9376  0.0071  1.2017
  700MOL0     H92380  10.316   6.124  -0.027 -0.6086 -0.3506 -5.1060
  700MOL0     H92381  10.352   5.989   0.081 -1.4368 -1.5946  1.1316
  700MOL0     H92382  10.781   6.111   0.061  0.0270 -1.0464 -1.5026
  700MOL0     H92383  10.587   6.245   0.126  0.5675 -2.0154 -0.2196
  700MOL0     H92384  10.486   6.742   0.052  0.3076  0.7452  2.1935
  700MOL0     H92385  10.326   6.928   0.070  0.2046 -0.9101  1.4686
  700MOL0     H92386  11.062   6.191   1.206 -0.3929  0.7095 -0.9290
  700MOL0     H92387  11.157   6.076   1.398  0.3046  0.5875 -0.2960
  700MOL0     H92388  11.550   5.940   1.636 -2.4775  2.7324 -1.2390
  700MOL0     H92389  11.578   5.784   1.819 -0.4363 -1.5354  0.7252
  700MOL0     H92390  11.527   5.630   1.986  1.1612  0.8990 -0.4934
  700MOL0     H92391  11.503   5.635   2.149  1.2815  1.6740  1.9440
  700MOL0     H92392  11.736   5.672   2.069 -1.7635 -1.3779 -1.0131
  700MOL0     H92393  11.686   5.827   2.008 -4.3748  1.5815 -0.5143
  700MOL0     H92394  11.645   5.909   2.251  0.7684 -0.4205  3.7036
  700MOL0     H92395  11.805   5.843   2.230  1.2569 -2.6585 -0.1068
  700MOL0     H92396  11.573   5.724   2.357 -0.3441 -2.0934  5.6220
  700MOL0     H92397  11.709   5.620   2.302 -0.6821  0.7485 -2.3922
  700MOL0     H92398  11.795   5.802   2.693 -3.3142 -1.0810  0.4728
  700MOL0     H92399  11.234   5.949   2.014 -4.2864 -0.2285 -3.2971
  700MOL0     H92400  11.182   6.061   1.820  2.7751  3.3258  1.1108
  701MOL0     O92401   7.372   8.932   6.414 -0.0406 -0.0647 -0.7603
  701MOL0     C92402   7.369   9.041   6.476 -0.3809  0.1473 -0.3225
  701MOL0     O92403   7.256   9.094   6.544  0.2727 -0.2031 -0.8384
  701MOL0     C92404   7.149   9.011   6.541 -1.3133 -0.7235 -0.1222
  701MOL0     C92405   7.033   9.056   6.482 -0.2705 -0.1391  1.1554
  701MOL0     C92406   6.917   8.978   6.485  0.7270  0.4449 -1.2256
  701MOL0     C92407   6.924   8.838   6.509  1.7103  0.1033 -0.6496
  701MOL0     O92408   6.826   8.751   6.486  0.6441  0.1952 -0.0503
  701MOL0     C92409   6.759   8.756   6.361 -0.4357 -0.6677  0.2437
  701MOL0     C92410   6.659   8.642   6.340 -1.3855 -0.0972  0.1999
  701MOL0     C92411   6.574   8.647   6.213  0.0933 -0.1668 -0.1568
  701MOL0     C92412   6.450   8.741   6.226 -0.1910  0.5458  0.8070
  701MOL0     C92413   6.334   8.694   6.138  0.4473 -0.9457 -0.0593
  701MOL0     C92414   6.338   8.746   5.993 -0.1224 -0.8898  0.7479
  701MOL0     C92415   6.249   8.668   5.896  0.0452  0.1988  0.2999
  701MOL0     C92416   6.239   8.745   5.754  0.7223  0.0332  0.4993
  701MOL0     N92417   6.162   8.870   5.762  0.1446  0.7391  1.0620
  701MOL0     C92418   6.033   8.863   5.721  0.5792 -0.7059  0.1665
  701MOL0     C92419   6.017   8.986   5.665  0.3051  0.0190 -0.2100
  701MOL0     C92420   5.893   9.057   5.616  0.4945  0.4943  1.4210
  701MOL0     C92421   5.757   9.010   5.674  0.5674  0.0191  1.2103
  701MOL0     C92422   5.654   8.984   5.556 -0.3704  0.3140 -1.6528
  701MOL0     C92423   5.512   8.942   5.618  0.0476  0.1804 -0.4961
  701MOL0     O92424   5.538   8.803   5.645  1.0961 -0.2614  0.2368
  701MOL0     C92425   5.440   8.717   5.694 -0.6199 -0.1235  1.0795
  701MOL0     C92426   5.315   8.757   5.738  0.6914  0.7178  0.2006
  701MOL0     C92427   5.228   8.662   5.782  0.9263  0.9663  0.8660
  701MOL0     C92428   5.258   8.522   5.796 -1.1730  0.9517 -0.5745
  701MOL0     C92429   5.178   8.414   5.850 -1.1744 -0.8924  0.5266
  701MOL0     O92430   5.241   8.293   5.862 -0.2191  0.5128  0.3882
  701MOL0     C92431   5.184   8.180   5.913 -0.6072 -0.3189 -0.0979
  701MOL0     C92432   5.231   8.063   5.850 -0.6002 -0.4039  0.4733
  701MOL0     C92433   5.175   7.934   5.880  0.4245 -0.0195  0.4641
  701MOL0     C92434   5.082   7.919   5.983 -0.5789 -0.7593 -0.7703
  701MOL0     O92435   5.041   7.801   6.028  0.0700  0.4253 -0.7786
  701MOL0     C92436   5.092   7.687   5.961 -0.7982  0.7070  0.2269
  701MOL0     C92437   5.040   7.550   6.012  0.9137 -0.3577 -0.3186
  701MOL0     C92438   5.059   7.514   6.158  1.0135 -0.3430 -0.1557
  701MOL0     C92439   5.209   7.525   6.198  0.7415 -0.5282  0.1489
  701MOL0     C92440   5.250   7.447   6.326 -0.4123  0.4257  0.9144
  701MOL0     C92441   5.183   7.503   6.446 -0.3919  1.1622 -0.2177
  701MOL0     C92442   5.207   7.410   6.575  0.6826 -0.1480 -0.5637
  701MOL0     C92443   5.081   7.412   6.656 -1.2417 -0.8426  0.1901
  701MOL0    Cl92444   5.062   7.581   6.723  0.2932  0.3329  0.5601
  701MOL0     C92445   5.049   8.042   6.053 -0.4530  0.0660  0.4000
  701MOL0     C92446   5.097   8.162   6.017  0.1515 -0.1679  0.2104
  701MOL0     O92447   5.061   8.436   5.883 -0.1285 -0.3759  0.2613
  701MOL0     C92448   5.389   8.484   5.763 -0.5034  0.7019  0.3082
  701MOL0     C92449   5.476   8.575   5.710  0.2153 -0.3967 -0.0736
  701MOL0     N92450   6.141   9.058   5.659  0.9425  0.2533 -0.9172
  701MOL0     N92451   6.223   8.988   5.734  0.0653 -0.6848  0.2011
  701MOL0     C92452   7.044   8.789   6.568  0.4106 -0.2971 -0.5917
  701MOL0     C92453   7.151   8.877   6.586  0.2993  0.2445 -1.0825
  701MOL0     C92454   7.506   9.109   6.502  0.1431  0.4194  0.2277
  701MOL0     C92455   7.623   9.052   6.472 -0.9412 -0.4945  0.3378
  701MOL0     C92456   7.752   9.114   6.501 -0.5510  0.2406  0.1151
  701MOL0     C92457   7.755   9.244   6.555  0.1538  0.2403 -0.6695
  701MOL0     O92458   7.877   9.291   6.597 -0.6004 -0.4615  0.3875
  701MOL0     C92459   7.885   9.388   6.697 -0.2547  0.0538  0.0866
  701MOL0     C92460   8.026   9.409   6.745  0.3993 -0.5252 -0.3921
  701MOL0     C92461   8.040   9.518   6.858  0.7563  0.9997 -0.8511
  701MOL0     C92462   8.177   9.576   6.868  0.0389 -0.3820  0.5119
  701MOL0     C92463   8.275   9.469   6.872  0.6486  0.3893  0.1771
  701MOL0     C92464   8.349   9.372   6.863 -0.4649  0.1034 -0.3516
  701MOL0     C92465   7.632   9.313   6.573  1.1194 -0.4685 -1.0340
  701MOL0     C92466   7.509   9.237   6.559 -0.6406 -0.7943  0.3721
  701MOL0     H92467   7.030   9.156   6.440  0.4601 -1.2848 -1.8429
  701MOL0     H92468   6.818   9.012   6.455  1.4253  0.0180 -4.3599
  701MOL0     H92469   6.831   8.739   6.280 -2.5480 -4.5066 -1.0880
  701MOL0     H92470   6.699   8.845   6.346 -1.3339 -1.3516 -0.2945
  701MOL0     H92471   6.587   8.637   6.423  0.0737 -0.7603  1.4973
  701MOL0     H92472   6.718   8.550   6.344  0.9847  1.2512  5.4792
  701MOL0     H92473   6.541   8.547   6.183 -1.2319 -0.1043  0.9782
  701MOL0     H92474   6.628   8.677   6.123 -3.4620 -0.4909 -2.5995
  701MOL0     H92475   6.405   8.725   6.325 -0.3556  0.7380  0.7652
  701MOL0     H92476   6.486   8.843   6.211 -0.8449  0.8677  1.3567
  701MOL0     H92477   6.234   8.724   6.172 -0.7252 -1.0547 -3.1322
  701MOL0     H92478   6.330   8.585   6.128  0.3602 -0.8390 -1.3823
  701MOL0     H92479   6.444   8.742   5.966 -0.1327  2.3135 -0.1388
  701MOL0     H92480   6.313   8.853   5.992 -0.7566 -0.7571 -4.8962
  701MOL0     H92481   6.284   8.565   5.888 -1.4063 -0.3591  0.8169
  701MOL0     H92482   6.155   8.649   5.948  0.0451  1.2349  0.6966
  701MOL0     H92483   6.199   8.679   5.676  1.0133  1.0826 -0.5763
  701MOL0     H92484   6.339   8.784   5.730  0.7205 -0.2256  0.0665
  701MOL0     H92485   5.959   8.784   5.734  0.9691 -1.1081 -0.0401
  701MOL0     H92486   5.897   9.044   5.507 -0.2089  1.7961  1.2146
  701MOL0     H92487   5.898   9.166   5.627  0.6921  0.4207  2.1199
  701MOL0     H92488   5.714   9.087   5.740  2.6900  3.2926 -0.9579
  701MOL0     H92489   5.782   8.915   5.722  0.7875 -1.9368 -2.4823
  701MOL0     H92490   5.637   9.076   5.499 -1.7354  0.2612 -1.3537
  701MOL0     H92491   5.692   8.913   5.482  0.4296 -2.7466  1.4356
  701MOL0     H92492   5.434   8.956   5.543  1.8271 -0.7834 -2.6383
  701MOL0     H92493   5.483   9.002   5.704 -1.6983 -1.7615  0.3447
  701MOL0     H92494   5.293   8.863   5.747  2.8444  1.0674  2.5145
  701MOL0     H92495   5.135   8.703   5.817 -0.6662 -1.5540 -0.1299
  701MOL0     H92496   5.290   8.077   5.760 -2.9745 -1.0708 -1.2885
  701MOL0     H92497   5.218   7.856   5.817 -1.8002 -0.0550 -1.1110
  701MOL0     H92498   5.201   7.689   5.974 -0.8048  2.5586  0.3390
  701MOL0     H92499   5.069   7.686   5.855 -0.7857 -3.3175  0.1058
  701MOL0     H92500   5.077   7.464   5.955 -0.2928 -2.2821  1.6624
  701MOL0     H92501   4.932   7.559   5.995  0.8419 -1.9918 -0.8994
  701MOL0     H92502   5.025   7.413   6.180  3.1761 -1.5936 -2.0908
  701MOL0     H92503   4.997   7.587   6.212 -0.7955 -0.4819 -1.8803
  701MOL0     H92504   5.266   7.493   6.110 -0.7286 -1.8302 -0.3819
  701MOL0     H92505   5.225   7.633   6.205  1.7648 -0.5817 -1.0187
  701MOL0     H92506   5.359   7.460   6.328 -0.1215 -1.7053  1.2379
  701MOL0     H92507   5.211   7.346   6.307  2.5818 -1.2122  2.6465
  701MOL0     H92508   5.078   7.522   6.423  0.0286  1.3659 -2.0770
  701MOL0     H92509   5.230   7.601   6.462  0.7033  0.6746 -0.3700
  701MOL0     H92510   5.241   7.310   6.547 -0.3434 -0.3069 -1.3270
  701MOL0     H92511   5.286   7.471   6.619 -0.2667  2.3515 -2.1053
  701MOL0     H92512   5.077   7.343   6.740  0.4176  0.1434  1.1442
  701MOL0     H92513   4.988   7.392   6.603 -1.7562 -0.1141  0.7878
  701MOL0     H92514   4.985   8.028   6.139  0.9200  3.2417  2.1365
  701MOL0     H92515   5.074   8.252   6.072 -0.2751 -0.6103  0.7618
  701MOL0     H92516   5.433   8.385   5.759  0.5304  1.1824 -0.9930
  701MOL0     H92517   5.578   8.541   5.694  0.0736 -0.5982 -0.5601
  701MOL0     H92518   7.059   8.682   6.581 -1.6311 -0.9989 -3.1627
  701MOL0     H92519   7.247   8.840   6.622  0.4021 -1.5802 -3.0664
  701MOL0     H92520   7.633   8.949   6.437 -0.1922 -0.8895  1.6427
  701MOL0     H92521   7.850   9.068   6.500  0.3885  2.1520 -0.7267
  701MOL0     H92522   7.810   9.362   6.772 -0.9299  4.2941  1.1122
  701MOL0     H92523   7.853   9.479   6.646 -1.6512 -1.5237 -2.0753
  701MOL0     H92524   8.061   9.316   6.791 -0.4927 -0.4233  0.5456
  701MOL0     H92525   8.099   9.435   6.668  1.2049  2.0972  1.1273
  701MOL0     H92526   8.017   9.474   6.955  1.8776 -1.4582 -1.6106
  701MOL0     H92527   7.966   9.596   6.840  0.2423  0.2232 -2.2827
  701MOL0     H92528   8.196   9.630   6.774 -1.0696  0.7617  0.9199
  701MOL0     H92529   8.193   9.649   6.948  0.0974 -1.5535  1.5989
  701MOL0     H92530   8.392   9.275   6.851  1.9472  1.3076 -2.2155
  701MOL0     H92531   7.624   9.412   6.617  0.0290 -0.8161 -0.4079
  701MOL0     H92532   7.417   9.288   6.584  0.5129  0.1932  2.9981
  702MOL0     O92533   1.562   1.123   3.553 -0.0702 -0.1367  0.2104
  702MOL0     C92534   1.651   1.119   3.635 -0.7803 -0.3506 -0.2687
  702MOL0     O92535   1.735   1.222   3.660  0.9535 -0.4428 -0.8618
  702MOL0     C92536   1.726   1.336   3.587  0.1189  0.3293 -1.5287
  702MOL0     C92537   1.652   1.363   3.473  0.3515 -0.1252 -0.1765
  702MOL0     C92538   1.667   1.489   3.411 -0.7057  0.0664 -0.2958
  702MOL0     C92539   1.753   1.590   3.467 -0.0178  0.8892  0.3807
  702MOL0     O92540   1.748   1.704   3.401  0.4039  0.0729  0.1889
  702MOL0     C92541   1.809   1.827   3.458  0.3199  1.4499  0.0286
  702MOL0     C92542   1.767   1.948   3.385  0.2714 -1.0192  0.1456
  702MOL0     C92543   1.825   1.951   3.238 -0.2598  0.0799  0.1174
  702MOL0     C92544   1.733   2.044   3.150  0.2211  0.8995  0.1054
  702MOL0     C92545   1.774   2.184   3.158  0.6020 -0.0513  1.1664
  702MOL0     C92546   1.907   2.205   3.085  0.1068  0.6220 -1.0612
  702MOL0     C92547   1.957   2.348   3.109  0.2980 -0.7147 -0.8170
  702MOL0     C92548   2.011   2.367   3.256 -0.1787 -0.2348  0.2024
  702MOL0     N92549   2.008   2.513   3.290  0.2485  0.4030 -0.1526
  702MOL0     C92550   1.902   2.601   3.300 -0.0791  1.6163  0.2686
  702MOL0     C92551   1.949   2.726   3.284 -0.3949 -0.4024 -0.3557
  702MOL0     C92552   1.870   2.850   3.293  0.3720 -0.5022 -0.2549
  702MOL0     C92553   1.807   2.866   3.153  0.0034  0.1289 -0.0188
  702MOL0     C92554   1.889   2.918   3.031 -0.4592  0.5886 -0.0038
  702MOL0     C92555   1.795   2.932   2.911  0.6601 -0.3633 -0.2263
  702MOL0     O92556   1.693   3.034   2.949  0.7795 -0.5181  0.6321
  702MOL0     C92557   1.603   3.087   2.861  0.9420 -0.7774 -0.5536
  702MOL0     C92558   1.590   3.039   2.729 -0.0222 -0.1294 -0.5793
  702MOL0     C92559   1.487   3.093   2.645  0.7279 -0.4122  0.6909
  702MOL0     C92560   1.425   3.214   2.688  0.0360 -0.8004 -0.5770
  702MOL0     C92561   1.345   3.297   2.582 -0.6592  0.0972 -0.4633
  702MOL0     O92562   1.318   3.236   2.458  0.3511  0.0639  0.5379
  702MOL0     C92563   1.210   3.271   2.385  0.8946  0.3105  0.1863
  702MOL0     C92564   1.211   3.407   2.342  0.3562 -0.0633 -0.3087
  702MOL0     C92565   1.103   3.454   2.271 -0.9111 -0.5448  0.7068
  702MOL0     C92566   1.004   3.373   2.221 -0.4798 -0.0445 -0.3470
  702MOL0     O92567   0.904   3.396   2.133  0.0792  0.0573  1.0920
  702MOL0     C92568   0.870   3.529   2.110  0.8212  0.4485 -0.6667
  702MOL0     C92569   0.788   3.583   2.230 -0.3724 -0.0965 -0.0184
  702MOL0     C92570   0.715   3.711   2.185  0.5370 -0.0237 -0.4345
  702MOL0     C92571   0.615   3.763   2.293  0.2279 -1.0376 -0.2051
  702MOL0     C92572   0.688   3.802   2.419  0.3682 -0.3941  0.1578
  702MOL0     C92573   0.599   3.888   2.511  0.9856  0.3426 -0.4917
  702MOL0     C92574   0.663   3.969   2.629 -0.0838  0.2090 -0.2152
  702MOL0     C92575   0.564   4.023   2.717 -0.1496  0.1766 -0.6766
  702MOL0    Cl92576   0.466   4.149   2.629 -0.2233 -0.2523 -0.3641
  702MOL0     C92577   1.000   3.240   2.274 -0.1862 -0.1802 -0.7423
  702MOL0     C92578   1.100   3.191   2.357  0.3461  0.3619  0.3725
  702MOL0     O92579   1.285   3.396   2.627 -0.4204 -0.3712  0.2030
  702MOL0     C92580   1.453   3.264   2.814  0.1795 -0.1260 -0.1321
  702MOL0     C92581   1.542   3.211   2.898  0.7279  0.4546 -0.7094
  702MOL0     N92582   2.080   2.716   3.269 -0.6371 -0.0280 -0.1698
  702MOL0     N92583   2.117   2.588   3.268 -1.0264 -0.6122  0.7690
  702MOL0     C92584   1.827   1.554   3.587 -0.1279 -0.9850  0.2895
  702MOL0     C92585   1.814   1.434   3.644  0.1374  1.2611  0.2374
  702MOL0     C92586   1.653   1.003   3.737  0.6150  0.1575 -0.2268
  702MOL0     C92587   1.602   0.875   3.710 -1.6776  0.3992 -0.4861
  702MOL0     C92588   1.627   0.768   3.791 -0.4825 -0.1129 -0.1723
  702MOL0     C92589   1.702   0.786   3.909 -0.2339  0.2757 -0.0067
  702MOL0     O92590   1.733   0.679   4.001  0.8795  0.6627 -0.3309
  702MOL0     C92591   1.798   0.552   3.958  0.0461 -1.1733  0.6034
  702MOL0     C92592   1.915   0.518   4.047 -1.4215  0.3595  0.2818
  702MOL0     C92593   2.039   0.589   3.995  0.5892 -0.2741 -0.4243
  702MOL0     C92594   2.160   0.538   4.074  0.7605  0.2907 -0.4535
  702MOL0     C92595   2.283   0.617   4.038  0.3324 -0.1107  0.2426
  702MOL0     C92596   2.383   0.674   4.032 -0.0427 -0.5919 -0.6973
  702MOL0     C92597   1.745   0.909   3.948 -0.4797  0.2104  0.3778
  702MOL0     C92598   1.715   1.018   3.863 -0.5707  0.7683  0.2970
  702MOL0     H92599   1.569   1.304   3.433  1.8222 -1.4707 -1.3735
  702MOL0     H92600   1.622   1.498   3.313 -0.5427  0.8036 -0.3063
  702MOL0     H92601   1.917   1.814   3.457  0.1318 -3.0213  3.2214
  702MOL0     H92602   1.776   1.838   3.562 -2.9319 -2.4016 -0.3302
  702MOL0     H92603   1.787   2.047   3.428 -4.1048  1.1741 -2.1970
  702MOL0     H92604   1.658   1.945   3.377  0.3750 -0.7320 -2.1714
  702MOL0     H92605   1.833   1.850   3.199 -1.5938 -0.5189  1.2923
  702MOL0     H92606   1.929   1.978   3.255  0.2118  0.5104 -2.9571
  702MOL0     H92607   1.754   2.010   3.048  1.7755 -1.0515  0.9962
  702MOL0     H92608   1.632   2.022   3.184  0.0859 -1.9733 -1.7859
  702MOL0     H92609   1.773   2.218   3.262  2.0362  2.9560  0.3077
  702MOL0     H92610   1.703   2.246   3.102  3.1206  1.2075 -0.8588
  702MOL0     H92611   1.886   2.194   2.978 -2.6615  0.0012 -0.5378
  702MOL0     H92612   1.989   2.140   3.116  0.6934  1.2289 -1.2986
  702MOL0     H92613   2.032   2.391   3.042 -0.0230  4.4377  1.6975
  702MOL0     H92614   1.867   2.409   3.102  0.7957  0.3603  1.3544
  702MOL0     H92615   2.117   2.340   3.261  0.3072  1.6837  1.7330
  702MOL0     H92616   1.949   2.305   3.322  0.8526 -2.4215 -0.7860
  702MOL0     H92617   1.800   2.565   3.314 -0.1855  1.3222 -1.1384
  702MOL0     H92618   1.939   2.929   3.322 -0.8575  0.7970 -0.6968
  702MOL0     H92619   1.797   2.853   3.375 -0.4257  2.2328 -0.9598
  702MOL0     H92620   1.716   2.925   3.169 -0.0016 -0.3616  2.0463
  702MOL0     H92621   1.775   2.764   3.132 -0.0757 -0.3464  2.2071
  702MOL0     H92622   1.927   3.019   3.050 -0.0463 -0.0142  2.9194
  702MOL0     H92623   1.967   2.843   3.013 -0.0167  1.3299 -1.2609
  702MOL0     H92624   1.757   2.830   2.906  1.0839 -0.6624  1.7408
  702MOL0     H92625   1.849   2.962   2.821  1.1475  0.5310  0.3500
  702MOL0     H92626   1.646   2.964   2.673  0.2206  1.7099 -2.9661
  702MOL0     H92627   1.471   3.051   2.547  2.5078 -1.0364  0.6266
  702MOL0     H92628   1.296   3.470   2.366  1.2656 -1.0095 -0.9668
  702MOL0     H92629   1.111   3.554   2.228 -1.7736 -1.8568 -2.9558
  702MOL0     H92630   0.799   3.532   2.027  0.7696  1.9340 -0.5878
  702MOL0     H92631   0.947   3.602   2.086  1.4574  0.1313  0.3580
  702MOL0     H92632   0.859   3.600   2.312  0.1047 -1.5550 -0.0935
  702MOL0     H92633   0.708   3.518   2.267 -0.2668  1.4461  3.2823
  702MOL0     H92634   0.652   3.682   2.100  0.7001 -1.7013 -0.0140
  702MOL0     H92635   0.791   3.783   2.154  2.3332 -2.0147 -0.9609
  702MOL0     H92636   0.556   3.847   2.254 -2.3726 -2.3526  0.6422
  702MOL0     H92637   0.536   3.691   2.315  0.2080 -0.7644  0.6208
  702MOL0     H92638   0.769   3.871   2.390  2.5689 -2.5702  0.7453
  702MOL0     H92639   0.737   3.718   2.469 -2.5792 -1.3448  1.6293
  702MOL0     H92640   0.526   3.819   2.555  1.5611  1.6173  2.7604
  702MOL0     H92641   0.540   3.963   2.457 -2.0620 -0.9172  0.8237
  702MOL0     H92642   0.736   3.909   2.684 -0.8795 -0.1241  0.4947
  702MOL0     H92643   0.704   4.052   2.571 -1.3840  0.3698 -0.9477
  702MOL0     H92644   0.609   4.073   2.803 -1.4382  1.5773 -0.7681
  702MOL0     H92645   0.497   3.942   2.747  0.6501 -0.6020 -0.9411
  702MOL0     H92646   0.921   3.177   2.235  0.2240 -1.0941 -0.1227
  702MOL0     H92647   1.107   3.087   2.389 -1.3740 -0.0695 -0.5346
  702MOL0     H92648   1.393   3.346   2.853  0.4862 -1.0159  2.4123
  702MOL0     H92649   1.553   3.256   2.996 -1.7908  1.7680 -0.9550
  702MOL0     H92650   1.898   1.630   3.620 -1.7883  1.3270 -1.1475
  702MOL0     H92651   1.873   1.416   3.733 -3.0865  1.5193  2.6278
  702MOL0     H92652   1.542   0.860   3.621 -2.4254  0.1616  0.0415
  702MOL0     H92653   1.593   0.668   3.765  1.0047 -0.9778  1.0587
  702MOL0     H92654   1.840   0.566   3.858  1.8812 -0.0863  1.4904
  702MOL0     H92655   1.719   0.477   3.953 -0.3765 -0.6522 -1.1662
  702MOL0     H92656   1.902   0.568   4.143 -0.5610  2.6239 -0.6996
  702MOL0     H92657   1.934   0.412   4.062 -3.9468  0.1361  2.6924
  702MOL0     H92658   2.027   0.697   4.010  0.2234 -0.4680  0.8143
  702MOL0     H92659   2.060   0.588   3.888  0.3345 -0.0076 -0.4779
  702MOL0     H92660   2.133   0.579   4.171 -2.6212  1.9793 -1.9524
  702MOL0     H92661   2.156   0.430   4.093 -2.0944  1.0182  4.7005
  702MOL0     H92662   2.482   0.714   4.024 -0.1359  0.1604  1.3925
  702MOL0     H92663   1.794   0.921   4.044  1.8593  1.4512 -0.8735
  702MOL0     H92664   1.730   1.114   3.911 -2.8230  1.4812 -0.2850
  703MOL0     O92665  10.292   6.416   6.602 -0.0390  0.4513  0.3963
  703MOL0     C92666  10.304   6.357   6.704 -0.2875 -0.1950 -0.1494
  703MOL0     O92667  10.260   6.394   6.823  0.1990  0.0388 -0.1889
  703MOL0     C92668  10.203   6.521   6.839  0.6160 -0.7911 -0.5437
  703MOL0     C92669  10.077   6.556   6.771 -0.3607  0.6779 -0.7636
  703MOL0     C92670  10.008   6.679   6.780 -0.3985 -0.4379  0.0254
  703MOL0     C92671  10.071   6.774   6.864  0.7263  0.0682  1.0050
  703MOL0     O92672  10.037   6.900   6.864 -0.1087 -1.4078 -0.1568
  703MOL0     C92673   9.901   6.935   6.884  0.0973  0.8286  0.3134
  703MOL0     C92674   9.897   7.087   6.890 -0.5998  0.4086  0.3492
  703MOL0     C92675   9.751   7.129   6.911  0.2488  0.1432  0.0800
  703MOL0     C92676   9.758   7.280   6.896  0.5777 -0.0597  0.0686
  703MOL0     C92677   9.614   7.336   6.875 -0.1622  0.7811 -0.2690
  703MOL0     C92678   9.612   7.482   6.832 -0.1976 -0.5267 -1.5727
  703MOL0     C92679   9.469   7.524   6.800 -0.0896  1.2610 -0.6032
  703MOL0     C92680   9.438   7.641   6.877 -0.0268  0.3107  0.3507
  703MOL0     N92681   9.507   7.759   6.823 -1.0806  0.8544 -0.2104
  703MOL0     C92682   9.522   7.887   6.876 -0.6214 -0.3241 -0.4950
  703MOL0     C92683   9.577   7.962   6.780  0.1820 -0.2986  0.4463
  703MOL0     C92684   9.631   8.110   6.798  0.5890  0.7156 -0.4626
  703MOL0     C92685   9.544   8.206   6.717 -0.5257 -0.5787  1.4667
  703MOL0     C92686   9.641   8.319   6.676  0.2599  0.4753 -1.1263
  703MOL0     C92687   9.576   8.432   6.601  1.0737 -0.7708 -0.2551
  703MOL0     O92688   9.652   8.499   6.498  0.8509  0.7368  0.1546
  703MOL0     C92689   9.605   8.568   6.395  0.8228 -0.2702  0.3805
  703MOL0     C92690   9.692   8.611   6.292  0.4655 -0.0706 -1.0591
  703MOL0     C92691   9.638   8.694   6.197 -1.3572  0.7576  1.1022
  703MOL0     C92692   9.499   8.721   6.192  0.0729 -0.2662 -0.5627
  703MOL0     C92693   9.449   8.820   6.086  0.2957  0.6811 -0.4446
  703MOL0     O92694   9.530   8.900   6.012 -0.2130 -0.1087 -0.2221
  703MOL0     C92695   9.478   8.975   5.908  0.1849  0.7017 -0.3716
  703MOL0     C92696   9.522   8.939   5.786 -1.2005 -0.3221  0.3244
  703MOL0     C92697   9.468   9.007   5.666  0.5926  0.6570  0.2533
  703MOL0     C92698   9.367   9.106   5.678 -0.7154 -0.7050  0.1985
  703MOL0     O92699   9.310   9.147   5.556 -0.0796 -0.3302  0.0090
  703MOL0     C92700   9.195   9.238   5.562 -0.0779 -0.2111  0.4184
  703MOL0     C92701   9.188   9.288   5.412  0.5647  0.5032  0.0410
  703MOL0     C92702   9.086   9.202   5.332  0.2999  0.6534  0.3957
  703MOL0     C92703   9.033   9.270   5.201 -0.0336  0.9389 -0.6114
  703MOL0     C92704   8.885   9.222   5.167  0.0413 -0.9653 -0.6199
  703MOL0     C92705   8.883   9.073   5.160 -0.2298 -0.6854  0.8437
  703MOL0     C92706   8.759   9.017   5.093  1.0265 -0.2885  0.6120
  703MOL0     C92707   8.748   8.864   5.101 -1.0253  0.1572  0.0191
  703MOL0    Cl92708   8.861   8.765   5.007  0.3895 -0.2939  0.1003
  703MOL0     C92709   9.316   9.131   5.806 -0.3669  0.1358  0.4272
  703MOL0     C92710   9.371   9.067   5.915 -0.7886 -0.3546  0.4111
  703MOL0     O92711   9.331   8.810   6.067  0.0081 -0.6757 -0.6990
  703MOL0     C92712   9.417   8.672   6.286  0.2812 -0.5208 -0.0104
  703MOL0     C92713   9.465   8.598   6.390  0.3497  0.7843 -0.6177
  703MOL0     N92714   9.580   7.889   6.665 -0.2134 -0.6332  0.1279
  703MOL0     N92715   9.561   7.768   6.696 -0.0202  0.2135 -0.2383
  703MOL0     C92716  10.199   6.741   6.919  0.1892  0.7940 -0.2869
  703MOL0     C92717  10.249   6.615   6.916  1.0109 -0.5581  0.0323
  703MOL0     C92718  10.364   6.221   6.684  1.1414 -0.6980  0.4632
  703MOL0     C92719  10.442   6.187   6.561  0.5107  0.1865 -1.1207
  703MOL0     C92720  10.515   6.064   6.554  0.0172 -0.8860 -0.0830
  703MOL0     C92721  10.489   5.971   6.663 -0.2220 -0.4841 -0.5713
  703MOL0     O92722  10.545   5.849   6.628 -0.3052 -0.8823 -0.3401
  703MOL0     C92723  10.487   5.743   6.699  1.0743 -0.7121 -0.1725
  703MOL0     C92724  10.494   5.601   6.632 -0.3855 -0.4152 -0.6539
  703MOL0     C92725  10.638   5.545   6.591  0.8191  0.4269  0.0283
  703MOL0     C92726  10.635   5.487   6.454 -0.3054 -0.3243  0.5108
  703MOL0     C92727  10.740   5.379   6.437 -0.6406 -0.3475  1.6005
  703MOL0     C92728  10.835   5.307   6.426  0.3760  0.6523 -0.2949
  703MOL0     C92729  10.416   5.999   6.783  0.5554 -0.3035 -0.3001
  703MOL0     C92730  10.352   6.130   6.793 -0.0855 -0.3403 -0.4227
  703MOL0     H92731  10.032   6.488   6.700  1.7533 -1.6185 -0.0409
  703MOL0     H92732   9.922   6.702   6.717  1.7118  0.9290 -2.5705
  703MOL0     H92733   9.864   6.893   6.978 -0.6579  1.8092  0.4675
  703MOL0     H92734   9.838   6.895   6.804  1.7203 -0.7506 -0.2473
  703MOL0     H92735   9.934   7.123   6.794 -1.2263 -0.5129 -0.2664
  703MOL0     H92736   9.963   7.119   6.971  0.4378  0.8519 -0.6496
  703MOL0     H92737   9.705   7.088   7.002 -3.8504  0.4895 -1.6216
  703MOL0     H92738   9.677   7.086   6.843 -3.3625  1.5322  2.7833
  703MOL0     H92739   9.803   7.322   6.986  0.2804  1.6323 -0.5388
  703MOL0     H92740   9.821   7.307   6.810  1.6261 -0.1146  0.7983
  703MOL0     H92741   9.553   7.319   6.964 -1.3384  2.8239 -0.6098
  703MOL0     H92742   9.567   7.287   6.789 -0.4280 -0.3649  0.5086
  703MOL0     H92743   9.671   7.491   6.740  1.9545 -0.6378 -0.2767
  703MOL0     H92744   9.649   7.540   6.917  0.8520 -0.6239 -1.9482
  703MOL0     H92745   9.467   7.522   6.691  1.2967  0.2799 -0.6465
  703MOL0     H92746   9.401   7.443   6.824  3.7285 -3.3073 -3.3958
  703MOL0     H92747   9.448   7.628   6.985  1.3112 -2.0922  0.0060
  703MOL0     H92748   9.334   7.654   6.846  1.1534  0.2047 -4.4716
  703MOL0     H92749   9.512   7.896   6.984 -1.0109 -2.7157 -0.2882
  703MOL0     H92750   9.735   8.109   6.763 -0.0567  0.3494 -2.4806
  703MOL0     H92751   9.612   8.131   6.904 -1.8094 -1.0793 -0.4526
  703MOL0     H92752   9.452   8.244   6.763 -1.2687  2.5873 -2.1734
  703MOL0     H92753   9.524   8.154   6.623  4.1352 -0.6165  0.2610
  703MOL0     H92754   9.684   8.371   6.762  1.6491  0.5605 -1.8550
  703MOL0     H92755   9.716   8.264   6.619  0.4972 -4.7778  3.4016
  703MOL0     H92756   9.544   8.506   6.675 -0.3382 -2.3045  0.7253
  703MOL0     H92757   9.485   8.406   6.546  0.4284  2.2175 -0.8155
  703MOL0     H92758   9.799   8.600   6.307  0.0285 -0.0549  3.4505
  703MOL0     H92759   9.703   8.744   6.125 -1.4134 -1.6034 -0.6836
  703MOL0     H92760   9.593   8.857   5.781 -0.7491 -0.0089  1.3702
  703MOL0     H92761   9.515   8.960   5.580  0.1840  0.6336  0.0400
  703MOL0     H92762   9.216   9.315   5.637 -2.7311  0.4932  0.5519
  703MOL0     H92763   9.106   9.178   5.584  0.3039 -1.6660 -1.7219
  703MOL0     H92764   9.284   9.298   5.359  0.5086 -2.2297 -0.7315
  703MOL0     H92765   9.153   9.391   5.414 -0.6723  0.2483 -3.0963
  703MOL0     H92766   9.000   9.173   5.393 -0.5033  2.1192 -0.0017
  703MOL0     H92767   9.129   9.105   5.305  0.7087  0.8504  0.3352
  703MOL0     H92768   9.033   9.379   5.214 -1.4025  0.9371 -0.3630
  703MOL0     H92769   9.089   9.251   5.109 -3.2627  2.6514 -3.1585
  703MOL0     H92770   8.855   9.259   5.069 -1.2717  1.8029  0.7416
  703MOL0     H92771   8.808   9.251   5.239 -1.8945 -2.8235 -1.8331
  703MOL0     H92772   8.907   9.024   5.255  2.8013  0.9378  1.0514
  703MOL0     H92773   8.959   9.034   5.092 -0.9363 -3.1834  1.3678
  703MOL0     H92774   8.666   9.064   5.125  0.4817  1.1952 -2.7187
  703MOL0     H92775   8.763   9.049   4.989  2.7726  3.7173  1.6931
  703MOL0     H92776   8.651   8.818   5.082  0.8394 -3.1430 -2.4445
  703MOL0     H92777   8.782   8.843   5.203 -3.7488  0.8448  1.1613
  703MOL0     H92778   9.245   9.212   5.823 -1.7324 -0.9752  0.2023
  703MOL0     H92779   9.337   9.088   6.016  2.9457  2.6543  1.2438
  703MOL0     H92780   9.311   8.694   6.282  0.3943  0.4567  1.3989
  703MOL0     H92781   9.402   8.565   6.472  2.1771  1.9331  1.3718
  703MOL0     H92782  10.256   6.811   6.980  1.2026  0.2275 -0.5715
  703MOL0     H92783  10.336   6.588   6.975 -0.0934  1.5761  2.9019
  703MOL0     H92784  10.443   6.245   6.470  1.6677 -3.2319 -3.4735
  703MOL0     H92785  10.575   6.038   6.467 -0.9486  1.2348 -1.4718
  703MOL0     H92786  10.381   5.757   6.720  1.5075  2.0187  0.6362
  703MOL0     H92787  10.539   5.740   6.795  3.3411 -0.1688 -1.2950
  703MOL0     H92788  10.450   5.533   6.705 -1.4492 -0.2600 -1.1424
  703MOL0     H92789  10.436   5.596   6.540 -0.2237 -2.7345 -0.6802
  703MOL0     H92790  10.653   5.467   6.665 -2.3012  0.0730  0.4134
  703MOL0     H92791  10.712   5.625   6.593  1.2374  0.0252  0.7725
  703MOL0     H92792  10.543   5.428   6.449  1.3626 -3.0720 -0.2828
  703MOL0     H92793  10.644   5.573   6.387 -1.2687  1.0966  2.1317
  703MOL0     H92794  10.901   5.224   6.414 -0.8553 -0.0366 -3.2304
  703MOL0     H92795  10.399   5.932   6.866 -4.0301  1.7927  0.8210
  703MOL0     H92796  10.292   6.144   6.882  0.9129 -0.7548  0.3324
  704MOL0     O92797   1.514   9.773  10.510 -1.0045 -0.6318  0.0421
  704MOL0     C92798   1.562   9.871  10.452 -0.3201  0.0127 -0.0493
  704MOL0     O92799   1.671   9.870  10.361 -0.1476 -0.3736  0.5556
  704MOL0     C92800   1.687   9.753  10.292 -1.2335 -0.0425  1.1165
  704MOL0     C92801   1.820   9.726  10.262 -0.0674 -0.9142 -0.3544
  704MOL0     C92802   1.862   9.624  10.180  0.7911  0.7670  0.3677
  704MOL0     C92803   1.762   9.528  10.129  0.5877  0.1428  0.0093
  704MOL0     O92804   1.792   9.418  10.054 -0.6986  0.5024 -1.0445
  704MOL0     C92805   1.923   9.403  10.021 -0.4535 -0.6783  0.1557
  704MOL0     C92806   1.947   9.270   9.945  0.5511  0.5406  0.6354
  704MOL0     C92807   1.840   9.241   9.845 -1.3863 -0.2213 -0.0979
  704MOL0     C92808   1.867   9.110   9.763 -0.0602 -0.3697 -0.2780
  704MOL0     C92809   1.805   9.104   9.630  1.1233 -0.7421  1.0256
  704MOL0     C92810   1.813   8.981   9.544 -1.0048  0.2075 -0.4100
  704MOL0     C92811   1.693   8.989   9.439  0.0375 -0.7440 -0.8136
  704MOL0     C92812   1.707   8.909   9.315  0.2267 -0.9163  0.2194
  704MOL0     N92813   1.793   8.975   9.211  0.4960  0.1738 -0.6746
  704MOL0     C92814   1.740   9.063   9.122 -0.8518 -1.2241 -0.2375
  704MOL0     C92815   1.832   9.082   9.026 -1.1426  0.8037  0.1135
  704MOL0     C92816   1.815   9.183   8.917  0.0836  0.4855  0.6427
  704MOL0     C92817   1.912   9.158   8.798  0.4290  1.2148 -0.4712
  704MOL0     C92818   1.945   9.286   8.721  0.2771  0.2330  0.6412
  704MOL0     C92819   1.823   9.369   8.671  0.4590 -0.1512 -0.8730
  704MOL0     O92820   1.854   9.506   8.633 -0.4205  1.0886  0.0112
  704MOL0     C92821   1.950   9.522   8.536  0.0615  0.3786  0.4479
  704MOL0     C92822   1.925   9.470   8.403 -0.0582  0.7748 -0.6171
  704MOL0     C92823   2.021   9.492   8.296  0.9438  0.3721 -0.8676
  704MOL0     C92824   2.131   9.581   8.322 -0.9756  0.3546 -0.7941
  704MOL0     C92825   2.223   9.614   8.210  0.0408 -0.5539 -0.0233
  704MOL0     O92826   2.328   9.692   8.239 -0.4960 -0.6994  0.2680
  704MOL0     C92827   2.406   9.740   8.138 -1.7890  0.3750 -0.6536
  704MOL0     C92828   2.414   9.879   8.115  0.1090  0.1282 -0.7773
  704MOL0     C92829   2.487   9.932   8.013  0.4784  0.0932  0.2797
  704MOL0     C92830   2.558   9.841   7.921 -0.1005 -0.8711 -0.8011
  704MOL0     O92831   2.637   9.876   7.814 -0.1215 -0.4354  0.1215
  704MOL0     C92832   2.647  10.022   7.786 -0.3406  0.7670  0.0833
  704MOL0     C92833   2.726  10.057   7.667 -0.4300  0.1416  0.3124
  704MOL0     C92834   2.663  10.013   7.533  0.2709  0.3654  0.4429
  704MOL0     C92835   2.768  10.005   7.417 -0.2269 -0.1063 -0.5655
  704MOL0     C92836   2.827   9.870   7.413  0.0332 -0.7941  0.6038
  704MOL0     C92837   2.940   9.865   7.315 -0.2882  0.1252  0.3108
  704MOL0     C92838   2.985   9.713   7.301 -0.4337 -1.0403  0.4414
  704MOL0     C92839   3.119   9.724   7.250 -0.9705  0.4727  0.5844
  704MOL0    Cl92840   3.132   9.821   7.098 -0.4592  0.2896 -0.2275
  704MOL0     C92841   2.556   9.706   7.936  0.2722  0.2227  0.5916
  704MOL0     C92842   2.475   9.657   8.043 -0.6700  0.7177 -0.0680
  704MOL0     O92843   2.193   9.576   8.096 -0.6039  0.7662 -0.2768
  704MOL0     C92844   2.163   9.613   8.454  0.2164 -1.1818  0.5007
  704MOL0     C92845   2.072   9.583   8.560  0.2293  0.4616 -0.1027
  704MOL0     N92846   1.931   8.993   9.054 -1.1192  0.2754  0.3062
  704MOL0     N92847   1.904   8.928   9.156 -0.8438 -0.4953  0.5555
  704MOL0     C92848   1.628   9.552  10.166  0.5503  0.6716  0.0073
  704MOL0     C92849   1.590   9.665  10.251  0.7691  0.5783  0.1556
  704MOL0     C92850   1.505  10.004  10.491 -1.2731 -0.6963  0.8747
  704MOL0     C92851   1.584  10.127  10.473  0.1518  0.9406 -0.0464
  704MOL0     C92852   1.531  10.254  10.507  0.3290  0.1347  0.4030
  704MOL0     C92853   1.405  10.272  10.569 -0.7218 -0.0185 -0.2233
  704MOL0     O92854   1.355  10.393  10.616  0.4255  0.8604  0.5253
  704MOL0     C92855   1.304  10.484  10.523  0.9669  0.0072  0.3561
  704MOL0     C92856   1.173  10.433  10.470  0.1284  0.0502  0.2408
  704MOL0     C92857   1.079  10.539  10.412  0.3515 -0.1569  0.2656
  704MOL0     C92858   0.944  10.463  10.379  0.6300  0.7705  0.1790
  704MOL0     C92859   0.873  10.434  10.506 -0.6612  0.0215 -0.3974
  704MOL0     C92860   0.814  10.418  10.613 -0.5731  0.2963 -0.5175
  704MOL0     C92861   1.334  10.150  10.594 -0.2348 -0.0643 -0.1517
  704MOL0     C92862   1.384  10.020  10.557  1.2315  0.2205  1.0963
  704MOL0     H92863   1.894   9.799  10.291  1.2454 -2.4237  0.2947
  704MOL0     H92864   1.967   9.607  10.162  0.5862  0.0935 -0.2227
  704MOL0     H92865   1.983   9.404  10.112 -1.9284  1.3728  1.1744
  704MOL0     H92866   1.952   9.492   9.966 -2.1752 -1.2042 -1.7184
  704MOL0     H92867   1.960   9.197  10.025 -0.3902 -2.0161 -1.4323
  704MOL0     H92868   2.046   9.271   9.898  0.8723 -1.6569  1.1496
  704MOL0     H92869   1.842   9.324   9.774  3.2491 -0.7630 -0.9466
  704MOL0     H92870   1.739   9.228   9.884 -1.0132 -1.8204  0.4142
  704MOL0     H92871   1.973   9.124   9.737 -0.1957 -2.0068 -1.9097
  704MOL0     H92872   1.847   9.022   9.823 -1.2120  0.5039  0.6627
  704MOL0     H92873   1.842   9.180   9.561  0.0463 -1.6852 -0.6506
  704MOL0     H92874   1.705   9.145   9.646  2.1113  0.3483  6.2081
  704MOL0     H92875   1.796   8.885   9.592  1.0133  0.0097 -0.0077
  704MOL0     H92876   1.911   8.976   9.494 -0.8769  2.6409 -0.5351
  704MOL0     H92877   1.603   8.955   9.491 -1.0612 -0.3355 -2.3731
  704MOL0     H92878   1.682   9.092   9.403  0.7084  0.2289  1.5569
  704MOL0     H92879   1.611   8.877   9.274 -0.6935 -0.3729  1.8644
  704MOL0     H92880   1.763   8.820   9.348  3.1416  1.0408  0.8945
  704MOL0     H92881   1.652   9.127   9.124  0.4945  0.7318  1.5206
  704MOL0     H92882   1.833   9.285   8.952 -3.8678  1.4768  0.3162
  704MOL0     H92883   1.713   9.183   8.878 -0.5489  1.7831  2.1904
  704MOL0     H92884   1.866   9.091   8.725  1.0471  0.7181 -0.4142
  704MOL0     H92885   2.004   9.111   8.833  0.7204  2.3985  0.4173
  704MOL0     H92886   1.998   9.349   8.793 -1.3329  1.1126  1.1048
  704MOL0     H92887   2.002   9.270   8.629 -1.7531 -0.6630 -0.5258
  704MOL0     H92888   1.744   9.373   8.747  1.4671 -2.4526  0.4084
  704MOL0     H92889   1.790   9.303   8.590 -1.4233 -0.2084 -0.1222
  704MOL0     H92890   1.835   9.413   8.383 -0.1604  0.9888 -0.7795
  704MOL0     H92891   2.009   9.446   8.199  0.5109  1.4029 -1.3131
  704MOL0     H92892   2.366   9.949   8.183  0.6453  0.4168 -0.6920
  704MOL0     H92893   2.478  10.040   7.998 -1.6391 -0.1892 -0.8833
  704MOL0     H92894   2.697  10.055   7.877 -1.4587  0.7146  0.7339
  704MOL0     H92895   2.543  10.058   7.783 -2.2465 -3.7228  2.1455
  704MOL0     H92896   2.824  10.010   7.680 -0.5811 -0.2056  0.1998
  704MOL0     H92897   2.740  10.166   7.666  0.7053  0.0370  1.2336
  704MOL0     H92898   2.598  10.100   7.515  1.1705  0.6519 -1.7273
  704MOL0     H92899   2.606   9.919   7.531 -1.0103  1.1172  0.1622
  704MOL0     H92900   2.709  10.030   7.329  2.8423  0.1624 -2.7006
  704MOL0     H92901   2.847  10.079   7.433  0.3597 -1.0235  1.0718
  704MOL0     H92902   2.755   9.802   7.368  2.2525 -2.9472  0.1267
  704MOL0     H92903   2.851   9.827   7.510  4.2490 -4.3951 -1.6911
  704MOL0     H92904   3.024   9.928   7.347 -0.3363  1.2927 -1.7252
  704MOL0     H92905   2.908   9.910   7.221  0.4593  0.4987  0.2197
  704MOL0     H92906   2.994   9.673   7.402  2.8702 -1.4012  0.1065
  704MOL0     H92907   2.916   9.648   7.246  0.7124  0.7851 -3.5794
  704MOL0     H92908   3.163   9.625   7.233 -0.0703  1.2811 -2.3108
  704MOL0     H92909   3.178   9.774   7.328  0.2766 -2.0856  1.3863
  704MOL0     H92910   2.608   9.647   7.861  0.5188  0.1879  0.7905
  704MOL0     H92911   2.488   9.549   8.042  0.2804  0.8177 -0.0608
  704MOL0     H92912   2.248   9.677   8.477 -0.9218  0.4132  0.3572
  704MOL0     H92913   2.106   9.634   8.650 -1.5267  2.4707 -0.4993
  704MOL0     H92914   1.558   9.473  10.144  2.2390 -0.6296 -0.9474
  704MOL0     H92915   1.492   9.689  10.292  1.2054 -0.0145  1.6160
  704MOL0     H92916   1.683  10.136  10.428  0.3244 -0.6923 -0.0549
  704MOL0     H92917   1.591  10.342  10.487  2.7041 -0.8362  2.7941
  704MOL0     H92918   1.377  10.478  10.443 -0.0014  0.2861 -0.5783
  704MOL0     H92919   1.296  10.587  10.560 -1.2725  0.5833 -1.5018
  704MOL0     H92920   1.187  10.356  10.393 -2.3141  0.1367 -0.3931
  704MOL0     H92921   1.116  10.391  10.554  0.2913  0.2704  0.4623
  704MOL0     H92922   1.133  10.584  10.329  1.7191 -0.1997  1.0816
  704MOL0     H92923   1.048  10.618  10.481 -0.9474  0.3602 -0.8676
  704MOL0     H92924   0.880  10.529  10.320 -1.7114  0.5310  2.2702
  704MOL0     H92925   0.974  10.367  10.336  0.2467  1.4257 -1.6451
  704MOL0     H92926   0.775  10.422  10.713 -1.8671 -1.5655 -0.8964
  704MOL0     H92927   1.243  10.169  10.650 -0.7842  2.2696 -1.6793
  704MOL0     H92928   1.328   9.928  10.574  0.0860  0.1566 -2.1614
  705MOL0     O92929   2.417   6.431   3.686  0.2013 -0.2769 -1.0575
  705MOL0     C92930   2.440   6.380   3.578  0.3571  0.2870 -0.4464
  705MOL0     O92931   2.361   6.285   3.504 -0.4832  0.6945  0.2225
  705MOL0     C92932   2.227   6.259   3.524 -1.1974  0.0931 -0.7505
  705MOL0     C92933   2.141   6.346   3.602 -0.1757 -0.4279  0.3248
  705MOL0     C92934   2.008   6.314   3.622  0.0142  0.4128  1.0887
  705MOL0     C92935   1.952   6.192   3.578  0.6120 -0.0799  0.0458
  705MOL0     O92936   1.814   6.184   3.587 -0.2440  0.6106  0.0301
  705MOL0     C92937   1.773   6.039   3.616  0.4401 -0.1814 -0.0313
  705MOL0     C92938   1.724   5.981   3.489 -0.0258 -0.2211 -0.1545
  705MOL0     C92939   1.574   6.001   3.467  0.4941 -0.7489  0.0026
  705MOL0     C92940   1.528   5.961   3.330 -0.3372  0.0364  1.0826
  705MOL0     C92941   1.521   6.066   3.215  0.1968  0.5153 -0.9365
  705MOL0     C92942   1.652   6.095   3.138  0.3554 -0.3368 -0.3880
  705MOL0     C92943   1.616   6.193   3.027 -0.4400 -0.3006  0.3727
  705MOL0     C92944   1.746   6.211   2.951  0.7931 -0.5089 -0.3741
  705MOL0     N92945   1.788   6.109   2.859 -0.1055  0.9166  1.5371
  705MOL0     C92946   1.927   6.090   2.840 -0.0638 -0.2564  0.0531
  705MOL0     C92947   1.936   6.022   2.719  0.0487  0.6200  0.0576
  705MOL0     C92948   2.063   5.968   2.642  0.5590  1.5229  0.3709
  705MOL0     C92949   2.180   5.920   2.732 -0.2762 -0.0564  1.2233
  705MOL0     C92950   2.302   5.906   2.647 -0.8395  0.3057 -0.2471
  705MOL0     C92951   2.335   5.756   2.608 -0.5872 -0.0268 -0.1188
  705MOL0     O92952   2.429   5.761   2.493 -0.1063  0.2825 -0.3658
  705MOL0     C92953   2.559   5.725   2.523 -0.1713  0.4110  0.6033
  705MOL0     C92954   2.624   5.738   2.649  0.0612 -0.6187 -0.3006
  705MOL0     C92955   2.756   5.693   2.666 -1.2073  0.2418 -0.4308
  705MOL0     C92956   2.829   5.643   2.558 -0.7709  0.5475 -0.3441
  705MOL0     C92957   2.980   5.608   2.551  0.6433 -0.4271  0.2651
  705MOL0     O92958   3.042   5.621   2.435 -0.2359  0.3136  0.4676
  705MOL0     C92959   3.177   5.624   2.436 -0.4250 -0.1187 -0.3805
  705MOL0     C92960   3.240   5.742   2.473 -0.9233 -0.4822  0.2810
  705MOL0     C92961   3.377   5.758   2.452 -0.6995 -0.0121  0.9255
  705MOL0     C92962   3.454   5.646   2.436 -0.2578  1.6152 -0.7624
  705MOL0     O92963   3.592   5.660   2.439 -0.7492 -0.0616  0.4739
  705MOL0     C92964   3.663   5.555   2.505 -0.5597 -0.5591 -0.0508
  705MOL0     C92965   3.772   5.609   2.597 -0.2525  0.5360 -0.3705
  705MOL0     C92966   3.874   5.706   2.536  0.6344  0.2397 -0.5855
  705MOL0     C92967   3.951   5.661   2.408  0.8657  0.6936  0.2204
  705MOL0     C92968   4.032   5.522   2.441  0.4721  0.6634  0.8524
  705MOL0     C92969   4.126   5.524   2.567 -1.0020  0.2402  0.2093
  705MOL0     C92970   4.208   5.657   2.573 -0.6717 -0.3818  0.4467
  705MOL0     C92971   4.279   5.657   2.710 -0.1146  0.0158 -0.0637
  705MOL0    Cl92972   4.394   5.784   2.722 -0.2104 -0.4746  0.0944
  705MOL0     C92973   3.394   5.522   2.408 -0.8150 -0.2327  0.6109
  705MOL0     C92974   3.255   5.515   2.399  0.1713  0.9854  0.1348
  705MOL0     O92975   3.031   5.591   2.661  0.1461 -0.0691 -0.4444
  705MOL0     C92976   2.762   5.629   2.436 -0.1048 -0.0233 -1.1120
  705MOL0     C92977   2.629   5.662   2.419 -1.2410  0.5001 -0.0634
  705MOL0     N92978   1.805   5.999   2.676  0.1927  0.1737  0.3789
  705MOL0     N92979   1.717   6.067   2.748  0.7727  0.0621 -0.1757
  705MOL0     C92980   2.037   6.104   3.513 -0.3896  0.4431 -1.0705
  705MOL0     C92981   2.167   6.143   3.486 -0.6750 -0.1554  1.5070
  705MOL0     C92982   2.586   6.379   3.530  0.0516 -0.2589 -1.4597
  705MOL0     C92983   2.627   6.316   3.405  0.1587  0.0076  0.1125
  705MOL0     C92984   2.764   6.305   3.371  0.0249  0.2425 -0.2341
  705MOL0     C92985   2.860   6.343   3.464 -1.2564 -0.5438 -0.0397
  705MOL0     O92986   2.991   6.315   3.422 -0.0032 -0.4301 -0.0058
  705MOL0     C92987   3.076   6.429   3.397 -0.6399  0.5564  0.3006
  705MOL0     C92988   3.206   6.385   3.376 -0.3547  0.0754 -0.4892
  705MOL0     C92989   3.307   6.498   3.341  0.1176 -0.3411  0.6705
  705MOL0     C92990   3.354   6.588   3.454 -0.9575 -0.3619 -1.0243
  705MOL0     C92991   3.430   6.500   3.545 -0.1543 -0.9207 -0.9115
  705MOL0     C92992   3.486   6.416   3.604 -0.5293  0.8193 -0.1522
  705MOL0     C92993   2.829   6.417   3.578  1.4699  0.1225  0.4221
  705MOL0     C92994   2.691   6.420   3.618  0.6628  0.3956  0.2176
  705MOL0     H92995   2.169   6.448   3.627  0.8163 -0.7348  0.5303
  705MOL0     H92996   1.945   6.392   3.664  1.6505  3.7903 -2.1805
  705MOL0     H92997   1.691   6.039   3.688  1.7460  0.1858  1.5147
  705MOL0     H92998   1.855   5.976   3.651 -0.2579 -0.6452  0.8150
  705MOL0     H92999   1.742   5.875   3.473 -3.5971 -1.0366  0.3797
  705MOL0     H93000   1.773   6.035   3.407 -2.9682  2.0201 -0.5978
  705MOL0     H93001   1.549   6.107   3.466 -0.0559 -0.8239  1.6720
  705MOL0     H93002   1.514   5.941   3.537 -0.9909 -1.2889 -1.6642
  705MOL0     H93003   1.593   5.878   3.301 -0.3370  1.2683 -3.0491
  705MOL0     H93004   1.430   5.912   3.329 -0.9514  1.1790 -0.8427
  705MOL0     H93005   1.495   6.164   3.257  0.0577  0.5964 -1.2137
  705MOL0     H93006   1.434   6.041   3.153  0.0652  1.5232 -1.1835
  705MOL0     H93007   1.680   5.998   3.095  0.9252 -1.2455  1.8582
  705MOL0     H93008   1.736   6.127   3.200  1.9244 -1.5369 -1.8005
  705MOL0     H93009   1.535   6.165   2.960 -1.5865  2.5229  0.4222
  705MOL0     H93010   1.580   6.284   3.077  0.9322 -0.3118  1.4588
  705MOL0     H93011   1.823   6.213   3.029 -1.0822  1.1107  1.5210
  705MOL0     H93012   1.736   6.298   2.885  0.2636 -1.6276 -1.8165
  705MOL0     H93013   2.008   6.130   2.901 -1.7163  1.5360  1.1590
  705MOL0     H93014   2.095   6.048   2.575  3.4526 -0.2016 -0.4676
  705MOL0     H93015   2.034   5.885   2.577  2.2936  3.8946 -3.8120
  705MOL0     H93016   2.168   5.828   2.790 -1.7954 -0.4309  0.3745
  705MOL0     H93017   2.194   6.010   2.793 -1.7105  2.0820 -1.3708
  705MOL0     H93018   2.311   5.967   2.557  1.2308 -0.1475 -0.4076
  705MOL0     H93019   2.376   5.950   2.715  0.8564  1.6955 -2.8243
  705MOL0     H93020   2.247   5.712   2.561  0.9360 -1.2189 -2.0139
  705MOL0     H93021   2.362   5.710   2.704  0.1325  4.4266  2.1063
  705MOL0     H93022   2.587   5.797   2.733  1.9001  0.2941 -0.0922
  705MOL0     H93023   2.809   5.724   2.755  0.9615 -1.0792 -1.1893
  705MOL0     H93024   3.188   5.832   2.506  2.2444  1.8090 -0.5703
  705MOL0     H93025   3.423   5.856   2.456  1.5432 -0.8990 -0.8053
  705MOL0     H93026   3.705   5.490   2.428 -1.3517  1.1548 -2.0107
  705MOL0     H93027   3.593   5.499   2.569 -0.9789  1.7839  1.6652
  705MOL0     H93028   3.822   5.523   2.643 -3.0670  0.5629  3.2205
  705MOL0     H93029   3.725   5.659   2.683  0.3760 -1.2967  1.1075
  705MOL0     H93030   3.945   5.738   2.613 -1.6546  2.0477  0.8878
  705MOL0     H93031   3.817   5.797   2.515  0.2941  0.0786 -0.3537
  705MOL0     H93032   3.872   5.638   2.336  2.0241  1.1159 -1.2171
  705MOL0     H93033   4.016   5.731   2.356 -0.3953 -0.1568 -2.7160
  705MOL0     H93034   4.076   5.477   2.352 -2.5895 -1.3261  0.1923
  705MOL0     H93035   3.953   5.452   2.469  2.4981 -1.3282  1.9090
  705MOL0     H93036   4.183   5.431   2.571  0.6383  1.2598  1.7219
  705MOL0     H93037   4.061   5.519   2.654 -1.8048 -3.4413 -0.4502
  705MOL0     H93038   4.267   5.664   2.481 -3.0995 -0.3528 -1.1984
  705MOL0     H93039   4.142   5.744   2.573  1.0080  0.9725  1.7246
  705MOL0     H93040   4.333   5.563   2.727 -0.6686 -0.8155 -2.4991
  705MOL0     H93041   4.194   5.649   2.778 -0.8234 -0.2524 -0.9545
  705MOL0     H93042   3.444   5.430   2.381 -1.6908 -0.0486 -1.8425
  705MOL0     H93043   3.209   5.420   2.372 -1.8280  2.6642 -3.0356
  705MOL0     H93044   2.810   5.571   2.357 -0.2999  0.7089 -1.7771
  705MOL0     H93045   2.588   5.635   2.322  0.9436 -1.5382 -0.5373
  705MOL0     H93046   1.995   6.008   3.483 -0.1833  0.5336 -1.6633
  705MOL0     H93047   2.237   6.082   3.429 -0.5930  1.5158 -0.2698
  705MOL0     H93048   2.558   6.262   3.342  1.9062 -0.0250 -1.8662
  705MOL0     H93049   2.791   6.261   3.276 -2.8703 -2.1434 -0.1016
  705MOL0     H93050   3.074   6.486   3.491 -0.6537  0.9250  0.0780
  705MOL0     H93051   3.037   6.499   3.322 -2.8727  0.5965  1.4346
  705MOL0     H93052   3.228   6.332   3.469  1.8583  2.3655  0.4232
  705MOL0     H93053   3.202   6.320   3.288 -0.6926  0.2449 -0.6011
  705MOL0     H93054   3.267   6.558   3.259  0.6336  0.3913  0.9521
  705MOL0     H93055   3.400   6.454   3.302  1.6130  2.6211  0.6455
  705MOL0     H93056   3.424   6.665   3.419 -3.4301  1.9951 -1.1100
  705MOL0     H93057   3.273   6.642   3.503 -0.8825 -0.4732 -0.7750
  705MOL0     H93058   3.521   6.322   3.641 -0.2355  0.7985 -0.4666
  705MOL0     H93059   2.904   6.459   3.644  1.1176 -0.3882  1.1617
  705MOL0     H93060   2.651   6.470   3.706 -1.9896  0.7584 -1.1153
  706MOL0     O93061   3.977   1.962   3.952  0.5763 -0.2199  0.2286
  706MOL0     C93062   4.048   1.893   3.890  0.2524 -0.0815 -0.5227
  706MOL0     O93063   4.177   1.879   3.918 -0.4796  0.0367  0.1431
  706MOL0     C93064   4.233   1.985   3.983  0.1729  0.1751 -1.0564
  706MOL0     C93065   4.244   2.110   3.928  0.5041 -0.0701 -0.5937
  706MOL0     C93066   4.294   2.219   4.004  0.0534  0.4791 -0.2345
  706MOL0     C93067   4.347   2.200   4.125 -0.9478  0.1566  0.3098
  706MOL0     O93068   4.412   2.303   4.189  0.6248 -0.3391 -1.2216
  706MOL0     C93069   4.552   2.279   4.185  0.1533 -0.3781  0.1044
  706MOL0     C93070   4.619   2.388   4.273 -0.1484 -0.5429  0.6314
  706MOL0     C93071   4.603   2.533   4.220  0.1304  0.4654  0.4986
  706MOL0     C93072   4.643   2.549   4.074 -0.1264  0.7223 -1.2311
  706MOL0     C93073   4.642   2.705   4.045 -0.3868  0.2773  0.3600
  706MOL0     C93074   4.615   2.711   3.890  0.0724  0.3317  0.2663
  706MOL0     C93075   4.463   2.710   3.865  0.1995  0.3186  0.2892
  706MOL0     C93076   4.423   2.678   3.717  0.5477  0.5483 -0.7019
  706MOL0     N93077   4.413   2.534   3.688 -0.3264 -0.2315 -0.5856
  706MOL0     C93078   4.459   2.477   3.572 -0.1430 -0.1724  0.3826
  706MOL0     C93079   4.408   2.355   3.572 -0.7583  0.0023  0.8109
  706MOL0     C93080   4.435   2.248   3.464  0.0151  0.1973 -0.4004
  706MOL0     C93081   4.541   2.146   3.511  0.5108 -0.7931  0.4630
  706MOL0     C93082   4.518   2.075   3.641  0.4393 -0.0157 -0.4733
  706MOL0     C93083   4.596   1.948   3.658  0.2139  0.1485 -0.5583
  706MOL0     O93084   4.527   1.886   3.763 -0.4830 -0.4999  0.2330
  706MOL0     C93085   4.573   1.766   3.811 -0.1033 -0.6393  0.0627
  706MOL0     C93086   4.676   1.698   3.739 -0.1570  1.0882  0.0370
  706MOL0     C93087   4.714   1.567   3.782 -0.0793  0.2774 -0.8521
  706MOL0     C93088   4.646   1.508   3.891  0.4230  0.5475 -0.1356
  706MOL0     C93089   4.690   1.374   3.936 -0.1793  0.1603 -1.3178
  706MOL0     O93090   4.616   1.303   4.024  0.0517  0.4231  0.4359
  706MOL0     C93091   4.645   1.171   4.043 -0.1996 -0.4938  0.2067
  706MOL0     C93092   4.565   1.075   3.985 -0.5757 -0.4152 -0.2771
  706MOL0     C93093   4.597   0.941   4.001  0.2769 -0.7582 -0.2034
  706MOL0     C93094   4.695   0.896   4.084 -0.4326  0.1899  0.2596
  706MOL0     O93095   4.707   0.765   4.122  0.2662  0.2037  0.2735
  706MOL0     C93096   4.644   0.738   4.250 -0.8130 -0.2161 -0.8744
  706MOL0     C93097   4.501   0.717   4.237 -0.4324  0.9610  0.3431
  706MOL0     C93098   4.425   0.767   4.362  0.6797  0.5965 -0.2822
  706MOL0     C93099   4.402   0.920   4.339 -0.3478  0.1124  0.5359
  706MOL0     C93100   4.331   0.993   4.453  0.9657  0.4854 -0.1547
  706MOL0     C93101   4.413   1.063   4.552 -0.1923 -0.2215 -0.1736
  706MOL0     C93102   4.332   1.125   4.672 -0.1872  1.4986 -0.2253
  706MOL0     C93103   4.410   1.236   4.739 -0.7748 -1.0802  0.1078
  706MOL0    Cl93104   4.574   1.173   4.775 -0.3569  0.0610  0.5045
  706MOL0     C93105   4.779   0.993   4.140 -0.3866 -0.2349 -1.2025
  706MOL0     C93106   4.762   1.129   4.119  0.5054  0.6206 -0.2521
  706MOL0     O93107   4.795   1.337   3.888 -0.1800 -0.2074  0.1636
  706MOL0     C93108   4.539   1.563   3.939  0.5736  0.7829 -1.1925
  706MOL0     C93109   4.509   1.692   3.912  0.5622 -0.2488 -0.0630
  706MOL0     N93110   4.328   2.337   3.687 -0.1350  0.0869 -0.1444
  706MOL0     N93111   4.325   2.452   3.751 -0.0644 -0.3480 -0.5519
  706MOL0     C93112   4.332   2.069   4.181 -0.1626  0.0758 -0.5833
  706MOL0     C93113   4.275   1.964   4.113 -0.2121  0.6361 -0.5983
  706MOL0     C93114   3.985   1.791   3.804 -0.3311 -0.1809 -0.3793
  706MOL0     C93115   3.842   1.786   3.768 -0.3601  0.8445  0.1816
  706MOL0     C93116   3.800   1.677   3.693 -0.0451  0.7694  0.7468
  706MOL0     C93117   3.889   1.580   3.639 -0.1633  0.2671 -0.0891
  706MOL0     O93118   3.854   1.460   3.579 -0.6689 -0.3574 -0.3602
  706MOL0     C93119   3.911   1.427   3.453  0.0532 -0.4544 -0.4273
  706MOL0     C93120   3.818   1.469   3.330  0.0080 -0.4999  0.7115
  706MOL0     C93121   3.869   1.590   3.253 -1.1886 -0.5540  0.3464
  706MOL0     C93122   3.853   1.727   3.319  0.1660  0.3474  0.0392
  706MOL0     C93123   3.713   1.777   3.331  0.6174 -0.1290  0.8423
  706MOL0     C93124   3.609   1.821   3.373 -0.1293  1.2760  0.1025
  706MOL0     C93125   4.023   1.587   3.678 -0.0208 -0.7429 -0.0793
  706MOL0     C93126   4.063   1.682   3.762  0.3180 -0.2340 -0.1613
  706MOL0     H93127   4.207   2.135   3.829 -0.2480  2.4100  0.2460
  706MOL0     H93128   4.305   2.319   3.962 -0.5834  0.7793  0.2893
  706MOL0     H93129   4.580   2.265   4.080  0.3518 -1.0531  0.2420
  706MOL0     H93130   4.575   2.183   4.231  0.1893 -1.2663 -1.6536
  706MOL0     H93131   4.727   2.371   4.270 -0.6840 -5.9072  1.6359
  706MOL0     H93132   4.588   2.380   4.378 -1.6034  1.1015  0.3741
  706MOL0     H93133   4.665   2.599   4.281  0.4266  1.2762 -0.6495
  706MOL0     H93134   4.500   2.569   4.232  0.5965  2.2053 -0.3074
  706MOL0     H93135   4.736   2.496   4.053  0.2011  0.8269 -0.1149
  706MOL0     H93136   4.573   2.494   4.011  0.0165 -1.8859  0.7396
  706MOL0     H93137   4.744   2.742   4.053 -0.2471 -0.0892  0.2844
  706MOL0     H93138   4.583   2.772   4.107  1.0748  1.7805  0.1720
  706MOL0     H93139   4.652   2.618   3.845 -1.5534 -0.8002  1.1779
  706MOL0     H93140   4.657   2.804   3.850  1.5704  0.5503  2.2106
  706MOL0     H93141   4.419   2.644   3.941  0.1244  0.6673  0.5492
  706MOL0     H93142   4.420   2.810   3.876  1.3431  1.0929 -1.7915
  706MOL0     H93143   4.497   2.718   3.647  1.5679 -0.5518 -0.2967
  706MOL0     H93144   4.338   2.742   3.692  0.3510  0.0875 -1.2336
  706MOL0     H93145   4.522   2.532   3.503  1.4252 -2.7490 -0.3717
  706MOL0     H93146   4.470   2.296   3.373 -1.1004 -0.4238 -1.1818
  706MOL0     H93147   4.336   2.206   3.445 -0.7904  0.6678  2.2559
  706MOL0     H93148   4.644   2.184   3.517  0.4991 -1.0197  2.4749
  706MOL0     H93149   4.548   2.074   3.429 -0.8887  0.5622 -0.9279
  706MOL0     H93150   4.530   2.141   3.727  1.1027 -1.3899  0.5047
  706MOL0     H93151   4.413   2.045   3.652  0.3292  0.9029  1.3945
  706MOL0     H93152   4.697   1.975   3.691 -0.6397  2.8833  0.0459
  706MOL0     H93153   4.592   1.885   3.568  0.7924 -1.3389  0.4147
  706MOL0     H93154   4.720   1.744   3.650  0.6771  1.1267  0.4661
  706MOL0     H93155   4.793   1.533   3.716  0.4229  1.3027 -0.8081
  706MOL0     H93156   4.476   1.094   3.925  0.3713 -2.7406 -2.6084
  706MOL0     H93157   4.526   0.874   3.954  0.9205  0.0296 -2.4165
  706MOL0     H93158   4.686   0.813   4.317  1.1136 -2.0221  0.0497
  706MOL0     H93159   4.693   0.650   4.292 -0.3381 -0.7466 -2.4658
  706MOL0     H93160   4.484   0.613   4.208 -2.0041  1.2423  0.1904
  706MOL0     H93161   4.479   0.788   4.157  0.4805  3.5011  2.2349
  706MOL0     H93162   4.468   0.738   4.458 -3.3167 -0.9112  1.2617
  706MOL0     H93163   4.324   0.726   4.352 -0.1703  2.6783 -0.9129
  706MOL0     H93164   4.499   0.970   4.346 -1.3955  2.5295 -1.1345
  706MOL0     H93165   4.353   0.939   4.243 -2.6578 -2.0076  1.1827
  706MOL0     H93166   4.283   0.912   4.510  2.0091  0.3649  0.5983
  706MOL0     H93167   4.261   1.067   4.415  1.8328  2.5952  2.0613
  706MOL0     H93168   4.466   1.148   4.507 -0.4505  1.9822  3.2814
  706MOL0     H93169   4.493   1.003   4.594 -0.0237 -0.1534 -0.3946
  706MOL0     H93170   4.244   1.171   4.626 -1.1293 -0.2010 -0.1898
  706MOL0     H93171   4.311   1.046   4.744  4.4014 -0.4237 -0.6374
  706MOL0     H93172   4.376   1.284   4.831  0.0398 -0.4540  0.0952
  706MOL0     H93173   4.422   1.308   4.657  2.0794  0.3716  1.6505
  706MOL0     H93174   4.864   0.958   4.198  1.1706  3.5569 -0.8557
  706MOL0     H93175   4.836   1.192   4.164  0.4404  0.0526  0.6715
  706MOL0     H93176   4.484   1.517   4.021  0.0034  1.6409 -1.0709
  706MOL0     H93177   4.435   1.743   3.974  0.9487  1.1614 -0.7157
  706MOL0     H93178   4.366   2.057   4.283 -1.6951  2.5343  0.3041
  706MOL0     H93179   4.256   1.863   4.148 -1.5178  0.7385 -0.9638
  706MOL0     H93180   3.774   1.865   3.797 -3.0406 -0.7090 -1.5460
  706MOL0     H93181   3.699   1.661   3.655 -0.1906  2.1232  0.5350
  706MOL0     H93182   3.930   1.319   3.452  1.6439 -0.2009 -1.2086
  706MOL0     H93183   4.009   1.474   3.439  0.0390 -0.1356  0.4823
  706MOL0     H93184   3.817   1.386   3.258 -3.5618  1.9684 -2.4651
  706MOL0     H93185   3.714   1.480   3.361  0.6741  2.4252  2.2487
  706MOL0     H93186   3.824   1.585   3.154 -2.0881 -0.1420  0.7229
  706MOL0     H93187   3.973   1.566   3.228 -1.2826 -0.1550 -0.4722
  706MOL0     H93188   3.890   1.728   3.422 -0.8622  2.8928  0.4586
  706MOL0     H93189   3.912   1.808   3.273 -0.3012  1.2723  1.0324
  706MOL0     H93190   3.511   1.852   3.406  0.1862  1.0591  1.2837
  706MOL0     H93191   4.100   1.517   3.646  1.0013  0.6328 -0.7545
  706MOL0     H93192   4.171   1.681   3.777  0.3352 -1.8323 -0.2670
  707MOL0     O93193   3.602   8.089   8.554 -0.3296 -0.1536 -0.4876
  707MOL0     C93194   3.697   8.152   8.510 -0.4507 -0.5264 -0.0745
  707MOL0     O93195   3.826   8.105   8.503 -0.5383  0.3222 -0.1344
  707MOL0     C93196   3.855   7.981   8.565 -0.7702 -0.4290  0.2466
  707MOL0     C93197   3.951   7.906   8.503 -0.3593  0.5936  0.6038
  707MOL0     C93198   3.971   7.773   8.545  0.1981  0.4499 -0.2794
  707MOL0     C93199   3.916   7.722   8.668  0.2196  0.1405 -0.3815
  707MOL0     O93200   3.918   7.587   8.701  0.0171  0.1671 -0.2908
  707MOL0     C93201   3.835   7.533   8.808 -1.0260 -0.3449  0.8101
  707MOL0     C93202   3.866   7.374   8.823  0.4236  0.0619  0.4135
  707MOL0     C93203   3.856   7.305   8.687  0.2539 -0.7006  0.4017
  707MOL0     C93204   3.866   7.161   8.716 -0.0392  0.0643 -0.0077
  707MOL0     C93205   3.866   7.054   8.609 -0.2134  0.3129  0.5708
  707MOL0     C93206   3.994   7.073   8.522 -1.2043  0.2660  0.4820
  707MOL0     C93207   3.990   6.992   8.394 -0.2723  0.6325  0.0906
  707MOL0     C93208   4.132   6.983   8.328  0.0231 -0.4866  0.8433
  707MOL0     N93209   4.219   6.891   8.407 -0.3436  0.2448  0.6873
  707MOL0     C93210   4.287   6.911   8.529 -0.2678  0.1827 -0.1176
  707MOL0     C93211   4.369   6.807   8.525  0.0999  0.1156 -0.3693
  707MOL0     C93212   4.467   6.770   8.635 -0.8294  0.1450  0.8861
  707MOL0     C93213   4.547   6.892   8.675 -0.2066 -0.3434 -0.7365
  707MOL0     C93214   4.694   6.852   8.717 -0.7949  0.4646 -0.4295
  707MOL0     C93215   4.773   6.977   8.707  0.3995 -0.3556 -0.5969
  707MOL0     O93216   4.739   7.062   8.811 -0.4863  0.1987 -0.0783
  707MOL0     C93217   4.769   7.195   8.819 -0.2355  0.1236 -0.5845
  707MOL0     C93218   4.877   7.239   8.887  0.5757  0.2297 -0.0939
  707MOL0     C93219   4.908   7.381   8.899  0.5405  0.0929 -0.0442
  707MOL0     C93220   4.817   7.472   8.862 -1.7678  0.1398  0.6358
  707MOL0     C93221   4.838   7.619   8.877  0.9384  0.0267  0.2045
  707MOL0     O93222   4.734   7.692   8.857  0.0451  0.2075 -0.6971
  707MOL0     C93223   4.723   7.825   8.870  0.4355 -0.2581 -0.0526
  707MOL0     C93224   4.665   7.905   8.768 -0.1191  0.6229  0.7456
  707MOL0     C93225   4.654   8.047   8.773 -0.3726 -0.4529  0.3487
  707MOL0     C93226   4.685   8.114   8.891  0.2656 -0.2957  0.2739
  707MOL0     O93227   4.653   8.246   8.891 -0.2921  0.3760  0.9921
  707MOL0     C93228   4.697   8.330   8.995 -1.0171  0.7549 -0.0927
  707MOL0     C93229   4.636   8.461   8.979  0.8037 -0.8147 -0.6195
  707MOL0     C93230   4.645   8.534   8.849 -0.1379 -0.2509  0.6111
  707MOL0     C93231   4.666   8.682   8.874  0.4062 -0.8810 -0.0240
  707MOL0     C93232   4.675   8.765   8.741 -0.5019  0.0723 -0.2375
  707MOL0     C93233   4.694   8.910   8.779  0.5475 -0.3334 -0.0009
  707MOL0     C93234   4.839   8.940   8.821 -0.3168  0.0316  0.3715
  707MOL0     C93235   4.872   9.081   8.869  0.3282 -0.5847  0.0248
  707MOL0    Cl93236   4.858   9.197   8.726 -0.1846  0.1559 -0.7573
  707MOL0     C93237   4.751   8.039   8.991  0.4253 -0.4458  0.3539
  707MOL0     C93238   4.768   7.898   8.981 -0.3251 -1.2455 -0.0502
  707MOL0     O93239   4.946   7.655   8.907 -0.4461 -0.6189  0.3172
  707MOL0     C93240   4.698   7.421   8.797 -0.2339  0.1737 -0.4523
  707MOL0     C93241   4.676   7.287   8.776  0.0496 -0.0601  0.6618
  707MOL0     N93242   4.347   6.730   8.418 -0.7241 -0.6832 -0.4328
  707MOL0     N93243   4.260   6.778   8.344 -0.3838 -0.3513  0.3575
  707MOL0     C93244   3.834   7.813   8.737  0.4199 -0.0373  1.9766
  707MOL0     C93245   3.808   7.938   8.688 -0.0079 -0.2394  0.0283
  707MOL0     C93246   3.665   8.275   8.432 -0.0132 -0.9810  0.3827
  707MOL0     C93247   3.532   8.318   8.407  0.8327 -0.0069  0.6231
  707MOL0     C93248   3.511   8.433   8.345 -0.5806 -0.3904  1.0918
  707MOL0     C93249   3.616   8.515   8.304 -0.4003 -0.3344 -0.6851
  707MOL0     O93250   3.578   8.642   8.256  0.2372 -0.1922  0.8750
  707MOL0     C93251   3.631   8.761   8.310  0.4557 -0.2479  0.5486
  707MOL0     C93252   3.592   8.876   8.212 -0.8549  0.0336 -0.2605
  707MOL0     C93253   3.662   9.020   8.249  0.3955  1.4226 -0.3814
  707MOL0     C93254   3.624   9.136   8.150 -0.1149 -0.8435  0.3543
  707MOL0     C93255   3.640   9.260   8.212  0.8983 -0.0026 -0.6892
  707MOL0     C93256   3.666   9.375   8.238 -0.8570  0.6795 -0.4157
  707MOL0     C93257   3.745   8.477   8.335 -0.1686 -0.3776  0.2370
  707MOL0     C93258   3.776   8.354   8.389  0.8920 -0.1347 -0.3590
  707MOL0     H93259   3.988   7.945   8.409 -0.3106  0.0486  0.3891
  707MOL0     H93260   4.023   7.695   8.490 -1.0289 -1.6221  1.3357
  707MOL0     H93261   3.730   7.553   8.787 -1.4146 -1.9574  1.0557
  707MOL0     H93262   3.861   7.583   8.902 -5.8503 -1.0521  2.7864
  707MOL0     H93263   3.788   7.333   8.889 -1.6758  1.3130 -1.1684
  707MOL0     H93264   3.961   7.369   8.877 -0.2244  2.1150  1.8726
  707MOL0     H93265   3.936   7.331   8.616  0.7789  1.0447  1.5457
  707MOL0     H93266   3.755   7.337   8.660  1.0606  2.2063  0.5025
  707MOL0     H93267   3.952   7.145   8.781 -1.2116 -3.2875  0.9332
  707MOL0     H93268   3.772   7.136   8.767  1.6135 -0.3551  3.0791
  707MOL0     H93269   3.778   7.055   8.544 -0.8746 -2.1237  1.3255
  707MOL0     H93270   3.859   6.956   8.657  0.6882  1.5725  3.5147
  707MOL0     H93271   4.076   7.034   8.583  2.2584  2.8235 -2.1396
  707MOL0     H93272   4.014   7.176   8.494  0.4309 -0.2125 -0.2305
  707MOL0     H93273   3.948   6.892   8.409 -0.5417  0.9373  1.6072
  707MOL0     H93274   3.928   7.031   8.313 -0.9464  0.8104  0.6827
  707MOL0     H93275   4.190   7.075   8.332 -0.0307 -0.4891  1.7880
  707MOL0     H93276   4.129   6.942   8.227  2.2130 -1.6717  1.1842
  707MOL0     H93277   4.290   6.987   8.606 -1.1503 -0.2742  0.3908
  707MOL0     H93278   4.531   6.687   8.602 -0.2732  1.3106 -1.1248
  707MOL0     H93279   4.412   6.731   8.721 -1.7017 -2.7474 -0.8322
  707MOL0     H93280   4.494   6.942   8.757  0.6051  0.7025 -0.8353
  707MOL0     H93281   4.542   6.970   8.599 -2.4749  0.7388  0.4097
  707MOL0     H93282   4.703   6.805   8.815  2.8829 -0.3231 -1.0117
  707MOL0     H93283   4.715   6.773   8.645  0.2747 -4.0396  4.2646
  707MOL0     H93284   4.773   7.027   8.609  0.3015 -1.1964 -1.0394
  707MOL0     H93285   4.878   6.950   8.722  0.6563  1.8193  2.1163
  707MOL0     H93286   4.943   7.167   8.934  2.9202  3.0048  1.1571
  707MOL0     H93287   5.002   7.422   8.935 -1.6693  2.4912  3.7152
  707MOL0     H93288   4.653   7.868   8.667  0.3476  0.4921  0.7336
  707MOL0     H93289   4.603   8.091   8.688  1.9556  2.1851  0.1524
  707MOL0     H93290   4.806   8.339   8.998 -0.7571 -1.0955  4.6288
  707MOL0     H93291   4.674   8.283   9.092 -0.8470  0.7124 -0.0723
  707MOL0     H93292   4.682   8.527   9.053 -0.3589  0.2362 -0.8055
  707MOL0     H93293   4.531   8.460   9.008  1.4794  0.9834  2.2378
  707MOL0     H93294   4.558   8.532   8.783  0.4423  1.2050 -0.2398
  707MOL0     H93295   4.728   8.496   8.789  2.2112  1.4119  2.6115
  707MOL0     H93296   4.585   8.720   8.938  0.2831  3.2458 -2.2271
  707MOL0     H93297   4.752   8.700   8.938 -0.4801  2.7399  0.3972
  707MOL0     H93298   4.588   8.738   8.680 -0.4400 -1.3657  0.2825
  707MOL0     H93299   4.767   8.728   8.695 -1.1083 -0.7093 -0.8484
  707MOL0     H93300   4.620   8.926   8.858  2.1192 -3.5977  2.4021
  707MOL0     H93301   4.666   8.975   8.696  1.7997  0.7796  0.3906
  707MOL0     H93302   4.864   8.873   8.904  1.9217 -2.6883 -2.2790
  707MOL0     H93303   4.904   8.928   8.734 -3.3050  2.4093 -2.4295
  707MOL0     H93304   4.966   9.085   8.924 -0.4955  1.3315  1.4170
  707MOL0     H93305   4.797   9.112   8.943 -1.1578  0.8475 -1.9761
  707MOL0     H93306   4.791   8.099   9.073 -1.0533 -0.1220  0.8752
  707MOL0     H93307   4.820   7.852   9.065  2.3738  0.6499 -0.5650
  707MOL0     H93308   4.614   7.486   8.775 -1.3840 -1.7386 -2.0031
  707MOL0     H93309   4.585   7.243   8.736  0.3751 -0.9426  0.8619
  707MOL0     H93310   3.784   7.799   8.833 -0.1612 -0.2380  1.6488
  707MOL0     H93311   3.751   7.994   8.761  1.1217 -0.7796  1.3833
  707MOL0     H93312   3.450   8.256   8.440 -0.2159  1.3361  0.6081
  707MOL0     H93313   3.416   8.482   8.325 -0.6824  0.7887  3.9969
  707MOL0     H93314   3.740   8.756   8.321  0.5012  0.6264  0.5362
  707MOL0     H93315   3.576   8.786   8.402 -2.2627 -2.7260 -0.2547
  707MOL0     H93316   3.620   8.853   8.109 -0.5414 -0.4592 -0.0689
  707MOL0     H93317   3.484   8.888   8.224 -0.5588  1.9230  1.2000
  707MOL0     H93318   3.771   9.014   8.254  0.4779  1.5415 -1.6744
  707MOL0     H93319   3.615   9.045   8.345  4.0719  0.6896  1.8234
  707MOL0     H93320   3.680   9.130   8.056 -2.2712 -1.0662 -0.9754
  707MOL0     H93321   3.520   9.122   8.120 -0.2340 -1.2857  0.9503
  707MOL0     H93322   3.704   9.469   8.272 -1.8894  0.4053  1.6412
  707MOL0     H93323   3.811   8.558   8.307 -4.6475  2.8016 -2.4726
  707MOL0     H93324   3.878   8.323   8.405  1.4644  1.4024 -0.8237
  708MOL0     O93325   8.285  10.226   8.393  0.2221  0.2620  0.4988
  708MOL0     C93326   8.383  10.211   8.320 -0.2441  0.9546  0.0738
  708MOL0     O93327   8.513  10.227   8.357 -0.3555 -0.5504  0.3768
  708MOL0     C93328   8.534  10.267   8.490  0.0197 -0.4765  0.3341
  708MOL0     C93329   8.508  10.192   8.606  0.2377  0.9707  0.6954
  708MOL0     C93330   8.547  10.235   8.741  0.7090 -0.0851  0.9701
  708MOL0     C93331   8.621  10.349   8.756 -0.7783  0.2087 -0.1955
  708MOL0     O93332   8.661  10.401   8.877  0.8532 -0.4076  0.4325
  708MOL0     C93333   8.668  10.316   8.991 -0.6134  0.1667  1.0098
  708MOL0     C93334   8.692  10.380   9.113 -0.4142  0.4744  0.1586
  708MOL0     C93335   8.728  10.290   9.236 -0.6935  0.0823  0.8952
  708MOL0     C93336   8.756  10.368   9.361 -0.5417 -0.5479  0.0275
  708MOL0     C93337   8.782  10.268   9.471 -1.0839  0.4200  0.3676
  708MOL0     C93338   8.765  10.344   9.607 -0.3321  0.5211 -0.6521
  708MOL0     C93339   8.783  10.229   9.717  0.2357 -0.2301  0.4715
  708MOL0     C93340   8.658  10.230   9.809  0.5224  0.4407  0.1294
  708MOL0     N93341   8.683  10.174   9.942 -1.1816  0.2627  0.1264
  708MOL0     C93342   8.683  10.258  10.047 -0.9696  1.1445  0.4286
  708MOL0     C93343   8.638  10.173  10.143 -0.7671  0.3262  0.5240
  708MOL0     C93344   8.607  10.196  10.284  0.7187  0.5140  0.2615
  708MOL0     C93345   8.729  10.146  10.379 -0.0257 -0.4999  1.0526
  708MOL0     C93346   8.805  10.271  10.440  0.1884  1.0820 -0.9502
  708MOL0     C93347   8.881  10.354  10.340  0.1229  0.0983  0.7780
  708MOL0     O93348   8.979  10.283  10.266  0.3813  0.3191  0.4053
  708MOL0     C93349   9.009  10.334  10.137 -0.0937  0.3809  0.9715
  708MOL0     C93350   9.085  10.251  10.050 -1.5393 -0.2479  0.1274
  708MOL0     C93351   9.131  10.291   9.930 -0.9890  0.0013  1.1635
  708MOL0     C93352   9.096  10.414   9.886 -0.7072 -0.6171 -0.1421
  708MOL0     C93353   9.139  10.448   9.744 -0.6227  0.2846 -1.1945
  708MOL0     O93354   9.234  10.368   9.687 -0.5706 -0.2523  0.2229
  708MOL0     C93355   9.293  10.378   9.561 -0.0453 -0.5173  0.0285
  708MOL0     C93356   9.232  10.416   9.452  0.4857  0.3662  0.0482
  708MOL0     C93357   9.300  10.415   9.326 -0.6197  0.8614 -0.1723
  708MOL0     C93358   9.426  10.361   9.314 -0.0750  0.0499  0.6199
  708MOL0     O93359   9.491  10.358   9.191 -0.0934 -0.1224 -0.0211
  708MOL0     C93360   9.572  10.232   9.180  0.8811 -1.3095 -0.5135
  708MOL0     C93361   9.611  10.193   9.039  0.5655 -0.1008  0.0548
  708MOL0     C93362   9.709  10.302   9.003 -0.0895 -0.2074  0.7875
  708MOL0     C93363   9.751  10.286   8.860  1.0981 -0.9605  0.6555
  708MOL0     C93364   9.868  10.381   8.819  0.1742 -0.3751 -0.4437
  708MOL0     C93365  10.002  10.316   8.857 -0.5816  0.2588  0.2920
  708MOL0     C93366  10.105  10.388   8.785 -0.0837  0.1394 -0.5292
  708MOL0     C93367  10.243  10.331   8.833  0.1093  1.1917  0.0950
  708MOL0    Cl93368  10.264  10.177   8.763  0.0047  0.4496  0.4157
  708MOL0     C93369   9.487  10.334   9.431 -0.5228 -0.6514 -0.7749
  708MOL0     C93370   9.428  10.340   9.558  0.3802  0.1694 -0.0351
  708MOL0     O93371   9.080  10.539   9.685  0.1360  0.2448 -0.0708
  708MOL0     C93372   9.013  10.505   9.958  0.1239 -0.3202  0.8272
  708MOL0     C93373   8.974  10.462  10.084  0.4237  0.8992  0.3379
  708MOL0     N93374   8.616  10.049  10.090 -0.0475  0.6789  1.0666
  708MOL0     N93375   8.657  10.044   9.966  0.4909  1.2593  0.2957
  708MOL0     C93376   8.657  10.423   8.640 -0.2803  0.1088 -0.5603
  708MOL0     C93377   8.611  10.384   8.508  0.4677 -0.7931 -0.2784
  708MOL0     C93378   8.341  10.154   8.185 -0.3900 -0.3251  0.4737
  708MOL0     C93379   8.436  10.088   8.105 -0.2328  0.3842 -1.0962
  708MOL0     C93380   8.423  10.051   7.970  0.1830  0.1330 -0.1208
  708MOL0     C93381   8.292  10.068   7.912 -0.3296 -0.8627  0.5480
  708MOL0     O93382   8.277  10.031   7.780 -0.0251 -0.1632  0.0058
  708MOL0     C93383   8.144  10.015   7.739 -0.3377 -1.4494  0.7720
  708MOL0     C93384   8.138   9.997   7.588 -0.5174  0.2552 -0.3453
  708MOL0     C93385   8.192  10.127   7.518 -0.1147  0.8289 -0.4401
  708MOL0     C93386   8.107  10.159   7.393 -0.2766 -0.7067 -1.0303
  708MOL0     C93387   8.152  10.289   7.340 -0.2619  0.1164  0.0111
  708MOL0     C93388   8.194  10.388   7.292  0.9624  0.2217 -0.3841
  708MOL0     C93389   8.193  10.138   7.987 -1.0587  0.5907 -0.3841
  708MOL0     C93390   8.216  10.178   8.123  0.4985 -0.0308  0.0097
  708MOL0     H93391   8.443  10.105   8.611  3.8718 -2.7578 -5.2244
  708MOL0     H93392   8.520  10.174   8.826 -3.5730  1.3263  0.8918
  708MOL0     H93393   8.753  10.247   8.984  0.7810  1.9060 -0.3601
  708MOL0     H93394   8.583  10.250   9.008 -0.1269 -1.4559 -2.0026
  708MOL0     H93395   8.598  10.433   9.133 -0.4120  0.9896 -1.1218
  708MOL0     H93396   8.776  10.448   9.098  0.5393 -1.0991 -2.1859
  708MOL0     H93397   8.822  10.243   9.203 -1.1174  0.2683 -0.6584
  708MOL0     H93398   8.648  10.215   9.245 -0.6285 -0.0608  0.3508
  708MOL0     H93399   8.846  10.429   9.356 -0.8644 -0.0583  0.0807
  708MOL0     H93400   8.668  10.431   9.379 -0.3280  0.5385 -2.2636
  708MOL0     H93401   8.886  10.241   9.456 -1.2530  0.3526 -0.7336
  708MOL0     H93402   8.723  10.176   9.468 -3.8654  2.0378  1.0021
  708MOL0     H93403   8.671  10.399   9.613 -0.5937  0.1668 -1.3229
  708MOL0     H93404   8.853  10.404   9.629  0.7628 -1.4813  0.7783
  708MOL0     H93405   8.782  10.133   9.664 -1.4931  0.8187 -1.5778
  708MOL0     H93406   8.883  10.231   9.762  1.1951  0.5420 -1.5841
  708MOL0     H93407   8.586  10.172   9.751  1.3053  0.2087 -0.6462
  708MOL0     H93408   8.612  10.329   9.818 -2.8728 -0.9518 -0.3961
  708MOL0     H93409   8.697  10.365  10.054 -0.1029  0.9326  2.8292
  708MOL0     H93410   8.508  10.152  10.290  0.6281 -0.5262 -4.7745
  708MOL0     H93411   8.596  10.305  10.289  1.6607  0.6075  0.6062
  708MOL0     H93412   8.803  10.080  10.332 -0.2650 -0.7165  0.9793
  708MOL0     H93413   8.688  10.090  10.464  2.2332 -2.5694  0.9060
  708MOL0     H93414   8.726  10.322  10.497  0.2103 -2.4602  2.7076
  708MOL0     H93415   8.874  10.240  10.518 -2.0717 -1.6580  0.1411
  708MOL0     H93416   8.917  10.450  10.378 -0.0923 -0.0294  1.3256
  708MOL0     H93417   8.803  10.387  10.272  1.9788  2.1492 -0.4974
  708MOL0     H93418   9.105  10.151  10.085 -0.3181  0.1391  0.6119
  708MOL0     H93419   9.191  10.215   9.880 -2.2294 -0.6604  0.6398
  708MOL0     H93420   9.133  10.461   9.444  1.0632  1.9971  1.4621
  708MOL0     H93421   9.256  10.448   9.232  1.4556 -3.2263 -2.8974
  708MOL0     H93422   9.522  10.143   9.221  0.8031 -0.7191  0.7300
  708MOL0     H93423   9.665  10.236   9.238  0.9432 -0.2258 -0.6768
  708MOL0     H93424   9.524  10.177   8.975  0.0170  0.1448  0.7378
  708MOL0     H93425   9.658  10.094   9.027  1.7221  0.5607 -1.3030
  708MOL0     H93426   9.799  10.294   9.065 -0.1305  1.0822  1.0380
  708MOL0     H93427   9.675  10.405   9.020 -2.1625 -0.6161 -0.6669
  708MOL0     H93428   9.788  10.185   8.841  3.1250 -0.4122  1.3801
  708MOL0     H93429   9.664  10.304   8.796  0.2877 -1.6834  1.5243
  708MOL0     H93430   9.863  10.480   8.865  4.3322 -0.7042  1.1446
  708MOL0     H93431   9.863  10.402   8.711 -6.3516  0.5484 -0.3570
  708MOL0     H93432  10.007  10.219   8.806 -0.8505 -0.2920  1.2889
  708MOL0     H93433  10.018  10.310   8.965 -1.8068  0.4465  0.4987
  708MOL0     H93434  10.102  10.371   8.677  2.3546 -1.5711 -0.4027
  708MOL0     H93435  10.098  10.495   8.807  0.4991  0.5602 -2.2268
  708MOL0     H93436  10.251  10.319   8.941  0.8452  3.2428  0.3136
  708MOL0     H93437  10.322  10.394   8.791 -0.7981  0.8674 -2.3019
  708MOL0     H93438   9.584  10.288   9.418  0.2324  0.7751 -0.3952
  708MOL0     H93439   9.481  10.307   9.647  0.4476 -1.7802 -0.7276
  708MOL0     H93440   8.997  10.605   9.918  4.1873  0.1358 -0.1455
  708MOL0     H93441   8.939  10.544  10.146  3.4101  0.9464  2.1533
  708MOL0     H93442   8.715  10.511   8.665  1.1786 -1.0845  0.4694
  708MOL0     H93443   8.648  10.441   8.424  4.8139  4.4092  4.3154
  708MOL0     H93444   8.528  10.074   8.161 -1.7812  2.6491  2.3631
  708MOL0     H93445   8.502  10.001   7.915  0.3941 -1.1434  1.2772
  708MOL0     H93446   8.072  10.090   7.772 -1.0756 -0.1513 -3.2121
  708MOL0     H93447   8.102   9.925   7.784  0.7749 -1.2384  2.3384
  708MOL0     H93448   8.188   9.911   7.543  0.0667  2.2968 -3.9710
  708MOL0     H93449   8.034   9.987   7.555 -0.1750 -0.0236 -1.3687
  708MOL0     H93450   8.298  10.120   7.493 -0.2998  3.3976 -2.4373
  708MOL0     H93451   8.156  10.200   7.591 -1.8317 -1.6483  1.3419
  708MOL0     H93452   8.117  10.083   7.315  0.6639 -3.3780  1.5011
  708MOL0     H93453   8.003  10.163   7.428 -1.0588 -2.5681 -2.9682
  708MOL0     H93454   8.232  10.471   7.235  0.6238 -0.9063 -2.3687
  708MOL0     H93455   8.103  10.183   7.946 -2.7491 -1.6003  0.7027
  708MOL0     H93456   8.135  10.214   8.185 -0.7448 -0.9597 -1.0111
  709MOL0     O93457   4.591   5.222   0.411 -0.1118  0.3854 -0.2725
  709MOL0     C93458   4.670   5.150   0.352 -0.2885  0.3679 -0.3320
  709MOL0     O93459   4.651   5.103   0.220  0.3447  0.1024  0.1884
  709MOL0     C93460   4.529   5.092   0.165 -0.0418 -0.1361  0.2727
  709MOL0     C93461   4.501   5.190   0.062  0.0218 -0.5207 -0.8300
  709MOL0     C93462   4.377   5.187   0.003  0.4924 -0.0574 -0.2000
  709MOL0     C93463   4.273   5.099   0.048  0.2733 -0.5011  1.2102
  709MOL0     O93464   4.160   5.067  -0.021  0.0468  0.2015  0.0823
  709MOL0     C93465   4.115   5.157  -0.119  0.4670 -0.4829  0.5333
  709MOL0     C93466   3.968   5.132  -0.150 -0.4412  0.0526  0.3910
  709MOL0     C93467   3.911   5.223  -0.269 -0.4863  0.3426 -0.5841
  709MOL0     C93468   3.968   5.362  -0.273  0.5514  0.8617 -0.3683
  709MOL0     C93469   3.897   5.435  -0.392  0.3791  0.9193 -0.1879
  709MOL0     C93470   3.873   5.581  -0.392  0.2090  0.1125  0.0469
  709MOL0     C93471   3.976   5.660  -0.311  0.8397  0.3684  0.0207
  709MOL0     C93472   3.980   5.808  -0.331  0.2652 -0.8251 -0.3385
  709MOL0     N93473   4.069   5.882  -0.244 -0.1753  0.4192  0.2391
  709MOL0     C93474   4.109   6.004  -0.275  0.7329  0.3990 -0.0308
  709MOL0     C93475   4.207   6.022  -0.180  0.4345 -0.8828  0.2482
  709MOL0     C93476   4.274   6.158  -0.167  0.6117  0.5477  0.5451
  709MOL0     C93477   4.372   6.175  -0.289  0.4069 -0.0839  0.9596
  709MOL0     C93478   4.443   6.312  -0.294 -0.1395  0.0203 -1.0725
  709MOL0     C93479   4.542   6.311  -0.418 -0.1175 -0.3857  0.7168
  709MOL0     O93480   4.626   6.196  -0.430  0.0439  0.1196  0.3070
  709MOL0     C93481   4.749   6.182  -0.367  0.3388  1.0481 -0.0459
  709MOL0     C93482   4.823   6.070  -0.409 -0.1599 -0.0123 -0.3564
  709MOL0     C93483   4.957   6.058  -0.363  0.4830  0.0440 -0.7265
  709MOL0     C93484   5.024   6.157  -0.300 -0.0391  1.1111  0.1507
  709MOL0     C93485   5.173   6.142  -0.276  1.0829  0.2806 -0.8234
  709MOL0     O93486   5.235   6.255  -0.227  0.2135  0.2619  0.1390
  709MOL0     C93487   5.360   6.251  -0.181 -0.2601 -0.0239 -0.9394
  709MOL0     C93488   5.432   6.365  -0.213 -0.2650  0.3151 -0.2685
  709MOL0     C93489   5.566   6.371  -0.176  0.0281 -0.0892 -0.1227
  709MOL0     C93490   5.626   6.268  -0.108 -0.0025  0.0101 -0.0081
  709MOL0     O93491   5.762   6.263  -0.070 -0.3138  0.1895 -0.3719
  709MOL0     C93492   5.859   6.283  -0.181  0.6054  0.1186  0.5202
  709MOL0     C93493   6.011   6.267  -0.142 -1.2717 -0.1857 -0.5058
  709MOL0     C93494   6.106   6.266  -0.269 -0.0726 -0.8636  0.1375
  709MOL0     C93495   6.189   6.398  -0.256  0.3160 -0.4024  0.1438
  709MOL0     C93496   6.268   6.415  -0.391 -0.0541  0.5211 -1.4388
  709MOL0     C93497   6.385   6.488  -0.397  0.4737 -1.2192 -0.9400
  709MOL0     C93498   6.516   6.407  -0.369  0.6449 -0.3900 -0.1279
  709MOL0     C93499   6.516   6.350  -0.233  0.1244 -1.7360  0.2920
  709MOL0    Cl93500   6.510   6.488  -0.116 -0.0788  0.4853 -0.0347
  709MOL0     C93501   5.556   6.147  -0.088 -0.2733 -1.3661  0.1758
  709MOL0     C93502   5.423   6.143  -0.118 -0.8412  0.3541  0.5101
  709MOL0     O93503   5.229   6.040  -0.313  0.8273 -0.5288  0.8460
  709MOL0     C93504   4.945   6.270  -0.253 -1.1206 -1.4510 -0.5221
  709MOL0     C93505   4.807   6.274  -0.286 -0.6925  1.3033  0.1085
  709MOL0     N93506   4.214   5.924  -0.085 -0.2760  0.9343 -0.3870
  709MOL0     N93507   4.128   5.837  -0.125 -0.1689 -0.0761  0.4366
  709MOL0     C93508   4.309   5.004   0.146 -0.7810 -0.4933 -0.5860
  709MOL0     C93509   4.443   4.991   0.200  0.7645  0.0231 -0.4849
  709MOL0     C93510   4.797   5.123   0.419  0.3061 -0.7171 -0.6517
  709MOL0     C93511   4.841   5.181   0.537 -1.0537  0.5877  0.1328
  709MOL0     C93512   4.957   5.143   0.597  0.7951  0.7985 -0.0375
  709MOL0     C93513   5.044   5.047   0.547  0.6772  0.0340 -0.1773
  709MOL0     O93514   5.152   5.011   0.625 -0.7632  0.2156  0.0206
  709MOL0     C93515   5.231   4.899   0.571 -0.4961  0.2948 -1.0169
  709MOL0     C93516   5.348   4.835   0.658 -0.2098 -0.2604  1.1146
  709MOL0     C93517   5.475   4.923   0.666  0.5785  0.3626 -1.0204
  709MOL0     C93518   5.568   4.843   0.768  0.1779  0.3078 -0.1134
  709MOL0     C93519   5.694   4.918   0.773 -0.7850 -0.5510  0.4612
  709MOL0     C93520   5.807   4.968   0.771  0.8635 -0.2141 -0.1944
  709MOL0     C93521   5.010   4.995   0.416  0.1348 -0.1185 -0.3401
  709MOL0     C93522   4.885   5.032   0.361 -0.4739  0.6757 -0.6803
  709MOL0     H93523   4.578   5.260   0.035  0.1772 -0.4189 -0.1512
  709MOL0     H93524   4.363   5.275  -0.058 -0.1894  1.7378  2.3672
  709MOL0     H93525   4.177   5.140  -0.208  1.1506 -2.0811  1.2560
  709MOL0     H93526   4.130   5.259  -0.084 -4.0638  1.2188 -1.7051
  709MOL0     H93527   3.904   5.145  -0.061  2.0323  2.3335  2.0047
  709MOL0     H93528   3.964   5.028  -0.181 -3.8928  0.6491 -1.7902
  709MOL0     H93529   3.801   5.224  -0.265 -0.5978 -2.1636 -1.3381
  709MOL0     H93530   3.939   5.175  -0.363  4.5512 -2.0945  1.8180
  709MOL0     H93531   3.941   5.424  -0.187 -2.0894 -0.1440 -0.3524
  709MOL0     H93532   4.074   5.360  -0.297  0.6260  1.7839 -0.1646
  709MOL0     H93533   3.800   5.387  -0.412  0.7429  0.4899 -0.9610
  709MOL0     H93534   3.953   5.415  -0.483 -1.7617  0.6198 -1.5223
  709MOL0     H93535   3.783   5.605  -0.335  2.0861  2.8732  2.1330
  709MOL0     H93536   3.854   5.624  -0.491  1.2707  0.4686 -0.0076
  709MOL0     H93537   3.950   5.646  -0.206  0.1263  2.7161  0.2126
  709MOL0     H93538   4.076   5.620  -0.330  0.5828 -0.3176  0.0767
  709MOL0     H93539   3.881   5.840  -0.296  0.7883 -2.0359  2.5101
  709MOL0     H93540   3.996   5.845  -0.432 -3.5362  0.9486 -0.4821
  709MOL0     H93541   4.074   6.067  -0.357 -2.3066 -0.4166  0.4976
  709MOL0     H93542   4.332   6.165  -0.074  0.2303 -2.1672  1.0760
  709MOL0     H93543   4.199   6.238  -0.164 -0.8518 -0.3352 -4.2773
  709MOL0     H93544   4.316   6.166  -0.382  1.6077  1.1918  0.0741
  709MOL0     H93545   4.449   6.097  -0.289  0.0053 -0.5424 -0.8444
  709MOL0     H93546   4.374   6.391  -0.325  0.5488  0.8114 -0.6230
  709MOL0     H93547   4.496   6.338  -0.202  1.3971 -3.7718 -0.6935
  709MOL0     H93548   4.592   6.409  -0.416 -2.1668  0.7654 -0.7584
  709MOL0     H93549   4.480   6.309  -0.507  1.7523  0.6425 -0.6860
  709MOL0     H93550   4.785   5.995  -0.478 -1.9453  0.9829 -0.5326
  709MOL0     H93551   5.012   5.969  -0.392 -2.6859 -3.1720  2.1387
  709MOL0     H93552   5.394   6.457  -0.258 -0.0870  0.6482  0.2514
  709MOL0     H93553   5.628   6.459  -0.190  2.1756 -0.9441  2.8957
  709MOL0     H93554   5.842   6.378  -0.233  0.8681 -0.9273 -1.5864
  709MOL0     H93555   5.827   6.204  -0.250  0.5488  0.2253  0.4235
  709MOL0     H93556   6.029   6.169  -0.098 -1.2388 -1.0467 -2.3409
  709MOL0     H93557   6.040   6.348  -0.074  0.5806 -0.4352 -0.9461
  709MOL0     H93558   6.046   6.270  -0.360  0.5421  0.2643 -0.2387
  709MOL0     H93559   6.173   6.179  -0.273  1.6454  0.1895  3.0002
  709MOL0     H93560   6.115   6.477  -0.243 -0.9107 -0.6900 -3.9051
  709MOL0     H93561   6.250   6.395  -0.165 -0.7220 -1.8028  0.8266
  709MOL0     H93562   6.194   6.456  -0.461 -2.3727 -0.5389  0.2516
  709MOL0     H93563   6.291   6.317  -0.433 -1.0985  0.2008 -1.2899
  709MOL0     H93564   6.381   6.572  -0.327 -2.6568  0.2192 -2.6593
  709MOL0     H93565   6.398   6.536  -0.494  0.0823  1.4067  0.2294
  709MOL0     H93566   6.527   6.330  -0.446  1.8190  0.1234 -0.4899
  709MOL0     H93567   6.595   6.481  -0.387 -0.2023  0.5980  0.0704
  709MOL0     H93568   6.616   6.309  -0.220  0.7445 -0.5252 -0.4750
  709MOL0     H93569   6.447   6.266  -0.216 -0.1394 -2.1055 -2.1676
  709MOL0     H93570   5.621   6.066  -0.055  2.5165 -0.9752 -3.6263
  709MOL0     H93571   5.363   6.059  -0.083  1.3177 -1.4751  0.0432
  709MOL0     H93572   5.003   6.352  -0.210  0.6780 -2.3749 -1.1006
  709MOL0     H93573   4.741   6.352  -0.248  0.3652  2.9863 -1.3633
  709MOL0     H93574   4.239   4.923   0.164 -0.2210 -0.4152  2.7057
  709MOL0     H93575   4.466   4.906   0.263  1.3555  0.6801  0.2111
  709MOL0     H93576   4.779   5.259   0.579 -2.4989  0.5183 -1.7841
  709MOL0     H93577   4.993   5.188   0.690  0.3060  1.8752 -0.3585
  709MOL0     H93578   5.280   4.916   0.475  1.8888 -4.8330 -1.0612
  709MOL0     H93579   5.165   4.813   0.551 -0.0545  0.2299 -2.2832
  709MOL0     H93580   5.302   4.822   0.756 -2.0818  2.0386  0.6492
  709MOL0     H93581   5.369   4.736   0.617 -2.4258 -0.1403 -0.4788
  709MOL0     H93582   5.455   5.026   0.694  2.1484  0.6166 -0.7594
  709MOL0     H93583   5.530   4.930   0.572  4.9109  0.0499  1.2646
  709MOL0     H93584   5.531   4.831   0.870 -2.5223  1.4871 -0.8572
  709MOL0     H93585   5.584   4.743   0.728  5.5538  1.3945 -1.5145
  709MOL0     H93586   5.897   5.023   0.783  0.5377  0.5509 -1.1660
  709MOL0     H93587   5.067   4.937   0.344 -1.3244  1.6422 -3.0536
  709MOL0     H93588   4.868   4.979   0.268  1.8248 -0.4457 -0.5454
  710MOL0     O93589   8.521   5.276   2.236 -0.2188 -0.4596  0.8792
  710MOL0     C93590   8.630   5.301   2.264 -0.8674 -0.5345  0.1671
  710MOL0     O93591   8.730   5.213   2.292  0.4974 -0.3876  0.1946
  710MOL0     C93592   8.716   5.078   2.285  0.6734  0.2670  0.0399
  710MOL0     C93593   8.659   5.003   2.181  0.9555  0.7294  0.0340
  710MOL0     C93594   8.656   4.860   2.175  0.2946 -0.9518 -0.8799
  710MOL0     C93595   8.710   4.793   2.289  0.0894 -0.6323 -0.5347
  710MOL0     O93596   8.719   4.658   2.316 -0.4418 -0.3486 -0.2312
  710MOL0     C93597   8.662   4.573   2.217 -0.1406 -0.2042 -0.0954
  710MOL0     C93598   8.662   4.432   2.286 -0.0061  0.7263  1.0435
  710MOL0     C93599   8.584   4.317   2.207  0.2436  0.2844 -0.4427
  710MOL0     C93600   8.624   4.177   2.263  0.9013  0.1208  1.4431
  710MOL0     C93601   8.558   4.070   2.166 -0.2267 -1.0368 -0.0085
  710MOL0     C93602   8.549   3.936   2.233 -0.7293  0.2003  0.0720
  710MOL0     C93603   8.456   3.825   2.165 -0.7305 -1.1882  0.9229
  710MOL0     C93604   8.510   3.758   2.036  0.3288 -1.0477  0.5639
  710MOL0     N93605   8.433   3.643   1.993 -0.0735  0.3860  0.5552
  710MOL0     C93606   8.299   3.637   1.973  0.5632  0.9510 -0.4090
  710MOL0     C93607   8.274   3.511   1.935  0.7212  0.8666  0.4600
  710MOL0     C93608   8.145   3.450   1.885  1.1346 -0.9384 -0.9080
  710MOL0     C93609   8.150   3.296   1.872 -0.1513  0.1284 -0.2375
  710MOL0     C93610   8.014   3.219   1.879  0.6321  0.2791 -0.5842
  710MOL0     C93611   7.907   3.280   1.777 -0.1794 -0.2472 -0.5697
  710MOL0     O93612   7.964   3.275   1.648  0.0182 -0.0497  0.9157
  710MOL0     C93613   7.973   3.166   1.561  0.0544 -0.2620  0.2763
  710MOL0     C93614   8.017   3.180   1.424 -0.3862 -0.9862 -0.1467
  710MOL0     C93615   8.022   3.076   1.335  0.0155 -0.4055 -0.2329
  710MOL0     C93616   7.999   2.942   1.379 -1.2984  0.1743 -0.1506
  710MOL0     C93617   8.021   2.829   1.289 -0.4017  1.4211 -0.5485
  710MOL0     O93618   7.950   2.833   1.183 -0.2852 -0.4489  0.3819
  710MOL0     C93619   7.935   2.717   1.109  0.4637 -0.5086  0.7868
  710MOL0     C93620   8.016   2.687   0.997  0.7767 -0.3072 -1.0003
  710MOL0     C93621   8.015   2.558   0.942 -0.1702  0.0579  0.0891
  710MOL0     C93622   7.932   2.462   0.996  0.4282  0.0127 -0.4863
  710MOL0     O93623   7.943   2.342   0.929  0.6238 -0.9270  0.7310
  710MOL0     C93624   7.828   2.249   0.940 -0.8943  0.0315  0.8745
  710MOL0     C93625   7.875   2.116   0.887  0.5517  0.5142 -0.4009
  710MOL0     C93626   7.768   2.014   0.848 -0.0436 -0.8133 -0.9385
  710MOL0     C93627   7.658   2.008   0.951  0.4865  0.5061  0.8755
  710MOL0     C93628   7.568   1.891   0.936  0.0553 -0.3740  0.8791
  710MOL0     C93629   7.629   1.751   0.972 -0.4893 -0.8374 -0.3980
  710MOL0     C93630   7.513   1.650   1.003  0.6298 -0.1241  0.1032
  710MOL0     C93631   7.566   1.508   0.981 -0.0829  0.6212  0.4503
  710MOL0    Cl93632   7.471   1.410   1.074 -0.3548 -0.2944 -0.6461
  710MOL0     C93633   7.839   2.494   1.100 -0.5150 -0.6203  0.4810
  710MOL0     C93634   7.852   2.616   1.160  0.2282  0.0589  0.8715
  710MOL0     O93635   8.067   2.724   1.343  0.6337 -0.0290 -0.3576
  710MOL0     C93636   7.962   2.920   1.513  0.7577  0.3255  0.2969
  710MOL0     C93637   7.948   3.030   1.604  0.7222  0.7280 -0.0775
  710MOL0     N93638   8.393   3.444   1.937 -0.7329  0.0209  0.9064
  710MOL0     N93639   8.491   3.515   1.977  0.4989 -0.6887 -0.5029
  710MOL0     C93640   8.767   4.870   2.391  0.8247  0.0598  0.4602
  710MOL0     C93641   8.766   5.008   2.397  0.9027  1.1667 -0.2631
  710MOL0     C93642   8.661   5.449   2.272 -0.5495 -0.2064 -0.1613
  710MOL0     C93643   8.557   5.533   2.312 -0.3567 -1.2984  0.5318
  710MOL0     C93644   8.585   5.671   2.303  1.3003 -0.6865 -1.0826
  710MOL0     C93645   8.694   5.729   2.242 -0.1746 -1.1997  0.7325
  710MOL0     O93646   8.694   5.863   2.232  0.1960  0.0956 -0.5721
  710MOL0     C93647   8.738   5.930   2.115  0.6131  0.2147  0.1834
  710MOL0     C93648   8.839   6.032   2.149  0.2635  0.7203 -0.0610
  710MOL0     C93649   8.810   6.101   2.282  0.0453  0.9750 -0.3262
  710MOL0     C93650   8.917   6.205   2.323 -0.7767 -0.7988 -0.4051
  710MOL0     C93651   8.910   6.324   2.235  0.0343  0.3963  0.0064
  710MOL0     C93652   8.923   6.433   2.181  0.3226 -0.5078  0.0451
  710MOL0     C93653   8.793   5.640   2.190 -0.2731  0.7143  1.0116
  710MOL0     C93654   8.787   5.499   2.212  0.8293 -0.7905  0.4429
  710MOL0     H93655   8.620   5.078   2.113  0.6723  1.5872  1.1168
  710MOL0     H93656   8.609   4.817   2.088 -0.5123 -0.0353 -0.9185
  710MOL0     H93657   8.717   4.565   2.123 -1.1025 -0.1747 -0.6754
  710MOL0     H93658   8.558   4.597   2.193  0.3432  0.5337 -1.6015
  710MOL0     H93659   8.625   4.446   2.388  4.5039  2.9845  2.6712
  710MOL0     H93660   8.765   4.396   2.283 -0.7347 -1.8706  3.3571
  710MOL0     H93661   8.607   4.315   2.101 -2.5398  0.7027 -1.1429
  710MOL0     H93662   8.475   4.323   2.218  0.0902  1.0501 -2.0471
  710MOL0     H93663   8.731   4.159   2.262  1.1118  1.0539 -1.0404
  710MOL0     H93664   8.598   4.174   2.369  0.5581  0.7689  1.3816
  710MOL0     H93665   8.615   4.052   2.074  1.1020  0.3163  0.5117
  710MOL0     H93666   8.458   4.100   2.132  0.5136 -0.6004 -1.9139
  710MOL0     H93667   8.504   3.963   2.329 -4.2382 -1.7797 -0.8338
  710MOL0     H93668   8.647   3.890   2.250 -2.3519 -2.8013  2.3848
  710MOL0     H93669   8.440   3.747   2.240  3.1438 -2.8434  0.2711
  710MOL0     H93670   8.366   3.876   2.129 -2.7062 -3.9715  1.6120
  710MOL0     H93671   8.616   3.730   2.044  0.2495 -1.9509 -1.0441
  710MOL0     H93672   8.512   3.832   1.955  0.9305  0.4594  1.9125
  710MOL0     H93673   8.227   3.716   1.987 -2.6443 -0.7812 -4.6924
  710MOL0     H93674   8.128   3.484   1.782 -1.8537  0.0780 -0.1761
  710MOL0     H93675   8.064   3.481   1.952  0.3175  1.4491 -2.8533
  710MOL0     H93676   8.204   3.254   1.957  2.0394  0.8170 -1.2199
  710MOL0     H93677   8.205   3.280   1.779 -0.2434 -0.2547 -0.2257
  710MOL0     H93678   8.038   3.113   1.864 -2.9464 -0.6170 -0.9024
  710MOL0     H93679   7.978   3.225   1.982  0.4172 -2.1856 -0.4461
  710MOL0     H93680   7.890   3.387   1.790 -0.2263 -0.2446 -0.6526
  710MOL0     H93681   7.812   3.227   1.795 -1.8261  2.8933  0.8827
  710MOL0     H93682   8.036   3.281   1.387 -0.8425 -1.5461 -1.9933
  710MOL0     H93683   8.046   3.089   1.230 -2.9634 -1.1985 -1.1037
  710MOL0     H93684   8.096   2.754   0.969  0.1417  0.9911  0.1801
  710MOL0     H93685   8.071   2.523   0.856 -0.8070 -2.8378  0.7403
  710MOL0     H93686   7.742   2.283   0.881 -1.1719  3.0732  2.8191
  710MOL0     H93687   7.797   2.233   1.044 -2.5479  0.4183  0.4824
  710MOL0     H93688   7.940   2.069   0.961 -0.1366  2.3239  1.4468
  710MOL0     H93689   7.937   2.123   0.797  1.3039 -1.0367 -0.0510
  710MOL0     H93690   7.814   1.915   0.837 -3.2177 -2.5464  0.1943
  710MOL0     H93691   7.717   2.050   0.758  1.5588 -1.2749 -2.0847
  710MOL0     H93692   7.703   1.999   1.050  1.3904  0.5903  0.4903
  710MOL0     H93693   7.605   2.102   0.934  1.4314  0.3822 -4.9484
  710MOL0     H93694   7.538   1.877   0.831  0.4838  1.0765  0.5472
  710MOL0     H93695   7.479   1.892   0.999 -0.7351 -0.9157 -0.1847
  710MOL0     H93696   7.688   1.752   1.064 -0.1916 -2.0933 -0.5555
  710MOL0     H93697   7.690   1.718   0.888  0.9225  2.4066 -0.7827
  710MOL0     H93698   7.490   1.663   1.109 -2.4479  2.5583 -0.7425
  710MOL0     H93699   7.424   1.674   0.944  0.7092 -2.9424 -1.3366
  710MOL0     H93700   7.671   1.492   1.006 -0.6085 -3.0698  0.9186
  710MOL0     H93701   7.542   1.483   0.877  0.7529  3.3404 -0.4773
  710MOL0     H93702   7.777   2.423   1.153 -0.2024 -0.7422  0.6867
  710MOL0     H93703   7.810   2.618   1.260 -2.5760 -4.0911  0.0180
  710MOL0     H93704   7.959   2.817   1.548 -0.4102  0.5707  0.9772
  710MOL0     H93705   7.923   3.005   1.707 -0.4431 -0.7867 -0.6883
  710MOL0     H93706   8.812   4.813   2.472  1.7699 -1.1380 -0.8627
  710MOL0     H93707   8.808   5.062   2.481 -0.9016  0.7963  0.9257
  710MOL0     H93708   8.464   5.501   2.359 -2.6190  2.3083 -1.1063
  710MOL0     H93709   8.513   5.735   2.354  1.8918  0.3977 -1.5511
  710MOL0     H93710   8.648   5.971   2.069  1.3042  1.5082 -0.0450
  710MOL0     H93711   8.768   5.853   2.044 -1.6136 -1.7594  1.2400
  710MOL0     H93712   8.932   5.975   2.160 -1.1184 -1.2206  2.7235
  710MOL0     H93713   8.851   6.100   2.064  3.0287 -0.4486 -0.7434
  710MOL0     H93714   8.809   6.020   2.356 -0.7177  1.5710  0.3362
  710MOL0     H93715   8.707   6.135   2.298 -0.4852 -1.1576  1.2971
  710MOL0     H93716   8.894   6.230   2.427  1.6917  0.3970 -0.0695
  710MOL0     H93717   9.019   6.169   2.307 -0.6076 -0.3341 -0.3839
  710MOL0     H93718   8.930   6.531   2.139 -0.6189 -1.6062 -2.9971
  710MOL0     H93719   8.884   5.679   2.146  0.8017 -0.2558  2.2738
  710MOL0     H93720   8.869   5.431   2.191 -1.0310 -1.9940 -4.1805
  711MOL0     O93721   9.177  11.208  10.857  0.1289  0.1677  0.5242
  711MOL0     C93722   9.128  11.196  10.741 -0.1680  0.4849  0.4179
  711MOL0     O93723   9.171  11.119  10.638 -0.3576  0.1459  0.4507
  711MOL0     C93724   9.284  11.039  10.643 -0.8166  0.4490  0.1179
  711MOL0     C93725   9.334  10.983  10.765 -0.7279 -0.4586  0.0940
  711MOL0     C93726   9.467  10.936  10.762 -0.6502 -0.2030 -0.1673
  711MOL0     C93727   9.534  10.909  10.642  0.3744  0.6415  0.8802
  711MOL0     O93728   9.658  10.848  10.640 -0.5624 -0.2802 -0.0754
  711MOL0     C93729   9.743  10.870  10.530 -0.3085  0.5775  0.3199
  711MOL0     C93730   9.743  10.752  10.430  0.4546  0.6072 -0.5646
  711MOL0     C93731   9.798  10.813  10.305  0.1081  0.3580 -0.1348
  711MOL0     C93732   9.935  10.843  10.302  0.4543 -0.1871  0.0757
  711MOL0     C93733   9.997  10.870  10.167  0.2135 -0.1089  0.1734
  711MOL0     C93734  10.148  10.887  10.176  0.2687 -0.2671  0.6877
  711MOL0     C93735  10.227  10.893  10.042  0.8182  0.0775 -0.4981
  711MOL0     C93736  10.183  10.830   9.920 -0.6585  0.3799 -0.2166
  711MOL0     N93737  10.221  10.685   9.928  0.5058  0.1904  0.0876
  711MOL0     C93738  10.344  10.631   9.922 -0.3063 -0.6473 -0.2904
  711MOL0     C93739  10.325  10.495   9.919 -0.4623 -0.2954 -0.2144
  711MOL0     C93740  10.452  10.404   9.922 -0.5086 -0.0838  0.2228
  711MOL0     C93741  10.525  10.436  10.049  0.1160  0.4506 -1.3799
  711MOL0     C93742  10.665  10.373  10.064  0.2777  0.7654  0.1802
  711MOL0     C93743  10.776  10.441   9.981 -1.1150 -0.6415  0.8554
  711MOL0     O93744  10.910  10.423  10.033 -0.3594 -0.1568 -0.1248
  711MOL0     C93745  10.984  10.313   9.994  0.0674 -0.0954  0.6373
  711MOL0     C93746  10.942  10.205   9.920  0.6844  0.3415 -0.0004
  711MOL0     C93747  11.023  10.092   9.889  0.8595 -0.0973  0.4097
  711MOL0     C93748  11.157  10.092   9.932  1.1829  0.6097  0.4390
  711MOL0     C93749  11.246   9.987   9.887 -0.3684  0.2120 -0.0260
  711MOL0     O93750  11.372  10.002   9.926  0.0371  0.2108  0.3839
  711MOL0     C93751  11.474   9.910   9.887 -0.5208 -0.5137  0.0487
  711MOL0     C93752  11.499   9.788   9.959 -0.2530 -0.0993 -0.0214
  711MOL0     C93753  11.593   9.696   9.912  0.2874 -0.4027 -0.6378
  711MOL0     C93754  11.681   9.735   9.809 -0.2793 -0.0863 -0.4878
  711MOL0     O93755  11.781   9.648   9.780 -0.8778 -0.0708  0.5048
  711MOL0     C93756  11.740   9.537   9.705  0.8716  0.1131 -0.3818
  711MOL0     C93757  11.871   9.464   9.666 -0.4015  0.2641 -0.2864
  711MOL0     C93758  11.921   9.386   9.795  0.4174 -0.2043  1.1289
  711MOL0     C93759  12.048   9.308   9.768  0.2744 -0.2182  0.2426
  711MOL0     C93760  12.123   9.262   9.887  0.6596  0.8857 -0.7146
  711MOL0     C93761  12.265   9.207   9.854  1.5281 -0.2786  0.1762
  711MOL0     C93762  12.371   9.309   9.851 -0.2115 -0.2385 -0.0163
  711MOL0     C93763  12.508   9.267   9.810 -0.5264 -1.0760 -0.0077
  711MOL0    Cl93764  12.486   9.177   9.659 -0.4067  0.2023 -0.0325
  711MOL0     C93765  11.661   9.857   9.731  0.0421  0.3218 -0.3951
  711MOL0     C93766  11.563   9.938   9.784  0.4833 -0.2067 -0.3510
  711MOL0     O93767  11.203   9.891   9.815  0.0017  0.1965 -0.5731
  711MOL0     C93768  11.196  10.212   9.995 -0.1311  0.9197 -0.2061
  711MOL0     C93769  11.118  10.321  10.030 -0.4562  0.1377  0.4812
  711MOL0     N93770  10.191  10.468   9.922  0.9518 -0.5175  0.4467
  711MOL0     N93771  10.126  10.583   9.931  0.2090 -0.2005  0.5186
  711MOL0     C93772   9.466  10.944  10.517 -0.9084 -0.0639  0.1633
  711MOL0     C93773   9.353  11.010  10.519  0.6959  0.7286  0.0130
  711MOL0     C93774   8.996  11.251  10.724 -0.3823 -0.4826  1.1004
  711MOL0     C93775   8.944  11.274  10.593  0.6457  0.0033  0.4344
  711MOL0     C93776   8.820  11.337  10.581  0.0988 -0.3220  0.2730
  711MOL0     C93777   8.751  11.398  10.691  0.4036  0.0202 -0.9456
  711MOL0     O93778   8.642  11.478  10.678 -0.1629  1.1742 -0.1930
  711MOL0     C93779   8.521  11.412  10.627 -0.8366 -0.2878 -0.3250
  711MOL0     C93780   8.409  11.427  10.742 -0.3470 -0.0593 -0.1015
  711MOL0     C93781   8.299  11.325  10.727  0.5803 -0.6347 -0.3355
  711MOL0     C93782   8.219  11.314  10.848  0.4680 -0.3824 -0.5169
  711MOL0     C93783   8.270  11.227  10.948  0.3718  0.0124  0.7702
  711MOL0     C93784   8.298  11.156  11.042  0.2713 -0.3163 -0.0451
  711MOL0     C93785   8.815  11.372  10.820  0.2703  0.4273  0.0297
  711MOL0     C93786   8.931  11.300  10.838 -0.2463 -0.7785  0.1033
  711MOL0     H93787   9.282  10.995  10.860 -1.4551  0.8344 -0.4384
  711MOL0     H93788   9.512  10.913  10.858  2.2296  2.6585 -0.6620
  711MOL0     H93789   9.846  10.856  10.562  0.4624 -2.6662 -2.7930
  711MOL0     H93790   9.732  10.972  10.492  0.2414  1.5304  2.5525
  711MOL0     H93791   9.640  10.722  10.411  1.8430 -3.8665 -2.0693
  711MOL0     H93792   9.798  10.659  10.446  0.4015  0.7966  0.8933
  711MOL0     H93793   9.743  10.906  10.286 -0.9373 -0.2382 -0.1174
  711MOL0     H93794   9.769  10.745  10.225  1.8357 -2.1261  1.2014
  711MOL0     H93795   9.978  10.914  10.373  2.5824 -1.9985  0.7333
  711MOL0     H93796   9.973  10.747  10.340 -0.6396 -0.9667 -0.7267
  711MOL0     H93797   9.941  10.953  10.122  1.0684  1.3836  1.7344
  711MOL0     H93798   9.988  10.782  10.103  6.1470  1.6309 -3.7694
  711MOL0     H93799  10.189  10.797  10.222 -0.1919 -2.0172 -2.0763
  711MOL0     H93800  10.172  10.973  10.239 -2.2245  0.2807  1.0115
  711MOL0     H93801  10.238  11.000  10.024 -1.0162  0.7086  1.6937
  711MOL0     H93802  10.326  10.854  10.071 -0.1645  0.5329  4.3771
  711MOL0     H93803  10.235  10.881   9.838 -1.5764  1.8633  0.0775
  711MOL0     H93804  10.077  10.840   9.896 -0.3940  1.5099 -1.0051
  711MOL0     H93805  10.429  10.699   9.934 -1.8597  1.5857 -1.2561
  711MOL0     H93806  10.513  10.408   9.831  1.0485  1.1032  1.2855
  711MOL0     H93807  10.387  10.316   9.929 -3.5025  1.7105 -1.9694
  711MOL0     H93808  10.458  10.395  10.126  0.4358  1.0066 -0.7970
  711MOL0     H93809  10.540  10.540  10.079  2.0526 -0.2126  0.2340
  711MOL0     H93810  10.689  10.372  10.171 -1.1975  2.5489  0.5870
  711MOL0     H93811  10.652  10.270  10.030  1.4903  0.4035  0.7469
  711MOL0     H93812  10.754  10.547   9.994 -2.6416 -0.2761 -3.2845
  711MOL0     H93813  10.776  10.419   9.874  1.8343  0.1855  0.6033
  711MOL0     H93814  10.839  10.203   9.885  1.3873  1.7273 -2.3918
  711MOL0     H93815  10.984  10.005   9.839  1.1847 -1.2886  2.1279
  711MOL0     H93816  11.434   9.757  10.040 -2.4285  0.5961 -1.4348
  711MOL0     H93817  11.613   9.602   9.963 -1.8116 -0.2164  0.6424
  711MOL0     H93818  11.687   9.582   9.621  0.1120  1.8597  0.9871
  711MOL0     H93819  11.675   9.471   9.763  0.7789  0.5182 -0.0284
  711MOL0     H93820  11.959   9.528   9.653  1.6255 -1.8684  1.7504
  711MOL0     H93821  11.863   9.403   9.575  4.6085  0.6632 -1.2999
  711MOL0     H93822  11.848   9.317   9.837 -3.4045  1.1238 -2.6683
  711MOL0     H93823  11.944   9.460   9.873 -2.6907 -0.2908  2.2556
  711MOL0     H93824  12.032   9.231   9.691 -1.1246  0.1771  0.1082
  711MOL0     H93825  12.113   9.374   9.711 -1.5851  0.7116 -0.9014
  711MOL0     H93826  12.074   9.174   9.931  0.7850  0.8642 -0.6168
  711MOL0     H93827  12.125   9.339   9.965  1.8748 -1.5041  1.8016
  711MOL0     H93828  12.266   9.148   9.762 -0.7384  0.5490 -0.4475
  711MOL0     H93829  12.291   9.134   9.932  1.5063 -2.9703 -2.1773
  711MOL0     H93830  12.333   9.389   9.786  2.3423  1.5136  0.5069
  711MOL0     H93831  12.390   9.358   9.947 -0.3740  3.4447 -1.6845
  711MOL0     H93832  12.530   9.202   9.895 -1.5026  0.6717  1.6520
  711MOL0     H93833  12.582   9.345   9.792 -0.1749 -1.3718  0.1513
  711MOL0     H93834  11.716   9.876   9.640 -1.1876  1.9041 -0.8602
  711MOL0     H93835  11.546  10.033   9.735  1.7752 -0.0900 -0.6238
  711MOL0     H93836  11.296  10.221  10.037  0.0991 -1.7667  0.0168
  711MOL0     H93837  11.154  10.403  10.091  2.8349 -0.9321  0.1858
  711MOL0     H93838   9.513  10.924  10.421 -6.2236  0.4621 -2.9269
  711MOL0     H93839   9.322  11.040  10.420 -1.6590 -3.5807 -0.8037
  711MOL0     H93840   9.003  11.239  10.508  3.4912 -0.9055  2.6371
  711MOL0     H93841   8.777  11.345  10.481  0.9778 -2.0031 -0.2867
  711MOL0     H93842   8.535  11.309  10.593 -1.6861 -0.9073  1.1175
  711MOL0     H93843   8.489  11.466  10.538 -0.2402  0.4853 -0.0832
  711MOL0     H93844   8.455  11.408  10.840 -0.9042 -1.6956 -0.1339
  711MOL0     H93845   8.365  11.526  10.729  0.1442  0.4640  1.8428
  711MOL0     H93846   8.347  11.232  10.695  0.6405 -0.1435 -1.7062
  711MOL0     H93847   8.240  11.353  10.640  0.5994  1.6250  0.3232
  711MOL0     H93848   8.202  11.414  10.889 -1.8104 -0.3047 -1.5597
  711MOL0     H93849   8.125  11.266  10.821 -0.9904  1.8240  0.3393
  711MOL0     H93850   8.330  11.124  11.140  0.0702 -2.5379 -0.6555
  711MOL0     H93851   8.758  11.401  10.908 -1.4428 -2.5678  0.0229
  711MOL0     H93852   8.969  11.286  10.939  0.8624 -2.1167 -0.4760
  712MOL0     O93853   3.771   6.863   4.298 -0.1436  1.1019  0.8042
  712MOL0     C93854   3.813   6.745   4.303 -0.4215  0.4730 -0.7340
  712MOL0     O93855   3.780   6.655   4.398  0.3997 -0.0967 -0.0342
  712MOL0     C93856   3.687   6.673   4.499 -0.2223 -0.4040  0.2252
  712MOL0     C93857   3.710   6.596   4.615 -0.3516 -0.1835  0.3705
  712MOL0     C93858   3.619   6.596   4.719  0.7877 -0.5381 -0.2663
  712MOL0     C93859   3.496   6.663   4.706 -0.5241  0.6478 -0.3329
  712MOL0     O93860   3.396   6.661   4.792  0.4391 -0.7566  0.4597
  712MOL0     C93861   3.364   6.554   4.871 -0.2475 -0.0833  0.4814
  712MOL0     C93862   3.324   6.445   4.774 -0.1647  0.1986 -0.1026
  712MOL0     C93863   3.268   6.317   4.844 -0.8021 -0.1697 -0.0062
  712MOL0     C93864   3.116   6.327   4.874 -0.8000 -0.0374 -0.0595
  712MOL0     C93865   3.070   6.248   4.998  0.3805  0.5083  0.2479
  712MOL0     C93866   2.926   6.301   5.039 -0.3248  0.2771 -0.0503
  712MOL0     C93867   2.865   6.205   5.132  0.4328 -0.3878  0.8414
  712MOL0     C93868   2.783   6.082   5.062  0.2909  0.8186 -0.1828
  712MOL0     N93869   2.855   5.998   4.957  0.0902 -0.0913 -0.1616
  712MOL0     C93870   2.890   6.030   4.825  0.5980  0.4744  0.1461
  712MOL0     C93871   2.939   5.922   4.769 -0.1549 -1.4156 -0.0251
  712MOL0     C93872   3.003   5.907   4.625  0.6088  0.8244  0.4043
  712MOL0     C93873   3.157   5.931   4.620  0.4674 -0.2361  0.5808
  712MOL0     C93874   3.193   6.083   4.590  0.5467  0.6124  1.1621
  712MOL0     C93875   3.150   6.126   4.446 -1.1772  1.3458  0.2098
  712MOL0     O93876   3.212   6.042   4.359  0.0451 -0.9780  0.4997
  712MOL0     C93877   3.347   6.048   4.355  0.1829  0.6399 -0.2211
  712MOL0     C93878   3.406   5.930   4.313  1.3351  0.2818  0.1138
  712MOL0     C93879   3.543   5.935   4.290  0.0430 -0.2533  0.3987
  712MOL0     C93880   3.616   6.062   4.290 -0.2247  0.2318  0.3681
  712MOL0     C93881   3.759   6.062   4.254  0.7927 -1.0067  0.3434
  712MOL0     O93882   3.822   6.184   4.246  0.1212  0.0532 -0.2121
  712MOL0     C93883   3.957   6.187   4.207 -0.6875  0.0720  0.2560
  712MOL0     C93884   4.058   6.231   4.304  0.2022 -0.2404  0.4034
  712MOL0     C93885   4.195   6.222   4.267  0.0356  0.5800 -1.0605
  712MOL0     C93886   4.238   6.183   4.141 -0.6015 -1.0963 -0.8283
  712MOL0     O93887   4.375   6.177   4.114 -0.3047  0.1599 -0.1486
  712MOL0     C93888   4.427   6.055   4.168  0.9263  0.3743 -0.9287
  712MOL0     C93889   4.582   6.046   4.169  0.6388  0.7981  0.7322
  712MOL0     C93890   4.619   5.897   4.200 -0.3312 -0.6254  0.2122
  712MOL0     C93891   4.760   5.886   4.234 -0.5054  0.7039 -0.3355
  712MOL0     C93892   4.771   5.734   4.244  1.0153  1.2757  0.1435
  712MOL0     C93893   4.903   5.663   4.282 -0.2961 -0.7134  0.0102
  712MOL0     C93894   4.880   5.519   4.347  0.2098  0.1429 -0.3958
  712MOL0     C93895   5.007   5.463   4.406  0.1231  0.2524  1.3403
  712MOL0    Cl93896   4.972   5.285   4.425 -0.0718  0.5074 -0.3922
  712MOL0     C93897   4.146   6.134   4.050 -0.1760 -0.0390 -0.1805
  712MOL0     C93898   4.010   6.130   4.082 -0.3334  0.3345  0.7014
  712MOL0     O93899   3.798   5.953   4.214 -0.1727 -0.1493  0.1192
  712MOL0     C93900   3.556   6.178   4.344 -0.0528  0.7380  0.5985
  712MOL0     C93901   3.423   6.166   4.371 -0.3185  1.4429  0.3002
  712MOL0     N93902   2.934   5.821   4.855  0.3634 -0.0265 -0.3110
  712MOL0     N93903   2.883   5.860   4.967 -1.0124  0.0514 -0.0113
  712MOL0     C93904   3.482   6.742   4.592  0.8373  0.1289 -0.0152
  712MOL0     C93905   3.569   6.746   4.489 -0.0059 -0.6053 -0.3478
  712MOL0     C93906   3.900   6.696   4.198  0.4305  0.2100  0.5440
  712MOL0     C93907   3.913   6.558   4.165  0.2936  0.6594 -1.0287
  712MOL0     C93908   4.014   6.512   4.064  0.6022  1.0116 -0.8038
  712MOL0     C93909   4.089   6.605   3.998  0.1260 -0.3577 -0.4704
  712MOL0     O93910   4.181   6.575   3.907  0.7453 -0.1287  0.5143
  712MOL0     C93911   4.304   6.529   3.965  0.4337  1.0286  0.6642
  712MOL0     C93912   4.397   6.499   3.846  0.7061 -0.5310 -0.0703
  712MOL0     C93913   4.537   6.438   3.875 -0.5125 -0.0365  0.1676
  712MOL0     C93914   4.630   6.444   3.747 -1.0406 -0.0712  1.0164
  712MOL0     C93915   4.760   6.393   3.785 -0.6486  0.6502 -0.2041
  712MOL0     C93916   4.874   6.355   3.822  1.0764  0.4235 -0.0550
  712MOL0     C93917   4.056   6.748   4.021  0.2346  0.1269  0.1185
  712MOL0     C93918   3.971   6.788   4.117 -1.0712 -0.1977 -0.0204
  712MOL0     H93919   3.789   6.524   4.633 -0.0252  0.5436  2.1404
  712MOL0     H93920   3.645   6.535   4.805 -0.2338 -0.6684 -0.0346
  712MOL0     H93921   3.284   6.573   4.943  1.1256  2.2577  1.4689
  712MOL0     H93922   3.448   6.537   4.939 -2.0806 -0.1868  2.8231
  712MOL0     H93923   3.402   6.433   4.698 -1.1855  0.4421 -1.2198
  712MOL0     H93924   3.252   6.479   4.699  0.8233 -0.9372 -1.6209
  712MOL0     H93925   3.323   6.311   4.938 -4.0330  4.2857  2.5803
  712MOL0     H93926   3.292   6.238   4.772 -2.1438  0.3123 -1.0301
  712MOL0     H93927   3.096   6.434   4.883  0.1846  0.4699 -2.9031
  712MOL0     H93928   3.054   6.302   4.788 -2.9335 -0.5218  1.5505
  712MOL0     H93929   3.133   6.247   5.087  0.5634  1.8780  0.1649
  712MOL0     H93930   3.071   6.143   4.970  1.0468  0.2582  1.1897
  712MOL0     H93931   2.865   6.327   4.953  1.1090 -0.5461 -1.3644
  712MOL0     H93932   2.939   6.398   5.088 -1.1692  0.2293  0.2780
  712MOL0     H93933   2.939   6.152   5.193  0.8021 -1.2950 -0.3454
  712MOL0     H93934   2.794   6.260   5.194 -2.2742  1.3369 -3.3250
  712MOL0     H93935   2.691   6.120   5.017 -2.0524 -0.0356  3.4774
  712MOL0     H93936   2.730   6.026   5.140 -0.6814  3.8178  1.4680
  712MOL0     H93937   2.888   6.130   4.782  3.5030  1.1612  1.3840
  712MOL0     H93938   2.940   5.950   4.547 -1.3875 -0.6353  1.1417
  712MOL0     H93939   2.998   5.798   4.612  1.1788  0.6623  1.4119
  712MOL0     H93940   3.211   5.869   4.547 -0.2032  1.0301 -1.0640
  712MOL0     H93941   3.196   5.919   4.721 -0.8243  1.1334  1.2767
  712MOL0     H93942   3.138   6.146   4.660 -0.4891  3.2043 -1.8023
  712MOL0     H93943   3.302   6.091   4.603  0.7047  0.8390 -0.1961
  712MOL0     H93944   3.173   6.233   4.443  2.8616  0.6406  0.2109
  712MOL0     H93945   3.043   6.114   4.427 -0.6433 -0.0670 -2.3231
  712MOL0     H93946   3.352   5.838   4.296  3.2406 -0.8030 -0.3251
  712MOL0     H93947   3.581   5.844   4.245  0.2268 -0.9603  1.9238
  712MOL0     H93948   4.026   6.256   4.404 -0.1716  0.8854  0.0203
  712MOL0     H93949   4.281   6.242   4.331 -1.7394  1.3634  1.2444
  712MOL0     H93950   4.384   5.973   4.110 -2.9567 -0.8808  3.2128
  712MOL0     H93951   4.393   6.043   4.271  0.4714  0.6313 -1.0440
  712MOL0     H93952   4.627   6.104   4.251  0.2828  1.9159  0.1598
  712MOL0     H93953   4.631   6.077   4.076  0.2587  3.5571  1.3551
  712MOL0     H93954   4.584   5.838   4.115 -0.1673 -0.9219  0.3485
  712MOL0     H93955   4.569   5.869   4.293  3.2372 -0.4171  2.3970
  712MOL0     H93956   4.822   5.908   4.148  1.9992 -1.0857  0.8777
  712MOL0     H93957   4.790   5.938   4.326 -2.7821  3.8891 -1.2319
  712MOL0     H93958   4.732   5.702   4.147 -1.4094  1.1509  1.1097
  712MOL0     H93959   4.695   5.697   4.314 -0.6290 -1.5164 -2.8558
  712MOL0     H93960   4.959   5.725   4.352 -0.8386  0.8595 -0.8927
  712MOL0     H93961   4.959   5.652   4.189  1.7615  1.2563  0.9128
  712MOL0     H93962   4.813   5.531   4.432 -0.1448  0.0508 -0.6615
  712MOL0     H93963   4.849   5.443   4.274 -2.7741  0.6487  0.2301
  712MOL0     H93964   5.056   5.516   4.488  3.1924  0.3488 -0.3963
  712MOL0     H93965   5.070   5.459   4.317 -5.1700 -2.0304 -2.8887
  712MOL0     H93966   4.189   6.085   3.964  1.8506 -0.0407  0.7810
  712MOL0     H93967   3.948   6.089   4.002  2.3489  0.0387 -1.3769
  712MOL0     H93968   3.613   6.268   4.366  1.3128 -0.2278  1.1498
  712MOL0     H93969   3.369   6.257   4.396 -2.2016  0.1156  1.3419
  712MOL0     H93970   3.400   6.813   4.585  1.6990  1.1109 -0.3887
  712MOL0     H93971   3.561   6.802   4.397  2.5292  1.3812  0.4946
  712MOL0     H93972   3.856   6.482   4.217 -1.1550  1.0558 -1.9804
  712MOL0     H93973   4.044   6.408   4.060  0.3737  0.8378  0.9538
  712MOL0     H93974   4.296   6.437   4.025  0.9150  0.0990 -0.6382
  712MOL0     H93975   4.352   6.600   4.033 -0.6370  0.7229  1.7669
  712MOL0     H93976   4.341   6.433   3.780  0.1575 -2.0930  1.8460
  712MOL0     H93977   4.412   6.600   3.806  1.1405 -0.7289 -0.4163
  712MOL0     H93978   4.510   6.338   3.910 -0.3702  0.0940  0.6555
  712MOL0     H93979   4.585   6.478   3.965 -2.5479 -1.8215  2.1626
  712MOL0     H93980   4.598   6.401   3.652  2.5197 -1.3022  0.2517
  712MOL0     H93981   4.640   6.553   3.736 -1.6369 -0.0804  0.2955
  712MOL0     H93982   4.970   6.320   3.852  0.6156 -2.8801 -1.9555
  712MOL0     H93983   4.096   6.819   3.950  2.3942 -2.1853 -1.1353
  712MOL0     H93984   3.956   6.896   4.119 -1.1977 -0.2062 -0.4631
  713MOL0     O93985   1.313   9.579   7.939  0.1168 -0.6479  0.2542
  713MOL0     C93986   1.385   9.516   7.859  0.0598 -0.4100 -0.1195
  713MOL0     O93987   1.518   9.522   7.851  0.2141  0.2946  0.4168
  713MOL0     C93988   1.600   9.632   7.864 -0.3829  0.5325 -0.4070
  713MOL0     C93989   1.558   9.765   7.871  0.2890  0.0986  0.1134
  713MOL0     C93990   1.652   9.858   7.891  0.0244  0.4370  0.9313
  713MOL0     C93991   1.789   9.839   7.895 -0.6608  0.2030  1.1087
  713MOL0     O93992   1.865   9.948   7.902 -0.7452 -0.9244 -0.4999
  713MOL0     C93993   2.008   9.931   7.923  0.3278 -0.2128  1.0322
  713MOL0     C93994   2.060   9.906   7.780 -0.9881 -0.8658 -0.8156
  713MOL0     C93995   2.210   9.886   7.803 -0.3807  0.1224  1.2462
  713MOL0     C93996   2.289   9.844   7.678 -0.8698  0.1020  0.3544
  713MOL0     C93997   2.289   9.958   7.575 -0.2206 -0.0453 -0.0952
  713MOL0     C93998   2.347   9.900   7.449  0.1346 -0.1736  1.3628
  713MOL0     C93999   2.232   9.845   7.360  0.3693 -0.3098  0.5129
  713MOL0     C94000   2.269   9.845   7.213  0.5041  0.1216  0.4627
  713MOL0     N94001   2.152   9.791   7.132  0.1388  0.6592  0.3405
  713MOL0     C94002   2.128   9.660   7.108  0.4020  1.2440 -0.2009
  713MOL0     C94003   2.020   9.666   7.022  0.3795  0.1434  0.2236
  713MOL0     C94004   1.945   9.552   6.968  0.8099  0.1504 -0.3146
  713MOL0     C94005   1.854   9.482   7.065 -0.2314 -0.0923  0.7975
  713MOL0     C94006   1.741   9.582   7.103 -0.2097  1.0549 -0.0815
  713MOL0     C94007   1.650   9.634   6.988  0.4861 -0.6959  0.1071
  713MOL0     O94008   1.538   9.701   7.044 -0.3932  0.1056 -0.4281
  713MOL0     C94009   1.549   9.832   7.062  0.9564 -0.6738 -0.1749
  713MOL0     C94010   1.668   9.903   7.092  0.0039 -1.3266  0.7663
  713MOL0     C94011   1.661  10.044   7.112 -0.1513  0.1203 -0.2399
  713MOL0     C94012   1.539  10.113   7.114 -0.1466 -0.0419  0.1640
  713MOL0     C94013   1.542  10.258   7.155  1.4763 -0.2828 -1.5575
  713MOL0     O94014   1.433  10.328   7.132 -0.7681 -0.1932 -1.0347
  713MOL0     C94015   1.432  10.468   7.153  0.5537 -0.9168  0.0931
  713MOL0     C94016   1.429  10.553   7.039 -0.3594 -0.0896 -0.7729
  713MOL0     C94017   1.409  10.692   7.062  0.1734  0.0526  0.8354
  713MOL0     C94018   1.424  10.756   7.182 -0.1163 -1.0042 -0.9573
  713MOL0     O94019   1.432  10.897   7.186 -0.2134  0.8515 -0.3321
  713MOL0     C94020   1.520  10.955   7.283  0.1399 -0.6691 -0.7093
  713MOL0     C94021   1.511  11.103   7.257 -0.0678 -1.1999  0.1976
  713MOL0     C94022   1.392  11.138   7.347  1.0083 -0.0478 -0.7222
  713MOL0     C94023   1.348  11.271   7.296 -0.4994  0.2633  0.0245
  713MOL0     C94024   1.268  11.337   7.415  0.1279 -0.4539  0.2100
  713MOL0     C94025   1.286  11.498   7.405 -0.2111  0.0204 -0.0485
  713MOL0     C94026   1.188  11.582   7.493 -0.7017 -0.0360 -0.5383
  713MOL0     C94027   1.232  11.721   7.485  0.2978 -0.4061 -0.1480
  713MOL0    Cl94028   1.115  11.825   7.562 -0.5852 -0.1435 -0.1744
  713MOL0     C94029   1.424  10.675   7.300 -0.6466  0.0172  0.2043
  713MOL0     C94030   1.423  10.532   7.286 -0.0289 -0.1595  1.1643
  713MOL0     O94031   1.635  10.302   7.210 -1.0159 -0.7195 -1.1949
  713MOL0     C94032   1.427  10.044   7.068  0.9209  0.1710  0.4361
  713MOL0     C94033   1.433   9.906   7.054  0.1700 -0.2684  0.5280
  713MOL0     N94034   1.985   9.796   6.998  0.3638  0.2413  0.8678
  713MOL0     N94035   2.065   9.872   7.062 -0.7248  0.1791 -0.0881
  713MOL0     C94036   1.837   9.706   7.886  0.3976  0.1423  0.9980
  713MOL0     C94037   1.738   9.606   7.870  0.8599 -0.1035  0.5910
  713MOL0     C94038   1.326   9.411   7.775 -0.4258  0.3997  0.1420
  713MOL0     C94039   1.375   9.395   7.643 -1.5231 -0.1621  0.7042
  713MOL0     C94040   1.306   9.315   7.545 -0.4496 -1.3585 -0.0070
  713MOL0     C94041   1.189   9.249   7.580 -0.4449 -0.5414 -0.4342
  713MOL0     O94042   1.142   9.178   7.473  0.9123 -0.1815  0.0673
  713MOL0     C94043   0.994   9.145   7.481 -0.6673  0.8384  0.1354
  713MOL0     C94044   0.945   9.134   7.339 -0.2362  0.4936 -0.0074
  713MOL0     C94045   0.935   9.275   7.272  0.3556 -1.6218 -1.7751
  713MOL0     C94046   0.879   9.286   7.128  0.2133  1.0040 -0.5470
  713MOL0     C94047   0.736   9.319   7.108 -0.3277 -0.7011  1.0590
  713MOL0     C94048   0.616   9.342   7.092 -0.9043  0.2413  0.4406
  713MOL0     C94049   1.146   9.256   7.714  0.5237  0.3865  0.5775
  713MOL0     C94050   1.218   9.338   7.809 -0.1156 -0.6419  0.5743
  713MOL0     H94051   1.454   9.792   7.857  0.8754  1.3740 -2.2634
  713MOL0     H94052   1.624   9.963   7.892  3.2662  1.3998  1.3323
  713MOL0     H94053   2.037   9.847   7.987 -0.5253 -1.1060  0.2932
  713MOL0     H94054   2.051  10.016   7.976  0.8564  0.5078 -0.4873
  713MOL0     H94055   2.046   9.998   7.722  4.2925  1.1366  0.4739
  713MOL0     H94056   2.017   9.819   7.729 -2.1156  0.7322 -2.7186
  713MOL0     H94057   2.221   9.808   7.879 -0.8385  1.3914  2.6658
  713MOL0     H94058   2.259   9.969   7.856  0.8906  0.6484 -0.6478
  713MOL0     H94059   2.395   9.829   7.698 -0.0190  4.0827 -0.2213
  713MOL0     H94060   2.236   9.759   7.633 -1.0556  1.0222 -1.2233
  713MOL0     H94061   2.371  10.021   7.610 -0.5787  1.6995 -2.2027
  713MOL0     H94062   2.198  10.019   7.569  0.0396  0.3860  0.2880
  713MOL0     H94063   2.424   9.823   7.459 -0.1504 -0.9578 -1.4730
  713MOL0     H94064   2.394   9.982   7.392 -0.3251 -1.9578 -1.8503
  713MOL0     H94065   2.196   9.749   7.396 -0.4639  0.4573  1.7872
  713MOL0     H94066   2.142   9.907   7.363  0.3195 -0.3891  0.6289
  713MOL0     H94067   2.356   9.789   7.177 -1.5583 -2.1479 -1.3610
  713MOL0     H94068   2.288   9.949   7.184 -1.1861  0.5767  0.8664
  713MOL0     H94069   2.161   9.574   7.164  0.8678  2.4364  1.4145
  713MOL0     H94070   2.009   9.478   6.919 -0.1363 -0.8638 -0.0491
  713MOL0     H94071   1.882   9.587   6.885 -0.3156 -0.7046  0.1571
  713MOL0     H94072   1.908   9.457   7.156  4.6429  3.3059 -0.7347
  713MOL0     H94073   1.820   9.386   7.025  5.9899 -2.3363 -0.1244
  713MOL0     H94074   1.687   9.521   7.177  4.3056 -0.5473  2.3020
  713MOL0     H94075   1.797   9.661   7.153 -0.1509  0.5922  0.6130
  713MOL0     H94076   1.599   9.552   6.937  1.5534 -1.3964  0.1248
  713MOL0     H94077   1.699   9.707   6.924  0.2702  1.0862  1.8850
  713MOL0     H94078   1.764   9.859   7.115  1.6082  1.9264  0.9249
  713MOL0     H94079   1.759  10.089   7.122 -0.5667  1.6977 -2.2999
  713MOL0     H94080   1.425  10.511   6.939  2.0683  2.0849 -1.9038
  713MOL0     H94081   1.412  10.745   6.967  0.9208 -0.9152  0.2980
  713MOL0     H94082   1.625  10.924   7.284  0.2029 -0.5237  1.3021
  713MOL0     H94083   1.484  10.930   7.383 -0.5200 -2.6516 -1.3864
  713MOL0     H94084   1.484  11.132   7.155 -1.6049 -2.8847  0.0681
  713MOL0     H94085   1.610  11.141   7.283  1.1034 -4.1225  0.4110
  713MOL0     H94086   1.418  11.142   7.454 -0.4085  0.5376 -0.3716
  713MOL0     H94087   1.310  11.067   7.356 -0.5325  1.9017  3.8098
  713MOL0     H94088   1.432  11.332   7.262 -1.7689  3.2720  1.7877
  713MOL0     H94089   1.291  11.260   7.203  2.7814 -2.0808 -1.9084
  713MOL0     H94090   1.308  11.303   7.511 -0.1339 -1.3207  0.0209
  713MOL0     H94091   1.164  11.304   7.403 -0.0513  0.6583 -1.7861
  713MOL0     H94092   1.267  11.526   7.301  0.3047  1.9108  0.3311
  713MOL0     H94093   1.389  11.521   7.433 -0.1334  0.8095 -0.9296
  713MOL0     H94094   1.086  11.575   7.455 -0.3618 -3.5801 -1.1057
  713MOL0     H94095   1.197  11.565   7.600  0.6699 -1.7094 -0.8646
  713MOL0     H94096   1.244  11.754   7.382  0.3289  0.0260 -0.0087
  713MOL0     H94097   1.324  11.737   7.542 -0.8361  0.4573  1.5543
  713MOL0     H94098   1.418  10.724   7.397  2.4777  1.4919 -0.2331
  713MOL0     H94099   1.409  10.468   7.373  4.0509 -1.9540  0.7109
  713MOL0     H94100   1.333  10.092   7.040 -1.7133 -3.0768  2.8868
  713MOL0     H94101   1.344   9.848   7.031  1.7145 -3.7330  2.4798
  713MOL0     H94102   1.942   9.682   7.878  0.0051 -1.0468 -1.4678
  713MOL0     H94103   1.774   9.505   7.855 -0.9540 -0.3549 -3.3413
  713MOL0     H94104   1.464   9.453   7.620 -0.1978 -0.8898  3.5165
  713MOL0     H94105   1.336   9.314   7.441  1.1701 -2.0584  0.4232
  713MOL0     H94106   0.939   9.218   7.542  0.7176  1.7282  0.3577
  713MOL0     H94107   0.982   9.044   7.521  0.1785  0.4034 -0.6811
  713MOL0     H94108   1.020   9.076   7.285  0.5104  0.0489  1.4742
  713MOL0     H94109   0.852   9.076   7.342 -0.9957  1.7354  1.2426
  713MOL0     H94110   1.034   9.321   7.274  1.9175 -4.4139  3.2048
  713MOL0     H94111   0.870   9.337   7.334  3.4524 -1.8488  2.0925
  713MOL0     H94112   0.938   9.364   7.078  2.6027  0.6697  1.5485
  713MOL0     H94113   0.897   9.193   7.072  0.6130  1.4346 -1.1544
  713MOL0     H94114   0.513   9.336   7.064 -0.6686 -0.3812 -0.3116
  713MOL0     H94115   1.074   9.187   7.754  2.1445 -0.4589  2.2113
  713MOL0     H94116   1.189   9.328   7.914 -2.4838  2.0793  0.2990
  714MOL0     O94117   9.416   0.078   2.891  0.5004 -0.9679  0.3298
  714MOL0     C94118   9.535   0.099   2.889 -0.0513 -1.4384  1.5142
  714MOL0     O94119   9.608   0.121   2.779 -0.5733 -0.7108  0.5096
  714MOL0     C94120   9.554   0.064   2.658 -0.6105  0.0245 -0.2936
  714MOL0     C94121   9.544  -0.074   2.648 -0.0333  0.7967  0.1597
  714MOL0     C94122   9.482  -0.145   2.543 -0.5009  0.2016  0.3068
  714MOL0     C94123   9.432  -0.075   2.440  0.4742 -1.1812 -0.8277
  714MOL0     O94124   9.368  -0.132   2.326 -0.0666 -0.2260 -0.8056
  714MOL0     C94125   9.228  -0.174   2.341  0.1508 -0.5899 -0.5783
  714MOL0     C94126   9.144  -0.052   2.384  0.6734  0.1896  0.1519
  714MOL0     C94127   9.003  -0.110   2.385  0.0083  0.0612 -0.5153
  714MOL0     C94128   8.899  -0.006   2.442 -0.2720 -0.4622  0.4882
  714MOL0     C94129   8.772  -0.094   2.478  0.2141 -0.7071 -0.3156
  714MOL0     C94130   8.665   0.000   2.529 -0.1393 -0.5123 -0.6616
  714MOL0     C94131   8.536  -0.058   2.595  1.0369 -1.0250 -0.0106
  714MOL0     C94132   8.475  -0.174   2.524  0.1798 -0.0237 -0.1599
  714MOL0     N94133   8.399  -0.149   2.404 -0.0832 -0.6090 -0.8646
  714MOL0     C94134   8.270  -0.105   2.403 -0.6664  0.1058 -0.7367
  714MOL0     C94135   8.238  -0.062   2.282 -0.0598  0.6167  0.1979
  714MOL0     C94136   8.103  -0.005   2.236 -0.4122 -0.3553 -0.3951
  714MOL0     C94137   7.977  -0.080   2.274 -0.8433 -0.1216  0.5224
  714MOL0     C94138   7.964  -0.218   2.201  0.5275  0.5426  0.1140
  714MOL0     C94139   7.978  -0.346   2.282 -0.3081  0.0704  0.3536
  714MOL0     O94140   7.882  -0.347   2.392 -0.1278 -0.6271 -0.6400
  714MOL0     C94141   7.754  -0.367   2.366  1.3991  0.3967 -0.2870
  714MOL0     C94142   7.699  -0.429   2.259  0.1692  0.5731 -0.3161
  714MOL0     C94143   7.561  -0.462   2.250 -0.2781  0.5473  0.7334
  714MOL0     C94144   7.477  -0.444   2.358 -0.1978 -1.3201  0.1121
  714MOL0     C94145   7.336  -0.493   2.360 -0.2868  1.1456  0.0848
  714MOL0     O94146   7.292  -0.558   2.240 -0.4650  0.5724 -0.2053
  714MOL0     C94147   7.172  -0.617   2.249 -0.9440  0.6166  0.7365
  714MOL0     C94148   7.056  -0.548   2.273  0.2546 -0.0934 -1.0836
  714MOL0     C94149   6.925  -0.606   2.282 -0.2925 -0.5173  0.3251
  714MOL0     C94150   6.907  -0.738   2.239  0.4181 -0.0377  0.3201
  714MOL0     O94151   6.792  -0.808   2.259  0.5841  0.1711 -0.3271
  714MOL0     C94152   6.757  -0.809   2.398 -0.2280  0.5672 -0.0844
  714MOL0     C94153   6.623  -0.891   2.435 -0.4324 -0.1090 -1.0314
  714MOL0     C94154   6.487  -0.831   2.391  0.2727  0.0933 -0.7213
  714MOL0     C94155   6.380  -0.868   2.501 -0.4488  0.2676  0.6510
  714MOL0     C94156   6.263  -0.777   2.481 -0.0018  0.7736 -0.5618
  714MOL0     C94157   6.155  -0.795   2.593 -0.7276  0.7212  0.2690
  714MOL0     C94158   6.018  -0.730   2.553 -0.4760 -0.5654  0.1183
  714MOL0     C94159   5.903  -0.790   2.636 -0.2201 -0.6624 -0.1516
  714MOL0    Cl94160   5.919  -0.754   2.812 -0.0701  0.1669 -0.1940
  714MOL0     C94161   7.028  -0.803   2.211  0.3851 -0.0242  0.6072
  714MOL0     C94162   7.155  -0.758   2.213 -0.2045 -1.7901 -0.0062
  714MOL0     O94163   7.277  -0.493   2.466  0.0207 -0.1945  0.0437
  714MOL0     C94164   7.525  -0.373   2.470  0.1085 -0.3037  0.3948
  714MOL0     C94165   7.659  -0.347   2.475 -0.0966 -0.7781  0.3078
  714MOL0     N94166   8.347  -0.082   2.200  0.5090  0.7874  0.0845
  714MOL0     N94167   8.430  -0.135   2.277 -1.1614  0.3537  0.7633
  714MOL0     C94168   9.428   0.068   2.448 -0.2711 -0.3087  0.6286
  714MOL0     C94169   9.491   0.135   2.554  0.7370 -0.2578 -0.2194
  714MOL0     C94170   9.611   0.078   3.012  0.5475  0.8749  0.3231
  714MOL0     C94171   9.543   0.064   3.136  0.4078  0.0807  0.0918
  714MOL0     C94172   9.614   0.046   3.250  0.4488 -0.4454  0.6160
  714MOL0     C94173   9.757   0.049   3.252 -0.2820 -0.0537  0.2934
  714MOL0     O94174   9.835   0.026   3.366 -0.1140 -0.0869  0.1074
  714MOL0     C94175   9.771   0.006   3.493  0.0768 -0.4664  0.6199
  714MOL0     C94176   9.860  -0.067   3.585  0.0471  0.3689 -0.2182
  714MOL0     C94177   9.896  -0.200   3.521  0.0392 -1.2157 -0.0934
  714MOL0     C94178   9.991  -0.290   3.597 -0.5853 -0.6461 -1.1188
  714MOL0     C94179   9.946  -0.318   3.731  0.9129  0.4761 -0.8243
  714MOL0     C94180   9.906  -0.352   3.843  0.4678 -0.2525 -0.3144
  714MOL0     C94181   9.825   0.076   3.129 -0.3185  0.4718  0.9538
  714MOL0     C94182   9.753   0.089   3.010 -0.0114  1.5028  0.0929
  714MOL0     H94183   9.595  -0.124   2.729  1.8909  2.5079  0.0893
  714MOL0     H94184   9.478  -0.253   2.540  3.2527 -0.0424 -0.2737
  714MOL0     H94185   9.212  -0.254   2.414  3.3467  1.0139  2.1906
  714MOL0     H94186   9.188  -0.190   2.241  0.5560 -0.8260 -0.7022
  714MOL0     H94187   9.158   0.036   2.321  2.4849  1.8454  2.6504
  714MOL0     H94188   9.174  -0.028   2.486 -0.6828 -0.9673  0.8618
  714MOL0     H94189   8.992  -0.198   2.449  0.4764  0.4061  0.0447
  714MOL0     H94190   8.975  -0.133   2.282 -0.6155  0.9779 -0.5676
  714MOL0     H94191   8.926   0.048   2.533  0.3900 -2.4538  1.5321
  714MOL0     H94192   8.871   0.067   2.366  2.2969 -2.2499 -2.4112
  714MOL0     H94193   8.793  -0.175   2.549  1.7427 -1.5442 -1.6485
  714MOL0     H94194   8.742  -0.143   2.385  1.0524 -3.1788  0.6272
  714MOL0     H94195   8.629   0.066   2.449 -3.1823 -1.1984  0.0148
  714MOL0     H94196   8.697   0.055   2.618 -0.3812 -0.5186 -0.5714
  714MOL0     H94197   8.557  -0.099   2.694 -1.1478  0.2071  1.0377
  714MOL0     H94198   8.451   0.011   2.598 -2.0322 -4.5687  1.6917
  714MOL0     H94199   8.416  -0.233   2.595 -0.0337  1.0334  0.5806
  714MOL0     H94200   8.559  -0.232   2.485  2.0517  1.7049  1.0611
  714MOL0     H94201   8.201  -0.117   2.485  2.1834  0.4871  1.8881
  714MOL0     H94202   8.108   0.003   2.127 -2.9894  1.0947 -0.4787
  714MOL0     H94203   8.113   0.092   2.286  1.4773 -1.4593  1.5423
  714MOL0     H94204   7.896  -0.011   2.249  1.2669  3.3133  2.3301
  714MOL0     H94205   7.976  -0.105   2.380  1.0237 -0.5075  0.4791
  714MOL0     H94206   7.863  -0.216   2.161 -2.1256 -1.3970  5.6526
  714MOL0     H94207   8.020  -0.219   2.107 -1.8770  0.2277 -1.3861
  714MOL0     H94208   8.082  -0.353   2.316 -0.1763  2.1711  0.5093
  714MOL0     H94209   7.969  -0.431   2.214 -0.3326 -1.0400  1.7000
  714MOL0     H94210   7.771  -0.453   2.181  0.2706 -1.1040  0.2376
  714MOL0     H94211   7.523  -0.523   2.169  0.2521  4.0132 -2.4240
  714MOL0     H94212   7.064  -0.444   2.303  1.1926 -0.7921  1.3504
  714MOL0     H94213   6.839  -0.547   2.314 -1.0969  0.6853 -3.5168
  714MOL0     H94214   6.743  -0.704   2.423 -1.0304  0.9113 -1.8319
  714MOL0     H94215   6.852  -0.841   2.443  0.0110 -0.9692 -1.6037
  714MOL0     H94216   6.624  -0.897   2.544  2.4945  1.6231 -0.8577
  714MOL0     H94217   6.639  -0.995   2.405 -0.0400  0.9139 -4.9289
  714MOL0     H94218   6.455  -0.867   2.293  2.3996  0.3503 -1.5541
  714MOL0     H94219   6.507  -0.726   2.368  2.5830 -0.9028 -3.9870
  714MOL0     H94220   6.346  -0.969   2.479 -0.0763  0.6572 -2.1377
  714MOL0     H94221   6.410  -0.859   2.606 -3.2599 -2.8885  1.9146
  714MOL0     H94222   6.219  -0.789   2.381 -0.7326 -2.4148  0.0347
  714MOL0     H94223   6.314  -0.681   2.489  0.9222  0.2014  0.8096
  714MOL0     H94224   6.198  -0.755   2.686  1.1808  1.2997 -0.8027
  714MOL0     H94225   6.147  -0.902   2.617  2.5816  0.8123  2.5348
  714MOL0     H94226   6.023  -0.624   2.582 -0.0709 -0.4898 -0.2154
  714MOL0     H94227   6.006  -0.753   2.446 -1.9391  0.0507  0.1158
  714MOL0     H94228   5.900  -0.899   2.634 -1.0345 -0.6806  0.8326
  714MOL0     H94229   5.801  -0.756   2.619 -1.2193 -4.4443 -3.1090
  714MOL0     H94230   7.012  -0.904   2.174 -1.1171  1.2728 -2.6399
  714MOL0     H94231   7.240  -0.820   2.184 -1.8480 -3.2414 -2.0031
  714MOL0     H94232   7.447  -0.346   2.541 -1.6867 -1.7780 -0.9259
  714MOL0     H94233   7.705  -0.298   2.560  0.7331 -0.6653 -0.1907
  714MOL0     H94234   9.400   0.124   2.359 -0.0871 -1.6876 -0.3373
  714MOL0     H94235   9.494   0.244   2.553 -2.4705  0.0118  2.3242
  714MOL0     H94236   9.435   0.060   3.133  0.3621 -4.5031  0.5630
  714MOL0     H94237   9.562   0.027   3.343  0.2459 -3.6349 -0.0476
  714MOL0     H94238   9.680  -0.054   3.480 -0.0387 -0.1086 -0.3210
  714MOL0     H94239   9.734   0.104   3.526  1.2124  0.2554 -0.1741
  714MOL0     H94240   9.955  -0.016   3.606  0.6810 -2.1249  4.5482
  714MOL0     H94241   9.819  -0.082   3.686  2.4546  0.1647  0.7987
  714MOL0     H94242   9.940  -0.174   3.424 -0.3699 -0.8271 -0.1790
  714MOL0     H94243   9.798  -0.242   3.497  0.4766 -1.4347 -1.6133
  714MOL0     H94244  10.004  -0.383   3.541 -2.0975 -0.2792 -2.1173
  714MOL0     H94245  10.087  -0.238   3.601 -0.9044 -0.0886  1.2463
  714MOL0     H94246   9.880  -0.382   3.942  5.2263  0.3664  1.4153
  714MOL0     H94247   9.930   0.091   3.107 -0.6598 -0.8762 -2.0256
  714MOL0     H94248   9.808   0.097   2.917 -0.3659  1.4713 -0.1190
  715MOL0     O94249   7.603   7.863   9.760 -0.3273  0.1755  0.2329
  715MOL0     C94250   7.574   7.793   9.867  0.2378  0.7520  0.1953
  715MOL0     O94251   7.587   7.655   9.875  0.3316  0.0355 -0.5468
  715MOL0     C94252   7.623   7.582   9.770 -0.2054  1.1281 -0.4372
  715MOL0     C94253   7.750   7.522   9.766  0.2675  0.1061 -0.6750
  715MOL0     C94254   7.785   7.437   9.657  1.1046 -0.2837  0.2924
  715MOL0     C94255   7.702   7.433   9.538  0.0409  0.1862 -0.5113
  715MOL0     O94256   7.743   7.351   9.442 -0.4909  0.3890  0.0526
  715MOL0     C94257   7.703   7.368   9.306 -0.6101 -0.1813 -0.1567
  715MOL0     C94258   7.765   7.258   9.215 -0.4073 -0.2893  0.3545
  715MOL0     C94259   7.705   7.116   9.244  0.1199 -0.8111  0.6373
  715MOL0     C94260   7.777   7.002   9.162 -0.1953 -0.0483  0.4048
  715MOL0     C94261   7.685   6.891   9.156 -0.4379  0.5151 -0.3323
  715MOL0     C94262   7.592   6.900   9.043 -0.1436  0.8270 -1.3704
  715MOL0     C94263   7.488   6.790   9.060 -0.3774  0.7523 -0.8975
  715MOL0     C94264   7.441   6.742   8.918 -0.2504 -0.6676 -0.2989
  715MOL0     N94265   7.557   6.671   8.850  0.3162  0.0930  0.1382
  715MOL0     C94266   7.574   6.529   8.870  0.1113  0.5907  0.8362
  715MOL0     C94267   7.676   6.499   8.796 -0.4771 -0.1664  0.2327
  715MOL0     C94268   7.738   6.359   8.798  0.0259  0.1614  0.0635
  715MOL0     C94269   7.821   6.313   8.681 -0.0168 -0.1926  0.4637
  715MOL0     C94270   7.965   6.362   8.709  0.5607 -0.3447 -0.1780
  715MOL0     C94271   8.048   6.342   8.582 -1.1873  0.2738  0.9991
  715MOL0     O94272   8.007   6.238   8.496  0.2016 -0.1826 -0.0262
  715MOL0     C94273   8.076   6.113   8.504 -1.4305 -0.3744  0.4765
  715MOL0     C94274   8.013   5.996   8.458  0.4597 -0.1601 -0.0704
  715MOL0     C94275   8.067   5.867   8.471  0.0500 -0.0722 -0.7648
  715MOL0     C94276   8.196   5.856   8.522  0.8733 -0.8316  0.1737
  715MOL0     C94277   8.261   5.723   8.534 -0.7630 -0.3759 -0.1084
  715MOL0     O94278   8.374   5.716   8.616  0.1655  0.8026  0.6062
  715MOL0     C94279   8.442   5.595   8.615 -0.5099 -0.8400 -1.1454
  715MOL0     C94280   8.405   5.488   8.693  0.0327 -0.0002 -0.5968
  715MOL0     C94281   8.495   5.375   8.695  0.0508  0.2466 -0.2819
  715MOL0     C94282   8.596   5.357   8.602  0.1583 -1.3875  0.1368
  715MOL0     O94283   8.673   5.244   8.607 -0.3563 -0.5145  0.1927
  715MOL0     C94284   8.810   5.237   8.569 -0.1447 -0.7748  0.3241
  715MOL0     C94285   8.863   5.100   8.618 -0.7578  0.8980  0.1754
  715MOL0     C94286   8.870   5.104   8.770  0.9976  0.7950 -0.5114
  715MOL0     C94287   8.983   5.186   8.827  0.0287  0.5652  1.0168
  715MOL0     C94288   9.013   5.134   8.968 -0.7694 -0.0582  0.9352
  715MOL0     C94289   9.133   5.218   9.021  0.3347  0.6710 -0.0751
  715MOL0     C94290   9.160   5.201   9.170 -1.2181  0.0504  0.1363
  715MOL0     C94291   9.231   5.062   9.222  0.0131  0.3688 -0.1672
  715MOL0    Cl94292   9.105   4.953   9.282 -0.6711  0.3756  0.4666
  715MOL0     C94293   8.620   5.466   8.512  0.2366 -0.5927  0.2098
  715MOL0     C94294   8.551   5.592   8.528 -0.8848  0.2637  0.6535
  715MOL0     O94295   8.219   5.631   8.468  0.8458  0.7274  0.0545
  715MOL0     C94296   8.270   5.968   8.556  0.5442  0.3849  0.2902
  715MOL0     C94297   8.201   6.093   8.566  0.1476 -1.3153 -0.1307
  715MOL0     N94298   7.723   6.610   8.736  0.1370 -0.1412  0.8501
  715MOL0     N94299   7.649   6.710   8.753 -0.3010  0.8200 -0.0496
  715MOL0     C94300   7.580   7.487   9.561 -0.6455 -0.9329 -0.2391
  715MOL0     C94301   7.538   7.567   9.669 -0.0343  0.0585  0.8276
  715MOL0     C94302   7.505   7.860   9.977  1.7401  0.6217 -0.0257
  715MOL0     C94303   7.468   7.778  10.090  0.0478 -0.1271  0.5598
  715MOL0     C94304   7.412   7.833  10.209  0.0343  0.4831  1.2148
  715MOL0     C94305   7.365   7.967  10.196 -0.1698 -0.6398  0.2033
  715MOL0     O94306   7.301   8.025  10.308  0.5990 -0.5673 -0.4362
  715MOL0     C94307   7.168   8.076  10.285 -0.6146 -0.9350 -0.2204
  715MOL0     C94308   7.144   8.152  10.412  0.3268  0.1526 -0.2641
  715MOL0     C94309   7.206   8.295  10.400 -0.2277  0.8365  0.4616
  715MOL0     C94310   7.099   8.403  10.430 -0.3988  0.4907  0.4551
  715MOL0     C94311   7.068   8.409  10.574 -0.9265  1.1157  0.0953
  715MOL0     C94312   7.037   8.397  10.693  0.2539  0.0308 -0.8375
  715MOL0     C94313   7.396   8.049  10.084  0.5327  0.1881 -0.6004
  715MOL0     C94314   7.465   7.993   9.978 -0.4295 -0.5983  0.4526
  715MOL0     H94315   7.807   7.522   9.858  0.1838 -0.5954 -0.6190
  715MOL0     H94316   7.875   7.380   9.639  0.7618 -0.0636 -2.5673
  715MOL0     H94317   7.715   7.472   9.277  0.9967 -0.4006 -0.3506
  715MOL0     H94318   7.596   7.347   9.312 -1.7945  4.9252  1.1378
  715MOL0     H94319   7.874   7.249   9.216 -0.5216 -2.4048  2.4142
  715MOL0     H94320   7.736   7.299   9.118 -0.5273  4.2126  2.0674
  715MOL0     H94321   7.602   7.127   9.210  0.3926  1.0027  0.2917
  715MOL0     H94322   7.703   7.084   9.349 -2.7185 -1.1277  0.5663
  715MOL0     H94323   7.816   7.032   9.064 -2.9542 -0.9644 -1.0739
  715MOL0     H94324   7.864   6.977   9.224 -1.0113 -0.8403  1.2667
  715MOL0     H94325   7.638   6.881   9.255  1.2153 -0.3515  0.3976
  715MOL0     H94326   7.752   6.806   9.144 -1.2535  0.0033 -1.5029
  715MOL0     H94327   7.663   6.888   8.960  1.6824  0.5127  0.1439
  715MOL0     H94328   7.550   7.001   9.046 -0.2945  0.7481  0.5420
  715MOL0     H94329   7.536   6.707   9.113  1.1818  2.3643  0.3465
  715MOL0     H94330   7.402   6.811   9.124 -1.7797  2.8887 -3.3310
  715MOL0     H94331   7.420   6.833   8.862  1.7913 -0.0249 -0.0883
  715MOL0     H94332   7.351   6.680   8.928 -1.9594  1.8206  0.5326
  715MOL0     H94333   7.520   6.450   8.923 -1.8291  0.6409 -0.9346
  715MOL0     H94334   7.647   6.299   8.806 -1.4211  2.4501  1.9762
  715MOL0     H94335   7.787   6.350   8.895  0.7778  2.4838 -0.0365
  715MOL0     H94336   7.775   6.355   8.591  0.6197 -0.2993  0.0863
  715MOL0     H94337   7.817   6.206   8.660  2.0374  0.1392 -2.2105
  715MOL0     H94338   7.976   6.467   8.739 -3.4790  0.3949 -0.7263
  715MOL0     H94339   8.006   6.290   8.781 -1.5101 -1.1969  0.2466
  715MOL0     H94340   8.153   6.344   8.613 -1.4348 -0.4942  1.9144
  715MOL0     H94341   8.036   6.432   8.519  1.3168 -0.5266 -0.7872
  715MOL0     H94342   7.911   6.006   8.423 -0.6322  0.1367  2.8731
  715MOL0     H94343   8.016   5.775   8.443  0.4178 -1.4681  2.5915
  715MOL0     H94344   8.320   5.497   8.760 -0.3452 -2.0332 -0.7393
  715MOL0     H94345   8.472   5.312   8.781 -0.5719  3.7782  2.3741
  715MOL0     H94346   8.875   5.317   8.605 -2.2025  0.7123  0.9224
  715MOL0     H94347   8.801   5.229   8.460  1.6731  0.2104  0.0742
  715MOL0     H94348   8.964   5.081   8.581  0.4329 -0.9423  3.8696
  715MOL0     H94349   8.797   5.019   8.585  0.8368 -0.0803 -0.7314
  715MOL0     H94350   8.892   4.998   8.786  0.4775  0.9992  1.9288
  715MOL0     H94351   8.776   5.114   8.825  0.6466  1.0345 -1.1457
  715MOL0     H94352   9.070   5.184   8.762  0.7937 -0.9430  2.0357
  715MOL0     H94353   8.931   5.283   8.832 -3.5310 -1.2340  3.2201
  715MOL0     H94354   9.027   5.026   8.971  2.1682  0.0713 -1.6244
  715MOL0     H94355   8.930   5.151   9.036  0.6263 -0.7672  2.9090
  715MOL0     H94356   9.130   5.326   9.003  0.4351  0.6439 -0.2615
  715MOL0     H94357   9.214   5.184   8.955 -1.2546  0.3818 -1.9860
  715MOL0     H94358   9.228   5.285   9.187  1.8931 -2.1575 -0.3875
  715MOL0     H94359   9.063   5.218   9.217 -1.5238  0.0659 -0.4995
  715MOL0     H94360   9.307   5.078   9.299 -1.1212  0.3207  1.0011
  715MOL0     H94361   9.274   5.005   9.139  1.5181 -0.9898  1.4650
  715MOL0     H94362   8.694   5.446   8.435  0.8260 -2.5908  1.2302
  715MOL0     H94363   8.568   5.683   8.472 -3.4142  1.7376  2.1242
  715MOL0     H94364   8.375   5.959   8.584  0.8396 -3.1271 -1.3438
  715MOL0     H94365   8.265   6.181   8.577 -0.6629  0.1634 -4.7940
  715MOL0     H94366   7.523   7.485   9.468  0.7875 -0.8442 -1.1621
  715MOL0     H94367   7.443   7.618   9.662  0.0073 -0.0450 -1.3286
  715MOL0     H94368   7.468   7.670  10.082 -1.2420 -0.2013  1.3239
  715MOL0     H94369   7.372   7.788  10.299  0.6157  0.4380  1.4594
  715MOL0     H94370   7.099   7.991  10.276  1.0762 -2.3667 -0.2172
  715MOL0     H94371   7.162   8.135  10.194  1.6089  1.0310  0.8103
  715MOL0     H94372   7.037   8.160  10.433  0.0061 -0.6366 -1.4903
  715MOL0     H94373   7.187   8.096  10.496  2.7228  2.4420  0.1625
  715MOL0     H94374   7.239   8.306  10.297 -2.4254 -3.3289 -0.8985
  715MOL0     H94375   7.291   8.298  10.469 -1.6207  1.8460  2.2404
  715MOL0     H94376   7.126   8.504  10.398  0.6716  0.2543  0.5604
  715MOL0     H94377   7.009   8.380  10.372  0.4761  1.9978 -1.5764
  715MOL0     H94378   7.004   8.415  10.793  1.6729 -1.2085 -0.1164
  715MOL0     H94379   7.368   8.153  10.073  2.3614  0.4789 -3.8824
  715MOL0     H94380   7.484   8.051   9.888  3.4074  2.2301  2.7480
  716MOL0     O94381   0.903   1.314   9.744 -0.6457  0.0059  0.0048
  716MOL0     C94382   1.020   1.264   9.743  0.0245  0.0302 -0.0549
  716MOL0     O94383   1.127   1.317   9.797  0.1413  0.4339 -0.0135
  716MOL0     C94384   1.111   1.445   9.856  0.4851  0.2402 -0.2047
  716MOL0     C94385   1.039   1.457   9.982  0.7668 -0.6599  0.6261
  716MOL0     C94386   1.024   1.587  10.038  1.7578 -0.0587 -0.8896
  716MOL0     C94387   1.088   1.703   9.992 -0.2646  0.3924  0.9194
  716MOL0     O94388   1.080   1.827  10.053  0.2784 -0.2568  0.0786
  716MOL0     C94389   1.210   1.890  10.073  0.4031  0.5322  0.0040
  716MOL0     C94390   1.272   1.878  10.209  0.0869 -0.0555 -0.3588
  716MOL0     C94391   1.308   1.724  10.235 -0.1810 -0.3783  0.5110
  716MOL0     C94392   1.396   1.703  10.360 -0.2563 -0.1801 -0.3260
  716MOL0     C94393   1.319   1.724  10.492 -0.4476 -0.5507  0.2570
  716MOL0     C94394   1.408   1.792  10.595 -0.8037 -0.2119 -0.0075
  716MOL0     C94395   1.343   1.796  10.730  0.6314 -0.7628 -0.8290
  716MOL0     C94396   1.416   1.884  10.843 -0.9864 -1.0579  0.8700
  716MOL0     N94397   1.348   1.862  10.972  0.3584  0.2321  0.0550
  716MOL0     C94398   1.342   1.736  11.025 -0.2565 -0.4585 -0.7599
  716MOL0     C94399   1.286   1.761  11.155 -0.2357 -1.0650  0.8389
  716MOL0     C94400   1.285   1.656  11.266  0.3497  0.8512  0.3557
  716MOL0     C94401   1.213   1.520  11.243 -0.3376 -0.6086 -0.6863
  716MOL0     C94402   1.243   1.413  11.354  0.7902 -0.8470 -1.3013
  716MOL0     C94403   1.224   1.462  11.500 -0.1200 -0.7289 -0.0482
  716MOL0     O94404   1.266   1.389  11.606  0.5754  0.3780  0.3487
  716MOL0     C94405   1.400   1.368  11.628  0.9399  0.2309  0.3040
  716MOL0     C94406   1.512   1.429  11.558 -0.0407 -0.4553 -0.2299
  716MOL0     C94407   1.645   1.406  11.603  0.7280  1.0391 -0.6909
  716MOL0     C94408   1.667   1.306  11.710  0.4103  1.2375  0.1701
  716MOL0     C94409   1.809   1.287  11.759  0.1106  1.0981 -1.1709
  716MOL0     O94410   1.829   1.177  11.831 -0.3771  0.0920 -0.1554
  716MOL0     C94411   1.955   1.127  11.856 -0.1534 -0.1989 -0.3826
  716MOL0     C94412   2.057   1.207  11.919 -0.3526 -0.2649  0.1141
  716MOL0     C94413   2.189   1.156  11.921  0.5043  0.0958  0.1023
  716MOL0     C94414   2.221   1.025  11.879 -0.0043  0.9606 -0.3290
  716MOL0     O94415   2.346   0.981  11.895  0.1939 -0.3669  0.3608
  716MOL0     C94416   2.391   0.975  12.031  0.7144 -0.3117  1.0353
  716MOL0     C94417   2.542   0.970  12.032  0.2729 -0.3979  0.1706
  716MOL0     C94418   2.582   0.825  12.006 -0.1243 -0.2957  0.2956
  716MOL0     C94419   2.730   0.807  12.031 -0.2164 -0.1267  0.9588
  716MOL0     C94420   2.818   0.868  11.924  0.5743  0.3920  0.9652
  716MOL0     C94421   2.973   0.843  11.942 -0.2110 -0.4385 -0.1827
  716MOL0     C94422   3.060   0.886  11.820 -0.5138 -0.4814 -0.8596
  716MOL0     C94423   3.208   0.836  11.841 -0.7333 -0.7748 -0.8217
  716MOL0    Cl94424   3.322   0.894  11.706 -0.5745  0.3426 -0.6156
  716MOL0     C94425   2.118   0.938  11.828 -0.3585 -0.3060  0.5068
  716MOL0     C94426   1.989   0.994  11.823  0.2407 -1.5286  0.2371
  716MOL0     O94427   1.890   1.358  11.710 -0.3569 -0.1950  0.8190
  716MOL0     C94428   1.559   1.233  11.766 -0.5399  1.8056 -0.0014
  716MOL0     C94429   1.432   1.280  11.737 -0.0851 -0.2306  1.0747
  716MOL0     N94430   1.272   1.903  11.164 -0.5719 -1.2016  0.5746
  716MOL0     N94431   1.302   1.959  11.053 -0.0014 -1.0169 -0.2077
  716MOL0     C94432   1.155   1.688   9.869 -0.5171  0.2869 -0.3038
  716MOL0     C94433   1.166   1.562   9.813  0.3153  0.2984 -0.3847
  716MOL0     C94434   1.042   1.143   9.660  1.0140  0.9735 -0.9026
  716MOL0     C94435   0.924   1.077   9.605 -0.0752  0.0644 -0.3906
  716MOL0     C94436   0.913   1.000   9.488 -0.4718 -0.1427 -0.7755
  716MOL0     C94437   1.032   0.970   9.422  0.4725  0.3595 -0.0405
  716MOL0     O94438   1.043   0.902   9.303  0.1481 -0.7919 -1.0178
  716MOL0     C94439   0.984   0.779   9.287 -0.1077  1.0446 -1.0412
  716MOL0     C94440   1.031   0.705   9.156 -0.4574 -0.4201  0.0893
  716MOL0     C94441   1.183   0.685   9.150 -0.4764 -0.5320  0.8749
  716MOL0     C94442   1.217   0.617   9.015 -0.4554 -0.1370 -0.8316
  716MOL0     C94443   1.363   0.605   9.018 -0.2569  0.0871  0.3469
  716MOL0     C94444   1.480   0.609   9.032 -0.0102 -0.1788 -0.0920
  716MOL0     C94445   1.146   1.044   9.477  0.7753  0.0083  0.8840
  716MOL0     C94446   1.154   1.123   9.587 -0.3655 -1.0726  0.0019
  716MOL0     H94447   0.987   1.376  10.033  1.4928 -0.8664  1.0567
  716MOL0     H94448   0.955   1.605  10.120  2.1134  1.9077 -0.9809
  716MOL0     H94449   1.195   1.997  10.054  0.3389  0.0590 -3.1545
  716MOL0     H94450   1.282   1.878   9.992 -1.3533  1.6234 -1.7926
  716MOL0     H94451   1.190   1.909  10.274 -2.8865 -0.8539 -3.4067
  716MOL0     H94452   1.366   1.933  10.214  0.8909 -1.1925 -1.8846
  716MOL0     H94453   1.370   1.689  10.151  1.3954 -0.4505  1.6522
  716MOL0     H94454   1.232   1.646  10.240  1.6111 -2.1826  1.3357
  716MOL0     H94455   1.440   1.603  10.367  1.0830  0.4932  1.6675
  716MOL0     H94456   1.473   1.781  10.358  0.0673 -0.3254  2.7071
  716MOL0     H94457   1.272   1.635  10.535 -1.4612  0.7780  2.0647
  716MOL0     H94458   1.239   1.795  10.471 -0.4822 -0.3404  1.0639
  716MOL0     H94459   1.434   1.894  10.563  0.5172 -1.3507 -2.9958
  716MOL0     H94460   1.505   1.743  10.601  0.6166  1.8206 -3.2684
  716MOL0     H94461   1.254   1.859  10.730  2.0813  1.4607  0.5318
  716MOL0     H94462   1.322   1.695  10.765 -1.2531 -0.3715 -0.7352
  716MOL0     H94463   1.411   1.989  10.813 -1.5801 -1.4789 -0.6344
  716MOL0     H94464   1.524   1.872  10.852 -0.3980  2.4945  0.1928
  716MOL0     H94465   1.381   1.639  10.995  2.0281  0.5954 -1.4443
  716MOL0     H94466   1.260   1.711  11.357  3.0316 -0.4148  1.9955
  716MOL0     H94467   1.391   1.631  11.276 -0.2222 -0.8256  3.6919
  716MOL0     H94468   1.252   1.478  11.149  0.1340 -0.2780 -0.6418
  716MOL0     H94469   1.105   1.535  11.245 -0.5514 -1.6383  3.7637
  716MOL0     H94470   1.176   1.329  11.336 -2.2627  0.7111  1.6047
  716MOL0     H94471   1.349   1.386  11.357  1.6002  2.0232  1.0373
  716MOL0     H94472   1.124   1.491  11.532 -0.0804  0.2626 -0.7702
  716MOL0     H94473   1.276   1.559  11.507 -1.2908  0.1503 -2.4214
  716MOL0     H94474   1.518   1.496  11.473  1.2907  0.2527  0.3867
  716MOL0     H94475   1.735   1.455  11.566  1.3503  2.4375  2.3461
  716MOL0     H94476   2.038   1.303  11.964 -0.1520 -1.2488  2.4359
  716MOL0     H94477   2.271   1.222  11.950 -0.1363  0.0087  2.2783
  716MOL0     H94478   2.344   0.888  12.079  0.0947 -0.0356  0.9416
  716MOL0     H94479   2.361   1.067  12.081 -0.2116  0.6349 -1.1389
  716MOL0     H94480   2.567   0.987  12.137  2.8501 -3.4386  0.1686
  716MOL0     H94481   2.594   1.040  11.965 -0.4514  0.5150  0.5363
  716MOL0     H94482   2.551   0.799  11.905 -1.5755 -0.8583  0.8600
  716MOL0     H94483   2.524   0.759  12.071 -3.0218 -0.8540 -2.6340
  716MOL0     H94484   2.760   0.848  12.128  1.7982 -0.5818  0.5641
  716MOL0     H94485   2.752   0.700  12.029 -0.6047 -0.2135  1.0671
  716MOL0     H94486   2.800   0.975  11.908 -1.1393 -0.3770 -4.5749
  716MOL0     H94487   2.794   0.816  11.830  1.2291 -3.5372  2.7487
  716MOL0     H94488   2.988   0.736  11.960 -1.0119 -0.2160  2.1283
  716MOL0     H94489   3.003   0.910  12.024  5.6601 -1.2033 -1.2941
  716MOL0     H94490   3.030   0.854  11.719 -2.2963  1.3920 -0.9918
  716MOL0     H94491   3.057   0.994  11.804  1.5182 -0.4720 -1.4756
  716MOL0     H94492   3.210   0.727  11.845 -0.6399 -0.7968 -1.4563
  716MOL0     H94493   3.242   0.867  11.940 -0.0712  2.9619 -2.0756
  716MOL0     H94494   2.126   0.833  11.803  1.5942 -0.1683  0.4378
  716MOL0     H94495   1.909   0.938  11.775 -0.0954  0.7943 -2.1149
  716MOL0     H94496   1.585   1.172  11.852 -1.3584  0.6791 -0.5241
  716MOL0     H94497   1.345   1.239  11.788  1.3976 -3.4681  1.2380
  716MOL0     H94498   1.198   1.776   9.823  0.9004 -0.6575 -0.8601
  716MOL0     H94499   1.221   1.558   9.720  1.7047  4.4398  0.0793
  716MOL0     H94500   0.830   1.101   9.653 -0.4195 -1.1385 -0.4347
  716MOL0     H94501   0.816   0.970   9.451 -0.9065  1.9061 -1.4277
  716MOL0     H94502   0.875   0.787   9.288 -0.3278 -0.9195 -2.6024
  716MOL0     H94503   1.012   0.711   9.368 -0.8562  1.3869 -0.4815
  716MOL0     H94504   0.992   0.604   9.174 -1.3390  0.1396  1.5402
  716MOL0     H94505   0.987   0.751   9.067  0.6150 -2.3375 -1.5156
  716MOL0     H94506   1.224   0.630   9.234  1.5717 -2.2459 -1.1271
  716MOL0     H94507   1.228   0.785   9.155 -2.8283  0.6458  0.3838
  716MOL0     H94508   1.172   0.517   9.015 -0.3466 -0.2581  1.6178
  716MOL0     H94509   1.192   0.674   8.926  1.2940 -1.2190 -2.0840
  716MOL0     H94510   1.587   0.598   9.029 -0.2297 -2.6399 -1.1363
  716MOL0     H94511   1.238   1.025   9.422 -1.5160  1.8479 -4.1949
  716MOL0     H94512   1.244   1.180   9.606 -1.4824  0.4962  0.8433
  717MOL0     O94513   5.962   0.081   2.854  0.1056  0.3845 -0.2060
  717MOL0     C94514   5.938   0.195   2.881  0.3555  0.4907 -0.4261
  717MOL0     O94515   5.817   0.248   2.903 -0.1484 -0.2085 -0.2735
  717MOL0     C94516   5.707   0.166   2.930 -0.5815 -0.5516  0.0433
  717MOL0     C94517   5.588   0.196   2.857 -0.3182  0.9024  0.0256
  717MOL0     C94518   5.488   0.098   2.861  1.0890 -0.8578  1.0203
  717MOL0     C94519   5.492  -0.015   2.939 -0.2094  0.8321 -0.7095
  717MOL0     O94520   5.394  -0.116   2.947 -0.2806 -0.4087  0.0028
  717MOL0     C94521   5.332  -0.138   2.828 -0.2777 -0.2688 -0.2448
  717MOL0     C94522   5.267  -0.276   2.816  0.8895 -0.3646  0.4171
  717MOL0     C94523   5.183  -0.302   2.695 -0.1507 -0.1928  0.4943
  717MOL0     C94524   5.059  -0.215   2.696  0.4318 -0.0237  0.6119
  717MOL0     C94525   4.988  -0.215   2.562 -0.0712 -0.3802  0.0327
  717MOL0     C94526   4.893  -0.092   2.549 -0.3037  0.0724 -0.2521
  717MOL0     C94527   4.774  -0.094   2.644  0.9531 -0.4652  0.9579
  717MOL0     C94528   4.670  -0.207   2.629 -0.1765 -0.1957 -1.1350
  717MOL0     N94529   4.529  -0.170   2.655 -0.4579  0.5244 -0.4199
  717MOL0     C94530   4.453  -0.061   2.601 -0.9567  0.2395  0.5416
  717MOL0     C94531   4.323  -0.090   2.631 -1.1050 -0.3880 -0.7001
  717MOL0     C94532   4.223  -0.006   2.592 -0.3040 -0.7326 -0.6022
  717MOL0     C94533   4.194   0.109   2.697 -0.0278 -0.1862  0.2421
  717MOL0     C94534   4.049   0.137   2.722 -0.8006  0.3471  0.8493
  717MOL0     C94535   3.992   0.217   2.616 -0.9809 -0.1396 -0.3761
  717MOL0     O94536   4.004   0.151   2.489  0.7185 -0.7329  0.2827
  717MOL0     C94537   3.910   0.174   2.391 -0.8379 -1.0513  0.0177
  717MOL0     C94538   3.925   0.087   2.286 -0.0084  0.9034  0.5485
  717MOL0     C94539   3.838   0.105   2.179 -0.0379 -0.4342 -0.0785
  717MOL0     C94540   3.730   0.200   2.183  0.3117  0.8753  0.4793
  717MOL0     C94541   3.639   0.211   2.073 -0.7933  0.7285 -0.8353
  717MOL0     O94542   3.629   0.114   1.982 -0.6932 -0.9253  0.3239
  717MOL0     C94543   3.504   0.088   1.931 -0.1384 -0.1704 -0.1002
  717MOL0     C94544   3.499   0.047   1.795  0.4536 -0.6359  0.2329
  717MOL0     C94545   3.383   0.015   1.726 -0.2096  1.1573  0.3349
  717MOL0     C94546   3.264   0.025   1.803  0.5764 -0.6508  0.2335
  717MOL0     O94547   3.135  -0.003   1.754 -0.0327  0.0616 -0.2063
  717MOL0     C94548   3.098   0.061   1.634  0.5357 -0.1241 -0.3605
  717MOL0     C94549   2.945   0.078   1.628  1.0758  0.5687 -0.1629
  717MOL0     C94550   2.890   0.193   1.712  0.5491 -0.4525 -0.1070
  717MOL0     C94551   2.744   0.228   1.692  0.1459 -0.3354 -0.2994
  717MOL0     C94552   2.653   0.102   1.728 -0.1351 -1.0562 -0.6807
  717MOL0     C94553   2.596   0.046   1.604 -0.3662 -0.3794  0.6367
  717MOL0     C94554   2.514  -0.068   1.626 -0.6224 -0.5529  0.1002
  717MOL0     C94555   2.454  -0.107   1.486 -0.0947  0.5502 -0.0193
  717MOL0    Cl94556   2.387  -0.275   1.497 -0.4269 -0.0380  0.3110
  717MOL0     C94557   3.270   0.049   1.942 -0.0698 -0.6265 -0.1557
  717MOL0     C94558   3.385   0.080   2.011 -0.2313 -0.5058 -0.1803
  717MOL0     O94559   3.570   0.310   2.071 -0.6608 -0.9728  0.3701
  717MOL0     C94560   3.719   0.285   2.294 -0.9271  0.2566  0.7052
  717MOL0     C94561   3.810   0.271   2.395  0.6681 -0.2672  0.4794
  717MOL0     N94562   4.313  -0.216   2.686  0.1009 -1.2209 -0.1343
  717MOL0     N94563   4.437  -0.255   2.705  0.2186  0.3330 -0.3527
  717MOL0     C94564   5.613  -0.038   3.009  0.7039  0.0737 -1.2858
  717MOL0     C94565   5.723   0.051   3.004  0.3761 -0.1541 -0.1685
  717MOL0     C94566   6.061   0.270   2.917  0.1422  0.1647  0.1054
  717MOL0     C94567   6.053   0.393   2.984 -1.0810 -0.9845  0.7824
  717MOL0     C94568   6.176   0.456   3.023 -0.1712 -0.2655 -0.1110
  717MOL0     C94569   6.299   0.399   2.995  1.3203 -0.7347 -1.1162
  717MOL0     O94570   6.413   0.456   3.031 -0.1112 -0.2279 -0.1388
  717MOL0     C94571   6.407   0.556   3.135 -0.0136 -0.3230  0.0151
  717MOL0     C94572   6.557   0.555   3.173  1.6631  0.3343  0.1648
  717MOL0     C94573   6.592   0.656   3.282  0.3743  1.2324 -0.3194
  717MOL0     C94574   6.555   0.594   3.422  0.0483  0.4025 -0.1724
  717MOL0     C94575   6.541   0.690   3.534 -0.7214 -0.0994  0.7880
  717MOL0     C94576   6.540   0.773   3.625  0.7529 -0.1496  0.1241
  717MOL0     C94577   6.299   0.273   2.926  0.6346 -0.6828 -0.0349
  717MOL0     C94578   6.181   0.206   2.900  1.0212 -0.4731  0.5410
  717MOL0     H94579   5.582   0.280   2.790 -0.9144  0.0697 -1.0043
  717MOL0     H94580   5.404   0.114   2.795 -0.4780 -0.4954  3.0055
  717MOL0     H94581   5.404  -0.140   2.746  0.4455 -1.7784  0.4029
  717MOL0     H94582   5.246  -0.071   2.818 -3.9634 -4.5836 -0.6267
  717MOL0     H94583   5.198  -0.276   2.901  1.0378 -0.2043  0.5384
  717MOL0     H94584   5.344  -0.353   2.822  1.0896 -0.1233  1.0577
  717MOL0     H94585   5.167  -0.408   2.711  1.3958 -0.2751  1.8157
  717MOL0     H94586   5.241  -0.293   2.603  0.5895 -3.3524  0.5483
  717MOL0     H94587   4.980  -0.264   2.753 -0.7290 -1.2568 -1.8970
  717MOL0     H94588   5.082  -0.110   2.717  1.2968  0.9021 -3.8751
  717MOL0     H94589   4.933  -0.310   2.563 -1.1383  0.1924  2.4621
  717MOL0     H94590   5.058  -0.226   2.479 -0.1902  1.1729 -0.2989
  717MOL0     H94591   4.860  -0.079   2.446  0.2850  0.0991 -0.4419
  717MOL0     H94592   4.945   0.001   2.573  1.0440 -0.0329 -2.4831
  717MOL0     H94593   4.811  -0.083   2.747  4.0823 -1.4458  0.0616
  717MOL0     H94594   4.719  -0.002   2.623  0.7935 -0.9155 -0.7378
  717MOL0     H94595   4.700  -0.286   2.698 -1.7262 -1.0990 -1.4565
  717MOL0     H94596   4.677  -0.248   2.528 -2.8053 -2.6949 -0.4434
  717MOL0     H94597   4.499   0.021   2.546  1.4496 -0.0958  1.8899
  717MOL0     H94598   4.127  -0.060   2.588 -0.1800 -0.9423 -0.7894
  717MOL0     H94599   4.251   0.042   2.498  2.4163 -1.4613 -0.2399
  717MOL0     H94600   4.252   0.198   2.671  1.4240 -1.4473 -1.1249
  717MOL0     H94601   4.229   0.065   2.790  2.8149  5.0615  2.0275
  717MOL0     H94602   3.993   0.043   2.728  0.2200 -0.2198  2.2076
  717MOL0     H94603   4.035   0.179   2.822 -1.4259 -2.4182  2.0243
  717MOL0     H94604   4.044   0.314   2.617  3.3020 -2.0195  4.6041
  717MOL0     H94605   3.889   0.229   2.649 -0.8401 -0.5364  0.2148
  717MOL0     H94606   4.002   0.011   2.286 -0.7260  0.1077  2.5212
  717MOL0     H94607   3.845   0.041   2.091 -1.2744  0.2573 -0.7098
  717MOL0     H94608   3.590   0.032   1.738 -0.0259 -2.2958 -0.1696
  717MOL0     H94609   3.367  -0.010   1.622  1.4058  1.4910 -0.0211
  717MOL0     H94610   3.142   0.001   1.554 -0.6752  1.1005 -2.0074
  717MOL0     H94611   3.142   0.160   1.614 -2.1874  1.3974  0.7087
  717MOL0     H94612   2.893  -0.018   1.633  2.3030 -0.0826  0.4533
  717MOL0     H94613   2.933   0.115   1.526 -1.4954  2.3632  0.6718
  717MOL0     H94614   2.932   0.289   1.680  0.4668 -1.3063 -3.0766
  717MOL0     H94615   2.921   0.187   1.817  3.4111  3.2664 -0.5085
  717MOL0     H94616   2.710   0.305   1.762 -0.8372  0.1671 -1.2981
  717MOL0     H94617   2.721   0.268   1.592 -0.1481  0.8123  0.2070
  717MOL0     H94618   2.578   0.154   1.788 -0.4832  1.8351 -3.3610
  717MOL0     H94619   2.708   0.038   1.797 -0.1931  0.7919  1.1809
  717MOL0     H94620   2.667  -0.000   1.535 -0.5046 -1.7656  1.3948
  717MOL0     H94621   2.556   0.126   1.540 -0.4551 -2.0296 -1.4859
  717MOL0     H94622   2.567  -0.158   1.659 -2.4699 -1.7169  0.0385
  717MOL0     H94623   2.438  -0.034   1.697  0.6063  0.4159  1.0022
  717MOL0     H94624   2.527  -0.103   1.405 -1.7956 -1.9991 -1.8425
  717MOL0     H94625   2.372  -0.038   1.463 -0.9936 -0.5166 -0.0936
  717MOL0     H94626   3.177   0.056   1.998  1.1028 -1.1985  1.9508
  717MOL0     H94627   3.394   0.095   2.119 -0.4165  1.1191 -0.3664
  717MOL0     H94628   3.654   0.371   2.303 -0.7712  0.8161 -2.4428
  717MOL0     H94629   3.800   0.352   2.466 -1.4843  0.6705 -0.7807
  717MOL0     H94630   5.613  -0.129   3.066  2.6352 -1.0009 -2.8502
  717MOL0     H94631   5.817   0.035   3.056  1.6873  1.4859 -1.8924
  717MOL0     H94632   5.958   0.445   2.991 -1.5314 -1.6821  0.1222
  717MOL0     H94633   6.170   0.545   3.086 -2.8267  0.0491 -0.6679
  717MOL0     H94634   6.347   0.522   3.220 -0.7121  3.0139  1.0017
  717MOL0     H94635   6.375   0.650   3.089  0.1320 -1.4608 -2.5691
  717MOL0     H94636   6.589   0.453   3.194  0.5497  0.3253  2.0541
  717MOL0     H94637   6.597   0.590   3.078 -0.0235  1.2725 -0.2287
  717MOL0     H94638   6.547   0.755   3.272  0.8483  1.4562 -0.2828
  717MOL0     H94639   6.701   0.662   3.289  0.4821  0.9858 -1.6481
  717MOL0     H94640   6.455   0.553   3.405 -1.5705  4.5470 -1.9515
  717MOL0     H94641   6.629   0.519   3.452  0.7979  1.5274  0.9243
  717MOL0     H94642   6.533   0.831   3.714 -0.9736 -0.3402  0.1470
  717MOL0     H94643   6.397   0.241   2.894  0.7368  1.2730 -1.9465
  717MOL0     H94644   6.198   0.109   2.853 -1.6350 -0.6922 -0.1706
  718MOL0     O94645   2.503   5.800   7.584 -0.6673  0.2886  0.0877
  718MOL0     C94646   2.485   5.914   7.555 -0.7583  0.1177  0.6300
  718MOL0     O94647   2.565   6.025   7.599  0.2825 -0.0318  0.2831
  718MOL0     C94648   2.660   5.997   7.695 -0.7245  0.3625 -0.5409
  718MOL0     C94649   2.779   5.929   7.663 -0.9194  0.7261 -0.0362
  718MOL0     C94650   2.873   5.891   7.760  0.6543  0.1928  0.0614
  718MOL0     C94651   2.849   5.927   7.892  0.9914  0.5388 -0.6926
  718MOL0     O94652   2.956   5.883   7.968  0.5878  0.2190 -0.9558
  718MOL0     C94653   2.949   5.916   8.105 -0.3362 -0.8692  0.5984
  718MOL0     C94654   3.068   5.887   8.190  0.1382 -0.2026  0.0218
  718MOL0     C94655   3.072   5.737   8.240 -0.0418  0.1063  0.6674
  718MOL0     C94656   3.195   5.732   8.332  0.6049 -0.4159 -1.1620
  718MOL0     C94657   3.230   5.598   8.406 -0.9588 -0.5742 -0.7192
  718MOL0     C94658   3.152   5.593   8.540  0.3474 -0.3638  0.2433
  718MOL0     C94659   3.218   5.479   8.618 -0.1739  0.4256 -0.8168
  718MOL0     C94660   3.182   5.493   8.768 -0.7684  0.0473  0.0371
  718MOL0     N94661   3.298   5.431   8.847 -0.4660 -0.2289  0.2241
  718MOL0     C94662   3.361   5.487   8.954 -0.5209  0.1069  0.6031
  718MOL0     C94663   3.439   5.391   9.016  0.7292  0.6656  0.5684
  718MOL0     C94664   3.490   5.374   9.155 -0.7241 -0.2504  0.1698
  718MOL0     C94665   3.366   5.349   9.249 -1.2678 -0.9436 -0.1251
  718MOL0     C94666   3.315   5.209   9.230 -0.8101  0.4909  0.1732
  718MOL0     C94667   3.191   5.175   9.318  0.4071 -0.4890 -0.9092
  718MOL0     O94668   3.216   5.192   9.459  0.3935  0.2825  0.0844
  718MOL0     C94669   3.152   5.118   9.555 -0.1676  0.6535  0.2274
  718MOL0     C94670   3.112   4.983   9.532 -0.2700 -0.3705 -0.7499
  718MOL0     C94671   3.041   4.908   9.628  1.2524 -0.0407  1.0740
  718MOL0     C94672   3.020   4.959   9.755  0.2495  0.0498 -1.0052
  718MOL0     C94673   2.984   4.869   9.862 -0.4457 -0.2320 -0.3629
  718MOL0     O94674   2.920   4.927   9.971 -0.0845 -0.0233  0.2193
  718MOL0     C94675   2.819   4.858  10.032 -0.6739 -0.0009 -0.5809
  718MOL0     C94676   2.788   4.717  10.022  0.3290  1.2170  0.3444
  718MOL0     C94677   2.694   4.654  10.107  0.9845 -0.8915  0.2107
  718MOL0     C94678   2.616   4.729  10.189 -1.1669  0.2446  0.0147
  718MOL0     O94679   2.536   4.663  10.276 -0.1229 -0.5882 -0.4780
  718MOL0     C94680   2.431   4.743  10.334  0.9149  0.3907 -0.5533
  718MOL0     C94681   2.353   4.654  10.444  0.0657  0.8424 -0.6845
  718MOL0     C94682   2.439   4.585  10.551 -1.2561 -0.2088 -1.1840
  718MOL0     C94683   2.369   4.518  10.674  0.1103 -0.0780 -0.4530
  718MOL0     C94684   2.469   4.476  10.778  0.2556  0.2464 -0.9701
  718MOL0     C94685   2.377   4.430  10.898 -0.1321  0.2606 -0.7285
  718MOL0     C94686   2.463   4.449  11.027  1.0971 -0.1792  0.7213
  718MOL0     C94687   2.405   4.380  11.148 -0.3085  0.2076  0.5588
  718MOL0    Cl94688   2.243   4.428  11.183 -0.2313 -0.4529  0.2665
  718MOL0     C94689   2.635   4.876  10.196  0.4888  1.2211  0.0975
  718MOL0     C94690   2.734   4.930  10.117 -0.6366  0.3971 -0.2307
  718MOL0     O94691   3.029   4.760   9.853  0.0055  0.2273 -0.2771
  718MOL0     C94692   3.071   5.090   9.779 -0.0683  0.1479 -0.1362
  718MOL0     C94693   3.140   5.168   9.683  1.2611  0.1543 -0.4304
  718MOL0     N94694   3.443   5.284   8.924  0.4814  0.3180 -0.4803
  718MOL0     N94695   3.364   5.312   8.828 -0.0831  0.9184  0.9881
  718MOL0     C94696   2.734   5.995   7.931 -0.1947  0.6049  0.5261
  718MOL0     C94697   2.634   6.017   7.831  0.2263 -0.3873 -0.9662
  718MOL0     C94698   2.366   5.948   7.471 -0.9901  0.9184 -0.5104
  718MOL0     C94699   2.274   5.852   7.449 -0.2652 -0.3001  0.3812
  718MOL0     C94700   2.152   5.885   7.370 -0.0651  0.3156 -0.0346
  718MOL0     C94701   2.145   6.002   7.301 -0.2545  0.9421  0.1538
  718MOL0     O94702   2.053   6.032   7.203 -0.0075 -0.9276  0.4078
  718MOL0     C94703   2.001   5.920   7.126  1.4067  0.3434  0.5344
  718MOL0     C94704   1.904   5.982   7.015 -0.2287  0.0223 -0.2450
  718MOL0     C94705   1.967   6.091   6.928  0.3024 -0.2987 -0.2768
  718MOL0     C94706   1.882   6.119   6.802 -0.5465 -0.0620  0.0829
  718MOL0     C94707   1.866   6.003   6.705  0.1357  0.3629 -0.9497
  718MOL0     C94708   1.878   5.917   6.622  0.8130  0.0322  0.5344
  718MOL0     C94709   2.241   6.100   7.327  0.7633 -0.4757  0.6920
  718MOL0     C94710   2.353   6.072   7.402 -0.5832  0.6659 -1.1145
  718MOL0     H94711   2.796   5.882   7.567 -2.7969  0.4362 -0.2593
  718MOL0     H94712   2.961   5.834   7.733  1.6898  2.0578 -0.6734
  718MOL0     H94713   2.861   5.883   8.161 -1.4240  1.2762  0.2748
  718MOL0     H94714   2.930   6.024   8.103 -1.9297 -1.1328 -0.4886
  718MOL0     H94715   3.049   5.959   8.270 -0.4448  1.0755 -1.2071
  718MOL0     H94716   3.166   5.909   8.147 -0.0471 -0.1012 -0.3561
  718MOL0     H94717   3.078   5.670   8.154  4.6169  2.6961 -1.3785
  718MOL0     H94718   2.991   5.696   8.301 -1.8690 -3.0877 -3.3947
  718MOL0     H94719   3.286   5.748   8.274  1.4683  2.0298  0.6662
  718MOL0     H94720   3.194   5.816   8.402 -0.4512 -0.2240 -1.3850
  718MOL0     H94721   3.335   5.576   8.422 -1.8888 -3.8994  1.9693
  718MOL0     H94722   3.189   5.514   8.350 -3.6227  1.2337 -1.7275
  718MOL0     H94723   3.046   5.570   8.528  0.1478  0.2602  0.7740
  718MOL0     H94724   3.162   5.691   8.586  0.7104 -1.3943  2.4760
  718MOL0     H94725   3.187   5.384   8.573  2.4432  0.4967 -3.0803
  718MOL0     H94726   3.327   5.477   8.610 -0.0148 -3.5085  0.0844
  718MOL0     H94727   3.090   5.435   8.782  0.1252 -1.4219  0.0822
  718MOL0     H94728   3.163   5.599   8.788 -2.0919  0.0679 -1.1087
  718MOL0     H94729   3.338   5.585   8.996  0.9649  1.6779 -1.9963
  718MOL0     H94730   3.541   5.465   9.190  0.3003 -0.2386 -1.2779
  718MOL0     H94731   3.560   5.291   9.162  0.8556  0.9436 -0.7994
  718MOL0     H94732   3.285   5.421   9.233  2.3557  3.5361 -0.5255
  718MOL0     H94733   3.393   5.359   9.355 -2.3461 -1.6558  0.2275
  718MOL0     H94734   3.285   5.195   9.126 -1.9192 -0.7366  0.6226
  718MOL0     H94735   3.390   5.133   9.257 -2.2188 -0.6387  1.0585
  718MOL0     H94736   3.149   5.078   9.288 -1.8778  0.2507 -0.2920
  718MOL0     H94737   3.122   5.259   9.302  1.5149  0.7066  0.3904
  718MOL0     H94738   3.111   4.924   9.442  1.0590  0.9320 -1.6641
  718MOL0     H94739   3.023   4.802   9.613  1.3309  0.0699  0.1376
  718MOL0     H94740   2.838   4.659   9.945  2.4546  3.1084  0.1902
  718MOL0     H94741   2.671   4.549  10.091  1.6268 -0.7640 -1.8105
  718MOL0     H94742   2.360   4.793  10.266  0.6765  2.0735  0.8605
  718MOL0     H94743   2.458   4.837  10.382 -0.6255  1.6654 -2.0456
  718MOL0     H94744   2.291   4.576  10.400  0.6136  0.2965 -0.4977
  718MOL0     H94745   2.293   4.724  10.503  0.9868  1.7015 -0.7393
  718MOL0     H94746   2.513   4.660  10.581 -2.2558  0.7665 -1.1209
  718MOL0     H94747   2.479   4.504  10.489 -0.4932 -1.4351  0.7849
  718MOL0     H94748   2.310   4.595  10.726  1.6427  0.2293  0.9071
  718MOL0     H94749   2.296   4.444  10.640 -1.7478  1.0466  0.8204
  718MOL0     H94750   2.532   4.558  10.815 -2.8719  1.6811  1.7488
  718MOL0     H94751   2.527   4.397  10.731  0.1205  0.9170 -2.2944
  718MOL0     H94752   2.330   4.331  10.893 -2.8374  1.1216  3.2014
  718MOL0     H94753   2.300   4.507  10.909  0.7697  1.0186  0.4663
  718MOL0     H94754   2.570   4.428  11.017  1.1044  0.8899 -3.3323
  718MOL0     H94755   2.461   4.558  11.038  1.7729 -0.1644  0.7784
  718MOL0     H94756   2.475   4.397  11.231  0.5046 -2.3503  0.4906
  718MOL0     H94757   2.413   4.272  11.128 -0.4364  0.0282  1.4292
  718MOL0     H94758   2.593   4.949  10.264  1.6970 -0.7277  3.1079
  718MOL0     H94759   2.747   5.038  10.119  3.3593  0.0663  1.6825
  718MOL0     H94760   3.077   5.133   9.878  1.0393  0.5078 -0.3431
  718MOL0     H94761   3.197   5.259   9.701  1.0379  0.7129 -2.2660
  718MOL0     H94762   2.713   6.021   8.034 -0.2645  1.1347  0.3790
  718MOL0     H94763   2.536   6.061   7.847 -0.3538 -1.4070 -1.5684
  718MOL0     H94764   2.295   5.752   7.486  3.3468  0.2612  0.2130
  718MOL0     H94765   2.091   5.797   7.350 -0.8006  1.2752 -2.2014
  718MOL0     H94766   1.931   5.857   7.181  1.9166 -3.2048 -2.4992
  718MOL0     H94767   2.087   5.860   7.094  1.8583  0.1071  2.0949
  718MOL0     H94768   1.868   5.896   6.958  0.7484  0.7811 -2.1004
  718MOL0     H94769   1.829   6.034   7.074  0.8632  0.1824  1.0406
  718MOL0     H94770   2.068   6.062   6.898  0.1014 -0.6532 -0.6236
  718MOL0     H94771   1.975   6.184   6.984 -1.9193 -0.9091  1.1903
  718MOL0     H94772   1.786   6.165   6.828 -0.8946  0.7946 -2.4903
  718MOL0     H94773   1.934   6.200   6.751  0.9447 -1.0981 -0.1045
  718MOL0     H94774   1.898   5.859   6.535 -0.0288  0.1205  0.2696
  718MOL0     H94775   2.246   6.196   7.277  2.6253  0.0689  1.8154
  718MOL0     H94776   2.428   6.148   7.417  0.3491 -0.4656  0.2412
  719MOL0     O94777   6.313   3.061   1.914 -0.6910 -0.4147 -0.9652
  719MOL0     C94778   6.299   3.089   1.797  0.1806  0.8860  0.0210
  719MOL0     O94779   6.223   3.020   1.712  0.0944 -0.0047 -0.2692
  719MOL0     C94780   6.141   2.932   1.753  0.4374  1.1825 -0.2930
  719MOL0     C94781   6.177   2.790   1.754 -0.0223  0.6910 -0.3765
  719MOL0     C94782   6.079   2.693   1.809  1.1382 -0.1961  0.7939
  719MOL0     C94783   5.949   2.737   1.844  0.0341  0.1661  0.5059
  719MOL0     O94784   5.857   2.636   1.852 -0.6641  0.7773 -0.1943
  719MOL0     C94785   5.720   2.675   1.846  0.1557 -0.0061 -0.2624
  719MOL0     C94786   5.626   2.555   1.851 -0.7837  0.1720  0.4940
  719MOL0     C94787   5.602   2.480   1.721 -0.7365  0.0630 -0.4509
  719MOL0     C94788   5.723   2.403   1.668 -0.4987  0.3913  0.3298
  719MOL0     C94789   5.691   2.280   1.575 -0.3065 -1.6327 -0.1850
  719MOL0     C94790   5.823   2.234   1.503  0.0717  0.6644 -0.1262
  719MOL0     C94791   5.775   2.115   1.412  0.5861 -0.1038 -0.3799
  719MOL0     C94792   5.903   2.051   1.358 -0.8021 -0.0306  0.5965
  719MOL0     N94793   5.879   1.928   1.278  0.6407  0.0123  0.7012
  719MOL0     C94794   5.864   1.797   1.322  0.9228  0.5285 -0.5791
  719MOL0     C94795   5.856   1.722   1.212  0.8140 -0.1179 -0.3450
  719MOL0     C94796   5.881   1.570   1.220  0.2805 -0.2733  0.2838
  719MOL0     C94797   5.745   1.508   1.265 -0.6861  0.5109  0.0956
  719MOL0     C94798   5.722   1.500   1.424 -0.1733 -0.4134  0.0838
  719MOL0     C94799   5.581   1.459   1.458  0.2024  0.0506 -0.2493
  719MOL0     O94800   5.471   1.518   1.391 -0.0343  0.6079  1.3070
  719MOL0     C94801   5.422   1.650   1.407  0.1953 -0.3198  0.0251
  719MOL0     C94802   5.471   1.744   1.508  0.0680  0.7157  0.2275
  719MOL0     C94803   5.434   1.877   1.506  0.9175 -1.2052  0.0146
  719MOL0     C94804   5.329   1.921   1.421  0.3248 -0.1302 -0.1674
  719MOL0     C94805   5.318   2.063   1.398  0.9543  0.5914  0.7985
  719MOL0     O94806   5.416   2.153   1.429 -0.7166  0.3766  0.2664
  719MOL0     C94807   5.380   2.292   1.421  0.1422  0.1746 -0.5457
  719MOL0     C94808   5.341   2.361   1.533 -0.6358  0.3325  0.1167
  719MOL0     C94809   5.287   2.487   1.525 -0.3038 -0.2707  1.1385
  719MOL0     C94810   5.279   2.552   1.394  0.3366  0.2677 -0.0215
  719MOL0     O94811   5.210   2.676   1.371 -1.0143  0.0827 -0.0920
  719MOL0     C94812   5.188   2.764   1.472 -0.4332  0.7409  0.1949
  719MOL0     C94813   5.305   2.850   1.508 -0.2667  0.4508  0.0693
  719MOL0     C94814   5.331   2.924   1.380  0.5596 -0.3442  0.4355
  719MOL0     C94815   5.447   3.024   1.402  0.9776 -0.3459 -1.0898
  719MOL0     C94816   5.414   3.137   1.511 -0.4368  0.8367 -0.7042
  719MOL0     C94817   5.467   3.120   1.659  0.4784 -0.2018  1.3725
  719MOL0     C94818   5.624   3.100   1.675  0.5397  0.0558  0.4381
  719MOL0     C94819   5.698   3.235   1.652 -0.5891  0.4842 -0.1747
  719MOL0    Cl94820   5.877   3.227   1.647 -0.2843 -0.2871 -0.1201
  719MOL0     C94821   5.307   2.475   1.277 -0.7949  0.3250 -0.1733
  719MOL0     C94822   5.357   2.345   1.298  0.7457 -0.3775 -0.0565
  719MOL0     O94823   5.199   2.090   1.363 -0.6865 -0.1319 -0.2321
  719MOL0     C94824   5.271   1.823   1.342  1.6435  0.0232  1.2199
  719MOL0     C94825   5.308   1.693   1.337 -0.6610 -0.5261  0.1817
  719MOL0     N94826   5.853   1.809   1.099  0.4778 -0.2605  0.4053
  719MOL0     N94827   5.872   1.935   1.139  0.8790  0.4061 -0.3627
  719MOL0     C94828   5.916   2.876   1.830  0.1016 -0.8809 -0.1335
  719MOL0     C94829   6.013   2.969   1.793 -0.0606  0.1248  0.5376
  719MOL0     C94830   6.367   3.210   1.745  0.0691  1.3056 -0.7462
  719MOL0     C94831   6.325   3.273   1.630  0.3617  0.5382 -0.4097
  719MOL0     C94832   6.407   3.381   1.571 -0.2780  0.0724 -0.2783
  719MOL0     C94833   6.528   3.415   1.635 -0.4230 -0.2875  0.2610
  719MOL0     O94834   6.611   3.511   1.583  0.1726 -0.3734  0.6114
  719MOL0     C94835   6.732   3.457   1.516 -1.0691 -0.7568 -0.8792
  719MOL0     C94836   6.845   3.523   1.588 -2.0278  0.0464 -1.0271
  719MOL0     C94837   6.978   3.431   1.585  1.0500  0.3070 -0.7817
  719MOL0     C94838   7.056   3.431   1.449  0.5769  0.1427 -0.6586
  719MOL0     C94839   7.016   3.309   1.368 -0.3547 -0.5436 -0.7564
  719MOL0     C94840   6.979   3.211   1.308  0.4290 -0.3118 -0.9040
  719MOL0     C94841   6.563   3.348   1.754  0.1234 -0.4870 -0.5398
  719MOL0     C94842   6.491   3.243   1.808 -0.7945 -0.6409 -0.8136
  719MOL0     H94843   6.278   2.770   1.722  1.0022  3.3026  0.8655
  719MOL0     H94844   6.103   2.587   1.814 -0.6738 -0.6953 -0.1824
  719MOL0     H94845   5.707   2.732   1.754  0.3413 -0.5113 -0.6110
  719MOL0     H94846   5.703   2.750   1.924  3.4029  1.1791 -0.5319
  719MOL0     H94847   5.522   2.578   1.876 -0.7399  0.1007  0.7507
  719MOL0     H94848   5.657   2.495   1.937  1.7713  0.6186 -0.0479
  719MOL0     H94849   5.579   2.558   1.647 -3.6693 -0.2249  0.0682
  719MOL0     H94850   5.524   2.410   1.751 -2.9759  2.8231  0.5613
  719MOL0     H94851   5.806   2.453   1.617  0.8125 -2.8777 -0.9899
  719MOL0     H94852   5.768   2.352   1.754  1.2644 -0.8112 -1.2373
  719MOL0     H94853   5.629   2.323   1.497 -0.7683  2.5927  2.2159
  719MOL0     H94854   5.633   2.196   1.614 -0.9928 -1.1931 -0.2496
  719MOL0     H94855   5.894   2.194   1.576 -1.0542 -1.3729 -0.0856
  719MOL0     H94856   5.866   2.312   1.440 -0.7206 -0.7860 -2.6011
  719MOL0     H94857   5.723   2.038   1.470  0.4785  1.2335  1.3766
  719MOL0     H94858   5.710   2.162   1.337 -2.2694  3.5742  3.8665
  719MOL0     H94859   5.973   2.023   1.437 -0.1141  0.1965  0.0798
  719MOL0     H94860   5.960   2.119   1.294  0.1481 -2.0556 -0.8426
  719MOL0     H94861   5.886   1.774   1.425  0.1837  0.9184 -0.3212
  719MOL0     H94862   5.964   1.558   1.290  1.3668  1.6039 -0.6248
  719MOL0     H94863   5.906   1.532   1.120  0.4943 -3.9587  1.5749
  719MOL0     H94864   5.748   1.411   1.214 -3.1827 -0.0176  0.8425
  719MOL0     H94865   5.670   1.559   1.204  2.9191  1.7313 -3.8342
  719MOL0     H94866   5.787   1.431   1.479  1.1865  1.4774  1.0009
  719MOL0     H94867   5.750   1.595   1.471  3.4978 -1.8364  1.1518
  719MOL0     H94868   5.563   1.485   1.563 -2.6078  2.8430 -1.2625
  719MOL0     H94869   5.573   1.352   1.435  0.3283  0.2511 -1.2575
  719MOL0     H94870   5.544   1.723   1.585 -1.6160 -0.9942  1.4586
  719MOL0     H94871   5.482   1.940   1.580 -3.6477 -0.5160  2.7773
  719MOL0     H94872   5.348   2.314   1.631 -2.6652  1.5142  0.8823
  719MOL0     H94873   5.244   2.510   1.622 -3.1434 -1.9431  0.4067
  719MOL0     H94874   5.165   2.709   1.563 -2.8571 -2.0146 -1.9185
  719MOL0     H94875   5.103   2.831   1.456  0.2749  0.9786 -3.4916
  719MOL0     H94876   5.393   2.789   1.533 -0.7076  0.4699  1.8147
  719MOL0     H94877   5.283   2.922   1.588 -0.2564  1.8111 -1.1047
  719MOL0     H94878   5.234   2.966   1.351  1.0824 -0.1353 -1.0674
  719MOL0     H94879   5.368   2.861   1.299  3.4102  1.3338  0.2778
  719MOL0     H94880   5.539   2.973   1.431  1.1850  1.2453  1.3555
  719MOL0     H94881   5.463   3.076   1.306  1.9765  2.9516  0.7034
  719MOL0     H94882   5.310   3.167   1.531  0.1322  1.4333  1.7659
  719MOL0     H94883   5.457   3.232   1.477  0.2246  0.3200 -1.3379
  719MOL0     H94884   5.408   3.051   1.720  0.7814 -1.4211  0.3206
  719MOL0     H94885   5.443   3.215   1.709  1.6297 -0.2108  1.9774
  719MOL0     H94886   5.651   3.067   1.776  0.2599  0.0905  0.5279
  719MOL0     H94887   5.658   3.025   1.603  0.7552  1.7696 -1.3183
  719MOL0     H94888   5.673   3.288   1.745  1.5984  0.2104  0.6366
  719MOL0     H94889   5.663   3.294   1.567  0.3856 -1.3744 -1.9733
  719MOL0     H94890   5.306   2.509   1.174  2.1606 -1.3044 -0.8647
  719MOL0     H94891   5.394   2.278   1.221  0.6290 -1.9421  1.2035
  719MOL0     H94892   5.189   1.852   1.277  2.8539 -1.8345 -1.2813
  719MOL0     H94893   5.257   1.632   1.263  1.3077  0.9502 -2.5847
  719MOL0     H94894   5.821   2.922   1.852  0.1745 -0.4180 -0.7673
  719MOL0     H94895   5.993   3.076   1.792 -0.2573  0.0933 -0.8743
  719MOL0     H94896   6.235   3.232   1.587 -0.5786  0.4561  1.5336
  719MOL0     H94897   6.382   3.436   1.481 -1.3316 -2.9912 -1.9963
  719MOL0     H94898   6.737   3.481   1.410  0.4249 -3.0039 -1.3844
  719MOL0     H94899   6.729   3.350   1.537 -2.9638 -0.4197  0.9338
  719MOL0     H94900   6.864   3.628   1.566 -0.9532 -0.5060 -2.9182
  719MOL0     H94901   6.820   3.516   1.695  0.6331  1.4251 -0.2169
  719MOL0     H94902   6.923   3.341   1.614  2.5270 -1.0556 -2.0005
  719MOL0     H94903   7.047   3.460   1.665 -1.5142 -1.8856  2.5355
  719MOL0     H94904   7.042   3.526   1.396  2.6247  0.7262 -0.2477
  719MOL0     H94905   7.165   3.436   1.460  0.7024 -2.0527 -0.4652
  719MOL0     H94906   6.955   3.116   1.265 -2.4409 -1.6282  2.9420
  719MOL0     H94907   6.657   3.386   1.793 -1.5154  2.2223  1.0865
  719MOL0     H94908   6.527   3.187   1.894 -0.9137  2.4409  1.4058
  720MOL0     O94909   4.461   2.514   0.909  0.1169  0.2254 -0.3994
  720MOL0     C94910   4.454   2.601   1.002  0.7125 -0.6037  1.1983
  720MOL0     O94911   4.377   2.579   1.112 -0.1159  0.2812  0.7717
  720MOL0     C94912   4.332   2.460   1.144 -0.3266 -0.2289  0.4345
  720MOL0     C94913   4.198   2.460   1.194  0.1712  0.9635 -0.4816
  720MOL0     C94914   4.139   2.345   1.245 -0.5301 -0.5457  0.6530
  720MOL0     C94915   4.213   2.233   1.269 -0.0680 -0.0641 -0.3705
  720MOL0     O94916   4.147   2.127   1.333 -0.0028  0.1750 -0.0964
  720MOL0     C94917   4.206   1.996   1.333  0.1751 -0.7261  0.4394
  720MOL0     C94918   4.098   1.880   1.343 -0.2152 -0.1498 -0.2496
  720MOL0     C94919   4.011   1.904   1.223 -0.4240 -0.5717 -1.0059
  720MOL0     C94920   3.888   1.816   1.236 -0.1244  0.4608  0.5117
  720MOL0     C94921   3.921   1.676   1.233  0.3088 -0.0933  0.4940
  720MOL0     C94922   3.816   1.586   1.177 -0.7911  0.6670  0.8814
  720MOL0     C94923   3.844   1.441   1.216 -0.4832 -0.7828 -0.3707
  720MOL0     C94924   3.774   1.338   1.130 -0.5014 -0.4792 -0.1606
  720MOL0     N94925   3.626   1.336   1.134  0.2553  0.0200 -0.0401
  720MOL0     C94926   3.546   1.271   1.223  0.3548  0.1589 -0.2449
  720MOL0     C94927   3.417   1.280   1.176  0.0867  0.1616 -0.4565
  720MOL0     C94928   3.300   1.206   1.244  0.4312  0.0023 -0.7809
  720MOL0     C94929   3.208   1.129   1.139 -0.3127 -0.2631 -0.4792
  720MOL0     C94930   3.077   1.075   1.202  0.2086 -0.0947 -0.6524
  720MOL0     C94931   3.027   0.956   1.125 -0.6334  0.9717  0.2346
  720MOL0     O94932   2.982   0.980   0.993 -0.0916  0.2130  0.2962
  720MOL0     C94933   2.859   1.022   0.964 -0.0333 -0.4999  1.0859
  720MOL0     C94934   2.839   1.049   0.828 -0.4262 -0.1886 -0.3295
  720MOL0     C94935   2.732   1.127   0.788  0.8539 -1.3927 -0.6763
  720MOL0     C94936   2.631   1.167   0.878 -0.2324  0.6134  0.7002
  720MOL0     C94937   2.517   1.246   0.834  1.4803  0.2747  0.2715
  720MOL0     O94938   2.407   1.259   0.910  0.1041 -0.9337  0.1049
  720MOL0     C94939   2.300   1.340   0.874  0.0093  0.6509  0.4741
  720MOL0     C94940   2.196   1.342   0.968  0.2025 -0.6502  0.6646
  720MOL0     C94941   2.082   1.411   0.947 -0.2491 -0.1802 -0.6646
  720MOL0     C94942   2.061   1.487   0.826  0.1638  0.6280 -0.5196
  720MOL0     O94943   1.956   1.566   0.806  0.5937  0.5148 -0.6051
  720MOL0     C94944   1.867   1.590   0.918  0.4456  0.7003 -0.1140
  720MOL0     C94945   1.770   1.702   0.907  0.2539  0.7791 -0.4753
  720MOL0     C94946   1.674   1.686   0.793 -0.5531  1.1449  0.3876
  720MOL0     C94947   1.534   1.756   0.822 -0.5715  0.6044 -0.5215
  720MOL0     C94948   1.529   1.912   0.795  0.2532 -0.1030 -0.8947
  720MOL0     C94949   1.554   1.939   0.655 -0.0761  0.2792  0.0816
  720MOL0     C94950   1.557   2.092   0.620  0.2584 -0.3788  0.1497
  720MOL0     C94951   1.610   2.113   0.478  1.2138 -0.6528 -0.0288
  720MOL0    Cl94952   1.488   2.041   0.370  0.0047 -0.1684  0.3581
  720MOL0     C94953   2.156   1.475   0.727 -0.5417  0.1202  0.1621
  720MOL0     C94954   2.283   1.412   0.752  0.0984 -0.0680  0.2590
  720MOL0     O94955   2.531   1.293   0.720  0.7392 -0.0130  0.6095
  720MOL0     C94956   2.647   1.132   1.014  0.5759 -0.4213  0.1023
  720MOL0     C94957   2.759   1.061   1.058 -0.1982  0.2200 -0.6793
  720MOL0     N94958   3.418   1.372   1.066  0.4266  0.4431 -1.0746
  720MOL0     N94959   3.543   1.406   1.046  0.1731  0.6853  0.8205
  720MOL0     C94960   4.348   2.235   1.224 -0.7639 -0.1500  0.6791
  720MOL0     C94961   4.404   2.342   1.163 -0.4898 -1.2360  0.2440
  720MOL0     C94962   4.510   2.738   0.970 -0.6016  0.3086  0.2419
  720MOL0     C94963   4.497   2.842   1.061 -0.3057 -0.1310 -0.2585
  720MOL0     C94964   4.532   2.973   1.026  0.1172 -0.5888 -0.0307
  720MOL0     C94965   4.589   2.999   0.901 -0.4967  0.3057 -0.0106
  720MOL0     O94966   4.623   3.123   0.850  0.2847  0.2723  0.0996
  720MOL0     C94967   4.584   3.240   0.927 -0.1986  0.0713  0.4840
  720MOL0     C94968   4.440   3.291   0.928  0.9337 -0.6957  0.9375
  720MOL0     C94969   4.433   3.435   0.988 -0.2179  0.0224 -1.0692
  720MOL0     C94970   4.292   3.492   0.964 -1.0650 -0.6347 -0.3675
  720MOL0     C94971   4.196   3.462   1.069  0.5752  0.1255  0.0266
  720MOL0     C94972   4.123   3.450   1.166 -0.0149 -0.8145 -0.1877
  720MOL0     C94973   4.618   2.890   0.813 -0.2747 -0.6178  0.0047
  720MOL0     C94974   4.575   2.762   0.849 -0.5278 -0.1178 -0.1192
  720MOL0     H94975   4.144   2.553   1.184  4.8368  3.9199 -1.3533
  720MOL0     H94976   4.034   2.357   1.272  0.3600  0.8776  3.9277
  720MOL0     H94977   4.273   2.002   1.420  0.7660 -0.0576 -0.0495
  720MOL0     H94978   4.264   1.976   1.242  2.4771 -1.1169  1.9099
  720MOL0     H94979   4.041   1.897   1.435  1.5040 -2.2744  1.3205
  720MOL0     H94980   4.160   1.790   1.337  4.0717  2.4989 -5.1935
  720MOL0     H94981   4.076   1.880   1.139  0.8274  2.0790 -0.8726
  720MOL0     H94982   3.973   2.005   1.208  0.0390  0.2825  2.5987
  720MOL0     H94983   3.833   1.832   1.329 -0.2510 -0.7268  0.6469
  720MOL0     H94984   3.825   1.843   1.150  0.9084 -0.2404 -0.4822
  720MOL0     H94985   3.953   1.649   1.334  0.7799 -0.9361  0.1382
  720MOL0     H94986   4.012   1.662   1.173 -1.2794  1.9549 -2.7170
  720MOL0     H94987   3.810   1.609   1.070  1.5519 -4.3626 -0.6326
  720MOL0     H94988   3.714   1.604   1.212 -1.9996  0.4228 -2.2427
  720MOL0     H94989   3.952   1.424   1.208  0.2738  3.1138 -0.0413
  720MOL0     H94990   3.805   1.420   1.316  0.6800 -0.8078  0.0939
  720MOL0     H94991   3.816   1.240   1.157  0.4008 -0.1235 -0.2346
  720MOL0     H94992   3.802   1.362   1.027 -1.0081  0.2379 -0.1353
  720MOL0     H94993   3.582   1.213   1.308 -1.7708 -0.5641  0.2133
  720MOL0     H94994   3.231   1.276   1.293 -1.9182  0.3257 -4.1742
  720MOL0     H94995   3.330   1.145   1.330  1.7578 -0.2808 -1.4270
  720MOL0     H94996   3.274   1.045   1.114 -0.7730 -0.5891 -0.6207
  720MOL0     H94997   3.185   1.195   1.056 -1.2171  0.4928  0.3413
  720MOL0     H94998   3.080   1.050   1.308  1.3482  2.0205 -0.1208
  720MOL0     H94999   3.003   1.153   1.185  1.5883  1.3199 -0.4100
  720MOL0     H95000   2.940   0.922   1.181 -0.9775 -0.8118 -1.2862
  720MOL0     H95001   3.107   0.882   1.121  0.0007  1.7006 -1.1221
  720MOL0     H95002   2.917   1.008   0.765  0.8576 -2.7099  2.5851
  720MOL0     H95003   2.729   1.141   0.681  3.6757 -5.1158 -1.4454
  720MOL0     H95004   2.205   1.282   1.058  0.3939 -0.0260  1.0591
  720MOL0     H95005   2.009   1.408   1.027  1.9034  0.1836  1.4360
  720MOL0     H95006   1.922   1.623   1.007 -0.7739 -0.2371  1.0386
  720MOL0     H95007   1.810   1.504   0.954 -0.4966  1.6446  0.7310
  720MOL0     H95008   1.821   1.798   0.891  1.2719 -0.0158 -2.2135
  720MOL0     H95009   1.715   1.708   1.002  2.1160  0.3296  0.6792
  720MOL0     H95010   1.662   1.578   0.777  2.0370  1.3118 -5.3591
  720MOL0     H95011   1.720   1.712   0.697 -0.4853 -4.8032 -1.6251
  720MOL0     H95012   1.449   1.697   0.789 -1.4933  0.6059  1.6916
  720MOL0     H95013   1.521   1.764   0.931  1.0214  1.1959 -0.3448
  720MOL0     H95014   1.607   1.962   0.854  0.8324 -0.9115 -0.9501
  720MOL0     H95015   1.427   1.937   0.825 -0.0175  2.6617 -3.6098
  720MOL0     H95016   1.479   1.894   0.589 -0.0199  0.6173 -0.2163
  720MOL0     H95017   1.646   1.889   0.625  0.4625  0.5814  1.1638
  720MOL0     H95018   1.452   2.122   0.630 -0.2318 -2.2863  1.3166
  720MOL0     H95019   1.604   2.154   0.697  1.5841 -1.3914  0.2066
  720MOL0     H95020   1.708   2.065   0.471  0.9746 -1.3603  1.1844
  720MOL0     H95021   1.610   2.219   0.452 -1.0395 -1.0325 -1.9388
  720MOL0     H95022   2.155   1.534   0.636  4.1755 -0.4954 -0.5561
  720MOL0     H95023   2.347   1.431   0.666 -2.9890  0.8746 -2.0163
  720MOL0     H95024   2.568   1.150   1.086  0.6532  0.6602 -0.0621
  720MOL0     H95025   2.765   1.041   1.164 -2.7371 -0.3532 -0.5781
  720MOL0     H95026   4.406   2.144   1.235 -1.8797 -1.0466 -0.5036
  720MOL0     H95027   4.507   2.341   1.128 -0.6047  1.0407 -0.3706
  720MOL0     H95028   4.447   2.831   1.156  0.4872 -2.1039 -0.0275
  720MOL0     H95029   4.500   3.049   1.096 -0.2824 -2.4668  1.9232
  720MOL0     H95030   4.629   3.324   0.874 -0.1054 -0.2898 -0.0186
  720MOL0     H95031   4.623   3.244   1.029  2.1779  1.0093 -0.3730
  720MOL0     H95032   4.405   3.304   0.825  3.8475 -0.6888 -0.1392
  720MOL0     H95033   4.367   3.229   0.981 -2.3770  0.6763 -1.6117
  720MOL0     H95034   4.502   3.497   0.931  2.0475 -1.4519 -0.0683
  720MOL0     H95035   4.469   3.438   1.092  3.7697 -0.3382 -2.2638
  720MOL0     H95036   4.311   3.600   0.962  2.4679 -1.1481 -0.1810
  720MOL0     H95037   4.257   3.471   0.862 -0.5523  1.8732 -1.1221
  720MOL0     H95038   4.059   3.444   1.252 -3.4819  2.3635 -2.2325
  720MOL0     H95039   4.674   2.895   0.720  2.6524 -0.2362  1.6817
  720MOL0     H95040   4.608   2.690   0.774  2.5201  0.1579  0.8523
  721MOL0     O95041   3.801   7.471   9.386  0.2608 -0.0020 -0.5883
  721MOL0     C95042   3.917   7.506   9.356 -0.5149 -0.7871 -0.0063
  721MOL0     O95043   3.950   7.622   9.295  0.1371 -0.4877 -0.0400
  721MOL0     C95044   3.845   7.683   9.232  0.8819  0.7548 -0.8993
  721MOL0     C95045   3.768   7.625   9.129  0.9689  0.4150 -0.6078
  721MOL0     C95046   3.653   7.685   9.070 -0.6377 -0.2359  0.3079
  721MOL0     C95047   3.633   7.818   9.105  0.5357 -0.3067 -0.1478
  721MOL0     O95048   3.553   7.905   9.046  0.2865  0.2801  0.7177
  721MOL0     C95049   3.458   7.881   8.939  0.4088 -0.1657  0.4519
  721MOL0     C95050   3.345   7.983   8.919 -0.2738 -0.3921  0.5339
  721MOL0     C95051   3.242   7.990   9.042 -0.3275 -0.2846  0.0709
  721MOL0     C95052   3.150   8.107   9.020  0.2025 -0.0680  0.1399
  721MOL0     C95053   3.036   8.117   9.123  0.3749 -0.4228 -0.1230
  721MOL0     C95054   2.903   8.068   9.075  0.2135  0.2935 -0.2521
  721MOL0     C95055   2.782   8.112   9.157  0.1830  0.3509 -0.5231
  721MOL0     C95056   2.734   8.255   9.136 -0.1683 -0.1530  0.5105
  721MOL0     N95057   2.636   8.298   9.239  0.6335 -0.0840 -1.6977
  721MOL0     C95058   2.626   8.427   9.286 -0.2930 -0.9590 -0.0497
  721MOL0     C95059   2.547   8.421   9.399  0.5466 -0.8318  0.3413
  721MOL0     C95060   2.516   8.533   9.490  0.2637 -0.5462  0.3265
  721MOL0     C95061   2.566   8.533   9.630 -0.6302  0.8923  0.1655
  721MOL0     C95062   2.487   8.461   9.740  1.1279  0.2273  0.1318
  721MOL0     C95063   2.538   8.477   9.892  0.2168  0.4983  0.5238
  721MOL0     O95064   2.669   8.427   9.897 -0.0853 -0.3815 -0.6901
  721MOL0     C95065   2.707   8.313   9.957  0.3771 -0.0743 -0.0519
  721MOL0     C95066   2.846   8.291   9.956  0.3279  0.2384 -0.3916
  721MOL0     C95067   2.900   8.175  10.010  0.7453 -0.6127  0.5286
  721MOL0     C95068   2.818   8.082  10.075 -0.7515  0.0201 -0.1611
  721MOL0     C95069   2.887   7.980  10.162  0.1118  1.2672 -0.3051
  721MOL0     O95070   3.033   8.001  10.183  0.3192  0.4951  0.1770
  721MOL0     C95071   3.110   7.904  10.251  0.5135 -0.5123  0.4254
  721MOL0     C95072   3.223   7.951  10.317  0.3903 -0.1773 -0.5494
  721MOL0     C95073   3.311   7.861  10.387  0.7090 -0.6031 -0.5530
  721MOL0     C95074   3.282   7.722  10.405  0.7814  0.0857  0.8649
  721MOL0     O95075   3.360   7.628  10.473  0.5010  0.3983  0.5146
  721MOL0     C95076   3.499   7.655  10.488 -0.1019  1.3884 -0.3126
  721MOL0     C95077   3.553   7.545  10.593 -1.0630  0.1581 -0.6386
  721MOL0     C95078   3.700   7.538  10.626 -0.1269 -0.6584 -0.5009
  721MOL0     C95079   3.760   7.399  10.655  0.1574  0.5935  0.0877
  721MOL0     C95080   3.904   7.399  10.636  0.4617  0.8592  0.5453
  721MOL0     C95081   3.976   7.451  10.758 -0.2005  0.6490 -1.0681
  721MOL0     C95082   4.126   7.454  10.722 -0.4557 -0.2471  0.2769
  721MOL0     C95083   4.205   7.513  10.840 -0.0020 -1.0795 -0.0451
  721MOL0    Cl95084   4.366   7.558  10.805  0.0659  0.1274  0.3323
  721MOL0     C95085   3.176   7.675  10.336  1.8827  0.5689 -0.1185
  721MOL0     C95086   3.087   7.766  10.257  0.3934  1.0733  0.6863
  721MOL0     O95087   2.814   7.888  10.209  0.0480 -0.4830  0.0279
  721MOL0     C95088   2.680   8.114  10.082 -0.9869  0.0054  0.0389
  721MOL0     C95089   2.627   8.226  10.020  1.3368  0.7497 -0.1398
  721MOL0     N95090   2.509   8.291   9.416  0.2262  0.1083 -0.0672
  721MOL0     N95091   2.564   8.218   9.321 -0.6371 -0.0590 -0.1496
  721MOL0     C95092   3.703   7.881   9.207 -0.4967  0.9233  0.0626
  721MOL0     C95093   3.804   7.818   9.271 -0.3000  0.2977  0.4271
  721MOL0     C95094   4.031   7.426   9.403  0.9403  0.0178  0.0499
  721MOL0     C95095   4.013   7.302   9.462 -0.0667 -0.2369  0.1905
  721MOL0     C95096   4.115   7.213   9.483  0.7938 -0.1480 -0.5031
  721MOL0     C95097   4.250   7.250   9.450 -0.3506  0.6649 -0.1639
  721MOL0     O95098   4.368   7.169   9.463 -0.3517  0.1707 -0.1341
  721MOL0     C95099   4.362   7.040   9.502  0.3511  0.4491  0.3672
  721MOL0     C95100   4.506   6.984   9.529 -0.5376  0.1364 -1.0384
  721MOL0     C95101   4.579   7.054   9.646  0.2136  1.2631  1.2161
  721MOL0     C95102   4.655   7.173   9.575  0.9629  0.6548  0.8825
  721MOL0     C95103   4.771   7.218   9.653  1.6477  0.3029 -0.0701
  721MOL0     C95104   4.865   7.218   9.727 -0.0484 -1.0438 -0.5497
  721MOL0     C95105   4.272   7.372   9.401  0.1303  1.0571 -0.4765
  721MOL0     C95106   4.164   7.461   9.374  0.1679  0.1668  0.0639
  721MOL0     H95107   3.796   7.524   9.100 -3.7365 -2.0737  2.1607
  721MOL0     H95108   3.603   7.624   8.995  3.2051 -1.0764 -1.7935
  721MOL0     H95109   3.417   7.784   8.971  2.7619 -1.6517 -0.7545
  721MOL0     H95110   3.517   7.861   8.849  0.0233 -3.7069  0.8138
  721MOL0     H95111   3.298   7.948   8.827 -0.8260 -1.0399  1.0471
  721MOL0     H95112   3.373   8.086   8.894  0.2045 -0.6784 -0.1109
  721MOL0     H95113   3.294   7.999   9.137 -1.2440  3.9034  0.3599
  721MOL0     H95114   3.192   7.893   9.039  3.8373 -2.6560 -0.9364
  721MOL0     H95115   3.208   8.199   9.032  0.5261 -0.3409  0.7002
  721MOL0     H95116   3.101   8.084   8.925 -0.8099  0.0171  0.6287
  721MOL0     H95117   3.030   8.226   9.129  1.5704 -0.3481 -0.0297
  721MOL0     H95118   3.073   8.089   9.222  2.4307 -2.3002 -1.3487
  721MOL0     H95119   2.905   7.961   9.093 -2.0062  0.5501  2.2499
  721MOL0     H95120   2.886   8.071   8.967  2.8527 -3.6603 -0.9511
  721MOL0     H95121   2.707   8.049   9.109 -0.0879 -0.2547  0.6641
  721MOL0     H95122   2.800   8.100   9.264 -1.0282 -1.7931 -0.5191
  721MOL0     H95123   2.681   8.266   9.041 -0.9255  0.5719  1.0008
  721MOL0     H95124   2.819   8.322   9.125  0.4061 -0.3501  3.0995
  721MOL0     H95125   2.671   8.517   9.245 -0.6800 -1.2127 -1.0391
  721MOL0     H95126   2.408   8.536   9.501  0.3430  0.4678  0.9371
  721MOL0     H95127   2.557   8.624   9.444  1.0923 -2.3972 -2.8720
  721MOL0     H95128   2.565   8.636   9.667  1.2481  2.0174 -2.5508
  721MOL0     H95129   2.673   8.507   9.627 -0.5452  1.3272 -1.1262
  721MOL0     H95130   2.386   8.501   9.729  0.3488 -1.8603 -0.9188
  721MOL0     H95131   2.476   8.356   9.710  0.2630  0.2405  0.3602
  721MOL0     H95132   2.469   8.422   9.957  2.1469  0.0331  2.2773
  721MOL0     H95133   2.531   8.579   9.932 -2.8363 -0.0973  1.8342
  721MOL0     H95134   2.914   8.366   9.917  1.6676 -0.2913  0.8004
  721MOL0     H95135   3.008   8.165  10.012  0.6857 -1.1016  2.1891
  721MOL0     H95136   3.261   8.051  10.297 -0.1199  0.3035  0.8090
  721MOL0     H95137   3.408   7.903  10.414  0.0079 -0.0876  1.3130
  721MOL0     H95138   3.537   7.755  10.511  0.4522  0.8612  1.2217
  721MOL0     H95139   3.548   7.639  10.392 -1.1400  1.5765 -0.8976
  721MOL0     H95140   3.522   7.451  10.545 -1.6919  1.9126 -3.9905
  721MOL0     H95141   3.500   7.549  10.688  3.7884 -1.9906  2.5595
  721MOL0     H95142   3.723   7.607  10.708 -3.1358  0.2768 -0.3071
  721MOL0     H95143   3.750   7.579  10.539  0.9574 -0.9483 -0.0324
  721MOL0     H95144   3.728   7.353  10.750  0.8343  2.1655  1.1137
  721MOL0     H95145   3.709   7.331  10.586 -2.4762  1.0458  1.4318
  721MOL0     H95146   3.931   7.451  10.543  0.4435 -0.3262 -0.1388
  721MOL0     H95147   3.928   7.293  10.622  0.0668  1.1204 -3.2268
  721MOL0     H95148   3.965   7.379  10.840 -0.6616  1.6478 -0.2355
  721MOL0     H95149   3.935   7.544  10.796 -1.3256  0.1339 -0.9775
  721MOL0     H95150   4.155   7.351  10.701 -0.1401 -0.8971  3.3722
  721MOL0     H95151   4.136   7.522  10.637 -2.2981 -1.8801 -1.3625
  721MOL0     H95152   4.202   7.443  10.924  2.2751  0.3215  1.2811
  721MOL0     H95153   4.154   7.601  10.879  2.6157 -0.0085  1.2034
  721MOL0     H95154   3.153   7.569  10.339 -0.8214  1.1124  0.7394
  721MOL0     H95155   3.005   7.704  10.223  0.4434 -0.5941  3.2649
  721MOL0     H95156   2.623   8.036  10.133 -0.8129 -0.3508 -0.3054
  721MOL0     H95157   2.520   8.239  10.017  1.3282  0.5082 -1.2160
  721MOL0     H95158   3.673   7.983   9.231 -2.1750  0.2017  1.2545
  721MOL0     H95159   3.860   7.868   9.349 -0.0344 -1.3067  1.3090
  721MOL0     H95160   3.915   7.272   9.500 -0.5690  0.4152 -0.5552
  721MOL0     H95161   4.084   7.117   9.523 -2.2587  1.6802  2.0211
  721MOL0     H95162   4.316   6.978   9.425  2.1498  0.1100 -0.4911
  721MOL0     H95163   4.305   7.028   9.594 -2.9745  0.5579 -1.5391
  721MOL0     H95164   4.498   6.879   9.557  3.9804  0.5381  2.8342
  721MOL0     H95165   4.561   6.998   9.436  2.3291  5.0172  1.0165
  721MOL0     H95166   4.660   6.986   9.675 -1.4332 -2.6778 -2.3313
  721MOL0     H95167   4.519   7.080   9.734 -0.8126 -1.8491  1.5893
  721MOL0     H95168   4.691   7.145   9.476 -1.0969 -0.6512  0.4270
  721MOL0     H95169   4.580   7.246   9.543 -0.7550 -1.5892 -0.5209
  721MOL0     H95170   4.951   7.216   9.791  1.0746  1.8499 -1.7746
  721MOL0     H95171   4.375   7.404   9.386  1.2909 -0.9291  2.4953
  721MOL0     H95172   4.170   7.560   9.330  0.4057  0.3666  0.5366
  722MOL0     O95173  10.558   6.398   4.450  0.1764 -0.1996  0.9334
  722MOL0     C95174  10.643   6.388   4.545  0.5496 -0.3374  0.3056
  722MOL0     O95175  10.646   6.287   4.637  0.4530 -0.0817  0.6592
  722MOL0     C95176  10.534   6.203   4.631 -0.3948  0.3912  0.6035
  722MOL0     C95177  10.430   6.227   4.718  0.5950 -0.5621  0.9790
  722MOL0     C95178  10.323   6.131   4.712  0.1804  0.5554 -0.8087
  722MOL0     C95179  10.329   6.016   4.633  0.1417 -0.2472  0.1123
  722MOL0     O95180  10.224   5.927   4.636 -0.0296  0.1874 -0.4039
  722MOL0     C95181  10.261   5.790   4.645 -0.1834  0.0393  0.0014
  722MOL0     C95182  10.129   5.715   4.648  0.2586 -0.4944 -0.0025
  722MOL0     C95183  10.013   5.740   4.541  0.2430  0.7660 -0.4360
  722MOL0     C95184  10.053   5.781   4.390 -0.6470  0.5659  0.1071
  722MOL0     C95185   9.939   5.773   4.280  0.2785 -0.5726  1.0502
  722MOL0     C95186  10.005   5.756   4.151  0.1839 -0.1898  0.9143
  722MOL0     C95187   9.925   5.795   4.012 -0.0248 -1.2514  0.4373
  722MOL0     C95188   9.811   5.908   4.009  0.1831 -0.6763 -0.9132
  722MOL0     N95189   9.869   6.026   4.078  0.2560 -0.5708  0.0490
  722MOL0     C95190   9.809   6.093   4.187  0.2996  0.1052  0.0716
  722MOL0     C95191   9.896   6.199   4.196  0.2185  0.3002 -0.8183
  722MOL0     C95192   9.891   6.322   4.279 -0.5574  0.4407 -0.8016
  722MOL0     C95193   9.970   6.292   4.411 -0.7639 -0.5755 -0.0576
  722MOL0     C95194  10.127   6.278   4.404 -0.4140  0.2088 -0.7830
  722MOL0     C95195  10.205   6.375   4.322 -0.5298  0.3684 -0.5647
  722MOL0     O95196  10.174   6.510   4.372 -0.3865 -0.3145  0.6273
  722MOL0     C95197  10.270   6.610   4.346  0.6907  0.6553  0.7685
  722MOL0     C95198  10.358   6.597   4.247 -1.0398 -0.7473  0.0814
  722MOL0     C95199  10.448   6.714   4.228  0.3303 -0.1678 -0.4021
  722MOL0     C95200  10.445   6.822   4.309 -0.0635  0.2406 -0.9449
  722MOL0     C95201  10.545   6.929   4.290 -0.4563  0.0321  0.6835
  722MOL0     O95202  10.521   7.035   4.388 -0.3132  0.6416 -0.2329
  722MOL0     C95203  10.634   7.105   4.403 -0.2200 -0.3372 -1.1927
  722MOL0     C95204  10.745   7.187   4.242 -0.6871 -0.1551  0.8319
  722MOL0     C95205  10.932   7.284   4.278 -0.0534 -0.0480 -0.0563
  722MOL0     C95206  11.003   7.301   4.472 -0.3419  0.5994  0.2137
  722MOL0     O95207  11.112   7.373   4.509 -0.1401 -0.5708  0.1158
  722MOL0     C95208  11.170   7.443   4.397  0.1962  0.2966  0.0524
  722MOL0     C95209  11.305   7.478   4.433  0.7263  0.4382 -0.5401
  722MOL0     C95210  11.394   7.353   4.456 -0.7348  0.3983  0.6312
  722MOL0     C95211  11.476   7.321   4.330  0.4731  0.7817 -0.1452
  722MOL0     C95212  11.595   7.404   4.323 -0.6658 -0.6276  0.0608
  722MOL0     C95213  11.669   7.387   4.186 -0.2136  0.5558  0.4738
  722MOL0     C95214  11.798   7.468   4.150 -0.4416 -0.7588 -0.0646
  722MOL0     C95215  11.906   7.481   4.264  0.2523 -0.5239 -0.7589
  722MOL0    Cl95216  12.017   7.605   4.205 -0.1919  0.1147  0.0785
  722MOL0     C95217  10.895   7.224   4.634 -0.0675  0.4073  0.5464
  722MOL0     C95218  10.712   7.124   4.602 -0.9175 -0.1443 -0.5384
  722MOL0     O95219  10.636   6.930   4.203 -0.2649 -0.4961 -0.3558
  722MOL0     C95220  10.351   6.824   4.412  0.2552 -0.4770 -0.1894
  722MOL0     C95221  10.263   6.721   4.433  0.6683 -0.1329 -0.1420
  722MOL0     N95222  10.000   6.178   4.119 -0.0596  1.2457  0.5614
  722MOL0     N95223   9.991   6.080   4.037  0.1681 -0.4953  0.3312
  722MOL0     C95224  10.434   5.990   4.546  0.6608 -0.1562  0.2155
  722MOL0     C95225  10.539   6.088   4.555 -0.1427  0.2723  1.4605
  722MOL0     C95226  10.739   6.498   4.544 -0.0639 -0.5018  0.3029
  722MOL0     C95227  10.785   6.556   4.662 -0.8829  0.8525 -0.5803
  722MOL0     C95228  10.880   6.664   4.650  0.3212  1.1590 -0.2251
  722MOL0     C95229  10.920   6.711   4.539 -0.0911 -0.7000  0.3599
  722MOL0     O95230  10.991   6.827   4.539 -0.5588 -0.0499 -0.0690
  722MOL0     C95231  11.084   6.840   4.422  0.0517 -0.6688  0.2861
  722MOL0     C95232  11.212   6.926   4.453  0.1685  0.4707  0.4004
  722MOL0     C95233  11.302   6.883   4.562  0.7165  0.2273 -0.5142
  722MOL0     C95234  11.364   6.745   4.553  0.5156  0.1551  0.5033
  722MOL0     C95235  11.406   6.700   4.690 -0.0325  0.5083  0.6849
  722MOL0     C95236  11.467   6.686   4.797  0.2613  0.9501 -0.0567
  722MOL0     C95237  10.868   6.657   4.425  0.2769  0.1137 -0.1402
  722MOL0     C95238  10.789   6.545   4.425  0.5500  0.3578 -0.3570
  722MOL0     H95239  10.442   6.307   4.790 -0.1497 -0.4434  0.9826
  722MOL0     H95240  10.238   6.145   4.779  0.2888 -6.5996  1.6135
  722MOL0     H95241  10.318   5.764   4.735 -1.6067 -0.4108  0.8082
  722MOL0     H95242  10.314   5.751   4.557  0.0897 -2.6659  1.2424
  722MOL0     H95243  10.083   5.715   4.747 -0.7600 -2.3838 -0.4357
  722MOL0     H95244  10.145   5.608   4.630 -0.7478 -0.9446  1.6141
  722MOL0     H95245   9.952   5.822   4.581 -0.2498 -0.0645  0.5348
  722MOL0     H95246   9.944   5.656   4.548 -2.6865  3.0881  0.9831
  722MOL0     H95247  10.085   5.884   4.404 -2.1699  0.7398  3.0788
  722MOL0     H95248  10.132   5.710   4.363 -0.6318  0.5278  0.2561
  722MOL0     H95249   9.891   5.871   4.278  0.4121 -0.5110  0.7355
  722MOL0     H95250   9.859   5.700   4.298 -1.4321  0.0337 -2.9016
  722MOL0     H95251  10.046   5.656   4.139 -1.3597 -0.7250 -0.3660
  722MOL0     H95252  10.100   5.810   4.148  2.9317 -4.5703  1.3746
  722MOL0     H95253  10.008   5.824   3.947  1.2148 -2.4113  1.4293
  722MOL0     H95254   9.880   5.710   3.961  2.3663 -3.2876  1.4974
  722MOL0     H95255   9.720   5.887   4.065  0.5044 -0.8106 -0.4302
  722MOL0     H95256   9.791   5.943   3.908  1.0445  1.9557 -0.2465
  722MOL0     H95257   9.713   6.070   4.232 -0.6411 -2.4527 -2.9076
  722MOL0     H95258   9.788   6.357   4.295 -1.7579 -3.5179  1.6047
  722MOL0     H95259   9.935   6.414   4.241  2.4489  0.5481  2.3822
  722MOL0     H95260   9.944   6.191   4.445  0.2770 -2.1968 -3.6143
  722MOL0     H95261   9.937   6.367   4.484 -2.3054  0.5059 -1.7635
  722MOL0     H95262  10.171   6.290   4.504 -0.2289  1.0216 -0.9539
  722MOL0     H95263  10.156   6.177   4.374  3.4692  1.7431 -2.8366
  722MOL0     H95264  10.176   6.358   4.218 -0.1778  1.4365 -0.8478
  722MOL0     H95265  10.311   6.351   4.334 -0.5081 -0.7857 -2.6146
  722MOL0     H95266  10.371   6.508   4.185 -1.7083  1.0606 -2.8590
  722MOL0     H95267  10.516   6.710   4.143  0.9705 -2.8570  0.1295
  722MOL0     H95268  10.701   7.183   4.142  1.6457 -2.7999 -0.2374
  722MOL0     H95269  10.982   7.341   4.199  0.8052  0.8018  1.0687
  722MOL0     H95270  11.106   7.528   4.372 -0.6700 -0.0525  0.9976
  722MOL0     H95271  11.184   7.375   4.313  3.8332  2.9283 -1.7792
  722MOL0     H95272  11.313   7.553   4.513 -1.3090 -0.0884  0.2255
  722MOL0     H95273  11.342   7.528   4.343  1.2658 -0.0229 -0.5761
  722MOL0     H95274  11.319   7.281   4.490  0.1209 -0.9510 -0.2294
  722MOL0     H95275  11.454   7.359   4.548  0.4069 -4.6822  0.5244
  722MOL0     H95276  11.498   7.214   4.336 -0.9934  0.3164 -2.2065
  722MOL0     H95277  11.402   7.333   4.250  1.8897 -2.1772 -2.0508
  722MOL0     H95278  11.657   7.378   4.410 -1.5958  1.8427  1.5786
  722MOL0     H95279  11.562   7.508   4.325 -2.1234 -1.0569 -0.7069
  722MOL0     H95280  11.599   7.420   4.109 -0.0285  2.5456  1.1133
  722MOL0     H95281  11.687   7.280   4.172  2.0429  0.9163  0.2718
  722MOL0     H95282  11.837   7.428   4.056 -0.3296 -0.8499  0.0196
  722MOL0     H95283  11.764   7.571   4.142  0.8944 -0.4586 -3.3309
  722MOL0     H95284  11.955   7.384   4.276 -0.9864 -1.2922 -1.6751
  722MOL0     H95285  11.869   7.499   4.366 -0.0396 -0.4029 -0.8845
  722MOL0     H95286  10.943   7.237   4.730 -0.0103  2.0957  0.3177
  722MOL0     H95287  10.678   7.085   4.697  1.9563  1.0544  1.1287
  722MOL0     H95288  10.328   6.911   4.472 -2.2892 -0.3874 -1.1587
  722MOL0     H95289  10.186   6.728   4.509 -0.2052 -0.1806 -0.9944
  722MOL0     H95290  10.439   5.902   4.483  2.1901  0.0880 -0.0405
  722MOL0     H95291  10.630   6.076   4.497 -0.0202  2.3198  1.1265
  722MOL0     H95292  10.760   6.514   4.759  3.2617 -0.6837  0.0298
  722MOL0     H95293  10.921   6.706   4.742  1.0703 -2.5631  1.3483
  722MOL0     H95294  11.036   6.876   4.330 -2.0391  0.5727  1.7587
  722MOL0     H95295  11.122   6.738   4.411 -0.4809 -1.0099  1.3860
  722MOL0     H95296  11.280   6.931   4.368  2.3401  1.1607  2.0706
  722MOL0     H95297  11.183   7.030   4.473  0.3131  0.3471  1.3023
  722MOL0     H95298  11.243   6.885   4.655 -1.7519  0.5127 -1.9977
  722MOL0     H95299  11.378   6.960   4.574  1.5412 -0.7089  0.5479
  722MOL0     H95300  11.300   6.672   4.503  0.6610 -1.6967  2.8413
  722MOL0     H95301  11.448   6.756   4.484 -0.1467 -3.6762 -1.1198
  722MOL0     H95302  11.526   6.677   4.886  0.3558  5.9694  0.6899
  722MOL0     H95303  10.891   6.682   4.321 -1.4536 -2.9600 -1.4085
  722MOL0     H95304  10.767   6.493   4.332  4.0928 -1.5395 -0.2836
  723MOL0     O95305   6.335   8.907   0.837  0.7216  0.2216 -0.1325
  723MOL0     C95306   6.341   9.027   0.810  1.1362 -0.5569 -0.0494
  723MOL0     O95307   6.440   9.089   0.749 -0.1388  0.5094  0.3521
  723MOL0     C95308   6.564   9.029   0.752  0.3954  0.0127  0.3674
  723MOL0     C95309   6.634   9.026   0.875  0.0365 -0.1489 -0.8097
  723MOL0     C95310   6.770   8.968   0.882  0.8818 -0.2813 -0.7724
  723MOL0     C95311   6.814   8.889   0.776  1.2359 -0.6271  0.6058
  723MOL0     O95312   6.935   8.821   0.780  0.5132  0.8767  0.4152
  723MOL0     C95313   7.029   8.813   0.882  0.4652 -0.3837  1.2042
  723MOL0     C95314   7.135   8.718   0.833 -0.5293 -0.4011  0.3269
  723MOL0     C95315   7.263   8.720   0.923 -1.2767 -0.2021  0.1926
  723MOL0     C95316   7.391   8.660   0.853  0.2116  1.3663 -0.7080
  723MOL0     C95317   7.377   8.502   0.826 -0.1845 -0.3328 -0.6084
  723MOL0     C95318   7.375   8.418   0.954  0.4006  0.6160  0.0541
  723MOL0     C95319   7.241   8.378   1.013  0.1165 -1.9232 -0.2420
  723MOL0     C95320   7.244   8.268   1.121  0.7828 -0.2942 -0.2474
  723MOL0     N95321   7.118   8.195   1.155 -0.1018 -0.5171 -0.1338
  723MOL0     C95322   7.127   8.059   1.184 -0.1796  0.4111  0.2360
  723MOL0     C95323   6.992   8.011   1.179  0.3700 -0.4029 -0.0253
  723MOL0     C95324   6.935   7.877   1.197 -0.4151 -0.1280  0.0397
  723MOL0     C95325   7.024   7.783   1.121  1.2878  0.1400  0.0579
  723MOL0     C95326   7.033   7.639   1.187 -0.4968  0.8831 -0.8019
  723MOL0     C95327   6.902   7.572   1.181  0.1198 -0.2931  0.4560
  723MOL0     O95328   6.900   7.431   1.214  0.1955  0.2806 -0.0275
  723MOL0     C95329   6.795   7.387   1.291  0.2473 -0.3989 -0.3476
  723MOL0     C95330   6.753   7.461   1.405 -0.4321  0.1060 -0.4708
  723MOL0     C95331   6.631   7.428   1.469  0.5950 -0.0305 -0.1631
  723MOL0     C95332   6.554   7.323   1.417  0.6079  0.8858  0.1597
  723MOL0     C95333   6.416   7.297   1.473 -0.7630 -0.2435 -0.2143
  723MOL0     O95334   6.358   7.182   1.443  0.2942  0.9525  0.2838
  723MOL0     C95335   6.222   7.165   1.464 -1.1315 -0.1072 -0.2504
  723MOL0     C95336   6.198   7.029   1.480  0.8204  0.1106 -0.6844
  723MOL0     C95337   6.068   6.979   1.482  0.1805 -0.0780 -0.0448
  723MOL0     C95338   5.958   7.063   1.469  0.0134  0.3055 -0.2574
  723MOL0     O95339   5.827   7.026   1.476 -0.1267  0.2789  0.6797
  723MOL0     C95340   5.784   6.889   1.474  0.0045  0.2061  0.9894
  723MOL0     C95341   5.625   6.891   1.471  0.3674 -0.7022 -0.0886
  723MOL0     C95342   5.576   6.757   1.528 -0.2460 -0.4218  0.8418
  723MOL0     C95343   5.423   6.728   1.515 -0.3636 -0.4233  0.2510
  723MOL0     C95344   5.375   6.602   1.585  0.1214 -0.1494 -0.7216
  723MOL0     C95345   5.221   6.609   1.617  0.3439  0.5411 -0.0840
  723MOL0     C95346   5.167   6.462   1.632 -0.6555 -1.2724 -0.0902
  723MOL0     C95347   5.244   6.386   1.744  0.3293  0.1876 -0.7682
  723MOL0    Cl95348   5.196   6.455   1.901 -0.1141  0.4560  0.2567
  723MOL0     C95349   5.985   7.202   1.457  0.7462 -0.2687  0.1390
  723MOL0     C95350   6.122   7.251   1.454  1.8539  0.6341  0.6630
  723MOL0     O95351   6.372   7.383   1.548  0.0773 -1.0094 -0.1256
  723MOL0     C95352   6.603   7.238   1.321  0.3577 -0.2315  0.7469
  723MOL0     C95353   6.723   7.274   1.254 -0.1247  0.8254  0.0887
  723MOL0     N95354   6.917   8.121   1.155 -0.0481  0.5611 -0.8692
  723MOL0     N95355   6.983   8.232   1.137  0.3502  0.8283  0.1757
  723MOL0     C95356   6.735   8.892   0.657  0.5358 -0.7087 -0.7673
  723MOL0     C95357   6.615   8.960   0.644 -0.2993  0.1421  0.4639
  723MOL0     C95358   6.206   9.099   0.827  0.4534  0.1250 -0.1636
  723MOL0     C95359   6.084   9.017   0.843 -0.6623 -0.1880  0.9583
  723MOL0     C95360   5.967   9.079   0.867 -1.0315  0.6269 -0.6656
  723MOL0     C95361   5.965   9.214   0.885  0.6730  0.1249  0.2223
  723MOL0     O95362   5.848   9.284   0.904  0.4988  0.5109  0.5711
  723MOL0     C95363   5.721   9.214   0.929 -0.7913 -1.2932 -0.6242
  723MOL0     C95364   5.618   9.329   0.924 -0.9381  0.4532 -0.2124
  723MOL0     C95365   5.536   9.328   0.795  0.1455 -0.2432  0.7849
  723MOL0     C95366   5.613   9.329   0.665 -0.0181 -0.2271 -0.5979
  723MOL0     C95367   5.521   9.379   0.557  0.3845 -1.0938  0.1231
  723MOL0     C95368   5.453   9.418   0.466 -0.4514  0.3007  0.3751
  723MOL0     C95369   6.077   9.297   0.877  0.6427  0.8662 -0.5335
  723MOL0     C95370   6.200   9.239   0.852  0.0835 -0.2867  0.3498
  723MOL0     H95371   6.584   9.070   0.960 -1.1477 -1.4874 -0.7836
  723MOL0     H95372   6.823   8.955   0.975 -2.5122 -2.8469  1.0591
  723MOL0     H95373   6.967   8.773   0.964 -0.1117 -4.9555 -1.1247
  723MOL0     H95374   7.071   8.912   0.899 -1.6790  0.6103  0.9631
  723MOL0     H95375   7.156   8.751   0.731 -0.5229  0.7335  0.6789
  723MOL0     H95376   7.102   8.613   0.837  1.9333 -1.2115  3.9325
  723MOL0     H95377   7.237   8.663   1.013  1.1728  0.4845  1.4214
  723MOL0     H95378   7.284   8.825   0.946  1.1258 -0.6960  0.5238
  723MOL0     H95379   7.402   8.712   0.757 -0.7035  3.0573  0.0686
  723MOL0     H95380   7.475   8.679   0.919 -0.7495  3.6889 -0.0407
  723MOL0     H95381   7.462   8.472   0.764 -0.9358 -1.5283 -1.0860
  723MOL0     H95382   7.289   8.474   0.767  0.4842 -2.9256 -0.5059
  723MOL0     H95383   7.447   8.453   1.029  2.6818  1.9749 -2.5966
  723MOL0     H95384   7.419   8.323   0.923  1.3932  0.4323  1.9192
  723MOL0     H95385   7.198   8.465   1.065 -1.3185  0.1857 -4.5105
  723MOL0     H95386   7.180   8.349   0.928 -1.3926  0.5987 -0.1309
  723MOL0     H95387   7.280   8.312   1.215 -0.3585 -2.8990  1.5446
  723MOL0     H95388   7.320   8.193   1.099  0.2914 -1.1708  0.9372
  723MOL0     H95389   7.221   8.006   1.194 -0.3885 -0.0379 -0.2018
  723MOL0     H95390   6.841   7.871   1.142 -1.1394  3.9468  0.5088
  723MOL0     H95391   6.920   7.842   1.300 -1.0914 -2.0051 -0.6504
  723MOL0     H95392   7.126   7.823   1.112  1.0826  0.7064  0.2379
  723MOL0     H95393   6.989   7.767   1.019  1.2125  0.3774  0.0458
  723MOL0     H95394   7.112   7.580   1.140 -0.1630 -1.2050  2.0612
  723MOL0     H95395   7.071   7.640   1.290 -4.0878 -1.7149  0.7628
  723MOL0     H95396   6.867   7.593   1.079  1.8528 -2.8927 -0.8054
  723MOL0     H95397   6.817   7.622   1.227  1.8995  0.4743  3.1111
  723MOL0     H95398   6.796   7.556   1.435  0.0059 -0.4614  0.7660
  723MOL0     H95399   6.602   7.492   1.552  0.8919 -0.2904  0.1446
  723MOL0     H95400   6.282   6.960   1.491 -0.5820 -1.5455  0.1335
  723MOL0     H95401   6.059   6.876   1.517  2.6249  0.0509  1.2001
  723MOL0     H95402   5.830   6.830   1.554 -0.0783 -1.5000 -0.1762
  723MOL0     H95403   5.820   6.844   1.381  0.4272  1.6927  0.4024
  723MOL0     H95404   5.591   6.899   1.367  0.1440  0.0893  0.0434
  723MOL0     H95405   5.588   6.972   1.533 -0.3390 -1.7902  0.9554
  723MOL0     H95406   5.592   6.767   1.635  1.0362 -0.8346  0.7069
  723MOL0     H95407   5.633   6.680   1.476 -1.9214 -2.2628  1.5830
  723MOL0     H95408   5.372   6.812   1.563 -0.8966  0.6300 -2.0386
  723MOL0     H95409   5.408   6.730   1.407  0.8311  2.0318  0.0549
  723MOL0     H95410   5.435   6.594   1.677  4.6962  0.7948 -3.2987
  723MOL0     H95411   5.395   6.513   1.524  0.8417 -1.8531  1.8266
  723MOL0     H95412   5.174   6.657   1.531  1.1473  2.0798  0.2934
  723MOL0     H95413   5.214   6.671   1.707  0.0161 -1.7655  1.5388
  723MOL0     H95414   5.059   6.456   1.649 -0.5644 -0.8531  0.6604
  723MOL0     H95415   5.182   6.396   1.546  1.7959 -2.7221  1.3119
  723MOL0     H95416   5.351   6.389   1.721  0.3585 -2.1513 -1.1545
  723MOL0     H95417   5.210   6.283   1.734  0.9713 -0.1193  0.1210
  723MOL0     H95418   5.898   7.257   1.422  1.0157  2.0159  2.7389
  723MOL0     H95419   6.144   7.352   1.424  3.8171 -0.3559 -1.5585
  723MOL0     H95420   6.538   7.155   1.296 -2.1450  1.9622 -0.6259
  723MOL0     H95421   6.756   7.229   1.161 -0.0597  2.1310 -0.5362
  723MOL0     H95422   6.779   8.836   0.574 -1.5302 -0.7154 -1.9213
  723MOL0     H95423   6.560   8.959   0.551 -0.4044 -0.9514  0.5280
  723MOL0     H95424   6.087   8.909   0.834 -1.0250 -0.1433  0.2208
  723MOL0     H95425   5.881   9.014   0.883  0.7280 -1.7069 -0.1672
  723MOL0     H95426   5.725   9.158   1.024  0.2233 -0.0120  0.1121
  723MOL0     H95427   5.696   9.148   0.846  1.8557 -2.1801 -0.8179
  723MOL0     H95428   5.541   9.306   0.998 -0.2753 -0.2012  0.2867
  723MOL0     H95429   5.652   9.426   0.960 -0.7994  0.0369  0.8009
  723MOL0     H95430   5.479   9.421   0.793 -1.3155 -1.1035 -0.9002
  723MOL0     H95431   5.470   9.240   0.792  3.5240 -3.0010 -0.7163
  723MOL0     H95432   5.691   9.405   0.660  0.3719 -0.5098  0.7953
  723MOL0     H95433   5.662   9.232   0.647  1.4143  0.4924 -0.6830
  723MOL0     H95434   5.396   9.430   0.375 -0.1725 -0.3937  0.1036
  723MOL0     H95435   6.063   9.404   0.881 -1.3319  0.6089  0.1105
  723MOL0     H95436   6.290   9.298   0.835  0.0490  0.1866  1.6500
  724MOL0     O95437   2.280   5.989  11.055  0.1336  0.3917 -0.0498
  724MOL0     C95438   2.162   5.952  11.038  0.8819  0.1010 -1.0381
  724MOL0     O95439   2.061   5.980  11.121 -0.0045 -0.1593 -0.3845
  724MOL0     C95440   2.090   6.054  11.233  0.0727 -0.5377  0.6583
  724MOL0     C95441   2.125   5.995  11.347  0.0448  0.5416  0.4323
  724MOL0     C95442   2.148   6.070  11.462  0.6892  0.0648  0.2883
  724MOL0     C95443   2.123   6.208  11.467  0.3717  0.6995  0.0252
  724MOL0     O95444   2.127   6.264  11.589  0.9597  0.1976 -0.8907
  724MOL0     C95445   2.263   6.279  11.640 -0.0336 -0.4975 -0.4713
  724MOL0     C95446   2.266   6.341  11.782  0.2394  0.1831  0.5808
  724MOL0     C95447   2.163   6.276  11.877 -0.2413  0.6636 -0.2311
  724MOL0     C95448   2.197   6.319  12.015  0.0702 -0.1365  0.0267
  724MOL0     C95449   2.154   6.226  12.128  0.6032  0.2351  0.4201
  724MOL0     C95450   1.999   6.222  12.160  1.2155  0.0271  0.1747
  724MOL0     C95451   1.953   6.083  12.212  0.6924  1.3490 -0.9071
  724MOL0     C95452   1.972   6.055  12.357 -0.0512 -0.1310 -0.1708
  724MOL0     N95453   1.972   5.913  12.385  0.5944  1.1045  0.8689
  724MOL0     C95454   2.080   5.838  12.421 -0.0263  0.5535 -0.0828
  724MOL0     C95455   2.023   5.725  12.454 -0.3655 -0.5519  0.7300
  724MOL0     C95456   2.100   5.602  12.506 -0.2631  1.1133 -0.2477
  724MOL0     C95457   2.174   5.622  12.642 -0.1300  0.1711  1.0578
  724MOL0     C95458   2.229   5.494  12.692  0.7076  1.2363  1.3432
  724MOL0     C95459   2.308   5.507  12.813  0.3918 -0.3588 -0.7030
  724MOL0     O95460   2.384   5.392  12.859 -0.4254 -0.2223  0.1823
  724MOL0     C95461   2.519   5.417  12.851  0.3673  0.8295 -0.4821
  724MOL0     C95462   2.580   5.483  12.968 -0.0616  0.6182  0.2697
  724MOL0     C95463   2.711   5.512  12.967 -0.0656 -0.6063 -0.3667
  724MOL0     C95464   2.791   5.491  12.857  0.2204  0.8990  0.2190
  724MOL0     C95465   2.935   5.510  12.852  0.1312 -0.8840  0.4585
  724MOL0     O95466   2.974   5.628  12.930 -0.4193  0.3946  0.3239
  724MOL0     C95467   3.097   5.678  12.927  0.2386 -0.2953  0.8296
  724MOL0     C95468   3.204   5.645  12.839  0.5913 -0.5647  0.0769
  724MOL0     C95469   3.330   5.709  12.841 -0.6191  0.9617 -0.0669
  724MOL0     C95470   3.354   5.810  12.934 -0.0654  0.0467 -0.5075
  724MOL0     O95471   3.486   5.855  12.933 -0.1611  0.7017 -0.9751
  724MOL0     C95472   3.519   5.968  13.017  0.4179  0.1720  0.1279
  724MOL0     C95473   3.641   6.029  12.939  0.1283  1.2309 -0.3197
  724MOL0     C95474   3.699   6.149  13.005 -0.0446 -0.3978  0.1659
  724MOL0     C95475   3.797   6.232  12.928 -0.4727 -0.9803  0.0821
  724MOL0     C95476   3.859   6.356  12.995  0.1942 -0.2495 -1.1888
  724MOL0     C95477   3.929   6.326  13.132  0.1571 -0.4919  0.4044
  724MOL0     C95478   4.076   6.265  13.110  0.0514 -0.2412  0.4306
  724MOL0     C95479   4.155   6.259  13.241  0.5291 -0.0100  0.4010
  724MOL0    Cl95480   4.304   6.165  13.192  0.7941 -0.1047  0.4664
  724MOL0     C95481   3.250   5.845  13.021 -1.2262 -0.1021  0.2895
  724MOL0     C95482   3.132   5.781  13.005 -0.6190 -0.3523  0.6684
  724MOL0     O95483   3.012   5.432  12.795  0.2757 -0.1344 -0.5971
  724MOL0     C95484   2.730   5.422  12.749 -0.0080  1.4885 -0.5977
  724MOL0     C95485   2.600   5.384  12.748  0.4459 -0.1361 -0.3155
  724MOL0     N95486   1.880   5.732  12.439 -0.3872  0.9012 -0.0416
  724MOL0     N95487   1.856   5.846  12.387 -0.5727  0.1986 -0.2193
  724MOL0     C95488   2.077   6.266  11.351  1.3058 -0.1789  0.6257
  724MOL0     C95489   2.064   6.187  11.231  0.2576 -0.3151 -0.3725
  724MOL0     C95490   2.133   5.872  10.929  0.2720  0.3236 -0.0399
  724MOL0     C95491   2.202   5.882  10.805  0.3928 -0.0223 -0.0267
  724MOL0     C95492   2.170   5.791  10.701  0.4778  0.1104  0.4572
  724MOL0     C95493   2.078   5.689  10.721  0.1710  0.2784 -0.9477
  724MOL0     O95494   2.032   5.607  10.626 -0.2087 -0.0306 -0.8008
  724MOL0     C95495   2.129   5.553  10.546  0.0254 -0.1781 -0.1181
  724MOL0     C95496   2.078   5.488  10.421 -0.3196  0.5031  0.0522
  724MOL0     C95497   2.200   5.435  10.336  0.1071 -0.2732 -1.1790
  724MOL0     C95498   2.144   5.393  10.195 -0.0885 -0.0047  0.0934
  724MOL0     C95499   2.081   5.262  10.192 -0.1145  0.1930  0.0054
  724MOL0     C95500   2.031   5.148  10.175 -0.8316  0.0716 -0.2993
  724MOL0     C95501   2.013   5.682  10.841 -0.3636 -0.2508  0.2143
  724MOL0     C95502   2.037   5.772  10.946  0.2616  0.0545  0.0011
  724MOL0     H95503   2.156   5.891  11.350  3.2363  1.4139  1.9976
  724MOL0     H95504   2.164   6.014  11.553 -0.0892  0.7660  0.8774
  724MOL0     H95505   2.310   6.361  11.584 -0.4333 -0.1646 -0.3199
  724MOL0     H95506   2.319   6.185  11.638  2.4715  0.8635  0.3388
  724MOL0     H95507   2.245   6.447  11.771 -2.3112 -0.3066  0.2117
  724MOL0     H95508   2.366   6.329  11.825  0.0708 -2.1949  0.4890
  724MOL0     H95509   2.175   6.167  11.869  0.5787  0.6460  0.9642
  724MOL0     H95510   2.058   6.288  11.848 -0.2961 -1.1517 -0.9081
  724MOL0     H95511   2.305   6.328  12.031  0.3882 -0.6922 -1.6582
  724MOL0     H95512   2.155   6.415  12.046 -0.8580 -0.8624  1.0916
  724MOL0     H95513   2.211   6.256  12.216  1.5954 -0.4292  0.0236
  724MOL0     H95514   2.179   6.125  12.097 -2.0115 -0.3905  0.1038
  724MOL0     H95515   1.950   6.246  12.066 -0.2431 -0.7485  0.7015
  724MOL0     H95516   1.974   6.300  12.233 -1.8890 -0.0743 -0.6174
  724MOL0     H95517   1.845   6.072  12.201  0.3020 -0.6727  3.1288
  724MOL0     H95518   1.998   5.999  12.159 -0.6984 -0.9207  1.3277
  724MOL0     H95519   1.882   6.099  12.400  0.4806  0.3640  0.4714
  724MOL0     H95520   2.063   6.100  12.399  0.0850 -0.9759  0.4842
  724MOL0     H95521   2.186   5.864  12.420  0.0210  0.7044  2.3203
  724MOL0     H95522   2.183   5.572  12.441  0.1316  2.0092 -0.1672
  724MOL0     H95523   2.033   5.515  12.510  1.2273 -0.1763 -1.7902
  724MOL0     H95524   2.112   5.677  12.713 -1.2771 -2.2008  1.9943
  724MOL0     H95525   2.264   5.682  12.624  1.5895 -1.5482  3.2830
  724MOL0     H95526   2.161   5.408  12.693  2.3780 -0.1232  1.3466
  724MOL0     H95527   2.307   5.459  12.624  0.4409  0.9680  1.1715
  724MOL0     H95528   2.240   5.535  12.894 -0.4816  0.6404 -1.7331
  724MOL0     H95529   2.357   5.605  12.813 -2.5083  1.2211  0.2884
  724MOL0     H95530   2.521   5.496  13.058  0.7754  0.7183  0.8187
  724MOL0     H95531   2.743   5.562  13.057  1.2958 -1.9449 -0.0529
  724MOL0     H95532   3.192   5.579  12.753  0.4645 -2.8248  1.7489
  724MOL0     H95533   3.401   5.685  12.762 -1.2852 -0.7689 -0.1921
  724MOL0     H95534   3.543   5.939  13.119  0.8773 -1.9635 -0.5362
  724MOL0     H95535   3.441   6.045  13.011 -1.1920 -1.4943 -3.8914
  724MOL0     H95536   3.602   6.064  12.843 -1.6759  0.9571  0.2827
  724MOL0     H95537   3.722   5.960  12.914 -0.7298  1.1594 -3.2623
  724MOL0     H95538   3.765   6.110  13.083 -0.5044 -1.9873 -0.2090
  724MOL0     H95539   3.627   6.228  13.032  1.8673  1.3904  0.2846
  724MOL0     H95540   3.884   6.171  12.902 -0.5440 -0.0950 -2.6024
  724MOL0     H95541   3.749   6.266  12.836  0.2818  1.9073  0.6653
  724MOL0     H95542   3.776   6.424  13.017 -0.7398 -1.1656 -1.7627
  724MOL0     H95543   3.935   6.401  12.932  0.0984  1.7893  0.0666
  724MOL0     H95544   3.868   6.258  13.193 -1.1556 -0.0537 -0.3913
  724MOL0     H95545   3.931   6.424  13.180 -2.1254  1.0160 -2.3097
  724MOL0     H95546   4.084   6.168  13.060 -0.2509  0.3270 -0.7480
  724MOL0     H95547   4.128   6.329  13.039 -1.6255 -0.5974 -1.1869
  724MOL0     H95548   4.109   6.206  13.325 -0.1526 -2.4108 -1.3588
  724MOL0     H95549   4.195   6.355  13.272  1.4428  0.0782 -0.9424
  724MOL0     H95550   3.259   5.917  13.102 -1.6809  0.1442  0.1272
  724MOL0     H95551   3.060   5.808  13.082 -1.0668 -1.2312  0.5705
  724MOL0     H95552   2.796   5.400  12.666  0.5872  1.0232 -0.0109
  724MOL0     H95553   2.552   5.330  12.668  3.0293  0.7284 -2.5758
  724MOL0     H95554   2.027   6.362  11.345 -1.6282 -1.5805  0.6504
  724MOL0     H95555   2.019   6.226  11.140 -3.7516 -3.1103  0.1566
  724MOL0     H95556   2.272   5.965  10.797 -1.6249  1.6630 -1.4731
  724MOL0     H95557   2.204   5.813  10.600 -1.5899 -2.2018 -0.8549
  724MOL0     H95558   2.180   5.475  10.603  0.1190  0.8969  1.3479
  724MOL0     H95559   2.201   5.628  10.512 -2.7668  1.8699 -1.9922
  724MOL0     H95560   2.012   5.410  10.458 -0.5768  0.1437 -1.1320
  724MOL0     H95561   2.021   5.572  10.380  0.6755 -0.0812 -2.7474
  724MOL0     H95562   2.258   5.358  10.387  1.2562  1.7646  0.7775
  724MOL0     H95563   2.261   5.524  10.318  0.1627 -0.4052 -1.6713
  724MOL0     H95564   2.086   5.477  10.156 -1.8032 -1.7612 -1.3535
  724MOL0     H95565   2.230   5.381  10.127 -0.1569  2.0080 -0.3915
  724MOL0     H95566   1.982   5.054  10.160 -2.5778  0.3877  2.7856
  724MOL0     H95567   1.921   5.624  10.852 -1.7530  0.2853 -5.5123
  724MOL0     H95568   1.983   5.752  11.039  4.4963 -0.9464  2.5229
  725MOL0     O95569   7.367   0.870   6.248  0.0173 -0.1015  0.2907
  725MOL0     C95570   7.358   0.988   6.294  1.0270  0.8549  0.4177
  725MOL0     O95571   7.434   1.037   6.393 -0.2385  1.0423 -0.3682
  725MOL0     C95572   7.533   0.953   6.438  0.0354  0.3124 -0.7003
  725MOL0     C95573   7.640   0.891   6.370  0.7013  0.8398  0.5465
  725MOL0     C95574   7.707   0.795   6.444 -0.1904 -0.1401 -0.5376
  725MOL0     C95575   7.693   0.770   6.581  0.1308 -0.2830 -0.3336
  725MOL0     O95576   7.770   0.670   6.637 -0.9203  0.7179  0.2698
  725MOL0     C95577   7.750   0.648   6.775  0.5921  0.1993 -0.1188
  725MOL0     C95578   7.836   0.525   6.824  0.2905  0.3718 -1.5183
  725MOL0     C95579   7.809   0.494   6.969 -0.5003  0.3308  1.1671
  725MOL0     C95580   7.910   0.397   7.036 -0.0096  0.0744 -0.3130
  725MOL0     C95581   7.867   0.357   7.187 -0.2872  0.2857 -0.4836
  725MOL0     C95582   7.949   0.230   7.236 -0.1068 -0.5186  0.8048
  725MOL0     C95583   7.933   0.187   7.376 -0.6245  0.3866 -0.4503
  725MOL0     C95584   7.956   0.296   7.485  0.6119 -0.1350  1.4273
  725MOL0     N95585   7.976   0.228   7.610  1.1641 -0.0153 -0.0203
  725MOL0     C95586   8.082   0.163   7.662 -0.5008 -0.2178 -0.2245
  725MOL0     C95587   8.063   0.154   7.798  0.3179  0.5678  0.5754
  725MOL0     C95588   8.161   0.086   7.888  0.1295  0.3635 -0.7618
  725MOL0     C95589   8.274   0.178   7.930 -0.8067  0.1098 -0.1425
  725MOL0     C95590   8.383   0.107   8.014  0.9136 -0.4749  1.1705
  725MOL0     C95591   8.511   0.203   8.019 -0.8742  0.3390  0.0550
  725MOL0     O95592   8.607   0.139   8.114 -0.4218 -0.0896 -0.3855
  725MOL0     C95593   8.729   0.186   8.140 -0.4415  1.4631  0.3088
  725MOL0     C95594   8.794   0.143   8.260  0.3877 -0.4938 -0.5797
  725MOL0     C95595   8.919   0.191   8.293 -0.4958  0.4450 -0.3237
  725MOL0     C95596   8.999   0.266   8.201 -0.7695 -0.1326 -0.7847
  725MOL0     C95597   9.141   0.303   8.229  0.9432  0.4876  0.5893
  725MOL0     O95598   9.184   0.280   8.346  0.6440  0.8625  0.8317
  725MOL0     C95599   9.281   0.346   8.413 -0.3394 -0.0400 -0.2255
  725MOL0     C95600   9.300   0.304   8.546 -0.2166 -0.8028  1.0040
  725MOL0     C95601   9.414   0.350   8.631  0.0055  0.7553 -0.1389
  725MOL0     C95602   9.514   0.429   8.568 -0.2577 -1.2653  0.3364
  725MOL0     O95603   9.615   0.488   8.640 -0.4870  0.1423 -0.0920
  725MOL0     C95604   9.740   0.444   8.590  0.8775  0.1407 -0.5029
  725MOL0     C95605   9.839   0.499   8.695  0.7847 -0.2641 -0.5056
  725MOL0     C95606   9.853   0.649   8.715 -0.8073  1.2441  0.2205
  725MOL0     C95607   9.930   0.733   8.617 -0.1155 -0.4948  0.5760
  725MOL0     C95608   9.931   0.888   8.650 -0.2475  0.2218 -0.8389
  725MOL0     C95609  10.029   0.922   8.774 -0.0580  0.7689 -0.1832
  725MOL0     C95610  10.055   1.072   8.806  0.1002  0.0203  0.5944
  725MOL0     C95611   9.925   1.138   8.854 -0.1525  0.0201 -0.0714
  725MOL0    Cl95612   9.796   1.146   8.733 -0.2967 -0.0269 -0.0619
  725MOL0     C95613   9.497   0.465   8.437 -0.1080 -0.3338  0.8213
  725MOL0     C95614   9.380   0.430   8.356 -0.1741  0.3299  0.1936
  725MOL0     O95615   9.186   0.383   8.149  0.5515 -0.1013 -0.4869
  725MOL0     C95616   8.939   0.284   8.078 -0.0385 -0.7324  0.0101
  725MOL0     C95617   8.805   0.259   8.050  0.7073 -0.5492 -0.9527
  725MOL0     N95618   7.949   0.219   7.830 -0.8333  0.0065 -0.2272
  725MOL0     N95619   7.895   0.256   7.721  0.4766 -1.1440  0.5607
  725MOL0     C95620   7.605   0.856   6.651 -0.2909 -0.4681  0.1059
  725MOL0     C95621   7.522   0.941   6.580  0.3314 -0.7060 -0.2399
  725MOL0     C95622   7.268   1.084   6.219  0.4379 -0.2591  1.1834
  725MOL0     C95623   7.278   1.221   6.245  0.3315  0.3412  0.1636
  725MOL0     C95624   7.188   1.313   6.186 -0.4772 -0.7642  0.0813
  725MOL0     C95625   7.086   1.265   6.100 -0.1418 -0.0267 -0.3657
  725MOL0     O95626   7.023   1.363   6.017  0.9737  0.9854  0.4114
  725MOL0     C95627   6.879   1.350   6.016 -0.4179 -0.6500 -0.2607
  725MOL0     C95628   6.811   1.467   6.090 -0.9403  0.4870 -0.4474
  725MOL0     C95629   6.878   1.613   6.087  0.4908  0.0202 -0.5831
  725MOL0     C95630   6.912   1.649   5.945 -0.6107  0.2668  0.4126
  725MOL0     C95631   6.783   1.691   5.865  0.2152 -0.3296 -0.4242
  725MOL0     C95632   6.679   1.713   5.798  0.2857 -0.0327 -0.0788
  725MOL0     C95633   7.076   1.126   6.076 -0.5660 -0.3172  1.3591
  725MOL0     C95634   7.168   1.042   6.129  0.1895  1.2820 -0.5982
  725MOL0     H95635   7.660   0.906   6.264 -1.5777  0.8232  0.0548
  725MOL0     H95636   7.788   0.728   6.417  1.6110  0.8766  1.9608
  725MOL0     H95637   7.648   0.626   6.807  2.2657 -1.4741  5.0716
  725MOL0     H95638   7.781   0.737   6.830  2.1383 -0.5438  0.2581
  725MOL0     H95639   7.943   0.545   6.810  0.0285  1.5235 -1.9929
  725MOL0     H95640   7.804   0.438   6.767 -1.3647  0.6922 -1.1323
  725MOL0     H95641   7.707   0.454   6.973 -1.5408  2.8292  1.6529
  725MOL0     H95642   7.806   0.589   7.023  0.0730  2.1965 -1.8259
  725MOL0     H95643   7.927   0.302   6.985 -0.2412 -1.5350  2.4459
  725MOL0     H95644   8.001   0.458   7.039 -1.7216  2.7988 -0.5095
  725MOL0     H95645   7.764   0.321   7.204 -0.0933 -1.4790 -2.6218
  725MOL0     H95646   7.884   0.438   7.259  1.1805 -1.0063  0.7092
  725MOL0     H95647   8.055   0.256   7.234 -0.4839  1.2133  1.3326
  725MOL0     H95648   7.921   0.142   7.177  0.5377 -0.8790  1.0320
  725MOL0     H95649   7.833   0.149   7.402  0.2248  0.7954  4.2427
  725MOL0     H95650   7.991   0.095   7.394 -2.8828 -1.5961 -2.4694
  725MOL0     H95651   7.869   0.363   7.485  0.2134 -0.5490  3.7072
  725MOL0     H95652   8.049   0.342   7.451  0.2162 -0.9682 -0.9422
  725MOL0     H95653   8.178   0.139   7.618  0.1900  1.9663 -0.0498
  725MOL0     H95654   8.210   0.005   7.833 -1.2766  0.7574 -2.6966
  725MOL0     H95655   8.115   0.047   7.980 -0.1295 -4.2307 -2.5638
  725MOL0     H95656   8.238   0.261   7.991  1.7301  2.1642 -1.2766
  725MOL0     H95657   8.322   0.227   7.844  1.7865 -2.6526 -0.4410
  725MOL0     H95658   8.333   0.085   8.109  2.3858 -2.1392  1.6328
  725MOL0     H95659   8.411   0.008   7.975 -0.0329 -0.8211  1.3471
  725MOL0     H95660   8.489   0.297   8.072  4.5731 -0.4842  4.7206
  725MOL0     H95661   8.558   0.228   7.923 -2.8850 -5.0521 -2.7143
  725MOL0     H95662   8.739   0.087   8.335  0.5830  1.4141  1.0792
  725MOL0     H95663   8.967   0.168   8.387  0.9360 -2.4891 -1.6279
  725MOL0     H95664   9.242   0.223   8.590 -2.0434  0.1184  0.4181
  725MOL0     H95665   9.435   0.295   8.722 -0.5830  2.3576  1.0033
  725MOL0     H95666   9.763   0.483   8.491 -3.5201  0.5208 -1.5949
  725MOL0     H95667   9.727   0.336   8.584 -1.3389  0.3164  0.1175
  725MOL0     H95668   9.941   0.461   8.684  1.2898  1.4845 -2.4511
  725MOL0     H95669   9.805   0.445   8.784 -0.1371 -0.4476 -0.9513
  725MOL0     H95670   9.900   0.671   8.811  1.3456 -1.2234 -0.1635
  725MOL0     H95671   9.752   0.689   8.729 -1.0312  0.8275 -0.1866
  725MOL0     H95672  10.030   0.694   8.601 -1.1383 -1.7259 -4.7121
  725MOL0     H95673   9.880   0.707   8.523 -0.7847 -0.7271  0.9912
  725MOL0     H95674   9.828   0.906   8.683 -0.8025 -2.0015 -1.1827
  725MOL0     H95675   9.967   0.945   8.564  0.6675  1.5688  0.3898
  725MOL0     H95676  10.116   0.857   8.767 -1.7774 -1.9795  1.9942
  725MOL0     H95677   9.974   0.876   8.857  2.0314  2.0662  2.0711
  725MOL0     H95678  10.118   1.076   8.895 -2.1594 -1.8239  2.4199
  725MOL0     H95679  10.101   1.128   8.723  2.7923  3.5859  4.1182
  725MOL0     H95680   9.951   1.241   8.878 -0.9192  0.1087  0.4281
  725MOL0     H95681   9.889   1.092   8.946 -0.5485  1.9493  0.7847
  725MOL0     H95682   9.580   0.516   8.390  0.6889 -1.6978  0.6845
  725MOL0     H95683   9.367   0.484   8.263 -1.8686  1.7609  1.1898
  725MOL0     H95684   8.999   0.319   7.995 -2.4909  0.1730 -1.4916
  725MOL0     H95685   8.755   0.296   7.961  2.4011  2.0755 -0.9019
  725MOL0     H95686   7.611   0.855   6.760 -1.5152 -1.2834  0.1882
  725MOL0     H95687   7.439   0.985   6.634 -1.4584 -3.0912 -0.8568
  725MOL0     H95688   7.359   1.255   6.308  1.3660 -2.7668  0.6956
  725MOL0     H95689   7.189   1.419   6.206  2.2995 -0.3656 -1.6638
  725MOL0     H95690   6.835   1.258   6.057 -3.7358  0.1615 -1.6702
  725MOL0     H95691   6.845   1.357   5.912  1.6851 -0.5647 -0.9911
  725MOL0     H95692   6.705   1.459   6.063 -0.7343 -4.0052 -0.5798
  725MOL0     H95693   6.802   1.430   6.193  0.8903  1.1399 -0.0213
  725MOL0     H95694   6.974   1.622   6.138  1.1204  1.9952 -2.0115
  725MOL0     H95695   6.808   1.683   6.134 -0.3086 -2.0478  1.5253
  725MOL0     H95696   6.981   1.734   5.949 -0.2505  0.0323 -0.5295
  725MOL0     H95697   6.969   1.569   5.897 -1.9672 -1.4191  1.5032
  725MOL0     H95698   6.588   1.726   5.743 -0.7081  1.0012  1.6921
  725MOL0     H95699   7.001   1.091   6.006 -1.5953  1.2581  1.6127
  725MOL0     H95700   7.163   0.935   6.111 -0.9913  0.9693  1.3562
  726MOL0     O95701   6.620   3.721   9.336  0.1686  0.3517  0.2215
  726MOL0     C95702   6.540   3.813   9.305 -0.0775  0.7711  0.5976
  726MOL0     O95703   6.465   3.827   9.194  0.2793  0.2281  0.8049
  726MOL0     C95704   6.443   3.728   9.093 -0.0483  0.2745 -0.2437
  726MOL0     C95705   6.516   3.608   9.084 -0.2547 -0.3343 -0.3968
  726MOL0     C95706   6.495   3.519   8.984  0.5728  0.0489  0.0257
  726MOL0     C95707   6.382   3.534   8.897  0.5970  0.0811 -0.6679
  726MOL0     O95708   6.352   3.464   8.784  0.1863  0.3801 -0.0027
  726MOL0     C95709   6.373   3.321   8.787  0.5094 -0.6023 -0.4848
  726MOL0     C95710   6.248   3.243   8.745 -0.1150  1.3836 -0.1577
  726MOL0     C95711   6.147   3.228   8.853  0.7348  1.7450 -1.1153
  726MOL0     C95712   6.011   3.163   8.805 -0.6840  0.9055 -0.2426
  726MOL0     C95713   5.948   3.068   8.908  0.4891  0.4489 -0.3088
  726MOL0     C95714   5.888   3.140   9.029  0.8817  0.2396  0.0832
  726MOL0     C95715   5.740   3.177   9.006 -0.0879  0.1345  1.2401
  726MOL0     C95716   5.660   3.220   9.133  0.6902 -0.3024 -0.2093
  726MOL0     N95717   5.526   3.274   9.074 -0.0933 -0.0100  0.7405
  726MOL0     C95718   5.481   3.395   9.116  0.8932  0.6990 -0.3569
  726MOL0     C95719   5.377   3.422   9.039 -0.8876 -0.4355 -0.4850
  726MOL0     C95720   5.295   3.544   9.046  1.6952 -0.0131  0.7617
  726MOL0     C95721   5.391   3.672   9.043 -0.5724  0.1676 -0.8448
  726MOL0     C95722   5.471   3.691   8.912 -0.1857  0.2807 -0.1794
  726MOL0     C95723   5.586   3.801   8.922  0.5162 -0.3409 -0.6179
  726MOL0     O95724   5.649   3.815   9.046  0.9619  0.2697  0.1294
  726MOL0     C95725   5.756   3.737   9.087 -0.5760 -0.0959  0.8848
  726MOL0     C95726   5.818   3.636   9.011  0.0677 -0.2245  0.0596
  726MOL0     C95727   5.926   3.562   9.067  0.7506  0.5559 -1.0354
  726MOL0     C95728   5.971   3.595   9.198  0.6388  0.2538  0.3143
  726MOL0     C95729   6.067   3.512   9.273  0.1973  1.4936  0.3844
  726MOL0     O95730   6.086   3.531   9.402  0.1966 -0.1803 -0.1652
  726MOL0     C95731   6.199   3.475   9.460 -0.2630  0.0053  0.1373
  726MOL0     C95732   6.194   3.357   9.536  0.3420  0.4294  0.3951
  726MOL0     C95733   6.302   3.291   9.594 -0.3199  0.7248 -1.1010
  726MOL0     C95734   6.426   3.361   9.600 -0.4003 -0.7211 -0.3348
  726MOL0     O95735   6.529   3.300   9.662  0.0231 -0.8455 -0.3676
  726MOL0     C95736   6.659   3.361   9.668  0.4022 -0.9970  0.9287
  726MOL0     C95737   6.715   3.339   9.808 -0.4495 -0.0980  0.1042
  726MOL0     C95738   6.625   3.393   9.920  0.6494 -0.4828 -0.7462
  726MOL0     C95739   6.687   3.384  10.057  0.5230  0.7089  0.1119
  726MOL0     C95740   6.792   3.489  10.079  0.2537 -0.1554 -0.8636
  726MOL0     C95741   6.814   3.498  10.234 -0.4335 -0.3491 -1.3103
  726MOL0     C95742   6.945   3.570  10.256  0.5898  0.0004 -0.1178
  726MOL0     C95743   6.939   3.625  10.401 -0.0999 -0.3667  0.1362
  726MOL0    Cl95744   6.970   3.504  10.516  0.4981  0.1829 -0.2619
  726MOL0     C95745   6.433   3.479   9.519 -0.5782 -0.8549 -0.1630
  726MOL0     C95746   6.321   3.538   9.452  1.0845  0.0355  0.2342
  726MOL0     O95747   6.138   3.431   9.208 -0.3559 -0.2473  0.6519
  726MOL0     C95748   5.909   3.690   9.273  0.1089 -0.5000 -0.2962
  726MOL0     C95749   5.805   3.756   9.221 -0.0688 -0.3955  0.2010
  726MOL0     N95750   5.344   3.315   8.959  0.5146 -0.2581 -0.4962
  726MOL0     N95751   5.440   3.228   8.978  0.3126 -0.0179  0.7313
  726MOL0     C95752   6.308   3.651   8.907 -0.5731  0.1800  0.1962
  726MOL0     C95753   6.348   3.744   9.002  0.3268 -0.4236 -0.0640
  726MOL0     C95754   6.509   3.912   9.411 -0.0814 -0.2769 -0.3328
  726MOL0     C95755   6.443   4.028   9.372 -0.8125 -0.6956  0.0623
  726MOL0     C95756   6.409   4.124   9.467  0.4889  0.4117 -0.2396
  726MOL0     C95757   6.447   4.120   9.604  0.8503  0.3282 -0.9004
  726MOL0     O95758   6.410   4.222   9.685  0.3135 -0.4775 -0.0550
  726MOL0     C95759   6.406   4.202   9.822  0.1154  1.1336 -0.5811
  726MOL0     C95760   6.260   4.162   9.858 -0.4749  0.2766 -0.0755
  726MOL0     C95761   6.167   4.275   9.874  0.0708 -0.7771 -0.7515
  726MOL0     C95762   6.117   4.327   9.745 -0.1024  0.0773  0.4901
  726MOL0     C95763   6.024   4.440   9.753 -0.6641 -0.0048 -0.6506
  726MOL0     C95764   5.960   4.538   9.782  0.2280 -0.0171 -0.8140
  726MOL0     C95765   6.515   4.003   9.638  0.4717 -0.1875 -0.4650
  726MOL0     C95766   6.540   3.901   9.548  0.1719 -0.1734 -0.5410
  726MOL0     H95767   6.590   3.576   9.157 -1.0232 -0.0879  0.5207
  726MOL0     H95768   6.558   3.434   8.958 -0.7863 -1.1921  0.6596
  726MOL0     H95769   6.408   3.284   8.884 -0.0837  0.1751  0.0363
  726MOL0     H95770   6.459   3.299   8.723  0.8096 -0.0664 -0.2728
  726MOL0     H95771   6.276   3.143   8.711  1.1724  1.9066 -0.6891
  726MOL0     H95772   6.204   3.295   8.659 -0.6683 -1.2621 -1.5944
  726MOL0     H95773   6.118   3.328   8.887  1.9896  1.3871  1.1961
  726MOL0     H95774   6.193   3.172   8.934 -2.8945 -1.1783 -0.8374
  726MOL0     H95775   5.941   3.242   8.778 -0.2909  0.9743 -1.1114
  726MOL0     H95776   6.043   3.110   8.715 -2.8900 -3.8189  1.4362
  726MOL0     H95777   6.028   3.009   8.954  0.5952  2.8612  3.0347
  726MOL0     H95778   5.874   3.005   8.858  0.0917 -1.8576  2.8826
  726MOL0     H95779   5.937   3.235   9.053 -2.0802  2.3770 -1.6491
  726MOL0     H95780   5.899   3.082   9.121  2.1825  2.8184  1.6949
  726MOL0     H95781   5.741   3.259   8.933  0.6986 -2.9813 -2.5319
  726MOL0     H95782   5.675   3.098   8.967 -1.6043  1.6112  0.6359
  726MOL0     H95783   5.714   3.305   9.176 -1.1951  0.5897  0.4950
  726MOL0     H95784   5.635   3.139   9.201 -0.3433  0.5573  0.4775
  726MOL0     H95785   5.524   3.460   9.192 -1.9175  2.6526 -0.2744
  726MOL0     H95786   5.233   3.536   9.135 -0.2355 -1.1436 -0.6262
  726MOL0     H95787   5.230   3.542   8.958  3.5759 -3.8641 -0.7843
  726MOL0     H95788   5.458   3.659   9.128  0.1679 -0.4167 -1.5036
  726MOL0     H95789   5.337   3.766   9.061  1.7378  1.4742 -0.2575
  726MOL0     H95790   5.519   3.597   8.884 -2.0352  0.2832 -4.0748
  726MOL0     H95791   5.393   3.718   8.839 -3.9810 -1.8868  2.7358
  726MOL0     H95792   5.530   3.894   8.918 -1.3976 -1.4712 -1.7844
  726MOL0     H95793   5.655   3.795   8.838  0.0560 -3.2823 -0.8941
  726MOL0     H95794   5.802   3.616   8.906  4.2885 -2.2077 -0.4205
  726MOL0     H95795   5.962   3.479   9.007  3.2996 -0.0523  1.0948
  726MOL0     H95796   6.094   3.328   9.567 -0.0302  3.2320  2.1905
  726MOL0     H95797   6.274   3.198   9.642 -1.8678  0.9721 -1.4769
  726MOL0     H95798   6.649   3.470   9.663  1.2424 -0.8214  2.5905
  726MOL0     H95799   6.724   3.341   9.583 -0.7250  0.5167 -0.3713
  726MOL0     H95800   6.801   3.404   9.824  0.8624 -1.7797  0.1021
  726MOL0     H95801   6.735   3.236   9.836 -3.6363 -0.1276  2.8775
  726MOL0     H95802   6.532   3.336   9.910  1.6369 -1.8684 -2.7590
  726MOL0     H95803   6.600   3.493   9.885 -0.0433  0.0911  1.2683
  726MOL0     H95804   6.605   3.394  10.130  0.5401 -1.5371  0.4920
  726MOL0     H95805   6.734   3.288  10.076  3.2546  2.0249  0.4224
  726MOL0     H95806   6.748   3.584  10.047 -0.0236  0.8986  2.3285
  726MOL0     H95807   6.882   3.462  10.022  3.4451  0.3212  3.4421
  726MOL0     H95808   6.830   3.397  10.273 -1.9196  0.1034  0.6316
  726MOL0     H95809   6.732   3.547  10.286 -1.0771 -0.3621 -2.2823
  726MOL0     H95810   7.035   3.512  10.234 -1.0052 -1.3944 -3.5611
  726MOL0     H95811   6.946   3.649  10.180 -3.6944 -0.9371 -1.3806
  726MOL0     H95812   6.852   3.691  10.411  3.1477  4.5401 -0.2800
  726MOL0     H95813   7.030   3.685  10.416 -0.0893 -0.6369  1.3019
  726MOL0     H95814   6.535   3.514   9.504 -1.3663  1.5930 -0.2406
  726MOL0     H95815   6.323   3.637   9.409 -0.6517 -0.1475 -0.3419
  726MOL0     H95816   5.942   3.707   9.375 -2.9032  0.3558  0.6227
  726MOL0     H95817   5.760   3.838   9.276 -0.8806 -1.2533  0.8419
  726MOL0     H95818   6.220   3.681   8.851 -0.2306  1.1165  0.1344
  726MOL0     H95819   6.304   3.843   8.992 -0.1546 -0.8432 -3.1214
  726MOL0     H95820   6.430   4.048   9.266  2.3058  0.8656 -0.1316
  726MOL0     H95821   6.358   4.217   9.441 -1.3930 -0.4007  0.3118
  726MOL0     H95822   6.438   4.292   9.875  0.7096  0.6035 -0.0294
  726MOL0     H95823   6.476   4.128   9.861  1.8178  1.7841 -2.2069
  726MOL0     H95824   6.218   4.075   9.807  0.8186 -1.8310  2.2246
  726MOL0     H95825   6.269   4.117   9.957  0.7200  1.8296  0.5618
  726MOL0     H95826   6.210   4.364   9.922 -2.9420 -0.0452  0.8445
  726MOL0     H95827   6.080   4.240   9.929 -0.2994  0.2783 -0.6400
  726MOL0     H95828   6.198   4.359   9.678 -0.9230  1.9073  0.3073
  726MOL0     H95829   6.071   4.250   9.682 -0.8722  2.0309 -1.4509
  726MOL0     H95830   5.900   4.625   9.799 -2.6540 -1.4908 -2.4792
  726MOL0     H95831   6.545   3.987   9.741  1.6853  0.7361 -0.6597
  726MOL0     H95832   6.578   3.807   9.586  3.6371  0.9139 -0.9528
  727MOL0     O95833   9.087  10.941   4.179  0.3338 -0.4183 -0.2919
  727MOL0     C95834   9.043  11.039   4.240 -1.0783  0.0746 -0.9630
  727MOL0     O95835   8.977  11.037   4.355 -0.3830 -0.0472  0.0260
  727MOL0     C95836   8.939  10.910   4.405 -1.3056 -0.3771 -0.0852
  727MOL0     C95837   8.990  10.852   4.521 -0.1337  0.3014  0.3885
  727MOL0     C95838   8.929  10.736   4.567  0.1306  0.5001  0.1918
  727MOL0     C95839   8.828  10.669   4.498  0.1358  0.3432 -0.6433
  727MOL0     O95840   8.776  10.549   4.536 -0.0330  1.0320  0.5144
  727MOL0     C95841   8.865  10.440   4.547 -0.7433 -0.1582 -0.1944
  727MOL0     C95842   8.904  10.363   4.419  0.3840 -0.3524 -0.3454
  727MOL0     C95843   8.785  10.317   4.333 -0.2569 -0.7982 -0.3175
  727MOL0     C95844   8.683  10.225   4.407  0.1736  1.2798 -0.2314
  727MOL0     C95845   8.590  10.158   4.307 -0.4251  0.7611  0.2724
  727MOL0     C95846   8.650  10.024   4.268  0.1688  0.7530  0.9709
  727MOL0     C95847   8.544   9.949   4.183 -0.7576  0.2439 -0.6065
  727MOL0     C95848   8.581   9.799   4.158 -0.1886 -0.2020  0.1259
  727MOL0     N95849   8.461   9.730   4.103  0.1470  0.6081  0.4285
  727MOL0     C95850   8.328   9.766   4.084 -0.0506 -0.8127  0.1057
  727MOL0     C95851   8.268   9.678   4.003 -0.2610 -0.1120  0.6773
  727MOL0     C95852   8.131   9.682   3.944  0.4805  0.7537  0.0714
  727MOL0     C95853   8.110   9.823   3.877 -0.4708 -0.1820  0.3731
  727MOL0     C95854   7.966   9.815   3.818  0.2049 -0.6985  0.1875
  727MOL0     C95855   7.952   9.930   3.732 -0.3803 -0.0628 -0.4679
  727MOL0     O95856   7.915   9.902   3.595  0.6635 -0.7869 -0.9637
  727MOL0     C95857   7.782   9.868   3.580  0.5844  0.2297  1.0308
  727MOL0     C95858   7.676   9.850   3.679  0.2307  0.8977 -0.2277
  727MOL0     C95859   7.542   9.809   3.646 -0.0414 -0.7441  0.0975
  727MOL0     C95860   7.501   9.802   3.517  0.6072  0.2062 -0.5235
  727MOL0     C95861   7.364   9.738   3.475 -0.6017 -1.0205 -0.5874
  727MOL0     O95862   7.342   9.727   3.341  0.0639  0.2991 -0.4649
  727MOL0     C95863   7.217   9.693   3.307 -0.4322 -0.5133  0.6896
  727MOL0     C95864   7.129   9.791   3.271 -0.0437  0.1903 -0.0024
  727MOL0     C95865   7.001   9.751   3.231  0.5800 -0.3420  0.0508
  727MOL0     C95866   6.953   9.621   3.244 -0.2204 -0.0724  0.1329
  727MOL0     O95867   6.819   9.595   3.206 -0.0323 -0.7639  0.6869
  727MOL0     C95868   6.797   9.467   3.154  0.9813 -0.6573  1.2930
  727MOL0     C95869   6.882   9.431   3.037 -0.2644  0.7557  0.0138
  727MOL0     C95870   6.893   9.538   2.926 -0.7040 -0.7420  0.7635
  727MOL0     C95871   6.793   9.525   2.817  0.3210  0.1992 -1.3415
  727MOL0     C95872   6.798   9.641   2.719  0.2122  0.6848  0.3367
  727MOL0     C95873   6.690   9.613   2.612 -0.2022 -0.2876  0.3539
  727MOL0     C95874   6.656   9.740   2.523 -0.2507  0.3781  0.8811
  727MOL0     C95875   6.774   9.771   2.434  0.3169  0.0751  0.3207
  727MOL0    Cl95876   6.758   9.640   2.294  0.3003 -0.0673 -0.3051
  727MOL0     C95877   7.039   9.524   3.303 -0.1318 -0.5236  0.1077
  727MOL0     C95878   7.168   9.559   3.325 -0.7920 -0.1091 -0.0088
  727MOL0     O95879   7.291   9.713   3.566  0.0277 -1.2482  0.3875
  727MOL0     C95880   7.584   9.840   3.422  0.1617 -0.9096  0.0753
  727MOL0     C95881   7.723   9.864   3.452 -0.8914 -0.5817 -0.4858
  727MOL0     N95882   8.359   9.565   3.990 -0.1180 -0.2588  0.9648
  727MOL0     N95883   8.463   9.590   4.057  0.0731 -1.3037  1.0263
  727MOL0     C95884   8.775  10.729   4.379  0.4981  0.1461 -0.1286
  727MOL0     C95885   8.837  10.849   4.333  0.5391 -0.4709 -0.4012
  727MOL0     C95886   9.058  11.165   4.168 -0.9544 -0.6604  1.1818
  727MOL0     C95887   8.999  11.281   4.208  0.0131 -0.1240 -0.9123
  727MOL0     C95888   9.009  11.396   4.139  0.3298  0.0987  0.2549
  727MOL0     C95889   9.068  11.405   4.010 -0.2343 -0.0935 -0.1583
  727MOL0     O95890   9.084  11.532   3.961  0.5671  0.1921  0.3823
  727MOL0     C95891   9.112  11.562   3.820  0.5250 -0.6513  0.2766
  727MOL0     C95892   9.273  11.526   3.798  0.1087 -0.4787 -0.1508
  727MOL0     C95893   9.311  11.621   3.690  0.7414  0.1962  0.0788
  727MOL0     C95894   9.467  11.632   3.678 -0.1976 -1.0137  0.7115
  727MOL0     C95895   9.494  11.724   3.566  0.0905 -0.4815 -0.6094
  727MOL0     C95896   9.517  11.808   3.479 -0.1059  0.4361 -0.6704
  727MOL0     C95897   9.117  11.284   3.949 -1.1972 -0.1543  0.2068
  727MOL0     C95898   9.116  11.168   4.033 -0.1822 -0.7635 -0.3164
  727MOL0     H95899   9.064  10.913   4.572 -0.8908  1.3136  0.3045
  727MOL0     H95900   8.975  10.692   4.655  0.9822 -2.6450 -1.6489
  727MOL0     H95901   8.818  10.371   4.619 -1.7867 -1.2988 -1.8919
  727MOL0     H95902   8.959  10.471   4.592 -1.4292  3.5354 -0.9785
  727MOL0     H95903   8.966  10.275   4.441 -0.4679 -1.6384 -2.7515
  727MOL0     H95904   8.957  10.440   4.362 -1.0565  1.3057  0.4991
  727MOL0     H95905   8.813  10.270   4.239  0.7909  0.9418 -0.9112
  727MOL0     H95906   8.738  10.412   4.307 -1.7459 -0.3011  3.4791
  727MOL0     H95907   8.751  10.153   4.454  1.0182  2.0993 -0.1766
  727MOL0     H95908   8.633  10.272   4.493  2.9720  1.6618  1.3206
  727MOL0     H95909   8.577  10.198   4.207  0.6005  0.1952 -0.1067
  727MOL0     H95910   8.497  10.142   4.361  0.8524  0.5364  2.5390
  727MOL0     H95911   8.682   9.966   4.354  2.5875  2.5563  1.3768
  727MOL0     H95912   8.745  10.033   4.215  0.3434  0.5060  1.2377
  727MOL0     H95913   8.448   9.952   4.235 -1.5385 -1.2830 -1.8746
  727MOL0     H95914   8.529   9.992   4.083 -0.7991  1.5851 -0.0425
  727MOL0     H95915   8.605   9.743   4.249  0.2654 -1.0030 -0.4778
  727MOL0     H95916   8.663   9.792   4.087 -0.3241  0.8785 -0.1465
  727MOL0     H95917   8.286   9.860   4.116  0.1932 -0.3541 -0.8850
  727MOL0     H95918   8.055   9.653   4.018 -0.2458  0.5779 -0.7280
  727MOL0     H95919   8.116   9.615   3.860  1.0096  0.7722 -0.0420
  727MOL0     H95920   8.191   9.836   3.804  1.0381 -0.1653  1.9774
  727MOL0     H95921   8.131   9.905   3.946  0.8175  1.5754 -1.9515
  727MOL0     H95922   7.948   9.723   3.763 -1.8333 -1.4285  1.9384
  727MOL0     H95923   7.892   9.812   3.898  1.0565 -1.2440  0.9680
  727MOL0     H95924   8.050   9.976   3.714 -0.3590  0.8398  1.6958
  727MOL0     H95925   7.892  10.005   3.784 -0.2562 -1.5386  1.9650
  727MOL0     H95926   7.699   9.868   3.783  0.5994 -0.9866  0.0478
  727MOL0     H95927   7.479   9.783   3.730 -0.1347 -1.3196 -0.1466
  727MOL0     H95928   7.166   9.889   3.244  2.9093 -1.8954 -4.9997
  727MOL0     H95929   6.925   9.824   3.207 -0.7758 -1.2820  1.3273
  727MOL0     H95930   6.693   9.463   3.120  1.1153  0.0288  0.7757
  727MOL0     H95931   6.805   9.391   3.232 -0.9248 -1.0691  1.1338
  727MOL0     H95932   6.849   9.333   2.999 -2.4398  0.6860  1.8907
  727MOL0     H95933   6.975   9.402   3.087 -1.3322 -2.6212  0.3171
  727MOL0     H95934   6.988   9.543   2.872 -1.1776  2.0908  0.0206
  727MOL0     H95935   6.887   9.637   2.971 -1.9858  0.1124 -1.1169
  727MOL0     H95936   6.834   9.439   2.764  1.5486  1.0725 -1.8562
  727MOL0     H95937   6.696   9.513   2.866  2.0630  0.1318  2.5217
  727MOL0     H95938   6.894   9.639   2.667  0.1645 -2.4329  0.1730
  727MOL0     H95939   6.774   9.738   2.764 -0.5808  1.5051 -1.6860
  727MOL0     H95940   6.603   9.561   2.653 -2.1814  0.8075 -2.1350
  727MOL0     H95941   6.728   9.540   2.540 -0.5219 -0.3786  0.2715
  727MOL0     H95942   6.566   9.734   2.461  1.5961 -2.3591 -1.8985
  727MOL0     H95943   6.643   9.822   2.593 -1.1648 -0.3756  1.6176
  727MOL0     H95944   6.865   9.752   2.493 -0.1902 -1.8725  0.5209
  727MOL0     H95945   6.771   9.869   2.384 -2.6493 -1.9058 -3.9615
  727MOL0     H95946   7.007   9.423   3.328  3.3104 -2.0257 -0.9199
  727MOL0     H95947   7.246   9.498   3.368 -1.3629 -0.2507  0.8475
  727MOL0     H95948   7.557   9.839   3.316 -4.6879  0.1725  1.0439
  727MOL0     H95949   7.792   9.865   3.368 -0.8614 -0.8533 -0.4636
  727MOL0     H95950   8.692  10.678   4.331  0.6469 -1.6955  1.4483
  727MOL0     H95951   8.805  10.886   4.236 -1.2829 -1.9314 -0.4173
  727MOL0     H95952   8.937  11.287   4.296  0.0377 -1.3583 -0.7821
  727MOL0     H95953   8.964  11.483   4.185  0.5051 -0.6971  2.0253
  727MOL0     H95954   9.089  11.669   3.811 -0.2852 -0.7063  1.5282
  727MOL0     H95955   9.042  11.507   3.757  0.0891  2.5445 -2.3513
  727MOL0     H95956   9.337  11.552   3.883 -0.5519  1.2937 -0.1477
  727MOL0     H95957   9.283  11.425   3.757 -1.5072 -1.2170  1.1588
  727MOL0     H95958   9.266  11.718   3.715 -5.2411 -1.9692 -0.7676
  727MOL0     H95959   9.273  11.595   3.591 -0.5575  3.0740 -0.2998
  727MOL0     H95960   9.521  11.661   3.769 -0.7092  6.3442 -0.7124
  727MOL0     H95961   9.501  11.530   3.657 -2.4753 -2.0904  1.8525
  727MOL0     H95962   9.547  11.886   3.412  2.8076  0.6862  0.7701
  727MOL0     H95963   9.161  11.286   3.850  0.9148 -0.7191  1.0851
  727MOL0     H95964   9.162  11.087   3.978  1.8946  0.6607 -0.7616
  728MOL0     O95965   3.224   0.054   8.982  0.0646  0.6946 -0.4444
  728MOL0     C95966   3.148   0.127   8.919 -0.0465  0.4892 -0.1173
  728MOL0     O95967   3.039   0.091   8.848 -0.2269 -0.1721 -0.3277
  728MOL0     C95968   3.006  -0.042   8.842  0.0133  0.3547  0.5722
  728MOL0     C95969   2.869  -0.061   8.866  0.0530 -0.4037  0.2915
  728MOL0     C95970   2.816  -0.187   8.850 -0.5915 -0.4264 -0.1891
  728MOL0     C95971   2.901  -0.294   8.814  0.3415  0.8779 -0.1741
  728MOL0     O95972   2.851  -0.418   8.807 -0.0263  0.2176 -0.0223
  728MOL0     C95973   2.824  -0.465   8.945  0.1179 -0.7260  0.8308
  728MOL0     C95974   2.807  -0.614   8.930  0.1118  0.0487  0.4464
  728MOL0     C95975   2.669  -0.647   8.854 -0.0326  0.3710 -0.6000
  728MOL0     C95976   2.562  -0.622   8.951 -0.2005 -0.3172 -0.6937
  728MOL0     C95977   2.428  -0.630   8.883 -0.6004 -0.3166  0.4641
  728MOL0     C95978   2.394  -0.776   8.831 -0.4951  1.0914  0.3464
  728MOL0     C95979   2.253  -0.785   8.760  0.5376  0.2114  0.9660
  728MOL0     C95980   2.143  -0.796   8.867  0.5163  0.7367  1.6233
  728MOL0     N95981   2.023  -0.820   8.789  0.5487 -0.1069  0.7567
  728MOL0     C95982   1.926  -0.729   8.749 -0.4607 -0.1865  0.5091
  728MOL0     C95983   1.844  -0.795   8.662  0.1025 -0.9119  0.3201
  728MOL0     C95984   1.739  -0.737   8.573  0.1995 -0.0106 -0.2366
  728MOL0     C95985   1.622  -0.672   8.659 -0.3002 -0.2133  0.6559
  728MOL0     C95986   1.478  -0.725   8.627 -0.0394 -0.5694 -0.6172
  728MOL0     C95987   1.376  -0.651   8.702 -0.4733 -0.2508 -0.5874
  728MOL0     O95988   1.344  -0.533   8.620  0.2360  0.0192 -0.1782
  728MOL0     C95989   1.209  -0.504   8.599  0.3546 -0.7903 -0.3709
  728MOL0     C95990   1.121  -0.448   8.691 -0.2522 -0.0438  0.1674
  728MOL0     C95991   0.988  -0.431   8.664 -0.3241 -0.4268 -0.0388
  728MOL0     C95992   0.924  -0.492   8.550 -1.1415  0.6232 -0.2584
  728MOL0     C95993   0.787  -0.501   8.513  0.0321 -0.6541 -0.1184
  728MOL0     O95994   0.761  -0.535   8.385 -0.5071  0.3334  0.6832
  728MOL0     C95995   0.631  -0.554   8.349  0.5243  0.0890  0.2512
  728MOL0     C95996   0.585  -0.675   8.369 -0.3145 -0.2244  0.4263
  728MOL0     C95997   0.445  -0.695   8.361 -0.5478  0.1650  0.4431
  728MOL0     C95998   0.354  -0.596   8.334  0.8338  0.1825 -0.0193
  728MOL0     O95999   0.222  -0.630   8.320  0.1914  1.5011  1.3443
  728MOL0     C96000   0.125  -0.557   8.239  0.2505  0.4691 -0.0002
  728MOL0     C96001   0.148  -0.606   8.096  0.2053 -0.1130  0.1689
  728MOL0     C96002   0.050  -0.537   7.999 -0.5082  1.0020  0.0245
  728MOL0     C96003   0.039  -0.630   7.874 -1.1714 -1.1383 -1.5256
  728MOL0     C96004  -0.086  -0.597   7.799  0.3015 -1.0090 -0.7467
  728MOL0     C96005  -0.113  -0.705   7.698 -0.0281  0.1784  0.9128
  728MOL0     C96006  -0.243  -0.694   7.609 -0.5329 -0.6864 -0.4261
  728MOL0     C96007  -0.372  -0.763   7.668 -0.2376  1.4500  0.3362
  728MOL0    Cl96008  -0.484  -0.822   7.530 -0.1132  0.1608  0.0761
  728MOL0     C96009   0.402  -0.466   8.320  0.2727  0.3381  0.0546
  728MOL0     C96010   0.541  -0.442   8.328  0.7827  0.1857 -0.8236
  728MOL0     O96011   0.697  -0.483   8.600  0.2549  0.9635  0.2372
  728MOL0     C96012   1.017  -0.548   8.462  0.2680  0.1913 -0.2934
  728MOL0     C96013   1.157  -0.552   8.483  0.8342  0.5888  0.0525
  728MOL0     N96014   1.893  -0.923   8.666 -0.4189  0.6640  0.3798
  728MOL0     N96015   1.998  -0.943   8.740 -0.3204  0.0087 -0.3510
  728MOL0     C96016   3.034  -0.275   8.784  0.3582  0.1239  0.7150
  728MOL0     C96017   3.086  -0.144   8.796  0.2993  0.1139 -0.2181
  728MOL0     C96018   3.155   0.275   8.931 -0.1593 -0.0352  0.1544
  728MOL0     C96019   3.035   0.353   8.945  0.5317  0.9923 -0.9855
  728MOL0     C96020   3.038   0.486   8.925  0.2024 -0.4301  0.5852
  728MOL0     C96021   3.163   0.552   8.905  0.2516 -0.1997 -0.3850
  728MOL0     O96022   3.183   0.684   8.885 -0.1749 -0.3876  0.0617
  728MOL0     C96023   3.066   0.769   8.897  0.1125  0.0899 -0.5149
  728MOL0     C96024   3.102   0.913   8.870 -0.0047  0.8212  0.3281
  728MOL0     C96025   3.016   1.008   8.956  0.6209 -0.7045  0.1053
  728MOL0     C96026   3.008   1.155   8.896  0.6829  0.3013 -0.0848
  728MOL0     C96027   2.917   1.156   8.789  0.4751  0.2956  0.9675
  728MOL0     C96028   2.829   1.139   8.703  1.1383 -0.2719  0.0899
  728MOL0     C96029   3.278   0.480   8.911  1.2731  0.2107 -0.1085
  728MOL0     C96030   3.279   0.342   8.915 -0.4068 -0.3277 -0.4265
  728MOL0     H96031   2.805   0.020   8.899 -0.6139 -0.2944 -1.1781
  728MOL0     H96032   2.713  -0.213   8.875 -0.7435  0.1710 -0.1840
  728MOL0     H96033   2.736  -0.415   8.985 -0.1751  2.4923 -3.1644
  728MOL0     H96034   2.906  -0.440   9.013 -0.0124  1.8069  0.1729
  728MOL0     H96035   2.803  -0.671   9.023  2.4729 -1.1011 -0.0662
  728MOL0     H96036   2.884  -0.658   8.865 -2.8712 -4.2956 -0.5247
  728MOL0     H96037   2.667  -0.747   8.811 -1.1951  0.8907 -1.8328
  728MOL0     H96038   2.663  -0.580   8.767  2.0171 -2.0824 -2.7817
  728MOL0     H96039   2.557  -0.696   9.031 -0.5156  1.2265  0.7810
  728MOL0     H96040   2.571  -0.530   9.009  0.8669 -0.8101 -0.0449
  728MOL0     H96041   2.434  -0.548   8.810  1.6571 -0.8512 -0.0266
  728MOL0     H96042   2.356  -0.604   8.961  1.3339 -1.5827  2.7746
  728MOL0     H96043   2.399  -0.835   8.923 -0.8486  0.0995 -0.2513
  728MOL0     H96044   2.471  -0.821   8.768  1.3850  2.8844  1.2450
  728MOL0     H96045   2.234  -0.709   8.684  1.2430 -1.2866 -0.7833
  728MOL0     H96046   2.260  -0.877   8.700 -2.0674 -0.4875  1.5876
  728MOL0     H96047   2.129  -0.703   8.924  3.4469  1.9755  0.4869
  728MOL0     H96048   2.172  -0.877   8.935  2.4515 -0.7736 -0.8471
  728MOL0     H96049   1.915  -0.628   8.788 -2.9485 -0.3932  0.4952
  728MOL0     H96050   1.701  -0.817   8.509 -0.8215  0.5067 -0.3004
  728MOL0     H96051   1.782  -0.665   8.503  1.3755 -4.2652 -4.3694
  728MOL0     H96052   1.626  -0.563   8.651  2.2823 -0.2859  0.0413
  728MOL0     H96053   1.644  -0.693   8.764 -0.5642  0.4239  0.8421
  728MOL0     H96054   1.458  -0.713   8.520  1.3202 -2.1590 -1.0908
  728MOL0     H96055   1.465  -0.833   8.638  1.1069 -0.7631 -0.9845
  728MOL0     H96056   1.407  -0.635   8.806  1.2961 -2.8083 -0.6390
  728MOL0     H96057   1.285  -0.710   8.714  0.1775 -0.8414  1.9953
  728MOL0     H96058   1.171  -0.422   8.784 -0.4981 -1.3857  0.6967
  728MOL0     H96059   0.924  -0.372   8.730  1.5837  0.1098  1.4041
  728MOL0     H96060   0.651  -0.758   8.392  2.4680  1.5889 -0.4961
  728MOL0     H96061   0.405  -0.789   8.397 -0.2726 -0.3912 -0.6773
  728MOL0     H96062   0.142  -0.449   8.234  2.9669  0.0663 -0.7978
  728MOL0     H96063   0.021  -0.574   8.269  0.3937 -0.6953 -0.1037
  728MOL0     H96064   0.126  -0.714   8.096  0.1365 -0.1060 -0.6349
  728MOL0     H96065   0.251  -0.581   8.071  0.7357 -0.7531  1.6388
  728MOL0     H96066   0.080  -0.434   7.977  3.1118  0.4061  1.3917
  728MOL0     H96067  -0.051  -0.534   8.042 -0.8169 -0.9552 -0.4916
  728MOL0     H96068   0.127  -0.622   7.810 -1.1789 -0.2186 -1.4426
  728MOL0     H96069   0.026  -0.735   7.901 -1.8082 -0.5946  0.5064
  728MOL0     H96070  -0.095  -0.500   7.750 -1.9033  0.5177  2.3327
  728MOL0     H96071  -0.171  -0.602   7.868  0.2341 -0.6333 -0.8036
  728MOL0     H96072  -0.120  -0.797   7.757  2.2414 -0.0164  0.9780
  728MOL0     H96073  -0.029  -0.714   7.628 -1.2519 -0.3194 -0.5486
  728MOL0     H96074  -0.246  -0.588   7.586 -0.6406 -1.0212 -2.0549
  728MOL0     H96075  -0.211  -0.759   7.527 -2.0052 -1.0214 -0.7731
  728MOL0     H96076  -0.413  -0.700   7.748  1.0492 -0.8478  3.0307
  728MOL0     H96077  -0.339  -0.856   7.715 -1.3432  0.1938 -1.2863
  728MOL0     H96078   0.336  -0.387   8.286  3.0672  1.5510 -3.0948
  728MOL0     H96079   0.587  -0.347   8.304  3.8283 -0.9024  0.2318
  728MOL0     H96080   0.976  -0.593   8.372 -2.0113  0.7458  0.3949
  728MOL0     H96081   1.223  -0.599   8.411  0.3403  0.4424 -0.3051
  728MOL0     H96082   3.096  -0.359   8.754 -1.2213 -0.5777 -0.7523
  728MOL0     H96083   3.192  -0.130   8.781  0.5560 -2.4473 -1.2265
  728MOL0     H96084   2.942   0.306   8.976  2.1003  0.0106  2.8783
  728MOL0     H96085   2.945   0.542   8.918 -1.6756 -3.5678 -2.3180
  728MOL0     H96086   3.039   0.749   9.001  0.4588  0.9680 -0.2469
  728MOL0     H96087   2.986   0.736   8.830  1.6050 -1.7191 -1.5186
  728MOL0     H96088   3.208   0.923   8.897  0.5839 -1.2547 -0.9853
  728MOL0     H96089   3.106   0.936   8.763  0.3446  1.5476  0.4865
  728MOL0     H96090   3.058   1.015   9.056  0.1089  2.9434  0.2234
  728MOL0     H96091   2.923   0.955   8.976  1.0900 -2.4161 -1.8332
  728MOL0     H96092   2.966   1.224   8.970 -1.1486  0.0606 -0.8657
  728MOL0     H96093   3.100   1.204   8.863  0.6885  0.5151  0.2407
  728MOL0     H96094   2.751   1.112   8.635  2.6781 -1.0619 -1.4322
  728MOL0     H96095   3.379   0.520   8.900  1.6344 -1.2056 -3.3618
  728MOL0     H96096   3.379   0.301   8.928 -0.4600  0.0155  1.3548
  729MOL0     O96097   3.263   4.467  11.349  0.3660 -0.9062 -0.5694
  729MOL0     C96098   3.376   4.518  11.317  0.6938 -0.3077 -0.0610
  729MOL0     O96099   3.473   4.458  11.247  0.5090  0.2226 -0.2264
  729MOL0     C96100   3.469   4.337  11.178 -0.2146  0.2227 -0.3488
  729MOL0     C96101   3.378   4.242  11.200  0.7761  0.1500 -0.9771
  729MOL0     C96102   3.369   4.126  11.122  1.1647 -0.2731  0.5255
  729MOL0     C96103   3.442   4.117  11.008  0.0277 -0.2358 -0.4946
  729MOL0     O96104   3.448   4.013  10.922 -0.4128  0.8717  0.3930
  729MOL0     C96105   3.326   3.974  10.849 -0.7381  0.0149 -0.4527
  729MOL0     C96106   3.260   4.077  10.761 -0.3148  0.7912 -0.6948
  729MOL0     C96107   3.368   4.143  10.667  0.7235 -0.8865  0.6710
  729MOL0     C96108   3.299   4.248  10.575 -0.3720  0.4045 -0.6304
  729MOL0     C96109   3.383   4.291  10.461  0.0451 -0.2245 -0.2798
  729MOL0     C96110   3.524   4.337  10.500 -0.1777 -0.4897 -0.0349
  729MOL0     C96111   3.611   4.383  10.379  0.3077  0.4771  0.2042
  729MOL0     C96112   3.574   4.518  10.323 -0.2768  0.2832  0.0923
  729MOL0     N96113   3.655   4.568  10.217 -0.5321  0.6012  0.5419
  729MOL0     C96114   3.694   4.508  10.102  0.7016 -0.1276  0.2917
  729MOL0     C96115   3.795   4.586  10.051  0.8134 -0.2346 -0.8315
  729MOL0     C96116   3.866   4.556   9.922  0.5640 -0.1428  0.1385
  729MOL0     C96117   4.010   4.513   9.945 -0.1613 -0.1004 -0.4495
  729MOL0     C96118   4.081   4.523   9.808  0.0305 -0.3265 -1.1696
  729MOL0     C96119   4.131   4.668   9.777 -0.9062  0.3338  0.3661
  729MOL0     O96120   4.237   4.692   9.871  0.2123  0.2319 -0.2608
  729MOL0     C96121   4.249   4.785   9.972  0.1653  0.7077 -0.0435
  729MOL0     C96122   4.137   4.840  10.042  0.4577 -0.4991 -0.1811
  729MOL0     C96123   4.166   4.938  10.136  0.3533 -0.0845  0.4387
  729MOL0     C96124   4.294   4.978  10.169 -0.0223  0.0148  0.3323
  729MOL0     C96125   4.311   5.078  10.280 -0.0517  0.0123 -0.0307
  729MOL0     O96126   4.438   5.122  10.289  0.0057 -0.2699 -0.0893
  729MOL0     C96127   4.478   5.217  10.373  0.0375 -0.5057  0.5059
  729MOL0     C96128   4.615   5.220  10.403  0.1921  0.1650 -0.6288
  729MOL0     C96129   4.674   5.303  10.501  0.8993  0.7687  0.2699
  729MOL0     C96130   4.596   5.405  10.565  0.4083  0.2171  0.7903
  729MOL0     O96131   4.630   5.492  10.663  1.0645 -0.2043 -0.6586
  729MOL0     C96132   4.755   5.466  10.739  0.8630 -0.8901  0.0899
  729MOL0     C96133   4.886   5.508  10.672 -0.3790  0.0401  0.3753
  729MOL0     C96134   5.008   5.416  10.678  0.5994  0.6766 -0.5018
  729MOL0     C96135   5.107   5.498  10.598  0.5605  0.1806  0.4060
  729MOL0     C96136   5.244   5.456  10.609  0.7373 -0.1773  0.7393
  729MOL0     C96137   5.354   5.547  10.562  0.1856  0.8737 -0.3997
  729MOL0     C96138   5.493   5.487  10.596  0.8195  0.1005 -0.2979
  729MOL0     C96139   5.612   5.520  10.512 -0.2069 -0.8366  0.5611
  729MOL0    Cl96140   5.654   5.697  10.474 -0.3361  0.1275 -0.3338
  729MOL0     C96141   4.456   5.403  10.529  0.0251  0.0593 -0.1487
  729MOL0     C96142   4.402   5.316  10.434  1.1941 -0.3751  1.1725
  729MOL0     O96143   4.215   5.102  10.351 -0.3588 -0.4606 -0.3555
  729MOL0     C96144   4.401   4.908  10.105  0.0939 -0.4551 -0.1734
  729MOL0     C96145   4.385   4.816  10.000  0.1821 -0.3358 -1.2760
  729MOL0     N96146   3.828   4.688  10.134  0.0917  0.4391  0.5467
  729MOL0     N96147   3.740   4.681  10.236  0.3402 -0.5849  0.2195
  729MOL0     C96148   3.533   4.219  10.980 -0.2143 -0.7632 -1.2496
  729MOL0     C96149   3.543   4.332  11.067 -0.2734  0.3898  0.5825
  729MOL0     C96150   3.405   4.661  11.355 -0.3347  0.5083 -0.1090
  729MOL0     C96151   3.321   4.722  11.448  0.3887 -0.5261  0.5512
  729MOL0     C96152   3.321   4.868  11.465  0.4303 -0.0107 -0.4685
  729MOL0     C96153   3.393   4.939  11.379  0.1349 -0.2354  0.2378
  729MOL0     O96154   3.386   5.078  11.359 -0.0329 -0.3277  0.4078
  729MOL0     C96155   3.269   5.144  11.403  0.0484 -0.4484  0.2790
  729MOL0     C96156   3.226   5.256  11.302 -0.6638 -0.6142  0.4785
  729MOL0     C96157   3.175   5.188  11.180 -0.5743  0.8371  0.1230
  729MOL0     C96158   3.043   5.102  11.193 -1.0353  0.4844  0.6204
  729MOL0     C96159   3.011   5.064  11.054 -0.3462  0.1452 -0.4510
  729MOL0     C96160   2.980   5.008  10.954  0.4774  0.8083  0.1894
  729MOL0     C96161   3.491   4.874  11.299 -0.0918 -0.8363 -0.9278
  729MOL0     C96162   3.499   4.742  11.284 -0.0272 -0.9818 -0.2175
  729MOL0     H96163   3.311   4.247  11.285  0.1699  3.0101 -1.5231
  729MOL0     H96164   3.311   4.045  11.165  2.8433 -1.0197  1.4960
  729MOL0     H96165   3.251   3.932  10.916 -1.0867 -4.8070 -3.4031
  729MOL0     H96166   3.346   3.892  10.779  1.5506  0.5261 -0.4981
  729MOL0     H96167   3.203   4.155  10.812  0.3579  3.5010 -3.7275
  729MOL0     H96168   3.184   4.029  10.699  1.5105 -3.4644 -0.0091
  729MOL0     H96169   3.421   4.076  10.600  1.3856  0.1075  0.1802
  729MOL0     H96170   3.440   4.192  10.734 -1.7207 -0.7359  3.4093
  729MOL0     H96171   3.209   4.201  10.534 -0.5387  1.7720 -1.9205
  729MOL0     H96172   3.277   4.338  10.634 -0.5825  1.7590 -2.6649
  729MOL0     H96173   3.336   4.370  10.403 -0.8212 -1.6632 -1.6001
  729MOL0     H96174   3.380   4.214  10.384  1.8068 -1.1408  0.5104
  729MOL0     H96175   3.574   4.254  10.551  2.5575  0.9977 -0.1073
  729MOL0     H96176   3.515   4.419  10.572  0.7659 -0.2857 -0.1392
  729MOL0     H96177   3.719   4.387  10.397  1.1048  0.4811 -3.6814
  729MOL0     H96178   3.601   4.313  10.296  3.5532 -0.6510  0.6208
  729MOL0     H96179   3.593   4.591  10.402  0.1128 -1.5010  1.7290
  729MOL0     H96180   3.469   4.524  10.294 -1.6262 -0.0093  4.2201
  729MOL0     H96181   3.645   4.429  10.046 -0.2709  1.1750 -0.7469
  729MOL0     H96182   3.849   4.643   9.858  1.5785 -0.5795 -0.7527
  729MOL0     H96183   3.815   4.473   9.871 -1.5445 -2.1920  4.9392
  729MOL0     H96184   4.004   4.408   9.975  4.4674 -0.2371  0.7251
  729MOL0     H96185   4.063   4.567  10.024 -0.5869 -0.0752 -0.1735
  729MOL0     H96186   4.168   4.457   9.810 -2.8210 -4.5084 -1.8906
  729MOL0     H96187   4.014   4.482   9.733 -1.4203  1.4138 -0.8921
  729MOL0     H96188   4.044   4.735   9.781  0.4051  2.2772 -1.5538
  729MOL0     H96189   4.173   4.673   9.676 -2.5471 -0.3008 -0.3775
  729MOL0     H96190   4.039   4.804  10.010  1.6787 -2.8406 -1.6002
  729MOL0     H96191   4.073   4.974  10.179 -0.7235  1.2921 -2.7145
  729MOL0     H96192   4.694   5.164  10.354  1.5857  2.1847 -0.8098
  729MOL0     H96193   4.779   5.284  10.524  0.7261  0.0910  0.5322
  729MOL0     H96194   4.751   5.358  10.758  0.1247 -0.5185  2.2989
  729MOL0     H96195   4.762   5.505  10.841  1.4983  0.3767 -0.4200
  729MOL0     H96196   4.913   5.609  10.705  1.3451  0.1066 -1.0987
  729MOL0     H96197   4.865   5.514  10.565 -1.1501 -0.2850  0.5018
  729MOL0     H96198   4.971   5.318  10.648 -2.3237 -0.0364  4.3232
  729MOL0     H96199   5.044   5.402  10.781  0.6328  1.1945 -0.4388
  729MOL0     H96200   5.076   5.510  10.493  2.2792  0.7330 -0.0632
  729MOL0     H96201   5.105   5.597  10.643  2.1256  0.6511 -0.4836
  729MOL0     H96202   5.257   5.357  10.563 -0.0988  0.2065 -0.3702
  729MOL0     H96203   5.271   5.436  10.713  0.1507 -1.6317  0.6374
  729MOL0     H96204   5.356   5.650  10.601 -2.4165  2.0524 -3.0062
  729MOL0     H96205   5.353   5.555  10.453 -0.4593 -4.0930 -0.9784
  729MOL0     H96206   5.508   5.507  10.703 -1.1630  1.2539 -0.1646
  729MOL0     H96207   5.486   5.379  10.581  0.3520  0.2400 -1.1749
  729MOL0     H96208   5.616   5.466  10.417 -2.2033 -1.6427  0.8752
  729MOL0     H96209   5.692   5.481  10.576  1.9300  0.3901 -1.2467
  729MOL0     H96210   4.400   5.476  10.586  4.3761  3.4056  0.3671
  729MOL0     H96211   4.297   5.332  10.412  1.4055  0.9515  1.0370
  729MOL0     H96212   4.500   4.929  10.143 -0.0039  0.3516 -0.3406
  729MOL0     H96213   4.471   4.765   9.959  1.3011  0.5932 -0.1637
  729MOL0     H96214   3.598   4.212  10.894 -0.2192  0.6963 -1.3968
  729MOL0     H96215   3.618   4.407  11.046  2.8201 -2.8113 -0.9248
  729MOL0     H96216   3.244   4.672  11.506 -3.1578  2.7143 -0.9618
  729MOL0     H96217   3.253   4.913  11.537  0.8630 -0.0177 -0.0465
  729MOL0     H96218   3.302   5.190  11.497  0.0716  1.2865 -0.5426
  729MOL0     H96219   3.183   5.078  11.418  0.1782 -0.5406  0.6131
  729MOL0     H96220   3.157   5.331  11.341 -2.4449 -1.0015 -1.7421
  729MOL0     H96221   3.317   5.312  11.278 -0.3535 -0.9981  0.7493
  729MOL0     H96222   3.260   5.127  11.148  1.7529  2.8372  2.0458
  729MOL0     H96223   3.165   5.273  11.112  0.6533  2.3623  1.7392
  729MOL0     H96224   3.067   5.012  11.250  0.6149 -0.7675 -1.8760
  729MOL0     H96225   2.959   5.156  11.238 -1.3878  0.4957 -0.0268
  729MOL0     H96226   2.947   4.959  10.865  0.4955 -1.9759  1.5936
  729MOL0     H96227   3.563   4.938  11.247 -1.9323  1.0361 -1.3209
  729MOL0     H96228   3.574   4.704  11.216  0.8823  0.4107 -0.0195
  730MOL0     O96229   9.944   0.177   7.753  0.1883  0.4751  0.0525
  730MOL0     C96230   9.877   0.277   7.732 -0.6398 -0.4370 -0.8138
  730MOL0     O96231   9.770   0.278   7.652  0.5381  0.7077 -0.0498
  730MOL0     C96232   9.722   0.158   7.589  0.3372 -0.5976  0.0241
  730MOL0     C96233   9.638   0.076   7.657 -0.4025  0.3530  0.3860
  730MOL0     C96234   9.580  -0.040   7.607 -0.6167 -0.0452 -0.0416
  730MOL0     C96235   9.588  -0.076   7.476 -0.1407 -0.3435 -0.0637
  730MOL0     O96236   9.520  -0.185   7.433 -0.4365  0.6654 -0.6015
  730MOL0     C96237   9.586  -0.274   7.334  0.9197 -0.6848 -0.8495
  730MOL0     C96238   9.722  -0.343   7.384  1.0181 -0.3626  0.1130
  730MOL0     C96239   9.755  -0.470   7.320 -0.3399  0.1144 -0.1561
  730MOL0     C96240   9.667  -0.585   7.364 -0.1067 -0.0083 -0.1465
  730MOL0     C96241   9.679  -0.700   7.257 -0.2140 -0.0335 -0.8564
  730MOL0     C96242   9.604  -0.827   7.291 -0.4060  0.1008  0.4743
  730MOL0     C96243   9.594  -0.908   7.156 -0.0414 -0.8715 -0.4942
  730MOL0     C96244   9.544  -1.045   7.184  0.3602 -0.1119 -0.0575
  730MOL0     N96245   9.415  -1.064   7.252 -0.6699 -0.2037  0.8880
  730MOL0     C96246   9.392  -1.118   7.378  0.1887 -0.4046 -0.1473
  730MOL0     C96247   9.262  -1.094   7.398 -0.4251  0.5480 -1.0756
  730MOL0     C96248   9.198  -1.117   7.532 -0.0311  0.0499 -0.7092
  730MOL0     C96249   9.056  -1.159   7.507  1.2523  0.3194  0.1022
  730MOL0     C96250   8.983  -1.218   7.632  0.4116 -0.3359  0.0413
  730MOL0     C96251   8.989  -1.140   7.763 -0.1953  0.6868 -0.8462
  730MOL0     O96252   9.116  -1.167   7.834  0.2712 -0.6176 -1.1041
  730MOL0     C96253   9.181  -1.082   7.923  0.8053  0.1583  0.4098
  730MOL0     C96254   9.271  -1.139   8.015  1.1181 -0.8432  0.0712
  730MOL0     C96255   9.328  -1.052   8.118  0.8134  0.0130  1.9420
  730MOL0     C96256   9.288  -0.919   8.132 -0.1643  0.2172 -0.1894
  730MOL0     C96257   9.349  -0.826   8.238  1.2499 -0.3193  0.4954
  730MOL0     O96258   9.395  -0.868   8.354 -0.0891 -0.5069  0.3963
  730MOL0     C96259   9.411  -0.778   8.457 -0.3846 -0.2476  0.3966
  730MOL0     C96260   9.332  -0.666   8.482  0.5866  0.3629 -0.3144
  730MOL0     C96261   9.358  -0.574   8.583 -0.6403  0.5665 -1.0594
  730MOL0     C96262   9.475  -0.586   8.662  0.1366 -0.3389 -0.0640
  730MOL0     O96263   9.517  -0.508   8.766  1.0429 -0.7432 -0.1637
  730MOL0     C96264   9.417  -0.409   8.824 -0.3272  0.7455  0.1742
  730MOL0     C96265   9.304  -0.466   8.921 -1.1873  0.4609  0.4583
  730MOL0     C96266   9.258  -0.352   9.010 -0.1288  0.3908 -1.0200
  730MOL0     C96267   9.148  -0.375   9.108 -0.5093 -0.9915  0.1414
  730MOL0     C96268   9.127  -0.271   9.224 -0.1354 -0.4807  0.4648
  730MOL0     C96269   9.083  -0.130   9.156 -0.7640 -0.1410 -0.2884
  730MOL0     C96270   9.064  -0.036   9.277  0.6292 -0.4481 -0.3589
  730MOL0     C96271   9.060   0.117   9.235 -0.0078  0.2237 -0.2656
  730MOL0    Cl96272   8.909   0.141   9.154 -0.2202 -0.1540  0.3161
  730MOL0     C96273   9.552  -0.694   8.635  0.0413 -0.7088 -0.3540
  730MOL0     C96274   9.527  -0.791   8.536 -0.6013  0.9608  0.0567
  730MOL0     O96275   9.354  -0.708   8.204  0.9966 -0.1896  0.1323
  730MOL0     C96276   9.207  -0.870   8.035  0.3920  0.3853  0.1473
  730MOL0     C96277   9.147  -0.941   7.931  0.5373 -0.3732  0.4868
  730MOL0     N96278   9.216  -1.025   7.295  0.5067  0.8265 -0.2285
  730MOL0     N96279   9.308  -0.995   7.207 -0.3959  0.7121 -0.3519
  730MOL0     C96280   9.656   0.019   7.391  0.6551 -0.7002 -0.8279
  730MOL0     C96281   9.726   0.137   7.447 -0.1331  0.5991 -0.2070
  730MOL0     C96282   9.918   0.403   7.809 -0.8036  1.0192 -0.6738
  730MOL0     C96283   9.881   0.525   7.763  0.1009 -0.9931  0.2122
  730MOL0     C96284   9.930   0.639   7.833  0.1394  0.0287  0.7342
  730MOL0     C96285  10.021   0.618   7.931 -0.3268  0.2513 -0.5893
  730MOL0     O96286  10.074   0.732   7.991  0.8101  0.1964  0.6716
  730MOL0     C96287  10.182   0.727   8.081 -0.7142  0.5123 -1.0001
  730MOL0     C96288  10.259   0.863   8.079 -0.5002 -0.9733  0.5655
  730MOL0     C96289  10.188   0.970   8.160 -0.3324  0.4375  0.1693
  730MOL0     C96290  10.160   0.950   8.310  0.2684 -0.5494  0.3013
  730MOL0     C96291  10.137   1.082   8.371  0.4908  0.8382 -0.0963
  730MOL0     C96292  10.099   1.193   8.411  0.8269 -0.0144 -0.3455
  730MOL0     C96293  10.058   0.490   7.975  1.0058 -0.0234  0.2936
  730MOL0     C96294   9.995   0.383   7.913 -0.9936  0.0497 -0.5328
  730MOL0     H96295   9.612   0.099   7.760 -2.0393 -3.6375  1.0366
  730MOL0     H96296   9.524  -0.096   7.681 -0.4355  0.2792  0.3427
  730MOL0     H96297   9.587  -0.214   7.243 -1.1662  2.8965  1.2667
  730MOL0     H96298   9.506  -0.347   7.318 -1.6720  1.7834  0.0558
  730MOL0     H96299   9.732  -0.354   7.492 -0.6726 -0.0834  0.3162
  730MOL0     H96300   9.804  -0.275   7.358  0.9262 -0.5594 -0.7372
  730MOL0     H96301   9.862  -0.479   7.344 -0.8550 -1.8220  1.6794
  730MOL0     H96302   9.749  -0.446   7.213  1.3253  2.2736  0.1384
  730MOL0     H96303   9.699  -0.611   7.465 -0.7771 -2.4476 -0.5122
  730MOL0     H96304   9.561  -0.559   7.366  0.4069  2.3721 -0.0260
  730MOL0     H96305   9.787  -0.718   7.251  0.0376  1.4363 -1.2320
  730MOL0     H96306   9.648  -0.656   7.162 -1.0500  2.4903  0.4905
  730MOL0     H96307   9.504  -0.813   7.331  0.2832 -0.2331  2.4044
  730MOL0     H96308   9.670  -0.880   7.361  0.3833  0.4597  0.0201
  730MOL0     H96309   9.536  -0.849   7.085  1.5080  4.7216  2.2942
  730MOL0     H96310   9.696  -0.914   7.116  0.1982  0.6488 -0.1840
  730MOL0     H96311   9.612  -1.092   7.256 -1.2104  0.1090  1.6131
  730MOL0     H96312   9.542  -1.099   7.088 -1.2330  0.7819 -0.5624
  730MOL0     H96313   9.461  -1.174   7.441  0.7900  1.4831  0.9764
  730MOL0     H96314   9.193  -1.022   7.587 -2.0581 -0.9442  0.9504
  730MOL0     H96315   9.252  -1.192   7.590 -0.9532 -0.8374 -0.9884
  730MOL0     H96316   9.062  -1.242   7.436  1.4219  0.3591  0.0701
  730MOL0     H96317   8.996  -1.079   7.462  1.6809  0.1256 -0.8375
  730MOL0     H96318   8.878  -1.223   7.604  0.4697  4.1447 -1.7009
  730MOL0     H96319   9.013  -1.322   7.647  0.0033 -0.4132  0.3174
  730MOL0     H96320   8.896  -1.160   7.818  0.1005  0.8894 -0.2642
  730MOL0     H96321   8.971  -1.032   7.752  1.7659  1.4105  1.9380
  730MOL0     H96322   9.301  -1.243   8.008 -0.2043 -1.3952  1.6492
  730MOL0     H96323   9.389  -1.097   8.195  0.4868 -2.1746  1.0059
  730MOL0     H96324   9.249  -0.639   8.417  0.2985 -0.7096 -0.3994
  730MOL0     H96325   9.285  -0.496   8.606  0.5248  1.1168  1.0158
  730MOL0     H96326   9.362  -0.349   8.750 -0.9441 -1.2530 -1.0900
  730MOL0     H96327   9.464  -0.332   8.886  0.0574  0.4085  0.3025
  730MOL0     H96328   9.346  -0.553   8.971 -0.3196 -0.0305 -1.0634
  730MOL0     H96329   9.217  -0.493   8.860 -2.2780  0.1803  2.0589
  730MOL0     H96330   9.223  -0.268   8.949  0.5459  3.5154  2.4502
  730MOL0     H96331   9.333  -0.321   9.085 -1.7648  1.5005  0.2367
  730MOL0     H96332   9.049  -0.389   9.063 -1.6208  1.8897  1.4416
  730MOL0     H96333   9.174  -0.468   9.160  0.1973 -0.3447  0.9931
  730MOL0     H96334   9.212  -0.256   9.291  0.9346  0.5439 -1.0232
  730MOL0     H96335   9.042  -0.304   9.283 -1.0513  3.3427  1.5904
  730MOL0     H96336   8.984  -0.130   9.110 -1.2816  0.4045  0.8100
  730MOL0     H96337   9.160  -0.101   9.084  1.4837 -2.4076  1.0256
  730MOL0     H96338   8.974  -0.066   9.333  1.7453  0.5881  2.1625
  730MOL0     H96339   9.148  -0.055   9.344  1.5850 -1.3545 -1.7779
  730MOL0     H96340   9.154   0.146   9.186  1.5437 -0.6373  2.0065
  730MOL0     H96341   9.057   0.165   9.333 -1.9589  1.3417 -0.8115
  730MOL0     H96342   9.643  -0.704   8.694  1.0958 -0.7773 -1.9304
  730MOL0     H96343   9.604  -0.867   8.526 -0.8252  0.7666 -0.2207
  730MOL0     H96344   9.184  -0.765   8.028 -0.4313  0.0770 -3.0089
  730MOL0     H96345   9.068  -0.884   7.885  0.4504  2.0451  3.3196
  730MOL0     H96346   9.682  -0.004   7.288 -1.6227 -1.3328 -1.3174
  730MOL0     H96347   9.783   0.208   7.388  0.6320  0.6069  0.5273
  730MOL0     H96348   9.822   0.533   7.673 -0.3869  1.1364  0.6456
  730MOL0     H96349   9.894   0.738   7.805 -2.4236 -1.9350 -4.3253
  730MOL0     H96350  10.242   0.635   8.083 -0.9608  0.3543 -0.5687
  730MOL0     H96351  10.118   0.714   8.169  0.9273 -0.2095  0.1547
  730MOL0     H96352  10.358   0.856   8.124  0.4139 -0.0667 -1.1820
  730MOL0     H96353  10.270   0.902   7.977 -1.5259 -1.9216  0.0690
  730MOL0     H96354  10.090   0.992   8.117 -0.2150  0.8229  0.0948
  730MOL0     H96355  10.250   1.060   8.160  1.5561 -0.7837  1.5335
  730MOL0     H96356  10.078   0.881   8.332  1.5963 -2.1229  0.5628
  730MOL0     H96357  10.254   0.911   8.352  1.2249  2.7233  1.5186
  730MOL0     H96358  10.058   1.283   8.451  0.8180 -1.1785  2.5120
  730MOL0     H96359  10.118   0.465   8.062 -2.1657  0.5806  2.8563
  730MOL0     H96360  10.035   0.291   7.954  3.1061  2.4254  1.4453
  731MOL0     O96361   1.254   9.755   3.123 -0.1544 -0.3178 -0.1976
  731MOL0     C96362   1.270   9.727   3.005 -0.5570 -0.2593 -0.3562
  731MOL0     O96363   1.179   9.742   2.910 -0.7859 -0.4941  0.4075
  731MOL0     C96364   1.055   9.795   2.934  0.1453  0.4347 -0.0501
  731MOL0     C96365   1.023   9.924   2.909 -0.0983 -1.3561  0.6223
  731MOL0     C96366   0.899   9.976   2.952  0.5505  0.5357  1.3050
  731MOL0     C96367   0.798   9.893   3.001  1.1131  0.6249 -0.0432
  731MOL0     O96368   0.672   9.955   3.017 -0.4739 -0.1399 -0.0185
  731MOL0     C96369   0.555   9.880   3.002  1.0292 -0.5185  0.5379
  731MOL0     C96370   0.440   9.980   2.978  0.3130  0.0382 -0.3475
  731MOL0     C96371   0.476  10.093   2.872  0.2350  0.5855 -0.3512
  731MOL0     C96372   0.584  10.196   2.908 -0.8375  0.6236  0.2614
  731MOL0     C96373   0.557  10.341   2.847  0.2366  0.4257 -0.3102
  731MOL0     C96374   0.491  10.436   2.942  0.0235  1.5669 -0.3534
  731MOL0     C96375   0.372  10.524   2.896  0.0156 -0.1814  0.9154
  731MOL0     C96376   0.405  10.634   2.797 -0.0080 -0.1414 -0.5566
  731MOL0     N96377   0.424  10.583   2.662 -0.4293 -0.6121  0.5347
  731MOL0     C96378   0.353  10.488   2.587 -1.0390  0.3206 -1.0379
  731MOL0     C96379   0.422  10.458   2.479 -1.0802 -0.5655  0.7592
  731MOL0     C96380   0.377  10.363   2.368 -0.8107 -0.1943 -0.8004
  731MOL0     C96381   0.430  10.223   2.402  0.1764  0.4066  0.2242
  731MOL0     C96382   0.417  10.113   2.303  0.6765  0.6066  0.5840
  731MOL0     C96383   0.269  10.087   2.268  0.0315 -0.1225  0.1876
  731MOL0     O96384   0.191  10.072   2.386  0.3085 -0.6448 -0.5010
  731MOL0     C96385   0.047  10.075   2.371 -1.0638  1.4285 -0.0359
  731MOL0     C96386  -0.014  10.024   2.253 -0.2150  0.2964 -0.5419
  731MOL0     C96387  -0.151   9.992   2.251  1.2808 -0.9418  0.0751
  731MOL0     C96388  -0.232  10.028   2.363  0.5350  0.7495  0.3994
  731MOL0     C96389  -0.377   9.998   2.366  0.1907 -0.4266 -0.8991
  731MOL0     O96390  -0.437  10.007   2.490  0.6260  0.9241 -0.0713
  731MOL0     C96391  -0.574  10.008   2.498 -0.3023 -0.1069  0.1222
  731MOL0     C96392  -0.653  10.084   2.411 -0.0259 -0.1409  0.5398
  731MOL0     C96393  -0.791  10.101   2.438 -0.6612  0.2970  0.0837
  731MOL0     C96394  -0.850  10.024   2.531 -0.4158 -0.2164 -0.0440
  731MOL0     O96395  -0.987  10.015   2.559  0.2079 -0.7287  0.4998
  731MOL0     C96396  -1.046  10.136   2.559  0.3800  0.2244 -0.1402
  731MOL0     C96397  -1.198  10.112   2.595  0.7774 -0.5050  0.9189
  731MOL0     C96398  -1.280  10.041   2.489  0.3311 -0.5694 -0.1408
  731MOL0     C96399  -1.412  10.104   2.470 -0.4016  0.8924  0.5173
  731MOL0     C96400  -1.504  10.067   2.350 -0.6013 -0.5402 -1.0007
  731MOL0     C96401  -1.592   9.947   2.382 -0.2805  0.0906  0.9039
  731MOL0     C96402  -1.710   9.994   2.481  0.5237  1.1461 -0.4322
  731MOL0     C96403  -1.812   9.887   2.513  0.0344  0.1291  0.2701
  731MOL0    Cl96404  -1.883   9.925   2.672 -0.0245 -0.0285 -0.0299
  731MOL0     C96405  -0.766   9.946   2.618  0.6342  0.5920  0.1711
  731MOL0     C96406  -0.631   9.944   2.600 -0.2059  0.7123 -0.1123
  731MOL0     O96407  -0.437   9.963   2.267 -0.3060  0.9158  0.1486
  731MOL0     C96408  -0.167  10.087   2.475  0.1175 -1.0162 -0.2530
  731MOL0     C96409  -0.030  10.100   2.478  0.6651 -0.5168  0.0535
  731MOL0     N96410   0.537  10.545   2.480 -0.2426 -0.6645  0.0271
  731MOL0     N96411   0.543  10.608   2.592 -0.2199 -0.0659  0.2583
  731MOL0     C96412   0.830   9.757   3.011  0.7308  0.1232  0.0524
  731MOL0     C96413   0.957   9.703   2.985 -0.5885  0.3694  0.6714
  731MOL0     C96414   1.404   9.657   2.994 -0.0892 -1.5569  0.6688
  731MOL0     C96415   1.444   9.567   3.094 -0.5647  0.7435  0.2884
  731MOL0     C96416   1.574   9.507   3.090  0.3617  0.0282 -0.2265
  731MOL0     C96417   1.663   9.533   2.981 -0.1115 -0.1194 -0.1047
  731MOL0     O96418   1.784   9.466   2.982  0.1603 -0.8141 -0.0817
  731MOL0     C96419   1.895   9.509   2.892  0.0744  0.6701  0.1185
  731MOL0     C96420   1.984   9.612   2.956  1.2207 -0.4767 -0.7658
  731MOL0     C96421   2.022   9.586   3.103  0.4142 -0.2358  0.8541
  731MOL0     C96422   2.130   9.683   3.141 -0.6594 -0.1400 -0.4246
  731MOL0     C96423   2.156   9.656   3.284  0.5573 -0.2350 -0.3568
  731MOL0     C96424   2.210   9.649   3.396  0.1203  0.8548 -0.4768
  731MOL0     C96425   1.617   9.614   2.878  0.7624 -0.0761 -0.1088
  731MOL0     C96426   1.490   9.677   2.882  0.0916 -0.7591  0.6589
  731MOL0     H96427   1.085   9.993   2.853 -2.0132  0.4781  0.6345
  731MOL0     H96428   0.878  10.081   2.933  1.9528  0.8541  1.4149
  731MOL0     H96429   0.532   9.821   3.091 -2.4277 -0.0820  0.0532
  731MOL0     H96430   0.552   9.805   2.923 -1.4201  1.5740 -1.5390
  731MOL0     H96431   0.392  10.014   3.071 -2.1215 -3.6649 -0.0551
  731MOL0     H96432   0.364   9.921   2.928 -0.1546 -0.3388  0.7691
  731MOL0     H96433   0.379  10.139   2.851 -1.2716 -1.5247  1.5751
  731MOL0     H96434   0.520  10.040   2.786 -0.8490  0.5173 -0.8819
  731MOL0     H96435   0.574  10.217   3.015 -1.2685  2.2810 -0.0762
  731MOL0     H96436   0.690  10.170   2.896 -0.8704 -0.2127  1.5734
  731MOL0     H96437   0.497  10.322   2.758 -1.2904 -1.0721  0.9801
  731MOL0     H96438   0.655  10.383   2.821  1.2474 -0.9907  1.0347
  731MOL0     H96439   0.571  10.499   2.983  3.0075 -3.0162  1.5809
  731MOL0     H96440   0.443  10.379   3.022 -0.3886 -1.1151 -2.3765
  731MOL0     H96441   0.317  10.442   2.848  2.0168 -0.6303 -0.7713
  731MOL0     H96442   0.326  10.574   2.982 -1.3343 -0.2167  0.2525
  731MOL0     H96443   0.492  10.686   2.838 -0.6737 -0.3995  1.2841
  731MOL0     H96444   0.321  10.704   2.786 -0.7824 -1.3289 -3.1458
  731MOL0     H96445   0.268  10.428   2.620  0.3912 -0.5310  1.3953
  731MOL0     H96446   0.423  10.393   2.273 -1.8846  0.7842 -1.0291
  731MOL0     H96447   0.268  10.371   2.357 -0.5820  2.1683 -1.9675
  731MOL0     H96448   0.372  10.192   2.489 -2.0035  1.4436 -0.7705
  731MOL0     H96449   0.538  10.227   2.414  0.6693  0.9553 -3.2817
  731MOL0     H96450   0.472  10.133   2.210 -0.3290  0.1927 -0.1220
  731MOL0     H96451   0.454  10.020   2.347 -3.4616 -1.1638  0.7708
  731MOL0     H96452   0.256   9.991   2.217  3.4064 -0.8799  0.5653
  731MOL0     H96453   0.236  10.179   2.218 -0.3318  1.1681  2.6534
  731MOL0     H96454   0.044   9.994   2.166 -0.7981 -0.9337 -0.5377
  731MOL0     H96455  -0.193   9.935   2.169  2.6879  0.3228 -1.5917
  731MOL0     H96456  -0.609  10.149   2.336  0.6824 -1.7717 -0.5133
  731MOL0     H96457  -0.842  10.143   2.352 -1.0018  0.7701  0.5113
  731MOL0     H96458  -1.031  10.205   2.475  2.7708 -0.7270 -0.5668
  731MOL0     H96459  -1.014  10.184   2.651  0.1301 -0.8626  0.5324
  731MOL0     H96460  -1.240  10.210   2.616 -0.3854 -1.2513  2.2273
  731MOL0     H96461  -1.214  10.044   2.679 -2.5010 -4.0078 -2.1147
  731MOL0     H96462  -1.279   9.934   2.510  0.5916 -0.4989  0.2094
  731MOL0     H96463  -1.242  10.065   2.389  0.3750  1.4070  0.3006
  731MOL0     H96464  -1.476  10.074   2.554  1.6854 -1.3804  1.4009
  731MOL0     H96465  -1.395  10.212   2.465  1.1655  0.7154  1.2653
  731MOL0     H96466  -1.445  10.046   2.260 -0.7278 -1.7034 -0.8345
  731MOL0     H96467  -1.560  10.157   2.322 -0.5929 -0.6541 -1.4010
  731MOL0     H96468  -1.531   9.864   2.419 -0.8861 -1.2125 -0.8809
  731MOL0     H96469  -1.630   9.905   2.289  0.2613  1.3888  0.0561
  731MOL0     H96470  -1.664  10.012   2.578 -1.5351 -2.6817  1.4797
  731MOL0     H96471  -1.748  10.089   2.441 -0.7497 -0.3054 -2.9498
  731MOL0     H96472  -1.755   9.794   2.527  2.1931  1.1587 -1.1585
  731MOL0     H96473  -1.889   9.883   2.436  0.6181 -1.1543 -0.2687
  731MOL0     H96474  -0.806   9.887   2.700 -0.7528  0.1775 -0.7641
  731MOL0     H96475  -0.573   9.882   2.667 -2.3953 -0.5909  0.7043
  731MOL0     H96476  -0.225  10.124   2.559  0.1119  0.6927 -0.9667
  731MOL0     H96477   0.015  10.137   2.570  1.8153 -2.1682  0.1981
  731MOL0     H96478   0.743   9.697   3.032  0.6688  0.3689  0.5004
  731MOL0     H96479   0.977   9.596   2.987 -2.5225 -0.0512  3.1025
  731MOL0     H96480   1.371   9.546   3.171 -4.0777  2.8374 -2.1814
  731MOL0     H96481   1.603   9.436   3.166  0.5692  0.7123  0.3352
  731MOL0     H96482   1.857   9.559   2.803 -2.7720 -1.1876  0.1866
  731MOL0     H96483   1.962   9.429   2.860  1.3269  2.1031 -1.0204
  731MOL0     H96484   2.064   9.608   2.882  0.4444  0.0065 -1.6551
  731MOL0     H96485   1.940   9.712   2.960  1.5797 -0.3428 -0.1128
  731MOL0     H96486   2.054   9.482   3.094  5.3141  0.8742  2.4625
  731MOL0     H96487   1.938   9.595   3.172 -0.3106  0.7170 -0.1178
  731MOL0     H96488   2.214   9.682   3.071 -1.8771  1.3185 -1.9760
  731MOL0     H96489   2.089   9.784   3.141  0.0488  0.1678 -1.8722
  731MOL0     H96490   2.251   9.644   3.495 -2.0450  0.6730  0.4689
  731MOL0     H96491   1.678   9.615   2.788  2.0196  0.9916  0.7073
  731MOL0     H96492   1.437   9.741   2.812 -4.3146 -3.8382  0.8245
  732MOL0     O96493   6.464   7.363   2.379 -0.5802 -0.8117 -0.3917
  732MOL0     C96494   6.432   7.456   2.310  0.2337 -0.8300 -0.1333
  732MOL0     O96495   6.369   7.451   2.196 -0.8360  0.1334  0.5619
  732MOL0     C96496   6.326   7.328   2.140  1.3730 -0.0554  0.5767
  732MOL0     C96497   6.349   7.308   2.004  0.3940 -0.0808 -0.4336
  732MOL0     C96498   6.291   7.198   1.941 -1.2099 -0.5187 -0.4305
  732MOL0     C96499   6.230   7.102   2.015  0.5400 -0.6835 -0.2102
  732MOL0     O96500   6.163   6.998   1.953  0.2370  0.0223 -0.3920
  732MOL0     C96501   6.043   7.042   1.866 -0.8898 -0.7621 -0.5497
  732MOL0     C96502   5.985   6.912   1.807 -0.1460 -0.1451  1.1925
  732MOL0     C96503   6.064   6.780   1.827 -0.3596  0.4226  1.0622
  732MOL0     C96504   5.985   6.661   1.755  0.0778  0.0929 -0.2772
  732MOL0     C96505   6.071   6.534   1.732 -0.6727  0.0406  0.4579
  732MOL0     C96506   5.996   6.406   1.753 -0.3221  1.1364 -0.8016
  732MOL0     C96507   6.090   6.285   1.725  0.4774 -0.9858 -0.4885
  732MOL0     C96508   6.019   6.152   1.710  0.0759  0.6318 -0.4072
  732MOL0     N96509   5.967   6.099   1.831  0.2407  0.2378  0.0961
  732MOL0     C96510   6.042   6.035   1.916 -0.1589  0.6818 -0.4670
  732MOL0     C96511   5.967   6.010   2.026  0.0086 -0.1207  0.6976
  732MOL0     C96512   6.020   5.950   2.154  0.4305  0.3866 -0.1292
  732MOL0     C96513   6.128   6.029   2.232  0.4215 -0.7735 -0.2292
  732MOL0     C96514   6.120   6.181   2.226 -0.7184 -1.1301  0.3201
  732MOL0     C96515   6.211   6.263   2.128  0.2120 -0.1415 -0.0408
  732MOL0     O96516   6.161   6.408   2.111  0.1082  0.9256 -0.2322
  732MOL0     C96517   6.201   6.499   2.208  0.2133 -1.6528  0.8045
  732MOL0     C96518   6.314   6.491   2.295  0.5105  0.1918  0.6100
  732MOL0     C96519   6.335   6.607   2.390  0.8579 -0.0546 -0.7977
  732MOL0     C96520   6.251   6.722   2.389 -0.2633 -0.1153 -0.3987
  732MOL0     C96521   6.282   6.857   2.457 -0.3053  0.3631 -0.4922
  732MOL0     O96522   6.407   6.863   2.512  0.2169  0.1027  0.5666
  732MOL0     C96523   6.441   6.982   2.562 -0.4918 -0.1006  0.4638
  732MOL0     C96524   6.377   7.047   2.666  0.3031 -0.8695  0.0863
  732MOL0     C96525   6.437   7.166   2.713 -0.6944  0.4158 -0.1327
  732MOL0     C96526   6.565   7.209   2.662  0.8502 -0.7659 -1.1811
  732MOL0     O96527   6.628   7.323   2.712  0.5601 -0.1643 -0.0634
  732MOL0     C96528   6.590   7.380   2.837  0.4867 -0.3540  0.2310
  732MOL0     C96529   6.672   7.516   2.864  0.2806  0.6949 -0.5545
  732MOL0     C96530   6.816   7.501   2.908  0.0780 -0.9588 -0.3337
  732MOL0     C96531   6.869   7.653   2.919 -0.1390  0.7782 -0.0717
  732MOL0     C96532   7.024   7.659   2.899  0.2148 -0.6137  0.2304
  732MOL0     C96533   7.103   7.583   3.005 -0.2382 -0.0815 -1.6617
  732MOL0     C96534   7.251   7.603   2.958  0.1839 -0.0065  0.1308
  732MOL0     C96535   7.349   7.539   3.071 -0.4285  0.2537 -0.7542
  732MOL0    Cl96536   7.510   7.547   2.991 -0.1066 -0.5640 -0.3209
  732MOL0     C96537   6.620   7.144   2.558 -0.8925 -0.7498  1.2797
  732MOL0     C96538   6.561   7.024   2.506 -0.8180  0.7567 -0.2808
  732MOL0     O96539   6.197   6.951   2.442 -0.8679  0.6120  0.6349
  732MOL0     C96540   6.140   6.720   2.298 -1.0132  0.0187 -0.4128
  732MOL0     C96541   6.109   6.613   2.218 -0.7627 -0.2029 -0.0384
  732MOL0     N96542   5.843   6.070   2.007 -0.3473  0.5189  0.0980
  732MOL0     N96543   5.838   6.120   1.887  0.3583  0.0208  0.1377
  732MOL0     C96544   6.215   7.110   2.153  0.2727 -0.2698  0.1227
  732MOL0     C96545   6.267   7.222   2.211 -0.8585  0.9845 -0.2492
  732MOL0     C96546   6.495   7.588   2.345 -1.5893 -0.9519 -0.2033
  732MOL0     C96547   6.452   7.702   2.283  0.9524 -0.8667  0.1505
  732MOL0     C96548   6.520   7.826   2.311 -0.2266 -0.1381 -0.8481
  732MOL0     C96549   6.630   7.820   2.398 -0.4298 -1.6188 -1.2117
  732MOL0     O96550   6.696   7.942   2.408  0.2657 -0.7057  0.8534
  732MOL0     C96551   6.842   7.944   2.356 -0.4173 -0.4590  0.2011
  732MOL0     C96552   6.942   7.988   2.449  0.8346  0.2130 -0.0306
  732MOL0     C96553   6.978   7.885   2.550 -0.0494  0.0939  0.0080
  732MOL0     C96554   7.090   7.942   2.641  0.7805 -0.3727 -0.6517
  732MOL0     C96555   7.038   8.006   2.765 -0.3374 -0.2412  0.6982
  732MOL0     C96556   6.970   8.065   2.848  1.0411  0.1124  0.0097
  732MOL0     C96557   6.666   7.713   2.468 -0.3328  0.3604  0.4910
  732MOL0     C96558   6.600   7.590   2.437 -0.6683 -0.4743 -0.0125
  732MOL0     H96559   6.387   7.391   1.944 -3.1188  0.4667 -2.1630
  732MOL0     H96560   6.312   7.187   1.835  2.7637 -1.1586  0.2741
  732MOL0     H96561   6.069   7.117   1.790 -0.6568  0.0269  0.2966
  732MOL0     H96562   5.974   7.085   1.938  0.1821  1.9826 -1.0614
  732MOL0     H96563   5.969   6.933   1.701  0.0493  0.1775  1.2265
  732MOL0     H96564   5.882   6.905   1.845 -0.1813 -3.0823  0.8138
  732MOL0     H96565   6.089   6.763   1.932 -2.7935  0.7825  1.7479
  732MOL0     H96566   6.156   6.795   1.770  1.6120 -2.6526  3.0952
  732MOL0     H96567   5.906   6.635   1.826 -2.0654  0.9799 -2.2220
  732MOL0     H96568   5.934   6.703   1.669 -4.4720  1.3473  2.7000
  732MOL0     H96569   6.159   6.529   1.797 -0.1221 -0.1334 -0.2906
  732MOL0     H96570   6.114   6.531   1.631 -0.6077  0.9570  0.4490
  732MOL0     H96571   5.910   6.393   1.687 -0.2643 -4.4705 -0.3035
  732MOL0     H96572   5.964   6.386   1.856 -1.1515  0.9760 -1.0877
  732MOL0     H96573   6.149   6.308   1.637 -1.1541  0.3248 -1.2911
  732MOL0     H96574   6.168   6.279   1.802 -0.1235 -1.1445  0.1207
  732MOL0     H96575   6.087   6.085   1.658 -1.2234 -1.1334  0.0617
  732MOL0     H96576   5.930   6.154   1.646  0.4431 -1.6745 -1.0641
  732MOL0     H96577   6.149   6.016   1.910 -0.4214 -0.6424 -1.1849
  732MOL0     H96578   6.066   5.853   2.136 -1.9337 -1.0950  1.2179
  732MOL0     H96579   5.932   5.923   2.214 -1.5622  3.1159 -1.6173
  732MOL0     H96580   6.225   6.005   2.187  1.3642  3.5848 -0.8864
  732MOL0     H96581   6.124   6.003   2.338  0.4426  0.6995  0.1505
  732MOL0     H96582   6.017   6.208   2.204 -0.8027  0.5320  2.4543
  732MOL0     H96583   6.151   6.232   2.318  0.5487  1.8811 -1.6208
  732MOL0     H96584   6.203   6.220   2.028  1.5768  3.0262 -1.6502
  732MOL0     H96585   6.314   6.256   2.163 -0.4419  2.5926  3.0609
  732MOL0     H96586   6.376   6.402   2.290 -0.2655 -0.3574  0.5339
  732MOL0     H96587   6.415   6.617   2.462  0.9692  4.6520 -1.2792
  732MOL0     H96588   6.280   7.007   2.695 -0.7065  0.6291 -1.0583
  732MOL0     H96589   6.384   7.223   2.789  1.6001  1.2516  0.9433
  732MOL0     H96590   6.593   7.316   2.926 -1.8128 -0.3815  0.3431
  732MOL0     H96591   6.489   7.420   2.827 -1.1197 -3.8570  0.9794
  732MOL0     H96592   6.613   7.574   2.937  0.2587  0.6337 -0.5236
  732MOL0     H96593   6.679   7.572   2.771  1.2709  1.3516 -0.0977
  732MOL0     H96594   6.867   7.456   2.822  5.2113  3.1573  0.0408
  732MOL0     H96595   6.835   7.438   2.995  0.6647 -1.4625 -0.8142
  732MOL0     H96596   6.828   7.716   2.840 -0.8844 -1.1886 -1.2979
  732MOL0     H96597   6.836   7.700   3.013 -1.5838  0.5096 -0.4303
  732MOL0     H96598   7.051   7.765   2.906  1.8819 -1.0995  1.8792
  732MOL0     H96599   7.027   7.621   2.796  1.3746 -2.5793  0.9476
  732MOL0     H96600   7.070   7.481   2.981  2.7066 -1.4094 -0.5856
  732MOL0     H96601   7.090   7.611   3.110  3.2601 -1.1512 -0.8107
  732MOL0     H96602   7.266   7.555   2.861 -1.7861 -0.1746 -0.1405
  732MOL0     H96603   7.276   7.709   2.953 -0.5639  0.1412 -0.8237
  732MOL0     H96604   7.307   7.441   3.096 -0.6848  0.0838 -1.7695
  732MOL0     H96605   7.347   7.589   3.168 -1.6223  1.0848 -1.1853
  732MOL0     H96606   6.711   7.191   2.521  0.0574 -3.8586 -0.7482
  732MOL0     H96607   6.613   6.970   2.428  1.9494 -0.9214  2.4821
  732MOL0     H96608   6.083   6.803   2.257  0.4060 -0.6113 -4.0115
  732MOL0     H96609   6.021   6.621   2.154  0.8001  2.6516 -2.1007
  732MOL0     H96610   6.167   7.030   2.209 -0.2785 -0.0985 -0.1078
  732MOL0     H96611   6.275   7.224   2.319  1.1725  0.4409 -0.3339
  732MOL0     H96612   6.366   7.710   2.218  0.2782  1.5887  1.2228
  732MOL0     H96613   6.500   7.914   2.250 -0.3760  0.3732 -0.0671
  732MOL0     H96614   6.858   8.005   2.267  0.7381  1.3481  1.5790
  732MOL0     H96615   6.869   7.839   2.340  2.4065  0.0602  1.0372
  732MOL0     H96616   7.029   8.018   2.391  1.6010 -4.5427 -1.7249
  732MOL0     H96617   6.902   8.077   2.499  3.0144  0.2880  1.7286
  732MOL0     H96618   7.029   7.803   2.498 -1.5513 -0.4888 -0.6035
  732MOL0     H96619   6.894   7.839   2.603 -1.5845  1.3207 -1.2550
  732MOL0     H96620   7.142   7.850   2.672 -1.0073 -2.1520 -2.6076
  732MOL0     H96621   7.156   8.013   2.590  0.3617 -2.2346 -4.1170
  732MOL0     H96622   6.917   8.092   2.937  2.2603 -0.8480  1.0869
  732MOL0     H96623   6.740   7.728   2.546  1.4661 -0.4493 -1.0083
  732MOL0     H96624   6.635   7.505   2.493  0.5521  1.4156  2.2709
  733MOL0     O96625   0.117   5.018   7.734  0.2133  0.7736 -0.4143
  733MOL0     C96626   0.172   5.078   7.829 -0.0411 -0.3478  0.3022
  733MOL0     O96627   0.153   5.209   7.860 -0.5822 -0.3854  0.7196
  733MOL0     C96628   0.053   5.292   7.800 -0.6734  0.8134  0.9748
  733MOL0     C96629   0.029   5.278   7.663 -1.7965  0.0386 -0.9839
  733MOL0     C96630  -0.061   5.359   7.609 -0.9334  0.3885  0.2841
  733MOL0     C96631  -0.130   5.459   7.683 -0.9828  0.6245 -0.2836
  733MOL0     O96632  -0.199   5.556   7.624  0.1860 -0.2305  0.8626
  733MOL0     C96633  -0.130   5.627   7.519  0.1924 -0.8687 -1.3414
  733MOL0     C96634  -0.201   5.769   7.489  0.0172 -0.1654 -0.7118
  733MOL0     C96635  -0.148   5.883   7.569 -0.1302 -0.1728 -0.4074
  733MOL0     C96636  -0.196   6.012   7.513 -0.0640 -0.4240  0.8791
  733MOL0     C96637  -0.124   6.132   7.561  0.1645  0.1965 -1.0614
  733MOL0     C96638  -0.193   6.180   7.691 -1.1972 -0.3657 -0.8853
  733MOL0     C96639  -0.123   6.288   7.771 -0.3191 -0.2011  0.8804
  733MOL0     C96640  -0.079   6.412   7.689 -0.3821  0.1342  0.1287
  733MOL0     N96641  -0.052   6.530   7.775  0.3015  0.4331 -0.6407
  733MOL0     C96642   0.068   6.608   7.760  0.7303  0.7270  0.4480
  733MOL0     C96643   0.079   6.670   7.876 -0.4207  0.3078 -0.4218
  733MOL0     C96644   0.188   6.769   7.913 -0.5987 -0.0298 -0.0627
  733MOL0     C96645   0.246   6.755   8.056 -0.4513 -0.4283  0.1414
  733MOL0     C96646   0.341   6.871   8.066  0.4005  0.0881  0.4189
  733MOL0     C96647   0.399   6.867   8.208  1.3877  0.2412 -0.6625
  733MOL0     O96648   0.517   6.945   8.216 -0.1625 -1.2135  0.3982
  733MOL0     C96649   0.487   7.075   8.253 -0.4611 -0.4862 -0.0173
  733MOL0     C96650   0.483   7.112   8.380 -0.3520 -0.4578 -0.2536
  733MOL0     C96651   0.465   7.246   8.415 -0.5217  1.0526 -0.5951
  733MOL0     C96652   0.451   7.349   8.323  1.0678  0.5583 -1.0349
  733MOL0     C96653   0.426   7.479   8.367 -0.2271 -0.9849 -0.3050
  733MOL0     O96654   0.401   7.562   8.279  0.0155  0.3827  0.7953
  733MOL0     C96655   0.398   7.697   8.296  0.4246  0.4095 -0.6195
  733MOL0     C96656   0.462   7.770   8.198 -0.8171 -0.7934 -0.4150
  733MOL0     C96657   0.479   7.907   8.216 -0.4598 -0.6133  0.4229
  733MOL0     C96658   0.419   7.976   8.323 -0.0177  0.5461  0.0701
  733MOL0     O96659   0.423   8.114   8.317 -0.0375  0.5845  0.0121
  733MOL0     C96660   0.337   8.170   8.214 -0.6469  0.4966  0.7363
  733MOL0     C96661   0.204   8.200   8.271  1.0808  0.3733  1.2504
  733MOL0     C96662   0.203   8.303   8.385 -0.3182 -0.0181  0.3691
  733MOL0     C96663   0.054   8.335   8.419 -0.5017  0.6822 -0.4317
  733MOL0     C96664   0.012   8.266   8.544 -0.8454  1.0459  1.4758
  733MOL0     C96665  -0.128   8.299   8.584 -1.3166  1.4940  0.3548
  733MOL0     C96666  -0.149   8.243   8.727 -0.1053  0.8390  0.7455
  733MOL0     C96667  -0.303   8.238   8.767 -0.5893 -0.7981 -0.3798
  733MOL0    Cl96668  -0.382   8.397   8.701 -0.1261 -0.1874  0.1228
  733MOL0     C96669   0.335   7.904   8.409  0.5973  1.0260  0.6439
  733MOL0     C96670   0.326   7.762   8.400  0.7397 -0.5854 -1.0562
  733MOL0     O96671   0.432   7.506   8.485 -0.5133  0.5119 -0.7883
  733MOL0     C96672   0.454   7.306   8.192  0.6326 -0.8394 -0.6467
  733MOL0     C96673   0.474   7.175   8.153 -0.2360  0.8828 -0.7639
  733MOL0     N96674  -0.026   6.636   7.961  0.4614  0.2916 -0.9513
  733MOL0     N96675  -0.089   6.541   7.902 -0.4620 -0.4092  0.2842
  733MOL0     C96676  -0.106   5.461   7.818  0.0830  0.0817 -0.6205
  733MOL0     C96677  -0.011   5.386   7.872 -0.2825  0.0838  0.5938
  733MOL0     C96678   0.240   5.000   7.934  0.0975 -1.0718  0.2881
  733MOL0     C96679   0.346   5.058   8.011 -0.2535 -0.6287  0.7655
  733MOL0     C96680   0.415   4.993   8.111  0.4509  0.0182 -0.5605
  733MOL0     C96681   0.367   4.867   8.156 -0.0202  0.2111 -0.3631
  733MOL0     O96682   0.443   4.808   8.257  0.3849 -0.7649 -0.8466
  733MOL0     C96683   0.407   4.677   8.297 -0.1670  1.6464  0.0262
  733MOL0     C96684   0.515   4.651   8.397 -0.6919 -0.5285  0.2792
  733MOL0     C96685   0.469   4.702   8.538 -0.1256 -0.0142  0.4047
  733MOL0     C96686   0.573   4.680   8.647  0.3292 -0.6455  0.1356
  733MOL0     C96687   0.678   4.784   8.664 -0.7307 -0.0857  0.1111
  733MOL0     C96688   0.767   4.867   8.677  0.3151 -1.4274  0.7947
  733MOL0     C96689   0.268   4.792   8.081  1.1093  0.3959 -0.0967
  733MOL0     C96690   0.199   4.864   7.971  0.6911  0.3968 -0.3633
  733MOL0     H96691   0.078   5.211   7.593 -1.9246 -1.7866  0.5932
  733MOL0     H96692  -0.067   5.353   7.501  1.0007 -0.1758  0.1673
  733MOL0     H96693  -0.132   5.567   7.428 -0.5491 -0.3937 -1.6474
  733MOL0     H96694  -0.027   5.652   7.546 -0.1547  1.0002 -1.5690
  733MOL0     H96695  -0.308   5.749   7.479  0.1754 -0.2770 -2.4756
  733MOL0     H96696  -0.183   5.793   7.384 -2.4290  0.1451 -1.1267
  733MOL0     H96697  -0.041   5.865   7.562 -0.1905 -0.1232 -1.7464
  733MOL0     H96698  -0.177   5.871   7.673 -1.8689 -3.6643 -1.1615
  733MOL0     H96699  -0.169   6.018   7.407  2.2977 -1.1460  1.4001
  733MOL0     H96700  -0.306   6.016   7.508 -0.0700  0.7378  1.5188
  733MOL0     H96701  -0.134   6.222   7.500 -2.0034  0.3547 -0.5522
  733MOL0     H96702  -0.017   6.117   7.581  0.4853 -0.2735 -2.9963
  733MOL0     H96703  -0.216   6.090   7.749  0.3545 -0.9566 -1.1318
  733MOL0     H96704  -0.291   6.217   7.658 -1.3509 -0.2372 -0.2986
  733MOL0     H96705  -0.181   6.319   7.859  1.4061  2.9125  1.0590
  733MOL0     H96706  -0.027   6.249   7.807  1.6245  1.2408 -2.3430
  733MOL0     H96707  -0.157   6.436   7.616 -0.1369  0.8167  0.0814
  733MOL0     H96708   0.015   6.389   7.637 -0.4353 -0.1655  0.1637
  733MOL0     H96709   0.135   6.618   7.674  0.0311 -1.2039 -0.3725
  733MOL0     H96710   0.147   6.870   7.917  0.3882  0.5199 -2.1681
  733MOL0     H96711   0.270   6.755   7.841  0.7424  1.9076  1.0175
  733MOL0     H96712   0.300   6.660   8.049  1.5366  0.6114  0.5545
  733MOL0     H96713   0.167   6.761   8.131 -0.0260 -0.2802  0.5804
  733MOL0     H96714   0.420   6.845   7.995  0.3947  0.8825  0.1103
  733MOL0     H96715   0.296   6.969   8.045 -1.7312 -0.7937  0.6012
  733MOL0     H96716   0.423   6.766   8.244 -1.4115  0.4148  2.1063
  733MOL0     H96717   0.313   6.905   8.263  0.1839 -0.8355 -1.7472
  733MOL0     H96718   0.507   7.045   8.462  0.8899  0.2475 -0.0120
  733MOL0     H96719   0.472   7.251   8.523  0.8956 -1.5566 -0.4946
  733MOL0     H96720   0.504   7.720   8.112 -1.9540 -2.1426 -0.2178
  733MOL0     H96721   0.542   7.961   8.145 -0.5910 -1.3788 -0.2892
  733MOL0     H96722   0.326   8.100   8.130  0.8395 -1.4181  2.0355
  733MOL0     H96723   0.384   8.261   8.174  2.4663 -0.1367  2.5936
  733MOL0     H96724   0.172   8.098   8.297  0.6581 -0.0710 -0.7692
  733MOL0     H96725   0.129   8.226   8.195 -0.3232 -0.5592  2.2683
  733MOL0     H96726   0.246   8.396   8.347  1.9688 -0.7043  1.1005
  733MOL0     H96727   0.262   8.273   8.471  1.7417 -0.3650 -1.0876
  733MOL0     H96728   0.050   8.444   8.429 -2.0223  0.6109 -0.0547
  733MOL0     H96729  -0.012   8.304   8.337 -1.5618  0.8617  0.3244
  733MOL0     H96730   0.088   8.277   8.621  3.0640 -3.1852 -1.2293
  733MOL0     H96731   0.019   8.159   8.522  0.9220  1.5989 -1.1842
  733MOL0     H96732  -0.200   8.254   8.515  1.1730 -0.6404 -1.0198
  733MOL0     H96733  -0.137   8.407   8.574 -1.5047  1.3924 -0.8400
  733MOL0     H96734  -0.091   8.153   8.749 -0.9271 -0.0059 -0.4178
  733MOL0     H96735  -0.099   8.316   8.792  0.6309 -0.8133  2.1284
  733MOL0     H96736  -0.313   8.223   8.874 -0.7196 -0.2821 -0.3193
  733MOL0     H96737  -0.361   8.160   8.716  0.9164 -0.3381 -3.0180
  733MOL0     H96738   0.273   7.951   8.484  2.5713  0.4773  2.7360
  733MOL0     H96739   0.269   7.699   8.468 -0.0410 -0.6487 -1.7488
  733MOL0     H96740   0.446   7.385   8.118 -1.7461  2.8056  3.0065
  733MOL0     H96741   0.475   7.140   8.050  0.8252  1.5130 -0.9844
  733MOL0     H96742  -0.131   5.542   7.886  1.7169 -0.8884  1.2376
  733MOL0     H96743   0.003   5.395   7.979 -0.5538 -1.2766  0.7537
  733MOL0     H96744   0.365   5.163   7.992  0.0287 -1.1027 -1.9275
  733MOL0     H96745   0.489   5.057   8.158 -0.8607  1.4494 -0.3566
  733MOL0     H96746   0.421   4.605   8.217  2.5430  0.1010  1.7170
  733MOL0     H96747   0.312   4.674   8.351 -0.5103 -3.1523 -0.4162
  733MOL0     H96748   0.509   4.543   8.413 -1.8521 -0.8535 -1.9453
  733MOL0     H96749   0.618   4.684   8.380  0.7263 -1.7635  4.9342
  733MOL0     H96750   0.375   4.649   8.558 -1.1909 -0.7544 -4.9832
  733MOL0     H96751   0.450   4.809   8.551  0.6173  0.0060  1.4171
  733MOL0     H96752   0.517   4.675   8.741  1.5970 -1.7599  0.8740
  733MOL0     H96753   0.615   4.580   8.631  0.2459 -0.7016  0.2729
  733MOL0     H96754   0.826   4.955   8.693  0.7464 -1.8201  1.3796
  733MOL0     H96755   0.237   4.688   8.083  1.0367  0.3532 -1.8375
  733MOL0     H96756   0.127   4.806   7.913  3.2081 -1.0699 -2.2854
  734MOL0     O96757   5.599   7.616   9.286 -0.3844  0.5905 -0.1414
  734MOL0     C96758   5.513   7.706   9.280  0.1191 -0.7637 -0.1890
  734MOL0     O96759   5.483   7.774   9.164 -0.0657 -0.4802  0.3461
  734MOL0     C96760   5.500   7.711   9.044  0.2750 -0.7565  0.4375
  734MOL0     C96761   5.608   7.634   9.001 -0.5463  0.0852 -0.4482
  734MOL0     C96762   5.616   7.560   8.878 -0.0451 -0.0487  0.6618
  734MOL0     C96763   5.505   7.560   8.793  0.8596  0.2478  0.9679
  734MOL0     O96764   5.486   7.494   8.680  0.3765 -0.5876  0.4273
  734MOL0     C96765   5.559   7.369   8.655 -0.3729  0.2277  0.5955
  734MOL0     C96766   5.497   7.273   8.543  0.1413 -0.3384 -0.7854
  734MOL0     C96767   5.548   7.129   8.524 -0.1502 -0.3409  0.0315
  734MOL0     C96768   5.558   7.061   8.658 -0.1804  0.8168  0.0154
  734MOL0     C96769   5.557   6.908   8.650 -0.8664 -0.0071  0.0219
  734MOL0     C96770   5.547   6.853   8.791 -0.0375  0.8339  0.1608
  734MOL0     C96771   5.692   6.838   8.852  0.4957 -1.3225 -0.1565
  734MOL0     C96772   5.781   6.736   8.782  0.7525  0.3359  0.1914
  734MOL0     N96773   5.893   6.697   8.873 -0.1748  0.0859 -0.0893
  734MOL0     C96774   5.930   6.563   8.889 -0.0054 -0.2982 -0.8880
  734MOL0     C96775   6.050   6.579   8.954 -1.0370  0.2317  0.0843
  734MOL0     C96776   6.142   6.458   9.011 -0.4854 -1.3570  0.7744
  734MOL0     C96777   6.226   6.408   8.895 -0.3117 -0.1656  0.2345
  734MOL0     C96778   6.259   6.256   8.902  0.2907 -0.3497  0.0670
  734MOL0     C96779   6.335   6.201   9.025 -0.0387 -0.8764 -0.3506
  734MOL0     O96780   6.318   6.060   9.035  0.3831  0.4740 -0.4566
  734MOL0     C96781   6.388   5.987   9.131  0.4471 -0.9992 -0.4869
  734MOL0     C96782   6.441   5.865   9.091  0.8880 -0.4846  0.0054
  734MOL0     C96783   6.529   5.787   9.169  0.5466 -0.7519  0.1551
  734MOL0     C96784   6.578   5.845   9.287 -0.5631  0.1602 -0.0786
  734MOL0     C96785   6.669   5.768   9.382  0.1015  0.5000 -0.3648
  734MOL0     O96786   6.703   5.834   9.499  0.2916 -0.0439 -0.5613
  734MOL0     C96787   6.773   5.772   9.603 -0.8619  0.6560 -0.0708
  734MOL0     C96788   6.840   5.641   9.600  0.2055  0.3742  0.2772
  734MOL0     C96789   6.893   5.594   9.728  0.7854 -0.9248 -0.0174
  734MOL0     C96790   6.874   5.674   9.839 -1.0724  0.2352  0.0942
  734MOL0     O96791   6.918   5.634   9.959 -0.2547  0.2420  0.0640
  734MOL0     C96792   6.990   5.512   9.980  0.5691  0.4169 -0.5648
  734MOL0     C96793   7.040   5.487  10.130  0.3223  0.0292 -0.3933
  734MOL0     C96794   6.957   5.383  10.198  0.0487  0.5370 -0.7370
  734MOL0     C96795   6.820   5.450  10.206 -0.2215 -0.0676  0.1212
  734MOL0     C96796   6.718   5.363  10.289  0.3607 -0.7135  0.2530
  734MOL0     C96797   6.752   5.376  10.442  0.7793 -0.1807 -0.7362
  734MOL0     C96798   6.647   5.292  10.510  0.1838  0.7381 -0.1246
  734MOL0     C96799   6.639   5.320  10.660 -0.1399 -1.0475 -0.2416
  734MOL0    Cl96800   6.530   5.192  10.724  0.4936 -0.0666 -0.1638
  734MOL0     C96801   6.811   5.791   9.842  0.7587  0.2520  0.6872
  734MOL0     C96802   6.758   5.841   9.722 -0.7032  0.0584 -0.9324
  734MOL0     O96803   6.709   5.650   9.342  0.0951 -0.7700 -1.1612
  734MOL0     C96804   6.517   5.965   9.332  0.5075 -0.1050 -0.1590
  734MOL0     C96805   6.423   6.041   9.259 -0.8061  0.3819 -0.6377
  734MOL0     N96806   6.082   6.710   8.982 -0.0133 -0.7995  0.2355
  734MOL0     N96807   5.997   6.775   8.908 -0.0334 -0.0280 -0.2117
  734MOL0     C96808   5.400   7.634   8.835  0.9953  0.2576  1.1535
  734MOL0     C96809   5.394   7.713   8.950 -0.3896  0.9525  0.1432
  734MOL0     C96810   5.440   7.744   9.413 -0.1048  0.5521  0.3686
  734MOL0     C96811   5.320   7.814   9.407  0.5273  0.4206  0.0948
  734MOL0     C96812   5.262   7.851   9.530  0.0150  0.9457  0.5859
  734MOL0     C96813   5.320   7.821   9.658 -0.4847  0.3660  0.5516
  734MOL0     O96814   5.265   7.844   9.777 -0.7345 -0.1831  0.4811
  734MOL0     C96815   5.173   7.952   9.796 -0.4612 -0.6476  0.2647
  734MOL0     C96816   5.158   7.963   9.950 -0.0664  1.0657  0.3090
  734MOL0     C96817   5.057   8.072   9.987  0.8371 -0.2824  0.2054
  734MOL0     C96818   4.926   8.065   9.908  0.3439 -0.3074  0.6333
  734MOL0     C96819   4.829   8.158   9.967  0.1998  0.9147 -0.0558
  734MOL0     C96820   4.736   8.215  10.025  0.1763  0.0175  0.2870
  734MOL0     C96821   5.432   7.736   9.657  0.6132  0.1776  0.1756
  734MOL0     C96822   5.505   7.710   9.537  0.4780 -0.0413  0.8999
  734MOL0     H96823   5.695   7.645   9.065  1.2788 -0.8628 -2.6521
  734MOL0     H96824   5.708   7.512   8.848 -0.4650  0.9227 -2.7029
  734MOL0     H96825   5.564   7.308   8.746  4.0605 -3.6327 -1.8407
  734MOL0     H96826   5.661   7.391   8.622 -0.4403 -2.1050 -1.3894
  734MOL0     H96827   5.518   7.327   8.450  2.8596 -1.2878 -0.8176
  734MOL0     H96828   5.391   7.271   8.569  0.5570  0.8723  1.2337
  734MOL0     H96829   5.644   7.132   8.471 -1.0607 -0.0909 -1.6784
  734MOL0     H96830   5.479   7.069   8.464 -0.9966 -1.0175  1.6261
  734MOL0     H96831   5.656   7.080   8.704  0.3813 -0.4158 -0.6252
  734MOL0     H96832   5.481   7.099   8.726 -0.9354 -0.6876  0.0334
  734MOL0     H96833   5.633   6.881   8.576  1.8367  3.9842  1.0051
  734MOL0     H96834   5.463   6.889   8.598 -0.3302 -3.7813  0.1754
  734MOL0     H96835   5.497   6.757   8.773  1.7526 -0.3003  0.8742
  734MOL0     H96836   5.488   6.918   8.856  1.7358  3.3863 -0.5924
  734MOL0     H96837   5.744   6.934   8.848 -0.0176 -1.0647 -0.7292
  734MOL0     H96838   5.661   6.822   8.956  0.8996 -1.4700 -0.0547
  734MOL0     H96839   5.820   6.782   8.691  1.5271 -3.4627 -1.5848
  734MOL0     H96840   5.715   6.649   8.768  1.8487 -0.6785  1.0825
  734MOL0     H96841   5.865   6.478   8.871  1.8451 -1.8157 -0.6951
  734MOL0     H96842   6.089   6.377   9.062 -1.7297 -1.1199 -0.0912
  734MOL0     H96843   6.216   6.502   9.078 -0.5400  0.6960 -0.4341
  734MOL0     H96844   6.329   6.445   8.885 -0.4073  0.0157 -0.0726
  734MOL0     H96845   6.176   6.418   8.799  1.6400  2.8650 -0.6153
  734MOL0     H96846   6.158   6.213   8.895 -0.7650  1.4956  2.4757
  734MOL0     H96847   6.310   6.221   8.812 -0.8675 -2.6447  0.2293
  734MOL0     H96848   6.292   6.249   9.113 -2.9970 -3.9552  0.0954
  734MOL0     H96849   6.438   6.235   9.011 -0.1029 -0.8302 -0.7416
  734MOL0     H96850   6.403   5.835   8.993  2.6563  1.3342 -1.3236
  734MOL0     H96851   6.556   5.686   9.141 -0.3924 -0.3949 -2.2255
  734MOL0     H96852   6.852   5.575   9.514 -1.5066 -2.7511  2.2272
  734MOL0     H96853   6.943   5.498   9.727 -0.2036 -1.4677 -1.7412
  734MOL0     H96854   7.075   5.509   9.912 -0.3358  2.4415 -1.8761
  734MOL0     H96855   6.930   5.430   9.939  0.3421 -0.2541  1.0283
  734MOL0     H96856   7.043   5.577  10.191  0.8875 -0.4829  0.3499
  734MOL0     H96857   7.146   5.463  10.130  0.1166 -0.9159 -0.4151
  734MOL0     H96858   6.993   5.362  10.300 -0.7742  0.0909 -0.5314
  734MOL0     H96859   6.961   5.287  10.146 -2.0755  1.1478 -2.1418
  734MOL0     H96860   6.814   5.545  10.259 -0.4236 -1.3307  2.5039
  734MOL0     H96861   6.786   5.466  10.103 -1.8614  3.5935  1.0507
  734MOL0     H96862   6.723   5.258  10.257 -0.1491 -0.4962 -0.5767
  734MOL0     H96863   6.615   5.399  10.283  0.4443 -0.2257  1.3767
  734MOL0     H96864   6.754   5.482  10.467  1.7076 -0.1295 -0.9935
  734MOL0     H96865   6.849   5.326  10.455  2.1150  2.5743  0.8415
  734MOL0     H96866   6.546   5.291  10.467  0.2498  2.5063 -0.4024
  734MOL0     H96867   6.683   5.190  10.492 -0.9597 -0.2857  2.7953
  734MOL0     H96868   6.609   5.422  10.688 -1.1106 -0.7031 -2.3597
  734MOL0     H96869   6.739   5.310  10.701  0.3999 -1.2613 -1.5704
  734MOL0     H96870   6.796   5.846   9.935 -3.9796  2.4430 -1.0608
  734MOL0     H96871   6.694   5.927   9.703  3.1685  3.7706  1.1597
  734MOL0     H96872   6.550   6.008   9.426 -2.3237  2.0044  0.0078
  734MOL0     H96873   6.395   6.138   9.298  0.7039  1.1987 -1.5078
  734MOL0     H96874   5.312   7.640   8.771  2.3372  6.6760 -0.7573
  734MOL0     H96875   5.298   7.759   8.971 -0.7933  2.0978 -3.5651
  734MOL0     H96876   5.274   7.849   9.315 -1.2304  1.7689  1.4052
  734MOL0     H96877   5.172   7.912   9.528 -1.5102 -1.0638  2.4597
  734MOL0     H96878   5.076   7.947   9.746 -1.6574  0.0122  2.4281
  734MOL0     H96879   5.215   8.049   9.767 -3.1843  0.8949  1.1119
  734MOL0     H96880   5.125   7.864   9.983 -3.9507  1.8135 -0.9426
  734MOL0     H96881   5.252   7.996   9.995 -0.5191  0.4774  1.7713
  734MOL0     H96882   5.106   8.168   9.970 -2.7570  1.5636 -0.9286
  734MOL0     H96883   5.030   8.071  10.093  1.7131 -0.5934  0.4287
  734MOL0     H96884   4.944   8.089   9.803  1.1424 -1.7127  0.4292
  734MOL0     H96885   4.900   7.959   9.912  0.3253 -0.4224 -1.4627
  734MOL0     H96886   4.653   8.276  10.053  1.8929  2.3057  0.6911
  734MOL0     H96887   5.469   7.691   9.749  0.7727  0.4434  0.2417
  734MOL0     H96888   5.604   7.666   9.531  0.2045 -0.4854 -2.4563
  735MOL0     O96889  10.817   2.204   9.888 -0.2253 -0.3549  0.4851
  735MOL0     C96890  10.893   2.302   9.907  0.5792 -0.5145 -0.4273
  735MOL0     O96891  10.978   2.300  10.013  0.0319  0.6194  0.1388
  735MOL0     C96892  10.973   2.207  10.118  0.9138  0.1998  1.2958
  735MOL0     C96893  10.963   2.068  10.099 -0.3984 -0.6916  0.1303
  735MOL0     C96894  10.975   1.986  10.215 -0.5240 -0.1477  0.6150
  735MOL0     C96895  10.990   2.037  10.344 -0.1055 -0.0419 -0.3114
  735MOL0     O96896  11.000   1.955  10.461  0.6362 -0.5551  0.1236
  735MOL0     C96897  10.960   1.813  10.456  0.0200 -0.9732  0.7142
  735MOL0     C96898  10.957   1.748  10.589  0.5089  0.4419  0.6063
  735MOL0     C96899  11.087   1.739  10.673 -0.2155 -0.7240  0.8079
  735MOL0     C96900  11.056   1.723  10.818  0.9895 -0.1553  0.1415
  735MOL0     C96901  11.176   1.719  10.919  0.2931  0.2668  1.0883
  735MOL0     C96902  11.124   1.739  11.063  0.9821  0.2726 -0.2418
  735MOL0     C96903  11.243   1.722  11.165  0.5439  0.2800  0.1276
  735MOL0     C96904  11.244   1.582  11.247 -1.2745 -0.6545  0.9521
  735MOL0     N96905  11.362   1.566  11.330 -0.1611  0.4083  0.1701
  735MOL0     C96906  11.394   1.671  11.410 -0.5996  0.3488  0.6880
  735MOL0     C96907  11.522   1.647  11.448  0.1588  0.2470  1.0841
  735MOL0     C96908  11.595   1.728  11.552 -0.1635  0.4914  0.8129
  735MOL0     C96909  11.535   1.732  11.693  0.4929  0.2019 -0.3927
  735MOL0     C96910  11.503   1.595  11.754  0.5388 -1.3824  0.2114
  735MOL0     C96911  11.635   1.504  11.757  0.7944  0.7984  0.2307
  735MOL0     O96912  11.728   1.527  11.864  0.7445 -0.4893  0.0424
  735MOL0     C96913  11.703   1.471  11.994  0.0461 -0.7051  0.9186
  735MOL0     C96914  11.602   1.375  12.030 -0.3478 -0.5568 -0.3608
  735MOL0     C96915  11.603   1.319  12.161  0.0563 -0.2625 -1.0837
  735MOL0     C96916  11.690   1.374  12.260 -1.1051  0.8216 -0.0955
  735MOL0     C96917  11.693   1.346  12.402  0.1367 -0.2960 -0.5758
  735MOL0     O96918  11.689   1.461  12.489  0.8507  0.0089  0.3207
  735MOL0     C96919  11.715   1.453  12.625 -0.1049  0.5878  0.6205
  735MOL0     C96920  11.635   1.365  12.696  0.1321  0.4156 -0.4685
  735MOL0     C96921  11.643   1.354  12.838  0.0297  0.1849  1.1178
  735MOL0     C96922  11.749   1.420  12.900  0.2622 -0.2312 -0.4668
  735MOL0     O96923  11.747   1.395  13.036 -0.2523 -0.0892  0.2404
  735MOL0     C96924  11.873   1.430  13.102  0.1877  0.1988 -0.2982
  735MOL0     C96925  11.864   1.375  13.249  0.0987 -0.0978  1.4977
  735MOL0     C96926  11.781   1.474  13.338  0.5093  0.8038 -0.4356
  735MOL0     C96927  11.775   1.408  13.490 -0.5690 -0.6974  0.8984
  735MOL0     C96928  11.718   1.508  13.586  0.1038  0.1800  0.0185
  735MOL0     C96929  11.562   1.501  13.622 -0.2515  0.2766 -0.0650
  735MOL0     C96930  11.526   1.355  13.671  0.5851  0.4324 -1.4714
  735MOL0     C96931  11.412   1.368  13.774  0.3793 -0.2312 -0.0957
  735MOL0    Cl96932  11.270   1.443  13.685 -0.2799 -0.0441 -0.0116
  735MOL0     C96933  11.818   1.522  12.824 -0.2557  0.7475 -0.5419
  735MOL0     C96934  11.801   1.534  12.692 -0.5833  0.5615 -0.6112
  735MOL0     O96935  11.719   1.235  12.434 -0.2831  0.2191  0.1703
  735MOL0     C96936  11.786   1.473  12.224 -0.4116  0.1059  0.1361
  735MOL0     C96937  11.791   1.515  12.089  0.5851  0.7549 -0.1574
  735MOL0     N96938  11.565   1.530  11.379 -0.6341 -0.2954  0.0604
  735MOL0     N96939  11.470   1.483  11.304 -0.6892  0.4840 -1.2197
  735MOL0     C96940  10.988   2.179  10.352  0.7022 -0.1277  0.2570
  735MOL0     C96941  10.980   2.260  10.240 -0.9346 -0.2187  0.0320
  735MOL0     C96942  10.877   2.429   9.830 -0.0946  0.2606  0.3457
  735MOL0     C96943  10.797   2.434   9.716  0.5000 -0.5812  0.1968
  735MOL0     C96944  10.791   2.553   9.646 -0.1429 -0.0652  0.4194
  735MOL0     C96945  10.863   2.672   9.688 -0.9537  0.1072  0.4041
  735MOL0     O96946  10.843   2.782   9.617  0.3687 -0.2116 -0.2243
  735MOL0     C96947  10.907   2.903   9.655 -0.8046 -0.0439 -0.7043
  735MOL0     C96948  11.050   2.931   9.592 -0.2651 -0.0905 -0.5369
  735MOL0     C96949  11.046   2.950   9.439  0.0926 -0.4911 -0.4547
  735MOL0     C96950  11.061   2.823   9.349 -1.1056 -0.2049  0.7775
  735MOL0     C96951  11.179   2.754   9.380 -0.0816  0.6476  1.4336
  735MOL0     C96952  11.277   2.696   9.418  0.3049 -0.5704  0.3568
  735MOL0     C96953  10.949   2.659   9.793  0.5826 -0.1499 -0.0139
  735MOL0     C96954  10.963   2.537   9.860 -0.3951 -0.3854 -0.2711
  735MOL0     H96955  10.960   2.012  10.005  2.2471 -0.0189 -0.4231
  735MOL0     H96956  10.977   1.879  10.197 -1.7308 -0.7613  3.5864
  735MOL0     H96957  11.045   1.768  10.405  0.0265  1.2013 -1.3667
  735MOL0     H96958  10.874   1.786  10.394 -1.3744  0.8369  1.7650
  735MOL0     H96959  10.940   1.644  10.558  2.5262  0.4729 -0.8163
  735MOL0     H96960  10.867   1.779  10.643 -1.1301  1.0994 -2.2677
  735MOL0     H96961  11.144   1.832  10.673 -0.3546 -0.6364  1.0048
  735MOL0     H96962  11.145   1.658  10.627 -1.6684 -0.0194 -2.6018
  735MOL0     H96963  10.979   1.790  10.858  2.5765  0.6782  2.0242
  735MOL0     H96964  11.009   1.624  10.823 -0.2576  0.2024 -2.7730
  735MOL0     H96965  11.250   1.798  10.901 -1.1708  1.7402  1.2728
  735MOL0     H96966  11.221   1.619  10.915 -3.2220 -1.5495 -4.0229
  735MOL0     H96967  11.032   1.690  11.097  0.2115  2.6956  1.4425
  735MOL0     H96968  11.088   1.842  11.053  0.5034  0.2206  0.8457
  735MOL0     H96969  11.338   1.723  11.110 -0.3892 -0.1718 -1.5321
  735MOL0     H96970  11.236   1.817  11.219  3.0614  1.1809 -0.9344
  735MOL0     H96971  11.237   1.495  11.182  0.8106  0.9051 -1.5546
  735MOL0     H96972  11.152   1.586  11.306 -2.6304 -0.5260 -1.0923
  735MOL0     H96973  11.338   1.754  11.452 -0.5052  0.1359  1.2516
  735MOL0     H96974  11.613   1.829  11.514  3.2182  0.5720  2.2183
  735MOL0     H96975  11.695   1.684  11.555 -1.3056 -2.3429  0.5774
  735MOL0     H96976  11.435   1.778  11.687  0.8046  1.0507  0.7266
  735MOL0     H96977  11.603   1.792  11.754  1.3125 -1.8600  0.8038
  735MOL0     H96978  11.468   1.606  11.857  1.3370 -0.6249  0.4171
  735MOL0     H96979  11.417   1.562  11.696 -0.1695 -0.4052  0.6766
  735MOL0     H96980  11.694   1.509  11.665  0.4349 -0.6718 -0.1000
  735MOL0     H96981  11.607   1.398  11.758 -0.6646  1.1634 -0.0399
  735MOL0     H96982  11.526   1.327  11.969 -1.9712 -1.4762  2.2362
  735MOL0     H96983  11.524   1.249  12.182 -0.9014  1.5839  2.0662
  735MOL0     H96984  11.567   1.300  12.642  0.5188  1.7197 -2.6676
  735MOL0     H96985  11.599   1.272  12.893 -1.0557 -1.5131 -1.9808
  735MOL0     H96986  11.888   1.537  13.123 -0.5408 -0.1553  2.4612
  735MOL0     H96987  11.956   1.388  13.046  1.5332 -0.5102  2.0642
  735MOL0     H96988  11.964   1.363  13.290  1.1753  1.5962 -0.4554
  735MOL0     H96989  11.819   1.275  13.250  0.4732 -0.3175  4.0176
  735MOL0     H96990  11.677   1.480  13.304  0.6296 -3.9684 -2.4014
  735MOL0     H96991  11.822   1.575  13.337 -0.2350  1.1409 -2.6184
  735MOL0     H96992  11.720   1.313  13.494  1.0844 -1.7770 -0.4611
  735MOL0     H96993  11.877   1.374  13.507 -0.2270 -1.7301 -2.3895
  735MOL0     H96994  11.731   1.612  13.555 -2.0388  1.1800  2.1362
  735MOL0     H96995  11.775   1.504  13.679  0.1194  0.2435  0.0120
  735MOL0     H96996  11.498   1.507  13.534 -4.2429 -0.8284  2.5025
  735MOL0     H96997  11.536   1.585  13.688 -0.6756  1.9812 -2.2925
  735MOL0     H96998  11.500   1.281  13.595  0.5581 -1.6721  0.4867
  735MOL0     H96999  11.606   1.313  13.732  0.6179  1.0335 -1.0885
  735MOL0     H97000  11.433   1.434  13.859 -0.2145 -0.6865  0.4084
  735MOL0     H97001  11.406   1.269  13.820  0.4126  0.8238  2.2990
  735MOL0     H97002  11.884   1.586  12.881  2.3295 -1.6274 -0.6834
  735MOL0     H97003  11.868   1.591  12.628 -1.5181  1.2449 -0.9928
  735MOL0     H97004  11.857   1.513  12.295 -0.1591 -0.0250 -0.0400
  735MOL0     H97005  11.869   1.586  12.062 -0.5710  1.2959 -2.3120
  735MOL0     H97006  10.999   2.221  10.452 -0.7785 -1.9864  1.2711
  735MOL0     H97007  10.994   2.366  10.256  0.1514 -0.3426 -0.0637
  735MOL0     H97008  10.735   2.347   9.694 -1.7499  1.2076 -1.0257
  735MOL0     H97009  10.731   2.555   9.556  0.0169 -0.2333  0.3095
  735MOL0     H97010  10.912   2.913   9.764 -0.0443 -0.0251 -0.7349
  735MOL0     H97011  10.858   2.990   9.609  1.1702  0.0486 -2.7994
  735MOL0     H97012  11.102   3.012   9.645 -0.9642 -1.6196  2.7651
  735MOL0     H97013  11.104   2.840   9.621 -0.5873 -0.3400 -0.7140
  735MOL0     H97014  11.108   3.034   9.406 -0.7786  0.0240 -0.8168
  735MOL0     H97015  10.947   2.989   9.415  0.2014  0.6898  0.8274
  735MOL0     H97016  10.980   2.751   9.360 -1.2905 -0.5578 -2.1150
  735MOL0     H97017  11.069   2.850   9.244  0.5086  0.5093  1.0568
  735MOL0     H97018  11.360   2.633   9.446  0.5081 -1.0645 -1.2659
  735MOL0     H97019  10.997   2.748   9.831 -4.6918  2.4135  1.5481
  735MOL0     H97020  11.030   2.533   9.944  0.6624 -0.8322 -1.1145
  736MOL0     O97021   4.404   6.871   3.811 -0.2604  0.3271  0.1307
  736MOL0     C97022   4.438   6.922   3.710  0.5487  0.5543 -0.6145
  736MOL0     O97023   4.345   6.957   3.604  0.7419 -0.0246  0.6165
  736MOL0     C97024   4.211   6.917   3.608  0.6548  0.7996 -0.0784
  736MOL0     C97025   4.100   7.008   3.597 -0.7159 -0.2615  0.5763
  736MOL0     C97026   3.969   6.967   3.615 -0.1330  0.3401 -0.0460
  736MOL0     C97027   3.936   6.833   3.620 -0.5191  0.4224  0.5496
  736MOL0     O97028   3.810   6.782   3.622  1.0252  0.1867 -0.0614
  736MOL0     C97029   3.786   6.705   3.742 -0.4097 -0.0339 -0.6641
  736MOL0     C97030   3.759   6.793   3.861  0.3927 -1.5126 -0.8516
  736MOL0     C97031   3.631   6.883   3.846 -0.7602  0.3553  1.1336
  736MOL0     C97032   3.503   6.803   3.843  0.6097  0.7930 -0.1361
  736MOL0     C97033   3.380   6.885   3.830 -0.4870  0.1363  0.3093
  736MOL0     C97034   3.262   6.797   3.823  0.2614 -0.3893  0.8034
  736MOL0     C97035   3.147   6.838   3.723  0.1203  0.7062 -0.2854
  736MOL0     C97036   3.033   6.718   3.708  0.1598  0.5559  0.0211
  736MOL0     N97037   2.934   6.744   3.608  0.0164 -0.4118  0.1280
  736MOL0     C97038   2.800   6.751   3.640 -0.6991 -0.1279  0.0767
  736MOL0     C97039   2.737   6.771   3.525  0.4401  0.0277  0.7493
  736MOL0     C97040   2.589   6.786   3.506  0.2379  0.4113 -0.2947
  736MOL0     C97041   2.542   6.920   3.573 -0.2323 -0.3794  1.1361
  736MOL0     C97042   2.378   6.918   3.576  0.6209 -0.3453  0.4566
  736MOL0     C97043   2.323   6.814   3.682 -0.5003  0.6026  0.1681
  736MOL0     O97044   2.187   6.851   3.707  0.2276  0.3066 -0.2168
  736MOL0     C97045   2.104   6.761   3.773  0.8722 -0.4110  0.6001
  736MOL0     C97046   1.969   6.803   3.802  0.7484 -0.8037 -0.2060
  736MOL0     C97047   1.872   6.723   3.866 -0.3466 -0.6633 -0.5037
  736MOL0     C97048   1.911   6.602   3.925 -0.2746 -0.3337 -0.7491
  736MOL0     C97049   1.819   6.511   3.997 -0.6497  0.4554  1.0316
  736MOL0     O97050   1.691   6.546   4.020  0.1590  0.4944  0.0728
  736MOL0     C97051   1.608   6.461   4.097  0.0110  0.1849  0.3099
  736MOL0     C97052   1.653   6.373   4.197 -0.1673  0.3397 -0.0390
  736MOL0     C97053   1.564   6.276   4.261 -0.1298  0.2063 -0.3417
  736MOL0     C97054   1.439   6.258   4.205  0.4072 -0.0026  0.0053
  736MOL0     O97055   1.348   6.164   4.261 -0.4643  1.3929 -0.0223
  736MOL0     C97056   1.206   6.195   4.277  0.4625  0.1950  1.0158
  736MOL0     C97057   1.184   6.326   4.360 -0.5539  0.0678 -0.3927
  736MOL0     C97058   1.217   6.312   4.517 -0.0819  0.0182  0.1625
  736MOL0     C97059   1.162   6.414   4.615 -0.4588  0.0306 -1.0122
  736MOL0     C97060   1.201   6.389   4.765  0.8427 -0.7116 -0.1417
  736MOL0     C97061   1.156   6.250   4.812 -0.0496  0.2149  0.0558
  736MOL0     C97062   1.177   6.239   4.965 -0.6919 -0.5478  0.0937
  736MOL0     C97063   1.062   6.291   5.048  0.6059 -0.0739 -0.2098
  736MOL0    Cl97064   1.087   6.260   5.226  0.5565  0.0025 -0.0727
  736MOL0     C97065   1.388   6.344   4.099  1.5585  0.1641 -0.0142
  736MOL0     C97066   1.473   6.443   4.052 -0.7465 -0.0118  1.3648
  736MOL0     O97067   1.867   6.400   4.020 -0.1212  0.7632  0.2071
  736MOL0     C97068   2.045   6.560   3.900 -0.4171 -0.2002  0.3464
  736MOL0     C97069   2.132   6.632   3.826 -0.0164  1.2570  0.0708
  736MOL0     N97070   2.829   6.797   3.426  0.3363 -1.1373  0.8308
  736MOL0     N97071   2.946   6.792   3.477 -0.3036  0.8312  0.0474
  736MOL0     C97072   4.048   6.740   3.602  0.3805  0.0214 -0.1579
  736MOL0     C97073   4.179   6.784   3.600 -0.5833 -0.8568  0.8287
  736MOL0     C97074   4.582   6.965   3.696  1.5288 -0.2365 -0.1992
  736MOL0     C97075   4.669   6.965   3.801 -0.1636  0.9613  0.3392
  736MOL0     C97076   4.802   6.985   3.784 -0.0904 -0.4256 -0.0894
  736MOL0     C97077   4.854   7.021   3.657  0.0339 -0.4706  0.4729
  736MOL0     O97078   4.983   7.069   3.642  0.5627  0.5043  0.7131
  736MOL0     C97079   5.089   7.020   3.716 -0.0385 -0.2689 -0.4884
  736MOL0     C97080   5.130   7.138   3.794 -0.5222 -0.2023 -0.9103
  736MOL0     C97081   5.242   7.109   3.898 -0.5375 -0.2793 -0.9675
  736MOL0     C97082   5.315   7.232   3.947  0.5286  0.1295  1.0981
  736MOL0     C97083   5.398   7.280   3.839  0.2769 -0.9544 -0.7095
  736MOL0     C97084   5.475   7.299   3.744  0.7661 -0.6263 -0.5516
  736MOL0     C97085   4.768   7.023   3.545  0.4328  0.0353 -0.2684
  736MOL0     C97086   4.630   6.987   3.565  1.2675 -0.9893  0.2537
  736MOL0     H97087   4.133   7.111   3.588  0.6403 -0.7851 -0.9370
  736MOL0     H97088   3.897   7.046   3.635 -0.5638  0.0987 -0.6125
  736MOL0     H97089   3.868   6.638   3.767  0.2297  0.9248 -0.1231
  736MOL0     H97090   3.701   6.639   3.725 -0.6539 -0.0935  0.6867
  736MOL0     H97091   3.848   6.857   3.869  0.2168 -1.4935  2.4462
  736MOL0     H97092   3.742   6.730   3.950  0.8298  0.7171  0.8943
  736MOL0     H97093   3.625   6.943   3.755 -1.6450  0.4140  1.2241
  736MOL0     H97094   3.640   6.950   3.932  1.4458  0.6430  0.7449
  736MOL0     H97095   3.500   6.729   3.763  0.1411  0.2188  0.3992
  736MOL0     H97096   3.494   6.740   3.933  2.8749 -0.8665 -0.9607
  736MOL0     H97097   3.388   6.944   3.737 -2.9019 -0.9029 -0.6369
  736MOL0     H97098   3.379   6.958   3.911 -1.3197  0.9775 -0.4383
  736MOL0     H97099   3.218   6.798   3.923 -0.6406 -2.3233  0.4854
  736MOL0     H97100   3.284   6.692   3.798 -0.5424 -0.5768  0.8322
  736MOL0     H97101   3.091   6.924   3.761  0.8676  0.6748  0.9361
  736MOL0     H97102   3.198   6.872   3.632  2.0559  1.7964  1.1353
  736MOL0     H97103   2.987   6.694   3.804  0.8699  2.0487  0.7576
  736MOL0     H97104   3.092   6.630   3.678 -0.7319  0.5103 -1.7221
  736MOL0     H97105   2.753   6.734   3.737 -2.5276  0.8659 -0.5981
  736MOL0     H97106   2.540   6.695   3.542  0.4519 -0.2064 -1.5320
  736MOL0     H97107   2.556   6.782   3.402 -0.7013  0.6783 -0.0242
  736MOL0     H97108   2.568   7.005   3.509 -3.7224  0.0096  0.0488
  736MOL0     H97109   2.586   6.941   3.671 -1.5818  3.6860  1.0542
  736MOL0     H97110   2.340   7.015   3.608 -2.0613 -1.7726  1.9594
  736MOL0     H97111   2.326   6.893   3.483 -1.1870  0.2078  1.2622
  736MOL0     H97112   2.389   6.811   3.769 -0.9993 -0.0995  0.5327
  736MOL0     H97113   2.314   6.711   3.648 -0.1847  0.5434  0.2596
  736MOL0     H97114   1.937   6.896   3.756 -0.2245 -1.4955 -0.9861
  736MOL0     H97115   1.777   6.772   3.882  0.6538  0.8859  1.0932
  736MOL0     H97116   1.753   6.389   4.237  0.0496 -0.8520 -0.0532
  736MOL0     H97117   1.582   6.212   4.347  0.7293 -0.3420 -0.9204
  736MOL0     H97118   1.156   6.109   4.323 -3.2729  2.1129  0.9310
  736MOL0     H97119   1.161   6.214   4.179  1.8124 -1.8322 -0.0692
  736MOL0     H97120   1.082   6.362   4.343 -1.5968 -2.6054 -0.3132
  736MOL0     H97121   1.258   6.399   4.327  2.2389 -1.5180  1.8858
  736MOL0     H97122   1.324   6.308   4.540 -0.4216 -4.8572  2.2281
  736MOL0     H97123   1.171   6.218   4.549  0.5932 -0.8605 -1.3007
  736MOL0     H97124   1.201   6.508   4.576  1.6165 -1.4433 -2.6766
  736MOL0     H97125   1.053   6.413   4.601 -0.4530 -2.0468 -1.2918
  736MOL0     H97126   1.170   6.467   4.836  2.1251 -2.4188  2.4507
  736MOL0     H97127   1.309   6.391   4.780  0.7472 -2.4806  1.0498
  736MOL0     H97128   1.208   6.166   4.765  0.0133 -0.3324  1.0527
  736MOL0     H97129   1.047   6.256   4.799 -0.0008  0.8378 -0.0750
  736MOL0     H97130   1.176   6.131   4.984 -0.1565 -1.2420 -3.2281
  736MOL0     H97131   1.269   6.280   5.009  0.5946  0.1567 -2.9794
  736MOL0     H97132   0.964   6.247   5.028 -0.8275 -0.6789  5.9453
  736MOL0     H97133   1.068   6.398   5.029 -0.2066 -0.1087 -0.6697
  736MOL0     H97134   1.283   6.341   4.072  0.9453 -0.5782  2.2263
  736MOL0     H97135   1.438   6.509   3.974  1.1568  0.1381  0.5926
  736MOL0     H97136   2.076   6.461   3.931  1.7794  0.9626  2.2135
  736MOL0     H97137   2.234   6.595   3.817  0.2088  1.0140  2.7269
  736MOL0     H97138   4.017   6.638   3.580 -1.9806  1.0695 -2.1351
  736MOL0     H97139   4.269   6.723   3.593  0.7436  1.1768 -1.1852
  736MOL0     H97140   4.623   6.926   3.892 -1.9310  0.7023 -0.6206
  736MOL0     H97141   4.862   6.974   3.874  0.2650  1.5204 -0.0325
  736MOL0     H97142   5.172   6.994   3.650 -0.5762 -1.0906 -0.8657
  736MOL0     H97143   5.067   6.932   3.777 -0.9257  0.6657  0.5920
  736MOL0     H97144   5.159   7.211   3.718 -3.3903 -0.8496 -2.7727
  736MOL0     H97145   5.043   7.180   3.845 -2.2407 -2.8235 -1.4773
  736MOL0     H97146   5.313   7.027   3.879  1.8483  0.2436  4.0675
  736MOL0     H97147   5.179   7.071   3.979 -2.7492 -2.6133 -3.5734
  736MOL0     H97148   5.246   7.314   3.965  0.4509  0.4242 -0.3943
  736MOL0     H97149   5.373   7.213   4.038  0.7303 -1.4386  0.6756
  736MOL0     H97150   5.529   7.308   3.651 -1.5489  0.2965 -1.8898
  736MOL0     H97151   4.808   7.056   3.450 -0.1461  3.9038  0.6735
  736MOL0     H97152   4.571   6.985   3.474  0.5820  0.6650  0.6151
  737MOL0     O97153   5.664   9.088   8.938  0.2926 -0.1683 -0.3304
  737MOL0     C97154   5.738   9.040   9.024  0.3490 -0.4301 -0.3550
  737MOL0     O97155   5.700   8.939   9.104 -0.0868 -0.0068 -0.6181
  737MOL0     C97156   5.572   8.885   9.083 -0.2809 -0.1677 -0.1142
  737MOL0     C97157   5.456   8.960   9.062 -0.3189  1.0937  0.5269
  737MOL0     C97158   5.331   8.893   9.029 -0.1553 -0.3405 -0.3687
  737MOL0     C97159   5.317   8.748   9.020 -0.4855 -0.6020  0.2774
  737MOL0     O97160   5.201   8.681   8.994 -0.0718 -0.5803  0.3836
  737MOL0     C97161   5.172   8.665   8.856 -0.0148  0.9319 -0.0527
  737MOL0     C97162   5.209   8.520   8.817  0.4090  0.6417 -0.3009
  737MOL0     C97163   5.140   8.405   8.898  0.3614  0.3822  0.3929
  737MOL0     C97164   5.206   8.271   8.878 -0.0902 -0.2068  0.5059
  737MOL0     C97165   5.119   8.161   8.946  0.2794  0.6155 -0.6353
  737MOL0     C97166   5.171   8.023   8.902  0.9838 -0.2799 -0.1138
  737MOL0     C97167   5.166   7.981   8.758  0.0569 -0.6395  0.1200
  737MOL0     C97168   5.016   8.004   8.703 -0.5857 -0.1228 -0.3586
  737MOL0     N97169   4.974   7.907   8.595  0.0143 -0.6550 -0.3672
  737MOL0     C97170   5.006   7.774   8.593 -0.3257  1.1957 -0.6999
  737MOL0     C97171   4.956   7.725   8.473 -0.7902 -1.0106 -0.6102
  737MOL0     C97172   4.976   7.582   8.426 -0.2719 -0.2247  0.5378
  737MOL0     C97173   4.936   7.488   8.537  0.3612 -0.6889  0.3654
  737MOL0     C97174   4.949   7.344   8.485 -0.1569 -0.7994 -0.3389
  737MOL0     C97175   4.848   7.303   8.372  0.2364 -0.0150 -0.0199
  737MOL0     O97176   4.847   7.156   8.368 -0.4826 -0.0292 -0.5485
  737MOL0     C97177   4.761   7.117   8.278  0.5859  0.2296  0.8522
  737MOL0     C97178   4.643   7.040   8.304 -0.6997 -0.7651 -0.5644
  737MOL0     C97179   4.568   6.992   8.204  0.4543  1.0285  0.0484
  737MOL0     C97180   4.599   7.019   8.068  0.2469 -0.4521 -0.4484
  737MOL0     C97181   4.513   6.973   7.959  0.6833 -0.9373  0.1475
  737MOL0     O97182   4.431   6.857   7.999 -0.4977 -0.4579 -0.1800
  737MOL0     C97183   4.370   6.771   7.916 -0.6622  0.2874  0.1316
  737MOL0     C97184   4.323   6.660   7.981 -0.1040 -0.0968 -0.8457
  737MOL0     C97185   4.266   6.556   7.906 -0.4523 -0.2100 -0.4910
  737MOL0     C97186   4.263   6.566   7.765  0.1552 -0.0755 -0.2890
  737MOL0     O97187   4.205   6.470   7.687 -0.0404 -0.1678  0.6239
  737MOL0     C97188   4.094   6.392   7.720  0.7964 -0.2089 -0.9403
  737MOL0     C97189   4.134   6.252   7.764 -0.0741  0.6053 -0.2772
  737MOL0     C97190   4.115   6.145   7.662 -0.3758  0.7986  0.2310
  737MOL0     C97191   3.979   6.136   7.603  0.7939 -0.2958  0.7250
  737MOL0     C97192   3.927   5.999   7.540  0.0387  0.4198  0.2535
  737MOL0     C97193   4.024   5.966   7.427 -0.7286 -1.2767  0.9719
  737MOL0     C97194   4.017   6.069   7.310  0.6658 -0.3436 -0.6304
  737MOL0     C97195   4.094   6.011   7.183 -0.7342 -0.1583 -0.3983
  737MOL0    Cl97196   4.112   6.141   7.065  0.1314 -0.3047 -0.2695
  737MOL0     C97197   4.294   6.687   7.702  0.5076 -0.0673  0.3293
  737MOL0     C97198   4.349   6.790   7.780 -1.3035  0.5672 -0.6502
  737MOL0     O97199   4.519   7.031   7.852 -0.0203 -0.1500 -0.1090
  737MOL0     C97200   4.707   7.101   8.045  0.5622  0.5480 -0.3517
  737MOL0     C97201   4.788   7.137   8.142  0.5100 -0.7677 -0.0337
  737MOL0     N97202   4.907   7.836   8.400  0.4251 -0.5023  0.0262
  737MOL0     N97203   4.912   7.946   8.474  0.0965  0.6303  0.2595
  737MOL0     C97204   5.440   8.684   9.050  0.6930 -0.2464  0.0131
  737MOL0     C97205   5.560   8.745   9.071 -0.1267  0.4604 -0.1327
  737MOL0     C97206   5.870   9.096   9.055  0.6424 -0.6773 -0.4375
  737MOL0     C97207   5.930   9.189   8.972  0.0652  0.2116  0.5642
  737MOL0     C97208   6.058   9.238   8.998 -0.3864  0.1809 -0.1345
  737MOL0     C97209   6.126   9.196   9.111  0.3891  0.3399 -1.0752
  737MOL0     O97210   6.249   9.247   9.147 -0.0251 -0.7706 -0.1645
  737MOL0     C97211   6.346   9.270   9.046 -0.3411  0.0768  0.7577
  737MOL0     C97212   6.488   9.253   9.100  0.2619 -0.3522 -0.1390
  737MOL0     C97213   6.511   9.115   9.174 -0.4583 -0.3960  0.2816
  737MOL0     C97214   6.637   9.119   9.266  0.6864  0.4278 -0.3962
  737MOL0     C97215   6.753   9.139   9.179 -0.1246 -0.0289 -0.1060
  737MOL0     C97216   6.846   9.150   9.101  0.1556 -0.2984  0.2542
  737MOL0     C97217   6.061   9.123   9.203 -0.4164  0.3395  0.0801
  737MOL0     C97218   5.937   9.068   9.176  0.2812  0.3624  0.2730
  737MOL0     H97219   5.459   9.067   9.078 -1.0985  1.0996  0.6775
  737MOL0     H97220   5.243   8.952   9.004 -1.5704 -2.1858  0.0209
  737MOL0     H97221   5.212   8.746   8.794  0.1666  2.8744  2.4455
  737MOL0     H97222   5.064   8.669   8.838  0.0914 -2.2428 -2.2647
  737MOL0     H97223   5.317   8.502   8.822  0.0836 -2.3283 -1.7245
  737MOL0     H97224   5.187   8.508   8.711 -1.8532 -2.9141  0.3896
  737MOL0     H97225   5.032   8.415   8.879 -0.2835  0.9367  3.7139
  737MOL0     H97226   5.138   8.428   9.005 -3.5276  1.3271  0.2660
  737MOL0     H97227   5.202   8.237   8.774  1.5190 -1.8972  0.9514
  737MOL0     H97228   5.313   8.265   8.899  1.8494 -1.7633 -6.7442
  737MOL0     H97229   5.013   8.169   8.920 -0.1931 -1.0239  0.5984
  737MOL0     H97230   5.126   8.160   9.055  0.2608  1.1494 -0.6244
  737MOL0     H97231   5.095   7.953   8.937  1.3069 -0.3866  0.3735
  737MOL0     H97232   5.258   7.994   8.962 -0.8983 -2.3960  1.7553
  737MOL0     H97233   5.223   8.042   8.687  0.0264  0.4060  0.9699
  737MOL0     H97234   5.209   7.881   8.750 -0.7277 -0.8429 -2.9643
  737MOL0     H97235   5.013   8.103   8.657  1.4309  1.1758  2.0461
  737MOL0     H97236   4.941   8.013   8.782  0.2621  2.2944  0.2371
  737MOL0     H97237   5.049   7.725   8.679  0.1667  0.0024 -1.5976
  737MOL0     H97238   5.080   7.574   8.395 -0.9851  0.3447 -2.3189
  737MOL0     H97239   4.926   7.559   8.331  1.5200 -0.2594 -0.4326
  737MOL0     H97240   4.835   7.511   8.572  0.4513  1.8872 -0.8422
  737MOL0     H97241   5.004   7.498   8.623  2.3038  0.3548 -1.2203
  737MOL0     H97242   5.048   7.317   8.446 -1.3548 -1.6375 -3.0385
  737MOL0     H97243   4.945   7.279   8.573 -0.0823  0.1909  0.4063
  737MOL0     H97244   4.884   7.341   8.276 -0.4882  0.3757 -0.1423
  737MOL0     H97245   4.745   7.324   8.404 -0.4002 -3.3299  0.5539
  737MOL0     H97246   4.592   7.045   8.399  1.7220  4.9164  0.8758
  737MOL0     H97247   4.484   6.928   8.229  1.0121  0.3509  0.2192
  737MOL0     H97248   4.327   6.652   8.089 -1.6869  0.6362 -0.6948
  737MOL0     H97249   4.243   6.464   7.958  1.8294 -0.4902  0.1434
  737MOL0     H97250   4.033   6.385   7.629 -1.4015 -2.6811  0.5601
  737MOL0     H97251   4.030   6.434   7.798  0.0331 -0.1274 -1.5932
  737MOL0     H97252   4.072   6.219   7.848  2.7231 -0.7892  1.3799
  737MOL0     H97253   4.238   6.244   7.796  0.4055  2.1712 -1.3030
  737MOL0     H97254   4.158   6.048   7.688 -0.3721  0.6218 -0.4279
  737MOL0     H97255   4.183   6.171   7.581  2.2578 -1.9902  1.3730
  737MOL0     H97256   3.903   6.145   7.681  1.2587 -2.2052  1.4389
  737MOL0     H97257   3.983   6.221   7.534  0.0367 -0.2918  0.6781
  737MOL0     H97258   3.826   6.002   7.499 -1.2821  0.0214  3.2820
  737MOL0     H97259   3.920   5.922   7.616 -0.7806  0.0791 -0.1620
  737MOL0     H97260   3.997   5.872   7.378 -0.1846 -0.4309 -1.0600
  737MOL0     H97261   4.127   5.957   7.465  0.1582 -1.6362 -1.3505
  737MOL0     H97262   3.915   6.104   7.294  1.4116  1.0947 -2.7215
  737MOL0     H97263   4.070   6.157   7.347  1.3225 -2.2258  3.3760
  737MOL0     H97264   4.051   5.920   7.140 -2.9928  0.2139  0.9168
  737MOL0     H97265   4.192   5.982   7.221 -0.6484 -2.1781 -1.9392
  737MOL0     H97266   4.291   6.691   7.594  0.5024 -1.3747  0.2688
  737MOL0     H97267   4.376   6.881   7.727  0.1518 -0.6238 -2.0451
  737MOL0     H97268   4.744   7.139   7.951  1.7072  0.7451  0.1683
  737MOL0     H97269   4.881   7.181   8.108  0.5970 -1.1979 -0.3556
  737MOL0     H97270   5.422   8.577   9.046 -1.2509  0.0188  0.6107
  737MOL0     H97271   5.657   8.694   9.076 -1.2551 -1.8465 -0.3715
  737MOL0     H97272   5.873   9.235   8.892 -0.2182 -1.7618 -0.4315
  737MOL0     H97273   6.101   9.317   8.938  2.1352 -0.4927  0.6250
  737MOL0     H97274   6.327   9.369   9.002  1.8310  0.6701  1.0445
  737MOL0     H97275   6.321   9.202   8.965 -3.9318  0.1342  1.6275
  737MOL0     H97276   6.556   9.259   9.015  1.6054  4.5456  0.9523
  737MOL0     H97277   6.521   9.334   9.165 -0.4523  0.4513 -0.7627
  737MOL0     H97278   6.524   9.027   9.111 -0.4268  0.2412 -0.6061
  737MOL0     H97279   6.436   9.106   9.253 -3.2759  2.4987 -1.8355
  737MOL0     H97280   6.640   9.201   9.338 -1.8709  1.5755 -1.4469
  737MOL0     H97281   6.643   9.024   9.319  0.0084 -0.6562 -2.1786
  737MOL0     H97282   6.912   9.163   9.018 -1.1046  1.5101 -0.5362
  737MOL0     H97283   6.114   9.113   9.298  1.2574 -1.9676 -1.0093
  737MOL0     H97284   5.877   9.008   9.244  1.1982  1.3507  2.0266
  738MOL0     O97285   9.860   9.337   2.925  1.0158 -0.2635  0.5204
  738MOL0     C97286   9.893   9.226   2.907 -0.0031 -0.6766  0.6682
  738MOL0     O97287  10.010   9.185   2.849 -1.6421  0.3157 -0.1738
  738MOL0     C97288  10.105   9.286   2.829 -0.4067 -0.2372  0.0815
  738MOL0     C97289  10.174   9.343   2.935 -0.3578  0.0143  0.5571
  738MOL0     C97290  10.298   9.419   2.917 -1.1336  0.0693 -0.6728
  738MOL0     C97291  10.360   9.434   2.794 -0.0196  0.1534 -0.3060
  738MOL0     O97292  10.480   9.489   2.783  0.5356 -0.4382 -1.4414
  738MOL0     C97293  10.490   9.623   2.734  0.0789 -0.4654 -0.1505
  738MOL0     C97294  10.466   9.629   2.579 -0.1700  0.3167  0.0944
  738MOL0     C97295  10.602   9.582   2.510  0.5573 -0.5528  0.3690
  738MOL0     C97296  10.621   9.635   2.369 -0.1065 -0.2213 -1.1554
  738MOL0     C97297  10.741   9.564   2.297 -0.2388 -0.7798  0.4589
  738MOL0     C97298  10.759   9.643   2.167  0.0311 -0.8103 -0.2603
  738MOL0     C97299  10.868   9.585   2.078 -0.0586  0.0806  0.4427
  738MOL0     C97300  11.005   9.601   2.148  0.8254 -0.6984  0.1253
  738MOL0     N97301  11.118   9.587   2.059  0.7172  0.6136 -1.1483
  738MOL0     C97302  11.160   9.465   2.010  0.9092  0.3864  0.2293
  738MOL0     C97303  11.267   9.505   1.939 -0.0399 -0.0043  1.3680
  738MOL0     C97304  11.353   9.404   1.863 -0.1816 -0.2567  0.6703
  738MOL0     C97305  11.377   9.272   1.941  0.3674  1.3898 -0.4298
  738MOL0     C97306  11.478   9.182   1.878 -0.6008 -0.2815 -0.4742
  738MOL0     C97307  11.618   9.235   1.927  0.4167 -0.2305  0.1010
  738MOL0     O97308  11.704   9.141   1.865 -0.1818  0.8502 -0.8601
  738MOL0     C97309  11.771   9.181   1.756  0.3139 -0.3282  0.1016
  738MOL0     C97310  11.873   9.268   1.782 -0.2366 -0.5564  0.3671
  738MOL0     C97311  11.942   9.322   1.671  0.3097  0.4593 -0.6581
  738MOL0     C97312  11.936   9.281   1.536 -0.3441  0.5176  0.2248
  738MOL0     C97313  12.011   9.334   1.435 -1.1738 -0.1525 -0.4764
  738MOL0     O97314  12.105   9.423   1.468 -0.3605 -0.7845  1.0947
  738MOL0     C97315  12.182   9.456   1.357  0.7680 -0.0540  0.0198
  738MOL0     C97316  12.187   9.591   1.318  0.5460  0.7255 -0.7732
  738MOL0     C97317  12.263   9.630   1.213 -0.5407  0.0224  0.2399
  738MOL0     C97318  12.338   9.547   1.127 -0.3146  0.3761 -1.3505
  738MOL0     O97319  12.405   9.613   1.028 -0.7283 -0.2618  0.8357
  738MOL0     C97320  12.479   9.540   0.926  0.2881 -0.0685  0.5290
  738MOL0     C97321  12.466   9.611   0.789 -0.6350  0.3255 -0.4299
  738MOL0     C97322  12.336   9.581   0.725  0.2220  1.0564 -0.1367
  738MOL0     C97323  12.344   9.612   0.575  0.5880 -0.4400  0.5513
  738MOL0     C97324  12.244   9.553   0.478 -0.0367  0.8312 -0.3610
  738MOL0     C97325  12.252   9.402   0.490  0.2717  0.1163  0.6702
  738MOL0     C97326  12.173   9.332   0.379 -0.1191  0.2654 -0.7454
  738MOL0     C97327  12.161   9.179   0.400  0.1615 -0.0971  0.4332
  738MOL0    Cl97328  12.066   9.124   0.268 -0.3489 -0.4588  0.0976
  738MOL0     C97329  12.343   9.410   1.163  1.1402 -0.2944 -0.5570
  738MOL0     C97330  12.267   9.368   1.279  0.0744 -0.4047  0.4629
  738MOL0     O97331  12.005   9.275   1.321  0.0566 -0.2864  0.4016
  738MOL0     C97332  11.833   9.182   1.516 -0.3581  0.0005  0.7078
  738MOL0     C97333  11.746   9.135   1.620 -0.3718 -0.4536  0.9595
  738MOL0     N97334  11.274   9.645   1.934 -0.6002  0.6976 -0.2684
  738MOL0     N97335  11.180   9.693   2.004 -0.1859 -0.4173  0.2766
  738MOL0     C97336  10.294   9.365   2.686  0.0738  1.1100 -0.0135
  738MOL0     C97337  10.171   9.291   2.705 -1.2950 -0.2602  0.3248
  738MOL0     C97338   9.822   9.119   2.979 -0.1293  0.0479  0.3068
  738MOL0     C97339   9.886   9.003   3.037 -0.2760 -0.1075 -1.0283
  738MOL0     C97340   9.813   8.911   3.116  0.1012 -0.1596  0.4277
  738MOL0     C97341   9.678   8.942   3.145 -0.1040  0.6002 -0.3764
  738MOL0     O97342   9.593   8.862   3.224 -0.2587 -0.0363 -0.3424
  738MOL0     C97343   9.632   8.730   3.276  0.9366  0.0232 -0.4863
  738MOL0     C97344   9.508   8.693   3.355 -0.3480  0.2212 -0.7661
  738MOL0     C97345   9.496   8.781   3.482 -0.3314 -0.1397  0.1881
  738MOL0     C97346   9.412   8.718   3.591 -0.0933  0.1966 -0.3288
  738MOL0     C97347   9.458   8.581   3.632  0.7384 -0.5836  0.5965
  738MOL0     C97348   9.504   8.475   3.666  0.8131 -0.4930 -0.4900
  738MOL0     C97349   9.625   9.058   3.101  0.3420 -0.5743  0.2488
  738MOL0     C97350   9.687   9.147   3.022  0.3321  0.4059 -0.3650
  738MOL0     H97351  10.135   9.329   3.035 -2.7105  2.1646  0.0415
  738MOL0     H97352  10.348   9.464   3.001  0.1293  1.5946 -2.1743
  738MOL0     H97353  10.581   9.671   2.770  1.1901 -1.7053 -1.2132
  738MOL0     H97354  10.406   9.673   2.783 -0.4029 -1.5129  0.1197
  738MOL0     H97355  10.431   9.729   2.552 -4.5443 -1.7336 -3.2028
  738MOL0     H97356  10.377   9.578   2.541 -0.9256  2.7118 -1.6036
  738MOL0     H97357  10.612   9.474   2.513  2.7292 -0.7077 -4.2287
  738MOL0     H97358  10.689   9.613   2.569  0.0705 -0.2553  0.9480
  738MOL0     H97359  10.525   9.637   2.317 -0.9969  3.2181  0.2772
  738MOL0     H97360  10.663   9.735   2.385  2.0142 -1.3584  1.1776
  738MOL0     H97361  10.717   9.461   2.270  0.1913 -0.1589 -2.6898
  738MOL0     H97362  10.834   9.576   2.354  0.0893  1.1888 -0.4215
  738MOL0     H97363  10.790   9.746   2.188 -2.0232 -0.1567 -0.2325
  738MOL0     H97364  10.671   9.646   2.101  0.9694  0.9472 -1.5311
  738MOL0     H97365  10.848   9.478   2.070  1.6046 -0.3002  0.9468
  738MOL0     H97366  10.869   9.635   1.981 -1.9095 -0.1721  0.2617
  738MOL0     H97367  11.018   9.521   2.222  0.5390 -0.0820  0.8595
  738MOL0     H97368  11.018   9.700   2.192  0.2105 -0.3213 -0.5323
  738MOL0     H97369  11.114   9.367   2.020 -1.2717  1.4486  1.4413
  738MOL0     H97370  11.441   9.463   1.837  1.9710 -4.2210 -2.0449
  738MOL0     H97371  11.299   9.393   1.768 -1.4466  1.6027  1.1241
  738MOL0     H97372  11.286   9.212   1.946 -1.2343  3.6635 -1.0188
  738MOL0     H97373  11.413   9.277   2.045 -0.8643 -1.3713  0.2017
  738MOL0     H97374  11.457   9.082   1.915 -0.0018  1.1801  4.4234
  738MOL0     H97375  11.470   9.182   1.768 -0.1576  0.3154 -0.5136
  738MOL0     H97376  11.621   9.226   2.036  0.1417 -0.0325  0.1267
  738MOL0     H97377  11.635   9.338   1.897  1.4905 -1.0237 -2.2014
  738MOL0     H97378  11.895   9.325   1.872 -1.3375  0.7950 -0.1901
  738MOL0     H97379  12.006   9.407   1.693 -0.3090  1.0746 -1.1362
  738MOL0     H97380  12.140   9.665   1.382 -0.2792 -1.3429  1.1491
  738MOL0     H97381  12.266   9.734   1.179 -0.2135 -0.8840 -2.8501
  738MOL0     H97382  12.446   9.436   0.918 -2.4955  0.6744  1.4647
  738MOL0     H97383  12.584   9.541   0.958 -0.1056 -0.1009  1.8567
  738MOL0     H97384  12.544   9.588   0.716 -1.8664 -2.0989 -1.0763
  738MOL0     H97385  12.467   9.720   0.802  1.2449  0.5260 -1.8386
  738MOL0     H97386  12.252   9.628   0.776  1.0433 -0.7608  3.1559
  738MOL0     H97387  12.328   9.473   0.741  0.8089  1.1048  0.5425
  738MOL0     H97388  12.327   9.719   0.567 -0.8357 -0.5957  1.2653
  738MOL0     H97389  12.443   9.586   0.535  0.5072  1.7473 -1.2090
  738MOL0     H97390  12.275   9.580   0.377  0.3141  0.8770 -0.2420
  738MOL0     H97391  12.140   9.586   0.490  0.1895  1.5579 -0.3736
  738MOL0     H97392  12.202   9.382   0.586 -0.1395  0.2007  0.4738
  738MOL0     H97393  12.357   9.369   0.491  0.4690  0.7454  1.5031
  738MOL0     H97394  12.082   9.392   0.370  1.9958  4.8859  3.6499
  738MOL0     H97395  12.231   9.351   0.288  1.0034 -1.5428 -0.4638
  738MOL0     H97396  12.115   9.170   0.499 -2.4600  0.8280 -0.5841
  738MOL0     H97397  12.260   9.134   0.409  0.5479  1.0307  2.3673
  738MOL0     H97398  12.396   9.331   1.111 -0.7343 -1.9130 -0.1598
  738MOL0     H97399  12.268   9.261   1.298 -0.4182 -0.4889  0.0385
  738MOL0     H97400  11.823   9.144   1.415  3.5311 -2.6515  1.0855
  738MOL0     H97401  11.660   9.070   1.608 -0.4247 -0.4362  1.2314
  738MOL0     H97402  10.343   9.357   2.589  1.9925 -1.2117  1.0108
  738MOL0     H97403  10.132   9.238   2.619 -2.0535 -0.8098  0.9962
  738MOL0     H97404   9.989   8.976   3.016 -0.0378  1.0516 -1.4235
  738MOL0     H97405   9.844   8.816   3.159 -1.9694 -1.0544  0.0811
  738MOL0     H97406   9.717   8.738   3.343 -0.4976  1.2577  1.2963
  738MOL0     H97407   9.652   8.652   3.202  1.1251 -1.3574  0.9850
  738MOL0     H97408   9.421   8.698   3.288  0.8429  0.1618 -2.4022
  738MOL0     H97409   9.513   8.586   3.374 -2.1027  0.3683  0.8128
  738MOL0     H97410   9.442   8.868   3.444  0.6682  0.0513 -0.8420
  738MOL0     H97411   9.595   8.807   3.520 -0.3622 -0.1687  0.2887
  738MOL0     H97412   9.396   8.790   3.671 -0.7275  0.2854 -0.5285
  738MOL0     H97413   9.312   8.708   3.546  0.2186 -1.8144 -0.6353
  738MOL0     H97414   9.531   8.379   3.706  0.6693 -0.0098  0.8490
  738MOL0     H97415   9.525   9.092   3.129  0.6785  1.6291 -0.9895
  738MOL0     H97416   9.630   9.231   2.982 -1.4049 -0.5883 -0.0741
  739MOL0     O97417   8.064   8.913   6.561 -0.3978  0.6502 -0.4609
  739MOL0     C97418   8.165   8.887   6.499  0.0312 -0.6541 -0.0576
  739MOL0     O97419   8.172   8.860   6.358 -0.1194  0.0276 -0.2759
  739MOL0     C97420   8.052   8.864   6.298 -0.9958 -0.7212 -0.7487
  739MOL0     C97421   7.996   8.976   6.230 -0.1668 -0.6893  0.4494
  739MOL0     C97422   7.877   8.972   6.167 -0.5142 -0.1526 -0.8448
  739MOL0     C97423   7.809   8.850   6.151  0.7062  0.3848 -0.4931
  739MOL0     O97424   7.689   8.834   6.086 -0.4605 -0.3487 -0.3553
  739MOL0     C97425   7.581   8.925   6.100 -0.3802 -0.1607  0.7280
  739MOL0     C97426   7.464   8.885   6.012 -0.7989 -0.0467  0.7655
  739MOL0     C97427   7.497   8.924   5.860 -1.0719  0.9749  0.0357
  739MOL0     C97428   7.377   8.928   5.773 -0.9927 -0.2522 -0.6457
  739MOL0     C97429   7.418   8.940   5.629 -0.2406 -0.4221  0.4037
  739MOL0     C97430   7.511   9.059   5.613 -0.4246  0.6538 -0.0737
  739MOL0     C97431   7.542   9.084   5.459  0.0390  0.6384 -0.3161
  739MOL0     C97432   7.541   9.229   5.419 -0.3693  0.5649  1.0520
  739MOL0     N97433   7.534   9.235   5.272 -0.5245 -1.4570 -0.8399
  739MOL0     C97434   7.580   9.348   5.201  0.4872 -0.7832  0.4028
  739MOL0     C97435   7.499   9.331   5.089 -0.0086  0.1313 -0.2125
  739MOL0     C97436   7.527   9.429   4.984  0.7845 -0.3970 -0.1719
  739MOL0     C97437   7.456   9.386   4.853  0.8740  0.1943  0.1803
  739MOL0     C97438   7.318   9.459   4.829 -0.7850 -0.6262 -0.0222
  739MOL0     C97439   7.338   9.575   4.726 -0.3090 -0.4727  0.0224
  739MOL0     O97440   7.359   9.700   4.797  1.2196 -0.2918 -0.3581
  739MOL0     C97441   7.334   9.814   4.721  0.2937  0.0046 -0.2200
  739MOL0     C97442   7.297   9.928   4.797 -0.5928 -1.2939 -0.6175
  739MOL0     C97443   7.272  10.055   4.733  0.6479  0.4654  0.8286
  739MOL0     C97444   7.265  10.062   4.594 -0.0134  0.8751 -0.0544
  739MOL0     C97445   7.248  10.195   4.530 -0.2956  0.0728  0.2704
  739MOL0     O97446   7.255  10.191   4.396 -0.3645  0.0269 -0.4844
  739MOL0     C97447   7.247  10.315   4.334 -0.6414 -0.1846 -0.0782
  739MOL0     C97448   7.324  10.428   4.362  0.9152  0.9140 -1.7495
  739MOL0     C97449   7.305  10.559   4.298 -0.8957  0.4858 -0.2759
  739MOL0     C97450   7.209  10.559   4.205  0.6629 -0.2164  1.6166
  739MOL0     O97451   7.169  10.669   4.131 -0.6685  0.5428  0.0035
  739MOL0     C97452   7.257  10.771   4.089 -0.0316 -0.2265  1.5398
  739MOL0     C97453   7.178  10.881   4.009 -0.6794  0.2804  0.2090
  739MOL0     C97454   7.108  10.804   3.895  0.3797 -0.8451 -0.3925
  739MOL0     C97455   7.036  10.897   3.783 -0.5303 -0.1577 -1.4360
  739MOL0     C97456   6.916  10.987   3.837 -0.4876 -0.9430 -0.3726
  739MOL0     C97457   6.860  11.070   3.728 -0.6796  0.6413 -0.0758
  739MOL0     C97458   6.715  11.094   3.743  1.1811 -0.3715  1.2337
  739MOL0     C97459   6.657  11.148   3.606 -0.1165  0.6237 -0.5339
  739MOL0    Cl97460   6.484  11.192   3.625 -0.2366 -0.5994  0.3247
  739MOL0     C97461   7.133  10.444   4.172  0.4439 -0.2350 -0.3925
  739MOL0     C97462   7.154  10.326   4.241  0.7425 -0.7464  0.0512
  739MOL0     O97463   7.219  10.294   4.600 -0.0636  0.2868 -0.5342
  739MOL0     C97464   7.289   9.939   4.525 -0.8273  0.2716  0.4183
  739MOL0     C97465   7.320   9.820   4.587 -1.0048 -0.2214  0.8756
  739MOL0     N97466   7.432   9.214   5.086  0.0777  0.0162  0.0883
  739MOL0     N97467   7.454   9.168   5.198  0.7724 -0.4761 -0.2218
  739MOL0     C97468   7.871   8.735   6.194 -0.1975  0.8832 -0.7230
  739MOL0     C97469   7.989   8.744   6.265 -1.8038  0.3698 -0.0045
  739MOL0     C97470   8.290   8.912   6.573  0.1199 -0.5699  0.5588
  739MOL0     C97471   8.413   8.887   6.505  0.1964  0.4518  0.6771
  739MOL0     C97472   8.536   8.897   6.570  0.1806  0.2004 -0.7619
  739MOL0     C97473   8.538   8.940   6.703  0.3787  0.7429 -0.3136
  739MOL0     O97474   8.659   8.946   6.780  0.7974 -0.3648 -0.2469
  739MOL0     C97475   8.786   8.894   6.740  1.3685 -0.2788  0.1326
  739MOL0     C97476   8.903   8.956   6.825 -0.2063 -1.3539 -0.0520
  739MOL0     C97477   8.898   9.114   6.831 -0.4980  0.0502  0.9416
  739MOL0     C97478   8.779   9.180   6.891 -0.0340 -0.5399 -0.8907
  739MOL0     C97479   8.811   9.312   6.955  0.7932  0.2461 -0.3552
  739MOL0     C97480   8.837   9.418   7.000  0.9603 -0.0421  0.7392
  739MOL0     C97481   8.421   8.974   6.768 -0.3624  0.2231 -1.6149
  739MOL0     C97482   8.295   8.950   6.706 -0.6396 -0.9091 -0.2813
  739MOL0     H97483   8.044   9.072   6.246 -3.1490  1.7338 -3.5725
  739MOL0     H97484   7.817   9.062   6.155 -1.8861 -1.1776 -1.9620
  739MOL0     H97485   7.617   9.026   6.077  1.8785 -1.4792 -2.1587
  739MOL0     H97486   7.545   8.908   6.202  0.6858  1.4539  1.4148
  739MOL0     H97487   7.369   8.929   6.042 -0.4100  1.1626  0.2701
  739MOL0     H97488   7.448   8.776   6.018  1.4609 -0.4623  0.2505
  739MOL0     H97489   7.589   8.874   5.829 -2.4494 -1.4867 -0.3767
  739MOL0     H97490   7.521   9.030   5.864  0.2863  0.6674  0.6256
  739MOL0     H97491   7.306   8.845   5.772  0.5456 -1.6020 -0.7958
  739MOL0     H97492   7.327   9.022   5.799 -0.0433  0.6471 -1.9721
  739MOL0     H97493   7.322   8.956   5.579 -1.2082  2.8439  2.9686
  739MOL0     H97494   7.461   8.842   5.607  1.7199 -0.1566  2.5907
  739MOL0     H97495   7.606   9.042   5.665  0.2374  2.2751 -0.6761
  739MOL0     H97496   7.450   9.138   5.659 -1.3938  1.0817 -1.9964
  739MOL0     H97497   7.643   9.047   5.437  1.5002  2.1703  3.1031
  739MOL0     H97498   7.465   9.024   5.409 -0.4427 -0.7583  1.9570
  739MOL0     H97499   7.632   9.274   5.460  1.3267  0.1385 -1.9927
  739MOL0     H97500   7.457   9.291   5.454 -2.2833 -1.6502  0.6110
  739MOL0     H97501   7.657   9.417   5.233  0.8747  0.6724 -3.2463
  739MOL0     H97502   7.636   9.444   4.981  0.3951  3.6061  0.1814
  739MOL0     H97503   7.490   9.525   5.021  0.4218 -0.3291 -0.6942
  739MOL0     H97504   7.443   9.278   4.856  2.1257  0.0373  2.0802
  739MOL0     H97505   7.521   9.392   4.765 -0.5598  3.0047 -0.8216
  739MOL0     H97506   7.260   9.386   4.772 -0.6262 -1.0927  0.4072
  739MOL0     H97507   7.267   9.483   4.923  1.5763 -0.3837  1.2596
  739MOL0     H97508   7.245   9.579   4.669 -0.2158  0.0723 -0.0991
  739MOL0     H97509   7.429   9.552   4.669  0.8848 -0.9015  1.9954
  739MOL0     H97510   7.296   9.913   4.904  0.2497 -0.2605 -0.4467
  739MOL0     H97511   7.248  10.139   4.798  1.4162  2.0685 -0.8570
  739MOL0     H97512   7.379  10.432   4.456  0.6906 -0.0163 -1.5672
  739MOL0     H97513   7.349  10.655   4.320  2.2066  0.4322 -4.8621
  739MOL0     H97514   7.338  10.731   4.028  1.9065  3.4960  1.3462
  739MOL0     H97515   7.305  10.818   4.175  0.8812  2.3033 -0.2117
  739MOL0     H97516   7.256  10.946   3.969 -1.2638  0.5967 -0.4427
  739MOL0     H97517   7.123  10.941   4.081 -2.7827 -1.4946  0.2238
  739MOL0     H97518   7.029  10.738   3.933 -0.9069 -1.0357 -3.1523
  739MOL0     H97519   7.179  10.734   3.851 -0.8295 -3.5289  1.6234
  739MOL0     H97520   7.104  10.972   3.742 -2.8923  1.9317 -1.7547
  739MOL0     H97521   6.996  10.835   3.701 -2.3335  0.5522 -1.1341
  739MOL0     H97522   6.935  11.043   3.929 -3.0493 -0.8365  0.1746
  739MOL0     H97523   6.843  10.918   3.881 -5.3163  3.8715  0.1961
  739MOL0     H97524   6.890  11.022   3.634  1.3896  0.3971  0.6594
  739MOL0     H97525   6.906  11.169   3.721  0.9844  0.0930  1.8835
  739MOL0     H97526   6.646  11.012   3.765  2.3892 -1.8855 -0.3299
  739MOL0     H97527   6.704  11.171   3.820 -1.5734 -2.1901  2.8587
  739MOL0     H97528   6.672  11.065   3.537  1.1584  1.1971 -0.9763
  739MOL0     H97529   6.706  11.241   3.576  0.7579 -0.1910 -1.7456
  739MOL0     H97530   7.053  10.451   4.099  1.4497  0.1538 -1.4926
  739MOL0     H97531   7.087  10.251   4.201 -1.1934 -0.3627  2.3746
  739MOL0     H97532   7.274   9.935   4.418  0.2186  1.4291  0.1980
  739MOL0     H97533   7.338   9.736   4.521  0.5867  0.1818  0.7642
  739MOL0     H97534   7.824   8.640   6.171 -0.5438  0.2358  2.3035
  739MOL0     H97535   8.035   8.657   6.310 -1.7819  0.9954  1.2288
  739MOL0     H97536   8.406   8.842   6.406 -1.9961 -0.9191  1.3970
  739MOL0     H97537   8.624   8.874   6.511  0.0816  0.3785 -0.9833
  739MOL0     H97538   8.810   8.921   6.636  0.0861  0.5312  0.0247
  739MOL0     H97539   8.775   8.786   6.750  0.7452 -0.0661  2.2187
  739MOL0     H97540   8.904   8.926   6.930 -0.7740 -1.5469 -0.0971
  739MOL0     H97541   8.996   8.938   6.770 -1.1529  1.0282 -2.7540
  739MOL0     H97542   8.922   9.159   6.734  2.7050  0.3699  1.7422
  739MOL0     H97543   8.982   9.149   6.893 -1.2283 -0.7125  2.4226
  739MOL0     H97544   8.695   9.195   6.822 -0.5247  1.6324  0.0977
  739MOL0     H97545   8.739   9.122   6.975 -2.7593  3.5434  0.9432
  739MOL0     H97546   8.865   9.519   7.020 -1.5561  0.6124  1.3697
  739MOL0     H97547   8.428   9.010   6.870  0.6308 -1.2479 -1.1405
  739MOL0     H97548   8.208   8.961   6.769 -1.8314  1.6967 -2.1841
  740MOL0     O97549   8.192   6.614   3.399 -0.8589 -0.2222  0.0772
  740MOL0     C97550   8.228   6.503   3.425  0.6985  0.3626  0.4864
  740MOL0     O97551   8.248   6.405   3.332 -0.2030 -0.3447 -0.7775
  740MOL0     C97552   8.239   6.428   3.195 -0.2404  0.8238 -0.1907
  740MOL0     C97553   8.284   6.547   3.133  0.2723 -0.3850  0.5935
  740MOL0     C97554   8.286   6.579   3.000 -0.6748 -0.1277  0.7470
  740MOL0     C97555   8.247   6.480   2.907 -0.3728  0.3277  0.1805
  740MOL0     O97556   8.265   6.491   2.774  0.7713  0.1022  0.1274
  740MOL0     C97557   8.341   6.589   2.724 -0.6546 -0.0605 -0.6057
  740MOL0     C97558   8.361   6.582   2.569  0.0860 -0.5430  0.4476
  740MOL0     C97559   8.438   6.452   2.521  0.3674  0.0161  0.6802
  740MOL0     C97560   8.393   6.439   2.376  0.1730  1.1560 -0.1297
  740MOL0     C97561   8.434   6.300   2.323  0.2050  1.2644 -0.1784
  740MOL0     C97562   8.321   6.204   2.346  0.0820 -0.0750  0.3747
  740MOL0     C97563   8.347   6.057   2.327 -0.4960  0.0948 -0.6507
  740MOL0     C97564   8.231   5.973   2.383 -0.2861 -1.4183 -0.3152
  740MOL0     N97565   8.226   5.826   2.345 -0.0722  0.0380  0.4862
  740MOL0     C97566   8.239   5.782   2.213 -0.2196  0.6406  0.1388
  740MOL0     C97567   8.232   5.642   2.224 -0.3158 -0.5520 -0.2700
  740MOL0     C97568   8.236   5.547   2.097 -0.2558 -0.1018 -0.2300
  740MOL0     C97569   8.153   5.414   2.131 -0.8331 -0.4024  0.1690
  740MOL0     C97570   8.118   5.318   2.015 -0.5228 -0.8813 -0.6796
  740MOL0     C97571   8.032   5.204   2.068 -0.6224  0.3321 -0.6967
  740MOL0     O97572   7.888   5.225   2.085 -0.0398  0.1667  0.1788
  740MOL0     C97573   7.798   5.124   2.109  0.6730 -0.0078  1.6756
  740MOL0     C97574   7.836   5.009   2.177  0.3317  0.2984  0.6303
  740MOL0     C97575   7.759   4.891   2.159  0.7672 -0.6275 -0.5110
  740MOL0     C97576   7.637   4.892   2.090  1.3324  0.1396 -0.6763
  740MOL0     C97577   7.575   4.758   2.056  0.0010 -0.1346 -0.1338
  740MOL0     O97578   7.654   4.649   2.097 -0.9868 -0.0952 -0.0539
  740MOL0     C97579   7.607   4.518   2.092  0.3363 -0.5853 -0.1321
  740MOL0     C97580   7.708   4.430   2.106 -0.2938 -1.2118 -0.2343
  740MOL0     C97581   7.679   4.299   2.127 -0.0445  0.3773 -0.3808
  740MOL0     C97582   7.551   4.245   2.120 -0.5289  1.2222 -0.5642
  740MOL0     O97583   7.517   4.117   2.147  0.1635 -0.0146  0.6226
  740MOL0     C97584   7.611   4.019   2.185 -0.7399  0.4312 -0.0405
  740MOL0     C97585   7.537   3.893   2.229  0.0197  0.3540  0.1375
  740MOL0     C97586   7.470   3.828   2.103 -0.7030 -0.5736 -0.2712
  740MOL0     C97587   7.355   3.746   2.145 -0.2071  0.4697  0.8488
  740MOL0     C97588   7.305   3.659   2.032 -0.2824  0.1985 -0.2469
  740MOL0     C97589   7.231   3.532   2.088  0.5705  1.0717  0.2904
  740MOL0     C97590   7.115   3.476   2.004  0.4016  0.1840  0.1360
  740MOL0     C97591   6.991   3.555   2.022  0.6616 -0.3841  0.1924
  740MOL0    Cl97592   6.841   3.441   1.988 -0.3955 -0.4239 -0.0022
  740MOL0     C97593   7.449   4.336   2.094  0.1117  0.5931 -0.4660
  740MOL0     C97594   7.476   4.473   2.090  0.2547  0.1224  0.0004
  740MOL0     O97595   7.467   4.756   1.994 -0.0646 -0.0054 -0.3460
  740MOL0     C97596   7.592   5.015   2.035 -0.1754 -1.0885 -0.3118
  740MOL0     C97597   7.668   5.133   2.049  0.0197 -0.2126 -0.1194
  740MOL0     N97598   8.206   5.605   2.356 -0.8798  0.4402  0.1420
  740MOL0     N97599   8.202   5.713   2.424 -0.5338  0.5640 -0.4823
  740MOL0     C97600   8.226   6.348   2.956 -0.1527 -0.4620  0.3100
  740MOL0     C97601   8.214   6.327   3.097 -0.1955 -0.8948 -0.4678
  740MOL0     C97602   8.254   6.449   3.566  0.6842  1.2121  0.4467
  740MOL0     C97603   8.208   6.517   3.677  1.2242  1.0277  0.7198
  740MOL0     C97604   8.224   6.472   3.807 -0.3659  0.9623 -0.9715
  740MOL0     C97605   8.308   6.361   3.831  0.1077  0.1450 -0.4674
  740MOL0     O97606   8.333   6.299   3.953 -0.0492  0.3433  0.6566
  740MOL0     C97607   8.284   6.365   4.069  0.3443 -0.1379 -0.2396
  740MOL0     C97608   8.384   6.478   4.111 -0.1797  0.6672 -0.1970
  740MOL0     C97609   8.323   6.554   4.231 -0.3886  1.0338 -0.2939
  740MOL0     C97610   8.410   6.680   4.241  0.6187 -0.0445  0.0701
  740MOL0     C97611   8.504   6.687   4.349 -0.5484 -0.7448  1.0388
  740MOL0     C97612   8.584   6.675   4.447 -0.6959  0.4078  0.3669
  740MOL0     C97613   8.366   6.296   3.718  0.4717  0.1902 -0.5227
  740MOL0     C97614   8.338   6.339   3.589  0.0531  0.2296  0.5670
  740MOL0     H97615   8.314   6.633   3.192 -0.6612 -1.8569  3.4015
  740MOL0     H97616   8.293   6.687   2.988 -2.2501 -0.0625  0.0820
  740MOL0     H97617   8.434   6.578   2.781 -0.4542  2.4586 -0.3033
  740MOL0     H97618   8.299   6.686   2.752  0.4217 -0.4966  3.1061
  740MOL0     H97619   8.413   6.671   2.532 -2.4349 -0.5609 -3.8434
  740MOL0     H97620   8.261   6.587   2.525  0.1725 -0.1050  0.2994
  740MOL0     H97621   8.417   6.364   2.583 -0.7813  1.8809  3.0889
  740MOL0     H97622   8.546   6.463   2.510  0.2981 -1.4085 -3.1566
  740MOL0     H97623   8.288   6.457   2.352 -0.1659 -0.2932  0.1540
  740MOL0     H97624   8.457   6.509   2.321 -1.1336  0.9397 -2.0284
  740MOL0     H97625   8.514   6.254   2.382 -0.3505  0.1901 -0.2423
  740MOL0     H97626   8.470   6.297   2.220 -0.2484 -0.7730 -0.3024
  740MOL0     H97627   8.246   6.240   2.276  0.3335 -1.0949 -0.4440
  740MOL0     H97628   8.286   6.219   2.449  1.0980 -2.2570  1.1053
  740MOL0     H97629   8.358   6.023   2.224  0.3062 -2.8232  0.3090
  740MOL0     H97630   8.442   6.032   2.376  0.0492  3.0690  0.0132
  740MOL0     H97631   8.133   6.016   2.363  0.7375  1.4350  0.4262
  740MOL0     H97632   8.254   5.975   2.490  2.5012 -0.7105 -0.8467
  740MOL0     H97633   8.237   5.828   2.115  1.3369 -1.6277 -1.0181
  740MOL0     H97634   8.341   5.529   2.074 -0.6172 -0.6250 -1.5583
  740MOL0     H97635   8.185   5.592   2.012 -0.4473  0.0474 -0.0379
  740MOL0     H97636   8.064   5.458   2.177  1.1092  0.1475  3.8337
  740MOL0     H97637   8.210   5.358   2.206 -1.4303  0.6134  1.4180
  740MOL0     H97638   8.050   5.366   1.944  1.2124 -0.9757 -2.4816
  740MOL0     H97639   8.203   5.277   1.959  0.4286 -0.8106  0.6616
  740MOL0     H97640   8.066   5.180   2.169 -0.3466 -1.5045 -1.2044
  740MOL0     H97641   8.055   5.113   2.012 -0.4184 -2.2823  3.2420
  740MOL0     H97642   7.923   5.018   2.242 -0.4828  3.4611  1.4942
  740MOL0     H97643   7.792   4.807   2.219 -3.3916 -1.7079  0.5636
  740MOL0     H97644   7.810   4.455   2.080 -0.6662  1.0840  0.2961
  740MOL0     H97645   7.766   4.238   2.148  0.0231  0.8915  0.8886
  740MOL0     H97646   7.677   4.045   2.268  0.8688  0.3200 -1.2333
  740MOL0     H97647   7.659   4.000   2.088 -4.7795  1.0199 -2.3809
  740MOL0     H97648   7.459   3.925   2.297  0.8178  0.8034  0.8635
  740MOL0     H97649   7.595   3.822   2.289 -2.8649 -2.6942 -0.3584
  740MOL0     H97650   7.549   3.779   2.045  0.4616  3.0094 -1.9875
  740MOL0     H97651   7.431   3.910   2.042  0.5694 -1.4665 -2.4098
  740MOL0     H97652   7.372   3.684   2.234 -0.2557  0.2381  0.6949
  740MOL0     H97653   7.279   3.822   2.167  0.6595  1.4886  0.4294
  740MOL0     H97654   7.385   3.625   1.966 -1.3886 -1.0014 -1.0409
  740MOL0     H97655   7.230   3.712   1.971  2.2531  1.9864 -2.0107
  740MOL0     H97656   7.193   3.548   2.190  1.6363 -1.7939  1.2324
  740MOL0     H97657   7.316   3.468   2.111  0.7268 -0.1560 -3.1745
  740MOL0     H97658   7.141   3.473   1.898  1.3528  1.5329  0.3026
  740MOL0     H97659   7.083   3.377   2.036 -0.4338  0.3359 -0.2031
  740MOL0     H97660   6.982   3.649   1.966 -0.2345 -0.1820  0.6635
  740MOL0     H97661   7.001   3.580   2.128  0.6935 -2.3591  0.6961
  740MOL0     H97662   7.346   4.301   2.095  0.2179  0.1940 -1.7096
  740MOL0     H97663   7.399   4.549   2.086 -0.5903 -0.4313  3.1154
  740MOL0     H97664   7.494   5.012   1.988  0.1044 -0.2304 -0.9713
  740MOL0     H97665   7.628   5.225   2.007  3.0548  0.9202 -0.7851
  740MOL0     H97666   8.202   6.276   2.878  0.7618 -0.5958  0.1377
  740MOL0     H97667   8.181   6.229   3.132 -1.6983 -1.6806 -3.6802
  740MOL0     H97668   8.162   6.613   3.656  5.0003  2.6261 -1.0978
  740MOL0     H97669   8.173   6.537   3.876 -2.5972 -3.5739  2.2060
  740MOL0     H97670   8.295   6.295   4.153 -0.6566 -1.7198 -1.3683
  740MOL0     H97671   8.181   6.400   4.063 -0.1142 -1.5924 -1.4509
  740MOL0     H97672   8.484   6.436   4.125 -1.5577 -2.0421  2.7717
  740MOL0     H97673   8.395   6.550   4.030 -1.9765  0.6532 -0.4981
  740MOL0     H97674   8.316   6.499   4.326  2.9694  2.9872  1.2685
  740MOL0     H97675   8.218   6.582   4.220 -0.9767 -1.3748 -1.5452
  740MOL0     H97676   8.461   6.703   4.147  1.3673  1.2322  0.7488
  740MOL0     H97677   8.345   6.767   4.257  1.5296  0.6508  0.0611
  740MOL0     H97678   8.648   6.657   4.531 -0.3938  0.7477  0.2109
  740MOL0     H97679   8.424   6.204   3.725 -0.5838 -0.3321  3.2022
  740MOL0     H97680   8.375   6.278   3.507  1.5756 -1.4174  2.3731
  741MOL0     O97681   4.061   0.891   9.621  0.0313  0.3620  0.1378
  741MOL0     C97682   4.088   0.945   9.517 -0.7877  0.2100  0.5351
  741MOL0     O97683   4.024   1.041   9.463 -0.1840  0.0233  0.1938
  741MOL0     C97684   3.899   1.073   9.505 -0.9460  0.0635  0.4378
  741MOL0     C97685   3.861   1.202   9.502 -0.9029 -0.6694 -0.1177
  741MOL0     C97686   3.732   1.246   9.538 -0.0990  0.5628  1.6625
  741MOL0     C97687   3.642   1.153   9.599  1.5201  0.2059  0.5034
  741MOL0     O97688   3.520   1.199   9.642 -0.1792 -0.4506 -0.8322
  741MOL0     C97689   3.443   1.122   9.745 -0.8354  0.3946  0.8480
  741MOL0     C97690   3.298   1.112   9.701 -0.6719  0.2413 -0.0380
  741MOL0     C97691   3.232   1.243   9.679 -1.5797  0.4688 -0.7305
  741MOL0     C97692   3.079   1.234   9.675  0.0969 -0.1575  0.2260
  741MOL0     C97693   3.035   1.378   9.639 -0.7401  0.2171 -0.5956
  741MOL0     C97694   2.889   1.393   9.632  0.6214  1.0477 -0.2096
  741MOL0     C97695   2.842   1.532   9.583  0.8763 -0.0695 -0.8476
  741MOL0     C97696   2.890   1.634   9.684 -0.6333 -0.3492  1.0453
  741MOL0     N97697   2.806   1.756   9.667  1.0497 -0.4380  0.2398
  741MOL0     C97698   2.676   1.750   9.715 -0.2497  0.0389 -0.5093
  741MOL0     C97699   2.630   1.875   9.697 -0.6234  0.0568  0.0390
  741MOL0     C97700   2.518   1.950   9.735  1.0404  0.3292 -0.2726
  741MOL0     C97701   2.471   1.895   9.873 -0.3284 -0.1214 -0.2632
  741MOL0     C97702   2.574   1.941   9.985 -0.4648  0.9175 -0.2324
  741MOL0     C97703   2.527   1.923  10.127 -0.0667  0.8033  0.5530
  741MOL0     O97704   2.609   1.997  10.211 -0.1909 -0.2690 -0.8514
  741MOL0     C97705   2.564   2.129  10.247 -0.6321  0.3107  1.0372
  741MOL0     C97706   2.565   2.235  10.162 -0.9277  0.2636  0.3883
  741MOL0     C97707   2.538   2.363  10.204  0.2396 -1.8775 -0.0947
  741MOL0     C97708   2.526   2.401  10.336  0.7851  0.7985 -0.2368
  741MOL0     C97709   2.489   2.536  10.383  0.5257 -0.2150 -0.6345
  741MOL0     O97710   2.513   2.559  10.513 -0.0540  0.4265 -0.1900
  741MOL0     C97711   2.466   2.680  10.570 -0.0228  0.5311  0.8574
  741MOL0     C97712   2.552   2.761  10.642  0.5607  0.3114  0.4339
  741MOL0     C97713   2.512   2.884  10.692  0.8810 -0.2561 -0.0148
  741MOL0     C97714   2.388   2.933  10.668 -0.8010  0.8596  0.0706
  741MOL0     O97715   2.352   3.046  10.742 -0.5594 -0.2385  0.1646
  741MOL0     C97716   2.222   3.100  10.713  0.7704 -0.2913  0.2448
  741MOL0     C97717   2.124   3.048  10.818 -0.2293 -0.4685  0.3081
  741MOL0     C97718   2.129   3.129  10.947 -0.9653 -0.8300 -0.8336
  741MOL0     C97719   2.051   3.060  11.059 -0.1804 -0.4733  0.0259
  741MOL0     C97720   2.044   3.159  11.181  0.3095  0.0461 -0.9412
  741MOL0     C97721   1.965   3.103  11.303 -1.0006 -0.3044 -0.3752
  741MOL0     C97722   1.989   3.198  11.433 -0.4131 -0.8177  0.4970
  741MOL0     C97723   1.919   3.141  11.552  0.0654  0.2095  0.2845
  741MOL0    Cl97724   1.748   3.186  11.543  0.1380  0.2741  0.5752
  741MOL0     C97725   2.296   2.848  10.593  0.4877  0.6315  0.0084
  741MOL0     C97726   2.341   2.726  10.539 -0.0196 -0.8112  0.1088
  741MOL0     O97727   2.450   2.625  10.303  0.0920  0.9160 -0.3409
  741MOL0     C97728   2.541   2.297  10.422 -0.1492 -0.2068  0.6208
  741MOL0     C97729   2.553   2.167  10.378  0.1605  0.1468 -0.3435
  741MOL0     N97730   2.723   1.957   9.630 -0.8027  0.3011 -0.8914
  741MOL0     N97731   2.834   1.883   9.605  1.1279 -0.2246  0.6061
  741MOL0     C97732   3.678   1.017   9.600  0.5979  0.3445 -0.5425
  741MOL0     C97733   3.807   0.973   9.552 -0.4076 -0.3588 -0.6736
  741MOL0     C97734   4.221   0.924   9.457 -0.0055 -0.1493 -0.2968
  741MOL0     C97735   4.315   0.828   9.513 -0.9795 -0.1680  0.3900
  741MOL0     C97736   4.439   0.807   9.460  0.2685 -0.0561  0.2041
  741MOL0     C97737   4.488   0.903   9.367  0.7115  1.5230  0.0505
  741MOL0     O97738   4.611   0.873   9.312 -0.2152 -0.1295  0.5075
  741MOL0     C97739   4.654   0.948   9.198 -0.1118 -0.3964  0.2709
  741MOL0     C97740   4.794   0.897   9.163  0.2186  0.1701  0.4169
  741MOL0     C97741   4.780   0.765   9.086  0.3727 -0.2242  0.2140
  741MOL0     C97742   4.876   0.665   9.144  0.6254  0.0472 -1.4058
  741MOL0     C97743   4.818   0.607   9.277 -0.9469  0.3048  1.0867
  741MOL0     C97744   4.768   0.526   9.343 -0.5563  0.6231 -0.2687
  741MOL0     C97745   4.400   1.012   9.327 -0.0119 -0.2537  0.3351
  741MOL0     C97746   4.272   1.019   9.367 -0.7487 -0.2083  0.4069
  741MOL0     H97747   3.934   1.268   9.458 -1.6383 -0.8117 -1.6086
  741MOL0     H97748   3.703   1.350   9.535 -0.7974  0.3598  1.0979
  741MOL0     H97749   3.452   1.180   9.838  0.0204  0.2351  0.8637
  741MOL0     H97750   3.482   1.024   9.774 -0.0252  0.7291  0.9115
  741MOL0     H97751   3.241   1.057   9.777 -0.5246 -0.7227 -0.6029
  741MOL0     H97752   3.303   1.060   9.605 -0.3016  1.0824 -0.4908
  741MOL0     H97753   3.275   1.282   9.586  3.4458 -2.1878  0.1389
  741MOL0     H97754   3.266   1.308   9.760 -0.1752 -0.3849 -0.6161
  741MOL0     H97755   3.037   1.156   9.611 -1.4525 -0.4854  1.5619
  741MOL0     H97756   3.039   1.213   9.775 -2.6297  2.0908 -0.2635
  741MOL0     H97757   3.072   1.423   9.547  0.1657  1.7545  0.4737
  741MOL0     H97758   3.057   1.435   9.730 -4.4441 -0.7174  1.0725
  741MOL0     H97759   2.845   1.379   9.730  3.4710 -3.6455  0.7237
  741MOL0     H97760   2.845   1.317   9.567 -1.4297  1.9681  0.0257
  741MOL0     H97761   2.896   1.564   9.493  0.2962 -3.1585 -2.4114
  741MOL0     H97762   2.734   1.524   9.565  1.3021 -0.8845 -3.4996
  741MOL0     H97763   2.993   1.647   9.649 -0.0985 -2.1988  1.8096
  741MOL0     H97764   2.895   1.601   9.788  0.2959  0.8701  1.4125
  741MOL0     H97765   2.626   1.669   9.767  0.3802 -0.9870 -1.4480
  741MOL0     H97766   2.431   1.932   9.672  0.6400 -0.3431  0.4612
  741MOL0     H97767   2.521   2.059   9.727 -3.1169  0.7722  1.4218
  741MOL0     H97768   2.463   1.786   9.874 -1.1155 -0.1365 -2.5523
  741MOL0     H97769   2.374   1.936   9.901 -1.0061 -1.5735 -0.3864
  741MOL0     H97770   2.665   1.885   9.964  0.3080  2.2654 -0.5878
  741MOL0     H97771   2.602   2.044   9.961  2.1960  0.0297 -1.3103
  741MOL0     H97772   2.522   1.815  10.146 -0.0274  0.2938 -1.9475
  741MOL0     H97773   2.429   1.967  10.150 -0.9572 -0.4251 -0.6736
  741MOL0     H97774   2.577   2.223  10.054 -2.1068  0.8695  0.1748
  741MOL0     H97775   2.551   2.453  10.144 -1.1046 -1.0271  0.8306
  741MOL0     H97776   2.644   2.710  10.667 -0.0754 -0.8502  0.4808
  741MOL0     H97777   2.579   2.952  10.745 -0.1825  0.0396  0.9771
  741MOL0     H97778   2.182   3.085  10.612  1.2934  2.2992 -0.4071
  741MOL0     H97779   2.231   3.209  10.719 -1.3936  0.0200 -1.0470
  741MOL0     H97780   2.141   2.942  10.839  3.6236  0.4065  2.7219
  741MOL0     H97781   2.021   3.055  10.782 -0.3483  1.3795  0.9060
  741MOL0     H97782   2.084   3.226  10.927 -0.4286 -0.1558  0.9979
  741MOL0     H97783   2.229   3.151  10.984  1.4881 -4.3440 -4.4374
  741MOL0     H97784   1.955   3.034  11.015 -1.1699  2.5455  0.1972
  741MOL0     H97785   2.096   2.964  11.086 -0.8609  0.1406  4.0693
  741MOL0     H97786   1.986   3.247  11.150  0.3649  0.6043  0.4596
  741MOL0     H97787   2.144   3.196  11.207  0.0859 -0.0636  0.1324
  741MOL0     H97788   2.000   3.001  11.321 -3.1749 -1.2200 -0.9755
  741MOL0     H97789   1.861   3.081  11.277 -1.6339  1.7225  0.3031
  741MOL0     H97790   2.095   3.204  11.458 -0.6681  0.1217  1.3870
  741MOL0     H97791   1.960   3.302  11.415 -1.9697 -1.2850  0.1303
  741MOL0     H97792   1.964   3.188  11.639 -0.8742  1.1210  0.2903
  741MOL0     H97793   1.926   3.032  11.548  3.0873  0.2140  2.1361
  741MOL0     H97794   2.190   2.859  10.575 -0.2031  0.1724  3.1041
  741MOL0     H97795   2.270   2.681  10.470 -1.3504  1.2955  0.0177
  741MOL0     H97796   2.519   2.319  10.526  2.6901 -0.0885  1.2769
  741MOL0     H97797   2.550   2.093  10.458  0.0610  2.5498  1.9882
  741MOL0     H97798   3.601   0.944   9.623  1.3610  0.1741  1.8233
  741MOL0     H97799   3.822   0.865   9.551 -3.0622 -0.8068  0.0514
  741MOL0     H97800   4.291   0.748   9.583  1.0559 -0.4053  0.8722
  741MOL0     H97801   4.497   0.716   9.474 -2.9446 -2.3910 -0.7328
  741MOL0     H97802   4.658   1.049   9.239  0.1992 -0.1767 -0.2864
  741MOL0     H97803   4.587   0.941   9.111 -2.8451 -0.7250  2.2680
  741MOL0     H97804   4.842   0.970   9.097 -0.2298 -0.5497 -0.7455
  741MOL0     H97805   4.852   0.886   9.255 -0.1000 -1.4529  0.4654
  741MOL0     H97806   4.799   0.772   8.979  0.2444 -0.8470  0.1479
  741MOL0     H97807   4.683   0.718   9.100  0.6379 -1.0404 -0.6531
  741MOL0     H97808   4.880   0.583   9.071  1.8671 -1.9885  0.8341
  741MOL0     H97809   4.977   0.701   9.162  0.2121 -0.0058  1.4542
  741MOL0     H97810   4.712   0.469   9.415 -1.4865 -0.1321 -1.5622
  741MOL0     H97811   4.409   1.090   9.253  0.5849 -0.2205  0.4389
  741MOL0     H97812   4.211   1.086   9.306 -0.0116 -0.5106 -0.6981
  742MOL0     O97813   4.712   8.070   4.821  0.5607  0.0447  0.3223
  742MOL0     C97814   4.672   8.088   4.707  0.4245  0.4060 -0.9775
  742MOL0     O97815   4.736   8.139   4.599 -1.1244  0.0761  0.0062
  742MOL0     C97816   4.872   8.170   4.619  0.3680 -0.8626 -0.2015
  742MOL0     C97817   4.970   8.065   4.634 -0.5040  0.1863  0.3728
  742MOL0     C97818   5.114   8.098   4.649  0.5904 -0.0042 -0.5389
  742MOL0     C97819   5.159   8.232   4.662  1.2136  0.5869  0.1411
  742MOL0     O97820   5.292   8.269   4.673 -0.5412  0.1575 -0.0492
  742MOL0     C97821   5.379   8.158   4.679  0.1734 -0.5384  0.8059
  742MOL0     C97822   5.531   8.197   4.702  0.9988 -0.2712  0.1731
  742MOL0     C97823   5.553   8.278   4.826 -0.2934  0.8098  0.6420
  742MOL0     C97824   5.555   8.173   4.930 -0.7609  0.0451  0.2223
  742MOL0     C97825   5.543   8.249   5.057  0.5163 -0.2514 -0.5668
  742MOL0     C97826   5.565   8.154   5.164  0.1205 -0.6983  0.1363
  742MOL0     C97827   5.600   8.223   5.304  0.3066  0.4785  1.2440
  742MOL0     C97828   5.642   8.113   5.409  0.0403 -0.6735  0.5185
  742MOL0     N97829   5.704   8.181   5.528  0.4704 -0.2479  0.0293
  742MOL0     C97830   5.833   8.207   5.562  0.5839 -0.4534 -0.9322
  742MOL0     C97831   5.825   8.275   5.685 -0.9389  0.0445  0.6846
  742MOL0     C97832   5.936   8.341   5.765 -0.2532 -0.2530 -0.6908
  742MOL0     C97833   6.034   8.255   5.845 -0.3450  0.1161 -0.6892
  742MOL0     C97834   6.139   8.181   5.755  0.0872 -0.4537  0.2188
  742MOL0     C97835   6.201   8.055   5.815 -0.6481 -0.3480 -0.1934
  742MOL0     O97836   6.119   7.948   5.822  0.2469  1.3298 -0.2273
  742MOL0     C97837   6.061   7.897   5.711 -0.4493  0.3956  0.7431
  742MOL0     C97838   5.923   7.884   5.706  0.2844  0.0149 -0.5592
  742MOL0     C97839   5.863   7.821   5.597  1.4057 -0.7921 -0.1870
  742MOL0     C97840   5.937   7.769   5.496  1.1825 -0.0343  0.4800
  742MOL0     C97841   5.868   7.706   5.380 -1.0560  0.4457  0.2080
  742MOL0     O97842   5.745   7.753   5.346  0.5648  1.1051  0.1293
  742MOL0     C97843   5.651   7.686   5.272  0.7433  0.1809  1.2901
  742MOL0     C97844   5.559   7.766   5.210  0.0805 -1.0457 -0.1764
  742MOL0     C97845   5.464   7.719   5.126  0.0656 -0.4004  0.1891
  742MOL0     C97846   5.438   7.585   5.096 -0.8927 -0.7202  0.8228
  742MOL0     O97847   5.350   7.536   5.006  0.0654 -0.1120  0.7118
  742MOL0     C97848   5.218   7.587   5.005 -0.1788 -0.4497 -0.8529
  742MOL0     C97849   5.202   7.690   4.898  0.5147  0.0527  0.4619
  742MOL0     C97850   5.069   7.759   4.916 -0.0904 -0.3403  0.1371
  742MOL0     C97851   5.074   7.879   5.018  0.6329 -0.3724  0.1946
  742MOL0     C97852   4.934   7.933   5.042 -0.3565  0.0317  0.9915
  742MOL0     C97853   4.913   8.033   5.171  0.1129  0.1718 -0.0370
  742MOL0     C97854   4.885   8.177   5.111 -0.2052  1.1806 -0.5541
  742MOL0     C97855   4.998   8.243   5.030 -0.3858 -0.4043 -2.0383
  742MOL0    Cl97856   4.970   8.415   5.012 -0.0352 -0.4553 -0.1695
  742MOL0     C97857   5.528   7.502   5.159 -0.5153  0.0202 -0.1537
  742MOL0     C97858   5.624   7.548   5.252 -0.4156 -0.5901 -0.4767
  742MOL0     O97859   5.936   7.625   5.320  0.5489 -0.6349  0.1711
  742MOL0     C97860   6.078   7.778   5.507  0.4491  0.1222 -0.0365
  742MOL0     C97861   6.144   7.845   5.605  0.4754 -0.7214 -0.9789
  742MOL0     N97862   5.695   8.271   5.730 -1.0044  0.7206  0.4714
  742MOL0     N97863   5.622   8.220   5.634 -0.5117 -0.0806 -0.4321
  742MOL0     C97864   5.053   8.329   4.670 -0.4759  0.0207 -1.0297
  742MOL0     C97865   4.923   8.301   4.635 -0.3455 -0.4818  0.6256
  742MOL0     C97866   4.537   8.043   4.679  0.4944  1.2811 -0.9298
  742MOL0     C97867   4.470   8.104   4.574  0.2512  0.0133  0.6551
  742MOL0     C97868   4.337   8.075   4.543  0.7357  0.4859  0.7160
  742MOL0     C97869   4.269   7.976   4.618  1.2921  0.0540  0.3138
  742MOL0     O97870   4.132   7.928   4.592  0.0649  0.2272  0.7289
  742MOL0     C97871   4.043   7.985   4.492  1.1160 -1.0644  0.8719
  742MOL0     C97872   3.918   7.895   4.479  0.3386 -0.4670 -0.2879
  742MOL0     C97873   3.823   7.941   4.372 -0.4770  0.6252 -0.4172
  742MOL0     C97874   3.697   7.856   4.364  0.7075  0.1628  0.6561
  742MOL0     C97875   3.624   7.877   4.238  0.6395 -0.5032  0.7226
  742MOL0     C97876   3.577   7.886   4.129  0.2731  0.6895  0.1002
  742MOL0     C97877   4.339   7.910   4.721  0.4640  0.8161  0.9206
  742MOL0     C97878   4.464   7.945   4.763 -0.4164  0.0081  1.2421
  742MOL0     H97879   4.933   7.963   4.637 -1.4152  0.5040  3.1762
  742MOL0     H97880   5.185   8.017   4.659  0.1791 -0.2378  0.7251
  742MOL0     H97881   5.367   8.115   4.579  1.8237 -1.9150  1.1590
  742MOL0     H97882   5.349   8.090   4.759 -3.0495  0.4842  0.6185
  742MOL0     H97883   5.552   8.261   4.616  2.2378  0.8332  1.2588
  742MOL0     H97884   5.597   8.110   4.696  2.6480  0.9028  0.5667
  742MOL0     H97885   5.469   8.347   4.837 -1.1179  0.5737 -3.1585
  742MOL0     H97886   5.654   8.320   4.816 -0.5349  1.3046  0.3085
  742MOL0     H97887   5.483   8.091   4.922 -0.8801  0.3462 -2.8253
  742MOL0     H97888   5.652   8.123   4.931  0.1152  1.4030  4.5835
  742MOL0     H97889   5.439   8.284   5.057  1.0044  1.3399 -1.8991
  742MOL0     H97890   5.603   8.339   5.071 -0.1661  0.5070 -2.1800
  742MOL0     H97891   5.645   8.082   5.146  0.0555 -2.2267  4.6436
  742MOL0     H97892   5.482   8.085   5.186 -0.6653  0.3465  0.5373
  742MOL0     H97893   5.688   8.285   5.283 -1.0717  1.9187 -0.6921
  742MOL0     H97894   5.527   8.295   5.342  0.5849  2.4314 -1.6139
  742MOL0     H97895   5.722   8.045   5.377  0.9022  0.5169  0.0725
  742MOL0     H97896   5.558   8.055   5.448 -1.5328  1.5697  0.6512
  742MOL0     H97897   5.915   8.179   5.496  0.8138  1.4269 -1.5259
  742MOL0     H97898   5.885   8.413   5.830  0.9819  0.3752 -0.3988
  742MOL0     H97899   5.989   8.400   5.689 -1.4496 -0.4969 -1.7577
  742MOL0     H97900   5.977   8.191   5.913  2.0867 -0.4574  0.8954
  742MOL0     H97901   6.093   8.326   5.904 -1.4602 -0.3622  1.0760
  742MOL0     H97902   6.096   8.164   5.655 -0.1687  2.3506 -0.2262
  742MOL0     H97903   6.225   8.247   5.736  1.3778 -2.4060 -1.1333
  742MOL0     H97904   6.224   8.083   5.918 -0.4942  0.7527 -0.5152
  742MOL0     H97905   6.296   8.041   5.763 -1.1604  1.0877 -1.6228
  742MOL0     H97906   5.879   7.935   5.791  2.4801  1.0415  0.0467
  742MOL0     H97907   5.755   7.828   5.599  1.1740 -2.2233 -3.0389
  742MOL0     H97908   5.583   7.872   5.210 -2.9368 -0.2380  1.9741
  742MOL0     H97909   5.398   7.785   5.070  0.4643 -0.0605  0.1115
  742MOL0     H97910   5.195   7.631   5.102  2.0235  1.1273 -0.9775
  742MOL0     H97911   5.143   7.510   4.986 -2.0226  1.1791 -0.5757
  742MOL0     H97912   5.217   7.646   4.799  1.1095  1.0170  0.1113
  742MOL0     H97913   5.273   7.772   4.906 -1.0461  1.2742  2.8498
  742MOL0     H97914   4.982   7.697   4.938 -1.9256  1.1145 -2.4625
  742MOL0     H97915   5.045   7.814   4.825  0.1946  3.6639  2.2341
  742MOL0     H97916   5.122   7.844   5.110  0.1327 -0.8467  0.2871
  742MOL0     H97917   5.121   7.960   4.962 -3.3347  0.7500 -1.8652
  742MOL0     H97918   4.876   7.840   5.051  3.6639 -2.5595  3.6618
  742MOL0     H97919   4.919   7.989   4.950  3.0630  1.4123  1.1214
  742MOL0     H97920   4.996   8.033   5.242  0.2170 -0.4711 -0.1550
  742MOL0     H97921   4.823   8.003   5.225 -1.6425  1.3047 -2.1825
  742MOL0     H97922   4.792   8.162   5.055 -0.4370 -0.8841  0.2875
  742MOL0     H97923   4.871   8.234   5.203  3.3008  0.6342  0.4658
  742MOL0     H97924   5.006   8.188   4.936  0.9220 -2.7185 -0.6744
  742MOL0     H97925   5.094   8.239   5.083 -0.9014  1.0616 -0.9212
  742MOL0     H97926   5.527   7.396   5.134  1.0993 -0.6307  2.2032
  742MOL0     H97927   5.695   7.485   5.304  2.4962 -1.5384 -4.9951
  742MOL0     H97928   6.143   7.743   5.427 -0.7511  1.5402 -1.7223
  742MOL0     H97929   6.251   7.856   5.616  0.2841  1.4072 -0.6776
  742MOL0     H97930   5.081   8.431   4.697  1.7271 -1.2562  2.1873
  742MOL0     H97931   4.846   8.377   4.629 -0.7725 -0.8037  1.7494
  742MOL0     H97932   4.525   8.176   4.513  0.8847 -2.4574 -1.8684
  742MOL0     H97933   4.285   8.118   4.458  1.7342 -1.4511 -0.9546
  742MOL0     H97934   4.103   7.989   4.401 -0.3974 -4.4888 -0.4333
  742MOL0     H97935   4.022   8.088   4.525  2.5843  0.7839 -3.3465
  742MOL0     H97936   3.945   7.790   4.466 -0.4337 -0.8657  1.0336
  742MOL0     H97937   3.861   7.897   4.573 -1.2393 -1.8966 -1.1493
  742MOL0     H97938   3.875   7.934   4.276 -0.0009 -2.7823 -0.0528
  742MOL0     H97939   3.788   8.040   4.403 -1.2301 -0.5395  2.9119
  742MOL0     H97940   3.710   7.748   4.382 -3.5480 -0.5554  0.4688
  742MOL0     H97941   3.631   7.881   4.447 -3.2454 -2.1200 -1.5060
  742MOL0     H97942   3.544   7.911   4.030  2.4648  1.8764 -0.4063
  742MOL0     H97943   4.289   7.831   4.774  0.2872  2.4490  3.3325
  742MOL0     H97944   4.523   7.908   4.847  1.2897  0.5153  0.3092
  743MOL0     O97945   0.276   8.336  11.278  0.3310 -0.3797  0.1755
  743MOL0     C97946   0.304   8.341  11.398  0.7288 -0.2921 -0.4230
  743MOL0     O97947   0.227   8.400  11.496  0.5176 -0.2950  0.1684
  743MOL0     C97948   0.101   8.459  11.475  0.5149  0.5526  0.2621
  743MOL0     C97949   0.067   8.575  11.533 -0.1503 -0.8178  0.2417
  743MOL0     C97950  -0.049   8.644  11.516  0.2161  0.3988  0.6614
  743MOL0     C97951  -0.151   8.587  11.427  0.1309 -0.5267 -0.3922
  743MOL0     O97952  -0.275   8.650  11.393 -0.4820  0.7296 -0.2691
  743MOL0     C97953  -0.263   8.780  11.340  1.4506  0.3388 -0.4121
  743MOL0     C97954  -0.409   8.843  11.340  0.3898  0.1522  0.0472
  743MOL0     C97955  -0.416   8.989  11.284  0.2876 -0.1013  0.4476
  743MOL0     C97956  -0.545   9.058  11.342 -0.3339  1.2103  0.2362
  743MOL0     C97957  -0.585   9.171  11.249  0.5701  0.1241  0.5034
  743MOL0     C97958  -0.706   9.239  11.289  0.4376 -0.5727  1.0910
  743MOL0     C97959  -0.835   9.176  11.224 -0.8034 -0.4587  0.2005
  743MOL0     C97960  -0.951   9.197  11.319 -0.7329  0.3103 -0.7544
  743MOL0     N97961  -0.981   9.339  11.326 -0.3829  0.3749  0.4928
  743MOL0     C97962  -0.981   9.418  11.436  0.1682  0.0434  1.0938
  743MOL0     C97963  -1.009   9.540  11.398 -0.1809 -1.0065  0.7271
  743MOL0     C97964  -1.012   9.667  11.487 -0.2133 -0.1948 -0.6061
  743MOL0     C97965  -1.136   9.691  11.567 -0.2859 -0.2051 -0.1272
  743MOL0     C97966  -1.139   9.610  11.694  0.4241  0.1684  1.2881
  743MOL0     C97967  -1.279   9.631  11.764 -0.4299 -0.8847 -0.6465
  743MOL0     O97968  -1.307   9.533  11.879 -0.2214 -0.1108 -0.2587
  743MOL0     C97969  -1.405   9.547  11.972  1.4408 -0.0317  0.0895
  743MOL0     C97970  -1.413   9.453  12.072  0.1631 -0.8753 -0.0873
  743MOL0     C97971  -1.515   9.459  12.170 -0.1937  0.3687 -0.6468
  743MOL0     C97972  -1.613   9.554  12.171 -0.0844  0.4734  0.8848
  743MOL0     C97973  -1.718   9.549  12.267  0.5606 -0.2965  0.2139
  743MOL0     O97974  -1.787   9.663  12.288 -0.7123 -0.5674  0.0296
  743MOL0     C97975  -1.894   9.653  12.374  0.4983 -0.3796  0.4632
  743MOL0     C97976  -2.029   9.653  12.327  0.4029 -0.5454 -0.6016
  743MOL0     C97977  -2.137   9.654  12.423  0.4849 -0.0057  0.2854
  743MOL0     C97978  -2.111   9.652  12.561  0.4568  0.5466  0.4203
  743MOL0     O97979  -2.225   9.669  12.629 -0.0651  0.2454  0.1497
  743MOL0     C97980  -2.218   9.763  12.744  0.1661  0.0802 -0.3568
  743MOL0     C97981  -2.205   9.681  12.875  0.4571  0.5393  0.1377
  743MOL0     C97982  -2.190   9.765  13.004  0.3214  0.4592 -0.1692
  743MOL0     C97983  -2.065   9.861  13.014 -1.0983 -0.3683 -0.3717
  743MOL0     C97984  -2.072   9.959  13.132  0.1017  0.8531 -0.7240
  743MOL0     C97985  -2.064   9.877  13.260  0.3473  0.4274  0.2982
  743MOL0     C97986  -2.054   9.966  13.379 -0.4184  0.0906 -0.3386
  743MOL0     C97987  -2.050   9.909  13.518 -0.0938  0.8974 -0.1786
  743MOL0    Cl97988  -1.984  10.017  13.653 -0.5237 -0.4163 -0.0859
  743MOL0     C97989  -1.979   9.671  12.607  1.3287  0.3050  0.1162
  743MOL0     C97990  -1.874   9.664  12.516  0.8143  0.3476 -0.7775
  743MOL0     O97991  -1.738   9.447  12.324 -0.0444 -0.9135  0.5397
  743MOL0     C97992  -1.599   9.656  12.082 -0.5965 -0.4382  0.3797
  743MOL0     C97993  -1.497   9.654  11.976 -0.2887  0.8407  0.4835
  743MOL0     N97994  -1.033   9.542  11.254  0.0750  0.2458 -0.5994
  743MOL0     N97995  -1.014   9.413  11.216 -0.1374 -0.4959  0.4409
  743MOL0     C97996  -0.114   8.463  11.362 -0.2294 -0.9221 -0.1312
  743MOL0     C97997   0.011   8.404  11.378 -0.4239  0.1873  0.4418
  743MOL0     C97998   0.421   8.278  11.460 -0.2347 -0.4985 -0.0225
  743MOL0     C97999   0.432   8.262  11.599  0.0850  0.3709 -0.1840
  743MOL0     C98000   0.535   8.190  11.647 -0.7619  0.0837  0.0989
  743MOL0     C98001   0.630   8.132  11.572  1.0781  0.2356 -0.2927
  743MOL0     O98002   0.733   8.055  11.624  0.0283 -0.3150  0.5021
  743MOL0     C98003   0.841   8.011  11.534 -0.9839 -0.5914 -0.1291
  743MOL0     C98004   0.965   7.978  11.623  0.4351  0.5956  0.3204
  743MOL0     C98005   0.951   7.831  11.681 -0.2315 -0.4369 -0.0950
  743MOL0     C98006   1.069   7.803  11.777 -0.7617 -0.4925  0.3028
  743MOL0     C98007   1.157   7.703  11.718  0.2301  0.6493 -0.6611
  743MOL0     C98008   1.211   7.623  11.644 -0.1736  1.1904  0.2798
  743MOL0     C98009   0.613   8.152  11.434  0.2062  0.1910  0.0604
  743MOL0     C98010   0.504   8.208  11.378  0.4362  0.0617  0.0769
  743MOL0     H98011   0.147   8.623  11.588  1.6504 -0.9930 -2.0571
  743MOL0     H98012  -0.076   8.740  11.559 -1.6534  1.3967 -2.4758
  743MOL0     H98013  -0.215   8.779  11.242 -2.1651  4.1090 -2.5273
  743MOL0     H98014  -0.199   8.836  11.410 -0.1094  0.6501  0.8397
  743MOL0     H98015  -0.438   8.839  11.445  0.6778  1.9142  0.2242
  743MOL0     H98016  -0.481   8.785  11.280 -0.4038 -3.3504  3.9291
  743MOL0     H98017  -0.411   8.989  11.175  1.6420 -1.2505  0.4788
  743MOL0     H98018  -0.338   9.060  11.314  1.3975 -0.8085 -0.6459
  743MOL0     H98019  -0.627   8.986  11.354  1.7807 -1.6230 -1.2705
  743MOL0     H98020  -0.530   9.104  11.441 -0.5180 -1.6056  1.6837
  743MOL0     H98021  -0.600   9.136  11.147  4.3959 -1.9926  0.4793
  743MOL0     H98022  -0.501   9.239  11.244 -0.2836  1.3327  1.8050
  743MOL0     H98023  -0.692   9.346  11.274  0.7251 -0.7689 -0.1589
  743MOL0     H98024  -0.696   9.240  11.397  3.2037 -0.3904  0.8920
  743MOL0     H98025  -0.836   9.210  11.120 -1.3998 -0.3039  0.2514
  743MOL0     H98026  -0.824   9.067  11.217  1.5880 -0.1610 -3.9870
  743MOL0     H98027  -0.934   9.151  11.417 -2.6843  0.8795 -0.0949
  743MOL0     H98028  -1.032   9.141  11.272 -1.2132  1.0077 -0.7751
  743MOL0     H98029  -0.965   9.377  11.535 -1.6414 -1.1605  0.9458
  743MOL0     H98030  -1.001   9.753  11.420 -3.2275  1.1019  0.4050
  743MOL0     H98031  -0.929   9.659  11.558 -1.5228  2.8876  1.4776
  743MOL0     H98032  -1.212   9.676  11.490  1.5414  0.8390 -2.2305
  743MOL0     H98033  -1.126   9.799  11.581  1.8524 -0.3291 -0.4431
  743MOL0     H98034  -1.134   9.501  11.686 -2.4966 -0.0039  0.8654
  743MOL0     H98035  -1.063   9.639  11.767  1.1721  2.1032 -0.1817
  743MOL0     H98036  -1.366   9.623  11.697 -1.7788 -3.6512  1.2485
  743MOL0     H98037  -1.289   9.735  11.797 -0.7714 -1.4213  1.0447
  743MOL0     H98038  -1.347   9.368  12.061  3.9744  1.8710 -0.4369
  743MOL0     H98039  -1.517   9.367  12.229  1.4958 -1.4823 -3.2704
  743MOL0     H98040  -2.063   9.644  12.225  0.5381  3.1850 -1.1134
  743MOL0     H98041  -2.239   9.669  12.389 -0.1772  2.0164  2.8026
  743MOL0     H98042  -2.303   9.831  12.756 -0.1608 -0.5311  0.9573
  743MOL0     H98043  -2.133   9.829  12.726  1.3047 -1.6380 -1.5858
  743MOL0     H98044  -2.111   9.626  12.868 -1.3336 -2.5605 -1.0070
  743MOL0     H98045  -2.278   9.600  12.877 -0.9678  1.7711  1.3136
  743MOL0     H98046  -2.191   9.693  13.087 -0.7451 -0.4788 -0.9629
  743MOL0     H98047  -2.277   9.830  13.017 -0.5844 -0.2740 -2.2393
  743MOL0     H98048  -1.981   9.789  13.017 -2.3941 -1.9133  1.0667
  743MOL0     H98049  -2.062   9.906  12.915  0.5913  2.8993  1.0231
  743MOL0     H98050  -2.165  10.016  13.135 -0.7720 -0.3258  4.3597
  743MOL0     H98051  -1.988  10.029  13.129 -0.4807  1.5592 -0.6081
  743MOL0     H98052  -1.973   9.816  13.262 -1.5095 -2.5002  1.9268
  743MOL0     H98053  -2.152   9.813  13.270  0.9746 -0.3095  1.2972
  743MOL0     H98054  -1.959  10.020  13.374 -1.1240  1.3936 -0.0869
  743MOL0     H98055  -2.135  10.039  13.379 -2.7953 -2.3802 -1.3054
  743MOL0     H98056  -1.981   9.824  13.525  1.8499  2.5401  2.5194
  743MOL0     H98057  -2.146   9.867  13.549  0.8252 -0.7949  0.5305
  743MOL0     H98058  -1.950   9.658  12.711  1.4084 -0.7928 -0.0333
  743MOL0     H98059  -1.770   9.676  12.542  0.7612  3.0628 -1.4695
  743MOL0     H98060  -1.658   9.746  12.090  1.9941  1.4236 -0.0185
  743MOL0     H98061  -1.483   9.729  11.899 -0.2682 -3.8982 -4.7496
  743MOL0     H98062  -0.196   8.430  11.299 -1.3783  1.1149  0.2014
  743MOL0     H98063   0.033   8.316  11.318  0.6457  1.4374 -1.0977
  743MOL0     H98064   0.354   8.301  11.664 -0.1615  0.9170 -0.8021
  743MOL0     H98065   0.550   8.174  11.753  1.4587 -2.6693 -0.4894
  743MOL0     H98066   0.870   8.087  11.461 -0.3687 -2.5625 -2.0429
  743MOL0     H98067   0.809   7.923  11.479 -2.1269  0.8348 -1.8203
  743MOL0     H98068   1.044   7.974  11.547 -2.0458  3.9847 -2.7688
  743MOL0     H98069   0.987   8.047  11.705 -1.3293  0.0005  1.3510
  743MOL0     H98070   0.942   7.768  11.592 -2.7974 -0.4552  0.1134
  743MOL0     H98071   0.857   7.825  11.737 -0.8045 -2.8118 -1.1884
  743MOL0     H98072   1.126   7.889  11.812 -0.0004 -0.6401 -0.5276
  743MOL0     H98073   1.028   7.765  11.871 -3.3197 -1.4095 -1.1077
  743MOL0     H98074   1.287   7.570  11.590  2.0708 -0.1609  4.3774
  743MOL0     H98075   0.688   8.113  11.367 -0.2185 -0.9208  0.2220
  743MOL0     H98076   0.498   8.214  11.269 -2.3163  3.2900  0.2365
  744MOL0     O98077   6.306  10.587   9.832  0.5428  0.0685  0.1845
  744MOL0     C98078   6.392  10.512   9.881  0.4408 -0.1840  0.0176
  744MOL0     O98079   6.507  10.550   9.938 -0.1987  0.0008 -0.0445
  744MOL0     C98080   6.555  10.679   9.920 -0.5507  0.6380  0.0414
  744MOL0     C98081   6.617  10.747  10.031 -0.2125  0.3616 -0.0005
  744MOL0     C98082   6.651  10.878  10.015  0.5249  0.7672 -0.3258
  744MOL0     C98083   6.617  10.942   9.897  0.4646  0.9149  0.0242
  744MOL0     O98084   6.618  11.074   9.866  0.1423 -0.6452 -0.4477
  744MOL0     C98085   6.647  11.181   9.956 -0.0907  0.3228  0.2619
  744MOL0     C98086   6.518  11.223  10.025  0.0926  0.3659  0.2966
  744MOL0     C98087   6.555  11.329  10.119  0.4431  0.4824 -0.6511
  744MOL0     C98088   6.425  11.360  10.214  1.5979  0.2888 -0.4102
  744MOL0     C98089   6.449  11.478  10.311  0.0458  0.5488 -0.8275
  744MOL0     C98090   6.335  11.500  10.406  0.2635 -0.3127  0.4778
  744MOL0     C98091   6.207  11.567  10.343  0.5347 -0.4889 -0.3841
  744MOL0     C98092   6.085  11.553  10.423 -0.0550  0.2328  0.2482
  744MOL0     N98093   5.959  11.563  10.357  0.7929 -1.0032 -0.4918
  744MOL0     C98094   5.833  11.530  10.408  0.1767 -0.7571  0.2919
  744MOL0     C98095   5.735  11.590  10.327  0.7872  0.4747  0.1193
  744MOL0     C98096   5.580  11.586  10.353 -0.1436  0.4745 -0.0490
  744MOL0     C98097   5.519  11.729  10.345  0.3902  0.0372  0.6018
  744MOL0     C98098   5.455  11.769  10.212  0.5837 -0.2035 -0.9888
  744MOL0     C98099   5.455  11.926  10.207 -0.7576  0.6232  0.4297
  744MOL0     O98100   5.418  11.969  10.078  0.6884 -0.2710  0.4519
  744MOL0     C98101   5.353  12.092  10.068  0.0690  0.6499 -0.0797
  744MOL0     C98102   5.387  12.196  10.154  0.0480 -0.6700  0.2359
  744MOL0     C98103   5.302  12.304  10.160  0.1736  0.0629  0.1169
  744MOL0     C98104   5.191  12.316  10.075 -0.0427  0.7835 -0.1180
  744MOL0     C98105   5.098  12.430  10.092  0.4917 -0.5361  1.2737
  744MOL0     O98106   4.994  12.443  10.012 -0.4349  0.3003 -0.1318
  744MOL0     C98107   4.916  12.558  10.014  0.4708 -0.6484 -0.5308
  744MOL0     C98108   4.788  12.537  10.055 -0.5016 -0.6778  0.2524
  744MOL0     C98109   4.707  12.648  10.051  0.0993 -1.6040 -0.1311
  744MOL0     C98110   4.751  12.772   9.994 -0.0341  0.1882 -0.3573
  744MOL0     O98111   4.675  12.882   9.965  0.5248 -0.3042 -0.2959
  744MOL0     C98112   4.541  12.881  10.006 -0.6277  0.0789  0.3046
  744MOL0     C98113   4.538  12.904  10.155  0.1694 -1.0710 -0.1450
  744MOL0     C98114   4.584  13.050  10.200 -0.1762 -0.4427 -0.2405
  744MOL0     C98115   4.556  13.087  10.349 -0.5745  0.2749  0.6227
  744MOL0     C98116   4.425  13.163  10.355 -0.2190  0.1914  0.9082
  744MOL0     C98117   4.288  13.099  10.309  0.1705  0.2237  0.4836
  744MOL0     C98118   4.246  12.988  10.403 -0.0803 -0.8870  0.4030
  744MOL0     C98119   4.120  12.903  10.368 -0.5025 -0.6426  0.0067
  744MOL0    Cl98120   4.106  12.809  10.212  0.0374 -0.3004  0.4177
  744MOL0     C98121   4.886  12.785   9.960 -0.7368 -0.1411 -0.5390
  744MOL0     C98122   4.969  12.679   9.972  1.2602 -0.8955  0.9584
  744MOL0     O98123   5.137  12.521  10.159  0.2177 -0.3868 -0.2009
  744MOL0     C98124   5.177  12.214   9.973 -0.5036 -1.0275 -0.1781
  744MOL0     C98125   5.248  12.101   9.979 -1.1331 -0.7106  0.3649
  744MOL0     N98126   5.801  11.652  10.228 -0.1726  0.3145 -0.1139
  744MOL0     N98127   5.930  11.643  10.251  0.3589 -0.5940  0.2993
  744MOL0     C98128   6.570  10.875   9.786  0.3395  0.4909  0.2103
  744MOL0     C98129   6.548  10.741   9.795  0.0771  0.7137 -0.1272
  744MOL0     C98130   6.343  10.374   9.896 -1.0618 -0.9303  0.2673
  744MOL0     C98131   6.416  10.285   9.979  0.6002 -0.0337 -0.3919
  744MOL0     C98132   6.394  10.150   9.977  1.4657  0.8806 -1.2471
  744MOL0     C98133   6.284  10.096   9.897 -0.6919 -0.5896  0.6107
  744MOL0     O98134   6.269   9.963   9.896  0.2009  0.1954 -0.4120
  744MOL0     C98135   6.219   9.903  10.018 -0.4294 -0.2586 -0.0554
  744MOL0     C98136   6.273   9.758  10.045 -0.2328 -0.2362  0.4149
  744MOL0     C98137   6.419   9.759  10.072 -0.1685  0.6848  1.0228
  744MOL0     C98138   6.480   9.619  10.080 -0.2680 -0.1861 -0.2915
  744MOL0     C98139   6.615   9.646  10.156 -1.2964  0.4158 -0.7724
  744MOL0     C98140   6.712   9.685  10.212 -0.7056 -0.0712 -0.5871
  744MOL0     C98141   6.220  10.181   9.806  0.0939 -0.0481 -0.0262
  744MOL0     C98142   6.256  10.317   9.804  0.4118  1.1153 -0.4353
  744MOL0     H98143   6.636  10.704  10.129  2.7115  2.8648  0.6933
  744MOL0     H98144   6.682  10.930  10.105  0.0857  0.7849 -0.1832
  744MOL0     H98145   6.688  11.266   9.901  0.1968  2.8830  4.0487
  744MOL0     H98146   6.730  11.154  10.022  2.0033  2.3276 -1.3739
  744MOL0     H98147   6.458  11.144  10.069  0.5172  1.9332  4.0345
  744MOL0     H98148   6.454  11.276   9.953  0.6318 -0.6589 -0.9676
  744MOL0     H98149   6.596  11.414  10.065  1.2607 -0.7580 -2.0526
  744MOL0     H98150   6.625  11.288  10.193 -0.5922  0.1765  0.2004
  744MOL0     H98151   6.337  11.388  10.156 -0.0084 -2.0965  0.7210
  744MOL0     H98152   6.401  11.266  10.266 -1.7118  0.6532 -1.0514
  744MOL0     H98153   6.489  11.558  10.247 -1.0290 -0.8596 -3.4223
  744MOL0     H98154   6.529  11.443  10.377 -0.4176  1.2572  0.1389
  744MOL0     H98155   6.379  11.550  10.493  2.8679 -0.1511 -0.8324
  744MOL0     H98156   6.306  11.404  10.449  1.9265 -1.3543 -0.6264
  744MOL0     H98157   6.230  11.669  10.312 -2.4626 -0.0352 -1.3988
  744MOL0     H98158   6.189  11.525  10.244  3.6155 -1.7809 -0.5251
  744MOL0     H98159   6.076  11.623  10.507  1.2930  1.2481 -0.4042
  744MOL0     H98160   6.085  11.452  10.464 -1.1230  0.5907  1.1620
  744MOL0     H98161   5.821  11.488  10.507  0.9868  0.6448  1.0313
  744MOL0     H98162   5.562  11.550  10.455 -0.1978  0.5209 -0.0427
  744MOL0     H98163   5.536  11.519  10.278 -0.8934 -1.8363  2.2931
  744MOL0     H98164   5.587  11.809  10.376 -0.1358 -0.0363  2.0217
  744MOL0     H98165   5.435  11.723  10.415  1.5995 -0.3765  2.0755
  744MOL0     H98166   5.515  11.749  10.123  1.1805 -0.0826 -0.6194
  744MOL0     H98167   5.354  11.730  10.202 -1.1499  2.7081  2.8266
  744MOL0     H98168   5.553  11.972  10.219 -0.2584  0.0376 -1.2726
  744MOL0     H98169   5.398  11.967  10.292 -1.5591  1.1633 -0.3493
  744MOL0     H98170   5.471  12.189  10.223 -0.4709  3.0830  1.4716
  744MOL0     H98171   5.313  12.380  10.237 -4.8904  1.3686 -0.0860
  744MOL0     H98172   4.768  12.435  10.088 -1.8371  0.7882  4.6392
  744MOL0     H98173   4.601  12.633  10.065 -0.5763  2.3012  0.2365
  744MOL0     H98174   4.487  12.787   9.992 -2.4257  0.3802  3.8450
  744MOL0     H98175   4.490  12.957   9.948 -0.4594  0.1390  0.2353
  744MOL0     H98176   4.617  12.844  10.202  1.0549 -0.7236 -1.1596
  744MOL0     H98177   4.442  12.882  10.202 -0.2737  3.7733  1.7688
  744MOL0     H98178   4.542  13.125  10.133 -1.2387 -0.8757 -0.0823
  744MOL0     H98179   4.690  13.061  10.179  0.3249 -0.5751  2.0011
  744MOL0     H98180   4.555  12.997  10.410  0.6134 -2.1835 -2.6672
  744MOL0     H98181   4.629  13.161  10.381 -0.9805  0.9790 -0.0330
  744MOL0     H98182   4.439  13.248  10.287  2.9953 -1.5996 -0.9369
  744MOL0     H98183   4.419  13.193  10.460 -0.0761  2.1235  0.3966
  744MOL0     H98184   4.309  13.069  10.206  5.4352  1.3436  0.9559
  744MOL0     H98185   4.209  13.175  10.309 -3.6015 -3.3415  0.9713
  744MOL0     H98186   4.338  12.933  10.424  0.7962  0.5079  0.2676
  744MOL0     H98187   4.219  13.037  10.497  0.7982  2.7122 -1.0636
  744MOL0     H98188   4.030  12.965  10.370  0.0776  0.1834  1.3482
  744MOL0     H98189   4.109  12.839  10.456 -0.3337  0.0033  0.4981
  744MOL0     H98190   4.920  12.879   9.919 -4.2100  1.5017 -0.0123
  744MOL0     H98191   5.071  12.689   9.935  1.2657  1.2424  1.4528
  744MOL0     H98192   5.105  12.222   9.892  1.1951  3.9252 -1.5917
  744MOL0     H98193   5.231  12.026   9.902  0.1246 -3.0284  2.1998
  744MOL0     H98194   6.555  10.914   9.685  0.9358  0.1377 -0.0205
  744MOL0     H98195   6.509  10.680   9.715  0.9454 -0.8899  0.6211
  744MOL0     H98196   6.501  10.331  10.028 -1.0797  2.1403  0.5986
  744MOL0     H98197   6.453  10.091  10.046 -1.2704 -0.8094 -0.1965
  744MOL0     H98198   6.110   9.906  10.009 -0.8192 -4.1082  1.3254
  744MOL0     H98199   6.253   9.953  10.109 -0.9948 -2.0314  1.1795
  744MOL0     H98200   6.226   9.714  10.133 -0.9094 -0.7431 -0.1881
  744MOL0     H98201   6.249   9.699   9.956 -0.0091 -2.3514  1.6924
  744MOL0     H98202   6.442   9.801  10.171  1.0265 -1.8874  1.9226
  744MOL0     H98203   6.469   9.814   9.991 -1.7737 -0.0341 -0.5161
  744MOL0     H98204   6.405   9.554  10.125  0.8667 -1.4602 -0.1782
  744MOL0     H98205   6.505   9.578   9.982  1.0108  0.1858 -0.1487
  744MOL0     H98206   6.792   9.719  10.276  0.5149 -1.7632 -1.1364
  744MOL0     H98207   6.157  10.130   9.733 -2.2270 -0.0325  1.8397
  744MOL0     H98208   6.221  10.374   9.719 -3.0974  0.6745  0.5895
  745MOL0     O98209  10.294   7.318   1.011 -0.1633  0.3334 -0.3698
  745MOL0     C98210  10.171   7.309   1.033  0.0748 -0.1426 -0.3766
  745MOL0     O98211  10.088   7.366   1.131 -0.7174 -0.5792 -0.0383
  745MOL0     C98212  10.124   7.455   1.232 -0.8380 -0.1341 -0.3793
  745MOL0     C98213  10.252   7.508   1.252  0.3118 -0.1422 -0.3900
  745MOL0     C98214  10.273   7.620   1.335  0.0412  0.0037  0.2722
  745MOL0     C98215  10.177   7.664   1.424  0.9316 -0.0686  0.3457
  745MOL0     O98216  10.198   7.768   1.506  0.0441  0.4618  0.3594
  745MOL0     C98217  10.229   7.897   1.460  0.4568 -0.3439 -0.1215
  745MOL0     C98218  10.120   7.986   1.497 -0.2522 -0.1659 -0.0276
  745MOL0     C98219   9.977   7.953   1.426  0.1891  0.9517 -0.5500
  745MOL0     C98220   9.979   7.953   1.280  0.2224 -0.8975 -0.7418
  745MOL0     C98221   9.833   7.940   1.221  0.2200 -0.6332 -0.0053
  745MOL0     C98222   9.757   7.808   1.240 -0.9524  0.2667 -0.1189
  745MOL0     C98223   9.651   7.818   1.348 -0.4900  0.2836  0.0429
  745MOL0     C98224   9.508   7.850   1.289 -0.3620  1.1420 -0.4905
  745MOL0     N98225   9.402   7.859   1.392  0.2990  0.2901  0.2242
  745MOL0     C98226   9.357   7.977   1.445 -0.3307  0.9473 -0.6697
  745MOL0     C98227   9.254   7.944   1.525  0.2432  0.0135 -0.1479
  745MOL0     C98228   9.167   8.052   1.588 -0.0455  0.3503  0.4110
  745MOL0     C98229   9.050   8.096   1.493 -0.4988  1.3902  0.5641
  745MOL0     C98230   8.999   8.231   1.537  0.3064  0.0059 -0.7472
  745MOL0     C98231   8.948   8.233   1.682 -0.3025  0.0117  0.4891
  745MOL0     O98232   8.816   8.179   1.683 -0.3162 -0.1083 -0.0456
  745MOL0     C98233   8.726   8.205   1.779 -0.0339 -0.4327 -0.3822
  745MOL0     C98234   8.750   8.293   1.886 -0.5453 -0.3136  0.4013
  745MOL0     C98235   8.651   8.332   1.969  0.5608  1.8003 -0.1842
  745MOL0     C98236   8.524   8.259   1.955 -0.2218  0.5393 -0.6112
  745MOL0     C98237   8.431   8.266   2.067  0.3575  0.4888  0.3351
  745MOL0     O98238   8.441   8.373   2.149  1.1396  0.6672 -1.0079
  745MOL0     C98239   8.397   8.350   2.277  0.3661 -0.5722 -0.0411
  745MOL0     C98240   8.466   8.278   2.369 -0.0704  1.0319  0.0895
  745MOL0     C98241   8.404   8.237   2.484  1.1461 -0.7181 -0.3284
  745MOL0     C98242   8.273   8.262   2.522 -0.5170  0.3769  0.3479
  745MOL0     O98243   8.226   8.201   2.633  0.4718  0.3257  0.4568
  745MOL0     C98244   8.101   8.134   2.605 -0.6707 -0.5214 -0.5080
  745MOL0     C98245   8.072   8.049   2.730  0.5128 -0.0214 -0.9499
  745MOL0     C98246   8.013   8.132   2.846 -0.9322 -0.3977 -0.3923
  745MOL0     C98247   7.991   8.040   2.976  0.1406 -0.4005  0.2070
  745MOL0     C98248   7.867   7.946   2.967 -0.3084  0.5337  0.5880
  745MOL0     C98249   7.860   7.885   3.111 -0.2700 -1.2401 -0.3153
  745MOL0     C98250   7.723   7.888   3.165  0.5445 -0.3319  0.3918
  745MOL0     C98251   7.709   7.822   3.308 -0.0855  0.5626  0.5496
  745MOL0    Cl98252   7.724   7.641   3.309  0.1116  0.3545  0.4959
  745MOL0     C98253   8.206   8.344   2.434  0.7959  0.0302 -0.0837
  745MOL0     C98254   8.261   8.384   2.307 -0.4419  0.0363  0.2922
  745MOL0     O98255   8.347   8.172   2.085 -0.5125  0.3807  0.1539
  745MOL0     C98256   8.501   8.180   1.843 -0.8100  0.3528  0.3286
  745MOL0     C98257   8.604   8.146   1.759 -0.3834 -0.6443 -0.3370
  745MOL0     N98258   9.243   7.807   1.517  0.7147  0.2241  0.0207
  745MOL0     N98259   9.325   7.755   1.429 -0.0590  0.3035 -0.1486
  745MOL0     C98260  10.048   7.599   1.415  0.1549 -0.5325 -0.8390
  745MOL0     C98261  10.027   7.496   1.320  0.0698 -0.0962  0.4168
  745MOL0     C98262  10.101   7.230   0.943  0.5538  0.7949  0.5222
  745MOL0     C98263  10.118   7.092   0.935 -0.4117  0.4004 -0.3717
  745MOL0     C98264  10.021   7.023   0.856  0.1119  1.0606  0.3994
  745MOL0     C98265   9.908   7.093   0.798  0.2200  0.5915 -0.0664
  745MOL0     O98266   9.825   7.023   0.715  0.8552  0.1266 -1.2860
  745MOL0     C98267   9.698   6.991   0.774 -0.1534 -0.1041 -0.4907
  745MOL0     C98268   9.711   6.864   0.879 -0.1990  0.2619 -0.2380
  745MOL0     C98269   9.750   6.751   0.790  0.4934  0.9882 -0.6687
  745MOL0     C98270   9.786   6.614   0.849 -1.1517  0.0317  0.4311
  745MOL0     C98271   9.701   6.571   0.951  0.3128  0.4955 -0.9737
  745MOL0     C98272   9.618   6.510   1.017 -0.1860  0.5491  0.3951
  745MOL0     C98273   9.897   7.230   0.797 -0.1260 -0.4653  0.0208
  745MOL0     C98274   9.995   7.300   0.867 -0.3537 -0.1657  0.1761
  745MOL0     H98275  10.343   7.471   1.206  1.6346 -2.0589  3.3072
  745MOL0     H98276  10.374   7.660   1.327  0.8138 -0.8547  3.8399
  745MOL0     H98277  10.262   7.906   1.356  0.1611  0.0256 -0.1863
  745MOL0     H98278  10.316   7.928   1.518  1.2390 -2.1618 -0.2613
  745MOL0     H98279  10.146   8.090   1.477  2.3279 -0.9944 -1.4419
  745MOL0     H98280  10.106   7.985   1.605  2.3870  0.7950  0.4098
  745MOL0     H98281   9.909   8.029   1.464  1.1014  1.7101 -0.3884
  745MOL0     H98282   9.959   7.856   1.475  6.5962 -0.5751 -0.2641
  745MOL0     H98283  10.015   8.046   1.235 -2.6934  0.3776 -0.6670
  745MOL0     H98284  10.032   7.868   1.235 -0.8829 -0.5869 -2.7664
  745MOL0     H98285   9.859   7.948   1.115 -1.4706  0.7650 -0.3630
  745MOL0     H98286   9.778   8.033   1.241  0.0643 -0.1887 -2.2853
  745MOL0     H98287   9.835   7.742   1.279 -0.1341  0.7342 -0.9054
  745MOL0     H98288   9.709   7.776   1.147 -1.3879 -0.2988  0.2983
  745MOL0     H98289   9.643   7.722   1.400  3.4998  0.8299  2.1062
  745MOL0     H98290   9.676   7.873   1.439 -1.0603 -5.2462  4.0560
  745MOL0     H98291   9.481   7.771   1.219 -2.1512  1.9923 -0.8224
  745MOL0     H98292   9.494   7.947   1.240 -2.2645  1.0008 -0.3048
  745MOL0     H98293   9.388   8.078   1.420 -2.3893  1.6029 -0.7591
  745MOL0     H98294   9.234   8.133   1.614  0.4936  0.8816 -2.4212
  745MOL0     H98295   9.129   8.016   1.685 -0.2368  5.8178  2.6900
  745MOL0     H98296   8.970   8.023   1.473 -0.3865  1.9646 -2.4761
  745MOL0     H98297   9.091   8.112   1.393 -0.7811 -1.6487 -0.1478
  745MOL0     H98298   9.083   8.302   1.534 -0.6400  1.3206  1.2136
  745MOL0     H98299   8.924   8.269   1.468  0.2434  0.1380 -0.6084
  745MOL0     H98300   8.942   8.338   1.712 -1.1418  0.4614 -1.1805
  745MOL0     H98301   9.018   8.192   1.756 -1.7705 -2.8813  0.3873
  745MOL0     H98302   8.841   8.351   1.891 -2.0230  2.3818 -1.3803
  745MOL0     H98303   8.676   8.405   2.045  0.0771 -0.0989  1.9008
  745MOL0     H98304   8.567   8.244   2.347 -0.2813 -0.5227  1.3309
  745MOL0     H98305   8.462   8.172   2.549 -2.2316 -3.0604  0.6534
  745MOL0     H98306   8.114   8.072   2.516  2.8666  1.6296 -1.6952
  745MOL0     H98307   8.016   8.202   2.594 -3.0876 -2.9416  1.6912
  745MOL0     H98308   8.169   8.004   2.754  1.3271  2.9076  1.9033
  745MOL0     H98309   8.006   7.965   2.705  0.5957 -0.7658  1.1138
  745MOL0     H98310   7.916   8.167   2.811 -1.2827 -2.0083 -1.1142
  745MOL0     H98311   8.091   8.206   2.867 -0.6504 -0.1324 -2.2061
  745MOL0     H98312   8.082   7.987   3.006  0.8353  1.0575  0.7669
  745MOL0     H98313   7.969   8.101   3.064  0.8630  1.3785 -0.7856
  745MOL0     H98314   7.882   7.863   2.897  2.5968 -0.4891  2.2223
  745MOL0     H98315   7.783   8.009   2.937  0.8046  2.0410  0.5457
  745MOL0     H98316   7.925   7.942   3.178  0.4238 -2.2461 -0.1109
  745MOL0     H98317   7.890   7.780   3.108  0.7425 -1.1482  2.7409
  745MOL0     H98318   7.699   7.991   3.194 -0.1861 -0.6383  0.9052
  745MOL0     H98319   7.648   7.848   3.096  0.2986  1.6436 -0.5511
  745MOL0     H98320   7.609   7.832   3.352  0.4621 -1.3159  2.4162
  745MOL0     H98321   7.785   7.867   3.372 -1.7247  3.1930  0.8027
  745MOL0     H98322   8.111   8.388   2.461  0.4956  0.7509 -2.1535
  745MOL0     H98323   8.197   8.444   2.243 -1.1717  0.2626  1.1975
  745MOL0     H98324   8.402   8.141   1.820 -0.1023 -1.7479  0.6319
  745MOL0     H98325   8.583   8.074   1.680 -1.3988 -1.0749  0.3081
  745MOL0     H98326   9.979   7.650   1.481  0.8194 -0.6908  0.0033
  745MOL0     H98327   9.926   7.462   1.298 -0.6147  1.0220  1.6390
  745MOL0     H98328  10.195   7.044   0.995 -1.5853 -1.0940 -0.0089
  745MOL0     H98329  10.041   6.919   0.834  0.8764  1.6808 -2.1774
  745MOL0     H98330   9.627   6.956   0.700 -0.7280 -0.1826  0.0892
  745MOL0     H98331   9.656   7.083   0.816  1.2600  0.3744 -0.0654
  745MOL0     H98332   9.794   6.882   0.948  1.7350  2.1236 -2.8359
  745MOL0     H98333   9.623   6.835   0.937 -0.4900  1.9943  0.2384
  745MOL0     H98334   9.836   6.785   0.731  0.9510  2.0077  0.5542
  745MOL0     H98335   9.667   6.737   0.720  0.8767 -2.0884 -0.6550
  745MOL0     H98336   9.791   6.543   0.767 -1.1994  0.7742 -0.2280
  745MOL0     H98337   9.882   6.626   0.901 -1.7185  1.6190  1.1987
  745MOL0     H98338   9.549   6.442   1.062  2.5178 -0.6764  3.0427
  745MOL0     H98339   9.819   7.268   0.731  1.3777 -2.4668 -3.1407
  745MOL0     H98340   9.983   7.407   0.882  3.1258  0.0840  2.4405
  746MOL0     O98341   9.281   8.774   1.133 -0.1258  0.4807 -0.1354
  746MOL0     C98342   9.252   8.685   1.213 -1.2537 -0.0597 -0.4362
  746MOL0     O98343   9.130   8.626   1.227  0.3269 -0.6654 -0.4632
  746MOL0     C98344   9.011   8.671   1.161 -0.1493  0.0328 -1.3225
  746MOL0     C98345   8.923   8.579   1.127  0.4905 -0.5326 -0.4096
  746MOL0     C98346   8.799   8.609   1.089  0.0903  0.1601  0.4544
  746MOL0     C98347   8.755   8.741   1.067 -0.5431 -0.6379  0.1873
  746MOL0     O98348   8.639   8.784   1.002  0.2597 -0.8400  0.0247
  746MOL0     C98349   8.540   8.694   0.963  0.1656  0.2673  0.4316
  746MOL0     C98350   8.411   8.774   0.924  0.2020 -0.5890 -0.0463
  746MOL0     C98351   8.366   8.896   1.011  0.4568  0.4901 -0.3001
  746MOL0     C98352   8.353   8.849   1.156  0.4022 -1.2069  0.1708
  746MOL0     C98353   8.271   8.944   1.253 -0.2478  0.8234 -0.1172
  746MOL0     C98354   8.206   8.862   1.363 -0.3036 -0.8183  0.2220
  746MOL0     C98355   8.166   8.952   1.489 -0.7838 -0.2216  0.9762
  746MOL0     C98356   8.281   8.947   1.598  0.7860  0.8350 -0.7342
  746MOL0     N98357   8.294   8.815   1.652  1.1566  0.2217 -0.0612
  746MOL0     C98358   8.189   8.733   1.688  0.1368 -0.4766  0.4919
  746MOL0     C98359   8.245   8.617   1.727 -0.2535  0.3426 -0.1406
  746MOL0     C98360   8.208   8.496   1.800  0.0569 -0.4066  0.9234
  746MOL0     C98361   8.079   8.507   1.882 -0.1892  0.8134 -0.2412
  746MOL0     C98362   8.053   8.363   1.940 -0.7606  0.2765 -0.7701
  746MOL0     C98363   7.919   8.376   2.020 -0.8666  1.0061 -0.6455
  746MOL0     O98364   7.935   8.429   2.145 -1.3823  0.0822 -0.0702
  746MOL0     C98365   7.888   8.358   2.249 -0.3009  0.8017  0.4703
  746MOL0     C98366   7.812   8.431   2.331 -0.3695 -0.3756  0.1407
  746MOL0     C98367   7.748   8.373   2.447 -0.1678  0.1027 -0.4900
  746MOL0     C98368   7.769   8.245   2.481 -0.3060 -0.1784  0.9913
  746MOL0     C98369   7.706   8.189   2.604 -0.1379 -1.3480  0.0864
  746MOL0     O98370   7.629   8.272   2.680  0.3523  0.4850  0.0169
  746MOL0     C98371   7.566   8.230   2.799  0.4129 -0.7897 -0.1913
  746MOL0     C98372   7.575   8.304   2.915 -0.6249  0.1958  1.3442
  746MOL0     C98373   7.505   8.276   3.030  0.2681  0.1129  0.5154
  746MOL0     C98374   7.426   8.153   3.031 -0.0886 -0.6966  0.1336
  746MOL0     O98375   7.346   8.118   3.141  0.1785  0.8131 -0.1342
  746MOL0     C98376   7.395   8.146   3.278  0.5069 -0.0328  0.3725
  746MOL0     C98377   7.334   8.031   3.371  0.1175 -1.0075 -0.2198
  746MOL0     C98378   7.189   7.998   3.335 -0.0050 -0.5032  0.1196
  746MOL0     C98379   7.117   8.123   3.378  0.0024  0.1021 -0.3455
  746MOL0     C98380   6.971   8.122   3.362  0.1363  1.6303 -0.3852
  746MOL0     C98381   6.907   8.104   3.216  1.0747 -0.1688  0.0065
  746MOL0     C98382   6.814   7.980   3.194 -1.2770 -2.4322 -0.5140
  746MOL0     C98383   6.677   7.960   3.260  0.2129 -0.8897 -0.1289
  746MOL0    Cl98384   6.583   7.831   3.171  0.3435 -0.0108  0.4056
  746MOL0     C98385   7.411   8.091   2.910 -0.3408 -0.2383  0.0851
  746MOL0     C98386   7.477   8.128   2.793  0.1708 -0.1776  0.4334
  746MOL0     O98387   7.719   8.073   2.626  0.3167  0.4718  0.7379
  746MOL0     C98388   7.840   8.164   2.390 -0.0251 -0.0483 -0.0438
  746MOL0     C98389   7.889   8.222   2.273  0.4512  1.7176 -0.0891
  746MOL0     N98390   8.382   8.639   1.709 -0.6164 -1.0010  0.5708
  746MOL0     N98391   8.406   8.751   1.658 -0.8489 -0.3564  0.0403
  746MOL0     C98392   8.844   8.843   1.111 -1.0847  0.0438 -0.0826
  746MOL0     C98393   8.977   8.816   1.153 -0.2355  0.6255  0.6799
  746MOL0     C98394   9.357   8.675   1.318  0.2293 -0.1797  0.3527
  746MOL0     C98395   9.495   8.681   1.293 -0.1386  0.7051 -0.7611
  746MOL0     C98396   9.590   8.685   1.399  0.3392  0.2782  0.7649
  746MOL0     C98397   9.541   8.651   1.526 -0.5688 -0.0177 -0.6921
  746MOL0     O98398   9.642   8.621   1.617  0.1515  0.7747  0.8103
  746MOL0     C98399   9.613   8.579   1.751 -0.4711 -0.2597 -0.3627
  746MOL0     C98400   9.611   8.699   1.844 -0.4264 -0.5091  0.3420
  746MOL0     C98401   9.747   8.749   1.864  0.0471  0.5390 -1.3407
  746MOL0     C98402   9.750   8.876   1.945 -0.2058 -0.5794 -0.3464
  746MOL0     C98403   9.718   8.882   2.092  0.0155  0.7456 -0.8354
  746MOL0     C98404   9.691   8.885   2.208  1.1384 -1.1804  0.0003
  746MOL0     C98405   9.403   8.634   1.558 -0.3282  0.7282  0.0905
  746MOL0     C98406   9.320   8.643   1.454 -0.0844 -0.6715 -0.2898
  746MOL0     H98407   8.956   8.477   1.112 -1.1765 -0.7734 -3.3503
  746MOL0     H98408   8.722   8.535   1.069 -2.0100  2.2341  0.4199
  746MOL0     H98409   8.517   8.626   1.046 -2.2698  3.8408  2.9938
  746MOL0     H98410   8.566   8.639   0.873 -1.3634 -0.0937  0.1870
  746MOL0     H98411   8.336   8.695   0.914  0.2099 -1.1548  3.1811
  746MOL0     H98412   8.428   8.806   0.821 -0.1424 -1.2532 -0.3179
  746MOL0     H98413   8.262   8.914   0.983 -0.5079 -0.9181  2.0453
  746MOL0     H98414   8.423   8.988   1.004 -3.1783  3.0270  0.6106
  746MOL0     H98415   8.294   8.756   1.159 -2.7273  0.5243 -1.9451
  746MOL0     H98416   8.453   8.830   1.195  1.5764 -0.8883 -2.4460
  746MOL0     H98417   8.189   8.996   1.202  0.4142  0.2653 -1.8238
  746MOL0     H98418   8.330   9.027   1.294 -0.5484 -0.2767  2.7495
  746MOL0     H98419   8.267   8.780   1.404 -0.5791 -1.1265  0.0220
  746MOL0     H98420   8.123   8.812   1.313  0.7139  0.1064 -2.6062
  746MOL0     H98421   8.163   9.056   1.453  3.6191  0.0847  0.9842
  746MOL0     H98422   8.071   8.927   1.537 -2.6233  0.8565 -1.8379
  746MOL0     H98423   8.254   9.024   1.671 -0.1728 -0.9207  0.8613
  746MOL0     H98424   8.379   8.970   1.556  1.8496 -2.4415 -0.2890
  746MOL0     H98425   8.086   8.766   1.694  0.8998  1.7218  3.3268
  746MOL0     H98426   8.293   8.478   1.867 -0.2723  3.2826  2.5678
  746MOL0     H98427   8.206   8.411   1.731  0.8970  0.2131  0.1087
  746MOL0     H98428   7.995   8.540   1.820 -0.4070 -0.9712 -0.9428
  746MOL0     H98429   8.092   8.594   1.948 -3.0039  1.3968 -0.3276
  746MOL0     H98430   8.026   8.292   1.861 -3.2494 -1.4278  1.4223
  746MOL0     H98431   8.140   8.332   1.998 -1.4326  1.5556  1.0280
  746MOL0     H98432   7.908   8.267   2.025  2.8980  0.5200  1.5913
  746MOL0     H98433   7.836   8.420   1.965 -1.4114 -0.0485 -0.6955
  746MOL0     H98434   7.810   8.539   2.322 -6.0032  0.0770  3.0004
  746MOL0     H98435   7.702   8.442   2.516 -0.1165 -1.0597  0.7561
  746MOL0     H98436   7.627   8.400   2.914 -2.2345  1.1580  3.2165
  746MOL0     H98437   7.501   8.353   3.106  0.4837  0.2142  0.4260
  746MOL0     H98438   7.387   8.249   3.314  2.1474 -0.3608  1.7908
  746MOL0     H98439   7.502   8.127   3.281  0.6294  0.2397 -1.3323
  746MOL0     H98440   7.348   8.051   3.477 -2.2798  0.0153 -0.0343
  746MOL0     H98441   7.384   7.935   3.355 -1.5548 -1.5864 -2.5279
  746MOL0     H98442   7.170   7.909   3.396  1.4725 -1.6485 -0.9849
  746MOL0     H98443   7.178   7.973   3.228  2.3810 -1.2801  0.0046
  746MOL0     H98444   7.118   8.132   3.487 -2.2004 -1.6961 -0.0936
  746MOL0     H98445   7.155   8.214   3.331  2.5216 -0.0838  1.1460
  746MOL0     H98446   6.943   8.222   3.397 -0.1931  0.8455  1.6946
  746MOL0     H98447   6.942   8.041   3.429  3.4603 -0.1730 -0.9072
  746MOL0     H98448   6.986   8.106   3.141  0.8686 -1.4126 -0.2796
  746MOL0     H98449   6.846   8.193   3.210 -0.5972 -1.3532 -1.3731
  746MOL0     H98450   6.797   7.982   3.086  0.8083 -0.0570 -0.8901
  746MOL0     H98451   6.880   7.894   3.209  1.7540 -0.8606 -3.4987
  746MOL0     H98452   6.619   8.052   3.262 -2.1639 -2.2725 -0.7354
  746MOL0     H98453   6.682   7.937   3.366  1.4266 -1.2921 -0.2629
  746MOL0     H98454   7.338   8.011   2.901 -0.8875  0.1842  0.7063
  746MOL0     H98455   7.461   8.068   2.704 -0.3081 -1.8780  1.6008
  746MOL0     H98456   7.853   8.059   2.414 -0.8240 -0.5832 -1.7629
  746MOL0     H98457   7.951   8.156   2.213 -3.4960 -0.4409 -2.2109
  746MOL0     H98458   8.803   8.944   1.105 -3.9247 -1.0865 -1.3628
  746MOL0     H98459   9.048   8.889   1.190  1.4793 -1.8433  2.6947
  746MOL0     H98460   9.526   8.686   1.189  1.2866 -1.2852 -0.4864
  746MOL0     H98461   9.691   8.698   1.364 -0.1769  0.8104 -0.6004
  746MOL0     H98462   9.694   8.510   1.772  0.0140  0.6375  0.8128
  746MOL0     H98463   9.517   8.526   1.754 -0.9671  0.6267  0.0188
  746MOL0     H98464   9.542   8.773   1.802  0.9041  1.2633  1.1776
  746MOL0     H98465   9.581   8.665   1.944  1.7057 -2.0920  0.5076
  746MOL0     H98466   9.787   8.779   1.767 -1.4663 -1.1273 -2.5430
  746MOL0     H98467   9.827   8.686   1.905  0.5706  3.1166  2.0587
  746MOL0     H98468   9.854   8.910   1.940 -0.5288  0.4199 -0.4423
  746MOL0     H98469   9.683   8.937   1.884 -0.7191  0.3999  1.1597
  746MOL0     H98470   9.671   8.896   2.313 -1.1927  1.2124 -0.5926
  746MOL0     H98471   9.371   8.607   1.658 -2.1010  1.0824 -0.3495
  746MOL0     H98472   9.213   8.638   1.472 -0.3814  0.5721 -1.5432
  747MOL0     O98473   6.055   9.655  10.605 -0.7561  0.7376 -0.1995
  747MOL0     C98474   6.009   9.621  10.496 -0.5785 -0.1972  0.3884
  747MOL0     O98475   6.050   9.676  10.374 -0.2118 -0.0196 -1.1687
  747MOL0     C98476   6.154   9.758  10.389 -0.9624 -0.6075  0.4496
  747MOL0     C98477   6.285   9.700  10.399 -0.2144  0.1031 -0.4338
  747MOL0     C98478   6.397   9.779  10.421  0.5287  0.0526 -0.1382
  747MOL0     C98479   6.371   9.916  10.412 -1.2512 -0.5550 -0.2308
  747MOL0     O98480   6.474   9.996  10.445  0.0650  0.2129 -0.9304
  747MOL0     C98481   6.597   9.967  10.375 -0.2442 -1.1217  0.5924
  747MOL0     C98482   6.701  10.065  10.413  0.5570  0.7413  0.4601
  747MOL0     C98483   6.648  10.209  10.420  0.1691  0.3052 -0.0331
  747MOL0     C98484   6.588  10.245  10.282 -0.6454 -0.0227 -0.4845
  747MOL0     C98485   6.591  10.399  10.278 -0.4878  0.9265  0.0234
  747MOL0     C98486   6.459  10.451  10.342 -0.7012 -0.4339  0.7562
  747MOL0     C98487   6.465  10.605  10.348  0.2554  1.4429 -0.6197
  747MOL0     C98488   6.542  10.651  10.474 -0.2908 -1.1352 -0.2031
  747MOL0     N98489   6.684  10.664  10.448 -0.5032  0.4847 -0.2638
  747MOL0     C98490   6.784  10.584  10.510  1.1393 -0.6866  0.0236
  747MOL0     C98491   6.898  10.636  10.474  0.2057 -0.1026  0.1545
  747MOL0     C98492   7.033  10.587  10.509 -0.3615 -0.1031 -0.9674
  747MOL0     C98493   7.140  10.573  10.405  0.0618 -0.0024  0.6131
  747MOL0     C98494   7.274  10.528  10.451  0.6139  0.0830 -0.5586
  747MOL0     C98495   7.280  10.395  10.527  1.2248 -0.1636  0.2093
  747MOL0     O98496   7.419  10.346  10.557  0.6413  0.1228  0.2198
  747MOL0     C98497   7.483  10.368  10.676 -1.3999  0.0709  0.3469
  747MOL0     C98498   7.616  10.315  10.679 -0.3422  0.8592  0.1535
  747MOL0     C98499   7.711  10.339  10.788  1.1708  0.2688  0.1623
  747MOL0     C98500   7.673  10.415  10.897 -0.0915  0.0257 -0.9541
  747MOL0     C98501   7.755  10.432  11.014  0.5565 -0.4543 -0.0438
  747MOL0     O98502   7.690  10.477  11.129  0.5532 -0.0349  0.4700
  747MOL0     C98503   7.761  10.547  11.220 -0.7440 -0.4514  0.8928
  747MOL0     C98504   7.700  10.672  11.255  0.0662  0.1960  0.2424
  747MOL0     C98505   7.761  10.758  11.345  0.4247 -0.3366 -0.4555
  747MOL0     C98506   7.884  10.723  11.399 -0.1384 -0.3822  0.7696
  747MOL0     O98507   7.955  10.796  11.484  0.0378 -0.4102 -0.8048
  747MOL0     C98508   7.898  10.902  11.568 -1.0876 -0.1536  1.0126
  747MOL0     C98509   7.843  10.830  11.693  0.4269  0.2516  0.9248
  747MOL0     C98510   7.729  10.905  11.748  0.2624 -0.3768  0.4538
  747MOL0     C98511   7.672  10.820  11.869 -0.4213 -0.4233  0.8163
  747MOL0     C98512   7.532  10.863  11.898 -0.4159  0.0162 -1.5887
  747MOL0     C98513   7.482  10.822  12.053 -0.7494  0.1828  0.1931
  747MOL0     C98514   7.338  10.829  12.084  0.1551  0.7777  0.6541
  747MOL0     C98515   7.273  10.965  12.087 -0.0548  0.2857  1.1630
  747MOL0    Cl98516   7.316  11.043  12.254  0.0810 -0.0331  0.5648
  747MOL0     C98517   7.941  10.599  11.368 -0.6303  0.4836 -0.1981
  747MOL0     C98518   7.879  10.517  11.277 -0.0373 -0.4072  0.0699
  747MOL0     O98519   7.872  10.406  10.999  0.1484 -0.8152 -0.0448
  747MOL0     C98520   7.539  10.476  10.894 -0.3597 -0.8191  0.1719
  747MOL0     C98521   7.457  10.455  10.781  0.4325  0.5543  0.9817
  747MOL0     N98522   6.866  10.749  10.397  0.6050  0.0239 -0.1009
  747MOL0     N98523   6.741  10.761  10.378  0.8969 -0.5892 -1.0547
  747MOL0     C98524   6.247   9.973  10.394 -0.7943  0.7236  0.4909
  747MOL0     C98525   6.138   9.890  10.397  0.2545 -0.4650 -0.3966
  747MOL0     C98526   5.895   9.525  10.493 -0.1646  0.4562 -0.2249
  747MOL0     C98527   5.858   9.441  10.604  0.5120 -0.3892 -0.2304
  747MOL0     C98528   5.752   9.347  10.583 -1.6661 -0.3438  0.3405
  747MOL0     C98529   5.680   9.336  10.470  0.8119  0.6422  0.2258
  747MOL0     O98530   5.568   9.255  10.465  0.0115  0.0891 -0.0977
  747MOL0     C98531   5.512   9.211  10.346 -0.9997 -0.2385  0.6792
  747MOL0     C98532   5.499   9.055  10.343  0.5008 -0.5979  1.1713
  747MOL0     C98533   5.633   8.994  10.371  0.1499 -0.5395 -0.2287
  747MOL0     C98534   5.642   8.850  10.320 -0.2666  0.0912 -0.7512
  747MOL0     C98535   5.623   8.829  10.174 -1.0805 -0.5891 -0.0335
  747MOL0     C98536   5.594   8.801  10.055 -0.1456 -0.7561  0.3691
  747MOL0     C98537   5.708   9.425  10.366 -0.4008 -0.2406  0.0263
  747MOL0     C98538   5.815   9.513  10.376 -0.4819  0.1583  0.5187
  747MOL0     H98539   6.293   9.592  10.391  1.8939  0.2220 -0.6660
  747MOL0     H98540   6.486   9.731  10.460  0.2978 -1.9112 -1.8641
  747MOL0     H98541   6.594   9.967  10.265 -3.9749 -1.9911  0.5639
  747MOL0     H98542   6.628   9.868  10.412 -0.2528 -1.0704  0.7372
  747MOL0     H98543   6.784  10.054  10.342 -0.5075  2.1136 -1.0779
  747MOL0     H98544   6.738  10.047  10.514  0.6987  1.5129  0.5482
  747MOL0     H98545   6.733  10.270  10.452 -0.5852 -0.3160  3.6598
  747MOL0     H98546   6.573  10.219  10.499 -1.9993 -3.9359 -1.2614
  747MOL0     H98547   6.653  10.197  10.209 -2.7255 -1.8803 -1.1987
  747MOL0     H98548   6.487  10.203  10.274 -0.2091 -1.3008  0.3905
  747MOL0     H98549   6.593  10.433  10.174 -1.2263  3.0278  0.6386
  747MOL0     H98550   6.673  10.446  10.334 -0.1948  0.7543 -0.2608
  747MOL0     H98551   6.451  10.409  10.443  2.4419  1.3715  1.8990
  747MOL0     H98552   6.383  10.413  10.272  0.9672  0.6634 -1.8100
  747MOL0     H98553   6.497  10.657  10.258 -2.8509  1.5556 -1.7728
  747MOL0     H98554   6.364  10.642  10.368 -0.2543  0.3883 -1.1647
  747MOL0     H98555   6.536  10.591  10.564 -0.1557 -1.9407 -0.7238
  747MOL0     H98556   6.500  10.750  10.495  0.9888 -0.9978  1.9108
  747MOL0     H98557   6.746  10.499  10.566 -5.3486  2.1541  0.7622
  747MOL0     H98558   7.017  10.489  10.556 -0.0036 -0.3858 -1.4262
  747MOL0     H98559   7.065  10.662  10.582 -2.4430  0.8453 -0.9496
  747MOL0     H98560   7.143  10.671  10.357 -1.1373  1.6933  3.6781
  747MOL0     H98561   7.108  10.504  10.326  0.4051 -0.2924  0.7278
  747MOL0     H98562   7.347  10.533  10.370 -1.0558 -0.5504 -2.1834
  747MOL0     H98563   7.304  10.600  10.528  1.0435  2.1247 -2.5189
  747MOL0     H98564   7.243  10.320  10.457  2.3189  0.0911 -0.6740
  747MOL0     H98565   7.221  10.409  10.618 -0.0028  2.3620 -0.8563
  747MOL0     H98566   7.659  10.262  10.595  4.0068  2.8617  0.8767
  747MOL0     H98567   7.812  10.300  10.792  0.8520 -0.7176 -0.9994
  747MOL0     H98568   7.602  10.691  11.212  0.1995 -2.0802 -1.2648
  747MOL0     H98569   7.710  10.848  11.378  0.6981 -0.9380  1.7133
  747MOL0     H98570   7.820  10.957  11.515 -3.1225 -1.9735  1.9456
  747MOL0     H98571   7.970  10.974  11.608 -1.2665  0.8420 -0.3826
  747MOL0     H98572   7.915  10.812  11.774 -2.4505 -1.4080  3.3357
  747MOL0     H98573   7.808  10.731  11.664  0.5236  1.3474 -3.5337
  747MOL0     H98574   7.663  10.922  11.662  3.2201  0.7925 -1.7224
  747MOL0     H98575   7.756  11.007  11.776 -0.7213  0.1148 -0.3134
  747MOL0     H98576   7.685  10.715  11.843  1.1267 -0.1899  0.5840
  747MOL0     H98577   7.729  10.832  11.962  1.8753 -1.0909 -0.4467
  747MOL0     H98578   7.470  10.812  11.824 -2.5804  0.2835 -0.0819
  747MOL0     H98579   7.527  10.972  11.884  0.7738  0.1676 -0.9204
  747MOL0     H98580   7.547  10.873  12.125 -0.5652 -0.3702  0.4329
  747MOL0     H98581   7.533  10.725  12.059  1.5600  1.4048  2.3439
  747MOL0     H98582   7.283  10.762  12.017 -0.8438 -1.3332  3.3792
  747MOL0     H98583   7.322  10.781  12.181  1.1953 -0.1877  0.3731
  747MOL0     H98584   7.164  10.956  12.084  0.0933 -2.3725 -2.1264
  747MOL0     H98585   7.313  11.034  12.012  4.3002  0.4568  3.2867
  747MOL0     H98586   8.034  10.565  11.414 -1.2760 -0.8399  0.1659
  747MOL0     H98587   7.905  10.413  11.261 -1.5225 -1.0503  1.4914
  747MOL0     H98588   7.500  10.539  10.973 -0.9334 -0.8393 -0.0930
  747MOL0     H98589   7.363  10.510  10.790  0.4957  0.6525  1.0411
  747MOL0     H98590   6.227  10.079  10.378 -2.2354  0.1087 -2.4509
  747MOL0     H98591   6.038   9.931  10.395  0.1725 -0.5484  0.9910
  747MOL0     H98592   5.908   9.455  10.700 -0.9349  0.6456  0.4092
  747MOL0     H98593   5.721   9.287  10.668  0.8834 -3.1788 -0.5459
  747MOL0     H98594   5.569   9.236  10.257  0.4434 -1.4235  1.2275
  747MOL0     H98595   5.415   9.257  10.323 -0.1403  0.2752 -2.2470
  747MOL0     H98596   5.420   9.012  10.405 -2.1494 -0.7654 -2.0049
  747MOL0     H98597   5.473   9.022  10.242 -0.5962  0.2512  1.1459
  747MOL0     H98598   5.651   8.987  10.479  1.1159 -2.0945 -0.4564
  747MOL0     H98599   5.718   9.042  10.320  0.3412  0.9124  1.3633
  747MOL0     H98600   5.740   8.803  10.332  0.1691  0.3237 -2.9692
  747MOL0     H98601   5.563   8.797  10.374 -1.1133 -1.6811 -3.4619
  747MOL0     H98602   5.577   8.772   9.953 -1.7418 -5.2528  1.6831
  747MOL0     H98603   5.655   9.442  10.273  1.0424  4.8684 -0.1846
  747MOL0     H98604   5.834   9.567  10.284  0.3276 -5.0144 -2.7895
  748MOL0     O98605   5.927   1.387   7.920  0.2000  0.6574  0.1130
  748MOL0     C98606   5.888   1.502   7.927  0.0679 -0.0453 -0.3469
  748MOL0     O98607   5.765   1.535   7.986 -0.2616 -0.3144 -0.6134
  748MOL0     C98608   5.699   1.424   8.045  0.4889  0.2356  0.1872
  748MOL0     C98609   5.615   1.337   7.973 -0.4231  0.2896 -0.3298
  748MOL0     C98610   5.529   1.247   8.040  0.2955 -0.0977 -0.3709
  748MOL0     C98611   5.529   1.249   8.184  0.0862  0.2681 -0.2458
  748MOL0     O98612   5.447   1.182   8.267 -0.0343  0.0933  0.4375
  748MOL0     C98613   5.399   1.053   8.211 -0.3473  0.8439 -0.8543
  748MOL0     C98614   5.320   0.977   8.316 -0.6248  0.0683  0.4258
  748MOL0     C98615   5.184   1.038   8.316 -0.2615  1.0396  0.4077
  748MOL0     C98616   5.095   0.957   8.424 -0.0421 -0.0291  0.7205
  748MOL0     C98617   4.944   0.985   8.415 -0.0966 -0.1426 -0.6655
  748MOL0     C98618   4.886   0.938   8.548  0.0750 -0.2303 -0.0766
  748MOL0     C98619   4.739   0.965   8.540 -1.0714  0.8478  0.1038
  748MOL0     C98620   4.655   0.936   8.660  0.1079 -0.1157 -0.3298
  748MOL0     N98621   4.656   1.050   8.751 -0.0199  0.5301  0.0624
  748MOL0     C98622   4.558   1.137   8.767  0.0919  0.0275 -0.9227
  748MOL0     C98623   4.609   1.235   8.849  1.1492  0.1910 -0.1765
  748MOL0     C98624   4.527   1.357   8.883 -0.5912 -0.8921  0.6750
  748MOL0     C98625   4.478   1.456   8.761  0.6996  0.5812 -1.1809
  748MOL0     C98626   4.477   1.613   8.817  0.0027  0.7842  0.3707
  748MOL0     C98627   4.414   1.702   8.704 -0.0230  0.1321  0.8353
  748MOL0     O98628   4.293   1.643   8.662 -0.6872  0.9548 -0.4786
  748MOL0     C98629   4.239   1.693   8.547  0.2933 -0.7110  0.1773
  748MOL0     C98630   4.162   1.609   8.476  0.8230 -0.6124 -0.0438
  748MOL0     C98631   4.100   1.641   8.350 -0.3689  0.2471  0.0381
  748MOL0     C98632   4.103   1.773   8.306  0.2826 -0.1784 -0.2643
  748MOL0     C98633   4.037   1.806   8.185  0.9552  0.2183  0.0736
  748MOL0     O98634   4.015   1.706   8.096  0.1054  0.2286  0.2217
  748MOL0     C98635   3.981   1.720   7.967  0.1681 -0.7265  0.9380
  748MOL0     C98636   3.927   1.613   7.896 -0.4742  0.1916  0.6672
  748MOL0     C98637   3.898   1.624   7.763 -1.0487 -0.3947  0.6714
  748MOL0     C98638   3.893   1.750   7.698 -0.1574  1.3533  0.3171
  748MOL0     O98639   3.842   1.758   7.570  0.3571 -0.0068 -0.3852
  748MOL0     C98640   3.818   1.643   7.486 -0.1629 -1.0705  0.3968
  748MOL0     C98641   3.847   1.697   7.348 -0.9518  0.3308  0.0599
  748MOL0     C98642   3.783   1.601   7.245  0.6150  0.6313  0.4747
  748MOL0     C98643   3.704   1.669   7.131  1.7459 -0.4430 -0.2454
  748MOL0     C98644   3.650   1.573   7.032 -0.0786 -0.5015 -0.3794
  748MOL0     C98645   3.568   1.645   6.930 -0.6505 -0.5822  0.5576
  748MOL0     C98646   3.468   1.550   6.863 -0.1739 -0.6719 -0.3896
  748MOL0     C98647   3.539   1.445   6.787  0.9762 -0.3320  0.1163
  748MOL0    Cl98648   3.407   1.337   6.712 -0.4132 -0.4068 -0.2792
  748MOL0     C98649   3.937   1.864   7.759 -0.9314  0.0434 -0.2371
  748MOL0     C98650   3.989   1.848   7.897  0.0981  1.0732  0.1122
  748MOL0     O98651   4.003   1.924   8.167  1.0585  0.4317 -0.0190
  748MOL0     C98652   4.180   1.866   8.383  0.7412  0.1339  0.4919
  748MOL0     C98653   4.246   1.826   8.501  0.2838 -0.6042  0.3843
  748MOL0     N98654   4.733   1.211   8.892 -0.6848 -0.9815  0.4935
  748MOL0     N98655   4.761   1.098   8.836 -0.5360  0.4925 -0.7240
  748MOL0     C98656   5.617   1.333   8.251 -0.6260  0.3532 -0.7583
  748MOL0     C98657   5.693   1.425   8.182 -0.0205 -0.5867  0.0390
  748MOL0     C98658   5.973   1.615   7.859 -0.5785  0.3758 -1.4523
  748MOL0     C98659   6.112   1.600   7.856  0.1408 -0.5625 -0.5127
  748MOL0     C98660   6.195   1.693   7.795 -0.0489 -0.4117 -0.5327
  748MOL0     C98661   6.145   1.819   7.759  0.0563 -0.7929 -0.1805
  748MOL0     O98662   6.228   1.923   7.719  0.0866  0.4074 -0.6433
  748MOL0     C98663   6.245   1.947   7.581  0.4933  0.3465 -0.0895
  748MOL0     C98664   6.123   2.007   7.510 -0.1091  0.1397  0.2885
  748MOL0     C98665   6.155   2.100   7.392  0.3009  0.5771  0.2593
  748MOL0     C98666   6.239   2.036   7.282 -0.5067 -0.5300  1.8307
  748MOL0     C98667   6.388   2.055   7.284  0.7378 -0.5760 -0.3967
  748MOL0     C98668   6.499   2.090   7.298 -0.0305 -1.5033 -0.2836
  748MOL0     C98669   6.005   1.844   7.800 -0.2376 -0.6593  0.6751
  748MOL0     C98670   5.918   1.747   7.836  0.1152 -0.0274  0.5231
  748MOL0     H98671   5.610   1.352   7.866 -0.8893  1.2389 -0.1889
  748MOL0     H98672   5.477   1.177   7.974 -1.5396  1.0870 -0.2600
  748MOL0     H98673   5.483   0.991   8.178 -1.7917 -1.9577  0.3454
  748MOL0     H98674   5.333   1.064   8.124 -4.2935 -1.0473  1.6113
  748MOL0     H98675   5.366   0.996   8.414  0.8168 -0.1286 -0.1893
  748MOL0     H98676   5.318   0.869   8.299  2.4694 -0.3758  2.1188
  748MOL0     H98677   5.137   1.051   8.218  2.2617  1.2478 -0.8658
  748MOL0     H98678   5.193   1.144   8.341  2.3848  1.6058 -2.3203
  748MOL0     H98679   5.099   0.848   8.413 -1.5334 -0.2056  1.6794
  748MOL0     H98680   5.128   0.979   8.526 -1.9938  2.6665  0.8567
  748MOL0     H98681   4.896   0.944   8.326  0.1750 -0.9800 -0.4298
  748MOL0     H98682   4.927   1.093   8.425  1.5801  0.1265 -0.3792
  748MOL0     H98683   4.923   0.998   8.631 -1.3732 -1.7679  1.7720
  748MOL0     H98684   4.905   0.833   8.570  0.1017 -0.3976 -0.8594
  748MOL0     H98685   4.730   1.071   8.513  2.0621  1.1996  0.1095
  748MOL0     H98686   4.701   0.909   8.454 -0.4823 -0.1502  0.4806
  748MOL0     H98687   4.694   0.855   8.723  3.0403 -1.6327 -3.7014
  748MOL0     H98688   4.553   0.909   8.632 -0.0037 -1.6267  1.3277
  748MOL0     H98689   4.458   1.115   8.730 -0.6652  0.3950  0.7807
  748MOL0     H98690   4.591   1.416   8.948 -1.9247 -0.7177  1.8716
  748MOL0     H98691   4.441   1.326   8.943 -0.9810  0.4472  0.8507
  748MOL0     H98692   4.380   1.413   8.741  0.0322  1.1718  0.5910
  748MOL0     H98693   4.550   1.449   8.679 -0.4571  2.4772 -2.4287
  748MOL0     H98694   4.415   1.634   8.905  0.2810  0.2773  0.6946
  748MOL0     H98695   4.577   1.655   8.829 -0.1145  1.6297 -1.4040
  748MOL0     H98696   4.481   1.709   8.618  0.4440 -0.2547  1.1651
  748MOL0     H98697   4.411   1.804   8.743 -0.6036  0.1534  0.7439
  748MOL0     H98698   4.158   1.508   8.516  2.9382 -1.0955 -0.9137
  748MOL0     H98699   4.053   1.561   8.294  0.4608 -0.3078  0.1171
  748MOL0     H98700   3.912   1.512   7.934 -1.5258  0.9400  2.3482
  748MOL0     H98701   3.853   1.533   7.724 -0.1958 -1.4775  2.1588
  748MOL0     H98702   3.714   1.608   7.485 -0.6871  0.3904  1.2129
  748MOL0     H98703   3.880   1.557   7.513  4.3689  0.4305 -3.8182
  748MOL0     H98704   3.954   1.704   7.330 -1.1209  2.2955 -0.4467
  748MOL0     H98705   3.808   1.800   7.347 -0.5268  0.5059 -1.3945
  748MOL0     H98706   3.709   1.542   7.301 -0.4703  1.3866 -0.1077
  748MOL0     H98707   3.853   1.533   7.196 -0.3717 -1.0940  1.3524
  748MOL0     H98708   3.638   1.748   7.167  0.0832 -1.8953  0.0411
  748MOL0     H98709   3.777   1.721   7.070 -0.8589  2.4470 -1.1461
  748MOL0     H98710   3.581   1.509   7.086 -0.9271  1.8346  1.5014
  748MOL0     H98711   3.723   1.507   6.985  0.4797 -0.0931 -0.1073
  748MOL0     H98712   3.634   1.696   6.859 -0.8746 -0.4083  0.4723
  748MOL0     H98713   3.512   1.729   6.973 -0.7338  0.3322 -1.2306
  748MOL0     H98714   3.405   1.508   6.942 -0.1545  0.2373  0.1228
  748MOL0     H98715   3.407   1.610   6.796  0.9204 -0.6946 -1.4264
  748MOL0     H98716   3.594   1.379   6.854  0.0946 -0.9512  0.2508
  748MOL0     H98717   3.589   1.486   6.698 -2.3905  2.9371 -0.5310
  748MOL0     H98718   3.934   1.957   7.703 -0.3383 -0.8219 -1.7650
  748MOL0     H98719   4.045   1.928   7.947 -1.8586  2.3254  0.3947
  748MOL0     H98720   4.197   1.966   8.347  1.7549 -0.0555  0.4123
  748MOL0     H98721   4.302   1.903   8.554 -2.4793  3.3042 -1.8596
  748MOL0     H98722   5.611   1.357   8.357 -4.1527  1.5015 -1.1085
  748MOL0     H98723   5.753   1.500   8.233  1.5028 -1.9496  0.3463
  748MOL0     H98724   6.150   1.501   7.881 -3.1506 -2.3759 -2.0764
  748MOL0     H98725   6.298   1.674   7.767  0.3249  2.6776 -1.6991
  748MOL0     H98726   6.279   1.859   7.526  1.0517  0.9640 -0.7526
  748MOL0     H98727   6.332   2.014   7.582  0.0353  0.9877  2.0285
  748MOL0     H98728   6.062   1.922   7.480  0.3118 -0.2538  0.5309
  748MOL0     H98729   6.062   2.058   7.584 -1.1511 -0.6251 -0.0280
  748MOL0     H98730   6.195   2.196   7.424 -1.1572  2.6587 -3.4606
  748MOL0     H98731   6.058   2.123   7.347  0.6020  1.5666  0.0966
  748MOL0     H98732   6.207   1.932   7.270  0.3022 -0.4894 -3.6338
  748MOL0     H98733   6.214   2.088   7.189 -0.3843  2.3786  3.3016
  748MOL0     H98734   6.595   2.136   7.310 -0.0377 -1.8872  1.4523
  748MOL0     H98735   5.975   1.948   7.791  1.6066 -0.1720 -0.4076
  748MOL0     H98736   5.814   1.772   7.855 -0.1211  2.5700 -3.0865
  749MOL0     O98737  11.099   0.376   0.568  0.4343  0.9822  0.5932
  749MOL0     C98738  11.056   0.257   0.567  0.5535 -0.1032 -0.7473
  749MOL0     O98739  10.966   0.205   0.474 -0.5201 -0.4726  0.2170
  749MOL0     C98740  10.834   0.232   0.475 -0.5754 -0.3326 -0.9529
  749MOL0     C98741  10.763   0.156   0.379  0.3744 -0.8243 -0.1002
  749MOL0     C98742  10.627   0.195   0.350 -0.4013 -0.4162  0.2689
  749MOL0     C98743  10.561   0.291   0.426 -0.2104  0.1652  0.3459
  749MOL0     O98744  10.427   0.319   0.417 -0.6169 -0.8221 -0.0549
  749MOL0     C98745  10.341   0.204   0.404  0.2126  0.2147  0.3411
  749MOL0     C98746  10.245   0.215   0.287  0.8275 -1.1105  0.0913
  749MOL0     C98747  10.158   0.102   0.259 -0.9714  0.4680 -0.1379
  749MOL0     C98748  10.077   0.119   0.131  0.2277  0.3886  0.3457
  749MOL0     C98749  10.008  -0.015   0.111 -0.3062  0.2460  1.6936
  749MOL0     C98750   9.919  -0.018  -0.011 -0.5690 -0.4445  0.1077
  749MOL0     C98751   9.823  -0.137  -0.003  0.2338 -0.9364 -0.2790
  749MOL0     C98752   9.880  -0.281  -0.026 -0.3869 -0.2869  0.4667
  749MOL0     N98753   9.964  -0.326   0.087 -0.1441 -0.0640  0.0499
  749MOL0     C98754   9.947  -0.317   0.220  0.7700 -0.1708 -0.2487
  749MOL0     C98755  10.062  -0.355   0.279  0.2310 -0.2857  0.2839
  749MOL0     C98756  10.079  -0.322   0.421 -0.0309 -0.5038  0.4733
  749MOL0     C98757  10.227  -0.323   0.477 -0.7891  0.5191  0.1108
  749MOL0     C98758  10.240  -0.414   0.597  0.2716 -0.0059  0.2370
  749MOL0     C98759  10.196  -0.566   0.558 -0.1014  0.3958  0.5329
  749MOL0     O98760  10.066  -0.597   0.615 -0.6073 -0.0029 -0.3976
  749MOL0     C98761  10.024  -0.718   0.578 -0.7778 -0.3812  0.4973
  749MOL0     C98762   9.941  -0.732   0.466  0.5699  0.1573  0.0364
  749MOL0     C98763   9.875  -0.856   0.429 -0.2606  0.1096  0.3163
  749MOL0     C98764   9.895  -0.972   0.512  0.4640  0.5977  0.3572
  749MOL0     C98765   9.810  -1.087   0.483  0.3809 -0.0412 -0.6674
  749MOL0     O98766   9.765  -1.157   0.593  0.1019  0.5563 -0.2660
  749MOL0     C98767   9.680  -1.263   0.571 -0.8380 -0.0130  0.3176
  749MOL0     C98768   9.727  -1.385   0.523  0.1641  1.3327 -0.6249
  749MOL0     C98769   9.645  -1.496   0.503  0.2262 -0.4488  0.7341
  749MOL0     C98770   9.504  -1.490   0.524  0.0784 -0.0999 -0.4876
  749MOL0     O98771   9.423  -1.599   0.516  1.0742 -0.2002 -0.1520
  749MOL0     C98772   9.293  -1.581   0.570  0.3874  0.5727  0.0400
  749MOL0     C98773   9.198  -1.710   0.565 -1.0909  0.6975  0.0616
  749MOL0     C98774   9.061  -1.685   0.632  0.4637 -0.7598  0.4065
  749MOL0     C98775   8.985  -1.821   0.640  0.3121 -1.1765 -1.0717
  749MOL0     C98776   8.838  -1.804   0.691 -0.1718  0.5254  1.1459
  749MOL0     C98777   8.747  -1.734   0.593 -0.9277 -0.2492 -0.0817
  749MOL0     C98778   8.619  -1.718   0.674  0.1592  0.7514 -0.8942
  749MOL0     C98779   8.526  -1.834   0.649  0.2479 -0.1961  1.3669
  749MOL0    Cl98780   8.357  -1.805   0.711  0.1051 -0.3226  0.1818
  749MOL0     C98781   9.456  -1.357   0.571 -0.4183  0.1895  0.2769
  749MOL0     C98782   9.545  -1.252   0.598  0.2413  0.7528 -0.7244
  749MOL0     O98783   9.764  -1.109   0.371  0.2372 -0.7584  0.0455
  749MOL0     C98784   9.986  -0.966   0.616  0.4843 -0.2283  0.2181
  749MOL0     C98785  10.050  -0.838   0.650 -0.2145  0.0332  0.5808
  749MOL0     N98786  10.158  -0.382   0.181 -0.5068 -0.4653  1.0519
  749MOL0     N98787  10.103  -0.359   0.072  0.2003 -0.6113 -0.0227
  749MOL0     C98788  10.629   0.341   0.532 -0.1037  0.3686  0.1987
  749MOL0     C98789  10.766   0.315   0.563 -0.7264  0.0537  0.0407
  749MOL0     C98790  11.139   0.164   0.653 -0.1167 -0.8013  0.2593
  749MOL0     C98791  11.131   0.029   0.637  0.5159  0.7795 -0.6558
  749MOL0     C98792  11.222  -0.059   0.704  0.2326  0.0513 -0.4706
  749MOL0     C98793  11.291  -0.002   0.814 -0.6550  0.6500  0.0141
  749MOL0     O98794  11.376  -0.094   0.870 -0.1078  0.0965 -0.2796
  749MOL0     C98795  11.452  -0.074   0.993 -0.4620 -0.3545  0.0031
  749MOL0     C98796  11.581  -0.002   0.959 -0.5941 -0.7218 -0.2275
  749MOL0     C98797  11.672  -0.090   0.868  0.4951 -0.3670  0.6081
  749MOL0     C98798  11.746  -0.008   0.757 -0.2757 -0.2894 -1.1304
  749MOL0     C98799  11.821   0.099   0.829 -0.0237  0.6384 -0.1109
  749MOL0     C98800  11.901   0.170   0.889  0.8242 -0.7971 -1.4228
  749MOL0     C98801  11.275   0.132   0.854 -0.8499  0.0453  0.0582
  749MOL0     C98802  11.217   0.216   0.764  0.0392 -1.1167  0.8017
  749MOL0     H98803  10.808   0.084   0.312 -3.6317 -1.7598 -2.1167
  749MOL0     H98804  10.579   0.148   0.265 -0.3945  0.6043 -0.3185
  749MOL0     H98805  10.281   0.191   0.495  0.4014 -0.1286  0.4184
  749MOL0     H98806  10.395   0.113   0.377 -0.1472  0.4801 -1.4072
  749MOL0     H98807  10.302   0.236   0.196 -1.3977 -2.3923 -1.7163
  749MOL0     H98808  10.175   0.295   0.313  1.9230 -0.4889  1.2457
  749MOL0     H98809  10.089   0.110   0.344 -0.0255  4.0440  0.4649
  749MOL0     H98810  10.203   0.003   0.252 -5.6709 -1.9344 -0.9301
  749MOL0     H98811  10.019   0.211   0.134  3.1401  2.5883 -2.6861
  749MOL0     H98812  10.149   0.137   0.051  3.4127  0.1525  2.9179
  749MOL0     H98813   9.951  -0.047   0.199 -0.2942 -1.0328  1.2536
  749MOL0     H98814  10.089  -0.088   0.101 -1.1456 -0.4164 -1.1251
  749MOL0     H98815   9.986  -0.016  -0.098  2.2630 -1.3649  2.1296
  749MOL0     H98816   9.864   0.076  -0.004  0.3342 -0.0230  3.4092
  749MOL0     H98817   9.768  -0.141   0.091  0.1021 -3.0547 -0.4168
  749MOL0     H98818   9.748  -0.134  -0.083  0.4348  1.7547 -0.4714
  749MOL0     H98819   9.948  -0.277  -0.111  0.0492 -1.9025  0.7096
  749MOL0     H98820   9.793  -0.341  -0.054 -0.9081  1.4114 -1.8398
  749MOL0     H98821   9.862  -0.278   0.275  0.9728 -1.8042  1.3260
  749MOL0     H98822  10.018  -0.390   0.481  0.3038  0.6274  2.1562
  749MOL0     H98823  10.045  -0.218   0.427  0.2180 -0.0946 -2.9184
  749MOL0     H98824  10.269  -0.224   0.497 -0.4745  0.2777  0.6998
  749MOL0     H98825  10.302  -0.354   0.404 -0.4312 -1.9819  1.3957
  749MOL0     H98826  10.342  -0.400   0.633 -0.6446  2.2714  2.2265
  749MOL0     H98827  10.172  -0.374   0.674  1.7326  0.6402  1.2327
  749MOL0     H98828  10.267  -0.634   0.607 -2.4624  0.6320  4.7385
  749MOL0     H98829  10.190  -0.571   0.449 -0.7163  0.4878  0.5609
  749MOL0     H98830   9.904  -0.644   0.415 -0.2705 -0.1861  0.0357
  749MOL0     H98831   9.805  -0.851   0.346 -1.4724  1.9009  1.3850
  749MOL0     H98832   9.832  -1.387   0.495  0.3933  0.3910  0.2359
  749MOL0     H98833   9.691  -1.585   0.462 -0.3829 -1.9404  3.0634
  749MOL0     H98834   9.233  -1.498   0.531 -0.7041  0.6530  1.7927
  749MOL0     H98835   9.313  -1.557   0.674  1.2707 -2.3585  0.6310
  749MOL0     H98836   9.258  -1.789   0.610  1.5635  1.7262 -1.4549
  749MOL0     H98837   9.170  -1.741   0.463  0.0534 -0.4317  0.0673
  749MOL0     H98838   9.002  -1.610   0.578  0.5476  0.2281  1.6437
  749MOL0     H98839   9.080  -1.642   0.731  0.9509  2.9769 -1.1545
  749MOL0     H98840   8.994  -1.883   0.551  1.4446  1.1743 -2.7096
  749MOL0     H98841   9.029  -1.866   0.730  2.1685  4.1681  1.1367
  749MOL0     H98842   8.840  -1.738   0.779 -0.2466 -0.7551  2.1371
  749MOL0     H98843   8.802  -1.905   0.713  2.3597 -1.2318 -2.0064
  749MOL0     H98844   8.739  -1.785   0.496  0.5643  1.5959 -1.2543
  749MOL0     H98845   8.775  -1.630   0.575  0.3278 -0.5433  0.0460
  749MOL0     H98846   8.645  -1.705   0.780  0.3075  1.2202 -0.9843
  749MOL0     H98847   8.564  -1.629   0.643  0.3799  1.3083  0.2389
  749MOL0     H98848   8.552  -1.922   0.708  1.5813  0.1070  1.2816
  749MOL0     H98849   8.520  -1.851   0.541  1.3473 -1.7150  1.5149
  749MOL0     H98850   9.354  -1.347   0.605 -0.8659  1.2138 -1.2882
  749MOL0     H98851   9.517  -1.157   0.643 -1.7014  0.0448 -0.3522
  749MOL0     H98852  10.022  -1.055   0.667  2.3008 -2.9869 -5.1071
  749MOL0     H98853  10.130  -0.827   0.722 -0.3617  0.3011  0.7062
  749MOL0     H98854  10.576   0.406   0.601 -0.4585 -1.4818  1.7663
  749MOL0     H98855  10.811   0.343   0.658 -0.7310  0.8896 -0.1955
  749MOL0     H98856  11.056  -0.009   0.569  0.4786  0.2199 -0.3111
  749MOL0     H98857  11.238  -0.161   0.672 -0.9359 -0.4748  0.5493
  749MOL0     H98858  11.459  -0.164   1.055 -2.4800 -0.2129  0.5082
  749MOL0     H98859  11.405   0.003   1.054  0.7656  2.2600 -2.1433
  749MOL0     H98860  11.544   0.083   0.901  0.7966 -0.8373 -1.3302
  749MOL0     H98861  11.638   0.032   1.047  1.2236 -0.4791 -1.4458
  749MOL0     H98862  11.613  -0.177   0.838  1.4440 -2.5144  4.2998
  749MOL0     H98863  11.744  -0.152   0.922  0.5590 -2.0596 -1.2734
  749MOL0     H98864  11.819  -0.078   0.715  0.6060 -1.3810  1.9138
  749MOL0     H98865  11.680   0.038   0.683 -2.1293 -1.6030 -0.3818
  749MOL0     H98866  11.988   0.217   0.931 -0.5431 -0.3283  1.0369
  749MOL0     H98867  11.323   0.181   0.939 -0.6545  1.3508 -0.7840
  749MOL0     H98868  11.216   0.324   0.779 -0.0155 -0.8661 -0.7943
  750MOL0     O98869   3.221   4.746   3.468 -0.4444  0.1734  0.4640
  750MOL0     C98870   3.133   4.710   3.395 -0.2417 -0.3999 -0.5595
  750MOL0     O98871   3.152   4.645   3.273 -0.2077  0.8273  0.8010
  750MOL0     C98872   3.269   4.584   3.254  1.0881  0.1441  0.1219
  750MOL0     C98873   3.339   4.496   3.336 -0.4239  0.0641 -0.2001
  750MOL0     C98874   3.465   4.447   3.286 -0.1286  1.1500  0.5102
  750MOL0     C98875   3.512   4.459   3.160 -0.4740  0.0187 -0.1266
  750MOL0     O98876   3.637   4.407   3.141 -0.1385  0.2010  0.1428
  750MOL0     C98877   3.716   4.487   3.045  0.2678 -0.0451  0.2218
  750MOL0     C98878   3.857   4.433   3.051  0.1551 -0.2102 -0.1759
  750MOL0     C98879   3.936   4.469   3.181 -0.5037 -0.0841 -0.3881
  750MOL0     C98880   4.037   4.366   3.224 -1.0197 -0.4200 -1.0965
  750MOL0     C98881   4.095   4.394   3.366 -0.1856 -0.4375  0.1913
  750MOL0     C98882   4.016   4.330   3.478 -0.3285 -0.4387 -0.2280
  750MOL0     C98883   4.089   4.320   3.615 -0.1940 -0.1045 -0.9842
  750MOL0     C98884   4.182   4.188   3.641  0.2307 -0.7744  0.4681
  750MOL0     N98885   4.109   4.061   3.635 -0.3853 -0.1435 -0.1805
  750MOL0     C98886   3.976   4.018   3.646 -0.2165 -0.1566 -0.0678
  750MOL0     C98887   3.985   3.889   3.643  0.4228 -0.5302  0.4583
  750MOL0     C98888   3.862   3.810   3.633 -0.5710 -0.6470  0.2684
  750MOL0     C98889   3.885   3.660   3.595 -0.3321 -0.5276 -0.2384
  750MOL0     C98890   3.755   3.580   3.606  0.2617 -0.1587  0.0548
  750MOL0     C98891   3.786   3.436   3.570 -0.3685  0.1625  0.4735
  750MOL0     O98892   3.788   3.360   3.689  0.3335 -0.4955  0.0532
  750MOL0     C98893   3.673   3.308   3.739 -0.7054  0.5705  0.0542
  750MOL0     C98894   3.674   3.234   3.852 -0.4194  0.3324 -0.2565
  750MOL0     C98895   3.554   3.190   3.917  0.0867  0.5776  0.4871
  750MOL0     C98896   3.428   3.218   3.866  0.4812  0.0263 -0.8573
  750MOL0     C98897   3.294   3.183   3.920 -0.5029  0.2828 -0.2968
  750MOL0     O98898   3.201   3.269   3.881  0.3556  0.2354 -0.4301
  750MOL0     C98899   3.067   3.230   3.898 -0.7589  0.2549 -0.6286
  750MOL0     C98900   2.999   3.160   3.794 -0.1799  0.3885 -0.1747
  750MOL0     C98901   2.866   3.122   3.811  0.3810 -0.3300 -0.0280
  750MOL0     C98902   2.796   3.156   3.924  1.0706  0.6746  0.6260
  750MOL0     O98903   2.669   3.108   3.947 -0.4037  0.7597  0.4197
  750MOL0     C98904   2.582   3.084   3.835  0.4039  0.4019  0.3102
  750MOL0     C98905   2.439   3.112   3.880  0.3292 -0.5469 -0.0442
  750MOL0     C98906   2.374   3.214   3.790  0.0088 -0.0292 -0.1187
  750MOL0     C98907   2.219   3.216   3.807 -0.3329  0.3518 -0.1506
  750MOL0     C98908   2.156   3.350   3.760  0.0373 -0.3716  0.1320
  750MOL0     C98909   2.140   3.454   3.876 -0.4277 -0.4556 -0.4388
  750MOL0     C98910   1.993   3.439   3.929 -0.4215  0.0846 -0.9037
  750MOL0     C98911   1.946   3.312   3.981 -0.4849 -0.8393 -0.4361
  750MOL0    Cl98912   1.809   3.300   4.098 -0.5670 -0.0835 -0.3243
  750MOL0     C98913   2.862   3.223   4.023  0.4886 -0.0476 -0.6719
  750MOL0     C98914   3.000   3.261   4.017 -0.1367 -0.5133 -0.7344
  750MOL0     O98915   3.277   3.104   4.007 -0.1610 -0.1088 -0.1368
  750MOL0     C98916   3.428   3.306   3.758  0.4258 -0.3035  0.0334
  750MOL0     C98917   3.545   3.340   3.691 -0.3324 -0.0495  0.4313
  750MOL0     N98918   4.114   3.853   3.624 -0.1282 -0.8034  1.6759
  750MOL0     N98919   4.193   3.961   3.621  0.2187  0.2870 -0.8037
  750MOL0     C98920   3.437   4.533   3.075 -0.6295 -0.0630  0.1790
  750MOL0     C98921   3.317   4.601   3.120 -0.3701  0.0557  0.3053
  750MOL0     C98922   2.993   4.727   3.433  0.2600  0.1568 -1.4256
  750MOL0     C98923   2.885   4.697   3.348  0.4797 -0.6484 -0.0688
  750MOL0     C98924   2.748   4.708   3.389 -0.6818 -0.1448  0.0739
  750MOL0     C98925   2.722   4.740   3.522  0.1152  1.3439 -0.3021
  750MOL0     O98926   2.588   4.736   3.549 -0.1066  0.0292 -0.0870
  750MOL0     C98927   2.539   4.703   3.679  0.4395 -0.2158  0.0528
  750MOL0     C98928   2.507   4.820   3.781 -0.1147  0.0052  0.0801
  750MOL0     C98929   2.485   4.774   3.921 -0.1169 -0.3810  0.2233
  750MOL0     C98930   2.429   4.878   4.015  0.0983 -0.0314 -0.4977
  750MOL0     C98931   2.300   4.933   3.967 -0.3180  0.1774 -0.5422
  750MOL0     C98932   2.187   4.968   3.931 -0.9436 -0.4506  0.4484
  750MOL0     C98933   2.829   4.746   3.608 -0.2513 -1.3663 -0.3549
  750MOL0     C98934   2.964   4.764   3.563  0.5612  0.4379  0.1341
  750MOL0     H98935   3.310   4.475   3.438 -2.5941 -1.1028 -0.9954
  750MOL0     H98936   3.517   4.376   3.350 -2.2829  0.2036  1.3267
  750MOL0     H98937   3.724   4.592   3.076  1.5198 -1.1218  4.0250
  750MOL0     H98938   3.668   4.487   2.946  0.7213  2.2722 -0.0724
  750MOL0     H98939   3.917   4.459   2.964 -0.0158  1.7038  0.2505
  750MOL0     H98940   3.848   4.323   3.052 -0.7740 -0.1502 -0.8436
  750MOL0     H98941   3.862   4.461   3.261 -0.7427 -1.5856 -0.7317
  750MOL0     H98942   3.981   4.569   3.184 -2.1100  0.6539  0.2368
  750MOL0     H98943   3.999   4.263   3.222 -0.4850 -0.7932  2.2773
  750MOL0     H98944   4.126   4.383   3.163 -0.2412  0.1661  0.1732
  750MOL0     H98945   4.128   4.496   3.387 -2.4971  0.0351  1.9195
  750MOL0     H98946   4.191   4.345   3.348  0.8466  1.7034 -0.5248
  750MOL0     H98947   3.987   4.228   3.452 -1.5239 -1.1642  3.3683
  750MOL0     H98948   3.926   4.389   3.496  0.2627  0.1046  1.0458
  750MOL0     H98949   4.154   4.407   3.623  0.9882 -1.0664  0.8320
  750MOL0     H98950   4.011   4.313   3.692 -0.9998 -0.9797 -1.8491
  750MOL0     H98951   4.238   4.210   3.732  2.0732  4.1262 -1.5154
  750MOL0     H98952   4.259   4.197   3.564 -2.7615 -1.0734 -2.8194
  750MOL0     H98953   3.883   4.072   3.662  2.0566  3.5915  1.8349
  750MOL0     H98954   3.807   3.854   3.549  2.3477  0.7257 -1.0786
  750MOL0     H98955   3.813   3.828   3.729 -2.3897 -0.3807 -0.6436
  750MOL0     H98956   3.953   3.606   3.662  0.6125 -2.0387 -2.2812
  750MOL0     H98957   3.928   3.645   3.496 -0.0423 -1.1038 -0.0345
  750MOL0     H98958   3.713   3.590   3.706 -0.3113 -0.8875 -0.1070
  750MOL0     H98959   3.697   3.628   3.526  1.1163  0.0130 -0.4778
  750MOL0     H98960   3.888   3.430   3.530 -1.0051  0.8128 -1.3292
  750MOL0     H98961   3.724   3.390   3.493 -1.2305  0.7904  0.7774
  750MOL0     H98962   3.764   3.210   3.909 -1.3105 -1.9884  0.2711
  750MOL0     H98963   3.553   3.127   4.005  0.6018 -0.5285 -0.2707
  750MOL0     H98964   3.053   3.139   3.702 -0.5955 -0.8030 -0.1743
  750MOL0     H98965   2.813   3.065   3.735  0.9311  2.1903 -2.4971
  750MOL0     H98966   2.586   2.992   3.776 -0.7050 -0.0129  0.8614
  750MOL0     H98967   2.611   3.161   3.762 -0.7004  0.1541 -0.4130
  750MOL0     H98968   2.432   3.150   3.982  0.8873  0.5773 -0.3991
  750MOL0     H98969   2.372   3.026   3.885 -1.1076  0.4105 -1.8637
  750MOL0     H98970   2.403   3.186   3.689  4.3251  2.7767  0.0594
  750MOL0     H98971   2.399   3.321   3.791 -2.4072  0.6348 -1.5442
  750MOL0     H98972   2.184   3.134   3.743  1.0180 -1.2274  1.0454
  750MOL0     H98973   2.189   3.196   3.910 -0.6873 -1.8027 -0.6090
  750MOL0     H98974   2.057   3.333   3.716 -0.4878  0.5702  0.9074
  750MOL0     H98975   2.219   3.392   3.681 -1.3678  2.0656  0.2054
  750MOL0     H98976   2.145   3.556   3.838 -0.3958 -0.6098 -0.8507
  750MOL0     H98977   2.220   3.434   3.948  1.1219  1.3601 -1.5750
  750MOL0     H98978   1.985   3.514   4.008  1.2087 -0.7089  0.0647
  750MOL0     H98979   1.924   3.479   3.854  1.1968  1.8188 -1.5492
  750MOL0     H98980   2.032   3.267   4.031  0.9488 -0.1503 -2.1774
  750MOL0     H98981   1.924   3.251   3.892 -0.6843 -0.0007 -0.9668
  750MOL0     H98982   2.811   3.247   4.115 -3.0512 -1.5068 -2.0840
  750MOL0     H98983   3.042   3.316   4.101 -3.7807  0.3936  0.6929
  750MOL0     H98984   3.338   3.347   3.713  0.2185 -0.0553  0.6613
  750MOL0     H98985   3.535   3.407   3.605 -2.3968 -2.7794 -1.6400
  750MOL0     H98986   3.464   4.567   2.975  4.3022  0.7879  1.5212
  750MOL0     H98987   3.270   4.664   3.046  2.9048  0.6146 -1.4837
  750MOL0     H98988   2.900   4.671   3.243  0.0849 -1.3985  0.0564
  750MOL0     H98989   2.667   4.671   3.326 -0.8130 -3.0747  1.8208
  750MOL0     H98990   2.605   4.631   3.727 -2.3233 -1.8791  1.6734
  750MOL0     H98991   2.455   4.635   3.661  1.2494 -1.8466  2.0746
  750MOL0     H98992   2.593   4.888   3.782  1.5007 -1.9445  1.4344
  750MOL0     H98993   2.425   4.871   3.729 -1.2928 -2.9306 -1.1625
  750MOL0     H98994   2.578   4.740   3.967  0.1394  0.2905  0.2063
  750MOL0     H98995   2.411   4.694   3.918  0.5563 -1.0048 -2.7743
  750MOL0     H98996   2.419   4.825   4.110  1.2999 -0.3043 -0.5047
  750MOL0     H98997   2.499   4.958   4.039  1.3791 -0.8419 -1.3658
  750MOL0     H98998   2.100   5.019   3.898  0.9584  4.2404  1.8768
  750MOL0     H98999   2.800   4.758   3.712 -1.4170 -1.1722 -0.6927
  750MOL0     H99000   3.047   4.796   3.625  1.2319  0.8597 -0.9520
  751MOL0     O99001   4.486   1.868   9.191 -0.4247  0.5710  0.0119
  751MOL0     C99002   4.446   1.880   9.310  0.2956 -0.3705 -0.6282
  751MOL0     O99003   4.483   1.988   9.393 -0.7555 -0.5195 -0.2362
  751MOL0     C99004   4.551   2.088   9.341  0.1651  0.3138 -0.7223
  751MOL0     C99005   4.679   2.082   9.301  0.1765 -0.7422 -0.6196
  751MOL0     C99006   4.735   2.202   9.243 -0.8296  0.2589 -0.7164
  751MOL0     C99007   4.664   2.320   9.233 -0.4847  0.1585 -0.8764
  751MOL0     O99008   4.732   2.434   9.192 -0.5117 -0.0415  0.1552
  751MOL0     C99009   4.660   2.545   9.140 -0.5437 -0.0660  0.2567
  751MOL0     C99010   4.586   2.511   9.008  0.3328 -0.3497  0.3399
  751MOL0     C99011   4.510   2.627   8.946  0.5068 -0.3563 -0.6751
  751MOL0     C99012   4.428   2.555   8.831 -0.6443 -0.2628 -0.1025
  751MOL0     C99013   4.344   2.631   8.740  0.9634 -1.9132 -0.1240
  751MOL0     C99014   4.230   2.709   8.810  0.6252  0.4839  0.1516
  751MOL0     C99015   4.117   2.755   8.709 -0.3148 -0.5371  0.4417
  751MOL0     C99016   4.000   2.820   8.773 -0.4585  0.1028 -1.3737
  751MOL0     N99017   4.024   2.949   8.841  0.9829  0.1001 -0.3839
  751MOL0     C99018   4.092   2.952   8.965 -0.0702 -0.4846 -0.1024
  751MOL0     C99019   4.114   3.086   8.981 -0.9889  0.0676 -0.2866
  751MOL0     C99020   4.203   3.127   9.100  0.0754 -0.6955 -0.1634
  751MOL0     C99021   4.116   3.135   9.220  0.3474  0.8625 -0.8139
  751MOL0     C99022   4.048   3.273   9.237  0.7624  0.0325 -0.2056
  751MOL0     C99023   3.993   3.290   9.384 -0.6234  0.8234 -0.1784
  751MOL0     O99024   3.899   3.190   9.417 -0.3934 -0.0159  0.2557
  751MOL0     C99025   3.880   3.152   9.547  0.2593 -0.6340 -0.1315
  751MOL0     C99026   3.861   3.015   9.572 -0.7489 -0.4261 -0.0112
  751MOL0     C99027   3.828   2.981   9.706 -0.6254 -0.8050 -0.1856
  751MOL0     C99028   3.819   3.080   9.815 -0.6750 -0.2220  1.0465
  751MOL0     C99029   3.788   3.045   9.947 -0.7979 -0.4614 -0.5303
  751MOL0     O99030   3.760   2.917   9.971  0.4513  0.1348  0.3081
  751MOL0     C99031   3.734   2.870  10.104 -1.0490  0.5087 -0.2756
  751MOL0     C99032   3.670   2.936  10.209  1.0767  0.1912 -1.4783
  751MOL0     C99033   3.644   2.878  10.331  0.5561 -1.0439  0.0193
  751MOL0     C99034   3.688   2.750  10.353  0.4297  0.3844  0.1140
  751MOL0     O99035   3.666   2.714  10.484  0.3540  0.2348  0.7959
  751MOL0     C99036   3.691   2.577  10.530  0.1545  0.0217 -0.3384
  751MOL0     C99037   3.631   2.571  10.676  0.5210 -0.1344 -0.3996
  751MOL0     C99038   3.680   2.685  10.761 -0.3660 -0.2168  0.8111
  751MOL0     C99039   3.602   2.673  10.889 -1.5144  0.8871  0.6234
  751MOL0     C99040   3.646   2.779  10.991  1.8390  0.4272 -0.0601
  751MOL0     C99041   3.534   2.785  11.113 -0.6879 -0.6341  0.0508
  751MOL0     C99042   3.531   2.649  11.200 -0.0191 -0.4934 -0.3430
  751MOL0     C99043   3.400   2.653  11.288  0.1121 -0.1014 -0.0561
  751MOL0    Cl99044   3.235   2.652  11.198  0.2143  0.1914 -0.7534
  751MOL0     C99045   3.739   2.674  10.247  0.9497  0.5508  0.1024
  751MOL0     C99046   3.769   2.734  10.124  0.5628 -1.7985 -0.1044
  751MOL0     O99047   3.793   3.133  10.036 -0.1230  0.9215  0.6181
  751MOL0     C99048   3.855   3.209   9.785 -0.0284  0.2390  0.5377
  751MOL0     C99049   3.875   3.246   9.656 -0.2202  0.1494 -0.3348
  751MOL0     N99050   4.058   3.146   8.875  0.0737 -0.3401 -0.2121
  751MOL0     N99051   3.984   3.073   8.803 -0.6389 -0.1511 -0.1964
  751MOL0     C99052   4.535   2.332   9.286  0.1569  0.0562  0.0974
  751MOL0     C99053   4.485   2.208   9.333  0.4121 -0.1663 -0.2946
  751MOL0     C99054   4.358   1.773   9.366  0.1665 -0.0682  0.8795
  751MOL0     C99055   4.332   1.652   9.297 -0.1104 -0.1986 -0.4151
  751MOL0     C99056   4.265   1.555   9.370 -0.0277  0.7277  1.2864
  751MOL0     C99057   4.214   1.573   9.502 -0.2726 -0.1597 -0.3377
  751MOL0     O99058   4.156   1.460   9.555 -0.1736  0.4782 -0.0896
  751MOL0     C99059   4.252   1.390   9.631 -0.6251  0.7614  0.1741
  751MOL0     C99060   4.193   1.283   9.708 -0.3345 -0.4688  0.3304
  751MOL0     C99061   4.293   1.198   9.799  0.3695 -0.6881  0.3401
  751MOL0     C99062   4.225   1.135   9.919 -0.5496 -0.2172  0.5381
  751MOL0     C99063   4.330   1.057   9.993 -0.0724 -0.8979  0.1633
  751MOL0     C99064   4.401   0.988  10.066 -0.1119 -0.7406 -0.3001
  751MOL0     C99065   4.236   1.698   9.567 -0.2638 -0.0885  0.0753
  751MOL0     C99066   4.313   1.789   9.497 -0.7244  0.2867 -0.3907
  751MOL0     H99067   4.734   1.988   9.302  1.2114 -0.2945 -3.8232
  751MOL0     H99068   4.834   2.209   9.201 -0.8220  1.6059 -0.4990
  751MOL0     H99069   4.727   2.632   9.140 -1.2737  0.5068  0.6261
  751MOL0     H99070   4.594   2.592   9.213 -1.6639 -1.4042  0.1421
  751MOL0     H99071   4.523   2.422   9.021 -1.5601  0.9116  0.2057
  751MOL0     H99072   4.669   2.488   8.941  2.4922 -0.1768  2.8009
  751MOL0     H99073   4.580   2.703   8.911  1.8017  0.0508  2.4829
  751MOL0     H99074   4.437   2.664   9.018 -0.1516  0.9180 -1.9629
  751MOL0     H99075   4.506   2.514   8.767 -1.7754  3.0404 -4.0663
  751MOL0     H99076   4.369   2.471   8.868 -0.0729 -0.7239 -0.2188
  751MOL0     H99077   4.292   2.566   8.668 -1.2662  0.4809 -0.8157
  751MOL0     H99078   4.407   2.699   8.683 -0.1384  0.1228  1.0021
  751MOL0     H99079   4.271   2.796   8.862 -0.2716 -0.3525  2.3892
  751MOL0     H99080   4.187   2.650   8.891 -0.6659  0.3456 -0.6032
  751MOL0     H99081   4.164   2.820   8.635 -2.0876  2.7815  1.9795
  751MOL0     H99082   4.079   2.665   8.660  2.6961 -3.3498  2.8257
  751MOL0     H99083   3.968   2.757   8.857  0.4902  2.3072  0.7724
  751MOL0     H99084   3.918   2.825   8.701 -1.1974 -1.6998 -0.7044
  751MOL0     H99085   4.124   2.869   9.027 -3.5554 -0.7577  1.5925
  751MOL0     H99086   4.250   3.221   9.068 -0.3702  0.5852  2.5691
  751MOL0     H99087   4.288   3.060   9.116 -0.3392 -0.7828  1.9129
  751MOL0     H99088   4.176   3.110   9.308  4.2639 -2.5191 -4.0768
  751MOL0     H99089   4.030   3.067   9.212  0.0592  0.7989  1.8872
  751MOL0     H99090   4.122   3.352   9.218 -1.5176  1.8397 -2.3194
  751MOL0     H99091   3.968   3.275   9.162  2.3355  0.4674 -1.9436
  751MOL0     H99092   3.942   3.386   9.376  0.4519  1.2882 -2.0690
  751MOL0     H99093   4.072   3.286   9.460 -1.9023 -0.7239  1.1570
  751MOL0     H99094   3.849   2.952   9.485 -3.9037 -1.8655  1.2899
  751MOL0     H99095   3.802   2.878   9.727  2.2107 -1.3812  0.9804
  751MOL0     H99096   3.628   3.036  10.209  1.4526  0.3651 -0.1170
  751MOL0     H99097   3.598   2.917  10.421  0.8302 -2.0924  0.6227
  751MOL0     H99098   3.798   2.557  10.526  0.0515 -0.6748  0.1372
  751MOL0     H99099   3.642   2.495  10.476  0.8152  0.3037 -1.4132
  751MOL0     H99100   3.646   2.479  10.732 -1.3303 -0.8979 -1.0996
  751MOL0     H99101   3.522   2.576  10.666  0.6029 -1.7112 -2.7715
  751MOL0     H99102   3.653   2.782  10.718 -2.2658 -1.6206 -1.4069
  751MOL0     H99103   3.788   2.668  10.770 -0.4434 -1.7269 -0.6215
  751MOL0     H99104   3.494   2.687  10.876 -1.7934 -1.3793 -0.0428
  751MOL0     H99105   3.622   2.575  10.934 -0.3987  0.7315 -0.1666
  751MOL0     H99106   3.637   2.873  10.935  0.0931  0.3031 -0.0408
  751MOL0     H99107   3.744   2.746  11.026  0.1598 -3.1319  1.7493
  751MOL0     H99108   3.432   2.807  11.080  0.0327  2.0579 -0.6546
  751MOL0     H99109   3.565   2.870  11.175 -2.3933 -0.3260  0.5264
  751MOL0     H99110   3.534   2.562  11.134  2.1274 -1.8442  1.3886
  751MOL0     H99111   3.610   2.644  11.276 -2.4744 -0.1264  2.4157
  751MOL0     H99112   3.409   2.734  11.362 -0.4691  1.4754 -1.6411
  751MOL0     H99113   3.413   2.558  11.340  2.3746  0.3251  0.2547
  751MOL0     H99114   3.755   2.567  10.255 -3.7977 -0.3574  0.0027
  751MOL0     H99115   3.808   2.672  10.044  3.1219 -1.6828  0.9707
  751MOL0     H99116   3.854   3.289   9.858  0.0203  2.0561 -1.3640
  751MOL0     H99117   3.868   3.350   9.627 -1.6917 -0.0913 -0.9341
  751MOL0     H99118   4.481   2.425   9.298 -0.1855 -0.2892  1.4410
  751MOL0     H99119   4.384   2.217   9.372 -1.0432 -2.1108 -3.2164
  751MOL0     H99120   4.364   1.634   9.195  0.0851  2.7508 -0.9746
  751MOL0     H99121   4.223   1.476   9.309  2.4255 -0.2497  0.7919
  751MOL0     H99122   4.316   1.452   9.694  1.8535 -0.9406 -0.5408
  751MOL0     H99123   4.315   1.334   9.562 -0.5630  0.3193  0.5877
  751MOL0     H99124   4.129   1.329   9.784 -0.4147 -2.1140  1.3182
  751MOL0     H99125   4.136   1.208   9.652  0.0589 -0.4224 -0.1337
  751MOL0     H99126   4.368   1.265   9.840 -0.2355 -1.7347  3.3830
  751MOL0     H99127   4.334   1.114   9.741  0.0536 -0.5704 -0.0671
  751MOL0     H99128   4.180   1.204   9.991 -0.9867 -0.3017  0.3497
  751MOL0     H99129   4.145   1.066   9.891 -0.4311 -1.1319  2.2913
  751MOL0     H99130   4.459   0.923  10.127 -0.0300 -0.7848 -0.4242
  751MOL0     H99131   4.211   1.711   9.672  1.7264  1.5279  0.4175
  751MOL0     H99132   4.324   1.888   9.539 -0.5633  0.2869 -0.4346
  752MOL0     O99133   2.870   9.996   2.426 -0.2917  0.2683 -0.4653
  752MOL0     C99134   2.835  10.016   2.308 -0.9148 -0.7407 -1.3690
  752MOL0     O99135   2.801  10.142   2.253  0.1188 -0.0055  0.4363
  752MOL0     C99136   2.777  10.259   2.331  0.3165  0.1580  0.9839
  752MOL0     C99137   2.765  10.384   2.262  0.2975  0.1415  0.2570
  752MOL0     C99138   2.754  10.503   2.320 -0.7946 -1.0083 -0.5182
  752MOL0     C99139   2.766  10.511   2.467  0.5395  1.0371 -0.0806
  752MOL0     O99140   2.768  10.629   2.531 -0.6871  0.4564  0.0879
  752MOL0     C99141   2.785  10.749   2.456  1.9239  0.8273  0.2338
  752MOL0     C99142   2.773  10.877   2.533 -0.2706 -0.4663 -0.0368
  752MOL0     C99143   2.891  10.923   2.614 -1.0706  0.3643 -0.2010
  752MOL0     C99144   2.860  11.065   2.643  0.1258 -0.6001 -2.1622
  752MOL0     C99145   2.924  11.109   2.776  0.5204 -0.9181  0.9636
  752MOL0     C99146   2.894  11.254   2.800 -0.4243  0.4959  0.0683
  752MOL0     C99147   3.008  11.360   2.758  0.4342 -0.6452 -0.0685
  752MOL0     C99148   3.107  11.416   2.858 -0.3240  0.1368 -0.1137
  752MOL0     N99149   3.171  11.539   2.804  0.0408 -0.6342 -0.6641
  752MOL0     C99150   3.290  11.552   2.738  1.0612  0.0674  0.2981
  752MOL0     C99151   3.292  11.684   2.701  0.1568 -0.1785  0.0730
  752MOL0     C99152   3.391  11.772   2.634  0.0542 -0.6364 -0.4236
  752MOL0     C99153   3.392  11.759   2.488 -0.9610  0.7237 -0.7574
  752MOL0     C99154   3.274  11.830   2.412 -0.0037  1.3132  0.6772
  752MOL0     C99155   3.284  11.798   2.262  0.4431  0.7053  0.3808
  752MOL0     O99156   3.162  11.791   2.200 -0.5177  0.1635 -0.5309
  752MOL0     C99157   3.092  11.676   2.184  0.2436  0.1722 -0.4043
  752MOL0     C99158   2.975  11.674   2.108 -0.0985 -0.0593  0.4542
  752MOL0     C99159   2.908  11.554   2.071  0.1112  0.0403  0.3513
  752MOL0     C99160   2.953  11.428   2.117 -0.1148 -0.3314  0.4439
  752MOL0     C99161   2.892  11.307   2.058  0.3411 -0.1302 -0.0750
  752MOL0     O99162   2.777  11.326   1.990  0.2094  0.2316  0.3285
  752MOL0     C99163   2.749  11.230   1.895  0.4126 -1.3166  0.2773
  752MOL0     C99164   2.845  11.225   1.787  0.3108 -0.0981 -0.5580
  752MOL0     C99165   2.825  11.126   1.691  0.0156 -0.6417 -0.1554
  752MOL0     C99166   2.711  11.043   1.694 -0.1213  0.3051 -0.1249
  752MOL0     O99167   2.696  10.951   1.593  0.0224 -0.0275 -0.9290
  752MOL0     C99168   2.615  10.837   1.631 -0.0754  0.4005 -0.5794
  752MOL0     C99169   2.661  10.711   1.556  0.6593 -0.5974  0.7890
  752MOL0     C99170   2.809  10.681   1.557 -0.1355  0.2925 -1.0459
  752MOL0     C99171   2.853  10.532   1.530 -0.6511  0.7252 -0.4093
  752MOL0     C99172   3.005  10.496   1.569  0.2733 -0.8889 -0.2100
  752MOL0     C99173   3.027  10.497   1.721 -0.4916  0.3905  0.5081
  752MOL0     C99174   3.150  10.414   1.759  0.6691 -0.1106 -0.2468
  752MOL0     C99175   3.130  10.264   1.740 -0.3641  0.7513  0.0713
  752MOL0    Cl99176   2.993  10.187   1.835  0.3609 -0.0029 -0.2511
  752MOL0     C99177   2.615  11.058   1.796 -0.0528 -1.5869 -1.0789
  752MOL0     C99178   2.635  11.147   1.905 -0.2931  0.2448  1.3500
  752MOL0     O99179   2.957  11.198   2.067  0.1745  0.1163 -0.3348
  752MOL0     C99180   3.057  11.440   2.209  0.0053  1.3616 -0.1723
  752MOL0     C99181   3.126  11.557   2.246 -0.0743 -0.6864  0.3178
  752MOL0     N99182   3.173  11.742   2.749  0.0668  0.4552  1.0153
  752MOL0     N99183   3.115  11.658   2.815 -0.0325  0.6117  0.3621
  752MOL0     C99184   2.771  10.392   2.531  1.1135  0.7899  0.0026
  752MOL0     C99185   2.773  10.270   2.468 -0.0710  0.0534  0.0380
  752MOL0     C99186   2.809   9.896   2.228 -0.6352 -0.5524  0.1829
  752MOL0     C99187   2.757   9.905   2.093  0.2555  0.6926  0.3773
  752MOL0     C99188   2.729   9.784   2.016  0.8633 -0.5193 -1.1729
  752MOL0     C99189   2.756   9.662   2.064 -0.3270  0.0746 -1.5206
  752MOL0     O99190   2.735   9.549   2.001 -0.6749  0.5469  1.0909
  752MOL0     C99191   2.696   9.546   1.857  0.5498  0.8331  1.1673
  752MOL0     C99192   2.659   9.410   1.795  0.0518 -0.0149 -0.0518
  752MOL0     C99193   2.573   9.317   1.880 -1.2600 -0.4991 -0.6053
  752MOL0     C99194   2.565   9.186   1.807  0.5205  0.3969 -0.3075
  752MOL0     C99195   2.468   9.107   1.896 -0.6704 -1.0025  0.2537
  752MOL0     C99196   2.384   9.049   1.958 -0.0484 -1.0442  0.1996
  752MOL0     C99197   2.823   9.650   2.193  0.5411  0.1530 -0.2351
  752MOL0     C99198   2.836   9.763   2.274  0.4036 -0.4004  0.0387
  752MOL0     H99199   2.781  10.394   2.155  0.3805  1.6382  0.3789
  752MOL0     H99200   2.750  10.592   2.258 -0.1267 -0.8563 -0.3421
  752MOL0     H99201   2.703  10.749   2.384 -1.6766 -3.9042  3.7548
  752MOL0     H99202   2.882  10.744   2.405  1.2078  1.6859 -1.2878
  752MOL0     H99203   2.688  10.871   2.602  0.8317  1.2277  1.5814
  752MOL0     H99204   2.754  10.948   2.452  0.5524  1.5390  1.4312
  752MOL0     H99205   2.989  10.909   2.567 -0.8120 -1.3944  0.7925
  752MOL0     H99206   2.900  10.870   2.709  0.2520 -2.9374 -2.0111
  752MOL0     H99207   2.890  11.117   2.552 -0.1994  1.8760 -0.9465
  752MOL0     H99208   2.752  11.078   2.645 -0.1989 -2.3638  1.7012
  752MOL0     H99209   3.031  11.089   2.782  0.6849  0.0484  1.5473
  752MOL0     H99210   2.875  11.053   2.857  2.4309  0.2354  3.0484
  752MOL0     H99211   2.882  11.256   2.909  0.2978 -3.4927  0.3873
  752MOL0     H99212   2.792  11.267   2.762 -0.9497 -1.3620  0.7096
  752MOL0     H99213   3.068  11.325   2.673 -0.9332 -1.4371 -0.7331
  752MOL0     H99214   2.944  11.441   2.720 -1.1438 -1.5328  0.6063
  752MOL0     H99215   3.178  11.334   2.874  1.1219  1.5937  1.3200
  752MOL0     H99216   3.056  11.439   2.952 -1.8597 -3.5617  0.1497
  752MOL0     H99217   3.359  11.474   2.710  0.5119 -0.1186 -0.5713
  752MOL0     H99218   3.487  11.728   2.661 -0.6225 -3.4725 -2.1713
  752MOL0     H99219   3.384  11.877   2.661  0.4229 -1.2802  2.4697
  752MOL0     H99220   3.398  11.651   2.471  0.6698  0.6061  0.2772
  752MOL0     H99221   3.483  11.814   2.461  1.0083 -2.0449 -0.2558
  752MOL0     H99222   3.180  11.787   2.447  1.5210 -1.7236  1.4052
  752MOL0     H99223   3.283  11.935   2.440  3.7420  0.4360  3.5515
  752MOL0     H99224   3.338  11.706   2.236 -2.0593 -1.0128  0.8719
  752MOL0     H99225   3.349  11.869   2.210  1.9106 -2.9613 -3.4036
  752MOL0     H99226   2.950  11.772   2.068 -1.1346 -0.9132 -1.0901
  752MOL0     H99227   2.823  11.557   2.003  1.1547  1.3210 -0.9614
  752MOL0     H99228   2.927  11.296   1.777 -1.5118  1.7643 -4.3536
  752MOL0     H99229   2.901  11.115   1.614  1.5583  2.8201  0.6666
  752MOL0     H99230   2.508  10.856   1.637  0.0621  0.7787  3.0303
  752MOL0     H99231   2.638  10.809   1.734 -0.2662 -1.0854 -0.9123
  752MOL0     H99232   2.635  10.729   1.452 -1.0234  1.4733  1.4893
  752MOL0     H99233   2.603  10.626   1.595 -0.1486 -0.1190  0.6570
  752MOL0     H99234   2.865  10.714   1.645  0.5557 -2.0241 -0.5550
  752MOL0     H99235   2.860  10.732   1.475  0.6668 -1.4245 -1.6527
  752MOL0     H99236   2.778  10.458   1.558 -1.4074  0.9282 -1.8055
  752MOL0     H99237   2.851  10.520   1.421 -1.7263 -1.0528 -0.2207
  752MOL0     H99238   3.069  10.570   1.520 -0.2831 -0.1506  0.1407
  752MOL0     H99239   3.037  10.401   1.526  4.6238  0.7962 -1.2799
  752MOL0     H99240   2.938  10.452   1.765 -1.0173  1.3497  0.4268
  752MOL0     H99241   3.033  10.596   1.766  0.7651 -1.0628  3.9078
  752MOL0     H99242   3.236  10.452   1.703  1.8558  1.1243  2.2093
  752MOL0     H99243   3.167  10.430   1.866  1.5377  0.8169 -0.5115
  752MOL0     H99244   3.219  10.210   1.775  0.4434  1.9115 -0.1432
  752MOL0     H99245   3.114  10.237   1.635  2.3015 -0.8665 -0.0128
  752MOL0     H99246   2.532  10.988   1.798 -0.2968 -1.2862  0.4659
  752MOL0     H99247   2.562  11.155   1.985 -1.3171  2.4371  0.2722
  752MOL0     H99248   3.099  11.347   2.247 -0.3223  1.4327  0.3636
  752MOL0     H99249   3.213  11.544   2.309  0.4182 -0.1131 -0.2353
  752MOL0     H99250   2.742  10.398   2.635  2.5770  1.6770  0.3729
  752MOL0     H99251   2.761  10.183   2.531 -0.4077  1.5548  2.1387
  752MOL0     H99252   2.744  10.003   2.047 -3.4955  0.8868  1.4877
  752MOL0     H99253   2.696   9.798   1.914 -0.0975  1.3326 -0.6572
  752MOL0     H99254   2.762   9.590   1.782 -2.7550 -0.2061 -2.6924
  752MOL0     H99255   2.606   9.608   1.853 -0.4857 -0.5438  2.3350
  752MOL0     H99256   2.603   9.432   1.703 -1.3417 -0.2052  0.7260
  752MOL0     H99257   2.755   9.359   1.778 -0.4227 -1.7513  2.0308
  752MOL0     H99258   2.482   9.373   1.903  0.1352  0.5073  3.2441
  752MOL0     H99259   2.619   9.285   1.974 -3.0208 -0.7641  0.1966
  752MOL0     H99260   2.509   9.193   1.713  2.0131  1.0716 -1.1901
  752MOL0     H99261   2.667   9.149   1.796  1.1999  1.9390  0.5043
  752MOL0     H99262   2.300   9.005   2.006 -0.3885 -0.5002  0.1118
  752MOL0     H99263   2.850   9.555   2.237  0.2905  0.3792  0.4349
  752MOL0     H99264   2.875   9.743   2.373  0.0001 -0.0745  0.2651
  753MOL0     O99265   8.997  11.287   3.583 -0.3035 -0.2057 -0.4498
  753MOL0     C99266   9.012  11.255   3.463  0.3662  0.1410 -0.5236
  753MOL0     O99267   8.997  11.339   3.356 -0.7027  0.2850  0.3827
  753MOL0     C99268   8.953  11.473   3.353 -0.9691  1.1112  0.2987
  753MOL0     C99269   8.883  11.538   3.454 -0.7241  0.5959  0.3500
  753MOL0     C99270   8.836  11.663   3.425 -0.4790 -0.1795 -0.4756
  753MOL0     C99271   8.862  11.728   3.308 -0.2413  0.6055  0.2084
  753MOL0     O99272   8.801  11.847   3.289  0.0511 -0.1027  0.5363
  753MOL0     C99273   8.759  11.891   3.164 -0.9081 -0.4090 -1.0982
  753MOL0     C99274   8.634  11.972   3.182 -0.1720 -0.6748  0.1205
  753MOL0     C99275   8.598  12.078   3.071 -0.4824 -0.2324  0.2128
  753MOL0     C99276   8.590  12.023   2.927 -0.4561  0.8210 -0.1685
  753MOL0     C99277   8.463  11.938   2.922  0.2968 -0.1025  0.1738
  753MOL0     C99278   8.490  11.820   2.827  0.5294  0.7407 -1.1752
  753MOL0     C99279   8.375  11.713   2.794 -0.0782  0.0473  1.0775
  753MOL0     C99280   8.306  11.635   2.911  0.1297  1.0425  0.6428
  753MOL0     N99281   8.251  11.509   2.845 -0.1684 -0.3396  0.3598
  753MOL0     C99282   8.132  11.499   2.785  0.0184  0.5266  0.1711
  753MOL0     C99283   8.121  11.369   2.753  0.4765  0.7187  0.2332
  753MOL0     C99284   7.995  11.297   2.701 -0.2582 -0.1053  0.1857
  753MOL0     C99285   7.928  11.235   2.822 -0.4960  0.1988  0.2350
  753MOL0     C99286   7.968  11.085   2.844  0.3804  1.2315 -0.3079
  753MOL0     C99287   7.858  11.001   2.903  0.0402  1.0647 -0.5598
  753MOL0     O99288   7.806  11.054   3.026 -1.0147  0.5535  0.0153
  753MOL0     C99289   7.668  11.080   3.030 -0.1450 -1.0625  0.3029
  753MOL0     C99290   7.577  10.978   3.005 -0.8410 -0.3857 -0.4300
  753MOL0     C99291   7.437  10.979   3.019  0.3977  0.1161 -0.1624
  753MOL0     C99292   7.377  11.109   3.033  0.8116 -0.2126 -0.9872
  753MOL0     C99293   7.229  11.122   3.055  0.4597 -0.8442 -0.9125
  753MOL0     O99294   7.162  11.246   3.087 -0.2575  0.0823 -0.3524
  753MOL0     C99295   7.036  11.224   3.134 -0.3696  0.7628 -0.3114
  753MOL0     C99296   7.006  11.206   3.264 -0.3140 -0.6813 -0.4350
  753MOL0     C99297   6.878  11.194   3.301  0.1524 -0.6000  0.0300
  753MOL0     C99298   6.772  11.188   3.214  0.6136  0.2028 -0.4117
  753MOL0     O99299   6.638  11.164   3.261  0.0829  0.0926 -0.1836
  753MOL0     C99300   6.561  11.056   3.190 -0.4927 -0.7136 -0.6567
  753MOL0     C99301   6.425  11.059   3.232  0.0258  0.5724  0.2599
  753MOL0     C99302   6.329  10.964   3.156 -0.1339 -0.5076  0.3458
  753MOL0     C99303   6.193  10.996   3.209 -0.7394 -0.2078 -0.2409
  753MOL0     C99304   6.178  10.970   3.368  0.4356 -0.7097 -0.6531
  753MOL0     C99305   6.039  11.004   3.422 -0.3045  1.1034  0.1995
  753MOL0     C99306   6.012  11.157   3.422  0.8465  0.7219 -0.0527
  753MOL0     C99307   5.957  11.196   3.561  0.1288 -0.1919 -0.3575
  753MOL0    Cl99308   6.095  11.231   3.664  0.2660 -0.0586 -0.2131
  753MOL0     C99309   6.800  11.202   3.076  0.2449  0.4190 -0.7649
  753MOL0     C99310   6.929  11.229   3.045  0.1121  0.8336  0.6952
  753MOL0     O99311   7.168  11.018   3.026  0.1669 -0.4336 -0.2588
  753MOL0     C99312   7.468  11.219   3.061 -0.1816 -0.2483  0.7352
  753MOL0     C99313   7.614  11.208   3.056 -0.2999  0.2833 -0.9043
  753MOL0     N99314   8.240  11.302   2.791  1.2860  0.0205  0.1113
  753MOL0     N99315   8.313  11.393   2.843  0.6422  0.3618 -0.0218
  753MOL0     C99316   8.941  11.667   3.207 -0.1811 -0.6207  0.1072
  753MOL0     C99317   8.976  11.535   3.229 -0.8165  1.0216  0.2460
  753MOL0     C99318   9.039  11.110   3.435  0.0851  0.7611  0.6549
  753MOL0     C99319   9.079  11.023   3.531  0.0802  0.7080 -0.9815
  753MOL0     C99320   9.092  10.888   3.504 -0.1691  0.2296 -0.5159
  753MOL0     C99321   9.056  10.835   3.381 -0.6333  0.3665 -0.1949
  753MOL0     O99322   9.080  10.701   3.360 -0.9077 -0.8813  0.0765
  753MOL0     C99323   8.991  10.628   3.270 -0.7268  0.0047  0.3118
  753MOL0     C99324   9.033  10.477   3.279  0.8867 -0.4899  0.2720
  753MOL0     C99325   9.136  10.426   3.177  0.2645 -0.3114  1.1170
  753MOL0     C99326   9.084  10.366   3.044 -0.1865  0.2517  0.7098
  753MOL0     C99327   9.041  10.232   3.058 -0.4186 -0.0480 -0.4883
  753MOL0     C99328   9.017  10.120   3.094  0.4401 -0.4872 -0.1686
  753MOL0     C99329   9.027  10.919   3.285  1.0468  0.0352  0.3746
  753MOL0     C99330   9.016  11.057   3.303  0.0770 -1.3339 -0.3819
  753MOL0     H99331   8.864  11.495   3.552 -2.1888 -0.4169 -0.3436
  753MOL0     H99332   8.775  11.716   3.497 -0.9497  0.3400 -1.2390
  753MOL0     H99333   8.740  11.810   3.092 -1.9360  1.7517 -3.4065
  753MOL0     H99334   8.843  11.953   3.133 -0.7871  0.2641  0.4756
  753MOL0     H99335   8.658  12.029   3.273  1.8916 -0.2648 -0.6159
  753MOL0     H99336   8.546  11.915   3.214 -1.4445 -0.0835 -2.1551
  753MOL0     H99337   8.673  12.157   3.074 -0.8338  0.3271 -2.9186
  753MOL0     H99338   8.509  12.132   3.104  0.8874  2.1697  0.1845
  753MOL0     H99339   8.581  12.103   2.853  0.0706 -1.0727 -2.3909
  753MOL0     H99340   8.673  11.964   2.887 -1.6489 -1.5707  0.6765
  753MOL0     H99341   8.372  11.992   2.895  1.9677  1.2298 -3.4875
  753MOL0     H99342   8.438  11.902   3.022 -1.7030  0.6584 -0.0083
  753MOL0     H99343   8.576  11.762   2.861  2.0103  2.3586 -2.0112
  753MOL0     H99344   8.520  11.866   2.732  1.2476  0.1374 -1.2506
  753MOL0     H99345   8.296  11.767   2.741 -0.1208  1.4826  2.5257
  753MOL0     H99346   8.424  11.641   2.727 -0.5197 -0.2535  1.0783
  753MOL0     H99347   8.219  11.687   2.951 -1.2030  0.5449 -1.4774
  753MOL0     H99348   8.386  11.620   2.985  1.5458  0.4093 -0.9392
  753MOL0     H99349   8.063  11.570   2.740  2.5677  2.6401 -0.6554
  753MOL0     H99350   8.014  11.213   2.633 -1.0412  1.6924 -2.3972
  753MOL0     H99351   7.930  11.368   2.649 -0.1478  0.7020  1.1319
  753MOL0     H99352   7.822  11.228   2.797 -0.5471  1.2570  0.1264
  753MOL0     H99353   7.942  11.298   2.911 -0.2950  0.0203  0.3303
  753MOL0     H99354   7.993  11.043   2.746 -1.4539  1.5136 -0.9352
  753MOL0     H99355   8.054  11.075   2.910  0.6117  0.4004 -0.7145
  753MOL0     H99356   7.896  10.899   2.914 -3.0093 -0.2338 -0.8862
  753MOL0     H99357   7.778  10.976   2.832  0.0324 -4.9410  0.9921
  753MOL0     H99358   7.624  10.883   2.983  1.4011  0.7637 -0.8911
  753MOL0     H99359   7.382  10.886   3.017  0.2160  0.2310 -1.2227
  753MOL0     H99360   7.078  11.219   3.344 -0.0691 -0.4550 -0.6946
  753MOL0     H99361   6.869  11.182   3.408  1.9179  0.4256  0.3332
  753MOL0     H99362   6.617  10.970   3.227  1.8457  0.4618 -1.2784
  753MOL0     H99363   6.572  11.053   3.082  3.2655  2.3303 -0.5648
  753MOL0     H99364   6.388  11.162   3.226 -2.4501 -0.2927 -0.4847
  753MOL0     H99365   6.433  11.028   3.337  5.9947  0.3464  0.0731
  753MOL0     H99366   6.363  10.864   3.184 -1.4536 -0.7333  1.1967
  753MOL0     H99367   6.325  10.969   3.047 -0.7735 -2.0660  0.2794
  753MOL0     H99368   6.185  11.102   3.182 -3.7397 -1.1388 -3.8962
  753MOL0     H99369   6.118  10.950   3.144  0.5584  2.2020 -3.8321
  753MOL0     H99370   6.244  11.037   3.424 -0.6127  0.4602 -0.7926
  753MOL0     H99371   6.220  10.872   3.393  0.6262 -0.6097 -0.5801
  753MOL0     H99372   6.037  10.950   3.517  3.0574  1.3019  0.5058
  753MOL0     H99373   5.970  10.957   3.351 -0.2242  0.9609  0.2144
  753MOL0     H99374   6.093  11.220   3.384 -0.4012  0.6791 -3.0241
  753MOL0     H99375   5.940  11.173   3.342 -1.9082 -2.1129  1.5948
  753MOL0     H99376   5.899  11.116   3.609  1.9055 -2.5685 -1.9109
  753MOL0     H99377   5.895  11.286   3.559  0.3948  0.0997  1.8723
  753MOL0     H99378   6.717  11.202   3.007 -0.3826  0.4952 -0.0229
  753MOL0     H99379   6.948  11.251   2.940  2.1456 -0.7460  0.6785
  753MOL0     H99380   7.414  11.310   3.088 -0.9210  0.1668 -1.8696
  753MOL0     H99381   7.685  11.287   3.081  2.1216 -2.0980  0.3193
  753MOL0     H99382   8.978  11.711   3.115 -3.5069  2.5624  0.0627
  753MOL0     H99383   9.022  11.475   3.150  2.5395  3.3882  0.1914
  753MOL0     H99384   9.102  11.061   3.630 -2.0708 -2.4003  0.8932
  753MOL0     H99385   9.131  10.823   3.582 -2.4582 -0.7223 -0.0756
  753MOL0     H99386   9.001  10.642   3.162  3.4569  0.4953  0.6038
  753MOL0     H99387   8.888  10.647   3.302 -0.2760  1.5387  0.9555
  753MOL0     H99388   9.083  10.455   3.374  0.7907  0.1666  0.4817
  753MOL0     H99389   8.938  10.427   3.259 -0.0496  1.7173 -1.1850
  753MOL0     H99390   9.204  10.355   3.226  1.5445 -0.7758 -1.1934
  753MOL0     H99391   9.203  10.503   3.138 -0.2172 -0.7420 -0.6607
  753MOL0     H99392   9.009  10.434   3.002  0.5281  0.4430 -0.2822
  753MOL0     H99393   9.163  10.356   2.969 -0.6403  0.4487  0.1969
  753MOL0     H99394   9.005  10.019   3.126  2.0267 -0.6912 -0.1211
  753MOL0     H99395   9.019  10.882   3.183 -2.9783  2.6123 -0.4569
  753MOL0     H99396   8.993  11.120   3.217  0.1450 -0.5487  0.1658
  754MOL0     O99397   8.573   1.142   0.197  0.2026 -0.3997  0.1915
  754MOL0     C99398   8.682   1.168   0.244 -0.5771 -0.6476 -0.4312
  754MOL0     O99399   8.789   1.085   0.238 -0.2918  0.6155 -1.0307
  754MOL0     C99400   8.796   0.978   0.149  0.3413 -0.0436  0.8355
  754MOL0     C99401   8.865   0.866   0.198 -0.0279 -0.3689 -0.8986
  754MOL0     C99402   8.855   0.751   0.135  0.3649  0.1314 -0.4701
  754MOL0     C99403   8.797   0.742   0.005 -0.3052  0.2119  1.1002
  754MOL0     O99404   8.807   0.614  -0.057 -0.0481 -0.8406  0.3668
  754MOL0     C99405   8.832   0.624  -0.200  0.0517 -0.5866  0.3583
  754MOL0     C99406   8.818   0.487  -0.253  0.1312 -0.6477 -0.4826
  754MOL0     C99407   8.953   0.412  -0.225  0.3703 -0.5626  0.7931
  754MOL0     C99408   8.969   0.282  -0.305  0.7396  0.0140 -0.0221
  754MOL0     C99409   9.082   0.195  -0.255  0.9757 -0.4447  0.3716
  754MOL0     C99410   9.081   0.075  -0.353  0.6729  0.6044  0.6657
  754MOL0     C99411   9.164  -0.044  -0.306 -0.2372 -0.1332 -0.1401
  754MOL0     C99412   9.323  -0.035  -0.293  0.7324 -1.1840 -0.6084
  754MOL0     N99413   9.380  -0.162  -0.250  0.2834  0.6691  0.1232
  754MOL0     C99414   9.349  -0.287  -0.285  0.3102  0.4752 -0.5339
  754MOL0     C99415   9.458  -0.375  -0.271  0.7057 -0.6188 -0.5181
  754MOL0     C99416   9.461  -0.521  -0.302 -0.7780 -0.1848 -0.1281
  754MOL0     C99417   9.597  -0.589  -0.251  0.6870  0.5838 -0.0914
  754MOL0     C99418   9.555  -0.726  -0.206 -0.0840  0.6657 -0.5702
  754MOL0     C99419   9.672  -0.794  -0.133  0.1823  0.3067 -0.0009
  754MOL0     O99420   9.725  -0.711  -0.027  0.2261 -0.1120 -0.4556
  754MOL0     C99421   9.845  -0.745   0.033  1.2486  0.4928  0.0775
  754MOL0     C99422   9.858  -0.875   0.088  0.4855 -0.1440  1.0435
  754MOL0     C99423   9.986  -0.905   0.143  0.6210 -0.2637 -0.6631
  754MOL0     C99424  10.089  -0.810   0.151 -1.2363  0.0487  1.2243
  754MOL0     C99425  10.218  -0.833   0.228  0.2084 -1.1599 -0.3393
  754MOL0     O99426  10.318  -0.738   0.206 -1.1391 -0.4748 -0.8887
  754MOL0     C99427  10.442  -0.772   0.257 -0.5829  0.8392 -0.0446
  754MOL0     C99428  10.514  -0.679   0.336 -0.7431  0.7554  0.9784
  754MOL0     C99429  10.635  -0.716   0.399  0.8416 -0.8919  0.6448
  754MOL0     C99430  10.678  -0.847   0.370  0.4107  0.3297 -0.7931
  754MOL0     O99431  10.786  -0.885   0.447  0.3505 -0.3149 -0.1977
  754MOL0     C99432  10.868  -0.989   0.384 -0.4504 -1.0236 -1.1527
  754MOL0     C99433  10.970  -1.017   0.498  0.7538 -0.1216 -0.0710
  754MOL0     C99434  11.048  -1.146   0.470  0.2059  0.2967 -0.0864
  754MOL0     C99435  11.157  -1.161   0.571 -1.2057 -0.1845  0.1202
  754MOL0     C99436  11.234  -1.296   0.556  0.8631 -0.6302  0.0144
  754MOL0     C99437  11.345  -1.322   0.662 -0.1625  0.0439 -0.6792
  754MOL0     C99438  11.305  -1.405   0.781  0.4081 -0.1612 -1.0178
  754MOL0     C99439  11.225  -1.525   0.748  1.0141  0.5728  0.2541
  754MOL0    Cl99440  11.244  -1.624   0.898  0.4111 -0.5703 -0.2734
  754MOL0     C99441  10.608  -0.937   0.283 -0.0901 -0.5931 -0.2648
  754MOL0     C99442  10.497  -0.895   0.211  1.3170 -0.9686 -0.2433
  754MOL0     O99443  10.216  -0.917   0.324 -0.4587 -0.4676  0.0007
  754MOL0     C99444  10.073  -0.689   0.083 -0.7187  0.2351  0.2211
  754MOL0     C99445   9.952  -0.654   0.030  0.1289 -0.8817  0.0404
  754MOL0     N99446   9.559  -0.290  -0.216 -0.4608 -0.3226 -0.8156
  754MOL0     N99447   9.508  -0.171  -0.194  0.0283  0.0495 -0.7336
  754MOL0     C99448   8.734   0.853  -0.045 -0.5141 -0.6033 -0.3075
  754MOL0     C99449   8.724   0.975   0.024 -0.5990  0.8346 -0.5639
  754MOL0     C99450   8.716   1.290   0.321  0.0978  0.6143 -0.7258
  754MOL0     C99451   8.640   1.400   0.306  0.3434 -0.2408  0.0605
  754MOL0     C99452   8.685   1.519   0.380  0.2977  0.4791  0.0946
  754MOL0     C99453   8.806   1.528   0.450  0.1702 -0.9521 -0.1184
  754MOL0     O99454   8.862   1.650   0.488 -0.0186  0.5327 -0.4179
  754MOL0     C99455   8.808   1.779   0.455  0.8112  0.1000 -0.5615
  754MOL0     C99456   8.903   1.890   0.507  0.5259  0.5063  0.5341
  754MOL0     C99457   8.911   1.875   0.659 -0.0625 -0.1671 -0.6016
  754MOL0     C99458   8.944   2.017   0.718 -0.3808  0.4241  0.4217
  754MOL0     C99459   8.945   2.016   0.862  0.0435 -0.4162  0.2943
  754MOL0     C99460   8.944   2.018   0.985  1.1403 -0.2872 -0.5516
  754MOL0     C99461   8.877   1.411   0.468  0.1442  0.2978  0.6651
  754MOL0     C99462   8.836   1.299   0.402 -0.7055 -0.3124  0.4574
  754MOL0     H99463   8.905   0.867   0.298  0.1523  1.8309 -0.9500
  754MOL0     H99464   8.879   0.657   0.184  0.0607  0.3719  0.1592
  754MOL0     H99465   8.924   0.679  -0.224  0.0965 -0.6402  0.4078
  754MOL0     H99466   8.749   0.683  -0.240  0.4312  1.3876  2.3371
  754MOL0     H99467   8.790   0.495  -0.358  1.3351  2.0631 -0.6898
  754MOL0     H99468   8.737   0.431  -0.205  1.7074 -1.2136  1.7231
  754MOL0     H99469   8.977   0.395  -0.120  0.4549 -3.3032  0.4106
  754MOL0     H99470   9.031   0.478  -0.265 -0.6829  0.6284  0.6671
  754MOL0     H99471   8.882   0.219  -0.290  1.7212 -0.9105  2.2045
  754MOL0     H99472   8.986   0.308  -0.410  3.4338 -2.2143 -0.2523
  754MOL0     H99473   9.046   0.160  -0.158 -3.7235 -0.7997 -1.2593
  754MOL0     H99474   9.177   0.249  -0.253  0.0219  1.4387  4.0401
  754MOL0     H99475   9.113   0.102  -0.455  0.0508 -0.7809  0.0766
  754MOL0     H99476   8.983   0.028  -0.358 -0.0845  2.0042  1.6474
  754MOL0     H99477   9.136  -0.069  -0.204 -1.3211  0.8358 -0.1779
  754MOL0     H99478   9.148  -0.125  -0.378 -1.5602  0.2932 -0.3465
  754MOL0     H99479   9.340   0.042  -0.218  1.5050 -0.1978 -1.7482
  754MOL0     H99480   9.368   0.003  -0.386 -0.2123 -1.5645 -1.2357
  754MOL0     H99481   9.254  -0.322  -0.323  0.6362 -2.0603  0.7631
  754MOL0     H99482   9.454  -0.552  -0.406  0.1053 -0.6259 -0.0707
  754MOL0     H99483   9.375  -0.564  -0.250 -0.6701  1.6484  1.7229
  754MOL0     H99484   9.649  -0.539  -0.169 -0.3999 -2.8832  2.9994
  754MOL0     H99485   9.654  -0.597  -0.344  0.2102  1.6324 -0.4905
  754MOL0     H99486   9.479  -0.714  -0.128  0.9567 -1.0834  0.7930
  754MOL0     H99487   9.514  -0.782  -0.291  4.1620 -0.9577 -1.8246
  754MOL0     H99488   9.750  -0.819  -0.205  0.2305 -1.4044  0.5921
  754MOL0     H99489   9.644  -0.890  -0.088  0.7367 -0.1762 -0.6614
  754MOL0     H99490   9.789  -0.959   0.096 -0.0983  0.3975  1.8530
  754MOL0     H99491  10.005  -0.992   0.205 -1.9409 -0.4212  0.0090
  754MOL0     H99492  10.458  -0.587   0.351 -1.9886  0.6123 -2.0135
  754MOL0     H99493  10.697  -0.668   0.474 -1.1648 -0.9208  2.4469
  754MOL0     H99494  10.915  -0.958   0.290  0.9533  0.3073 -0.0757
  754MOL0     H99495  10.809  -1.077   0.361 -0.3202 -0.7132 -2.7948
  754MOL0     H99496  10.919  -1.024   0.594  1.3614 -0.5782  0.2317
  754MOL0     H99497  11.046  -0.939   0.510 -0.3089  0.5912  2.7358
  754MOL0     H99498  11.091  -1.142   0.369  1.6286 -2.2281  0.3402
  754MOL0     H99499  10.973  -1.225   0.465 -0.2501  0.7806 -2.6571
  754MOL0     H99500  11.234  -1.084   0.577 -1.0693  0.0206 -2.6994
  754MOL0     H99501  11.109  -1.147   0.668  2.3124 -0.5752  2.0859
  754MOL0     H99502  11.273  -1.300   0.453 -3.0746 -0.0788 -1.6831
  754MOL0     H99503  11.157  -1.372   0.571 -2.1732  1.8951 -1.4561
  754MOL0     H99504  11.390  -1.224   0.682 -0.8544  0.1638  0.3743
  754MOL0     H99505  11.430  -1.377   0.619 -1.1101 -0.6687 -1.6883
  754MOL0     H99506  11.403  -1.434   0.820 -0.8641 -1.4653  1.4726
  754MOL0     H99507  11.267  -1.347   0.866  6.3784  1.8556  0.7828
  754MOL0     H99508  11.250  -1.584   0.660 -1.0355  0.6980 -0.4577
  754MOL0     H99509  11.120  -1.507   0.725  1.9236  3.1469 -2.5000
  754MOL0     H99510  10.632  -1.042   0.269  1.0268 -0.6304  1.6061
  754MOL0     H99511  10.453  -0.962   0.137  0.4552  1.5522 -2.1501
  754MOL0     H99512  10.157  -0.622   0.072  0.1398 -0.6807  1.0161
  754MOL0     H99513   9.951  -0.558  -0.020  0.3190 -1.2131 -0.6042
  754MOL0     H99514   8.685   0.838  -0.141  0.9790  1.8284 -1.5462
  754MOL0     H99515   8.689   1.072  -0.010 -2.3085  0.4459 -0.0207
  754MOL0     H99516   8.555   1.399   0.238  0.4755  0.4774 -0.1273
  754MOL0     H99517   8.624   1.608   0.381  1.6292  1.4304  1.9112
  754MOL0     H99518   8.711   1.800   0.501  1.8003  2.6323  0.5785
  754MOL0     H99519   8.797   1.785   0.347  2.3186  0.7285 -0.6993
  754MOL0     H99520   9.002   1.880   0.461  0.6046  3.3473 -0.0922
  754MOL0     H99521   8.864   1.984   0.466  0.2563 -0.1503 -0.7843
  754MOL0     H99522   8.998   1.809   0.669  1.6446  1.1839 -4.4553
  754MOL0     H99523   8.824   1.841   0.715  1.1225  3.5594  4.1451
  754MOL0     H99524   9.042   2.039   0.675 -1.1246  3.9107  0.2379
  754MOL0     H99525   8.874   2.094   0.685 -1.2886 -0.7837 -0.6133
  754MOL0     H99526   8.936   2.026   1.092 -4.0322  1.3413 -0.7868
  754MOL0     H99527   8.976   1.404   0.512  0.9105 -1.7044 -1.1543
  754MOL0     H99528   8.901   1.212   0.408 -3.1708 -2.1917  2.3603
  755MOL0     O99529   7.252   9.597   9.951  0.4093 -0.1792 -0.1650
  755MOL0     C99530   7.264   9.547  10.064  0.2433 -0.2409  0.1280
  755MOL0     O99531   7.327   9.430  10.092 -0.6471  0.3436  0.4869
  755MOL0     C99532   7.380   9.347   9.993  1.3184  0.4714  0.4342
  755MOL0     C99533   7.477   9.256  10.041 -0.5094 -0.5347 -0.3085
  755MOL0     C99534   7.535   9.162   9.955 -0.7750  0.1971 -1.2324
  755MOL0     C99535   7.506   9.157   9.822  0.4871 -0.0008 -0.3289
  755MOL0     O99536   7.561   9.064   9.731  0.3301  0.1350 -0.8463
  755MOL0     C99537   7.697   9.029   9.753  0.5749  0.2040  0.3387
  755MOL0     C99538   7.713   8.885   9.773 -0.2616  1.0116  0.5263
  755MOL0     C99539   7.833   8.843   9.684 -0.0138 -0.0561 -0.1609
  755MOL0     C99540   7.834   8.691   9.685 -0.0402  0.4111  0.0480
  755MOL0     C99541   7.710   8.629   9.614  0.1582  0.0170  0.1221
  755MOL0     C99542   7.724   8.494   9.537  0.1374 -0.1945 -0.5395
  755MOL0     C99543   7.622   8.456   9.430  0.5319 -1.4019 -0.6344
  755MOL0     C99544   7.674   8.352   9.332  0.6418  0.5158  0.3550
  755MOL0     N99545   7.725   8.226   9.397  0.0666 -0.7596  0.4650
  755MOL0     C99546   7.706   8.093   9.366  0.3391  0.5583 -1.3263
  755MOL0     C99547   7.809   8.022   9.432  0.8687 -0.3402  0.1262
  755MOL0     C99548   7.831   7.866   9.434 -0.6606 -0.3401 -0.0488
  755MOL0     C99549   7.870   7.806   9.296  0.3854  0.9030 -0.1168
  755MOL0     C99550   7.930   7.665   9.313  0.4436 -0.1858 -0.3652
  755MOL0     C99551   7.954   7.583   9.181  0.2313  0.3149  0.0497
  755MOL0     O99552   7.846   7.606   9.086 -0.1998 -0.1606  0.5152
  755MOL0     C99553   7.891   7.625   8.959 -0.6048  0.4531 -1.0211
  755MOL0     C99554   7.924   7.517   8.875 -0.9507  0.0548 -0.8695
  755MOL0     C99555   7.972   7.546   8.749  0.6790 -0.4188  0.3168
  755MOL0     C99556   7.970   7.669   8.688 -0.4990  0.2447 -0.6440
  755MOL0     C99557   8.015   7.688   8.547 -0.4319  0.5766  0.4836
  755MOL0     O99558   8.037   7.574   8.483  0.0402  0.2031 -0.0698
  755MOL0     C99559   8.061   7.552   8.345  0.0760  0.4631  0.3288
  755MOL0     C99560   8.102   7.653   8.249  1.3812  0.2506 -0.3626
  755MOL0     C99561   8.144   7.619   8.126  0.2491  0.0774  0.2844
  755MOL0     C99562   8.164   7.488   8.089  0.0477 -0.4893  0.2977
  755MOL0     O99563   8.201   7.472   7.962  0.1468 -0.4026  0.2777
  755MOL0     C99564   8.220   7.341   7.918  0.8755 -0.5132  0.1203
  755MOL0     C99565   8.260   7.336   7.774 -0.3279  0.2863 -0.0265
  755MOL0     C99566   8.275   7.189   7.733  0.1806  0.0005 -0.4689
  755MOL0     C99567   8.334   7.164   7.590  0.8896  0.3884  1.2872
  755MOL0     C99568   8.350   7.013   7.556 -0.7346 -0.2543  0.6289
  755MOL0     C99569   8.223   6.931   7.566 -0.1016  0.7788  0.2440
  755MOL0     C99570   8.244   6.779   7.570 -0.2102 -0.2860  0.8157
  755MOL0     C99571   8.282   6.721   7.431  0.1384 -0.4992  0.0657
  755MOL0    Cl99572   8.233   6.545   7.429 -0.4638  0.0330 -0.3117
  755MOL0     C99573   8.128   7.387   8.180  0.3659  1.1270 -0.1643
  755MOL0     C99574   8.068   7.424   8.303 -0.4079 -0.2148 -0.1172
  755MOL0     O99575   7.992   7.790   8.485  0.1074  0.2516  0.7238
  755MOL0     C99576   7.921   7.775   8.760 -0.0831 -0.6690 -0.1157
  755MOL0     C99577   7.890   7.756   8.900 -0.7006  0.0579 -0.3402
  755MOL0     N99578   7.888   8.119   9.488 -0.0733  0.2411 -0.2879
  755MOL0     N99579   7.840   8.238   9.465  0.4872  0.3260 -0.9303
  755MOL0     C99580   7.405   9.245   9.777  0.3169  0.3617  0.4284
  755MOL0     C99581   7.341   9.345   9.860 -0.7702 -0.4150  0.6892
  755MOL0     C99582   7.207   9.613  10.173  0.1728  1.5448 -0.0330
  755MOL0     C99583   7.124   9.722  10.156 -0.2740  0.1600 -0.2073
  755MOL0     C99584   7.070   9.789  10.263 -0.0650  0.2426  0.0775
  755MOL0     C99585   7.111   9.759  10.391 -0.1331  0.5775 -0.8899
  755MOL0     O99586   7.064   9.817  10.509 -0.5108 -0.2733  1.2009
  755MOL0     C99587   7.069   9.957  10.496 -0.6204  0.2848 -0.3264
  755MOL0     C99588   7.029  10.012  10.643 -1.1570 -0.0586 -1.0585
  755MOL0     C99589   7.140   9.968  10.741  0.2754  0.6765 -0.5933
  755MOL0     C99590   7.281  10.034  10.721 -0.5005 -0.5644 -0.1145
  755MOL0     C99591   7.291  10.139  10.828  0.6577  0.1910 -0.4278
  755MOL0     C99592   7.275  10.227  10.906 -0.2014 -0.3588 -0.5152
  755MOL0     C99593   7.200   9.651  10.408 -0.6973 -0.2059 -1.1499
  755MOL0     C99594   7.246   9.579  10.301 -1.0861 -0.1911  0.3251
  755MOL0     H99595   7.499   9.261  10.148 -1.0110  1.3456 -0.2659
  755MOL0     H99596   7.619   9.110   9.999 -1.9902  0.4304  1.5907
  755MOL0     H99597   7.749   9.086   9.831  1.2283  1.2105 -0.7962
  755MOL0     H99598   7.762   9.056   9.669  1.0952  4.3169  1.8511
  755MOL0     H99599   7.621   8.839   9.736 -3.0098  3.6030  3.5020
  755MOL0     H99600   7.724   8.876   9.881  1.3689  0.2868  0.3134
  755MOL0     H99601   7.922   8.884   9.732  0.2830 -0.5000 -0.3195
  755MOL0     H99602   7.839   8.874   9.579  0.1366 -1.9408 -0.7578
  755MOL0     H99603   7.923   8.672   9.624 -0.2483 -0.3586 -0.0265
  755MOL0     H99604   7.843   8.644   9.783 -0.4640 -3.4243 -1.5673
  755MOL0     H99605   7.683   8.710   9.546  3.1308  1.5109  0.5536
  755MOL0     H99606   7.634   8.621   9.691 -2.0699 -2.1841 -2.1094
  755MOL0     H99607   7.721   8.409   9.606  1.3822 -1.5887 -2.1136
  755MOL0     H99608   7.826   8.489   9.498  1.0520 -1.7099  1.8542
  755MOL0     H99609   7.528   8.436   9.482 -0.8033  2.8192 -1.0088
  755MOL0     H99610   7.600   8.550   9.378 -0.8242  1.5260  4.5474
  755MOL0     H99611   7.756   8.382   9.266 -0.0380 -0.7110 -1.1021
  755MOL0     H99612   7.594   8.329   9.261  0.9553 -0.3608  0.2638
  755MOL0     H99613   7.629   8.050   9.302 -2.3519 -0.6389  2.3835
  755MOL0     H99614   7.733   7.827   9.465 -0.4999 -0.6789  0.0406
  755MOL0     H99615   7.903   7.851   9.515 -1.6653 -2.6737  0.5056
  755MOL0     H99616   7.948   7.864   9.246  0.3634  2.1768  1.2707
  755MOL0     H99617   7.781   7.798   9.233  1.3964 -2.4036 -1.3554
  755MOL0     H99618   8.029   7.669   9.360 -1.1711 -0.8309  3.4885
  755MOL0     H99619   7.868   7.608   9.383  0.6428 -1.4763 -1.2305
  755MOL0     H99620   7.964   7.475   9.196  0.7823  0.0474 -1.9556
  755MOL0     H99621   8.050   7.618   9.142  0.7283 -0.9171  0.1331
  755MOL0     H99622   7.910   7.415   8.908 -0.7306  1.0593  2.8105
  755MOL0     H99623   8.009   7.462   8.692  2.1484 -1.7125  3.0135
  755MOL0     H99624   8.099   7.756   8.283  0.2436 -0.8513  3.3549
  755MOL0     H99625   8.178   7.690   8.052 -1.7778 -1.1425 -1.9405
  755MOL0     H99626   8.138   7.270   7.934  1.0298 -0.9363 -0.8402
  755MOL0     H99627   8.303   7.294   7.972  2.3802  0.6051 -1.1016
  755MOL0     H99628   8.357   7.383   7.757  0.6685 -0.1676  3.6457
  755MOL0     H99629   8.177   7.374   7.713 -1.0301 -2.2091 -0.7780
  755MOL0     H99630   8.181   7.139   7.758 -0.3473  1.7478  1.3026
  755MOL0     H99631   8.347   7.148   7.805 -3.7797 -1.1555  3.2625
  755MOL0     H99632   8.264   7.206   7.517  1.4660  0.0408  0.5259
  755MOL0     H99633   8.421   7.229   7.575  0.9324 -0.0537 -0.5716
  755MOL0     H99634   8.430   6.968   7.616 -0.3707 -1.9264 -1.0139
  755MOL0     H99635   8.390   7.010   7.454 -3.4317 -0.9471 -0.5051
  755MOL0     H99636   8.166   6.965   7.480  0.1663  1.5782  0.3735
  755MOL0     H99637   8.163   6.944   7.656  2.6441 -0.8720  2.4862
  755MOL0     H99638   8.315   6.769   7.652 -2.4115  1.9450  3.1700
  755MOL0     H99639   8.148   6.732   7.593 -0.7102  1.2319  2.0639
  755MOL0     H99640   8.391   6.717   7.422  0.0525  0.0191 -1.4858
  755MOL0     H99641   8.234   6.779   7.352  0.5669  3.7670  2.6210
  755MOL0     H99642   8.141   7.281   8.159  1.0427  0.8615  1.4917
  755MOL0     H99643   8.047   7.347   8.376  0.7206 -0.3390  0.0903
  755MOL0     H99644   7.907   7.873   8.715 -0.3521  0.2763  1.8659
  755MOL0     H99645   7.858   7.831   8.970  1.6306 -1.3785  2.4872
  755MOL0     H99646   7.394   9.259   9.670  1.4527 -1.2079  0.0772
  755MOL0     H99647   7.287   9.426   9.812  1.7520  0.8806 -0.1840
  755MOL0     H99648   7.096   9.760  10.058 -0.2231  1.5474  0.3009
  755MOL0     H99649   6.991   9.857  10.232  1.0623  0.9504 -1.3748
  755MOL0     H99650   6.991   9.996  10.431  0.2684  2.0332 -0.3887
  755MOL0     H99651   7.161  10.002  10.457  1.1302 -0.8371  2.1912
  755MOL0     H99652   7.022  10.120  10.629 -0.7784  0.3222  1.1696
  755MOL0     H99653   6.936   9.964  10.676  0.4733 -2.1483  0.7894
  755MOL0     H99654   7.158   9.860  10.744  0.0900  0.5839 -2.1937
  755MOL0     H99655   7.108   9.976  10.845  0.5007 -0.8271 -0.3858
  755MOL0     H99656   7.363   9.962  10.732 -1.7757 -1.9175  0.9516
  755MOL0     H99657   7.272  10.083  10.624 -0.7711 -1.0063 -0.3197
  755MOL0     H99658   7.277  10.310  10.974  2.7402  0.5480 -1.5418
  755MOL0     H99659   7.240   9.624  10.505 -0.0376 -0.4463 -1.4831
  755MOL0     H99660   7.316   9.500  10.327 -1.9563 -0.7560  1.0682
  756MOL0     O99661   9.894   2.444   9.362  0.5551 -0.4623  0.3648
  756MOL0     C99662   9.787   2.427   9.409 -0.4433 -0.0319 -0.8081
  756MOL0     O99663   9.738   2.309   9.461  0.0873 -0.2763 -0.1016
  756MOL0     C99664   9.822   2.206   9.467 -0.2548 -0.5504 -0.0356
  756MOL0     C99665   9.785   2.095   9.395 -0.8375  0.0103 -0.2639
  756MOL0     C99666   9.874   1.971   9.395  1.1519 -0.8161 -0.0361
  756MOL0     C99667   9.978   1.965   9.483  0.1275 -0.5046  0.7002
  756MOL0     O99668  10.037   1.844   9.490  0.1481 -1.0055 -0.0937
  756MOL0     C99669   9.978   1.728   9.564 -0.0163  0.6262 -0.1364
  756MOL0     C99670   9.950   1.751   9.718  0.2272  0.0416 -0.1818
  756MOL0     C99671  10.072   1.787   9.808  0.1193 -1.1932 -0.8757
  756MOL0     C99672  10.195   1.696   9.803  0.2125  0.9125 -0.1147
  756MOL0     C99673  10.312   1.724   9.909 -0.6709 -0.6045  0.0169
  756MOL0     C99674  10.350   1.876   9.897 -0.1200 -0.3845 -0.4748
  756MOL0     C99675  10.502   1.904   9.932  0.2044 -0.4030  0.2999
  756MOL0     C99676  10.543   1.860  10.065  0.7264  0.2507 -0.6166
  756MOL0     N99677  10.481   1.951  10.169  0.2981  0.4569 -0.1988
  756MOL0     C99678  10.520   2.073  10.219  1.0689 -1.0821  0.3892
  756MOL0     C99679  10.423   2.099  10.312 -0.3540 -0.5697  0.2419
  756MOL0     C99680  10.397   2.208  10.402  0.4433 -0.2315 -0.3484
  756MOL0     C99681  10.477   2.335  10.391  0.7774  0.2213  0.7283
  756MOL0     C99682  10.413   2.462  10.329  1.1583  0.9617 -0.2674
  756MOL0     C99683  10.493   2.592  10.304 -0.5523 -0.9051 -0.3854
  756MOL0     O99684  10.567   2.619  10.433  0.4485 -0.9318  0.3406
  756MOL0     C99685  10.640   2.737  10.448  0.0187 -0.9627 -0.3112
  756MOL0     C99686  10.729   2.744  10.557 -0.1515 -0.4726 -0.3624
  756MOL0     C99687  10.813   2.853  10.578 -1.3579  0.2527  0.4644
  756MOL0     C99688  10.817   2.961  10.485 -0.6373 -0.4558 -0.2751
  756MOL0     C99689  10.906   3.079  10.502 -0.3138  0.1916  0.1250
  756MOL0     O99690  10.915   3.162  10.397 -0.3718 -0.2723 -0.4982
  756MOL0     C99691  10.987   3.279  10.392 -0.2302  0.9044  0.8076
  756MOL0     C99692  10.932   3.379  10.314 -0.0285  0.0065  1.5936
  756MOL0     C99693  10.996   3.510  10.293  0.1766  0.0411 -0.3063
  756MOL0     C99694  11.125   3.531  10.358  0.7883  0.8713  0.1230
  756MOL0     O99695  11.197   3.645  10.354  0.5991  0.5788  0.6291
  756MOL0     C99696  11.222   3.683  10.214 -0.9356 -0.8587  0.4862
  756MOL0     C99697  11.339   3.619  10.148 -0.0346  0.1793  1.6613
  756MOL0     C99698  11.346   3.460  10.168  0.5199  0.0830 -0.7770
  756MOL0     C99699  11.462   3.398  10.085 -0.2234  0.7811  0.1696
  756MOL0     C99700  11.431   3.247  10.096  1.1520  0.7106 -0.0941
  756MOL0     C99701  11.533   3.162  10.024  0.6933 -0.7489 -0.8451
  756MOL0     C99702  11.677   3.158  10.074 -0.8694  1.1605 -0.0573
  756MOL0     C99703  11.772   3.082   9.972  0.9797 -0.7287  0.3452
  756MOL0    Cl99704  11.816   3.195   9.836 -0.0408  0.2120  0.0749
  756MOL0     C99705  11.173   3.424  10.438  0.7674 -0.6281  0.2589
  756MOL0     C99706  11.097   3.311  10.466 -0.0855  0.1482  0.2749
  756MOL0     O99707  10.971   3.088  10.607  0.7255 -0.3433 -0.3827
  756MOL0     C99708  10.730   2.946  10.370 -0.3666 -0.0527  0.3281
  756MOL0     C99709  10.655   2.832  10.356  0.0341 -0.7203  0.1286
  756MOL0     N99710  10.329   2.007  10.311  0.2772  0.4416  0.2762
  756MOL0     N99711  10.365   1.912  10.229 -0.2633 -0.1302  0.2297
  756MOL0     C99712  10.010   2.083   9.555 -0.3477 -0.0341 -0.1786
  756MOL0     C99713   9.934   2.205   9.540  0.7940  0.1916  0.0302
  756MOL0     C99714   9.708   2.551   9.410  0.8028  1.0452 -0.3010
  756MOL0     C99715   9.748   2.652   9.320 -0.0855 -0.3498 -0.3893
  756MOL0     C99716   9.665   2.771   9.312 -0.4253 -0.0109 -0.2007
  756MOL0     C99717   9.540   2.783   9.381 -0.3085 -0.1595 -0.5382
  756MOL0     O99718   9.470   2.898   9.392  0.1382 -0.1652  0.5848
  756MOL0     C99719   9.529   3.028   9.353  0.0134  0.4873  0.2019
  756MOL0     C99720   9.465   3.068   9.214 -0.0443  0.4754  0.3851
  756MOL0     C99721   9.315   3.040   9.185  0.2891 -0.0292 -0.1345
  756MOL0     C99722   9.226   3.119   9.273 -0.0154  0.2033  0.5600
  756MOL0     C99723   9.230   3.265   9.243  0.4600  0.6163 -1.3611
  756MOL0     C99724   9.225   3.376   9.202 -0.2429 -0.3151 -0.8530
  756MOL0     C99725   9.509   2.674   9.466  0.2143 -0.7678  0.1183
  756MOL0     C99726   9.594   2.558   9.488 -0.0108  0.0095  0.0282
  756MOL0     H99727   9.695   2.108   9.335  1.1685 -0.3795 -3.6526
  756MOL0     H99728   9.841   1.887   9.335  1.4575 -0.8167 -0.2098
  756MOL0     H99729  10.055   1.651   9.557 -1.1153 -0.5645  0.3158
  756MOL0     H99730   9.884   1.692   9.520  0.8261  0.6877 -2.0806
  756MOL0     H99731   9.923   1.649   9.747  0.6552  0.7739  3.1718
  756MOL0     H99732   9.865   1.817   9.735 -0.5655 -1.4506  2.1232
  756MOL0     H99733  10.040   1.785   9.913  1.3788  3.1954 -0.2097
  756MOL0     H99734  10.102   1.891   9.794 -0.1667 -1.2929 -2.4711
  756MOL0     H99735  10.153   1.596   9.818  1.0035  0.5440 -0.2774
  756MOL0     H99736  10.232   1.707   9.701  1.1721 -0.4345  0.0646
  756MOL0     H99737  10.393   1.667   9.865  0.4143  1.6691 -1.1236
  756MOL0     H99738  10.292   1.710  10.016  3.8481  3.2013  1.7281
  756MOL0     H99739  10.286   1.924   9.972 -0.3060  0.0460 -0.9037
  756MOL0     H99740  10.318   1.921   9.803 -1.7210  3.4844  1.6551
  756MOL0     H99741  10.563   1.859   9.853  2.5934  2.5797  0.2431
  756MOL0     H99742  10.516   2.012   9.923 -2.9798 -0.0359 -1.5150
  756MOL0     H99743  10.652   1.876  10.065  0.3595  4.0644 -2.6057
  756MOL0     H99744  10.530   1.752  10.075  1.3135  0.0585 -1.8107
  756MOL0     H99745  10.605   2.132  10.187 -2.0539  2.6510 -2.0318
  756MOL0     H99746  10.431   2.167  10.498 -0.1144  0.4669  0.1557
  756MOL0     H99747  10.292   2.233  10.419  0.4267 -0.8653  0.5600
  756MOL0     H99748  10.560   2.312  10.324  1.9445  3.9480  0.6613
  756MOL0     H99749  10.518   2.357  10.490  3.0860  0.0818 -0.1480
  756MOL0     H99750  10.374   2.427  10.233 -0.9531 -1.6580  1.3827
  756MOL0     H99751  10.330   2.481  10.397 -0.0322  2.0964 -1.9420
  756MOL0     H99752  10.434   2.681  10.278 -1.1646 -0.0757  3.2502
  756MOL0     H99753  10.561   2.569  10.222 -0.3663 -0.8495 -0.2487
  756MOL0     H99754  10.733   2.666  10.632  0.1217  0.9191  1.1375
  756MOL0     H99755  10.877   2.856  10.666  0.0722  0.6664 -0.5558
  756MOL0     H99756  10.830   3.367  10.278 -0.3459  2.1548  1.6601
  756MOL0     H99757  10.947   3.587  10.235  0.7066  1.1908  0.7227
  756MOL0     H99758  11.270   3.781  10.222 -0.6554 -0.9749  0.2677
  756MOL0     H99759  11.133   3.681  10.151  0.3652  1.3949 -1.5964
  756MOL0     H99760  11.437   3.653  10.183  0.8457 -0.0589 -0.4230
  756MOL0     H99761  11.338   3.636  10.040 -0.6010 -2.7121  1.1270
  756MOL0     H99762  11.256   3.403  10.143  0.3790 -0.5489  0.9766
  756MOL0     H99763  11.362   3.426  10.271  1.7601  1.4987 -0.4574
  756MOL0     H99764  11.460   3.427   9.980 -1.2863  0.7708  0.1733
  756MOL0     H99765  11.561   3.412  10.129  0.2776  0.6594 -0.8931
  756MOL0     H99766  11.334   3.235  10.046  1.5060  0.4903 -0.7521
  756MOL0     H99767  11.424   3.210  10.198 -3.4350 -1.7836 -1.0304
  756MOL0     H99768  11.531   3.210   9.926 -1.0068 -0.4836 -0.6952
  756MOL0     H99769  11.498   3.060  10.003  3.2663 -1.7386 -0.7592
  756MOL0     H99770  11.724   3.256  10.077 -1.3986  1.4029  1.3565
  756MOL0     H99771  11.693   3.102  10.167 -1.2135  1.1453 -0.0043
  756MOL0     H99772  11.741   2.991   9.919  1.6001 -1.3153  0.9707
  756MOL0     H99773  11.862   3.060  10.030 -0.2023  0.9780  3.0277
  756MOL0     H99774  11.271   3.429  10.484  0.9931  1.3615 -0.3471
  756MOL0     H99775  11.145   3.241  10.533 -1.8430 -0.3632  1.0586
  756MOL0     H99776  10.730   3.018  10.289 -1.3089  1.1847  1.3921
  756MOL0     H99777  10.599   2.823  10.263  0.2235  4.7572 -0.7964
  756MOL0     H99778  10.091   2.077   9.627  0.4033 -0.0694 -1.0157
  756MOL0     H99779   9.964   2.291   9.598 -0.5275  0.5043  0.2816
  756MOL0     H99780   9.839   2.638   9.262  0.8575 -1.0345  1.2007
  756MOL0     H99781   9.694   2.851   9.245  1.6350  0.5044  1.1767
  756MOL0     H99782   9.637   3.038   9.368  0.2039  1.0231 -1.3866
  756MOL0     H99783   9.477   3.104   9.412 -1.6435  3.2796 -4.3344
  756MOL0     H99784   9.491   3.172   9.189  0.6193  1.3581  4.1113
  756MOL0     H99785   9.529   3.007   9.149 -1.4388  1.5461 -2.1707
  756MOL0     H99786   9.291   2.934   9.192 -1.1135  0.3758  3.4216
  756MOL0     H99787   9.295   3.071   9.082  1.4971  1.5729  0.0660
  756MOL0     H99788   9.124   3.085   9.254 -0.0833 -0.2048  1.6170
  756MOL0     H99789   9.263   3.102   9.374 -2.2538 -0.8441  1.2731
  756MOL0     H99790   9.257   3.466   9.154  0.2601 -1.3136 -2.4844
  756MOL0     H99791   9.421   2.699   9.525  1.9246  2.3037  1.5620
  756MOL0     H99792   9.579   2.485   9.566  0.2863 -3.2748 -2.7376
  757MOL0     O99793   1.241   5.788   6.922  0.2006  0.1741  0.2133
  757MOL0     C99794   1.184   5.834   6.816 -0.2187 -0.2529 -0.1993
  757MOL0     O99795   1.181   5.971   6.778  0.1478  0.5204  0.0995
  757MOL0     C99796   1.216   6.064   6.870  0.9587 -0.3145 -0.0868
  757MOL0     C99797   1.345   6.113   6.874  0.4363 -0.0337 -0.1678
  757MOL0     C99798   1.389   6.207   6.965 -0.3473  0.5962 -0.2403
  757MOL0     C99799   1.299   6.258   7.061 -0.7140  1.7374  1.0152
  757MOL0     O99800   1.338   6.353   7.157  0.7179  0.3875  0.1965
  757MOL0     C99801   1.451   6.321   7.234  0.1700 -0.2777 -0.4089
  757MOL0     C99802   1.573   6.393   7.181  0.3723 -0.8611 -0.3608
  757MOL0     C99803   1.588   6.540   7.221 -0.1742  0.5168 -0.2727
  757MOL0     C99804   1.732   6.582   7.180 -0.3028 -0.0930 -0.3405
  757MOL0     C99805   1.832   6.590   7.301 -0.1845 -0.1965  0.1780
  757MOL0     C99806   1.880   6.738   7.312  0.2235  0.0443 -1.1067
  757MOL0     C99807   1.937   6.763   7.458  0.2265  0.3836 -0.1324
  757MOL0     C99808   1.972   6.908   7.480 -0.0698 -0.3352 -1.1144
  757MOL0     N99809   2.061   6.946   7.377 -0.8308 -0.3309 -0.1425
  757MOL0     C99810   2.184   6.896   7.331 -1.0650 -0.6743 -0.3686
  757MOL0     C99811   2.222   6.972   7.224  1.0344 -0.3776 -0.3005
  757MOL0     C99812   2.360   6.976   7.165 -0.1347 -1.0209  0.6878
  757MOL0     C99813   2.451   7.094   7.219  0.5333  0.7700 -0.2864
  757MOL0     C99814   2.382   7.222   7.252  0.9518  0.2687 -0.3211
  757MOL0     C99815   2.476   7.339   7.275 -1.2496 -0.3285 -0.1033
  757MOL0     O99816   2.574   7.302   7.378  0.3137  0.2869  0.5105
  757MOL0     C99817   2.665   7.395   7.423  0.0467 -0.1790 -0.0363
  757MOL0     C99818   2.766   7.349   7.504 -0.0643  0.2758  0.0508
  757MOL0     C99819   2.864   7.445   7.555 -0.2727 -1.2386 -0.0960
  757MOL0     C99820   2.840   7.583   7.530 -0.7650 -0.2097  0.3791
  757MOL0     C99821   2.935   7.686   7.590 -0.1188 -0.4201 -0.3637
  757MOL0     O99822   3.040   7.637   7.661 -1.0142 -0.2910  0.2170
  757MOL0     C99823   3.126   7.736   7.718  0.2652  0.4078  0.7852
  757MOL0     C99824   3.199   7.830   7.649 -0.3994  0.9443  0.6634
  757MOL0     C99825   3.309   7.900   7.697  0.1102  0.5107  0.0496
  757MOL0     C99826   3.333   7.882   7.834 -0.3818  0.7819 -0.0829
  757MOL0     O99827   3.448   7.940   7.884  0.3844  0.1292  0.2382
  757MOL0     C99828   3.458   7.955   8.027 -0.8112  0.2406 -0.0660
  757MOL0     C99829   3.574   8.047   8.071  0.2824 -0.0957  0.5257
  757MOL0     C99830   3.707   8.018   8.009 -0.7593 -0.1739  0.8024
  757MOL0     C99831   3.813   8.093   8.087  0.0246 -0.1488 -0.5036
  757MOL0     C99832   3.938   8.096   8.004 -1.3483 -0.5964  0.0504
  757MOL0     C99833   4.065   8.112   8.078  0.0981  0.2433  0.9662
  757MOL0     C99834   4.060   8.227   8.180 -0.9336  1.4344 -0.5116
  757MOL0     C99835   3.999   8.360   8.121 -0.1646  0.2153 -0.5065
  757MOL0    Cl99836   4.051   8.490   8.235  0.6206  0.2990  0.5819
  757MOL0     C99837   3.253   7.804   7.912 -0.2889  0.5935 -0.1711
  757MOL0     C99838   3.152   7.723   7.855 -0.0473 -0.5603 -0.9365
  757MOL0     O99839   2.915   7.805   7.562 -0.2538 -0.6034  0.0379
  757MOL0     C99840   2.726   7.626   7.458  0.8590 -0.4266 -0.0456
  757MOL0     C99841   2.646   7.534   7.395 -0.7133  0.2364  0.1085
  757MOL0     N99842   2.115   7.048   7.196 -0.2243 -0.3489  1.0716
  757MOL0     N99843   2.018   7.035   7.279 -0.9085 -0.0978 -0.0161
  757MOL0     C99844   1.171   6.207   7.052 -0.6968 -0.2696 -0.2092
  757MOL0     C99845   1.128   6.109   6.959  0.5263 -0.3587  0.2125
  757MOL0     C99846   1.120   5.745   6.718  0.3573  0.1251 -0.2524
  757MOL0     C99847   1.109   5.604   6.727  1.3007  0.1417 -0.0851
  757MOL0     C99848   1.043   5.525   6.621  0.6853  0.3691 -0.4342
  757MOL0     C99849   0.984   5.589   6.520  0.5824 -0.6587  0.2113
  757MOL0     O99850   0.911   5.542   6.408  0.9264  0.5366 -0.4151
  757MOL0     C99851   0.858   5.407   6.426 -0.5268 -0.4952 -0.4363
  757MOL0     C99852   0.826   5.348   6.290  0.7777 -1.0675  0.4379
  757MOL0     C99853   0.761   5.209   6.309 -1.3121 -0.9086  0.2378
  757MOL0     C99854   0.727   5.150   6.176 -0.7286  0.1167 -0.4261
  757MOL0     C99855   0.701   5.002   6.176  0.2235 -0.0669 -0.5517
  757MOL0     C99856   0.670   4.887   6.183  0.1847  0.8035 -0.7459
  757MOL0     C99857   0.996   5.724   6.517  0.9696  0.0034  1.1538
  757MOL0     C99858   1.059   5.802   6.609 -0.0661 -0.0412  0.2964
  757MOL0     H99859   1.401   6.053   6.803 -3.1543 -4.2984  0.1239
  757MOL0     H99860   1.495   6.229   6.963 -0.1114 -0.2416  1.2323
  757MOL0     H99861   1.455   6.212   7.237 -1.7108 -0.3985 -1.1799
  757MOL0     H99862   1.426   6.346   7.337 -1.6329  1.0087 -1.1074
  757MOL0     H99863   1.574   6.389   7.072 -0.2416 -2.3874 -0.3268
  757MOL0     H99864   1.658   6.343   7.228  1.4250  2.3416  1.5079
  757MOL0     H99865   1.578   6.544   7.330  1.1352 -3.4613  0.1442
  757MOL0     H99866   1.513   6.604   7.173  0.2488  0.7780 -0.5942
  757MOL0     H99867   1.777   6.509   7.112  0.0385 -2.0298  1.8002
  757MOL0     H99868   1.734   6.680   7.133  0.3027  1.3592  2.4594
  757MOL0     H99869   1.923   6.537   7.273 -1.2838 -1.5399 -1.0192
  757MOL0     H99870   1.786   6.552   7.393  1.0075  0.9668  1.2947
  757MOL0     H99871   1.802   6.813   7.296  1.8341  2.0349 -0.1437
  757MOL0     H99872   1.958   6.747   7.235  0.9914  0.5104 -0.2961
  757MOL0     H99873   1.865   6.740   7.538  1.9168  0.3025  1.4388
  757MOL0     H99874   2.020   6.696   7.482 -0.0390  0.8429  2.3145
  757MOL0     H99875   2.016   6.923   7.578 -0.7697  2.3928 -1.1083
  757MOL0     H99876   1.884   6.972   7.466  2.4557  3.2692 -1.9537
  757MOL0     H99877   2.255   6.826   7.374 -1.5794  0.4606  2.5169
  757MOL0     H99878   2.355   6.980   7.056 -0.2408 -1.2205  0.6856
  757MOL0     H99879   2.405   6.877   7.176 -0.9107 -1.7787 -2.0492
  757MOL0     H99880   2.524   7.103   7.138  1.4346 -2.4232  0.0318
  757MOL0     H99881   2.485   7.061   7.318 -2.3020  2.1349  1.2532
  757MOL0     H99882   2.318   7.256   7.170 -0.6777 -1.1673  0.2890
  757MOL0     H99883   2.308   7.195   7.328  1.3889 -6.0229 -1.5233
  757MOL0     H99884   2.409   7.423   7.298 -1.7183 -0.3203 -1.3729
  757MOL0     H99885   2.524   7.362   7.179 -3.9405 -0.5587 -1.6200
  757MOL0     H99886   2.770   7.242   7.519 -2.2615  0.2820  0.9901
  757MOL0     H99887   2.948   7.412   7.615 -1.2527 -1.6868  1.0763
  757MOL0     H99888   3.181   7.844   7.543 -1.1291  1.6595  0.8687
  757MOL0     H99889   3.368   7.952   7.623  1.1207 -0.9995 -0.2492
  757MOL0     H99890   3.478   7.856   8.069  1.0041 -0.6432 -2.7426
  757MOL0     H99891   3.364   7.993   8.068 -2.2014 -2.1614 -0.7986
  757MOL0     H99892   3.585   8.030   8.179 -0.2059 -2.7884  0.2154
  757MOL0     H99893   3.540   8.149   8.049 -2.0543 -1.4027 -2.7000
  757MOL0     H99894   3.712   8.037   7.902  2.8289 -1.9879  0.5180
  757MOL0     H99895   3.713   7.909   8.005 -2.3872 -0.2614 -0.0420
  757MOL0     H99896   3.786   8.194   8.122 -1.6831 -0.3084 -1.2480
  757MOL0     H99897   3.836   8.026   8.171  1.6091 -3.7496 -3.5343
  757MOL0     H99898   3.935   8.182   7.936  1.8199  0.6780  1.3186
  757MOL0     H99899   3.942   8.004   7.945  2.1634 -0.7758  0.3450
  757MOL0     H99900   4.139   8.140   8.004  1.3499 -1.4275  1.5109
  757MOL0     H99901   4.088   8.015   8.124 -1.2884 -1.2819 -1.3981
  757MOL0     H99902   3.991   8.195   8.259 -1.4556  1.6542 -0.8697
  757MOL0     H99903   4.161   8.227   8.221  0.0764  0.7888 -2.7867
  757MOL0     H99904   3.890   8.366   8.119 -0.2489 -0.7226 -2.9760
  757MOL0     H99905   4.035   8.376   8.018  2.0323 -1.4390 -0.0824
  757MOL0     H99906   3.258   7.786   8.019 -2.8048  1.2146  0.1093
  757MOL0     H99907   3.093   7.658   7.919 -2.5723  0.6807 -1.8659
  757MOL0     H99908   2.716   7.732   7.439  2.7360  0.1323  1.6794
  757MOL0     H99909   2.566   7.578   7.336 -0.7821  0.7562  0.5776
  757MOL0     H99910   1.100   6.248   7.124  2.4353 -0.3160  3.1940
  757MOL0     H99911   1.026   6.072   6.971 -0.1250  0.8486 -1.1791
  757MOL0     H99912   1.153   5.553   6.812  2.2683  1.4618  0.2337
  757MOL0     H99913   1.039   5.417   6.622 -0.4222  0.3947 -0.4609
  757MOL0     H99914   0.766   5.418   6.485 -0.3236 -3.2434  0.5482
  757MOL0     H99915   0.930   5.339   6.471 -0.5122 -0.5455 -0.5350
  757MOL0     H99916   0.764   5.416   6.231 -0.2424 -2.5522 -0.2445
  757MOL0     H99917   0.908   5.336   6.220 -1.5466  2.6675 -3.4277
  757MOL0     H99918   0.672   5.218   6.372 -1.6751  0.0683 -0.3876
  757MOL0     H99919   0.835   5.141   6.351  0.9854  0.1476 -1.8033
  757MOL0     H99920   0.630   5.186   6.140 -2.4650  0.8382  4.2979
  757MOL0     H99921   0.802   5.176   6.100 -1.9580 -1.1582 -2.1588
  757MOL0     H99922   0.658   4.781   6.173 -0.5020  0.8180 -0.1581
  757MOL0     H99923   0.948   5.774   6.434  0.8514  0.7276  1.6427
  757MOL0     H99924   1.049   5.909   6.596  1.8224  0.2309  0.8675
  758MOL0     O99925   9.054   2.689  10.598  0.7894 -0.6574  0.6887
  758MOL0     C99926   9.159   2.626  10.602  1.4014 -0.8397  0.9972
  758MOL0     O99927   9.283   2.672  10.567  0.0083 -0.1221  0.4159
  758MOL0     C99928   9.291   2.807  10.554  0.6859  0.3188 -0.4112
  758MOL0     C99929   9.310   2.867  10.428  0.0194 -0.8329 -0.2539
  758MOL0     C99930   9.308   3.008  10.427  0.5859  0.6780  0.0110
  758MOL0     C99931   9.273   3.091  10.531  0.2727  0.2851  0.1611
  758MOL0     O99932   9.270   3.234  10.522 -0.1702  0.7344  0.3731
  758MOL0     C99933   9.153   3.268  10.435  0.0865 -0.3808 -0.6757
  758MOL0     C99934   9.173   3.415  10.406 -0.0236 -0.2977 -0.3191
  758MOL0     C99935   9.056   3.479  10.324  0.6732  0.3334 -0.5576
  758MOL0     C99936   8.919   3.433  10.370  0.3944  0.5616  0.2131
  758MOL0     C99937   8.815   3.505  10.294 -0.2544 -0.2572  0.6071
  758MOL0     C99938   8.683   3.506  10.365  0.3533  0.4484  0.3940
  758MOL0     C99939   8.568   3.544  10.268 -1.1117  0.2523  0.1465
  758MOL0     C99940   8.447   3.591  10.338  0.6038 -0.1288 -0.4101
  758MOL0     N99941   8.373   3.497  10.417  0.0382 -0.9204 -0.3381
  758MOL0     C99942   8.298   3.390  10.366 -0.5592 -0.1574 -0.9481
  758MOL0     C99943   8.207   3.357  10.467 -0.4353 -0.2797 -0.2457
  758MOL0     C99944   8.105   3.246  10.460 -0.4393  1.2147 -0.7066
  758MOL0     C99945   8.064   3.197  10.600  0.5494 -0.5768 -0.3115
  758MOL0     C99946   7.917   3.162  10.634 -0.6089 -0.9033 -0.1412
  758MOL0     C99947   7.896   3.125  10.786  0.1512  0.0496  0.4101
  758MOL0     O99948   7.934   3.236  10.871 -0.3645 -0.1471 -0.4580
  758MOL0     C99949   7.839   3.319  10.934 -0.5356  1.2828 -0.5692
  758MOL0     C99950   7.730   3.267  11.005  0.0882 -0.2873  0.3373
  758MOL0     C99951   7.641   3.349  11.083 -0.7064 -0.5102  0.6138
  758MOL0     C99952   7.667   3.488  11.089  0.1535 -0.2590  0.2664
  758MOL0     C99953   7.583   3.573  11.185  0.2661  0.1036  0.0150
  758MOL0     O99954   7.634   3.691  11.233 -0.3034  0.4356  0.2216
  758MOL0     C99955   7.579   3.770  11.340 -0.0910 -0.7373  0.2763
  758MOL0     C99956   7.539   3.704  11.453  0.4852 -0.2275 -0.2880
  758MOL0     C99957   7.509   3.780  11.567  0.8782  1.1583  0.2675
  758MOL0     C99958   7.527   3.918  11.569 -0.8201 -0.0308 -0.3807
  758MOL0     O99959   7.504   3.986  11.688  0.3012  0.2154 -0.2588
  758MOL0     C99960   7.508   4.130  11.686  0.6176  0.0354 -0.5585
  758MOL0     C99961   7.481   4.169  11.836 -0.1600 -0.2454 -0.4467
  758MOL0     C99962   7.608   4.186  11.932 -0.1138 -0.3716  0.0853
  758MOL0     C99963   7.678   4.054  11.928  0.0983 -0.0220  0.6232
  758MOL0     C99964   7.797   4.059  12.021 -0.7628  0.1649 -0.4052
  758MOL0     C99965   7.867   3.931  12.034  0.0799 -0.3686 -0.2250
  758MOL0     C99966   7.970   3.935  12.152  0.4167  0.4163 -0.1352
  758MOL0     C99967   7.920   3.987  12.293  0.7201  0.1063  0.0740
  758MOL0    Cl99968   8.057   3.994  12.404 -0.0646  0.2279 -0.1017
  758MOL0     C99969   7.567   3.980  11.455  0.3199 -0.2298  1.0190
  758MOL0     C99970   7.586   3.910  11.334 -1.3091  0.2183  0.1014
  758MOL0     O99971   7.472   3.534  11.216 -0.4177  0.7670  1.0822
  758MOL0     C99972   7.769   3.537  11.002  0.4411  0.1055 -0.1713
  758MOL0     C99973   7.855   3.454  10.930  0.0543  0.7129 -0.5481
  758MOL0     N99974   8.231   3.437  10.574 -0.3456 -1.0002  0.1991
  758MOL0     N99975   8.325   3.529  10.540 -0.5587  0.7084 -0.2009
  758MOL0     C99976   9.267   3.029  10.660  0.6611 -0.4029  1.2495
  758MOL0     C99977   9.271   2.885  10.672 -0.6966 -0.0391  0.0808
  758MOL0     C99978   9.149   2.482  10.625  0.0663  0.0497 -0.4109
  758MOL0     C99979   9.029   2.418  10.669 -0.1002  0.3280  0.3949
  758MOL0     C99980   9.017   2.273  10.695  0.7326 -0.3331 -0.9966
  758MOL0     C99981   9.126   2.192  10.668 -0.9485 -0.1565  0.7591
  758MOL0     O99982   9.109   2.055  10.683  0.2691  0.0730  0.1825
  758MOL0     C99983   9.220   1.969  10.708 -0.0781 -0.4423 -0.4889
  758MOL0     C99984   9.309   1.943  10.568  0.3676  0.2726 -1.1045
  758MOL0     C99985   9.353   1.787  10.573 -0.0408  0.3274  0.6766
  758MOL0     C99986   9.396   1.752  10.433  0.5722 -0.5205  0.3888
  758MOL0     C99987   9.447   1.619  10.425  0.9955 -0.5983 -0.5826
  758MOL0     C99988   9.477   1.506  10.420 -0.6502  0.2836 -0.8613
  758MOL0     C99989   9.245   2.253  10.627 -0.5717 -0.2804 -0.5023
  758MOL0     C99990   9.254   2.393  10.603 -0.6897  0.8215 -0.2821
  758MOL0     H99991   9.312   2.805  10.339 -0.8703 -3.6350  1.5462
  758MOL0     H99992   9.323   3.055  10.331 -4.8106  0.4521 -1.3011
  758MOL0     H99993   9.063   3.251  10.496  0.0623 -1.2334 -0.9439
  758MOL0     H99994   9.159   3.202  10.348  3.4731 -1.1352 -0.0190
  758MOL0     H99995   9.265   3.416  10.347 -1.0341 -3.6164 -2.2496
  758MOL0     H99996   9.172   3.478  10.495 -2.4098 -1.7834  0.8145
  758MOL0     H99997   9.063   3.457  10.217  1.1841 -1.2778 -0.2189
  758MOL0     H99998   9.063   3.588  10.334 -1.1656  0.3236  1.4758
  758MOL0     H99999   8.906   3.324  10.371  1.0313  0.4839  1.2479
  758MOL0     H    0   8.926   3.464  10.474  1.4200  0.5279  0.1630
  758MOL0     H    1   8.800   3.463  10.194  2.9747 -1.1405  0.3893
  758MOL0     H    2   8.834   3.612  10.279 -2.2508 -0.0936 -1.5044
  758MOL0     H    3   8.687   3.580  10.446  2.6359  1.6166 -0.6948
  758MOL0     H    4   8.669   3.404  10.403 -0.3947  1.0289  1.7457
  758MOL0     H    5   8.603   3.631  10.211  0.9726 -0.6004  0.0109
  758MOL0     H    6   8.531   3.466  10.202 -2.5578  0.3766  0.7790
  758MOL0     H    7   8.386   3.625  10.254  0.8731  3.5783  0.6863
  758MOL0     H    8   8.465   3.684  10.394 -3.8141  2.1424 -2.2809
  758MOL0     H    9   8.316   3.331  10.276 -0.3225  1.5365 -2.0478
  758MOL0     H   10   8.137   3.167  10.391 -1.8834 -0.2094  0.1805
  758MOL0     H   11   8.027   3.303  10.409 -0.7175 -0.8462 -2.7479
  758MOL0     H   12   8.084   3.278  10.671  1.0437 -1.1908  0.2580
  758MOL0     H   13   8.128   3.111  10.622 -2.2940 -2.1620  2.5157
  758MOL0     H   14   7.841   3.237  10.610 -3.0305 -3.7006 -1.8604
  758MOL0     H   15   7.879   3.076  10.578 -3.9229 -0.1131  0.6542
  758MOL0     H   16   7.945   3.029  10.806  0.5125  0.2934  0.7068
  758MOL0     H   17   7.788   3.108  10.781 -0.2888  2.6416 -0.6405
  758MOL0     H   18   7.737   3.159  11.016 -0.9947 -0.2226  1.9263
  758MOL0     H   19   7.567   3.299  11.143 -1.3073  0.6098  0.8385
  758MOL0     H   20   7.533   3.596  11.453 -1.0502 -0.1845 -1.5922
  758MOL0     H   21   7.485   3.737  11.664  1.8499  0.3546  0.1611
  758MOL0     H   22   7.417   4.160  11.634  1.6933  1.4231 -1.7244
  758MOL0     H   23   7.596   4.175  11.638  0.4166 -1.4640 -2.4606
  758MOL0     H   24   7.419   4.089  11.876  0.7774 -1.8494 -2.0063
  758MOL0     H   25   7.425   4.263  11.838  1.3933  0.9078 -3.5688
  758MOL0     H   26   7.562   4.203  12.029 -2.2079 -0.7198 -0.7827
  758MOL0     H   27   7.665   4.273  11.897 -0.4946  0.3918  1.2991
  758MOL0     H   28   7.612   3.973  11.961  0.9549 -0.7835  0.5143
  758MOL0     H   29   7.710   4.028  11.827 -0.9838 -3.5891  1.0640
  758MOL0     H   30   7.752   4.095  12.114 -2.2240  0.4601 -1.1956
  758MOL0     H   31   7.866   4.141  11.996  1.3484 -1.6271 -0.7189
  758MOL0     H   32   7.910   3.908  11.936 -0.5195  1.2185 -0.8981
  758MOL0     H   33   7.783   3.864  12.053 -0.8161  0.2948 -1.6613
  758MOL0     H   34   8.011   3.835  12.172 -0.8785  0.2606  2.0438
  758MOL0     H   35   8.061   3.986  12.120  0.5542 -1.0759 -2.3563
  758MOL0     H   36   7.849   3.917  12.337  0.0405  0.1915 -0.8399
  758MOL0     H   37   7.885   4.091  12.293 -1.8161 -0.6571 -1.3697
  758MOL0     H   38   7.599   4.083  11.462  3.3785 -1.1193  2.0691
  758MOL0     H   39   7.627   3.965  11.250 -1.9551 -2.2202 -1.8946
  758MOL0     H   40   7.800   3.640  10.990  2.6392 -0.6803 -1.8873
  758MOL0     H   41   7.941   3.488  10.873  2.2729 -4.4803 -0.8371
  758MOL0     H   42   9.253   3.088  10.750 -2.7564 -2.7860  2.4790
  758MOL0     H   43   9.277   2.842  10.771 -0.6408 -2.5131 -0.9269
  758MOL0     H   44   8.945   2.484  10.691 -0.4671 -0.1814  0.5408
  758MOL0     H   45   8.919   2.235  10.723  1.2945 -1.6778 -0.7667
  758MOL0     H   46   9.182   1.876  10.752  2.8312 -0.8682  1.4837
  758MOL0     H   47   9.271   2.021  10.790  1.6345  1.5217 -2.6799
  758MOL0     H   48   9.237   1.953  10.486 -2.1088 -1.7926  0.6532
  758MOL0     H   49   9.396   2.008  10.562  0.4720  0.3000  0.4121
  758MOL0     H   50   9.279   1.715  10.609  1.4834 -2.1394 -0.8428
  758MOL0     H   51   9.442   1.776  10.636 -0.1665  0.2147  0.8357
  758MOL0     H   52   9.309   1.754  10.366 -1.1873 -3.3589  2.3857
  758MOL0     H   53   9.469   1.819  10.387  0.5887 -1.1184 -0.4799
  758MOL0     H   54   9.483   1.399  10.422 -0.7384  0.2855  0.3865
  758MOL0     H   55   9.333   2.196  10.600  0.9949  1.2901  1.0229
  758MOL0     H   56   9.338   2.432  10.545 -1.4687 -1.6014 -3.3242
  759MOL0     O   57   6.665   5.520   9.007  0.4659  0.2587 -0.7956
  759MOL0     C   58   6.748   5.451   8.956 -0.9718  0.1023  0.0959
  759MOL0     O   59   6.768   5.309   8.973 -0.6689 -0.2339 -0.5409
  759MOL0     C   60   6.737   5.268   9.106 -0.4261  0.2288 -0.2855
  759MOL0     C   61   6.769   5.349   9.221 -1.0583 -0.8995  0.3640
  759MOL0     C   62   6.729   5.305   9.343  0.5653  0.1702 -0.1538
  759MOL0     C   63   6.709   5.169   9.362 -1.0128 -0.2802 -0.5606
  759MOL0     O   64   6.694   5.108   9.485  0.8450 -0.1586  0.2939
  759MOL0     C   65   6.727   4.971   9.489  0.2875  0.9272  0.7354
  759MOL0     C   66   6.735   4.919   9.633 -0.1673 -0.1299  1.5437
  759MOL0     C   67   6.839   4.995   9.716  0.2390 -0.5843 -0.8505
  759MOL0     C   68   6.847   4.933   9.854 -0.5591  0.0061 -0.5792
  759MOL0     C   69   6.931   4.801   9.866 -0.7347  0.5256 -0.3820
  759MOL0     C   70   7.085   4.835   9.839  0.9851  0.7913 -1.0041
  759MOL0     C   71   7.171   4.715   9.882 -0.1309 -1.2296 -0.0836
  759MOL0     C   72   7.208   4.705  10.031  0.2836 -0.8289 -0.4254
  759MOL0     N   73   7.309   4.602  10.057 -0.0117 -0.8070 -0.7225
  759MOL0     C   74   7.420   4.612  10.146  0.5704 -0.2996  0.4193
  759MOL0     C   75   7.466   4.489  10.153 -0.5770 -0.4795 -0.0118
  759MOL0     C   76   7.580   4.444  10.234  0.2476  0.0763  0.4961
  759MOL0     C   77   7.591   4.520  10.370 -0.1294  0.9399 -0.1492
  759MOL0     C   78   7.484   4.463  10.462 -0.3623  0.1838 -0.0624
  759MOL0     C   79   7.497   4.515  10.608 -0.9183 -0.0860  0.1068
  759MOL0     O   80   7.623   4.473  10.660 -0.3944  0.0109  0.2638
  759MOL0     C   81   7.675   4.559  10.761  0.8650  0.4614  0.4863
  759MOL0     C   82   7.811   4.586  10.791 -0.2608  0.5330  0.2411
  759MOL0     C   83   7.857   4.650  10.907  0.0996  0.8879  0.1985
  759MOL0     C   84   7.772   4.707  10.991  0.3478  0.7404  0.3682
  759MOL0     C   85   7.807   4.781  11.115 -0.4188  0.7100 -0.7429
  759MOL0     O   86   7.932   4.818  11.121  0.1719  0.1728  0.1345
  759MOL0     C   87   7.975   4.864  11.240 -0.7283  0.0492 -0.9175
  759MOL0     C   88   8.034   4.781  11.345 -0.1387 -0.5381  0.6220
  759MOL0     C   89   8.085   4.842  11.460 -0.2211  0.4570  0.2906
  759MOL0     C   90   8.076   4.977  11.483 -0.7922  0.2192 -0.8457
  759MOL0     O   91   8.135   5.035  11.589  0.4913  0.4269  0.2096
  759MOL0     C   92   8.063   5.134  11.663 -0.0214 -0.4118 -0.3662
  759MOL0     C   93   8.122   5.123  11.804  0.2831  0.5724 -0.2616
  759MOL0     C   94   8.257   5.183  11.825 -0.7859 -0.0090  0.6611
  759MOL0     C   95   8.244   5.330  11.833  0.8143 -0.9211 -0.8849
  759MOL0     C   96   8.319   5.389  11.951  0.2646 -0.0169  0.1335
  759MOL0     C   97   8.476   5.359  11.957  0.3089 -0.5160  0.1233
  759MOL0     C   98   8.559   5.427  12.072  0.2842  0.2933 -0.4101
  759MOL0     C   99   8.586   5.566  12.043  0.6404  1.1032 -0.4242
  759MOL0    Cl  100   8.456   5.668  12.092 -0.3316 -0.2035 -0.0704
  759MOL0     C  101   8.008   5.051  11.395 -0.6689 -0.9678  1.2082
  759MOL0     C  102   7.962   5.008  11.274 -0.0286  0.4768  0.4848
  759MOL0     O  103   7.721   4.799  11.205  0.7087 -0.5230 -0.1002
  759MOL0     C  104   7.638   4.678  10.973 -0.0690  0.3605 -0.3403
  759MOL0     C  105   7.589   4.609  10.854 -0.8370 -0.2057 -0.9620
  759MOL0     N  106   7.396   4.408  10.059  0.7283 -0.1659 -0.3236
  759MOL0     N  107   7.299   4.477  10.004  0.6702 -0.0035  0.7918
  759MOL0     C  108   6.697   5.093   9.246  0.5721  0.1253 -0.0775
  759MOL0     C  109   6.706   5.143   9.117  0.6929 -0.1517 -0.0654
  759MOL0     C  110   6.824   5.520   8.846  1.1526  0.2928  0.1225
  759MOL0     C  111   6.893   5.434   8.758  0.2640  0.9932 -0.2467
  759MOL0     C  112   6.959   5.489   8.643 -0.4398  0.1862  0.2542
  759MOL0     C  113   6.958   5.623   8.615 -0.0670 -0.7886 -0.1513
  759MOL0     O  114   7.015   5.663   8.496 -0.0444  0.3446 -0.4809
  759MOL0     C  115   6.986   5.796   8.452 -0.5731 -0.2031 -0.5312
  759MOL0     C  116   7.113   5.877   8.442 -1.2379  0.8407 -0.7371
  759MOL0     C  117   7.173   5.896   8.578 -0.5884  0.2240 -0.3483
  759MOL0     C  118   7.310   5.979   8.569 -0.8422  0.5321 -0.4818
  759MOL0     C  119   7.395   5.979   8.691 -0.8975 -0.6243  0.4911
  759MOL0     C  120   7.466   5.978   8.793  0.7106  0.3802 -0.3154
  759MOL0     C  121   6.898   5.707   8.712  0.5884 -0.0804  0.0468
  759MOL0     C  122   6.831   5.656   8.819  0.0540 -0.3783 -0.6156
  759MOL0     H  123   6.792   5.455   9.207 -0.5760 -1.2892 -2.5454
  759MOL0     H  124   6.720   5.381   9.420 -0.2314  1.1703 -1.2085
  759MOL0     H  125   6.820   4.954   9.434 -0.4005  3.3143 -1.3478
  759MOL0     H  126   6.647   4.910   9.445  0.8836  1.2728 -0.8927
  759MOL0     H  127   6.749   4.811   9.631  2.1015  0.1136 -0.7636
  759MOL0     H  128   6.637   4.935   9.679  0.5625 -0.3599  3.2492
  759MOL0     H  129   6.810   5.100   9.726  3.0113  0.0516  2.2920
  759MOL0     H  130   6.934   4.986   9.664  0.0267  0.0903 -1.3708
  759MOL0     H  131   6.897   5.004   9.920 -1.2409 -1.5621  1.7618
  759MOL0     H  132   6.745   4.916   9.889 -0.0199  0.4880  1.3626
  759MOL0     H  133   6.890   4.734   9.790  0.1749 -2.8656  1.8951
  759MOL0     H  134   6.915   4.756   9.964 -1.7641  5.0318  1.7789
  759MOL0     H  135   7.111   4.921   9.902 -1.1976  1.3859 -0.7972
  759MOL0     H  136   7.108   4.847   9.733 -2.3012 -2.5154 -2.3374
  759MOL0     H  137   7.119   4.629   9.841  1.0763 -0.9188 -2.4431
  759MOL0     H  138   7.258   4.724   9.817  0.5388  1.1528  1.0150
  759MOL0     H  139   7.122   4.685  10.097 -0.7634 -2.3493 -2.1640
  759MOL0     H  140   7.245   4.803  10.062  1.4639 -0.5239 -2.6208
  759MOL0     H  141   7.440   4.711  10.185 -0.3931  0.8725 -1.8765
  759MOL0     H  142   7.677   4.466  10.190  0.0688  1.8424  0.9084
  759MOL0     H  143   7.570   4.337  10.252 -0.1984  0.0038 -0.1250
  759MOL0     H  144   7.577   4.627  10.351  3.1092  1.4611 -0.1429
  759MOL0     H  145   7.688   4.511  10.420  0.5474 -1.4551 -1.7443
  759MOL0     H  146   7.392   4.509  10.425  0.5130 -0.6686 -3.6169
  759MOL0     H  147   7.472   4.354  10.460 -1.1093  0.2739 -1.3966
  759MOL0     H  148   7.404   4.493  10.660 -1.9550  2.8262 -0.3298
  759MOL0     H  149   7.496   4.624  10.597 -0.0625  0.0095  0.8596
  759MOL0     H  150   7.883   4.539  10.724 -0.0759  1.3504 -0.1415
  759MOL0     H  151   7.961   4.673  10.929 -0.4701  1.2056  2.8764
  759MOL0     H  152   8.033   4.673  11.335 -0.5482 -0.5242  0.4588
  759MOL0     H  153   8.140   4.784  11.534  0.6190  0.4442 -0.3370
  759MOL0     H  154   7.955   5.112  11.661 -0.1171  0.0411 -0.2279
  759MOL0     H  155   8.089   5.233  11.626  0.3479 -0.3767 -0.0166
  759MOL0     H  156   8.140   5.017  11.822  0.4809  0.5659 -0.4835
  759MOL0     H  157   8.045   5.157  11.873 -1.1303  2.1213 -2.4775
  759MOL0     H  158   8.334   5.145  11.758  1.3870  1.2065  2.3683
  759MOL0     H  159   8.303   5.146  11.916  1.8227 -1.6966 -1.2103
  759MOL0     H  160   8.282   5.377  11.742  3.2750 -0.8973  0.0845
  759MOL0     H  161   8.138   5.352  11.845  0.7074 -1.2299 -1.2504
  759MOL0     H  162   8.281   5.353  12.048  2.6673 -1.7966  0.5083
  759MOL0     H  163   8.297   5.496  11.954 -2.6106 -0.5121 -0.0284
  759MOL0     H  164   8.518   5.388  11.861  0.4673  3.9043  1.3190
  759MOL0     H  165   8.477   5.250  11.957  2.3584 -0.5232 -0.2087
  759MOL0     H  166   8.517   5.427  12.174 -2.3178 -1.6258 -1.3576
  759MOL0     H  167   8.641   5.355  12.062  0.3175  0.1585  0.6704
  759MOL0     H  168   8.603   5.596  11.940  0.2611 -0.7118 -1.0531
  759MOL0     H  169   8.673   5.608  12.094  0.6259  2.0483 -1.1588
  759MOL0     H  170   8.006   5.158  11.410  3.0863 -0.5596 -0.2244
  759MOL0     H  171   7.915   5.072  11.200 -3.5614 -2.2445  0.1073
  759MOL0     H  172   7.576   4.711  11.055  1.9313 -0.8222  1.7684
  759MOL0     H  173   7.484   4.586  10.845 -0.5718 -0.6809 -3.3258
  759MOL0     H  174   6.681   4.986   9.237 -1.1522  0.0582  2.8894
  759MOL0     H  175   6.704   5.077   9.030 -0.2460 -1.8122  1.1599
  759MOL0     H  176   6.896   5.328   8.781  0.4612  0.5088 -2.2929
  759MOL0     H  177   7.001   5.431   8.561  2.9184  1.7063  0.7443
  759MOL0     H  178   6.911   5.850   8.511  2.1264  1.9047  1.2560
  759MOL0     H  179   6.938   5.801   8.353 -0.2368  0.2746 -0.6749
  759MOL0     H  180   7.190   5.824   8.385  1.1080  0.8537  2.1822
  759MOL0     H  181   7.096   5.977   8.401  0.2859  2.3797  2.0720
  759MOL0     H  182   7.200   5.796   8.613 -0.9192  0.7687  1.5857
  759MOL0     H  183   7.098   5.935   8.647 -0.9688 -1.4444  0.2403
  759MOL0     H  184   7.360   5.950   8.475  0.4983 -0.5401  0.5209
  759MOL0     H  185   7.271   6.080   8.556  0.9664  1.0284 -2.8101
  759MOL0     H  186   7.509   5.987   8.890  0.0257  0.8143 -0.0498
  759MOL0     H  187   6.886   5.813   8.694  0.4845  0.2415  1.8363
  759MOL0     H  188   6.776   5.728   8.878 -0.4917 -2.2530  1.2821
  760MOL0     O  189   1.834   8.561  10.674 -0.1369 -0.0689 -0.3420
  760MOL0     C  190   1.721   8.603  10.700 -0.3430 -0.3233  0.7950
  760MOL0     O  191   1.615   8.526  10.726  0.5702 -0.1358 -0.3337
  760MOL0     C  192   1.624   8.389  10.717 -0.4817 -0.2080  1.0377
  760MOL0     C  193   1.643   8.330  10.593 -0.6457 -0.0336  0.1697
  760MOL0     C  194   1.639   8.193  10.568  0.2789 -0.5882 -0.0546
  760MOL0     C  195   1.628   8.104  10.677 -0.2796  0.9734 -0.7688
  760MOL0     O  196   1.643   7.974  10.649  0.5139 -0.1340  0.3837
  760MOL0     C  197   1.563   7.879  10.727 -0.7714  1.5088  0.3777
  760MOL0     C  198   1.657   7.791  10.817  0.4329  0.5081  0.6461
  760MOL0     C  199   1.765   7.732  10.726 -0.4008  0.3012 -0.6731
  760MOL0     C  200   1.858   7.653  10.816 -0.4851 -0.3034 -0.7385
  760MOL0     C  201   1.927   7.544  10.728 -0.6425  0.0479  0.2790
  760MOL0     C  202   2.031   7.472  10.816 -0.8328 -0.2310 -0.8253
  760MOL0     C  203   2.129   7.394  10.726  0.0991 -0.1176 -0.5045
  760MOL0     C  204   2.239   7.327  10.805 -0.8066  0.5603 -0.5327
  760MOL0     N  205   2.203   7.248  10.925  1.0492  1.1443 -0.2173
  760MOL0     C  206   2.107   7.147  10.916 -0.4539  0.3468  0.0354
  760MOL0     C  207   2.107   7.085  11.037 -0.9623 -0.7106  0.0738
  760MOL0     C  208   2.022   6.969  11.076  0.1659 -0.3638 -0.2515
  760MOL0     C  209   2.116   6.856  11.123 -0.7868 -0.6625 -0.4205
  760MOL0     C  210   2.034   6.736  11.180  0.8952 -0.1408 -0.3219
  760MOL0     C  211   1.992   6.630  11.083  0.5635  0.5992  0.5727
  760MOL0     O  212   2.092   6.530  11.062 -0.0910  0.1786 -0.0651
  760MOL0     C  213   2.086   6.451  10.947 -1.0021  1.0575  0.7005
  760MOL0     C  214   2.197   6.367  10.925  0.2807  0.3444 -0.4848
  760MOL0     C  215   2.207   6.290  10.805 -0.3445  0.5844 -0.3356
  760MOL0     C  216   2.107   6.284  10.704  0.4418 -0.7534 -0.8055
  760MOL0     C  217   2.113   6.187  10.592  0.8940 -0.0868 -0.1029
  760MOL0     O  218   2.029   6.208  10.488  0.5046  0.3183  0.5183
  760MOL0     C  219   1.945   6.101  10.459  0.1289  0.8351 -0.1114
  760MOL0     C  220   1.880   6.028  10.555 -0.3547  0.1443  0.0881
  760MOL0     C  221   1.804   5.917  10.515  0.2028  0.1996 -0.0434
  760MOL0     C  222   1.793   5.892  10.373 -0.9352 -0.0187  0.4322
  760MOL0     O  223   1.718   5.798  10.320  0.9488  0.3558 -0.6452
  760MOL0     C  224   1.763   5.660  10.334 -0.3968 -0.0601  0.8799
  760MOL0     C  225   1.672   5.585  10.225 -0.1122 -0.0640 -0.0211
  760MOL0     C  226   1.699   5.437  10.212 -1.2381 -0.2018 -0.4858
  760MOL0     C  227   1.616   5.380  10.089  0.2304 -0.3603 -0.0226
  760MOL0     C  228   1.650   5.237  10.040  0.0359  0.6915 -0.5488
  760MOL0     C  229   1.606   5.147  10.166 -0.1265 -0.5775  0.4806
  760MOL0     C  230   1.631   5.000  10.139  0.3129  0.6500  0.5597
  760MOL0     C  231   1.579   4.950  10.005  0.4308 -0.1585  0.1907
  760MOL0    Cl  232   1.393   4.951   9.994 -0.7415 -0.3936 -0.4812
  760MOL0     C  233   1.852   5.980  10.280  0.5033  0.3098  0.2108
  760MOL0     C  234   1.933   6.075  10.325 -1.3934 -0.8241  0.3224
  760MOL0     O  235   2.205   6.108  10.594  0.0030  0.3944  0.5490
  760MOL0     C  236   1.990   6.381  10.720  0.9295  0.2084 -0.3934
  760MOL0     C  237   1.980   6.449  10.848 -0.7686 -0.1946 -0.5923
  760MOL0     N  238   2.206   7.139  11.115 -1.0331 -0.0628  0.4044
  760MOL0     N  239   2.264   7.234  11.052  0.4660 -0.3928  0.1614
  760MOL0     C  240   1.609   8.158  10.806 -0.0511  0.4181  0.3307
  760MOL0     C  241   1.604   8.304  10.821  0.4669 -0.2934  0.5201
  760MOL0     C  242   1.716   8.751  10.700  0.4669 -1.0492 -0.2166
  760MOL0     C  243   1.634   8.817  10.792 -0.6426 -0.5717 -0.0615
  760MOL0     C  244   1.656   8.953  10.822 -1.0918 -0.7876  0.0472
  760MOL0     C  245   1.756   9.026  10.759  0.5180 -0.9283 -0.5895
  760MOL0     O  246   1.784   9.158  10.789 -0.9751 -0.4639 -0.2374
  760MOL0     C  247   1.889   9.173  10.876 -0.4545 -0.9527 -0.3443
  760MOL0     C  248   1.871   9.284  10.984 -0.2363  0.2884  0.3615
  760MOL0     C  249   2.003   9.292  11.062 -0.2830  0.6019 -0.6353
  760MOL0     C  250   1.996   9.387  11.187  0.3522  0.6682 -0.3408
  760MOL0     C  251   1.986   9.531  11.151 -0.5464  0.2679  0.4468
  760MOL0     C  252   1.974   9.646  11.119  0.8647  0.8100 -1.1850
  760MOL0     C  253   1.813   8.957  10.655 -0.4189  0.5683  1.0927
  760MOL0     C  254   1.798   8.825  10.619  1.3707  0.1931 -0.8390
  760MOL0     H  255   1.667   8.381  10.500  0.8118 -1.3381 -0.2186
  760MOL0     H  256   1.660   8.148  10.472 -2.7456 -2.0975 -0.1063
  760MOL0     H  257   1.506   7.821  10.655 -1.0843  0.1609  1.6636
  760MOL0     H  258   1.491   7.925  10.797 -1.1639 -0.4507  1.3321
  760MOL0     H  259   1.597   7.705  10.850  0.8861 -0.3843 -0.7218
  760MOL0     H  260   1.693   7.843  10.906 -0.1778 -2.4339  2.7740
  760MOL0     H  261   1.828   7.797  10.665 -0.4317 -0.2184 -1.2601
  760MOL0     H  262   1.725   7.657  10.657  0.4996 -1.1667  0.3638
  760MOL0     H  263   1.935   7.717  10.858  1.0632 -0.9483 -2.4747
  760MOL0     H  264   1.822   7.606  10.908 -0.9003  0.9633 -0.2320
  760MOL0     H  265   1.974   7.602  10.649  0.5703  0.6511  1.4113
  760MOL0     H  266   1.848   7.482  10.683 -1.9036  2.0866 -0.4380
  760MOL0     H  267   1.992   7.414  10.900  1.5733 -0.6034  0.1162
  760MOL0     H  268   2.084   7.545  10.879 -2.7392  1.0623 -0.6082
  760MOL0     H  269   2.080   7.314  10.671  2.3647 -0.4746 -2.1341
  760MOL0     H  270   2.161   7.460  10.645 -1.6695 -0.8864 -1.8918
  760MOL0     H  271   2.310   7.403  10.837  1.2695 -2.0147  1.4044
  760MOL0     H  272   2.292   7.263  10.733 -2.6461 -2.1298  0.3620
  760MOL0     H  273   2.034   7.118  10.842 -2.6553 -0.8031  2.4921
  760MOL0     H  274   1.957   6.925  11.000 -1.1691  1.1356 -0.0329
  760MOL0     H  275   1.960   7.006  11.158  0.1304  3.0160 -1.6121
  760MOL0     H  276   2.179   6.895  11.204 -0.7651 -2.0241  0.2422
  760MOL0     H  277   2.180   6.817  11.043  3.1629  4.0065 -0.0430
  760MOL0     H  278   2.085   6.688  11.265 -1.8225 -0.5025  1.2270
  760MOL0     H  279   1.952   6.782  11.235  0.7306 -1.8840  0.9849
  760MOL0     H  280   1.980   6.672  10.983  4.2096  0.2089 -0.1458
  760MOL0     H  281   1.895   6.589  11.113  1.0397 -0.2328  1.0155
  760MOL0     H  282   2.281   6.362  10.994 -0.0949  1.1045  0.0444
  760MOL0     H  283   2.289   6.219  10.796 -3.5794 -3.7099  0.8763
  760MOL0     H  284   1.874   6.061  10.658 -0.6177 -3.6914  1.4276
  760MOL0     H  285   1.748   5.868  10.595  0.1621  0.5054  0.1167
  760MOL0     H  286   1.747   5.622  10.435  2.7977  3.3089  2.9199
  760MOL0     H  287   1.869   5.655  10.305 -0.8214  0.1146 -0.7623
  760MOL0     H  288   1.704   5.619  10.126  0.0219  1.5736  0.5468
  760MOL0     H  289   1.567   5.613  10.234 -0.0425  1.3754 -2.5918
  760MOL0     H  290   1.676   5.378  10.301  1.8882 -0.5959  0.1587
  760MOL0     H  291   1.802   5.412  10.186 -1.3394 -0.6140 -0.4883
  760MOL0     H  292   1.510   5.389  10.113  0.4268 -1.2824  1.3134
  760MOL0     H  293   1.637   5.442  10.002  1.1402 -0.0283  0.4169
  760MOL0     H  294   1.755   5.222  10.011  0.1466  1.1242 -0.3870
  760MOL0     H  295   1.573   5.213   9.966 -1.5169 -1.8794  1.7247
  760MOL0     H  296   1.499   5.151  10.188 -0.6946 -4.3640 -0.9383
  760MOL0     H  297   1.665   5.172  10.255  2.1875 -0.7020 -0.9536
  760MOL0     H  298   1.738   4.980  10.128 -0.1924 -1.0662 -2.5009
  760MOL0     H  299   1.597   4.925  10.210 -1.1838 -0.0397 -0.8186
  760MOL0     H  300   1.605   4.843  10.004 -2.7215 -1.0416  1.6769
  760MOL0     H  301   1.616   4.997   9.914  1.2317 -0.6982  0.2227
  760MOL0     H  302   1.850   5.951  10.175 -2.2720 -0.5344  0.4282
  760MOL0     H  303   1.996   6.125  10.252 -1.2798 -1.3543  0.0537
  760MOL0     H  304   1.910   6.367  10.648 -0.9819  0.5920  1.5636
  760MOL0     H  305   1.889   6.505  10.863 -0.0801  2.1124 -3.9989
  760MOL0     H  306   1.610   8.087  10.888  0.2135 -1.6666 -1.3958
  760MOL0     H  307   1.587   8.332  10.925  1.6001 -1.7144  1.1213
  760MOL0     H  308   1.568   8.772  10.866 -1.3315 -1.9422 -1.4399
  760MOL0     H  309   1.608   9.004  10.904 -0.7734 -0.5935  0.1159
  760MOL0     H  310   1.981   9.183  10.818 -0.6714  1.9143 -0.3758
  760MOL0     H  311   1.898   9.084  10.939 -1.5051 -1.8506 -1.4247
  760MOL0     H  312   1.851   9.385  10.947  2.3731  1.5175  2.0223
  760MOL0     H  313   1.793   9.238  11.045  0.1448  0.7170  1.1909
  760MOL0     H  314   2.083   9.316  10.990  0.1417 -0.1618 -0.4286
  760MOL0     H  315   2.034   9.195  11.101  0.6028  0.1429 -2.3401
  760MOL0     H  316   1.909   9.366  11.250  0.8128  2.8371  1.1542
  760MOL0     H  317   2.077   9.358  11.255  2.7707 -3.1125 -4.3262
  760MOL0     H  318   1.960   9.749  11.092 -0.4273  1.4814  1.6747
  760MOL0     H  319   1.879   9.013  10.590  2.2034 -1.3520  1.9208
  760MOL0     H  320   1.856   8.770  10.546 -1.4018 -1.9519 -1.6165
  761MOL0     O  321  11.279  10.811   3.845 -0.4246 -0.5657  0.0336
  761MOL0     C  322  11.249  10.803   3.963 -0.4739 -0.1833 -0.6881
  761MOL0     O  323  11.300  10.868   4.065 -0.8128  0.2432 -0.1697
  761MOL0     C  324  11.398  10.957   4.048 -0.6835 -0.1940  0.2781
  761MOL0     C  325  11.519  10.907   4.009 -0.0568 -1.1910 -0.1603
  761MOL0     C  326  11.640  10.991   4.004 -0.1241  0.0751 -0.1837
  761MOL0     C  327  11.615  11.129   4.034 -1.0719 -0.6806  0.9328
  761MOL0     O  328  11.716  11.226   4.038 -0.3432  0.1267  0.8435
  761MOL0     C  329  11.847  11.185   3.990 -0.1728  1.2200  0.3081
  761MOL0     C  330  11.953  11.288   4.035  1.1269  0.1058 -0.6717
  761MOL0     C  331  12.102  11.259   3.984 -0.0747  0.1975  0.0276
  761MOL0     C  332  12.204  11.344   4.057 -0.3523  0.6346 -0.6672
  761MOL0     C  333  12.329  11.361   3.967  0.0540 -0.3056  0.6462
  761MOL0     C  334  12.474  11.372   4.026  0.5286 -0.7328 -0.8056
  761MOL0     C  335  12.601  11.409   3.938 -0.0068 -0.1037 -0.6457
  761MOL0     C  336  12.571  11.430   3.786 -0.5402 -0.6462  0.7323
  761MOL0     N  337  12.567  11.577   3.751 -0.1877 -0.2937 -0.4835
  761MOL0     C  338  12.470  11.670   3.771  0.9235 -0.1957  0.3247
  761MOL0     C  339  12.518  11.780   3.726 -1.1297  0.9179 -0.2947
  761MOL0     C  340  12.431  11.894   3.715 -0.0184 -0.1879 -0.0265
  761MOL0     C  341  12.501  12.030   3.706 -0.5952 -0.8775  0.5436
  761MOL0     C  342  12.517  12.063   3.551  0.4286 -0.2948  0.1476
  761MOL0     C  343  12.593  12.196   3.532 -0.1142 -0.3339 -0.9366
  761MOL0     O  344  12.581  12.244   3.397  0.2491  0.3104 -0.5343
  761MOL0     C  345  12.613  12.374   3.394 -0.1943 -0.0573 -0.6104
  761MOL0     C  346  12.681  12.447   3.502 -0.5457 -0.4007  0.3521
  761MOL0     C  347  12.723  12.580   3.476  0.5055 -0.6938 -0.3004
  761MOL0     C  348  12.680  12.648   3.356  0.7528  0.5645 -0.2195
  761MOL0     C  349  12.712  12.789   3.334  0.0417  0.3357  0.6285
  761MOL0     O  350  12.671  12.834   3.213  1.0144  0.3289 -0.0327
  761MOL0     C  351  12.715  12.966   3.181 -0.1900  0.5666 -0.1186
  761MOL0     C  352  12.623  13.060   3.160  0.5550 -0.2705 -0.2548
  761MOL0     C  353  12.649  13.183   3.097 -0.7306 -0.4943  0.1748
  761MOL0     C  354  12.781  13.220   3.076  0.5999 -0.9448  0.8160
  761MOL0     O  355  12.832  13.340   3.024 -0.5151 -0.2437  0.1341
  761MOL0     C  356  12.760  13.461   3.008 -0.5003  0.5103  0.5269
  761MOL0     C  357  12.840  13.549   2.915  0.2078 -0.3067 -0.6093
  761MOL0     C  358  12.788  13.692   2.912 -0.0115  0.0595  0.2558
  761MOL0     C  359  12.642  13.705   2.873  0.9242  0.2175  0.1572
  761MOL0     C  360  12.610  13.850   2.839  0.1061 -0.1766 -1.0112
  761MOL0     C  361  12.465  13.869   2.780  0.0104  0.7198 -1.0102
  761MOL0     C  362  12.354  13.871   2.888 -0.5794  0.1533 -1.2352
  761MOL0     C  363  12.338  14.007   2.970  0.0884  0.4205 -0.4065
  761MOL0    Cl  364  12.305  14.137   2.847 -0.0850  0.1236 -0.0342
  761MOL0     C  365  12.879  13.121   3.097 -0.5728  1.2419 -0.4214
  761MOL0     C  366  12.845  12.990   3.138  0.0179  0.2667  0.6268
  761MOL0     O  367  12.779  12.849   3.418 -0.2664 -0.5418 -0.6096
  761MOL0     C  368  12.605  12.576   3.265 -0.3460  0.1885  1.1700
  761MOL0     C  369  12.574  12.439   3.276 -1.3228 -0.3247 -0.1544
  761MOL0     N  370  12.648  11.758   3.678  0.1702 -0.2920  0.3219
  761MOL0     N  371  12.674  11.635   3.690 -0.1447  0.5263 -0.1900
  761MOL0     C  372  11.490  11.178   4.061 -0.0929 -0.2851  0.3575
  761MOL0     C  373  11.379  11.102   4.074  0.2617 -0.2595 -0.5827
  761MOL0     C  374  11.137  10.716   4.000 -0.0043 -0.4062  0.6460
  761MOL0     C  375  11.082  10.647   3.887  0.2453 -0.5626 -0.3749
  761MOL0     C  376  10.980  10.547   3.903 -0.9034 -1.3313  0.0437
  761MOL0     C  377  10.927  10.525   4.031  0.5448 -0.5211  0.2274
  761MOL0     O  378  10.817  10.446   4.032  0.1162 -0.1753  0.1183
  761MOL0     C  379  10.849  10.310   4.072  0.7651  0.1250  0.4720
  761MOL0     C  380  10.735  10.241   4.157  0.7799  0.3708 -0.3507
  761MOL0     C  381  10.671  10.347   4.258 -0.0441  0.4507 -0.5272
  761MOL0     C  382  10.566  10.265   4.336  0.0905 -0.3406  0.4417
  761MOL0     C  383  10.537  10.340   4.458  0.0017 -0.8522 -0.1208
  761MOL0     C  384  10.494  10.402   4.558  0.6769 -0.6568 -0.4284
  761MOL0     C  385  10.980  10.601   4.140 -0.4506  0.9750 -0.7392
  761MOL0     C  386  11.082  10.693   4.127  0.3497  0.3036 -1.0716
  761MOL0     H  387  11.512  10.799   3.997  0.8650 -2.0074  4.6530
  761MOL0     H  388  11.741  10.951   4.008  1.1794  3.0876  0.2838
  761MOL0     H  389  11.843  11.195   3.881  2.8299 -0.5607 -0.0662
  761MOL0     H  390  11.881  11.085   4.016  0.0852  1.2568  0.1195
  761MOL0     H  391  11.970  11.284   4.143  3.4371  1.6737 -0.8939
  761MOL0     H  392  11.919  11.391   4.020  2.0842  0.4320 -0.7259
  761MOL0     H  393  12.097  11.267   3.875 -2.0042  2.7464  0.1871
  761MOL0     H  394  12.122  11.156   4.015 -1.1763 -0.1176 -0.2334
  761MOL0     H  395  12.153  11.439   4.070  0.0588  1.0732 -2.1074
  761MOL0     H  396  12.228  11.301   4.155  0.0051 -3.3897 -2.3189
  761MOL0     H  397  12.310  11.447   3.902  0.5287 -0.4337  0.3328
  761MOL0     H  398  12.325  11.284   3.890 -1.5145 -0.1654  0.5567
  761MOL0     H  399  12.494  11.279   4.080  0.3311  0.4892  1.4875
  761MOL0     H  400  12.467  11.453   4.100  2.4578  1.3763 -2.7672
  761MOL0     H  401  12.649  11.499   3.977 -1.9850  0.0801  1.5559
  761MOL0     H  402  12.677  11.331   3.950 -1.4284 -1.4943 -0.3953
  761MOL0     H  403  12.479  11.379   3.758 -2.6322  3.6432 -1.1708
  761MOL0     H  404  12.647  11.385   3.722 -2.5431  0.4965 -2.7100
  761MOL0     H  405  12.376  11.660   3.824  1.4165 -0.4366  1.1850
  761MOL0     H  406  12.368  11.905   3.804 -3.2794  1.3489 -2.3578
  761MOL0     H  407  12.359  11.876   3.636 -0.2885  0.0213  0.1683
  761MOL0     H  408  12.596  12.028   3.761 -1.0788  2.0087  1.6407
  761MOL0     H  409  12.437  12.108   3.748 -0.1738  0.8468 -1.8427
  761MOL0     H  410  12.561  11.975   3.502 -0.7805 -0.3775 -0.8349
  761MOL0     H  411  12.416  12.081   3.513  0.4274  0.7792  0.6377
  761MOL0     H  412  12.698  12.181   3.559  0.9312  0.1668 -4.2553
  761MOL0     H  413  12.541  12.266   3.599  0.6591 -1.5744  1.0316
  761MOL0     H  414  12.737  12.417   3.590  1.3774 -0.9324 -0.9826
  761MOL0     H  415  12.783  12.643   3.541 -1.5135  2.3135 -1.1641
  761MOL0     H  416  12.521  13.036   3.187  0.1835 -0.2601 -1.5797
  761MOL0     H  417  12.580  13.263   3.074  1.0620  0.5782 -1.8089
  761MOL0     H  418  12.760  13.503   3.109 -0.2736  1.5517  0.1100
  761MOL0     H  419  12.657  13.456   2.972 -0.4377  0.6360  0.3299
  761MOL0     H  420  12.823  13.514   2.813 -1.3560  1.8785 -1.1663
  761MOL0     H  421  12.943  13.551   2.952 -0.0036  0.9622 -0.0288
  761MOL0     H  422  12.853  13.750   2.846  1.9183  0.4634  2.3643
  761MOL0     H  423  12.804  13.743   3.007  1.7922 -1.4603  0.8533
  761MOL0     H  424  12.612  13.639   2.792  1.0884 -1.5782  1.5123
  761MOL0     H  425  12.580  13.688   2.961  2.2486 -2.5237  0.6508
  761MOL0     H  426  12.687  13.901   2.780  4.2695  0.2104  3.9830
  761MOL0     H  427  12.607  13.888   2.942 -1.0278 -0.3748 -0.9610
  761MOL0     H  428  12.442  13.799   2.699 -1.4513 -0.3597  0.2718
  761MOL0     H  429  12.459  13.973   2.745 -0.0429  1.5806  1.3706
  761MOL0     H  430  12.261  13.865   2.832 -1.7896  1.5152  0.5194
  761MOL0     H  431  12.358  13.789   2.961  2.0212  1.9150  0.7944
  761MOL0     H  432  12.432  14.008   3.025 -1.5609 -3.8867  3.1048
  761MOL0     H  433  12.256  14.016   3.042 -0.6019 -3.4546 -0.5095
  761MOL0     H  434  12.979  13.150   3.065 -0.1959  1.9857  1.3213
  761MOL0     H  435  12.911  12.904   3.144 -0.1615  0.1883  1.8936
  761MOL0     H  436  12.561  12.610   3.172 -0.5792  0.3305  1.3305
  761MOL0     H  437  12.540  12.382   3.190  2.4394 -2.9107 -0.1576
  761MOL0     H  438  11.467  11.281   4.086 -0.9554 -1.2278  4.0991
  761MOL0     H  439  11.285  11.153   4.096  1.0218  1.4250 -1.0767
  761MOL0     H  440  11.113  10.650   3.783 -1.1974  3.4868 -0.8837
  761MOL0     H  441  10.950  10.480   3.823 -4.1126  0.1176 -0.1668
  761MOL0     H  442  10.935  10.308   4.139 -0.8569  2.9474  2.8601
  761MOL0     H  443  10.876  10.255   3.981  1.7869  0.9020  0.2903
  761MOL0     H  444  10.664  10.202   4.083 -0.2392  0.3892  0.5927
  761MOL0     H  445  10.775  10.149   4.201  1.9934  0.0364 -2.0333
  761MOL0     H  446  10.619  10.427   4.204 -1.2326 -0.0467 -0.1579
  761MOL0     H  447  10.751  10.385   4.322  2.8331 -2.6771 -1.9092
  761MOL0     H  448  10.472  10.248   4.283 -1.3424  3.9986  1.1268
  761MOL0     H  449  10.605  10.165   4.354  1.8113  0.0375 -0.9400
  761MOL0     H  450  10.460  10.462   4.640  0.6846  0.3606 -1.1560
  761MOL0     H  451  10.942  10.574   4.238 -0.8742  1.9711 -0.6176
  761MOL0     H  452  11.114  10.757   4.209  3.7128  3.6619 -4.5723
  762MOL0     O  453   6.611   9.295   1.981  0.0679  0.0701 -0.5288
  762MOL0     C  454   6.636   9.253   1.870 -0.0606 -0.7504  0.7515
  762MOL0     O  455   6.706   9.322   1.768 -0.1377 -0.1675  0.4542
  762MOL0     C  456   6.754   9.449   1.779  0.2231 -0.4199 -1.2111
  762MOL0     C  457   6.735   9.538   1.893  1.3706  0.8792 -0.1586
  762MOL0     C  458   6.801   9.666   1.905  0.6582  0.4454  0.2338
  762MOL0     C  459   6.873   9.717   1.791  0.9522  0.1261 -1.2356
  762MOL0     O  460   6.917   9.844   1.797 -0.7064 -0.3772 -0.6512
  762MOL0     C  461   6.947   9.918   1.919  0.5896 -0.2085 -1.0591
  762MOL0     C  462   6.825  10.017   1.934  0.3286 -0.2534 -0.7382
  762MOL0     C  463   6.822  10.078   2.076  0.1980  0.0277  0.1713
  762MOL0     C  464   6.963  10.142   2.097 -0.6108  0.3143 -0.2319
  762MOL0     C  465   6.960  10.249   2.204 -0.2654 -0.3726 -0.2561
  762MOL0     C  466   6.884  10.212   2.328  0.1427 -0.2858 -0.1047
  762MOL0     C  467   6.909  10.318   2.436  0.5696  0.3492  0.0950
  762MOL0     C  468   7.048  10.306   2.505 -0.3977 -0.1134 -0.0286
  762MOL0     N  469   7.072  10.414   2.602 -0.0130  0.2500 -0.1176
  762MOL0     C  470   7.088  10.549   2.599 -0.4969 -0.5109 -0.2163
  762MOL0     C  471   7.101  10.589   2.723 -0.1627 -1.3817  0.1183
  762MOL0     C  472   7.129  10.732   2.778 -1.4281  0.1007 -0.3335
  762MOL0     C  473   7.045  10.845   2.716  0.2819 -0.5008 -0.4327
  762MOL0     C  474   6.894  10.869   2.754 -0.1742  0.3160  0.3355
  762MOL0     C  475   6.865  10.901   2.898 -0.7797 -0.2953  0.1187
  762MOL0     O  476   6.722  10.910   2.923  0.7326  0.3247  0.0581
  762MOL0     C  477   6.657  10.789   2.939 -0.3942  0.3899  0.5318
  762MOL0     C  478   6.715  10.661   2.938 -0.9324 -0.0002 -0.2298
  762MOL0     C  479   6.642  10.547   2.923 -0.7301  0.0975  0.0522
  762MOL0     C  480   6.498  10.561   2.894 -0.6949 -0.3010  0.6247
  762MOL0     C  481   6.416  10.437   2.888  0.9313 -0.4099  0.4473
  762MOL0     O  482   6.284  10.474   2.873  0.5165  0.3813  0.4989
  762MOL0     C  483   6.184  10.384   2.830 -0.6451  0.2451  0.4908
  762MOL0     C  484   6.058  10.412   2.883  0.3255 -0.0089 -0.2735
  762MOL0     C  485   5.946  10.345   2.836 -0.5198  0.6741 -1.2499
  762MOL0     C  486   5.957  10.249   2.741 -0.0096 -0.2469  1.1693
  762MOL0     O  487   5.828  10.199   2.713 -0.9408  0.3154  0.5845
  762MOL0     C  488   5.835  10.117   2.592  0.7926  0.4857  0.4524
  762MOL0     C  489   5.698  10.045   2.577  0.2922  1.2846  1.2263
  762MOL0     C  490   5.651   9.970   2.704 -0.4053  0.7843 -0.3443
  762MOL0     C  491   5.528   9.885   2.678 -0.4486 -0.3899 -0.5776
  762MOL0     C  492   5.483   9.811   2.809 -0.0936  0.2825  0.0840
  762MOL0     C  493   5.374   9.707   2.781  0.5800 -0.7144  0.2197
  762MOL0     C  494   5.333   9.623   2.909  0.8132  0.6163 -0.4551
  762MOL0     C  495   5.232   9.518   2.875 -0.0488  0.1290 -0.5703
  762MOL0    Cl  496   5.321   9.384   2.800  0.1671  0.1033  0.6390
  762MOL0     C  497   6.081  10.218   2.679 -0.7203  0.1793  0.0608
  762MOL0     C  498   6.194  10.288   2.722  0.1889 -0.1468 -0.3272
  762MOL0     O  499   6.462  10.327   2.898 -0.6427  0.6832 -0.6559
  762MOL0     C  500   6.444  10.688   2.896 -0.1847 -0.1195 -0.8948
  762MOL0     C  501   6.527  10.802   2.916 -0.0468 -0.3908  0.4903
  762MOL0     N  502   7.078  10.495   2.810 -0.0183  0.2421  0.2207
  762MOL0     N  503   7.069  10.386   2.739  0.5045  0.2919  0.1631
  762MOL0     C  504   6.876   9.636   1.680 -0.6330  0.1751 -0.1128
  762MOL0     C  505   6.837   9.498   1.683  0.2545 -0.1054 -0.7142
  762MOL0     C  506   6.616   9.111   1.831  0.3012  0.4000  0.1661
  762MOL0     C  507   6.667   9.064   1.707  0.4934  0.3809 -0.2492
  762MOL0     C  508   6.642   8.930   1.658  1.2444 -0.1582  0.1891
  762MOL0     C  509   6.570   8.848   1.743  0.2079 -0.2395 -0.8621
  762MOL0     O  510   6.543   8.718   1.701  0.1968  0.2743 -0.6626
  762MOL0     C  511   6.455   8.633   1.777 -0.4202  0.5274 -0.1446
  762MOL0     C  512   6.443   8.479   1.739 -0.4693 -0.6870  1.0366
  762MOL0     C  513   6.402   8.470   1.588  0.2277 -0.5196  0.1510
  762MOL0     C  514   6.252   8.445   1.576  0.6786  0.2555  1.9594
  762MOL0     C  515   6.210   8.305   1.600 -0.3122 -0.3554 -0.0225
  762MOL0     C  516   6.156   8.206   1.637  0.3908  0.1590  0.9108
  762MOL0     C  517   6.511   8.895   1.863 -0.3574 -0.4618  0.4295
  762MOL0     C  518   6.538   9.020   1.900  0.7272 -0.2754 -0.3765
  762MOL0     H  519   6.659   9.538   1.971 -0.1205  0.8386 -1.5674
  762MOL0     H  520   6.783   9.719   1.998 -0.5382  1.6651 -0.6516
  762MOL0     H  521   7.037   9.980   1.909 -0.7664  3.2685  3.9922
  762MOL0     H  522   6.966   9.854   2.006  3.5006 -1.0287 -2.1723
  762MOL0     H  523   6.729   9.966   1.923  0.5846 -1.7556  2.6749
  762MOL0     H  524   6.812  10.083   1.848  0.4717 -0.8441 -1.2254
  762MOL0     H  525   6.801  10.008   2.158  1.1385 -0.0268  0.3755
  762MOL0     H  526   6.746  10.157   2.074  0.7889  0.5994 -1.9480
  762MOL0     H  527   7.027  10.061   2.132 -1.4654  0.8165  2.7762
  762MOL0     H  528   7.014  10.177   2.007 -1.1785 -0.2001 -0.7661
  762MOL0     H  529   6.906  10.333   2.159 -1.8478 -0.8806  0.6223
  762MOL0     H  530   7.061  10.285   2.226  1.5128 -4.3403 -1.1220
  762MOL0     H  531   6.926  10.118   2.367 -0.1643 -0.6553 -0.6499
  762MOL0     H  532   6.777  10.196   2.315 -0.7606  0.2806  4.8055
  762MOL0     H  533   6.891  10.410   2.380 -3.8860 -1.0955 -1.2502
  762MOL0     H  534   6.825  10.317   2.507  1.5464 -0.6550  1.2938
  762MOL0     H  535   7.127  10.299   2.429  0.7188 -2.1821  1.2068
  762MOL0     H  536   7.039  10.215   2.566  0.0508  2.0090  3.4738
  762MOL0     H  537   7.123  10.608   2.514  2.7030 -2.7847 -0.6680
  762MOL0     H  538   7.235  10.752   2.765 -0.6097 -2.6464  1.0942
  762MOL0     H  539   7.115  10.746   2.886 -0.2239  6.7928 -0.6549
  762MOL0     H  540   7.046  10.852   2.607 -2.8412  3.7492 -0.4534
  762MOL0     H  541   7.092  10.933   2.762 -0.5812 -1.2392  2.0049
  762MOL0     H  542   6.874  10.954   2.689  0.0181  0.2525  0.1931
  762MOL0     H  543   6.836  10.783   2.719  0.3023  0.0188  0.2661
  762MOL0     H  544   6.921  10.995   2.913 -1.5840  0.2265 -0.0948
  762MOL0     H  545   6.926  10.842   2.967 -1.2563  0.0751  0.8710
  762MOL0     H  546   6.822  10.647   2.946 -0.6150  0.4849 -2.8829
  762MOL0     H  547   6.703  10.458   2.928 -0.9614 -0.3396 -3.0351
  762MOL0     H  548   6.049  10.488   2.960 -0.9678  1.9920 -2.2980
  762MOL0     H  549   5.849  10.353   2.885 -0.1915 -3.3280  0.4451
  762MOL0     H  550   5.918  10.049   2.614  0.4146 -0.4932 -1.0271
  762MOL0     H  551   5.874  10.156   2.497  2.2063 -0.5410  0.5723
  762MOL0     H  552   5.697   9.970   2.498  0.0631  3.2358 -0.7275
  762MOL0     H  553   5.626  10.125   2.554 -0.4219  1.2776  3.1919
  762MOL0     H  554   5.644  10.029   2.796  2.6505 -0.6993  0.9734
  762MOL0     H  555   5.734   9.903   2.727  1.4531  2.7136 -1.1252
  762MOL0     H  556   5.453   9.956   2.642  2.9144  2.8990 -1.6938
  762MOL0     H  557   5.537   9.810   2.598  0.7302  2.0948 -2.9154
  762MOL0     H  558   5.443   9.884   2.880  0.9970 -1.4972  2.6838
  762MOL0     H  559   5.569   9.763   2.857 -1.3845 -2.4595 -0.1813
  762MOL0     H  560   5.406   9.635   2.705  0.3322 -1.2065  0.5779
  762MOL0     H  561   5.283   9.743   2.733  1.8841 -0.2323 -2.0282
  762MOL0     H  562   5.421   9.577   2.955 -0.0395  2.1880  3.1345
  762MOL0     H  563   5.287   9.697   2.976  1.6756 -0.8314  1.8641
  762MOL0     H  564   5.162   9.551   2.798 -0.3461  2.8563  0.7390
  762MOL0     H  565   5.182   9.484   2.966 -2.9900  0.5698 -1.9039
  762MOL0     H  566   6.095  10.153   2.593 -0.7489  0.0892  0.1237
  762MOL0     H  567   6.296  10.268   2.690  0.9083  1.0667  1.1034
  762MOL0     H  568   6.338  10.697   2.876 -0.3916 -0.3994  0.0183
  762MOL0     H  569   6.485  10.899   2.891  2.6532  0.9079  0.6344
  762MOL0     H  570   6.947   9.672   1.606  0.5436  0.1728  0.9732
  762MOL0     H  571   6.863   9.437   1.597 -1.1052 -0.3227 -1.0069
  762MOL0     H  572   6.720   9.128   1.638  1.8200 -1.2284 -0.7890
  762MOL0     H  573   6.671   8.890   1.562  3.1113  0.1511  0.5946
  762MOL0     H  574   6.354   8.676   1.786  0.7093  3.1538  1.2127
  762MOL0     H  575   6.476   8.634   1.885 -0.4879 -3.4183  0.0555
  762MOL0     H  576   6.539   8.426   1.738  0.1103  0.3285  1.2739
  762MOL0     H  577   6.373   8.442   1.813 -2.0440  1.0585  0.5043
  762MOL0     H  578   6.454   8.388   1.538 -1.0391 -1.6853  0.6697
  762MOL0     H  579   6.433   8.566   1.544  3.0447 -0.2912  2.3287
  762MOL0     H  580   6.194   8.508   1.644 -2.0482 -1.9182  1.8635
  762MOL0     H  581   6.230   8.467   1.471 -0.0869 -1.5809  1.6977
  762MOL0     H  582   6.106   8.127   1.688 -0.5739  0.1500  0.0057
  762MOL0     H  583   6.443   8.849   1.934 -1.5730 -1.1797 -1.1348
  762MOL0     H  584   6.492   9.044   1.996 -0.8146 -0.0316 -1.1485
  763MOL0     O  585  10.437  10.348  11.324  0.7494  0.6858  0.1442
  763MOL0     C  586  10.473  10.458  11.283  0.5676 -0.7296  0.6894
  763MOL0     O  587  10.599  10.507  11.307  0.3005 -0.2449 -0.3459
  763MOL0     C  588  10.694  10.453  11.385 -0.0025  0.4638  0.4437
  763MOL0     C  589  10.687  10.333  11.462  0.6885 -0.7246  0.7198
  763MOL0     C  590  10.787  10.288  11.539  0.3735  1.0091  0.5881
  763MOL0     C  591  10.916  10.345  11.538  0.2541 -0.4396  0.3206
  763MOL0     O  592  11.005  10.296  11.626 -0.0372 -0.1029 -0.3974
  763MOL0     C  593  11.136  10.283  11.581 -0.0979  0.5441  0.4830
  763MOL0     C  594  11.188  10.152  11.634 -0.2728  0.8621 -0.1213
  763MOL0     C  595  11.094  10.034  11.600  0.2816 -0.0911 -0.9545
  763MOL0     C  596  11.139   9.909  11.670 -0.5999  0.2942  0.0702
  763MOL0     C  597  11.017   9.830  11.717 -0.0819  0.5315  0.4998
  763MOL0     C  598  10.953   9.885  11.845  0.5499 -1.1746 -0.2160
  763MOL0     C  599  10.862   9.789  11.917  0.6907  0.7297 -0.3181
  763MOL0     C  600  10.738   9.743  11.836  0.0464  0.3916  0.1581
  763MOL0     N  601  10.663   9.853  11.777 -0.1665 -0.1319 -0.4502
  763MOL0     C  602  10.565   9.935  11.828  1.9709 -1.3029  0.8074
  763MOL0     C  603  10.523  10.012  11.726  0.2277  0.3277  0.8361
  763MOL0     C  604  10.419  10.132  11.713  0.2192  0.4610  0.7523
  763MOL0     C  605  10.282  10.085  11.758  0.4934 -0.8032  0.3240
  763MOL0     C  606  10.176  10.195  11.727  0.4248 -0.7151 -0.2301
  763MOL0     C  607  10.042  10.134  11.709 -0.5176  0.0552 -0.4200
  763MOL0     O  608  10.011  10.077  11.583  0.0085 -0.1424 -0.2743
  763MOL0     C  609   9.914   9.988  11.590  0.0825  0.2396  1.4520
  763MOL0     C  610   9.801  10.011  11.675  0.5574  1.1696  0.0091
  763MOL0     C  611   9.700   9.911  11.681 -1.4186 -0.3903  0.1365
  763MOL0     C  612   9.723   9.786  11.618  0.1611  0.5240  0.7547
  763MOL0     C  613   9.620   9.672  11.614 -0.3110 -0.5520 -0.0039
  763MOL0     O  614   9.503   9.688  11.690  0.4297 -0.4184  0.6085
  763MOL0     C  615   9.396   9.598  11.670 -0.0263 -0.2000 -0.4900
  763MOL0     C  616   9.335   9.577  11.547 -0.3454  0.0570  0.3294
  763MOL0     C  617   9.238   9.477  11.532 -0.0134  0.3726 -0.3059
  763MOL0     C  618   9.185   9.407  11.641  0.4259  0.4432 -0.1577
  763MOL0     O  619   9.090   9.314  11.618 -0.0281 -0.3891  0.3647
  763MOL0     C  620   8.962   9.337  11.679 -0.1346  0.1394  0.5995
  763MOL0     C  621   8.910   9.204  11.731  0.0114  0.3819 -0.1472
  763MOL0     C  622   8.985   9.151  11.854 -0.8956  0.0522  0.5593
  763MOL0     C  623   8.895   9.043  11.915  0.6873 -0.4234  0.2878
  763MOL0     C  624   8.909   9.049  12.068  0.6092  0.3531 -0.0864
  763MOL0     C  625   9.045   8.986  12.109  0.7613 -0.1544  0.8499
  763MOL0     C  626   9.046   8.946  12.256  0.0596  0.2359 -0.2077
  763MOL0     C  627   9.192   8.944  12.312  0.5756  0.7258  0.3719
  763MOL0    Cl  628   9.295   8.837  12.233 -0.6123  0.1877 -0.2452
  763MOL0     C  629   9.229   9.445  11.765 -0.4320  0.7767 -0.2945
  763MOL0     C  630   9.337   9.537  11.777 -0.0333  0.8061  0.3271
  763MOL0     O  631   9.646   9.575  11.537 -0.2824 -0.0313 -0.4254
  763MOL0     C  632   9.838   9.772  11.541  0.6380  0.3325  1.0650
  763MOL0     C  633   9.930   9.867  11.516  0.2723 -1.2459  0.0635
  763MOL0     N  634  10.607   9.983  11.619  0.7584 -0.2503  0.1426
  763MOL0     N  635  10.689   9.883  11.646  0.3920 -1.0168 -0.8394
  763MOL0     C  636  10.936  10.453  11.453 -0.1314 -1.1781  0.0510
  763MOL0     C  637  10.830  10.510  11.384  0.0076  1.3061 -1.0603
  763MOL0     C  638  10.383  10.565  11.230  0.0563  0.1174 -0.4010
  763MOL0     C  639  10.248  10.560  11.260  1.0129  0.1181  0.9942
  763MOL0     C  640  10.164  10.674  11.212  0.8535  0.3687 -0.2616
  763MOL0     C  641  10.212  10.794  11.145  0.1720 -0.8099  0.1547
  763MOL0     O  642  10.136  10.894  11.094 -0.6940  0.3360 -0.0814
  763MOL0     C  643  10.007  10.925  11.155  0.0458 -0.0422 -0.0175
  763MOL0     C  644   9.944  11.067  11.104 -0.0841  0.7575  0.0874
  763MOL0     C  645  10.046  11.174  11.080 -0.1444 -0.4522 -0.1006
  763MOL0     C  646   9.974  11.311  11.075 -0.1108 -0.4098 -0.0813
  763MOL0     C  647  10.058  11.414  11.024 -0.8357  0.8592  0.4612
  763MOL0     C  648  10.126  11.490  10.964 -0.1749  0.6487  0.0784
  763MOL0     C  649  10.352  10.794  11.117 -0.0475  0.7941  0.1115
  763MOL0     C  650  10.431  10.685  11.166 -0.3701 -0.8098  0.3584
  763MOL0     H  651  10.598  10.271  11.469  0.7623 -1.0598 -0.8665
  763MOL0     H  652  10.773  10.204  11.606  2.2223 -2.0122 -2.4666
  763MOL0     H  653  11.205  10.359  11.618  1.0984 -0.2029 -0.1533
  763MOL0     H  654  11.153  10.294  11.474 -0.1593  1.3142  0.5448
  763MOL0     H  655  11.196  10.171  11.741  1.7469 -2.6063  0.4865
  763MOL0     H  656  11.289  10.129  11.602  0.5182  3.6775  0.0934
  763MOL0     H  657  11.093  10.026  11.491  0.0597  1.3309 -1.0676
  763MOL0     H  658  10.992  10.053  11.635  1.2541  0.3423  1.9045
  763MOL0     H  659  11.193   9.846  11.598  1.4189  1.4572  0.4967
  763MOL0     H  660  11.199   9.921  11.761 -2.4050  2.9778  1.0250
  763MOL0     H  661  11.045   9.725  11.716 -0.1914  0.4671 -1.6819
  763MOL0     H  662  10.938   9.838  11.642 -1.4555 -1.4212  1.6912
  763MOL0     H  663  10.895   9.975  11.823  2.3327 -0.0233 -0.3486
  763MOL0     H  664  11.029   9.918  11.916  3.0415 -2.3198 -2.2197
  763MOL0     H  665  10.907   9.691  11.934 -0.6446 -0.3813 -2.5819
  763MOL0     H  666  10.833   9.836  12.011 -0.2422  1.6672 -1.0536
  763MOL0     H  667  10.670   9.692  11.905 -1.2733  0.5469 -0.9879
  763MOL0     H  668  10.769   9.676  11.756 -1.4801 -1.1225  0.7614
  763MOL0     H  669  10.512   9.917  11.921 -2.2078 -2.6114 -1.5501
  763MOL0     H  670  10.410  10.154  11.607  0.2462 -0.5497  0.5350
  763MOL0     H  671  10.462  10.219  11.764  2.1046 -2.4417  4.7003
  763MOL0     H  672  10.285  10.035  11.855 -0.7368 -1.3702  0.0914
  763MOL0     H  673  10.253  10.019  11.676 -1.4024  3.0936 -2.4748
  763MOL0     H  674  10.182  10.265  11.811 -0.2220  0.4005 -1.0779
  763MOL0     H  675  10.207  10.256  11.641  1.0767 -0.6057  0.0753
  763MOL0     H  676   9.967  10.211  11.728  1.5773  1.4997  3.0760
  763MOL0     H  677  10.023  10.066  11.793 -0.9180 -0.7255 -1.1240
  763MOL0     H  678   9.794  10.098  11.739 -0.5372  1.1424 -0.0435
  763MOL0     H  679   9.602   9.939  11.719 -1.6893  0.3355 -1.0482
  763MOL0     H  680   9.376   9.625  11.459 -1.3005  0.8549  0.2945
  763MOL0     H  681   9.201   9.433  11.440  1.2067 -2.2851  0.3879
  763MOL0     H  682   8.896   9.375  11.601  1.8970 -1.3488 -2.0552
  763MOL0     H  683   8.953   9.418  11.751  0.9988  2.0337 -1.2818
  763MOL0     H  684   8.902   9.139  11.643 -1.0296  2.3509 -1.6139
  763MOL0     H  685   8.804   9.219  11.755 -0.4260 -2.0512 -0.3279
  763MOL0     H  686   9.011   9.229  11.927 -0.7706 -1.2913  2.0197
  763MOL0     H  687   9.077   9.098  11.829 -0.6849  0.3877  0.6053
  763MOL0     H  688   8.792   9.079  11.903  0.5907 -0.6548  0.4044
  763MOL0     H  689   8.906   8.944  11.870 -0.9018  0.7107 -2.9309
  763MOL0     H  690   8.833   8.988  12.119  1.6425  0.6049  1.8708
  763MOL0     H  691   8.902   9.148  12.112  2.3771  0.6835 -0.4491
  763MOL0     H  692   9.125   9.054  12.080  1.1632 -1.0042 -0.1114
  763MOL0     H  693   9.065   8.890  12.061 -0.4447 -0.5333  1.0543
  763MOL0     H  694   8.984   9.023  12.302  0.1675  0.7731 -0.9529
  763MOL0     H  695   8.994   8.853  12.279  2.7041 -1.1330  0.6593
  763MOL0     H  696   9.180   8.923  12.419 -1.0679 -1.8441 -0.2102
  763MOL0     H  697   9.219   9.048  12.294 -3.0470  1.8003  0.3141
  763MOL0     H  698   9.176   9.409  11.852 -2.1427  0.1683 -1.5173
  763MOL0     H  699   9.367   9.576  11.874 -0.5281  2.1480 -0.0335
  763MOL0     H  700   9.844   9.688  11.472  1.5579  0.8951  0.4426
  763MOL0     H  701  10.014   9.837  11.454  0.2087  0.5290 -0.9532
  763MOL0     H  702  11.032  10.505  11.456 -0.6712 -0.2029  1.4085
  763MOL0     H  703  10.843  10.592  11.314 -1.7763  0.7966 -2.0626
  763MOL0     H  704  10.213  10.470  11.309  0.4106 -0.0980  0.1826
  763MOL0     H  705  10.058  10.662  11.228  0.5332  1.9268 -0.9755
  763MOL0     H  706  10.022  10.943  11.262 -0.2612 -1.9757  0.3831
  763MOL0     H  707   9.937  10.841  11.157 -0.2273  0.1297  2.9290
  763MOL0     H  708   9.879  11.033  11.024  0.7796 -5.0042  1.3667
  763MOL0     H  709   9.876  11.107  11.180 -1.3064 -1.1689  0.0897
  763MOL0     H  710  10.094  11.157  10.983 -0.4363  1.9329 -0.7355
  763MOL0     H  711  10.127  11.162  11.152  0.5331 -4.2880 -1.2873
  763MOL0     H  712   9.884  11.309  11.012 -0.6098 -3.1179  0.5780
  763MOL0     H  713   9.939  11.332  11.176 -2.3821 -3.9540  0.0745
  763MOL0     H  714  10.180  11.555  10.900  0.1218  0.3553  0.0301
  763MOL0     H  715  10.400  10.882  11.076  0.4550 -0.4475 -2.0888
  763MOL0     H  716  10.538  10.675  11.150 -0.6300 -0.7454 -1.5909
  764MOL0     O  717   8.592   7.117   5.774 -0.3595 -0.7739 -0.4797
  764MOL0     C  718   8.694   7.117   5.714  0.2059 -0.7553  0.7535
  764MOL0     O  719   8.713   7.181   5.591 -0.9867 -0.1109 -0.5150
  764MOL0     C  720   8.623   7.206   5.497  0.6125 -0.3003  0.2003
  764MOL0     C  721   8.495   7.158   5.500  0.8933  0.4984 -0.2496
  764MOL0     C  722   8.407   7.166   5.392  0.5768  0.0606 -0.0308
  764MOL0     C  723   8.457   7.220   5.271 -0.4394  0.6230  0.4094
  764MOL0     O  724   8.378   7.223   5.157 -0.4192 -0.0360  0.0001
  764MOL0     C  725   8.238   7.250   5.171  0.6165  0.7963 -0.6228
  764MOL0     C  726   8.171   7.267   5.035  0.1028 -0.1005 -0.0233
  764MOL0     C  727   8.022   7.273   5.061  0.1238  1.4045  1.1007
  764MOL0     C  728   7.949   7.141   5.085 -0.2503  0.8090 -0.2292
  764MOL0     C  729   7.799   7.173   5.122  0.0166 -0.0063  0.1492
  764MOL0     C  730   7.729   7.265   5.028  0.4206  0.6900  0.1570
  764MOL0     C  731   7.731   7.202   4.887  0.6861  0.0562 -0.8696
  764MOL0     C  732   7.666   7.066   4.880  0.1345  0.4683  0.3176
  764MOL0     N  733   7.605   7.045   4.752 -1.0376  0.0554  0.1519
  764MOL0     C  734   7.667   7.002   4.627  0.0269  0.1702 -0.3332
  764MOL0     C  735   7.557   7.008   4.546  0.3515  0.1921  0.3447
  764MOL0     C  736   7.573   6.986   4.400  0.4918  0.0195 -0.1285
  764MOL0     C  737   7.629   7.116   4.347 -0.6750 -0.6905  0.3243
  764MOL0     C  738   7.546   7.243   4.369 -1.3514 -0.0739 -0.1573
  764MOL0     C  739   7.411   7.227   4.306  0.4122  0.4070  0.2297
  764MOL0     O  740   7.432   7.213   4.160 -0.3785  0.3816 -0.1107
  764MOL0     C  741   7.322   7.178   4.085  0.5455 -0.7141  0.2929
  764MOL0     C  742   7.339   7.156   3.953 -0.2150  1.2639 -0.3046
  764MOL0     C  743   7.245   7.105   3.873  0.0925  0.7171  1.2423
  764MOL0     C  744   7.110   7.091   3.916 -0.2806 -0.5334 -0.0540
  764MOL0     C  745   7.001   7.028   3.852 -0.7116 -1.4731 -0.5330
  764MOL0     O  746   6.880   7.092   3.865  0.0400 -0.1723  0.3694
  764MOL0     C  747   6.763   7.018   3.830  1.4771 -0.2394  0.1948
  764MOL0     C  748   6.747   6.886   3.794  0.4253 -0.2379  0.2582
  764MOL0     C  749   6.617   6.828   3.789 -0.1099  0.2402  0.4926
  764MOL0     C  750   6.505   6.907   3.812  0.2413  0.4673 -0.6856
  764MOL0     O  751   6.381   6.847   3.807  0.6713 -0.2330  0.2095
  764MOL0     C  752   6.333   6.789   3.931 -0.6953 -0.5897  0.2995
  764MOL0     C  753   6.275   6.656   3.890 -0.7197 -1.1241 -1.0589
  764MOL0     C  754   6.141   6.657   3.826 -0.1766  0.7374  0.2254
  764MOL0     C  755   6.035   6.720   3.927 -0.6976  0.0118  0.2148
  764MOL0     C  756   6.012   6.642   4.065  0.1190 -0.0004  0.0849
  764MOL0     C  757   5.903   6.534   4.023  0.2032 -0.6856 -0.3859
  764MOL0     C  758   5.889   6.421   4.129  0.1809 -0.0360  0.1938
  764MOL0     C  759   5.829   6.488   4.256  0.2497 -0.5152  0.0206
  764MOL0    Cl  760   5.653   6.529   4.214  0.0687  0.4343 -0.0498
  764MOL0     C  761   6.518   7.040   3.822  0.0469 -0.6853  0.0341
  764MOL0     C  762   6.642   7.095   3.833  0.7276  0.2003 -0.8138
  764MOL0     O  763   7.023   6.929   3.783  0.6801 -0.2418 -0.6803
  764MOL0     C  764   7.086   7.138   4.046  0.5646 -0.6389 -0.3423
  764MOL0     C  765   7.187   7.177   4.124 -0.4456 -0.3455 -0.5113
  764MOL0     N  766   7.434   7.026   4.614 -1.2270 -0.6095  0.2433
  764MOL0     N  767   7.470   7.060   4.729  0.1098 -0.1089  0.5979
  764MOL0     C  768   8.585   7.283   5.271  0.4064 -0.6569  0.0386
  764MOL0     C  769   8.671   7.278   5.383 -0.2654  0.3240  0.7056
  764MOL0     C  770   8.807   7.071   5.801 -0.3380  0.3699 -0.1367
  764MOL0     C  771   8.794   7.037   5.936  0.3960 -0.6504  0.4464
  764MOL0     C  772   8.906   6.996   6.006 -0.9322  0.0316 -1.0093
  764MOL0     C  773   9.031   6.979   5.944  0.3370 -0.2340 -0.2699
  764MOL0     O  774   9.142   6.926   5.997  0.3527 -0.5051  0.7480
  764MOL0     C  775   9.124   6.831   6.103 -0.6459 -0.2676 -0.4600
  764MOL0     C  776   9.265   6.805   6.155 -0.3188 -0.3311 -0.2781
  764MOL0     C  777   9.349   6.931   6.206 -0.1299 -0.0986  0.0039
  764MOL0     C  778   9.287   6.984   6.331  0.3882  0.6182 -0.5930
  764MOL0     C  779   9.345   7.115   6.356  0.0355  0.9458 -0.0996
  764MOL0     C  780   9.367   7.229   6.388 -0.3997 -1.0010 -0.6996
  764MOL0     C  781   9.041   7.021   5.812 -0.6021  0.1687 -1.3308
  764MOL0     C  782   8.931   7.054   5.743  0.6223 -0.3637 -0.8295
  764MOL0     H  783   8.450   7.119   5.590  0.8504  2.2276  0.5299
  764MOL0     H  784   8.306   7.124   5.394  2.6652 -6.0587 -0.5596
  764MOL0     H  785   8.223   7.332   5.242  1.1534  1.3182 -1.1040
  764MOL0     H  786   8.186   7.170   5.223  2.2457 -0.4912 -0.9056
  764MOL0     H  787   8.192   7.186   4.965  2.8560  0.6028 -0.1311
  764MOL0     H  788   8.211   7.355   4.983  1.9281 -2.1383 -2.3138
  764MOL0     H  789   7.982   7.321   4.971  0.1767  0.8586  0.7842
  764MOL0     H  790   8.006   7.344   5.143  1.2933 -1.7551  4.3403
  764MOL0     H  791   7.962   7.078   4.997  1.3303  0.0148  0.5348
  764MOL0     H  792   7.996   7.084   5.166 -1.1174  0.9553  0.3936
  764MOL0     H  793   7.793   7.214   5.223  0.5142  1.1265 -0.2551
  764MOL0     H  794   7.743   7.079   5.126 -0.1504  0.1427  2.0633
  764MOL0     H  795   7.772   7.365   5.022 -0.9933  1.3713  1.0201
  764MOL0     H  796   7.626   7.285   5.060  0.8482 -1.2029  3.1387
  764MOL0     H  797   7.682   7.267   4.815 -0.5079 -0.6111 -0.6710
  764MOL0     H  798   7.835   7.196   4.853  1.1043 -1.9172  0.5869
  764MOL0     H  799   7.581   7.051   4.947 -1.3320 -0.4251 -1.6219
  764MOL0     H  800   7.743   6.990   4.892  1.6968  1.6962 -1.3074
  764MOL0     H  801   7.773   7.001   4.603 -0.1017  3.1335 -1.3621
  764MOL0     H  802   7.477   6.955   4.359 -0.0367 -0.1684  1.1811
  764MOL0     H  803   7.646   6.905   4.390  1.4995  0.6612  1.5043
  764MOL0     H  804   7.651   7.102   4.241 -0.4558 -1.1466  0.4247
  764MOL0     H  805   7.729   7.132   4.389 -0.1458 -2.2277 -0.2577
  764MOL0     H  806   7.526   7.265   4.474 -2.2663 -0.9056 -0.1359
  764MOL0     H  807   7.593   7.329   4.320  0.4112 -1.5218 -1.1005
  764MOL0     H  808   7.356   7.320   4.322  0.8434  0.3166  2.5386
  764MOL0     H  809   7.365   7.139   4.351  2.3498 -1.1030 -0.5837
  764MOL0     H  810   7.441   7.175   3.919  0.2639  0.3036  0.5577
  764MOL0     H  811   7.275   7.074   3.774 -2.5545  0.8400  0.2993
  764MOL0     H  812   6.826   6.816   3.770 -0.2751 -1.2355  0.7729
  764MOL0     H  813   6.605   6.724   3.760 -0.9044  0.2338  0.8292
  764MOL0     H  814   6.261   6.848   3.989 -3.7543 -3.4373 -0.2836
  764MOL0     H  815   6.421   6.775   3.995 -0.9692 -0.5776  0.6847
  764MOL0     H  816   6.261   6.589   3.975 -0.2802 -0.6012 -0.5618
  764MOL0     H  817   6.351   6.605   3.830  2.2636  4.4002 -2.7586
  764MOL0     H  818   6.103   6.556   3.809  1.6007 -0.4045  2.4454
  764MOL0     H  819   6.146   6.716   3.734  1.6156  2.6120  1.4262
  764MOL0     H  820   6.065   6.823   3.952 -0.9310  0.9299 -2.8755
  764MOL0     H  821   5.945   6.718   3.865  0.4410 -1.4616 -1.5055
  764MOL0     H  822   5.976   6.707   4.145  1.1474  0.6195  0.0519
  764MOL0     H  823   6.098   6.603   4.119  1.8778  0.3207 -2.3142
  764MOL0     H  824   5.917   6.484   3.927  1.9832  2.4328 -1.8877
  764MOL0     H  825   5.809   6.589   4.025  0.8412  0.4211  0.8956
  764MOL0     H  826   5.828   6.339   4.090 -0.1771  0.4814 -0.3434
  764MOL0     H  827   5.990   6.380   4.140 -0.7281 -2.8065 -0.8198
  764MOL0     H  828   5.887   6.576   4.287  1.0905 -1.4300  1.1321
  764MOL0     H  829   5.830   6.413   4.335 -0.5119 -1.0494 -0.4650
  764MOL0     H  830   6.436   7.104   3.852  1.4105  0.1462  2.1838
  764MOL0     H  831   6.656   7.198   3.864  3.2772  0.2246 -1.8539
  764MOL0     H  832   6.984   7.136   4.082  0.7275 -3.1012  0.1618
  764MOL0     H  833   7.178   7.214   4.226  0.7839 -1.0865 -0.1055
  764MOL0     H  834   8.606   7.349   5.187 -0.6322 -1.2512 -0.7022
  764MOL0     H  835   8.768   7.326   5.374 -0.0198 -0.5502 -2.6097
  764MOL0     H  836   8.697   7.049   5.981  1.9000 -0.5482  3.9376
  764MOL0     H  837   8.889   6.973   6.110 -1.7583  0.4263 -1.0467
  764MOL0     H  838   9.067   6.741   6.077  2.6097 -1.8210 -2.9703
  764MOL0     H  839   9.075   6.893   6.178  1.3338  2.4055 -1.2613
  764MOL0     H  840   9.256   6.730   6.234  2.4707 -0.5305 -0.0287
  764MOL0     H  841   9.325   6.760   6.076 -1.1590 -1.5021 -0.2866
  764MOL0     H  842   9.349   7.011   6.131 -0.6321  0.1076  0.2183
  764MOL0     H  843   9.450   6.900   6.233  0.9313  3.2872  0.3003
  764MOL0     H  844   9.178   6.993   6.329  0.0130 -2.3408  0.8784
  764MOL0     H  845   9.306   6.919   6.417 -0.8943 -1.5593 -1.8560
  764MOL0     H  846   9.385   7.331   6.417  3.1111 -1.0841 -2.0872
  764MOL0     H  847   9.143   7.004   5.778  0.0709 -1.1031  1.1013
  764MOL0     H  848   8.949   7.078   5.639 -3.1049 -0.4556 -1.6416
  765MOL0     O  849   2.912   2.875   5.640 -0.1604  0.4067  0.5567
  765MOL0     C  850   2.924   2.762   5.691 -0.0493 -0.2760  0.4731
  765MOL0     O  851   2.990   2.653   5.636 -0.1414  0.3219  0.1524
  765MOL0     C  852   3.047   2.646   5.504 -0.0501  1.0971  0.3226
  765MOL0     C  853   3.092   2.516   5.455  0.6897 -0.1359  0.3009
  765MOL0     C  854   3.128   2.500   5.314 -0.3334 -0.0071 -0.5199
  765MOL0     C  855   3.161   2.605   5.237  0.2729 -0.4414  0.0585
  765MOL0     O  856   3.222   2.590   5.116 -0.1785 -0.1085  0.3541
  765MOL0     C  857   3.344   2.509   5.117  0.5611 -0.4897 -0.5717
  765MOL0     C  858   3.410   2.511   4.982  0.4013  0.2957  0.7886
  765MOL0     C  859   3.343   2.417   4.879  0.8814 -0.5766 -1.2576
  765MOL0     C  860   3.432   2.404   4.758 -0.2553 -0.3400  0.7111
  765MOL0     C  861   3.400   2.274   4.677 -0.1038 -0.0751  0.0257
  765MOL0     C  862   3.460   2.143   4.728 -0.6202 -0.9917  0.5868
  765MOL0     C  863   3.614   2.132   4.729  0.0904  0.7183  0.3507
  765MOL0     C  864   3.655   2.023   4.831 -0.9813  0.1253 -0.0808
  765MOL0     N  865   3.645   2.081   4.965  0.3875  0.7504 -0.4454
  765MOL0     C  866   3.721   2.186   5.003  0.3326  0.6052  0.0774
  765MOL0     C  867   3.674   2.226   5.120 -1.0001 -0.8635 -0.1265
  765MOL0     C  868   3.731   2.334   5.206 -0.0980 -0.2475 -0.2157
  765MOL0     C  869   3.878   2.306   5.250  0.4314  0.0662  0.4907
  765MOL0     C  870   3.941   2.430   5.320 -0.1371 -0.4191 -0.0583
  765MOL0     C  871   4.088   2.396   5.349  0.6619  0.0889  0.0212
  765MOL0     O  872   4.168   2.373   5.230 -0.0264  0.1658 -0.5436
  765MOL0     C  873   4.280   2.305   5.260 -0.2426  0.6920  0.1336
  765MOL0     C  874   4.279   2.173   5.208  0.4371  0.4260 -0.8503
  765MOL0     C  875   4.389   2.088   5.228 -0.5153 -0.7674 -0.7186
  765MOL0     C  876   4.506   2.141   5.292 -0.4245 -0.3388  0.7693
  765MOL0     C  877   4.614   2.040   5.332  0.3419 -0.0964 -0.3689
  765MOL0     O  878   4.582   1.905   5.321 -0.1030  0.8485  0.3826
  765MOL0     C  879   4.676   1.814   5.370 -0.5566 -0.0650  1.1270
  765MOL0     C  880   4.642   1.739   5.485 -0.2900  0.4560  0.7203
  765MOL0     C  881   4.746   1.653   5.535  0.8274 -0.5317  0.1607
  765MOL0     C  882   4.876   1.650   5.488 -0.3029 -0.4433 -0.6433
  765MOL0     O  883   4.974   1.572   5.550 -1.0185 -0.1081  0.3692
  765MOL0     C  884   5.006   1.601   5.684 -0.7712 -0.4327  0.3188
  765MOL0     C  885   5.021   1.748   5.725 -0.0155 -0.0449 -0.3987
  765MOL0     C  886   5.104   1.766   5.861  0.3407 -0.3651  0.4623
  765MOL0     C  887   5.019   1.757   5.993 -0.0627  0.4348  0.1506
  765MOL0     C  888   4.965   1.621   6.032  1.5577 -0.5330 -0.2167
  765MOL0     C  889   5.065   1.515   6.031  0.4725  0.1736 -0.5910
  765MOL0     C  890   4.981   1.389   6.075  0.6230  0.6886  0.4260
  765MOL0     C  891   5.057   1.265   6.035  0.3755  0.4162  0.1460
  765MOL0    Cl  892   5.234   1.278   6.082  0.3618 -0.0916 -0.1442
  765MOL0     C  893   4.901   1.722   5.372 -0.1438  0.5005 -0.5861
  765MOL0     C  894   4.805   1.798   5.310  1.4780  0.7118  0.7856
  765MOL0     O  895   4.722   2.082   5.372 -0.0863  0.3034 -0.2604
  765MOL0     C  896   4.510   2.278   5.339  0.0999  0.4603  0.3436
  765MOL0     C  897   4.391   2.358   5.326  1.5226 -0.1228  0.0390
  765MOL0     N  898   3.564   2.151   5.157 -0.7239  0.4336  0.8042
  765MOL0     N  899   3.543   2.063   5.055 -0.3939  0.5220  0.2733
  765MOL0     C  900   3.131   2.728   5.284  0.0481 -0.0446  0.2662
  765MOL0     C  901   3.071   2.750   5.415 -0.1777  0.2729  0.0850
  765MOL0     C  902   2.881   2.739   5.835 -0.2154 -0.5355  0.0269
  765MOL0     C  903   2.749   2.744   5.861  0.2045  0.1105 -0.2407
  765MOL0     C  904   2.700   2.713   5.985 -0.7137 -0.9219 -0.7677
  765MOL0     C  905   2.792   2.707   6.092  0.6202 -0.8067 -0.3561
  765MOL0     O  906   2.735   2.719   6.215 -0.5647 -0.1007 -0.2970
  765MOL0     C  907   2.803   2.696   6.335 -0.4209  0.1843 -0.6998
  765MOL0     C  908   2.694   2.685   6.442  0.6470  0.1495 -0.0253
  765MOL0     C  909   2.682   2.803   6.542 -1.0081 -0.6416  0.4343
  765MOL0     C  910   2.798   2.832   6.623  0.0342 -0.3370  1.0166
  765MOL0     C  911   2.873   2.712   6.674  0.4648 -0.7399  0.0536
  765MOL0     C  912   2.927   2.617   6.726 -0.2667 -0.0792 -0.8816
  765MOL0     C  913   2.933   2.702   6.068  1.0081 -0.3527 -0.0681
  765MOL0     C  914   2.974   2.714   5.934 -0.6230 -0.6672  0.3276
  765MOL0     H  915   3.069   2.431   5.518 -1.6333 -0.8550 -1.3618
  765MOL0     H  916   3.138   2.400   5.274 -1.5329 -0.4897  0.3276
  765MOL0     H  917   3.329   2.402   5.138 -0.5278 -0.5735 -1.7081
  765MOL0     H  918   3.415   2.535   5.196  1.1360 -1.8681 -0.5982
  765MOL0     H  919   3.515   2.486   5.002 -0.0538 -0.4304  2.4693
  765MOL0     H  920   3.411   2.611   4.938  0.3369 -1.5554 -3.9077
  765MOL0     H  921   3.245   2.461   4.859  1.1923 -0.7206 -3.4481
  765MOL0     H  922   3.324   2.318   4.922  1.6783 -1.0616 -1.9564
  765MOL0     H  923   3.414   2.487   4.689 -0.8933 -0.8817  0.2205
  765MOL0     H  924   3.538   2.408   4.783 -0.6381  3.5026  2.5059
  765MOL0     H  925   3.426   2.294   4.572  3.1799  0.8549  0.8962
  765MOL0     H  926   3.291   2.268   4.678 -0.1050 -0.0322  0.2274
  765MOL0     H  927   3.415   2.071   4.658 -0.3340 -0.1340 -0.5216
  765MOL0     H  928   3.412   2.137   4.826 -1.0161  2.6666  0.7428
  765MOL0     H  929   3.649   2.091   4.634 -1.6538  1.1013 -0.5016
  765MOL0     H  930   3.672   2.222   4.749 -2.0203  2.2214 -0.0103
  765MOL0     H  931   3.756   2.005   4.794 -1.6483  0.4432 -2.1795
  765MOL0     H  932   3.605   1.926   4.831 -0.7647 -0.0158  1.4139
  765MOL0     H  933   3.808   2.233   4.960  0.6311  2.3835  2.4465
  765MOL0     H  934   3.663   2.359   5.287  0.4221 -0.9096  0.4370
  765MOL0     H  935   3.719   2.433   5.160 -1.5812  0.7968  2.2502
  765MOL0     H  936   3.929   2.284   5.156 -2.5723  3.4995 -2.2321
  765MOL0     H  937   3.887   2.219   5.316 -1.5185 -1.1454 -0.7501
  765MOL0     H  938   3.934   2.521   5.259 -0.7998 -0.2669  0.2333
  765MOL0     H  939   3.880   2.436   5.411 -1.5106 -0.4547 -0.9445
  765MOL0     H  940   4.082   2.309   5.415  0.5192  1.8254  2.4678
  765MOL0     H  941   4.125   2.484   5.402  0.5981 -2.0625  4.0306
  765MOL0     H  942   4.194   2.133   5.153 -2.5451 -1.1775  4.2481
  765MOL0     H  943   4.377   1.989   5.185  2.8760 -0.3182 -3.1143
  765MOL0     H  944   4.546   1.745   5.535 -0.6160 -0.7283  0.2915
  765MOL0     H  945   4.724   1.592   5.622 -2.1411 -2.0620 -1.5085
  765MOL0     H  946   5.094   1.536   5.688 -1.2980 -1.0939  2.2800
  765MOL0     H  947   4.932   1.564   5.756 -0.7400  0.9113  1.0786
  765MOL0     H  948   4.924   1.797   5.736 -0.0539 -0.4585  1.3967
  765MOL0     H  949   5.080   1.795   5.646 -0.7644  1.6302  0.0060
  765MOL0     H  950   5.149   1.865   5.872  1.7289 -0.8846 -0.2327
  765MOL0     H  951   5.188   1.695   5.870  0.0640 -0.7075  0.3766
  765MOL0     H  952   5.093   1.783   6.069  0.7398  1.8518 -1.0584
  765MOL0     H  953   4.932   1.823   5.998  0.3179  1.0703 -1.2003
  765MOL0     H  954   4.882   1.610   5.962  1.5996  2.8815 -0.9973
  765MOL0     H  955   4.920   1.633   6.131  0.3262  0.7225 -0.8906
  765MOL0     H  956   5.144   1.547   6.099 -1.9057  1.0938  1.9149
  765MOL0     H  957   5.110   1.496   5.933  1.6947  2.9274 -0.6414
  765MOL0     H  958   4.963   1.388   6.183  0.5601 -1.0749  0.4280
  765MOL0     H  959   4.887   1.393   6.018  1.2648  0.8764 -0.6556
  765MOL0     H  960   5.052   1.260   5.926  1.3830 -0.4401  0.1286
  765MOL0     H  961   5.012   1.176   6.080 -2.3177 -0.2884 -3.4655
  765MOL0     H  962   5.002   1.712   5.333 -0.4414 -0.5398 -1.1242
  765MOL0     H  963   4.829   1.859   5.224  0.7250 -2.2213 -1.7057
  765MOL0     H  964   4.591   2.330   5.389  0.3595  0.1786  0.2170
  765MOL0     H  965   4.376   2.456   5.372  2.3011 -1.0880  2.5188
  765MOL0     H  966   3.144   2.817   5.223 -0.9667 -1.0100 -1.3996
  765MOL0     H  967   3.035   2.851   5.435 -1.0876 -0.1341  0.5336
  765MOL0     H  968   2.672   2.771   5.789 -2.6183  0.1186  2.5497
  765MOL0     H  969   2.593   2.720   6.004 -0.6143 -2.0688  0.2790
  765MOL0     H  970   2.871   2.781   6.349  1.2986 -1.2060 -0.2429
  765MOL0     H  971   2.874   2.613   6.338  1.3598  1.0962 -5.8565
  765MOL0     H  972   2.601   2.656   6.394  0.2551 -0.5394  1.0999
  765MOL0     H  973   2.714   2.600   6.509 -0.8364  1.0588  1.6592
  765MOL0     H  974   2.600   2.777   6.610 -0.3486 -5.3662 -0.1765
  765MOL0     H  975   2.645   2.888   6.485 -0.0574 -1.1372 -0.9667
  765MOL0     H  976   2.871   2.887   6.563 -1.6597  0.0282 -0.8079
  765MOL0     H  977   2.773   2.886   6.715 -0.4031  2.2241 -0.5141
  765MOL0     H  978   2.967   2.533   6.778  0.4976  0.2819 -0.8779
  765MOL0     H  979   3.003   2.701   6.151  0.9255 -2.9756  0.0442
  765MOL0     H  980   3.076   2.720   5.899 -1.0440 -1.0662 -1.0509
  766MOL0     O  981   2.127   2.839   0.250  0.3590 -0.7348  0.9077
  766MOL0     C  982   2.187   2.738   0.217 -0.0684  0.9593 -0.6024
  766MOL0     O  983   2.229   2.637   0.300  0.6559  0.5449 -0.0183
  766MOL0     C  984   2.226   2.629   0.440  0.5012  0.0140  0.0208
  766MOL0     C  985   2.132   2.690   0.517 -0.2171  0.1641  0.5328
  766MOL0     C  986   2.149   2.669   0.655 -0.2257 -0.2898 -0.8806
  766MOL0     C  987   2.248   2.585   0.702  0.2427 -0.2593  0.3513
  766MOL0     O  988   2.245   2.565   0.839 -0.8637 -0.6001 -0.1992
  766MOL0     C  989   2.341   2.478   0.914  0.4892  0.4710  1.1750
  766MOL0     C  990   2.300   2.334   0.921 -0.2126 -1.1728 -0.1146
  766MOL0     C  991   2.402   2.246   0.994  0.2486  0.0236 -0.8873
  766MOL0     C  992   2.361   2.244   1.137  0.1861 -0.1035 -0.0938
  766MOL0     C  993   2.422   2.117   1.197  0.2318  0.5395 -0.8550
  766MOL0     C  994   2.574   2.113   1.199 -0.2036 -0.6269  0.3162
  766MOL0     C  995   2.621   1.974   1.239 -0.2797 -0.6243 -0.5269
  766MOL0     C  996   2.778   1.980   1.265 -0.0176 -0.0378 -0.1172
  766MOL0     N  997   2.841   1.849   1.281 -0.7514  0.7378 -0.4961
  766MOL0     C  998   2.963   1.809   1.237  0.0839 -0.4851  0.4933
  766MOL0     C  999   2.980   1.701   1.307  0.4704  1.0762 -1.1760
  766MOL0     C 1000   3.103   1.605   1.290 -1.0382  1.0566  0.0917
  766MOL0     C 1001   3.116   1.539   1.155 -1.3526 -0.2187  0.5920
  766MOL0     C 1002   2.988   1.452   1.113  0.2888 -0.0088  0.2375
  766MOL0     C 1003   3.003   1.385   0.972  1.4002  0.3576  0.3612
  766MOL0     O 1004   3.009   1.480   0.855  0.1218 -0.3481 -0.6315
  766MOL0     C 1005   2.900   1.565   0.851 -0.3539 -0.3614 -0.1806
  766MOL0     C 1006   2.797   1.539   0.762  1.1606 -0.0117  0.3058
  766MOL0     C 1007   2.677   1.612   0.754 -0.3144 -0.1375  0.6993
  766MOL0     C 1008   2.667   1.724   0.832 -0.4256  0.3050  1.1759
  766MOL0     C 1009   2.534   1.801   0.832 -0.2855 -0.1733  0.2014
  766MOL0     O 1010   2.435   1.743   0.759  0.1886  0.4336  0.1539
  766MOL0     C 1011   2.331   1.832   0.733 -0.8711  0.1881 -0.3249
  766MOL0     C 1012   2.346   1.929   0.644 -0.3674 -0.2912  0.7297
  766MOL0     C 1013   2.239   2.020   0.613 -0.5260  0.1722 -0.4499
  766MOL0     C 1014   2.118   2.016   0.682 -1.2138  0.1196 -0.0418
  766MOL0     O 1015   2.034   2.120   0.654 -0.4033  0.5583 -0.3863
  766MOL0     C 1016   1.905   2.124   0.709  0.4800  0.5033 -0.3070
  766MOL0     C 1017   1.870   2.249   0.800 -0.0606  0.4117 -0.5461
  766MOL0     C 1018   1.910   2.376   0.715 -0.6611 -0.1841  0.4074
  766MOL0     C 1019   1.807   2.407   0.610 -0.5089 -0.6496  0.0098
  766MOL0     C 1020   1.737   2.544   0.615  0.2118 -0.1033 -0.6849
  766MOL0     C 1021   1.650   2.567   0.738  0.1385  0.3588  0.4028
  766MOL0     C 1022   1.584   2.707   0.737  0.8576 -0.7146  0.0468
  766MOL0     C 1023   1.426   2.692   0.694  0.6844 -0.1312  0.6950
  766MOL0    Cl 1024   1.337   2.850   0.711  0.1043 -0.2431 -0.0720
  766MOL0     C 1025   2.101   1.906   0.774  0.3605  0.4612 -0.0038
  766MOL0     C 1026   2.209   1.814   0.790 -0.7365  0.5052 -0.1754
  766MOL0     O 1027   2.533   1.914   0.889  1.1107  0.1718  0.1542
  766MOL0     C 1028   2.788   1.765   0.905 -0.1787 -0.5900 -0.3145
  766MOL0     C 1029   2.907   1.681   0.918 -0.2111 -0.5538  0.7147
  766MOL0     N 1030   2.873   1.669   1.393  0.2097  0.4471  0.3846
  766MOL0     N 1031   2.785   1.759   1.363  0.5764 -0.0132 -0.4226
  766MOL0     C 1032   2.347   2.537   0.613 -0.3707  0.5576 -0.1680
  766MOL0     C 1033   2.326   2.548   0.480  0.0255 -0.6265  0.1399
  766MOL0     C 1034   2.227   2.709   0.082  0.2312 -0.1653 -0.5780
  766MOL0     C 1035   2.210   2.811  -0.017 -0.6493 -0.4899  0.1585
  766MOL0     C 1036   2.244   2.780  -0.151  0.4506  0.2376 -0.3314
  766MOL0     C 1037   2.288   2.659  -0.195 -1.0591  0.0942  0.1564
  766MOL0     O 1038   2.301   2.632  -0.331  0.4440  0.6914  0.1026
  766MOL0     C 1039   2.405   2.537  -0.370  0.6117 -0.0802 -0.8371
  766MOL0     C 1040   2.440   2.538  -0.517 -0.7034 -0.3999  0.3351
  766MOL0     C 1041   2.545   2.430  -0.571 -0.5111 -0.1866 -0.5958
  766MOL0     C 1042   2.496   2.283  -0.539  0.1713 -0.4471 -0.1497
  766MOL0     C 1043   2.553   2.185  -0.632 -0.1447  0.3332 -0.1969
  766MOL0     C 1044   2.600   2.085  -0.692  1.2195  0.3840 -0.1008
  766MOL0     C 1045   2.295   2.561  -0.094 -1.0702  0.2842  0.1921
  766MOL0     C 1046   2.276   2.583   0.042  0.3301 -0.3976  0.4321
  766MOL0     H 1047   2.051   2.759   0.498 -1.2391 -1.1902 -0.1768
  766MOL0     H 1048   2.087   2.703   0.737  0.3346  0.6166 -0.8280
  766MOL0     H 1049   2.340   2.514   1.017 -0.4523  2.6565  0.4728
  766MOL0     H 1050   2.440   2.491   0.870 -0.4911 -2.9891 -2.7035
  766MOL0     H 1051   2.310   2.299   0.818  3.0171  1.0138 -0.7102
  766MOL0     H 1052   2.195   2.324   0.949 -0.6301  0.8827 -0.8037
  766MOL0     H 1053   2.502   2.290   0.990  0.3574  0.4278  2.6941
  766MOL0     H 1054   2.389   2.148   0.947 -1.1386  0.7609 -2.1422
  766MOL0     H 1055   2.401   2.332   1.188  1.7305 -0.2555 -0.9788
  766MOL0     H 1056   2.253   2.239   1.156  0.1972 -1.1824 -0.2455
  766MOL0     H 1057   2.381   2.033   1.142  4.0725 -1.6484 -0.7517
  766MOL0     H 1058   2.388   2.119   1.301  0.4078 -0.2150 -0.7776
  766MOL0     H 1059   2.605   2.180   1.280  0.8823 -4.1446  3.0942
  766MOL0     H 1060   2.623   2.136   1.105  0.5869 -2.3447  0.2646
  766MOL0     H 1061   2.573   1.937   1.330  0.4615 -0.0603  0.0989
  766MOL0     H 1062   2.605   1.904   1.156  0.3650 -1.7972  0.2984
  766MOL0     H 1063   2.787   2.024   1.365 -0.1344 -1.9918  0.8058
  766MOL0     H 1064   2.832   2.040   1.191  1.1953  2.2544  2.4395
  766MOL0     H 1065   3.025   1.859   1.164  0.5761 -0.1192  1.1558
  766MOL0     H 1066   3.091   1.516   1.352  0.7627  1.0103  0.4214
  766MOL0     H 1067   3.195   1.657   1.316  0.5785 -2.5444  2.3247
  766MOL0     H 1068   3.207   1.478   1.158 -1.7886 -0.8298  1.8377
  766MOL0     H 1069   3.144   1.614   1.080 -2.2792  3.2209  3.3899
  766MOL0     H 1070   2.983   1.371   1.186 -1.7937 -0.8632 -0.7666
  766MOL0     H 1071   2.896   1.510   1.123 -0.2903 -1.0612  1.3652
  766MOL0     H 1072   2.915   1.320   0.967 -0.7133  2.9163  1.7300
  766MOL0     H 1073   3.091   1.323   0.955  1.1250  0.5304 -1.9471
  766MOL0     H 1074   2.817   1.451   0.702  1.3042 -0.7756  1.4433
  766MOL0     H 1075   2.603   1.566   0.690  2.0978 -0.7341 -1.8353
  766MOL0     H 1076   2.431   1.932   0.577 -0.6731  2.7976  0.3330
  766MOL0     H 1077   2.246   2.070   0.517  1.5359 -4.6651 -3.1432
  766MOL0     H 1078   1.879   2.033   0.763  3.0296  1.1029  2.1919
  766MOL0     H 1079   1.829   2.124   0.630  0.5559 -0.4934 -0.3866
  766MOL0     H 1080   1.917   2.245   0.899 -4.1415 -0.3329  1.6056
  766MOL0     H 1081   1.763   2.262   0.822 -0.1347 -0.6196 -0.2517
  766MOL0     H 1082   2.001   2.354   0.659 -1.8572 -0.9461 -1.3223
  766MOL0     H 1083   1.934   2.469   0.768 -2.5057 -0.2483  1.4658
  766MOL0     H 1084   1.848   2.400   0.509  0.4065  0.4791  0.2792
  766MOL0     H 1085   1.728   2.331   0.613 -0.9388 -0.2454 -0.7922
  766MOL0     H 1086   1.664   2.550   0.534  0.2636 -1.3637 -0.8394
  766MOL0     H 1087   1.818   2.618   0.610 -0.8906  1.1570 -0.4813
  766MOL0     H 1088   1.706   2.547   0.830 -1.2201 -5.0998  0.3968
  766MOL0     H 1089   1.580   2.484   0.755  1.5014 -0.5969  1.5607
  766MOL0     H 1090   1.594   2.766   0.828  1.5726 -0.1038 -0.4133
  766MOL0     H 1091   1.628   2.773   0.662 -4.6046  0.9769 -2.1559
  766MOL0     H 1092   1.374   2.629   0.767  0.4965 -0.3450  0.3765
  766MOL0     H 1093   1.414   2.657   0.591  2.4260 -1.1755  0.8173
  766MOL0     H 1094   2.009   1.881   0.825 -0.7701 -0.0704 -2.1515
  766MOL0     H 1095   2.189   1.727   0.852 -1.1830 -0.4493 -1.6136
  766MOL0     H 1096   2.782   1.844   0.979 -3.5462 -2.4433  1.6418
  766MOL0     H 1097   2.994   1.719   0.971  0.2585 -0.3089 -0.2232
  766MOL0     H 1098   2.424   2.467   0.640 -0.5273  0.3095 -0.3562
  766MOL0     H 1099   2.396   2.499   0.413  2.5380 -3.4089  4.3392
  766MOL0     H 1100   2.173   2.908   0.014 -3.1383 -2.1526  2.9690
  766MOL0     H 1101   2.237   2.870  -0.210 -1.1586 -0.0794 -0.6933
  766MOL0     H 1102   2.380   2.436  -0.338  1.5574  0.2010  0.9221
  766MOL0     H 1103   2.494   2.556  -0.310  0.0488 -2.0748  0.7337
  766MOL0     H 1104   2.348   2.522  -0.574 -3.2771  1.1653  3.7151
  766MOL0     H 1105   2.478   2.636  -0.549 -2.2346 -0.6461 -2.5535
  766MOL0     H 1106   2.641   2.446  -0.521  0.0419  1.3381 -2.0764
  766MOL0     H 1107   2.564   2.435  -0.678 -3.1682 -0.1514 -1.1421
  766MOL0     H 1108   2.512   2.265  -0.432 -2.7950  1.2932  0.6946
  766MOL0     H 1109   2.390   2.295  -0.561  0.0047  0.6248  1.1335
  766MOL0     H 1110   2.645   2.002  -0.742  0.9259 -1.0583  1.8903
  766MOL0     H 1111   2.329   2.461  -0.119  1.9650  1.5938 -1.4856
  766MOL0     H 1112   2.299   2.495   0.101  3.6384 -0.9660 -1.4941
  767MOL0     O 1113   5.303   5.521   6.311  0.6277  0.1561  0.4090
  767MOL0     C 1114   5.364   5.477   6.410 -0.3271 -0.6121  0.6483
  767MOL0     O 1115   5.346   5.358   6.482  0.1422 -0.4811  0.7538
  767MOL0     C 1116   5.251   5.268   6.442  0.0343  0.1457 -0.5490
  767MOL0     C 1117   5.159   5.263   6.339  0.0119 -0.8989  1.2952
  767MOL0     C 1118   5.067   5.151   6.315 -0.4096  0.3784  0.3219
  767MOL0     C 1119   5.073   5.044   6.407  0.3262 -0.7494  1.1095
  767MOL0     O 1120   5.011   4.928   6.373  0.2872 -0.3514 -0.3644
  767MOL0     C 1121   4.862   4.924   6.371  0.5188 -0.2954 -0.0403
  767MOL0     C 1122   4.821   4.871   6.237 -0.0437 -0.1672 -0.0273
  767MOL0     C 1123   4.669   4.883   6.210 -0.3351 -0.5289 -0.9152
  767MOL0     C 1124   4.604   4.784   6.101 -0.3265 -0.3443 -0.7511
  767MOL0     C 1125   4.532   4.851   5.978 -0.6541 -0.0879  0.5632
  767MOL0     C 1126   4.628   4.951   5.907 -0.7387  0.1463 -0.2349
  767MOL0     C 1127   4.550   5.008   5.794 -0.0987  0.6708  1.0978
  767MOL0     C 1128   4.471   5.133   5.816  0.2474 -0.3729 -0.9104
  767MOL0     N 1129   4.337   5.115   5.883 -0.2445  0.6716  0.7696
  767MOL0     C 1130   4.239   5.041   5.825  0.4665  0.4811 -0.2570
  767MOL0     C 1131   4.130   5.093   5.872  0.3743 -0.5620  0.2320
  767MOL0     C 1132   3.999   5.042   5.819 -0.4883 -0.1344 -0.0699
  767MOL0     C 1133   3.887   5.040   5.917 -0.0563 -0.0452 -0.0294
  767MOL0     C 1134   3.811   5.168   5.936 -0.0953  0.4570 -0.9829
  767MOL0     C 1135   3.796   5.265   5.809  0.3889  0.1857  0.2555
  767MOL0     O 1136   3.720   5.384   5.844 -0.2647  0.1562 -0.2953
  767MOL0     C 1137   3.782   5.487   5.923  0.6490  0.8202  0.8699
  767MOL0     C 1138   3.917   5.505   5.946 -0.5883 -0.5914  0.3223
  767MOL0     C 1139   3.971   5.611   6.024 -0.8834 -0.0527 -0.2265
  767MOL0     C 1140   3.886   5.721   6.059 -0.3851  0.2853 -0.0525
  767MOL0     C 1141   3.940   5.844   6.124  0.5199  0.0519 -0.9349
  767MOL0     O 1142   4.077   5.854   6.148  0.2996  0.8261  0.0815
  767MOL0     C 1143   4.123   5.977   6.187 -0.4589  0.5826  0.5201
  767MOL0     C 1144   4.107   6.017   6.315  0.6631 -0.1206 -0.3390
  767MOL0     C 1145   4.150   6.145   6.361 -0.1728 -0.7820  0.8198
  767MOL0     C 1146   4.217   6.229   6.277 -0.6359  0.4289 -0.1644
  767MOL0     O 1147   4.271   6.341   6.333  0.5481 -0.7927  0.0046
  767MOL0     C 1148   4.358   6.429   6.250 -0.4843  0.1240  0.0504
  767MOL0     C 1149   4.365   6.564   6.310  0.6288 -0.3612 -0.1212
  767MOL0     C 1150   4.439   6.556   6.442 -0.0363 -0.2234 -0.4973
  767MOL0     C 1151   4.417   6.682   6.524  0.3885 -0.5993  0.1231
  767MOL0     C 1152   4.482   6.673   6.661  0.2951  0.5838 -1.5256
  767MOL0     C 1153   4.639   6.685   6.651  1.3507  0.0400  0.3843
  767MOL0     C 1154   4.667   6.836   6.642  0.7862 -1.5923 -0.1324
  767MOL0     C 1155   4.807   6.870   6.592 -0.7249 -0.7114 -0.4559
  767MOL0    Cl 1156   4.848   6.824   6.434  0.1229  0.4666 -0.2633
  767MOL0     C 1157   4.238   6.193   6.147  0.2040  0.9289  0.8007
  767MOL0     C 1158   4.189   6.062   6.099  0.1974 -0.2323 -0.3681
  767MOL0     O 1159   3.857   5.932   6.149 -0.7288 -0.5557 -0.4227
  767MOL0     C 1160   3.748   5.701   6.029 -0.4264 -0.4597 -0.6947
  767MOL0     C 1161   3.702   5.590   5.965  0.7156  0.3100  0.3141
  767MOL0     N 1162   4.161   5.195   5.961 -0.9225  0.5086  0.2578
  767MOL0     N 1163   4.294   5.211   5.970  0.1053  0.3032 -0.1674
  767MOL0     C 1164   5.164   5.050   6.507 -0.4828  1.1916 -0.1672
  767MOL0     C 1165   5.247   5.153   6.517  1.0042 -0.1832 -0.6466
  767MOL0     C 1166   5.461   5.570   6.479 -0.2369 -0.8049  0.7578
  767MOL0     C 1167   5.477   5.565   6.615 -0.0665 -0.4973 -0.1165
  767MOL0     C 1168   5.537   5.667   6.689 -0.0423 -1.0179  0.4640
  767MOL0     C 1169   5.599   5.769   6.624  0.4448  0.4498  0.3441
  767MOL0     O 1170   5.665   5.857   6.699  0.5422 -0.2408 -0.3975
  767MOL0     C 1171   5.708   5.987   6.647 -0.3076  0.3878 -0.1905
  767MOL0     C 1172   5.839   5.996   6.573 -0.8334 -0.2873 -0.0833
  767MOL0     C 1173   5.855   6.136   6.523 -0.1361  0.3091  0.0471
  767MOL0     C 1174   5.792   6.165   6.385 -0.6068  1.1057 -0.3655
  767MOL0     C 1175   5.642   6.154   6.372 -0.7148 -0.0688  0.5263
  767MOL0     C 1176   5.523   6.152   6.373  0.9207  0.6970  0.4763
  767MOL0     C 1177   5.585   5.778   6.481  0.3207  0.1084  0.6213
  767MOL0     C 1178   5.516   5.684   6.416 -0.4157  0.5023  0.8062
  767MOL0     H 1179   5.146   5.345   6.269  0.8009 -0.4578  1.6467
  767MOL0     H 1180   4.997   5.160   6.232  1.1667  1.2613 -0.9577
  767MOL0     H 1181   4.821   5.023   6.392 -2.4310 -1.3676 -0.3342
  767MOL0     H 1182   4.826   4.863   6.454  1.4856 -0.2770  0.3995
  767MOL0     H 1183   4.858   4.768   6.243  0.0944 -0.2039 -1.1997
  767MOL0     H 1184   4.877   4.910   6.152 -0.8837  0.2742 -0.3920
  767MOL0     H 1185   4.642   4.985   6.180  0.1537  1.5670  4.6385
  767MOL0     H 1186   4.619   4.849   6.301 -2.4937  3.4220 -0.4276
  767MOL0     H 1187   4.677   4.707   6.074  2.9074  0.8951  3.4756
  767MOL0     H 1188   4.515   4.736   6.144 -3.2160  4.3550 -0.7164
  767MOL0     H 1189   4.438   4.890   6.019 -0.1729  0.1574  1.4642
  767MOL0     H 1190   4.515   4.767   5.911  3.0489 -1.5360  1.2073
  767MOL0     H 1191   4.722   4.904   5.875  0.5445  2.1827  0.3192
  767MOL0     H 1192   4.661   5.025   5.981 -1.0433 -0.5049  0.5770
  767MOL0     H 1193   4.628   5.028   5.719  0.0542  1.5986  1.4922
  767MOL0     H 1194   4.484   4.939   5.741 -0.5345  2.0443 -0.2260
  767MOL0     H 1195   4.451   5.185   5.722 -0.4099  1.5249  0.2207
  767MOL0     H 1196   4.540   5.190   5.879  1.7622  0.9297 -3.5621
  767MOL0     H 1197   4.246   4.956   5.758  2.9895  1.5242 -1.4318
  767MOL0     H 1198   4.023   4.942   5.780  0.1772  1.5181 -4.5647
  767MOL0     H 1199   3.981   5.112   5.736 -0.4819 -0.2957 -0.2080
  767MOL0     H 1200   3.918   5.012   6.018 -4.0837 -1.7083  0.9452
  767MOL0     H 1201   3.810   4.963   5.902  0.4980 -0.4713 -0.7575
  767MOL0     H 1202   3.712   5.143   5.975  0.7960  1.8819  2.5882
  767MOL0     H 1203   3.860   5.223   6.016  1.4429 -1.4373 -0.5386
  767MOL0     H 1204   3.752   5.215   5.723  1.3300  0.9716 -0.7126
  767MOL0     H 1205   3.893   5.298   5.769  1.6742 -1.9512  1.3968
  767MOL0     H 1206   4.000   5.441   5.918  0.6250  0.7061  0.8148
  767MOL0     H 1207   4.079   5.618   6.032 -0.7351 -0.7563 -1.2919
  767MOL0     H 1208   4.066   5.943   6.383 -0.0559 -1.1142 -1.7990
  767MOL0     H 1209   4.146   6.181   6.464  2.4960 -1.2012  1.1595
  767MOL0     H 1210   4.311   6.449   6.153 -2.8839  1.2817  1.3556
  767MOL0     H 1211   4.452   6.375   6.238  0.3139  1.5137 -0.1227
  767MOL0     H 1212   4.265   6.605   6.329  0.6209 -1.0557  1.5409
  767MOL0     H 1213   4.412   6.640   6.247 -1.4205  2.1092  1.1116
  767MOL0     H 1214   4.545   6.538   6.422  1.7818  2.3149  4.8464
  767MOL0     H 1215   4.397   6.469   6.495  0.1246 -0.0521 -0.0789
  767MOL0     H 1216   4.450   6.764   6.460 -0.3129 -1.5041 -1.4788
  767MOL0     H 1217   4.313   6.702   6.552 -0.1722 -0.2560 -2.0077
  767MOL0     H 1218   4.448   6.583   6.714 -2.7746  1.7898 -1.2664
  767MOL0     H 1219   4.443   6.752   6.725  2.9808  1.3841 -0.7354
  767MOL0     H 1220   4.674   6.640   6.558 -0.2852  2.7453 -1.6976
  767MOL0     H 1221   4.679   6.645   6.744 -2.9509  0.2258  2.5859
  767MOL0     H 1222   4.587   6.882   6.584  2.0876 -0.7219 -1.2893
  767MOL0     H 1223   4.645   6.879   6.740  0.3363 -1.2343 -0.3885
  767MOL0     H 1224   4.867   6.807   6.659 -0.5106 -1.0228 -0.9402
  767MOL0     H 1225   4.815   6.978   6.609 -0.8342 -0.9261  1.1707
  767MOL0     H 1226   4.303   6.252   6.083  0.8604  0.0110  0.6023
  767MOL0     H 1227   4.202   6.037   5.994 -3.6537  0.3817 -1.1436
  767MOL0     H 1228   3.673   5.773   6.061 -0.3777 -0.2632 -1.0186
  767MOL0     H 1229   3.600   5.581   5.928  2.4308 -1.2720 -5.0013
  767MOL0     H 1230   5.169   4.971   6.581 -3.0818 -0.4996 -1.6446
  767MOL0     H 1231   5.308   5.166   6.605  2.3374 -0.0430 -1.5582
  767MOL0     H 1232   5.418   5.498   6.676 -0.9474 -0.0448 -0.4519
  767MOL0     H 1233   5.526   5.668   6.796 -1.7374  3.1317  0.4580
  767MOL0     H 1234   5.728   6.054   6.732  1.5399 -0.3342 -0.0128
  767MOL0     H 1235   5.623   6.037   6.600 -1.6664 -1.7518 -0.1556
  767MOL0     H 1236   5.918   5.980   6.647 -0.1190  4.5339  0.4695
  767MOL0     H 1237   5.857   5.928   6.488  0.6092  1.2626 -1.0914
  767MOL0     H 1238   5.961   6.160   6.531  0.9969 -2.3479 -4.0980
  767MOL0     H 1239   5.804   6.201   6.596 -1.7823 -3.5089  2.6125
  767MOL0     H 1240   5.821   6.267   6.356 -0.9034  1.6559  1.2011
  767MOL0     H 1241   5.824   6.093   6.309 -0.0601  0.6545  0.2856
  767MOL0     H 1242   5.420   6.136   6.398  0.7914  1.2447  0.3100
  767MOL0     H 1243   5.623   5.865   6.428 -3.0236  1.4111  0.1083
  767MOL0     H 1244   5.513   5.697   6.308 -1.6702  2.4438  1.0365
  768MOL0     O 1245  10.557  11.140   8.547  0.3218  0.0102 -0.3784
  768MOL0     C 1246  10.533  11.203   8.649 -0.1308  0.2430  0.7198
  768MOL0     O 1247  10.420  11.262   8.676 -0.2792 -0.4168 -0.3354
  768MOL0     C 1248  10.315  11.229   8.595 -0.1926  0.4738  0.1682
  768MOL0     C 1249  10.300  11.274   8.463  0.6871 -0.7623 -0.7336
  768MOL0     C 1250  10.175  11.254   8.396 -0.6556  0.5732 -0.5706
  768MOL0     C 1251  10.068  11.196   8.460  0.7326  0.1524 -0.3834
  768MOL0     O 1252   9.952  11.185   8.381  0.0975  0.1525 -0.4911
  768MOL0     C 1253   9.851  11.090   8.424 -0.3314  0.2748 -0.0478
  768MOL0     C 1254   9.765  11.053   8.304 -1.0891 -0.6132 -1.2654
  768MOL0     C 1255   9.782  10.905   8.264 -0.3775  1.1575 -0.7468
  768MOL0     C 1256   9.730  10.885   8.118  0.5621 -0.2403 -0.4032
  768MOL0     C 1257   9.747  10.740   8.076 -0.1196  0.1810  1.2341
  768MOL0     C 1258   9.654  10.707   7.956 -0.1419  0.0997  0.7384
  768MOL0     C 1259   9.690  10.572   7.886 -0.0208  1.6106 -0.1853
  768MOL0     C 1260   9.607  10.555   7.755  0.4423  0.4177  0.2031
  768MOL0     N 1261   9.603  10.419   7.708  0.0284  0.0784 -0.4322
  768MOL0     C 1262   9.504  10.333   7.740  0.8062  0.0946 -0.7226
  768MOL0     C 1263   9.526  10.217   7.682 -0.5164  0.4682  0.0279
  768MOL0     C 1264   9.431  10.099   7.676  0.5295  0.1105  0.3459
  768MOL0     C 1265   9.451  10.013   7.804  0.0352  0.8838 -0.7293
  768MOL0     C 1266   9.538   9.880   7.808  0.0289 -0.1657  0.8506
  768MOL0     C 1267   9.674   9.878   7.733  1.5992  0.0488  0.2190
  768MOL0     O 1268   9.747   9.768   7.779  0.3048  0.7464  0.9265
  768MOL0     C 1269   9.867   9.790   7.847 -0.7975 -0.6714  1.5337
  768MOL0     C 1270   9.875   9.761   7.982  0.5186 -0.4902 -1.4392
  768MOL0     C 1271   9.993   9.780   8.056 -0.8396  0.4440  0.0493
  768MOL0     C 1272  10.116   9.816   7.997  0.1796  0.2135  0.2565
  768MOL0     C 1273  10.234   9.838   8.069  0.8407 -0.1375  0.0730
  768MOL0     O 1274  10.353   9.880   8.001  0.7312 -0.5914 -0.5626
  768MOL0     C 1275  10.463   9.917   8.073  0.6561  0.6927  0.3753
  768MOL0     C 1276  10.493   9.863   8.205 -0.0984 -0.4609  0.0420
  768MOL0     C 1277  10.607   9.904   8.266  0.0256  0.8797  0.5258
  768MOL0     C 1278  10.702   9.982   8.212  0.4098 -1.3329  0.6469
  768MOL0     O 1279  10.806  10.017   8.289  0.4547 -0.4290 -0.5830
  768MOL0     C 1280  10.917  10.085   8.224  0.0926  0.2750  0.1997
  768MOL0     C 1281  11.027  10.108   8.327 -0.0329 -0.8277 -1.1594
  768MOL0     C 1282  11.122   9.992   8.348  0.1565 -0.6878 -0.0565
  768MOL0     C 1283  11.250  10.031   8.416 -0.1780  0.4505  0.4138
  768MOL0     C 1284  11.344   9.911   8.442 -0.0270  0.3074  0.6582
  768MOL0     C 1285  11.482   9.939   8.493 -0.0636 -0.9461 -0.8783
  768MOL0     C 1286  11.597   9.847   8.443  1.2148 -0.4871 -0.4587
  768MOL0     C 1287  11.563   9.701   8.447 -0.4443  0.3287  0.5848
  768MOL0    Cl 1288  11.563   9.645   8.609 -0.3245 -0.0778  0.0163
  768MOL0     C 1289  10.673  10.019   8.083 -1.0272 -0.4594  0.1240
  768MOL0     C 1290  10.552   9.998   8.016  0.4600  0.3902  0.3270
  768MOL0     O 1291  10.219   9.842   8.192 -0.3980 -0.8583  0.0147
  768MOL0     C 1292  10.103   9.849   7.861  0.7312  0.3415 -0.9069
  768MOL0     C 1293   9.991   9.823   7.778 -0.7190 -0.2456  0.7604
  768MOL0     N 1294   9.641  10.242   7.608  0.6611  0.0711 -0.1703
  768MOL0     N 1295   9.691  10.357   7.626 -0.1248  0.2672  0.1624
  768MOL0     C 1296  10.090  11.152   8.597  0.0627  0.3940  0.5563
  768MOL0     C 1297  10.213  11.168   8.661  0.3328  0.1825 -0.2488
  768MOL0     C 1298  10.652  11.217   8.734 -0.1499 -0.4696 -0.9375
  768MOL0     C 1299  10.756  11.128   8.720 -1.0343 -0.0584 -1.0345
  768MOL0     C 1300  10.880  11.141   8.788  1.4865 -0.1634 -0.7757
  768MOL0     C 1301  10.897  11.251   8.879  0.3981 -0.3920  0.4568
  768MOL0     O 1302  11.005  11.267   8.960 -0.5970 -0.9879 -0.3381
  768MOL0     C 1303  11.132  11.214   8.919 -0.9885  0.0698 -0.1516
  768MOL0     C 1304  11.168  11.070   8.967 -0.0001 -0.2386 -0.1636
  768MOL0     C 1305  11.280  11.000   8.880 -1.1856  0.4621 -0.7697
  768MOL0     C 1306  11.233  10.978   8.740 -0.5468  0.5748  1.5973
  768MOL0     C 1307  11.315  10.882   8.676  0.3683  0.1306  0.3774
  768MOL0     C 1308  11.364  10.799   8.609  0.5623  0.4919 -0.0049
  768MOL0     C 1309  10.795  11.344   8.895  0.1065  0.3835  0.5997
  768MOL0     C 1310  10.671  11.331   8.825 -0.1131  0.6623 -0.1325
  768MOL0     H 1311  10.369  11.330   8.401 -1.8653  0.2545 -2.8759
  768MOL0     H 1312  10.158  11.295   8.297 -0.2364 -2.1510 -1.8528
  768MOL0     H 1313   9.781  11.147   8.487  1.8043  1.7516  1.1004
  768MOL0     H 1314   9.879  11.001   8.480 -2.6798 -0.2692  0.3882
  768MOL0     H 1315   9.780  11.119   8.217  0.3605  0.8398  0.0171
  768MOL0     H 1316   9.659  11.068   8.327 -0.9881 -1.0099 -0.5250
  768MOL0     H 1317   9.727  10.833   8.325 -2.0798 -0.4415 -3.9636
  768MOL0     H 1318   9.890  10.885   8.266 -0.6894 -0.5983  0.3783
  768MOL0     H 1319   9.623  10.909   8.116  0.2838 -1.4147 -0.1808
  768MOL0     H 1320   9.763  10.957   8.042 -3.2850  1.6564 -0.5518
  768MOL0     H 1321   9.722  10.665   8.152 -0.9816 -2.7827 -1.7498
  768MOL0     H 1322   9.850  10.738   8.040 -0.9037  2.2932 -1.4679
  768MOL0     H 1323   9.659  10.787   7.882  1.2687  1.9653  2.7433
  768MOL0     H 1324   9.555  10.692   8.000  0.7886  0.3622  3.0405
  768MOL0     H 1325   9.797  10.565   7.865 -0.3912  0.1249 -1.8802
  768MOL0     H 1326   9.663  10.485   7.946  0.8045  0.3331 -1.5741
  768MOL0     H 1327   9.652  10.625   7.683  3.9363 -1.0024  0.8138
  768MOL0     H 1328   9.503  10.578   7.782 -0.6068 -1.6248 -1.7439
  768MOL0     H 1329   9.426  10.355   7.812  0.0299  1.1705 -1.8596
  768MOL0     H 1330   9.451  10.042   7.585 -0.8317  1.3082 -0.7464
  768MOL0     H 1331   9.325  10.122   7.662  1.2218  4.3074  0.9349
  768MOL0     H 1332   9.348   9.992   7.834 -0.7365  1.0788 -3.0208
  768MOL0     H 1333   9.482  10.074   7.889  1.2802  1.5332 -1.6254
  768MOL0     H 1334   9.548   9.846   7.912 -4.0075 -0.4328  1.3089
  768MOL0     H 1335   9.478   9.800   7.763 -1.8270  1.1355  0.8672
  768MOL0     H 1336   9.726   9.973   7.747  2.0112 -0.2225  0.5603
  768MOL0     H 1337   9.649   9.882   7.627  2.5299  1.9967  0.0451
  768MOL0     H 1338   9.778   9.741   8.025 -0.3359  2.9276 -1.4798
  768MOL0     H 1339   9.985   9.748   8.160 -3.4457 -1.7177 -0.6891
  768MOL0     H 1340  10.429   9.801   8.267 -1.9687 -0.2184 -1.5588
  768MOL0     H 1341  10.612   9.872   8.369 -1.0323  0.6270  0.5193
  768MOL0     H 1342  10.881  10.184   8.194 -3.0864 -0.7689  0.1324
  768MOL0     H 1343  10.951  10.032   8.134  1.5627 -0.3350  1.0738
  768MOL0     H 1344  10.986  10.151   8.418 -1.8924 -1.6696 -1.5527
  768MOL0     H 1345  11.090  10.185   8.282 -0.3822 -0.8354 -1.6729
  768MOL0     H 1346  11.135   9.935   8.256 -5.5003 -1.4550 -0.7445
  768MOL0     H 1347  11.066   9.924   8.412 -2.4229  1.8088  0.5502
  768MOL0     H 1348  11.311  10.090   8.347  1.1341 -2.2618 -0.9117
  768MOL0     H 1349  11.224  10.083   8.509 -0.4202 -0.2613  0.7467
  768MOL0     H 1350  11.360   9.862   8.346  1.6467  0.5551  0.7836
  768MOL0     H 1351  11.297   9.840   8.511  3.0047 -1.5193  0.9832
  768MOL0     H 1352  11.474   9.957   8.601 -0.2322  0.8601 -1.1550
  768MOL0     H 1353  11.513  10.038   8.457  1.3746 -0.3717  1.6706
  768MOL0     H 1354  11.615   9.865   8.337  0.6616  0.7378 -0.3618
  768MOL0     H 1355  11.681   9.879   8.506 -0.8910 -0.7143  2.7424
  768MOL0     H 1356  11.643   9.644   8.397 -0.4034 -0.1300  1.1664
  768MOL0     H 1357  11.474   9.672   8.391  0.2187 -0.1842 -0.2350
  768MOL0     H 1358  10.746  10.074   8.024 -1.6766 -0.3643 -0.6111
  768MOL0     H 1359  10.545  10.022   7.910  1.2406 -2.2769 -0.3955
  768MOL0     H 1360  10.181   9.886   7.795 -0.2601 -0.4080 -2.5583
  768MOL0     H 1361   9.989   9.849   7.673 -0.0647 -2.5089  0.1518
  768MOL0     H 1362   9.998  11.115   8.642  1.4455 -1.5101  1.9813
  768MOL0     H 1363  10.220  11.143   8.767 -0.9087  1.9657  0.3046
  768MOL0     H 1364  10.738  11.037   8.664 -3.4132 -0.0933 -0.3080
  768MOL0     H 1365  10.955  11.067   8.763  2.4590  0.9936 -1.4475
  768MOL0     H 1366  11.219  11.271   8.954  0.0253 -0.7579 -1.2355
  768MOL0     H 1367  11.123  11.204   8.811  0.1077 -0.8788 -0.1698
  768MOL0     H 1368  11.203  11.083   9.070 -3.2776  1.0157  0.9579
  768MOL0     H 1369  11.079  11.006   8.961  0.7418 -1.2429 -0.6016
  768MOL0     H 1370  11.314  10.907   8.927 -0.7358  1.8170  1.7838
  768MOL0     H 1371  11.365  11.069   8.891 -0.7598 -0.4028  2.8271
  768MOL0     H 1372  11.131  10.938   8.742 -0.0228 -0.9117  0.5678
  768MOL0     H 1373  11.235  11.074   8.687 -0.4290 -0.7704 -0.9884
  768MOL0     H 1374  11.412  10.712   8.570 -1.2665 -0.0806 -1.0618
  768MOL0     H 1375  10.810  11.423   8.968  1.3101 -0.6342  1.5038
  768MOL0     H 1376  10.600  11.407   8.855  1.5455  1.5286  1.8589
  769MOL0     O 1377   7.358   3.405   0.137  0.0962  0.4685 -0.1176
  769MOL0     C 1378   7.352   3.285   0.127 -1.0326  0.3731  0.8220
  769MOL0     O 1379   7.247   3.208   0.147  0.0581 -0.0956  0.0607
  769MOL0     C 1380   7.120   3.240   0.098  0.0898 -0.5788  0.2987
  769MOL0     C 1381   7.010   3.165   0.148 -0.4366  0.2692 -0.2900
  769MOL0     C 1382   6.884   3.185   0.096  0.3657  0.7188  0.0021
  769MOL0     C 1383   6.855   3.278  -0.006 -0.8352  0.1014 -0.2020
  769MOL0     O 1384   6.738   3.304  -0.053  0.2301  0.0311  0.3358
  769MOL0     C 1385   6.669   3.197  -0.123 -0.3306 -0.1288 -0.1299
  769MOL0     C 1386   6.556   3.237  -0.210  0.3355 -0.2686  0.6595
  769MOL0     C 1387   6.432   3.287  -0.133  0.4094  0.2139  0.6582
  769MOL0     C 1388   6.316   3.324  -0.220  0.3538  0.4542  0.4289
  769MOL0     C 1389   6.207   3.216  -0.228  0.0461 -0.1974 -0.9175
  769MOL0     C 1390   6.130   3.212  -0.094  0.2006 -1.2311 -0.9557
  769MOL0     C 1391   6.028   3.105  -0.106  0.6136  0.4781 -0.3177
  769MOL0     C 1392   5.921   3.103  -0.220 -0.4561 -0.5027  0.4342
  769MOL0     N 1393   5.787   3.044  -0.190  0.4459  0.2144 -0.3814
  769MOL0     C 1394   5.698   3.083  -0.089  0.5227  0.0214 -0.4721
  769MOL0     C 1395   5.599   2.994  -0.105 -0.2595  0.4529 -0.2325
  769MOL0     C 1396   5.464   2.987  -0.036 -0.4293 -0.3784  0.7799
  769MOL0     C 1397   5.355   3.048  -0.121 -0.7786  0.3107  0.1538
  769MOL0     C 1398   5.215   3.003  -0.055 -0.0667 -0.6506  0.4590
  769MOL0     C 1399   5.101   3.076  -0.129  0.3192 -0.1533  0.6211
  769MOL0     O 1400   4.969   3.042  -0.080  0.5280 -0.5916 -0.2866
  769MOL0     C 1401   4.930   3.121   0.021  0.6478  0.1256  0.1913
  769MOL0     C 1402   5.009   3.205   0.104  0.9145  0.3090  0.9601
  769MOL0     C 1403   4.940   3.286   0.198 -1.2177  0.1784  0.0176
  769MOL0     C 1404   4.800   3.281   0.216 -0.1926 -0.4254 -0.1444
  769MOL0     C 1405   4.729   3.360   0.318  0.4181  0.3571  1.1116
  769MOL0     O 1406   4.592   3.344   0.328 -0.0007  0.8291  0.8676
  769MOL0     C 1407   4.505   3.418   0.411 -0.3975 -0.1593  0.3575
  769MOL0     C 1408   4.536   3.554   0.448  0.6408 -0.2893 -0.7013
  769MOL0     C 1409   4.454   3.628   0.537  0.6688  0.3388  0.4427
  769MOL0     C 1410   4.335   3.566   0.584  0.5586  0.5602  0.2537
  769MOL0     O 1411   4.246   3.643   0.659 -0.5879 -0.1172  0.0691
  769MOL0     C 1412   4.112   3.656   0.603 -0.5934  1.1628  0.3321
  769MOL0     C 1413   4.038   3.763   0.685  0.6492  0.4414  0.0943
  769MOL0     C 1414   3.996   3.704   0.826  0.2894 -0.4598  0.1078
  769MOL0     C 1415   3.897   3.785   0.892 -0.3609  0.0806 -0.1883
  769MOL0     C 1416   3.747   3.785   0.842 -0.1109 -0.3751  0.2325
  769MOL0     C 1417   3.672   3.896   0.910  0.1449  0.3436  0.1541
  769MOL0     C 1418   3.542   3.918   0.835 -0.4326  0.4407 -0.3719
  769MOL0     C 1419   3.441   4.011   0.911 -0.0014 -0.5205  0.4890
  769MOL0    Cl 1420   3.502   4.185   0.915 -0.4175  0.0933 -0.5464
  769MOL0     C 1421   4.309   3.436   0.541  0.4657 -0.0994 -1.3130
  769MOL0     C 1422   4.391   3.354   0.464  0.8732 -1.2729  0.6482
  769MOL0     O 1423   4.798   3.431   0.393 -0.3711 -0.9815  0.3530
  769MOL0     C 1424   4.721   3.188   0.137  0.1863  0.3767  0.0627
  769MOL0     C 1425   4.791   3.108   0.050 -0.2609  0.3789 -0.4313
  769MOL0     N 1426   5.624   2.907  -0.212 -1.5566 -0.1493 -0.9124
  769MOL0     N 1427   5.744   2.931  -0.251  0.4301  0.9882  1.2161
  769MOL0     C 1428   6.957   3.354  -0.049  1.2447  0.5830 -0.0806
  769MOL0     C 1429   7.087   3.331  -0.004 -0.2315  0.4876 -0.0267
  769MOL0     C 1430   7.456   3.213   0.068  0.5946  0.0059  2.4129
  769MOL0     C 1431   7.427   3.101  -0.016  0.4375 -0.4961 -0.7525
  769MOL0     C 1432   7.524   3.051  -0.104  0.5922 -0.3298  0.6284
  769MOL0     C 1433   7.652   3.106  -0.117 -0.2200  0.5171 -0.1375
  769MOL0     O 1434   7.757   3.055  -0.195  1.0034 -0.4826  0.4028
  769MOL0     C 1435   7.744   2.932  -0.265  0.0570 -0.3321  0.5532
  769MOL0     C 1436   7.871   2.893  -0.333  0.3507 -0.5975 -0.2221
  769MOL0     C 1437   7.847   2.802  -0.451 -0.7829  0.8450  0.1829
  769MOL0     C 1438   7.981   2.750  -0.519  0.8789  0.0939  0.3107
  769MOL0     C 1439   8.034   2.638  -0.448  0.4343  0.9719 -0.1253
  769MOL0     C 1440   8.089   2.544  -0.401  0.2556 -0.1032 -0.5000
  769MOL0     C 1441   7.678   3.218  -0.037  0.8998  0.0483  0.8378
  769MOL0     C 1442   7.583   3.276   0.050  0.5759 -1.3044  0.7536
  769MOL0     H 1443   7.021   3.087   0.223 -0.3519  2.6021  2.2675
  769MOL0     H 1444   6.797   3.136   0.137 -0.1115  1.6980  0.1927
  769MOL0     H 1445   6.626   3.119  -0.060 -1.6804  0.5406 -0.1922
  769MOL0     H 1446   6.743   3.156  -0.192 -0.8941  0.9419 -1.4121
  769MOL0     H 1447   6.525   3.151  -0.271  1.3620 -0.3224  0.1894
  769MOL0     H 1448   6.608   3.309  -0.273  0.6991  0.6345  1.9696
  769MOL0     H 1449   6.456   3.376  -0.074  2.4757  0.6502 -0.7439
  769MOL0     H 1450   6.397   3.210  -0.064 -0.8258  0.3071  0.1604
  769MOL0     H 1451   6.278   3.425  -0.204  0.9002  0.9077 -0.9635
  769MOL0     H 1452   6.344   3.314  -0.325  1.1714 -1.7035  0.7938
  769MOL0     H 1453   6.263   3.122  -0.234  3.0099  1.4631 -1.3014
  769MOL0     H 1454   6.144   3.234  -0.316 -0.0249  4.8906 -0.1001
  769MOL0     H 1455   6.091   3.313  -0.077  2.0408 -0.5812 -0.2614
  769MOL0     H 1456   6.209   3.192  -0.020  0.3880 -1.0387 -1.1050
  769MOL0     H 1457   6.095   3.020  -0.120 -0.1550 -0.1126 -0.5370
  769MOL0     H 1458   5.979   3.093  -0.009  1.3673 -0.9019 -0.0797
  769MOL0     H 1459   5.959   3.059  -0.312 -4.0371  2.3031 -2.6704
  769MOL0     H 1460   5.913   3.203  -0.263  0.0034 -0.6575 -0.0181
  769MOL0     H 1461   5.687   3.172  -0.027 -1.6886 -0.7196  0.2926
  769MOL0     H 1462   5.475   3.039   0.060  1.0189  1.5403 -0.3339
  769MOL0     H 1463   5.445   2.881  -0.021 -0.5864 -0.2134  1.7696
  769MOL0     H 1464   5.366   3.021  -0.226 -2.4882  2.8271 -0.7786
  769MOL0     H 1465   5.370   3.156  -0.120  0.7866  0.1548 -1.7507
  769MOL0     H 1466   5.211   2.893  -0.049  1.0488 -0.7317 -0.0582
  769MOL0     H 1467   5.230   3.032   0.049  0.6034  0.0894  0.1644
  769MOL0     H 1468   5.107   3.048  -0.235 -0.0395  0.2252  0.4957
  769MOL0     H 1469   5.123   3.182  -0.145  1.6378 -0.7798 -2.5423
  769MOL0     H 1470   5.113   3.224   0.080 -0.3186  2.7563 -3.7079
  769MOL0     H 1471   5.003   3.351   0.260 -0.0828 -0.1931 -0.7100
  769MOL0     H 1472   4.630   3.604   0.430  2.5871 -1.4198  4.6256
  769MOL0     H 1473   4.481   3.729   0.566 -0.6415  1.7203 -2.6788
  769MOL0     H 1474   4.060   3.561   0.616  2.3787 -1.1554 -2.7249
  769MOL0     H 1475   4.118   3.681   0.497  1.6785  0.1241  0.1401
  769MOL0     H 1476   3.947   3.805   0.641 -0.7300 -2.3223  0.1055
  769MOL0     H 1477   4.104   3.850   0.694  2.0049 -0.4833 -0.6050
  769MOL0     H 1478   4.093   3.706   0.876  1.3348  3.4854 -1.6572
  769MOL0     H 1479   3.956   3.603   0.822 -1.9703  0.3525  0.4640
  769MOL0     H 1480   3.894   3.744   0.993  2.9404  0.9416  0.3765
  769MOL0     H 1481   3.931   3.888   0.899  6.4347 -1.4353 -2.8899
  769MOL0     H 1482   3.712   3.683   0.859 -1.8732  0.3801  1.3268
  769MOL0     H 1483   3.739   3.798   0.733 -0.9522 -0.2338  0.3040
  769MOL0     H 1484   3.734   3.986   0.912 -0.0252  0.5042 -1.1194
  769MOL0     H 1485   3.646   3.866   1.012 -2.6326  2.2052  0.0916
  769MOL0     H 1486   3.560   3.953   0.733  1.4605 -3.5384 -1.6234
  769MOL0     H 1487   3.498   3.819   0.823  0.1636  0.2308 -0.9143
  769MOL0     H 1488   3.425   3.979   1.015 -1.5074 -0.9872  0.1476
  769MOL0     H 1489   3.339   4.008   0.870  0.2749 -1.4847 -0.1436
  769MOL0     H 1490   4.219   3.399   0.590  0.0257 -0.8209 -2.6227
  769MOL0     H 1491   4.360   3.253   0.441 -0.2245 -1.4224  2.5963
  769MOL0     H 1492   4.615   3.165   0.140  0.0121  0.9066 -1.3718
  769MOL0     H 1493   4.727   3.033   0.005  0.2396 -2.0601  2.5370
  769MOL0     H 1494   6.927   3.423  -0.127 -3.6658 -3.4103 -2.3139
  769MOL0     H 1495   7.173   3.382  -0.047  0.0644  0.3296  0.3632
  769MOL0     H 1496   7.331   3.052  -0.024  0.3891 -0.5932  0.2287
  769MOL0     H 1497   7.493   2.961  -0.156  0.2401 -0.0921  0.4216
  769MOL0     H 1498   7.665   2.939  -0.340 -1.0934  0.2505  1.7727
  769MOL0     H 1499   7.710   2.848  -0.204 -0.4467 -0.6947 -0.2144
  769MOL0     H 1500   7.925   2.982  -0.367 -0.2046  1.2546  3.3111
  769MOL0     H 1501   7.931   2.841  -0.258  1.2924  0.5959 -0.1068
  769MOL0     H 1502   7.810   2.876  -0.523 -1.8798  2.5131  2.3695
  769MOL0     H 1503   7.769   2.726  -0.437  1.2643 -1.0114  2.5589
  769MOL0     H 1504   7.961   2.707  -0.618 -3.7644  0.7027  0.7435
  769MOL0     H 1505   8.048   2.835  -0.532 -3.3074  3.2405 -4.4590
  769MOL0     H 1506   8.151   2.461  -0.373 -2.4235 -1.9160  0.4975
  769MOL0     H 1507   7.774   3.266  -0.028  1.5248 -1.3442  2.0085
  769MOL0     H 1508   7.606   3.348   0.127  0.0512  0.7564 -0.9307
  770MOL0     O 1509   2.461  11.263   1.108  0.0169  0.1310  0.1830
  770MOL0     C 1510   2.373  11.181   1.119  0.3347 -0.2701 -0.6888
  770MOL0     O 1511   2.382  11.043   1.142 -0.2606 -0.4802  0.3521
  770MOL0     C 1512   2.511  11.003   1.147 -0.7542 -0.1447  1.1483
  770MOL0     C 1513   2.570  10.962   1.029  0.2096 -0.5130 -0.2827
  770MOL0     C 1514   2.707  10.915   1.037 -0.4145  0.2235  0.2071
  770MOL0     C 1515   2.777  10.906   1.155  0.3804  1.3704  0.1613
  770MOL0     O 1516   2.896  10.841   1.180  0.3395 -0.1234 -1.3278
  770MOL0     C 1517   2.943  10.756   1.073 -1.3281 -0.6131 -0.6162
  770MOL0     C 1518   3.057  10.666   1.123  0.2456 -0.4953 -0.9108
  770MOL0     C 1519   3.177  10.739   1.189 -1.0246  0.6555 -0.4156
  770MOL0     C 1520   3.278  10.809   1.093  0.4388 -0.6236 -0.2025
  770MOL0     C 1521   3.350  10.707   1.007  0.3950  0.0020  0.0235
  770MOL0     C 1522   3.438  10.782   0.904 -1.3337  0.3704 -0.5510
  770MOL0     C 1523   3.518  10.675   0.809  0.3342  0.0567 -0.4720
  770MOL0     C 1524   3.635  10.583   0.881  0.2255 -1.0408  0.9958
  770MOL0     N 1525   3.754  10.539   0.806  0.8144 -1.1789  0.4461
  770MOL0     C 1526   3.742  10.481   0.688  0.4405  1.0583  0.2415
  770MOL0     C 1527   3.872  10.447   0.651 -0.0325 -1.0975  0.8044
  770MOL0     C 1528   3.925  10.368   0.525 -0.3705  0.0566  0.0746
  770MOL0     C 1529   3.809  10.329   0.436 -0.2554 -0.6889  0.1662
  770MOL0     C 1530   3.861  10.229   0.323  0.5566  0.9656  1.0240
  770MOL0     C 1531   3.747  10.173   0.236 -0.8418  0.1823  0.2615
  770MOL0     O 1532   3.762  10.046   0.165  0.2040  0.2822  0.3792
  770MOL0     C 1533   3.765  10.075   0.031  0.2988  0.4953  0.4212
  770MOL0     C 1534   3.886  10.117  -0.030 -0.6597 -0.1565  0.1886
  770MOL0     C 1535   3.887  10.130  -0.171 -0.0328  0.4386  0.8609
  770MOL0     C 1536   3.774  10.087  -0.244  0.0045 -1.4295  0.4730
  770MOL0     C 1537   3.766  10.102  -0.392 -0.2224 -0.5804  0.2920
  770MOL0     O 1538   3.654  10.045  -0.445  0.0437  0.9793 -0.9251
  770MOL0     C 1539   3.628  10.053  -0.576 -1.0243 -1.0871  0.3522
  770MOL0     C 1540   3.567   9.953  -0.651 -0.5293  1.7822  0.5363
  770MOL0     C 1541   3.564   9.958  -0.789  1.0976 -0.7843  0.5148
  770MOL0     C 1542   3.618  10.057  -0.855 -0.7029 -0.2172  0.3773
  770MOL0     O 1543   3.624  10.040  -0.994 -0.5422  0.4438  0.0860
  770MOL0     C 1544   3.625  10.155  -1.089 -0.5917  0.2067 -0.1873
  770MOL0     C 1545   3.592  10.117  -1.234 -0.0970 -0.0185 -0.6495
  770MOL0     C 1546   3.458  10.046  -1.264  0.0721 -0.0538  0.2785
  770MOL0     C 1547   3.337  10.135  -1.251  0.6375 -0.8860  0.1804
  770MOL0     C 1548   3.205  10.072  -1.233 -0.8960 -0.2882  0.0041
  770MOL0     C 1549   3.155  10.008  -1.363 -0.0191  0.7028  0.7746
  770MOL0     C 1550   3.032   9.920  -1.333  1.5550 -0.7217  0.7849
  770MOL0     C 1551   2.968   9.845  -1.458  0.1328  0.8454 -0.3954
  770MOL0    Cl 1552   2.934   9.973  -1.575  0.1896  0.1797  0.1465
  770MOL0     C 1553   3.664  10.170  -0.784 -0.2211  0.1370 -0.3074
  770MOL0     C 1554   3.670  10.168  -0.647 -0.1682 -0.3823 -0.0845
  770MOL0     O 1555   3.863  10.155  -0.444  0.4131 -0.3935  0.4814
  770MOL0     C 1556   3.663  10.036  -0.178 -0.0589  0.7606  0.2689
  770MOL0     C 1557   3.666  10.023  -0.043  0.8678  0.5327 -0.0506
  770MOL0     N 1558   3.953  10.510   0.740  0.3272  0.5226 -0.6441
  770MOL0     N 1559   3.889  10.559   0.831 -0.0480  0.5924 -0.4893
  770MOL0     C 1560   2.716  10.964   1.267 -0.3531  0.2459 -0.2218
  770MOL0     C 1561   2.588  11.015   1.265 -0.2404 -0.1358  0.1417
  770MOL0     C 1562   2.235  11.217   1.092  0.1665  0.4552 -0.4351
  770MOL0     C 1563   2.127  11.125   1.123 -0.5780 -1.5868  0.4095
  770MOL0     C 1564   1.989  11.173   1.098 -0.2175  0.1519 -0.5470
  770MOL0     C 1565   1.973  11.293   1.026 -0.5791 -0.6294  0.2374
  770MOL0     O 1566   1.853  11.348   0.987 -0.8106 -0.1613  0.3671
  770MOL0     C 1567   1.726  11.281   1.019 -0.6849 -0.0416  0.0393
  770MOL0     C 1568   1.688  11.288   1.170 -0.3102 -0.6329  1.1001
  770MOL0     C 1569   1.708  11.425   1.226 -0.1401  0.0190  0.4560
  770MOL0     C 1570   1.636  11.545   1.153 -0.2228  0.3037  0.5674
  770MOL0     C 1571   1.500  11.565   1.202  0.3909  0.0983 -0.7506
  770MOL0     C 1572   1.392  11.570   1.249  0.3215 -0.0934  0.1685
  770MOL0     C 1573   2.077  11.373   1.002 -0.6616 -0.3732  0.4550
  770MOL0     C 1574   2.202  11.337   1.029 -0.2003  0.5518  0.0433
  770MOL0     H 1575   2.505  10.944   0.944  0.1172 -0.3263 -0.2517
  770MOL0     H 1576   2.744  10.881   0.941  1.2903 -1.2209  1.3105
  770MOL0     H 1577   2.973  10.830   0.998  1.9869 -1.0497  0.1596
  770MOL0     H 1578   2.858  10.695   1.042 -3.4754  0.3569  2.7452
  770MOL0     H 1579   3.079  10.603   1.036 -0.9075 -0.8426 -0.9743
  770MOL0     H 1580   3.017  10.598   1.199 -2.4824 -1.0832 -2.7217
  770MOL0     H 1581   3.235  10.664   1.243 -2.5094 -0.1878  0.0458
  770MOL0     H 1582   3.144  10.811   1.264  1.4800  0.3932  1.0700
  770MOL0     H 1583   3.228  10.888   1.036 -1.6074 -0.2247  1.9992
  770MOL0     H 1584   3.347  10.867   1.156 -1.8185  3.5585 -1.1640
  770MOL0     H 1585   3.281  10.642   0.951 -0.3937  1.6941 -1.0440
  770MOL0     H 1586   3.412  10.644   1.072  0.2994 -0.5421 -0.4034
  770MOL0     H 1587   3.521  10.835   0.951 -1.5407  2.0710 -1.9657
  770MOL0     H 1588   3.377  10.854   0.848 -2.7961 -0.3728  0.0306
  770MOL0     H 1589   3.442  10.620   0.753  0.3762  1.6651 -2.1786
  770MOL0     H 1590   3.573  10.735   0.736 -0.3367  1.4322  0.1171
  770MOL0     H 1591   3.597  10.492   0.929  0.3159 -1.5197  0.1867
  770MOL0     H 1592   3.675  10.653   0.955  0.0448  0.9017 -0.6542
  770MOL0     H 1593   3.648  10.447   0.645 -0.9078  2.0368  2.2756
  770MOL0     H 1594   3.974  10.274   0.550  1.3397  0.7146 -0.6386
  770MOL0     H 1595   3.999  10.422   0.465 -0.4910 -0.0167 -0.1405
  770MOL0     H 1596   3.759  10.419   0.398 -0.1289 -0.2930  0.9165
  770MOL0     H 1597   3.731  10.273   0.487  0.2504 -1.1944  0.3959
  770MOL0     H 1598   3.924  10.279   0.250  1.2402 -4.0558 -2.3707
  770MOL0     H 1599   3.916  10.142   0.361  0.0947  0.8287  1.3925
  770MOL0     H 1600   3.706  10.249   0.169 -1.4012 -1.7558 -1.7138
  770MOL0     H 1601   3.679  10.142   0.317  1.5177 -2.3678  1.4317
  770MOL0     H 1602   3.978  10.146   0.019 -1.3140  0.6838  0.9587
  770MOL0     H 1603   3.975  10.161  -0.226  0.0830 -2.7591 -0.9855
  770MOL0     H 1604   3.520   9.871  -0.597 -0.9762  1.9553  0.4110
  770MOL0     H 1605   3.515   9.880  -0.846 -2.6030  1.5395  0.1847
  770MOL0     H 1606   3.723  10.203  -1.088  1.0665 -2.8645 -0.4169
  770MOL0     H 1607   3.547  10.225  -1.061 -1.0355 -0.6637  0.8318
  770MOL0     H 1608   3.660  10.037  -1.264 -1.5338 -0.4223 -3.1100
  770MOL0     H 1609   3.603  10.203  -1.300  0.2493 -1.6372 -2.8006
  770MOL0     H 1610   3.442   9.962  -1.195 -1.6007  0.1738  0.2185
  770MOL0     H 1611   3.473  10.000  -1.362  2.1246 -2.5072  1.6115
  770MOL0     H 1612   3.359  10.199  -1.166  1.1172  1.8869 -1.8745
  770MOL0     H 1613   3.340  10.201  -1.338  0.0069  2.2015  2.3494
  770MOL0     H 1614   3.150  10.158  -1.193  1.6747  1.1279  0.6526
  770MOL0     H 1615   3.205  10.000  -1.150  0.3805 -0.0218  0.2480
  770MOL0     H 1616   3.239   9.948  -1.398  1.1909  2.7508  0.0136
  770MOL0     H 1617   3.118  10.070  -1.446 -1.0839 -1.1800 -0.2330
  770MOL0     H 1618   3.068   9.845  -1.263  0.9038 -2.0865 -0.2897
  770MOL0     H 1619   2.961   9.988  -1.284  0.9758  0.0462 -1.0232
  770MOL0     H 1620   2.872   9.797  -1.439 -0.9983  1.6876 -3.4313
  770MOL0     H 1621   3.030   9.767  -1.504 -2.2721 -2.6567  1.7877
  770MOL0     H 1622   3.721  10.256  -0.818  1.3926 -0.6810  0.2098
  770MOL0     H 1623   3.714  10.260  -0.609  4.8455 -2.2527 -0.6384
  770MOL0     H 1624   3.573  10.012  -0.235 -0.3754  1.2849  0.5410
  770MOL0     H 1625   3.577   9.973  -0.006  2.6950 -2.4260  0.6985
  770MOL0     H 1626   2.760  10.955   1.366  0.1948 -2.6115 -0.6319
  770MOL0     H 1627   2.549  11.037   1.363 -0.0939  3.7701 -0.5164
  770MOL0     H 1628   2.155  11.035   1.177  1.1639  0.3930  3.1270
  770MOL0     H 1629   1.906  11.115   1.136  0.4758  0.7750  2.1640
  770MOL0     H 1630   1.749  11.178   0.988  2.7666  0.6746 -0.1478
  770MOL0     H 1631   1.646  11.316   0.954  0.6700  0.2062 -1.5481
  770MOL0     H 1632   1.584  11.257   1.181 -1.2863  1.5434 -1.1068
  770MOL0     H 1633   1.748  11.217   1.228  0.5116  0.5019  1.6649
  770MOL0     H 1634   1.815  11.450   1.222 -0.5924  1.9709 -1.6162
  770MOL0     H 1635   1.686  11.432   1.333  5.3570  1.5921  1.8476
  770MOL0     H 1636   1.691  11.639   1.166  1.0305 -0.2356 -0.6140
  770MOL0     H 1637   1.638  11.534   1.045 -1.7662  1.4121  0.3859
  770MOL0     H 1638   1.291  11.569   1.284  0.9177 -0.5684  1.9776
  770MOL0     H 1639   2.052  11.462   0.945  0.0587 -0.7568 -0.4769
  770MOL0     H 1640   2.278  11.408   0.997  0.3686  1.9799  4.0143
  771MOL0     O 1641   9.748   4.976   6.003 -0.6358 -0.6825  0.2629
  771MOL0     C 1642   9.769   4.886   5.913  1.0690 -0.3445  0.3989
  771MOL0     O 1643   9.693   4.780   5.884 -0.0560 -0.8872 -0.7828
  771MOL0     C 1644   9.583   4.746   5.960  0.0195  0.4912 -0.4666
  771MOL0     C 1645   9.508   4.646   5.917 -0.1022  0.3385 -0.1862
  771MOL0     C 1646   9.419   4.571   5.999 -0.0537  0.6723 -0.2918
  771MOL0     C 1647   9.400   4.618   6.130  0.1340  1.3601  0.3285
  771MOL0     O 1648   9.303   4.549   6.203  0.5571  0.8767  0.9741
  771MOL0     C 1649   9.291   4.560   6.344 -0.4727  0.1837 -0.9093
  771MOL0     C 1650   9.174   4.480   6.388  0.6792  0.0409  0.4401
  771MOL0     C 1651   9.169   4.487   6.549 -1.1406  0.1311 -0.3635
  771MOL0     C 1652   9.049   4.411   6.626 -0.7690 -0.2918  1.1039
  771MOL0     C 1653   9.049   4.414   6.786 -0.1323  0.3173 -0.0968
  771MOL0     C 1654   9.156   4.312   6.832  0.1023 -0.3106  0.0208
  771MOL0     C 1655   9.127   4.264   6.972 -0.4049  0.1083 -0.0366
  771MOL0     C 1656   9.013   4.155   6.965 -0.5433 -0.4902 -1.0203
  771MOL0     N 1657   9.049   4.050   7.061 -0.1459 -0.2278 -0.1108
  771MOL0     C 1658   9.033   4.065   7.196  0.1936 -0.5850 -0.2032
  771MOL0     C 1659   9.079   3.950   7.244 -0.0085  0.7848 -0.1390
  771MOL0     C 1660   9.085   3.909   7.387 -0.3818  0.5363  0.1684
  771MOL0     C 1661   9.011   4.007   7.482 -0.6346 -0.6563 -0.6979
  771MOL0     C 1662   9.007   3.954   7.626 -0.4059  0.9293 -0.2439
  771MOL0     C 1663   8.937   4.051   7.716  0.4128  0.0059 -1.4634
  771MOL0     O 1664   8.967   4.002   7.850 -0.2992 -0.2362 -0.1862
  771MOL0     C 1665   8.932   4.078   7.954 -0.0760  0.3806 -0.4069
  771MOL0     C 1666   8.949   4.029   8.080 -0.4410  0.0467 -1.5406
  771MOL0     C 1667   8.923   4.107   8.192  1.0589 -0.5405 -0.6217
  771MOL0     C 1668   8.888   4.252   8.187  0.3602 -0.4617  0.3020
  771MOL0     C 1669   8.874   4.330   8.313 -0.2999 -0.6990 -0.4659
  771MOL0     O 1670   8.856   4.468   8.314 -0.0377  1.1332 -0.0563
  771MOL0     C 1671   8.828   4.530   8.439 -0.0920 -0.5411  0.3763
  771MOL0     C 1672   8.936   4.582   8.517  1.1594 -0.3388 -0.9008
  771MOL0     C 1673   8.912   4.645   8.636 -0.8402 -0.1984 -0.2207
  771MOL0     C 1674   8.780   4.657   8.679  0.2028  1.2464 -0.7722
  771MOL0     O 1675   8.769   4.703   8.809 -0.2525 -0.2673 -0.1623
  771MOL0     C 1676   8.648   4.756   8.874  0.6585  0.1603  0.4783
  771MOL0     C 1677   8.586   4.862   8.795  0.3894 -0.3449 -0.2300
  771MOL0     C 1678   8.472   4.929   8.878 -1.1223  0.3738  0.4543
  771MOL0     C 1679   8.348   4.848   8.909  0.1302  0.5368  0.0455
  771MOL0     C 1680   8.237   4.942   8.976 -0.4904  0.1163  0.1330
  771MOL0     C 1681   8.182   5.040   8.877  0.1802 -0.2855  0.2355
  771MOL0     C 1682   8.044   5.089   8.920  0.9801 -0.8510  0.4121
  771MOL0     C 1683   7.993   5.218   8.852  0.3366 -0.3499 -0.9508
  771MOL0    Cl 1684   8.090   5.381   8.894  0.0161 -0.1745  0.5144
  771MOL0     C 1685   8.668   4.608   8.602 -0.1734  0.0611  0.1232
  771MOL0     C 1686   8.696   4.551   8.476 -0.0633  0.2383  0.3373
  771MOL0     O 1687   8.891   4.260   8.417  0.7685  0.2814 -0.5181
  771MOL0     C 1688   8.879   4.297   8.056 -0.5570  0.5779  0.6036
  771MOL0     C 1689   8.891   4.210   7.945 -0.5957 -0.4735 -0.0418
  771MOL0     N 1690   9.102   3.860   7.141 -0.0244 -0.7821 -0.1408
  771MOL0     N 1691   9.095   3.920   7.030 -0.5815 -0.0084  0.6228
  771MOL0     C 1692   9.471   4.723   6.174  0.3806  0.3107 -0.4840
  771MOL0     C 1693   9.563   4.784   6.092  0.1629 -0.1448  0.0480
  771MOL0     C 1694   9.891   4.911   5.833  0.1628 -0.3779 -0.6136
  771MOL0     C 1695   9.945   5.039   5.807  0.6015  0.4153 -0.6613
  771MOL0     C 1696  10.058   5.049   5.727  0.0323 -0.3584  0.7275
  771MOL0     C 1697  10.113   4.945   5.655 -0.2664 -0.7374  0.3334
  771MOL0     O 1698  10.217   4.954   5.568 -1.2710  0.1641  0.4586
  771MOL0     C 1699  10.295   5.076   5.567  0.0185 -1.1362  0.2276
  771MOL0     C 1700  10.405   5.092   5.464 -0.7923  0.1673 -0.3534
  771MOL0     C 1701  10.471   5.230   5.444  0.2088 -0.3947  0.5710
  771MOL0     C 1702  10.470   5.319   5.575  0.7073  0.1319  0.7722
  771MOL0     C 1703  10.565   5.261   5.669 -0.2370  0.6428 -0.1454
  771MOL0     C 1704  10.652   5.227   5.746  0.3290 -0.3389 -0.8264
  771MOL0     C 1705  10.054   4.824   5.672 -0.2940  1.0292 -0.4235
  771MOL0     C 1706   9.958   4.804   5.766  0.0503  0.0881  0.5888
  771MOL0     H 1707   9.537   4.609   5.819 -0.9244 -2.1899  0.4585
  771MOL0     H 1708   9.356   4.488   5.967 -0.8847  1.1092  0.1886
  771MOL0     H 1709   9.266   4.662   6.372 -1.1222 -0.6738  1.9487
  771MOL0     H 1710   9.383   4.519   6.389 -0.2776 -0.6359 -2.0027
  771MOL0     H 1711   9.176   4.377   6.351 -3.0171 -0.9432  2.5163
  771MOL0     H 1712   9.085   4.527   6.345  0.4858 -2.4911 -2.2030
  771MOL0     H 1713   9.148   4.593   6.571 -4.8453  0.2560 -3.5541
  771MOL0     H 1714   9.266   4.463   6.594  0.5106  3.3057 -1.8652
  771MOL0     H 1715   8.966   4.479   6.608  0.4735  1.0776  0.2904
  771MOL0     H 1716   9.037   4.310   6.586  1.7330 -0.3621  0.3689
  771MOL0     H 1717   8.945   4.397   6.816 -1.1093  2.8141 -1.7276
  771MOL0     H 1718   9.083   4.513   6.818  1.9128 -0.3928  0.0568
  771MOL0     H 1719   9.255   4.358   6.847 -0.2863  0.0087  1.9024
  771MOL0     H 1720   9.163   4.237   6.753  1.1180  0.3097 -0.5060
  771MOL0     H 1721   9.215   4.207   7.004 -2.2622 -2.0127  1.6461
  771MOL0     H 1722   9.097   4.344   7.040 -2.8223 -0.1049 -0.7791
  771MOL0     H 1723   8.995   4.114   6.865  0.7587 -1.9413 -0.7061
  771MOL0     H 1724   8.919   4.189   7.009  1.2502  3.3958  0.2802
  771MOL0     H 1725   8.997   4.150   7.253  0.4782 -0.8502  0.3809
  771MOL0     H 1726   9.188   3.891   7.418  0.2408  0.0795 -2.0292
  771MOL0     H 1727   9.028   3.816   7.387  0.8738 -0.2613 -0.2503
  771MOL0     H 1728   8.906   4.006   7.451 -1.3771  0.1965  1.5639
  771MOL0     H 1729   9.061   4.104   7.486 -3.0257  0.6027  2.6390
  771MOL0     H 1730   8.950   3.862   7.639 -3.2808  2.7998  1.7635
  771MOL0     H 1731   9.112   3.953   7.657 -0.1223  0.1618 -1.2116
  771MOL0     H 1732   8.831   4.057   7.691 -0.0639 -0.1237  0.3612
  771MOL0     H 1733   8.972   4.151   7.690 -4.9644  2.6599  0.0180
  771MOL0     H 1734   8.970   3.924   8.098 -0.1584  0.5741  2.0127
  771MOL0     H 1735   8.919   4.064   8.292  0.7892  2.0678  0.5714
  771MOL0     H 1736   9.036   4.558   8.482  1.6963 -0.3777  0.5781
  771MOL0     H 1737   9.001   4.678   8.688 -0.9652 -0.2441  0.0233
  771MOL0     H 1738   8.664   4.788   8.978 -0.7933 -1.3137  1.1909
  771MOL0     H 1739   8.578   4.675   8.893  0.8164 -0.2432 -0.5909
  771MOL0     H 1740   8.540   4.832   8.701 -0.3834  1.4382 -0.4583
  771MOL0     H 1741   8.657   4.945   8.785  0.3501 -0.3895 -0.9443
  771MOL0     H 1742   8.445   5.025   8.833  2.4539  0.8811 -1.0092
  771MOL0     H 1743   8.509   4.955   8.977 -1.9832  2.4843  0.2614
  771MOL0     H 1744   8.317   4.807   8.813  0.2112 -1.6083  0.8927
  771MOL0     H 1745   8.356   4.761   8.975  2.0090 -0.9398 -2.0020
  771MOL0     H 1746   8.278   5.002   9.057 -0.8503 -2.3177  2.2663
  771MOL0     H 1747   8.158   4.880   9.019  1.0732 -0.9411  1.6417
  771MOL0     H 1748   8.177   5.009   8.772  0.4423  2.1989 -0.5683
  771MOL0     H 1749   8.252   5.123   8.867  0.1412 -0.3422 -0.5852
  771MOL0     H 1750   7.974   5.006   8.911  1.2619 -0.9108 -1.9349
  771MOL0     H 1751   8.035   5.116   9.026 -2.5775  2.9065 -0.5711
  771MOL0     H 1752   7.888   5.236   8.876  0.7715  2.6698 -0.9510
  771MOL0     H 1753   7.990   5.199   8.745 -3.4827  1.4306 -1.3238
  771MOL0     H 1754   8.566   4.616   8.639 -0.5501  2.5340 -1.2193
  771MOL0     H 1755   8.627   4.507   8.404 -0.3751  1.4641 -0.1389
  771MOL0     H 1756   8.832   4.390   8.026 -1.2234 -0.0708 -0.4303
  771MOL0     H 1757   8.860   4.254   7.851 -0.7012 -1.4123 -0.4609
  771MOL0     H 1758   9.456   4.749   6.278 -0.3493  0.9233 -0.7383
  771MOL0     H 1759   9.624   4.846   6.156  1.3988 -2.5808  1.3620
  771MOL0     H 1760   9.906   5.119   5.869 -0.7635  0.1324 -1.1381
  771MOL0     H 1761  10.091   5.152   5.729 -2.9099  0.7090 -0.4332
  771MOL0     H 1762  10.330   5.077   5.671  0.6957 -2.3489  0.0255
  771MOL0     H 1763  10.232   5.165   5.555  2.4411  0.6726  0.0700
  771MOL0     H 1764  10.485   5.018   5.472 -3.3333 -2.6971  0.1149
  771MOL0     H 1765  10.359   5.070   5.367  1.0212  2.2564 -1.7841
  771MOL0     H 1766  10.431   5.289   5.361  4.5435  0.8792 -0.8614
  771MOL0     H 1767  10.575   5.213   5.414  0.0606  2.2912 -1.8160
  771MOL0     H 1768  10.518   5.410   5.540  0.0593 -0.3805 -1.5918
  771MOL0     H 1769  10.370   5.333   5.617  0.8912  4.2604  0.2614
  771MOL0     H 1770  10.739   5.207   5.806 -0.7937 -0.2951  0.8983
  771MOL0     H 1771  10.092   4.743   5.611 -1.4804  1.2644 -1.5244
  771MOL0     H 1772   9.934   4.699   5.773  1.3962 -0.2255  0.8114
  772MOL0     O 1773   5.762   0.217   4.060  0.1917 -0.4341  0.1303
  772MOL0     C 1774   5.864   0.189   4.125  0.9147 -0.2584 -0.7315
  772MOL0     O 1775   5.986   0.160   4.067  0.2036  0.6040 -0.1439
  772MOL0     C 1776   6.002   0.195   3.930 -0.0970  0.2569 -0.6587
  772MOL0     C 1777   5.977   0.101   3.828 -0.4677 -0.0360  0.8746
  772MOL0     C 1778   5.978   0.136   3.689 -0.4228 -0.0200 -0.0365
  772MOL0     C 1779   6.008   0.254   3.643  0.6041 -0.0467 -0.4069
  772MOL0     O 1780   6.014   0.302   3.514  1.0553 -0.5774 -0.2760
  772MOL0     C 1781   6.104   0.226   3.432  0.1248  1.4243  0.1031
  772MOL0     C 1782   6.251   0.263   3.465 -0.7249  0.6408  0.3393
  772MOL0     C 1783   6.348   0.225   3.345  0.2279  0.5261 -0.0987
  772MOL0     C 1784   6.358   0.073   3.330 -0.4491 -0.5909 -0.5048
  772MOL0     C 1785   6.448   0.047   3.210  0.1295 -1.3746  0.0535
  772MOL0     C 1786   6.599   0.062   3.235  0.9345  0.1283  0.8039
  772MOL0     C 1787   6.679   0.047   3.102  0.2945  0.5132  0.0696
  772MOL0     C 1788   6.694   0.175   3.025  0.2192  0.0762  0.2177
  772MOL0     N 1789   6.815   0.246   3.064 -0.5066  0.8595  0.0376
  772MOL0     C 1790   6.941   0.190   3.086 -0.3618  0.0617  0.3908
  772MOL0     C 1791   7.000   0.264   3.178  0.0743  0.7641  0.6202
  772MOL0     C 1792   7.129   0.241   3.249 -0.4446 -0.7027 -0.6552
  772MOL0     C 1793   7.222   0.154   3.162 -0.4382  0.6672 -0.3024
  772MOL0     C 1794   7.373   0.161   3.202  0.4458 -0.7603  0.2787
  772MOL0     C 1795   7.446   0.261   3.107  0.8223 -0.1514 -0.5319
  772MOL0     O 1796   7.583   0.252   3.147 -0.3321  0.1181  0.1624
  772MOL0     C 1797   7.690   0.309   3.069  0.0238  0.1339  1.5035
  772MOL0     C 1798   7.817   0.275   3.107 -0.1516  0.3972 -1.0945
  772MOL0     C 1799   7.916   0.320   3.026 -0.6762 -0.0406  0.5876
  772MOL0     C 1800   7.889   0.397   2.915 -0.7496 -0.2140  0.0660
  772MOL0     C 1801   7.993   0.441   2.827 -0.5040 -0.1444  1.0884
  772MOL0     O 1802   7.971   0.543   2.738 -0.0298  0.5308  0.4742
  772MOL0     C 1803   8.080   0.589   2.662  0.4307  0.0543  0.5388
  772MOL0     C 1804   8.167   0.682   2.704 -0.6351  0.1487  0.1006
  772MOL0     C 1805   8.257   0.742   2.613 -0.5164 -0.6948 -1.7027
  772MOL0     C 1806   8.274   0.699   2.484 -0.2555  0.2497 -0.3568
  772MOL0     O 1807   8.391   0.732   2.422 -0.1863  0.0373  0.0413
  772MOL0     C 1808   8.397   0.740   2.278  0.8773 -0.4342  1.6369
  772MOL0     C 1809   8.543   0.775   2.248  0.3962 -0.6668 -0.4238
  772MOL0     C 1810   8.565   0.806   2.108  0.4308 -0.0732  0.5159
  772MOL0     C 1811   8.688   0.893   2.073  0.1156  0.3258  0.2461
  772MOL0     C 1812   8.688   0.928   1.926 -0.4720 -0.1552  0.6116
  772MOL0     C 1813   8.695   0.800   1.825  0.4282  0.3312  0.1676
  772MOL0     C 1814   8.823   0.711   1.840  0.0009 -0.1008  0.0262
  772MOL0     C 1815   8.854   0.624   1.725  0.3745 -0.0437  0.2074
  772MOL0    Cl 1816   9.007   0.531   1.753 -0.0533 -0.1009 -0.1877
  772MOL0     C 1817   8.174   0.613   2.432  0.3164 -0.3724  0.1397
  772MOL0     C 1818   8.076   0.558   2.525 -0.1140 -0.4947  0.1129
  772MOL0     O 1819   8.101   0.388   2.852 -0.4111 -0.4796 -0.2613
  772MOL0     C 1820   7.763   0.452   2.894  0.9471 -0.3416  0.0340
  772MOL0     C 1821   7.654   0.408   2.967 -0.2122  0.4410 -0.1859
  772MOL0     N 1822   6.927   0.370   3.188  0.2456 -0.6690 -0.1526
  772MOL0     N 1823   6.826   0.374   3.110 -0.0781 -0.2332 -0.2971
  772MOL0     C 1824   6.029   0.355   3.747 -0.4115 -0.3044 -0.2288
  772MOL0     C 1825   6.010   0.328   3.889  0.3732  0.0772 -0.5067
  772MOL0     C 1826   5.871   0.191   4.274 -0.3177 -1.0593  0.7454
  772MOL0     C 1827   5.762   0.225   4.350  0.8188 -0.5740  0.0465
  772MOL0     C 1828   5.765   0.222   4.491 -0.4999  0.1629 -0.3332
  772MOL0     C 1829   5.887   0.174   4.554  0.8432  0.9994  0.3975
  772MOL0     O 1830   5.903   0.147   4.692 -0.5946  0.1839 -0.0624
  772MOL0     C 1831   5.784   0.097   4.762 -1.0969  0.5612 -0.4949
  772MOL0     C 1832   5.811  -0.047   4.813 -0.2487 -0.0779  0.5586
  772MOL0     C 1833   5.680  -0.136   4.839  0.3690 -0.5310 -0.9190
  772MOL0     C 1834   5.587  -0.067   4.945  0.2584 -0.1985 -0.0228
  772MOL0     C 1835   5.648  -0.073   5.079 -0.8417 -1.4710  0.5357
  772MOL0     C 1836   5.687  -0.070   5.195  0.9161  0.0202  0.0640
  772MOL0     C 1837   5.997   0.145   4.475 -0.5742 -0.1550 -0.5953
  772MOL0     C 1838   5.993   0.159   4.335 -0.3033  0.2569  0.0355
  772MOL0     H 1839   5.945   0.001   3.855  1.3496 -0.6722  0.7718
  772MOL0     H 1840   5.966   0.059   3.614  2.4204 -1.1818  0.5554
  772MOL0     H 1841   6.073   0.273   3.338  2.2180  3.6345  0.4235
  772MOL0     H 1842   6.090   0.118   3.421  0.9299  1.4722 -1.7468
  772MOL0     H 1843   6.280   0.206   3.553  0.4080  0.5513 -0.0801
  772MOL0     H 1844   6.242   0.370   3.489  0.3059  1.1481 -1.3379
  772MOL0     H 1845   6.444   0.273   3.364 -0.5210  2.3377 -0.6842
  772MOL0     H 1846   6.327   0.270   3.248  3.1147  0.8783 -0.6619
  772MOL0     H 1847   6.411   0.035   3.418 -1.1828  0.3180  0.3482
  772MOL0     H 1848   6.268   0.011   3.319  0.5060 -1.9689 -0.8541
  772MOL0     H 1849   6.417   0.093   3.116  1.6409 -2.4629 -1.0512
  772MOL0     H 1850   6.428  -0.059   3.190  2.7813 -1.8082 -0.7797
  772MOL0     H 1851   6.634  -0.022   3.295 -1.8478 -0.4126  1.7951
  772MOL0     H 1852   6.609   0.152   3.296 -0.3784  0.0348  1.1904
  772MOL0     H 1853   6.772  -0.006   3.121  0.5494  1.7474  2.6872
  772MOL0     H 1854   6.630  -0.021   3.031  2.5443  1.1683 -2.2408
  772MOL0     H 1855   6.610   0.244   3.041  0.7123  0.8136 -0.3030
  772MOL0     H 1856   6.699   0.150   2.919  0.5143 -3.8725  1.0175
  772MOL0     H 1857   6.971   0.089   3.059 -1.5588 -0.4882  1.0203
  772MOL0     H 1858   7.109   0.200   3.348 -1.0513  0.5041 -0.2628
  772MOL0     H 1859   7.176   0.338   3.268 -3.3707  1.4113 -3.2302
  772MOL0     H 1860   7.204   0.169   3.055 -0.3886 -1.8281 -0.7243
  772MOL0     H 1861   7.191   0.050   3.179 -0.2039  0.5295 -0.6888
  772MOL0     H 1862   7.391   0.203   3.301  1.0436  0.6656 -0.4061
  772MOL0     H 1863   7.414   0.062   3.179 -2.3304 -1.2101 -3.8654
  772MOL0     H 1864   7.409   0.364   3.111 -1.0220 -0.8178  1.2337
  772MOL0     H 1865   7.443   0.219   3.006 -1.3531 -0.1250 -0.5288
  772MOL0     H 1866   7.841   0.209   3.190 -3.2731  0.8617  0.3240
  772MOL0     H 1867   8.016   0.280   3.038 -0.9139 -0.5691  0.8249
  772MOL0     H 1868   8.162   0.697   2.811  0.6863  0.6710  0.1144
  772MOL0     H 1869   8.333   0.813   2.645 -0.6423 -1.2856  0.0458
  772MOL0     H 1870   8.331   0.822   2.248  0.5458 -1.2281  0.0965
  772MOL0     H 1871   8.368   0.651   2.221 -1.8173  1.4782 -0.2528
  772MOL0     H 1872   8.608   0.694   2.281 -2.4968 -2.5640  1.0402
  772MOL0     H 1873   8.564   0.871   2.296  0.2364 -0.4071 -0.8656
  772MOL0     H 1874   8.472   0.855   2.080  1.2583  1.0716 -0.3309
  772MOL0     H 1875   8.564   0.711   2.053 -1.2097  1.0712 -1.5471
  772MOL0     H 1876   8.686   0.989   2.124 -2.0163  1.7659 -2.2947
  772MOL0     H 1877   8.785   0.848   2.098 -0.4461 -1.5083 -0.6675
  772MOL0     H 1878   8.783   0.982   1.913  0.8566 -2.4893  0.1133
  772MOL0     H 1879   8.602   0.990   1.900  0.7227  1.2035 -0.2559
  772MOL0     H 1880   8.691   0.844   1.726 -0.7160 -0.1461 -0.0192
  772MOL0     H 1881   8.612   0.730   1.840  0.4776  0.3731  0.6676
  772MOL0     H 1882   8.906   0.780   1.851  0.8532 -1.4399  3.0350
  772MOL0     H 1883   8.819   0.648   1.929  0.8867 -0.2100 -0.0053
  772MOL0     H 1884   8.881   0.693   1.645 -0.5950 -0.1640 -0.2398
  772MOL0     H 1885   8.767   0.561   1.703  1.2521 -1.0260 -0.5103
  772MOL0     H 1886   8.143   0.599   2.329  2.9416  1.1070 -0.9501
  772MOL0     H 1887   7.995   0.497   2.486 -1.5925  1.3042  0.2136
  772MOL0     H 1888   7.744   0.522   2.813 -0.3468 -0.9003 -0.1787
  772MOL0     H 1889   7.552   0.423   2.932 -0.5034 -1.1998 -0.1200
  772MOL0     H 1890   6.035   0.461   3.725  2.6459  0.4049  2.9935
  772MOL0     H 1891   6.006   0.403   3.968  4.9235 -1.5611  1.6033
  772MOL0     H 1892   5.666   0.251   4.306  1.8506  0.0848 -1.9661
  772MOL0     H 1893   5.683   0.260   4.551  1.6858  3.0172  1.1011
  772MOL0     H 1894   5.691   0.093   4.704 -2.2814 -1.2219  1.3773
  772MOL0     H 1895   5.772   0.156   4.853 -1.3964 -0.7043  0.3006
  772MOL0     H 1896   5.858  -0.101   4.731  2.3461 -1.6169  2.8969
  772MOL0     H 1897   5.874  -0.041   4.903 -1.9141  0.1680  1.7647
  772MOL0     H 1898   5.712  -0.229   4.887  2.5780  0.5266 -0.2011
  772MOL0     H 1899   5.618  -0.149   4.750  1.8126  0.5232 -2.1519
  772MOL0     H 1900   5.557   0.036   4.922 -3.4910 -0.6938  1.8337
  772MOL0     H 1901   5.491  -0.117   4.959  1.2581 -1.9508  0.8469
  772MOL0     H 1902   5.727  -0.077   5.294  1.4448 -3.5982 -0.2691
  772MOL0     H 1903   6.088   0.130   4.532  0.0383  0.6311 -1.3211
  772MOL0     H 1904   6.082   0.126   4.284  0.3497 -0.2835  1.4789
  773MOL0     O 1905   5.088   9.274   4.892 -0.2836  0.1803  0.2351
  773MOL0     C 1906   5.050   9.383   4.935 -0.2767  0.6278 -0.6513
  773MOL0     O 1907   4.945   9.406   5.017 -0.1760 -0.3886  0.0252
  773MOL0     C 1908   4.873   9.295   5.050 -0.4036 -0.2803 -0.3775
  773MOL0     C 1909   4.796   9.218   4.963  0.4162  0.5329  0.0658
  773MOL0     C 1910   4.702   9.118   5.014 -0.1523  0.4720  0.7976
  773MOL0     C 1911   4.690   9.093   5.151  0.7469 -0.0348 -0.4661
  773MOL0     O 1912   4.604   8.992   5.200  0.4192 -0.3493  0.1486
  773MOL0     C 1913   4.567   8.975   5.335 -0.2562  0.9372  0.0065
  773MOL0     C 1914   4.466   8.871   5.378 -0.3076  0.2478  0.5291
  773MOL0     C 1915   4.477   8.828   5.528  0.2255  0.1842 -1.0042
  773MOL0     C 1916   4.600   8.743   5.560 -0.0636 -0.1937 -0.1106
  773MOL0     C 1917   4.571   8.671   5.694  0.1141  0.3469  0.3205
  773MOL0     C 1918   4.674   8.563   5.723  0.1049  0.1441 -0.8746
  773MOL0     C 1919   4.670   8.500   5.859 -0.1727  0.2809 -0.2128
  773MOL0     C 1920   4.549   8.407   5.861 -0.0193 -0.3188  0.2896
  773MOL0     N 1921   4.563   8.324   5.983 -0.1605  0.5645 -0.9002
  773MOL0     C 1922   4.573   8.373   6.113 -0.1953 -0.6950 -1.0431
  773MOL0     C 1923   4.606   8.265   6.186  0.2282  0.3180 -0.0752
  773MOL0     C 1924   4.659   8.263   6.323  0.1617 -0.5600 -0.7307
  773MOL0     C 1925   4.608   8.141   6.400 -0.8369  0.1371 -0.0897
  773MOL0     C 1926   4.671   8.133   6.538  0.0264  0.5208 -0.4538
  773MOL0     C 1927   4.647   8.259   6.619 -0.0606  0.6055 -1.0187
  773MOL0     O 1928   4.510   8.271   6.658  0.3883 -0.6376  0.0829
  773MOL0     C 1929   4.485   8.400   6.697  0.7838  0.6358 -0.4289
  773MOL0     C 1930   4.496   8.434   6.832 -0.6960 -0.5534 -1.1517
  773MOL0     C 1931   4.458   8.565   6.867 -0.8030  1.0968  0.2633
  773MOL0     C 1932   4.399   8.657   6.775 -0.1855  0.5637  0.9717
  773MOL0     C 1933   4.357   8.795   6.819 -0.0802 -0.0301  0.1358
  773MOL0     O 1934   4.384   8.817   6.952 -0.2279  0.4055  0.8122
  773MOL0     C 1935   4.341   8.948   6.996 -0.3883  0.1266 -0.0697
  773MOL0     C 1936   4.213   8.991   7.000  0.0325 -1.0360 -1.1724
  773MOL0     C 1937   4.174   9.120   7.049  0.2138 -0.7905 -0.0261
  773MOL0     C 1938   4.268   9.217   7.062 -0.5406  0.7900 -0.2754
  773MOL0     O 1939   4.244   9.348   7.097  0.2428 -0.4976 -0.5364
  773MOL0     C 1940   4.145   9.421   7.034  0.0927  0.1583 -0.0292
  773MOL0     C 1941   4.131   9.575   7.079 -0.7831 -0.0838 -0.0763
  773MOL0     C 1942   4.227   9.684   7.006 -0.7007  0.0053 -0.2311
  773MOL0     C 1943   4.189   9.836   7.035  0.1538 -0.2029 -0.1107
  773MOL0     C 1944   4.230   9.862   7.179 -0.2825 -0.1533  0.9000
  773MOL0     C 1945   4.147   9.976   7.213  0.4512  0.5477 -0.1806
  773MOL0     C 1946   4.173  10.016   7.361 -0.2384  0.1130  0.0926
  773MOL0     C 1947   4.075  10.120   7.399 -0.4876 -0.7758 -0.8043
  773MOL0    Cl 1948   4.118  10.200   7.555 -0.1329  0.2148 -0.1646
  773MOL0     C 1949   4.411   9.177   7.061  0.5566 -0.0521  0.1842
  773MOL0     C 1950   4.441   9.047   7.026  0.6512  0.3303 -0.2545
  773MOL0     O 1951   4.271   8.857   6.749  0.4651 -0.1133  0.7518
  773MOL0     C 1952   4.382   8.604   6.647 -0.2573  0.0990 -1.2326
  773MOL0     C 1953   4.438   8.484   6.605  0.8463 -0.1251  0.6367
  773MOL0     N 1954   4.635   8.156   6.106  0.5840  0.9689 -1.0045
  773MOL0     N 1955   4.594   8.196   5.989 -0.6621  0.1911 -0.0735
  773MOL0     C 1956   4.782   9.162   5.231  0.4589 -0.2644  0.4120
  773MOL0     C 1957   4.861   9.259   5.184 -1.0137 -0.5335 -0.4210
  773MOL0     C 1958   5.109   9.503   4.875  0.0667 -0.0963  0.7958
  773MOL0     C 1959   5.048   9.630   4.887 -0.5649  0.9037  0.8432
  773MOL0     C 1960   5.106   9.748   4.829 -0.4308 -0.3168  0.5314
  773MOL0     C 1961   5.235   9.735   4.765  0.1142 -0.4734 -0.5049
  773MOL0     O 1962   5.294   9.854   4.727  0.2647 -0.0244 -0.5206
  773MOL0     C 1963   5.422   9.865   4.662 -0.6205  0.2530 -0.1828
  773MOL0     C 1964   5.547   9.856   4.741 -0.4156 -0.1500 -0.2327
  773MOL0     C 1965   5.547   9.924   4.886  0.0440  0.3461  0.5337
  773MOL0     C 1966   5.523  10.065   4.896  0.3076 -0.0940  0.0692
  773MOL0     C 1967   5.541  10.105   5.038  0.4554 -0.6496  0.0578
  773MOL0     C 1968   5.521  10.121   5.159 -1.1027 -0.2204 -0.1678
  773MOL0     C 1969   5.297   9.606   4.763  0.2769  0.2476  0.2726
  773MOL0     C 1970   5.236   9.495   4.807  0.6597 -0.5591 -0.8219
  773MOL0     H 1971   4.795   9.216   4.855 -0.6773 -5.2746 -0.1379
  773MOL0     H 1972   4.624   9.071   4.955  0.4711 -0.5336  0.7458
  773MOL0     H 1973   4.524   9.072   5.363 -3.0337 -0.3352  0.5286
  773MOL0     H 1974   4.662   8.969   5.388 -0.3209  4.9456  0.9460
  773MOL0     H 1975   4.467   8.789   5.306 -0.8304  0.2273  0.5469
  773MOL0     H 1976   4.368   8.919   5.371  0.3270  1.3920 -1.2951
  773MOL0     H 1977   4.390   8.764   5.549  2.0106 -2.0169  0.1361
  773MOL0     H 1978   4.473   8.920   5.587  2.7727  1.6597 -2.9379
  773MOL0     H 1979   4.608   8.673   5.476 -2.9693 -2.0756  1.0262
  773MOL0     H 1980   4.685   8.811   5.570  1.2479 -1.9466  1.2881
  773MOL0     H 1981   4.474   8.623   5.683 -0.4685  1.1970  1.5677
  773MOL0     H 1982   4.561   8.751   5.767  0.3950  0.1580  0.5726
  773MOL0     H 1983   4.761   8.626   5.703 -2.2205  4.2681  0.7407
  773MOL0     H 1984   4.670   8.481   5.650 -2.1722 -1.2689  0.6823
  773MOL0     H 1985   4.765   8.446   5.870 -0.0415  0.1676 -1.6504
  773MOL0     H 1986   4.656   8.567   5.944  0.5539  1.9784 -1.3909
  773MOL0     H 1987   4.551   8.341   5.774 -0.5446  0.3586 -0.2435
  773MOL0     H 1988   4.453   8.459   5.854 -1.1445 -2.1640  1.2137
  773MOL0     H 1989   4.558   8.471   6.156 -4.5973 -2.2369  1.6218
  773MOL0     H 1990   4.628   8.360   6.364  1.0642 -0.0585 -1.2032
  773MOL0     H 1991   4.769   8.271   6.323  0.0433  3.0922  0.5036
  773MOL0     H 1992   4.632   8.048   6.348 -1.9181  0.3082 -0.9364
  773MOL0     H 1993   4.499   8.135   6.402 -0.9948 -0.0256 -3.2914
  773MOL0     H 1994   4.607   8.061   6.591 -1.1075 -0.1801 -2.6812
  773MOL0     H 1995   4.775   8.099   6.546 -1.0433 -2.8260  0.9644
  773MOL0     H 1996   4.678   8.349   6.564  4.3223  1.3591  2.1545
  773MOL0     H 1997   4.708   8.253   6.710 -1.1405  0.6832 -0.2674
  773MOL0     H 1998   4.537   8.377   6.915  1.3078 -1.1589 -2.4694
  773MOL0     H 1999   4.484   8.607   6.963  0.9498  1.3101 -0.2804
  773MOL0     H 2000   4.124   8.933   6.976 -1.9562  1.1840  0.3888
  773MOL0     H 2001   4.069   9.146   7.058 -0.1529 -0.6476 -3.5069
  773MOL0     H 2002   4.049   9.374   7.056  0.1301  1.0075  2.2543
  773MOL0     H 2003   4.182   9.439   6.932  1.0654  2.6628  0.6738
  773MOL0     H 2004   4.130   9.582   7.188  0.5082 -0.6572 -0.0055
  773MOL0     H 2005   4.036   9.602   7.034  0.3234  2.9846 -0.8180
  773MOL0     H 2006   4.215   9.675   6.898 -3.2380  2.4743 -0.2713
  773MOL0     H 2007   4.332   9.669   7.030 -0.9861 -3.1543 -0.5117
  773MOL0     H 2008   4.247   9.892   6.961  1.2297 -1.6300 -0.3817
  773MOL0     H 2009   4.085   9.868   7.027  0.6909  1.3135 -1.5433
  773MOL0     H 2010   4.339   9.877   7.172 -0.7159  3.2921 -0.2502
  773MOL0     H 2011   4.205   9.777   7.242 -1.9294 -1.2768 -1.1627
  773MOL0     H 2012   4.041   9.955   7.202 -0.0623  1.5415  2.2700
  773MOL0     H 2013   4.184  10.060   7.152  1.2725  2.5294  2.8321
  773MOL0     H 2014   4.175   9.939   7.438  0.6375 -0.4215 -0.4554
  773MOL0     H 2015   4.274  10.057   7.370 -0.6604  2.1880 -3.0540
  773MOL0     H 2016   3.984  10.060   7.414  0.8265 -1.8812  4.8470
  773MOL0     H 2017   4.053  10.196   7.323  0.8922  0.1861 -0.2858
  773MOL0     H 2018   4.499   9.236   7.085  0.1557  0.5549  0.1824
  773MOL0     H 2019   4.546   9.021   7.038  0.9926  1.1524 -1.3371
  773MOL0     H 2020   4.333   8.658   6.566 -2.1435 -1.4866 -1.2060
  773MOL0     H 2021   4.440   8.444   6.504 -1.3127 -0.5160  0.6980
  773MOL0     H 2022   4.781   9.140   5.337 -0.0711  2.8273  1.1458
  773MOL0     H 2023   4.920   9.312   5.258  1.2625 -0.9605 -1.8545
  773MOL0     H 2024   4.956   9.649   4.942 -0.8002  1.8200  0.1601
  773MOL0     H 2025   5.057   9.845   4.831  0.4764  0.1692  0.0192
  773MOL0     H 2026   5.421   9.969   4.626 -1.3662  1.4775  3.0368
  773MOL0     H 2027   5.414   9.795   4.579 -4.3028 -3.3674  2.7689
  773MOL0     H 2028   5.569   9.749   4.754  1.5608 -0.3876 -4.2037
  773MOL0     H 2029   5.629   9.892   4.679 -1.7451  0.8611 -1.4622
  773MOL0     H 2030   5.650   9.920   4.923  1.8206 -2.5256 -3.9177
  773MOL0     H 2031   5.479   9.869   4.952  0.9136  1.8439  2.8346
  773MOL0     H 2032   5.580  10.120   4.820  2.6375 -2.2688  0.1188
  773MOL0     H 2033   5.422  10.087   4.859  0.2842  2.4991  1.4305
  773MOL0     H 2034   5.504  10.133   5.264  1.9636 -1.5322  0.5780
  773MOL0     H 2035   5.391   9.591   4.710  0.8664  2.8570  0.4271
  773MOL0     H 2036   5.289   9.400   4.811  0.1236 -0.8497  2.6520
  774MOL0     O 2037   0.743  10.443   5.963 -0.2377  1.1426  0.0057
  774MOL0     C 2038   0.815  10.353   5.996  0.1258 -0.1344 -0.1320
  774MOL0     O 2039   0.946  10.345   5.979  0.8231 -0.5692  0.8711
  774MOL0     C 2040   1.033  10.431   5.909  0.4569 -0.9359 -0.6018
  774MOL0     C 2041   1.004  10.567   5.873 -0.5493  0.7112 -0.1881
  774MOL0     C 2042   1.103  10.652   5.830 -0.1998 -0.7450 -0.0065
  774MOL0     C 2043   1.229  10.602   5.794 -0.6381 -0.1615  0.3210
  774MOL0     O 2044   1.317  10.686   5.728  0.0093 -0.0765  0.3933
  774MOL0     C 2045   1.451  10.677   5.766 -0.7913  0.1943 -0.0323
  774MOL0     C 2046   1.529  10.801   5.723 -0.4445 -0.8954  0.9954
  774MOL0     C 2047   1.678  10.784   5.735 -0.7645  0.6736 -0.3783
  774MOL0     C 2048   1.748  10.920   5.710  0.9017 -0.5684 -0.4063
  774MOL0     C 2049   1.901  10.911   5.717  0.6382  0.0977 -0.3520
  774MOL0     C 2050   1.967  11.044   5.744  0.3620 -0.7062  0.6528
  774MOL0     C 2051   2.083  11.056   5.838  0.3836 -0.6447 -0.5320
  774MOL0     C 2052   2.062  11.100   5.984  1.1198 -0.2785 -0.7632
  774MOL0     N 2053   1.971  11.013   6.054 -0.3466 -0.6359 -0.8791
  774MOL0     C 2054   2.007  10.888   6.118  0.3763 -0.6217  0.3767
  774MOL0     C 2055   1.888  10.828   6.150 -0.3503 -0.2595  0.4112
  774MOL0     C 2056   1.873  10.701   6.224  0.5087  0.0181 -0.5652
  774MOL0     C 2057   1.881  10.738   6.377  0.0648 -0.9923  0.4433
  774MOL0     C 2058   1.914  10.626   6.454  0.0575  0.7730 -1.0232
  774MOL0     C 2059   1.832  10.629   6.589  0.3723 -0.1164  0.2130
  774MOL0     O 2060   1.691  10.652   6.563  0.6569 -0.0193 -0.0595
  774MOL0     C 2061   1.627  10.559   6.481 -0.9034 -0.1669 -0.7754
  774MOL0     C 2062   1.645  10.424   6.506 -0.2335  0.1838  0.2735
  774MOL0     C 2063   1.561  10.336   6.430  0.0261 -0.6132 -0.6967
  774MOL0     C 2064   1.477  10.371   6.331 -0.0034 -0.8746  0.5815
  774MOL0     C 2065   1.393  10.272   6.258 -0.2118  0.2904  1.2123
  774MOL0     O 2066   1.383  10.154   6.320  0.7706 -0.2841  0.4014
  774MOL0     C 2067   1.288  10.056   6.267  0.3315  0.3607 -0.0161
  774MOL0     C 2068   1.335   9.923   6.256  0.2739 -0.3738  0.5781
  774MOL0     C 2069   1.240   9.817   6.242 -0.5459 -1.2115 -0.6834
  774MOL0     C 2070   1.102   9.850   6.244 -0.7190  0.9030  0.3524
  774MOL0     O 2071   1.016   9.739   6.227 -0.4198 -0.0447 -0.3554
  774MOL0     C 2072   0.996   9.709   6.091 -0.1585  0.8431  0.1564
  774MOL0     C 2073   0.911   9.581   6.077 -0.3458  0.6460  0.0378
  774MOL0     C 2074   0.762   9.605   6.073 -0.3555  0.7252  0.0723
  774MOL0     C 2075   0.718   9.645   5.932 -0.4195 -0.3673 -0.1178
  774MOL0     C 2076   0.562   9.668   5.929 -0.8822  0.5088 -0.0817
  774MOL0     C 2077   0.483   9.545   5.992  0.0542  0.4189 -0.4400
  774MOL0     C 2078   0.334   9.548   5.955 -0.2766  0.6099  0.4477
  774MOL0     C 2079   0.254   9.447   6.040 -0.9516 -0.1318 -0.1468
  774MOL0    Cl 2080   0.343   9.296   6.087  0.3819  0.5161 -0.1483
  774MOL0     C 2081   1.061   9.982   6.253  0.1577  0.4819 -0.2422
  774MOL0     C 2082   1.151  10.083   6.274 -0.0995  0.2277 -0.7541
  774MOL0     O 2083   1.350  10.302   6.144 -0.2335 -0.1023  0.1829
  774MOL0     C 2084   1.471  10.503   6.306  0.1629  0.3078 -0.4102
  774MOL0     C 2085   1.550  10.597   6.376 -0.3311 -0.3571  0.3044
  774MOL0     N 2086   1.791  10.899   6.092  0.1430  0.0486 -0.8939
  774MOL0     N 2087   1.836  11.013   6.048  0.1432  0.7136 -0.7151
  774MOL0     C 2088   1.264  10.463   5.821 -0.4529 -0.0648 -0.3504
  774MOL0     C 2089   1.161  10.385   5.874  0.1342 -0.0929 -0.7176
  774MOL0     C 2090   0.740  10.239   6.061 -0.5655 -0.5038  0.1532
  774MOL0     C 2091   0.648  10.264   6.166  0.1385 -0.3866  0.0788
  774MOL0     C 2092   0.586  10.156   6.235 -0.2705 -0.2219  0.6147
  774MOL0     C 2093   0.622  10.017   6.207  0.1528  0.7560 -1.0327
  774MOL0     O 2094   0.553   9.915   6.272  0.0522  0.5563  1.2327
  774MOL0     C 2095   0.565   9.904   6.413 -0.3378 -0.3073  0.0253
  774MOL0     C 2096   0.711   9.907   6.475 -0.4657 -1.1654 -0.6036
  774MOL0     C 2097   0.768  10.051   6.487 -0.4039 -0.9464  0.2934
  774MOL0     C 2098   0.896  10.054   6.573  0.5835 -0.4972  0.6102
  774MOL0     C 2099   0.946  10.188   6.562 -0.5856 -0.6412 -0.8278
  774MOL0     C 2100   0.987  10.300   6.559  0.2549 -0.3396 -0.9054
  774MOL0     C 2101   0.695  10.001   6.086  0.7324 -0.3746 -0.0312
  774MOL0     C 2102   0.750  10.110   6.014  0.0138  0.8731 -0.3098
  774MOL0     H 2103   0.905  10.607   5.891  0.4255  2.8492  0.7204
  774MOL0     H 2104   1.072  10.749   5.792  2.6926 -0.4602 -2.0039
  774MOL0     H 2105   1.490  10.588   5.715 -0.1659  0.2920  0.2711
  774MOL0     H 2106   1.458  10.671   5.875  0.5986 -0.1625 -0.1169
  774MOL0     H 2107   1.500  10.892   5.777 -1.4028 -0.2766 -0.4733
  774MOL0     H 2108   1.511  10.821   5.616  3.1471 -0.8766  0.2823
  774MOL0     H 2109   1.710  10.706   5.665  2.3623  0.3547  1.1881
  774MOL0     H 2110   1.705  10.745   5.834  1.4583  0.0861 -1.1495
  774MOL0     H 2111   1.715  10.955   5.612 -2.6572  0.9137  1.1407
  774MOL0     H 2112   1.724  10.995   5.786  0.4842 -0.7132 -0.3883
  774MOL0     H 2113   1.927  10.879   5.616  0.3405  0.8502 -0.6724
  774MOL0     H 2114   1.926  10.842   5.799 -1.7274  3.9176  4.0458
  774MOL0     H 2115   1.885  11.115   5.766 -1.3205 -1.6366 -2.1512
  774MOL0     H 2116   2.005  11.075   5.647  2.5932  1.1018  2.0087
  774MOL0     H 2117   2.122  10.954   5.834 -1.5641 -1.7383  3.3691
  774MOL0     H 2118   2.142  11.133   5.786 -1.2906  2.8897  2.3594
  774MOL0     H 2119   2.018  11.200   5.978  0.5287 -0.5336 -0.7398
  774MOL0     H 2120   2.158  11.097   6.038  1.6875 -0.2227 -1.7387
  774MOL0     H 2121   2.107  10.853   6.139  1.7505  0.2016 -3.8741
  774MOL0     H 2122   1.947  10.624   6.197  1.1773  0.3732  0.2146
  774MOL0     H 2123   1.776  10.666   6.187 -0.2091 -0.4380  1.5936
  774MOL0     H 2124   1.793  10.802   6.391 -0.3213 -1.2410 -0.7656
  774MOL0     H 2125   1.962  10.810   6.390 -0.5110 -0.4023  0.8519
  774MOL0     H 2126   1.892  10.530   6.406  0.1019 -1.0015  2.2828
  774MOL0     H 2127   2.020  10.635   6.475  0.0934 -0.0942 -0.7975
  774MOL0     H 2128   1.866  10.713   6.649  0.5763  2.2071 -2.8923
  774MOL0     H 2129   1.857  10.536   6.642  2.0966  0.2586  0.1245
  774MOL0     H 2130   1.707  10.387   6.587  2.8085 -0.5587 -2.2265
  774MOL0     H 2131   1.571  10.231   6.456 -0.1367 -0.1404  1.4245
  774MOL0     H 2132   1.441   9.913   6.278  0.7358  1.3080 -0.7024
  774MOL0     H 2133   1.262   9.713   6.219 -3.8814 -1.6990 -2.3033
  774MOL0     H 2134   1.092   9.697   6.040 -1.4103  3.9234 -3.3877
  774MOL0     H 2135   0.944   9.789   6.038 -0.7856 -1.0277 -2.1991
  774MOL0     H 2136   0.941   9.511   6.155  1.4998 -0.7026 -1.7598
  774MOL0     H 2137   0.940   9.529   5.985 -0.5143 -2.2027  1.4990
  774MOL0     H 2138   0.748   9.679   6.153 -1.7602  2.2212 -1.4666
  774MOL0     H 2139   0.722   9.507   6.101  1.4571 -0.1020 -0.0787
  774MOL0     H 2140   0.773   9.729   5.887 -0.9938  0.5446  0.8434
  774MOL0     H 2141   0.741   9.556   5.873 -2.0834  0.1031 -1.5453
  774MOL0     H 2142   0.533   9.686   5.826 -2.4949 -0.6049  0.1517
  774MOL0     H 2143   0.542   9.757   5.990 -0.4214  0.5627 -0.0074
  774MOL0     H 2144   0.493   9.547   6.101  3.6502  0.9788 -0.6677
  774MOL0     H 2145   0.517   9.448   5.954  0.5641 -0.1494  1.3793
  774MOL0     H 2146   0.294   9.650   5.942  2.1941  1.6229  0.2402
  774MOL0     H 2147   0.327   9.497   5.859  0.2186 -2.1651  1.8066
  774MOL0     H 2148   0.169   9.415   5.980 -0.9395  0.0049 -0.2377
  774MOL0     H 2149   0.219   9.500   6.129  0.6932  0.9233 -0.0709
  774MOL0     H 2150   0.957  10.011   6.245 -0.2728 -1.3448 -2.2806
  774MOL0     H 2151   1.116  10.185   6.286  1.6072  1.1010 -2.6697
  774MOL0     H 2152   1.397  10.530   6.231 -1.1378 -0.6259  0.5089
  774MOL0     H 2153   1.542  10.704   6.360 -3.1153 -0.1838  2.2260
  774MOL0     H 2154   1.360  10.416   5.802 -0.3467  0.0139 -0.0217
  774MOL0     H 2155   1.165  10.280   5.900 -0.9364  0.1847  0.6900
  774MOL0     H 2156   0.629  10.362   6.208 -3.6102  0.2368 -2.5531
  774MOL0     H 2157   0.518  10.181   6.316  0.5938  1.5095  0.8721
  774MOL0     H 2158   0.537   9.800   6.434 -2.7435  0.2283 -0.3437
  774MOL0     H 2159   0.497   9.971   6.465  0.7832 -0.2480  1.5017
  774MOL0     H 2160   0.710   9.860   6.574 -0.1371  1.7803  0.9157
  774MOL0     H 2161   0.776   9.838   6.420 -2.8351 -4.1487  0.1184
  774MOL0     H 2162   0.701  10.124   6.532  0.1319 -0.3051  0.0729
  774MOL0     H 2163   0.787  10.068   6.381 -2.9560 -1.0433 -0.2265
  774MOL0     H 2164   0.870  10.029   6.677  1.9635 -3.4577  0.3520
  774MOL0     H 2165   0.966   9.972   6.553  0.8556 -0.8042  2.5817
  774MOL0     H 2166   1.021  10.402   6.557  1.3105 -0.4744  2.9202
  774MOL0     H 2167   0.709   9.906   6.035 -0.9478  1.1491 -3.6739
  774MOL0     H 2168   0.820  10.084   5.935 -0.5803  0.1423 -0.6023
  775MOL0     O 2169   6.687   6.310   3.765 -0.1045 -0.6026 -0.2770
  775MOL0     C 2170   6.771   6.251   3.835  0.0903  0.6396 -0.7172
  775MOL0     O 2171   6.907   6.283   3.827  0.5192  0.8049  0.3415
  775MOL0     C 2172   6.943   6.368   3.722  0.4030  0.0183  0.5310
  775MOL0     C 2173   6.935   6.501   3.745  0.7884  0.5720  0.2310
  775MOL0     C 2174   6.987   6.592   3.653 -0.3118 -0.7328 -0.9693
  775MOL0     C 2175   7.036   6.543   3.526 -0.1904 -0.6361 -0.4448
  775MOL0     O 2176   7.064   6.619   3.418  0.4336 -0.3869 -0.4183
  775MOL0     C 2177   7.072   6.768   3.435  0.0129 -0.1147 -0.1564
  775MOL0     C 2178   7.188   6.821   3.520 -0.5291 -0.3494  0.4035
  775MOL0     C 2179   7.324   6.833   3.465  0.1345 -0.4416 -0.0076
  775MOL0     C 2180   7.398   6.942   3.539  0.3491 -0.1147  0.9433
  775MOL0     C 2181   7.527   6.978   3.468 -0.9301  0.2736  0.9291
  775MOL0     C 2182   7.580   7.098   3.541  0.8074 -1.1075  0.0653
  775MOL0     C 2183   7.693   7.169   3.463  0.2166 -0.1793 -1.5386
  775MOL0     C 2184   7.764   7.287   3.535  0.4522  0.1535 -0.3641
  775MOL0     N 2185   7.816   7.234   3.666  0.2823  0.9467  0.9333
  775MOL0     C 2186   7.908   7.137   3.677 -0.3591  0.5893 -0.1877
  775MOL0     C 2187   7.935   7.130   3.810  0.5310  0.0493  0.4039
  775MOL0     C 2188   8.025   7.037   3.892 -1.0928 -0.1344  0.0969
  775MOL0     C 2189   8.154   7.020   3.817  0.0627  0.3786 -0.2489
  775MOL0     C 2190   8.265   6.974   3.917  0.6337 -0.2365  0.4637
  775MOL0     C 2191   8.363   7.089   3.972  0.5034 -0.0598  0.2003
  775MOL0     O 2192   8.297   7.150   4.082 -0.0226 -0.1274  0.3566
  775MOL0     C 2193   8.330   7.102   4.207 -0.6636 -0.1646  1.1397
  775MOL0     C 2194   8.245   7.024   4.281 -0.4981  0.7321  0.2174
  775MOL0     C 2195   8.284   6.969   4.405  0.2739  0.2704  0.5253
  775MOL0     C 2196   8.413   6.998   4.460 -0.2753  0.1444  0.3525
  775MOL0     C 2197   8.460   6.971   4.595 -0.2658  0.5297  0.0389
  775MOL0     O 2198   8.570   7.040   4.644  0.5818  0.8486  0.7501
  775MOL0     C 2199   8.616   6.996   4.763  0.4875 -0.1846  0.9156
  775MOL0     C 2200   8.727   6.907   4.779  0.2755  0.2529 -0.0432
  775MOL0     C 2201   8.762   6.848   4.908  0.4454 -0.3049 -1.0289
  775MOL0     C 2202   8.701   6.904   5.028  0.0076 -0.4039  0.1942
  775MOL0     O 2203   8.735   6.843   5.147 -0.0669 -0.0363 -0.2169
  775MOL0     C 2204   8.658   6.882   5.261  0.3078  0.0820 -0.5231
  775MOL0     C 2205   8.707   6.822   5.392  0.0675 -0.1547 -0.0785
  775MOL0     C 2206   8.833   6.868   5.456  0.9672 -0.4761  0.0534
  775MOL0     C 2207   8.934   6.755   5.468 -0.1322 -0.7157  0.3779
  775MOL0     C 2208   9.034   6.795   5.573 -0.2233  0.4344 -1.7576
  775MOL0     C 2209   9.152   6.694   5.570  0.4276  0.0790 -1.1075
  775MOL0     C 2210   9.245   6.721   5.687  0.1155  0.2390  0.0843
  775MOL0     C 2211   9.363   6.628   5.689 -0.7088 -0.1885  0.7424
  775MOL0    Cl 2212   9.471   6.658   5.821 -0.0073 -0.3620 -0.0161
  775MOL0     C 2213   8.602   7.002   4.998 -0.1191  0.4878  0.0167
  775MOL0     C 2214   8.552   7.040   4.877  0.9620 -0.3451  0.8188
  775MOL0     O 2215   8.398   6.882   4.654 -0.2694 -0.0419  0.5338
  775MOL0     C 2216   8.499   7.085   4.382  0.2884 -0.3634  0.3028
  775MOL0     C 2217   8.454   7.133   4.252  0.4179  0.7235 -0.0905
  775MOL0     N 2218   7.840   7.208   3.872  0.1359 -0.7675 -0.4085
  775MOL0     N 2219   7.781   7.284   3.784  0.3267  0.3011 -0.3969
  775MOL0     C 2220   7.020   6.404   3.498 -0.2794 -1.4247 -0.2484
  775MOL0     C 2221   6.988   6.315   3.602 -0.0213  0.0210 -0.0434
  775MOL0     C 2222   6.723   6.160   3.937 -0.1914 -0.1022 -0.6175
  775MOL0     C 2223   6.586   6.123   3.949  0.5860  0.4216 -0.4971
  775MOL0     C 2224   6.541   6.040   4.046 -0.5201  0.3368 -0.4448
  775MOL0     C 2225   6.622   5.989   4.152 -0.4646  0.2245 -0.0143
  775MOL0     O 2226   6.578   5.925   4.262  0.3998  0.5758  0.3155
  775MOL0     C 2227   6.441   5.915   4.292  0.1557  0.0403 -0.0350
  775MOL0     C 2228   6.419   5.888   4.445  0.0861  0.3907  0.9437
  775MOL0     C 2229   6.473   5.748   4.479  0.0944  0.7500 -0.5869
  775MOL0     C 2230   6.401   5.693   4.610 -0.9367  0.5967  0.2709
  775MOL0     C 2231   6.414   5.780   4.733 -0.4511  0.0818 -0.2318
  775MOL0     C 2232   6.423   5.857   4.822 -0.1695  0.7030 -0.6554
  775MOL0     C 2233   6.762   6.020   4.142 -0.1959 -0.1647  1.1917
  775MOL0     C 2234   6.808   6.104   4.036  0.6905 -0.2660 -0.5659
  775MOL0     H 2235   6.909   6.529   3.847 -0.9866 -2.5238  0.7372
  775MOL0     H 2236   6.991   6.695   3.686  0.6323 -1.0447 -0.0791
  775MOL0     H 2237   6.986   6.825   3.471  0.0891 -0.2704  0.2748
  775MOL0     H 2238   7.086   6.809   3.334  3.0930  2.3705  1.0790
  775MOL0     H 2239   7.179   6.779   3.621  0.7796 -0.5185  0.4677
  775MOL0     H 2240   7.158   6.926   3.530  1.8775  0.5789 -1.1308
  775MOL0     H 2241   7.322   6.870   3.362  4.5895 -0.4553 -0.2920
  775MOL0     H 2242   7.385   6.743   3.479  0.6037  0.0524  1.3232
  775MOL0     H 2243   7.336   7.032   3.542  4.1968  2.7763  0.3700
  775MOL0     H 2244   7.418   6.917   3.643  4.2022  0.5531  0.5016
  775MOL0     H 2245   7.515   6.989   3.359  1.5962 -1.7854  0.3671
  775MOL0     H 2246   7.597   6.896   3.480  0.3064  1.1039 -0.3170
  775MOL0     H 2247   7.620   7.072   3.640 -0.3669  0.5017  1.0141
  775MOL0     H 2248   7.501   7.172   3.560 -3.6233 -5.1520 -0.4883
  775MOL0     H 2249   7.767   7.096   3.430  0.9852 -0.8246  1.2975
  775MOL0     H 2250   7.644   7.201   3.371 -1.5075 -4.0808 -2.1905
  775MOL0     H 2251   7.701   7.376   3.533  0.0561 -0.1301 -0.9178
  775MOL0     H 2252   7.851   7.327   3.482  1.2527  0.4810  1.1620
  775MOL0     H 2253   7.954   7.089   3.590 -0.7000 -2.2021  1.0525
  775MOL0     H 2254   7.981   6.946   3.934  0.6615 -3.7511 -4.9248
  775MOL0     H 2255   8.050   7.097   3.980 -2.2479 -1.7313  1.5912
  775MOL0     H 2256   8.177   7.124   3.792  0.6617  0.9274  2.3000
  775MOL0     H 2257   8.149   6.941   3.741 -1.2832 -0.3632  0.5600
  775MOL0     H 2258   8.218   6.909   3.992 -3.4857 -1.6241 -2.9504
  775MOL0     H 2259   8.336   6.909   3.867  0.4968 -0.7058  0.8680
  775MOL0     H 2260   8.384   7.166   3.897 -0.1686 -0.5608 -0.5166
  775MOL0     H 2261   8.464   7.055   3.997  0.7267 -1.1452 -1.9682
  775MOL0     H 2262   8.145   7.006   4.241 -0.7244 -1.1150  1.4865
  775MOL0     H 2263   8.215   6.920   4.473 -0.0229 -2.3359 -1.4518
  775MOL0     H 2264   8.787   6.889   4.690  0.0739  1.0917 -0.3635
  775MOL0     H 2265   8.840   6.774   4.923  3.4869  2.7282 -0.7115
  775MOL0     H 2266   8.553   6.849   5.258 -0.4553  2.4027 -2.8719
  775MOL0     H 2267   8.644   6.990   5.267 -1.9557 -0.1472 -0.6756
  775MOL0     H 2268   8.696   6.714   5.380 -1.5397 -0.0104 -0.1115
  775MOL0     H 2269   8.628   6.864   5.456 -0.0682  1.6141 -1.3396
  775MOL0     H 2270   8.809   6.901   5.557 -0.3409 -0.4635 -0.2481
  775MOL0     H 2271   8.872   6.950   5.395 -3.7731  1.6141 -0.5776
  775MOL0     H 2272   8.896   6.659   5.505 -2.8803  0.5040  0.9571
  775MOL0     H 2273   8.981   6.736   5.371 -2.5291 -3.1366 -0.4338
  775MOL0     H 2274   8.997   6.789   5.676  3.2972 -2.2936 -0.4406
  775MOL0     H 2275   9.070   6.894   5.542 -1.5765  1.7200  0.4530
  775MOL0     H 2276   9.207   6.689   5.475  1.9767  2.4330 -0.4270
  775MOL0     H 2277   9.119   6.595   5.603  3.7726 -1.5690 -2.2640
  775MOL0     H 2278   9.275   6.826   5.691  1.3056 -0.0108 -1.4213
  775MOL0     H 2279   9.194   6.705   5.782 -0.5984  1.1440 -0.1326
  775MOL0     H 2280   9.418   6.647   5.595  0.9804  0.6070  1.8359
  775MOL0     H 2281   9.329   6.525   5.676 -0.0653 -0.3425  0.1919
  775MOL0     H 2282   8.555   7.041   5.088  0.4982  1.5793 -0.1174
  775MOL0     H 2283   8.470   7.110   4.874  2.0277  0.9359  1.0251
  775MOL0     H 2284   8.595   7.116   4.423  0.1936  0.6737 -0.2181
  775MOL0     H 2285   8.515   7.189   4.183 -0.7545  1.3132 -0.6695
  775MOL0     H 2286   7.002   6.353   3.404 -3.8337 -2.8395  1.0123
  775MOL0     H 2287   6.968   6.208   3.598  0.4548 -0.0373 -1.6839
  775MOL0     H 2288   6.520   6.159   3.870  1.2690  1.0291 -0.8000
  775MOL0     H 2289   6.443   5.996   4.031  0.7204 -2.1627 -1.8422
  775MOL0     H 2290   6.397   5.843   4.222  2.9070  0.9921 -2.9805
  775MOL0     H 2291   6.393   6.010   4.266 -1.9909 -0.1387  2.8012
  775MOL0     H 2292   6.468   5.960   4.511 -1.3700  1.1575  1.2191
  775MOL0     H 2293   6.313   5.899   4.469 -0.8109 -0.9808 -1.8691
  775MOL0     H 2294   6.582   5.749   4.491  0.0686 -0.0686 -0.2360
  775MOL0     H 2295   6.466   5.682   4.392  1.5773  0.3612 -0.4465
  775MOL0     H 2296   6.301   5.659   4.582 -0.5139 -1.1419  0.7310
  775MOL0     H 2297   6.453   5.598   4.622 -0.2934  0.8089 -0.7253
  775MOL0     H 2298   6.427   5.922   4.907  0.9323 -0.6595  0.3782
  775MOL0     H 2299   6.834   5.968   4.204 -0.6452 -2.9170 -0.4448
  775MOL0     H 2300   6.910   6.139   4.026  1.6873 -3.2248 -1.7281
  776MOL0     O 2301   1.280   7.191   2.659 -0.4787  0.1304  0.0009
  776MOL0     C 2302   1.217   7.227   2.560 -0.6675 -0.4352  0.6246
  776MOL0     O 2303   1.269   7.238   2.428  0.0576 -0.4727 -0.9920
  776MOL0     C 2304   1.403   7.219   2.404  0.5278 -0.3068  0.6446
  776MOL0     C 2305   1.432   7.103   2.331 -0.1654 -0.1753 -0.6074
  776MOL0     C 2306   1.569   7.063   2.317  0.0981  0.3576  0.6441
  776MOL0     C 2307   1.672   7.135   2.375 -0.7882  0.6981 -0.2582
  776MOL0     O 2308   1.798   7.090   2.361 -0.2841  0.2758 -0.2813
  776MOL0     C 2309   1.910   7.183   2.376  0.4096  0.3046 -0.5971
  776MOL0     C 2310   2.030   7.103   2.308 -0.2515 -0.3497  0.6583
  776MOL0     C 2311   2.153   7.201   2.290  0.1616  0.0439  0.5113
  776MOL0     C 2312   2.273   7.137   2.230  0.3030  0.1446 -0.0063
  776MOL0     C 2313   2.394   7.209   2.274 -0.2660 -0.0835 -0.1146
  776MOL0     C 2314   2.524   7.129   2.237  1.3313 -1.0100 -0.6327
  776MOL0     C 2315   2.637   7.193   2.311 -0.0468 -0.9277 -0.9126
  776MOL0     C 2316   2.769   7.174   2.241 -0.2687  0.7712  0.4229
  776MOL0     N 2317   2.789   7.028   2.231  0.3297 -0.3024  0.2948
  776MOL0     C 2318   2.823   6.960   2.340  0.6280  0.0500 -0.8349
  776MOL0     C 2319   2.880   6.851   2.293  0.0922  0.0981 -0.0650
  776MOL0     C 2320   2.929   6.729   2.376  0.7361 -0.3724 -0.2561
  776MOL0     C 2321   3.076   6.707   2.381 -0.0055 -0.9523 -0.3248
  776MOL0     C 2322   3.139   6.777   2.495  0.1887 -0.4293 -0.2599
  776MOL0     C 2323   3.257   6.698   2.544  0.0655 -1.0043  0.4059
  776MOL0     O 2324   3.371   6.718   2.459 -0.3187  0.7071  0.2661
  776MOL0     C 2325   3.500   6.714   2.518  0.1646 -0.0642  0.1144
  776MOL0     C 2326   3.613   6.713   2.435 -0.1641 -0.2529 -0.6391
  776MOL0     C 2327   3.744   6.691   2.482 -0.4617 -0.0264 -0.3036
  776MOL0     C 2328   3.766   6.673   2.617  0.3036  1.0747 -0.0708
  776MOL0     C 2329   3.903   6.637   2.655 -0.0311 -0.2747 -0.6481
  776MOL0     O 2330   3.935   6.666   2.780  0.5259  0.0288  0.1538
  776MOL0     C 2331   4.061   6.647   2.824 -0.0144  0.2787  0.0978
  776MOL0     C 2332   4.142   6.764   2.828 -0.1087 -1.1511 -1.0175
  776MOL0     C 2333   4.273   6.760   2.869 -0.5888 -0.4200  0.6080
  776MOL0     C 2334   4.339   6.646   2.906  0.9794  0.2737  0.4506
  776MOL0     O 2335   4.478   6.656   2.922  0.1800  0.6833  0.3994
  776MOL0     C 2336   4.570   6.547   2.923 -0.3959  0.2462  0.3427
  776MOL0     C 2337   4.713   6.607   2.942  0.2040  0.6392 -0.3438
  776MOL0     C 2338   4.831   6.514   2.984  0.0433 -1.1748 -0.9142
  776MOL0     C 2339   4.861   6.417   2.878 -0.8965  0.0677 -0.3931
  776MOL0     C 2340   4.943   6.308   2.938 -0.2226 -0.3629 -0.6841
  776MOL0     C 2341   5.092   6.338   2.968  1.0939  0.1793 -0.2823
  776MOL0     C 2342   5.171   6.213   2.984 -1.1880  0.4365 -0.2494
  776MOL0     C 2343   5.319   6.254   3.041 -0.6599 -0.5292  0.3346
  776MOL0    Cl 2344   5.410   6.340   2.911 -0.1912 -0.1733 -0.7318
  776MOL0     C 2345   4.261   6.531   2.906  0.1398  0.0170  0.8129
  776MOL0     C 2346   4.126   6.530   2.862  0.8972 -1.0748 -0.0260
  776MOL0     O 2347   3.983   6.584   2.576 -0.2567 -0.4370 -0.1936
  776MOL0     C 2348   3.665   6.676   2.711  0.7155  0.2809  0.0232
  776MOL0     C 2349   3.532   6.688   2.661 -0.0890 -0.3138  0.1164
  776MOL0     N 2350   2.897   6.867   2.154  0.0995 -1.0103 -0.0814
  776MOL0     N 2351   2.818   6.963   2.120 -0.6389 -0.3985 -0.1505
  776MOL0     C 2352   1.642   7.239   2.460  0.6612  0.1619  0.3944
  776MOL0     C 2353   1.501   7.282   2.475 -0.8113  0.4282 -0.4732
  776MOL0     C 2354   1.073   7.253   2.576  0.0330 -0.9178 -0.4430
  776MOL0     C 2355   1.012   7.291   2.699  0.4363 -0.7042 -0.5057
  776MOL0     C 2356   0.873   7.324   2.695 -0.7838 -0.0982 -0.5411
  776MOL0     C 2357   0.799   7.308   2.581 -0.0289 -0.5625 -0.2030
  776MOL0     O 2358   0.664   7.344   2.598  0.0843 -0.1488  0.2986
  776MOL0     C 2359   0.632   7.466   2.523 -0.1815  0.2048 -0.7574
  776MOL0     C 2360   0.548   7.416   2.407  0.6026  0.5645  0.5652
  776MOL0     C 2361   0.406   7.448   2.446  0.2438 -0.1709  0.1798
  776MOL0     C 2362   0.312   7.423   2.320 -0.0726  0.6210  0.1217
  776MOL0     C 2363   0.175   7.428   2.361  0.7057  0.3801  0.4073
  776MOL0     C 2364   0.056   7.409   2.371  0.3624  0.5280 -0.1546
  776MOL0     C 2365   0.852   7.268   2.464 -0.9244  0.2802  0.5060
  776MOL0     C 2366   0.988   7.241   2.463 -1.0837 -0.3699  0.3929
  776MOL0     H 2367   1.353   7.039   2.295  0.9399 -3.1719  1.8210
  776MOL0     H 2368   1.601   6.972   2.268 -0.4096 -0.5866  2.0019
  776MOL0     H 2369   1.927   7.200   2.482 -1.9881 -1.7097  0.2067
  776MOL0     H 2370   1.881   7.272   2.320 -0.6631 -1.0230 -2.2733
  776MOL0     H 2371   2.001   7.065   2.210 -0.8309 -0.9570  1.0543
  776MOL0     H 2372   2.059   7.015   2.367  1.9934  0.2835  0.5848
  776MOL0     H 2373   2.168   7.239   2.391 -2.8772 -2.2830  1.9848
  776MOL0     H 2374   2.126   7.285   2.224  2.9468 -2.1653 -3.9216
  776MOL0     H 2375   2.282   7.030   2.249 -1.5623 -0.4439 -2.0602
  776MOL0     H 2376   2.280   7.150   2.121  3.4604 -0.1766  0.0509
  776MOL0     H 2377   2.391   7.223   2.382  1.9842  1.5058 -0.1985
  776MOL0     H 2378   2.404   7.307   2.227  1.7530  1.8340  3.8357
  776MOL0     H 2379   2.555   7.129   2.132  2.5364 -0.7299 -0.2936
  776MOL0     H 2380   2.509   7.028   2.279 -1.0714 -0.0512  1.0645
  776MOL0     H 2381   2.621   7.301   2.314  0.5403 -0.7884 -2.0810
  776MOL0     H 2382   2.663   7.153   2.409 -2.2725 -0.4097 -0.0544
  776MOL0     H 2383   2.852   7.219   2.297  0.9871  2.0329 -2.2715
  776MOL0     H 2384   2.778   7.224   2.144 -2.6583  2.1769  0.8650
  776MOL0     H 2385   2.795   6.979   2.443  1.3746 -2.4325 -0.0969
  776MOL0     H 2386   2.889   6.644   2.321  3.0794 -1.5565 -0.2428
  776MOL0     H 2387   2.889   6.746   2.476  1.4043  1.7070 -0.2899
  776MOL0     H 2388   3.124   6.744   2.289  1.3308 -0.4180  0.5515
  776MOL0     H 2389   3.093   6.601   2.400  0.0695 -0.7915  0.5370
  776MOL0     H 2390   3.183   6.869   2.455 -1.1276 -0.0788 -0.9587
  776MOL0     H 2391   3.076   6.805   2.580 -2.1933  1.7017 -2.5359
  776MOL0     H 2392   3.230   6.592   2.553 -1.4443 -0.7701 -0.9307
  776MOL0     H 2393   3.280   6.730   2.646  1.2840  1.0097 -0.4427
  776MOL0     H 2394   3.578   6.717   2.333 -1.4378 -1.0465 -0.2548
  776MOL0     H 2395   3.821   6.680   2.406  0.6891 -2.2628  1.0679
  776MOL0     H 2396   4.109   6.866   2.809  1.0107  0.0874  2.8005
  776MOL0     H 2397   4.341   6.844   2.874  1.0454 -1.3415 -3.1800
  776MOL0     H 2398   4.558   6.510   2.821  0.2184  2.7205 -0.6918
  776MOL0     H 2399   4.546   6.464   2.991 -1.9760  0.3200 -0.1008
  776MOL0     H 2400   4.705   6.685   3.019  1.6531  0.0679  0.4262
  776MOL0     H 2401   4.747   6.656   2.850  0.6484  2.6370  0.8221
  776MOL0     H 2402   4.809   6.463   3.078 -0.9460 -1.3632 -1.2320
  776MOL0     H 2403   4.926   6.562   3.004 -0.8538 -0.2075  1.3359
  776MOL0     H 2404   4.775   6.361   2.839 -0.2945  0.9231 -3.1791
  776MOL0     H 2405   4.908   6.477   2.799 -0.9928  0.6802  0.0091
  776MOL0     H 2406   4.946   6.224   2.868  0.5200 -1.4072  0.5557
  776MOL0     H 2407   4.887   6.268   3.023 -0.5398  1.7428  0.1634
  776MOL0     H 2408   5.101   6.397   3.060  0.3841 -1.5695  0.9719
  776MOL0     H 2409   5.133   6.390   2.881  0.1189  0.0955 -0.8119
  776MOL0     H 2410   5.134   6.140   3.056 -0.3912  0.4791  0.2082
  776MOL0     H 2411   5.185   6.156   2.892  0.4917  1.0259 -0.3949
  776MOL0     H 2412   5.361   6.155   3.063 -0.3238 -0.4020  0.2698
  776MOL0     H 2413   5.302   6.313   3.131 -0.8515  0.6568 -0.4584
  776MOL0     H 2414   4.305   6.441   2.948  1.8500  1.4900  2.3692
  776MOL0     H 2415   4.077   6.434   2.870  0.1113 -0.8240 -1.4856
  776MOL0     H 2416   3.671   6.665   2.818  2.1705 -2.1998 -0.2256
  776MOL0     H 2417   3.450   6.676   2.731 -1.8839 -0.7641 -1.9590
  776MOL0     H 2418   1.718   7.286   2.522  2.6579 -0.9586 -1.0718
  776MOL0     H 2419   1.483   7.367   2.540 -0.1286 -0.0886  0.4180
  776MOL0     H 2420   1.072   7.307   2.787  5.2077 -0.8009 -3.4187
  776MOL0     H 2421   0.820   7.369   2.779  0.4231  2.2031 -0.9319
  776MOL0     H 2422   0.720   7.515   2.482  0.7324 -0.0231  0.8838
  776MOL0     H 2423   0.580   7.542   2.583  0.3362 -1.3747  1.8495
  776MOL0     H 2424   0.575   7.465   2.314 -0.7194  2.3477  1.0740
  776MOL0     H 2425   0.559   7.308   2.389 -1.5346  0.6770 -2.0095
  776MOL0     H 2426   0.397   7.556   2.466 -0.0135  0.6304 -3.5048
  776MOL0     H 2427   0.375   7.395   2.536  2.0043  1.9629  2.1629
  776MOL0     H 2428   0.336   7.502   2.248 -1.4521  1.9094  1.0291
  776MOL0     H 2429   0.329   7.325   2.274  0.7790  0.5529  0.5598
  776MOL0     H 2430  -0.049   7.393   2.362  0.3831 -0.8833  1.4926
  776MOL0     H 2431   0.799   7.259   2.370  0.1572 -1.9946  0.0515
  776MOL0     H 2432   1.024   7.216   2.363  0.9964  0.9707  0.7323
  777MOL0     O 2433   8.432   5.461   2.757 -0.3023 -0.0709 -0.1898
  777MOL0     C 2434   8.351   5.423   2.845  0.4970  0.3202  0.9289
  777MOL0     O 2435   8.373   5.432   2.979  0.0029  0.4457 -0.3825
  777MOL0     C 2436   8.487   5.490   3.026  0.2572  0.3928 -0.5891
  777MOL0     C 2437   8.548   5.420   3.125  0.3993 -0.2855  0.2130
  777MOL0     C 2438   8.667   5.448   3.175 -0.7652  0.2071 -1.3537
  777MOL0     C 2439   8.739   5.558   3.125  0.4869  0.1973  0.8415
  777MOL0     O 2440   8.869   5.592   3.159  0.5602 -0.1256 -0.0459
  777MOL0     C 2441   8.951   5.493   3.221  0.6985  0.5712 -0.0867
  777MOL0     C 2442   9.079   5.547   3.244 -0.4888  0.0351 -0.1621
  777MOL0     C 2443   9.163   5.595   3.126 -0.1290  0.4806  0.3056
  777MOL0     C 2444   9.181   5.494   3.021  0.3362 -0.2991  0.6801
  777MOL0     C 2445   9.303   5.537   2.921  0.0231  0.9977 -0.2961
  777MOL0     C 2446   9.322   5.430   2.809  0.9185 -0.1931  1.0047
  777MOL0     C 2447   9.397   5.306   2.858  0.2264  0.1119 -0.4855
  777MOL0     C 2448   9.409   5.192   2.754  0.2247 -0.1482 -0.1403
  777MOL0     N 2449   9.445   5.058   2.813  0.1558 -0.4637  0.3397
  777MOL0     C 2450   9.396   4.934   2.769  0.2958  0.0880 -0.5881
  777MOL0     C 2451   9.429   4.837   2.870  0.1571  1.0018 -1.0634
  777MOL0     C 2452   9.396   4.690   2.885  0.0876  0.5816  0.6630
  777MOL0     C 2453   9.327   4.661   3.021 -0.2333  0.0448  0.8351
  777MOL0     C 2454   9.248   4.538   3.015  0.0187  0.7997  0.0653
  777MOL0     C 2455   9.205   4.494   3.155  0.4168  0.7662 -0.6197
  777MOL0     O 2456   9.114   4.385   3.155  0.6936 -0.3269  0.5768
  777MOL0     C 2457   9.092   4.317   3.274 -0.7762  0.0173 -0.4298
  777MOL0     C 2458   9.078   4.392   3.386  0.5712 -1.1475  0.0595
  777MOL0     C 2459   9.036   4.333   3.501 -0.9950 -0.1833  0.7151
  777MOL0     C 2460   9.010   4.190   3.505 -0.2083 -1.6136  0.3288
  777MOL0     C 2461   8.955   4.129   3.623 -0.2246  0.1603 -0.8659
  777MOL0     O 2462   8.912   4.004   3.604 -0.1796  0.1792  0.1948
  777MOL0     C 2463   8.845   3.933   3.698  1.6776  0.2153 -0.0181
  777MOL0     C 2464   8.797   3.980   3.827  0.3875 -0.0496 -0.4332
  777MOL0     C 2465   8.746   3.886   3.919  0.6871  0.5955 -0.6244
  777MOL0     C 2466   8.732   3.748   3.885 -0.6394  0.0822  0.5526
  777MOL0     O 2467   8.696   3.667   3.989  0.5248  0.3087  0.1050
  777MOL0     C 2468   8.651   3.532   3.985 -0.6386  0.1727  0.4598
  777MOL0     C 2469   8.504   3.537   3.966  0.1197  0.7535  0.2932
  777MOL0     C 2470   8.430   3.418   4.030  0.2349  0.3735  0.0544
  777MOL0     C 2471   8.276   3.429   4.009  0.2639  0.9454  0.1593
  777MOL0     C 2472   8.193   3.323   4.099 -0.1066 -0.2344 -0.7791
  777MOL0     C 2473   8.047   3.364   4.090  1.0767 -0.0357 -0.1775
  777MOL0     C 2474   7.941   3.269   4.149 -0.5632  0.9840  0.9141
  777MOL0     C 2475   7.971   3.198   4.287 -0.7156  0.7673 -1.0859
  777MOL0    Cl 2476   7.985   3.321   4.406 -0.0854  0.4978 -0.1195
  777MOL0     C 2477   8.770   3.702   3.761 -1.0861  0.4275 -0.0961
  777MOL0     C 2478   8.822   3.797   3.667 -1.0365  0.3343  0.6915
  777MOL0     O 2479   8.941   4.198   3.729  0.5899  0.1129 -0.0062
  777MOL0     C 2480   9.031   4.121   3.392  0.1889  1.1276  0.5112
  777MOL0     C 2481   9.074   4.176   3.272  0.3766 -0.4906  0.6927
  777MOL0     N 2482   9.499   4.914   2.963 -0.3322  0.7006  0.5215
  777MOL0     N 2483   9.508   5.043   2.929 -0.3594  0.1395  0.0828
  777MOL0     C 2484   8.675   5.639   3.040  0.0540 -0.2115  0.9716
  777MOL0     C 2485   8.552   5.605   2.985  0.8279 -0.6038 -0.5741
  777MOL0     C 2486   8.219   5.379   2.792 -0.4749  0.6045  0.6015
  777MOL0     C 2487   8.195   5.360   2.646  0.8336 -0.2977  0.4152
  777MOL0     C 2488   8.071   5.318   2.597 -0.1514 -0.4449  0.6782
  777MOL0     C 2489   7.980   5.263   2.688 -0.3160  0.7139 -0.0823
  777MOL0     O 2490   7.864   5.212   2.653  0.4520  0.2640 -0.8351
  777MOL0     C 2491   7.808   5.241   2.523  0.0862  0.2047  0.3282
  777MOL0     C 2492   7.658   5.219   2.490 -0.0358  1.4130 -0.7231
  777MOL0     C 2493   7.621   5.072   2.541  0.7898  0.5733 -0.2824
  777MOL0     C 2494   7.551   5.061   2.677  0.5907  0.1866  0.1467
  777MOL0     C 2495   7.493   4.929   2.714 -0.6723 -0.2322 -0.3612
  777MOL0     C 2496   7.444   4.826   2.773  0.6237  0.0248  0.2387
  777MOL0     C 2497   8.008   5.270   2.825 -0.6602 -0.7507 -0.5553
  777MOL0     C 2498   8.127   5.320   2.875  0.6631 -1.2844  1.1320
  777MOL0     H 2499   8.496   5.332   3.163 -0.4929 -0.1788 -0.7163
  777MOL0     H 2500   8.717   5.377   3.241 -0.2370  0.3504 -1.5955
  777MOL0     H 2501   8.948   5.399   3.165  1.9544  1.0225 -0.9404
  777MOL0     H 2502   8.918   5.465   3.322  2.2505  1.8932  0.8167
  777MOL0     H 2503   9.147   5.480   3.297  0.9150  2.3892  1.1950
  777MOL0     H 2504   9.067   5.627   3.318  1.1536 -0.6261  0.8781
  777MOL0     H 2505   9.264   5.615   3.165 -0.9523  2.0714  1.7765
  777MOL0     H 2506   9.120   5.690   3.094  1.1812  0.9320 -0.2120
  777MOL0     H 2507   9.190   5.390   3.053 -3.2470 -1.4822 -1.5308
  777MOL0     H 2508   9.087   5.505   2.966  0.8872  4.2012  0.2122
  777MOL0     H 2509   9.395   5.542   2.980  0.5904  1.4575 -1.1940
  777MOL0     H 2510   9.288   5.633   2.870 -1.2311  2.1028  1.9592
  777MOL0     H 2511   9.386   5.466   2.728  0.6051 -2.2610 -0.2335
  777MOL0     H 2512   9.228   5.394   2.767  1.6881 -1.1858  0.0721
  777MOL0     H 2513   9.496   5.337   2.895 -0.4092  1.5963  0.0796
  777MOL0     H 2514   9.351   5.256   2.944 -0.4126 -3.7538 -2.8490
  777MOL0     H 2515   9.477   5.229   2.677  2.1159 -0.3685  1.3443
  777MOL0     H 2516   9.308   5.180   2.713 -0.8696 -2.1022  2.7519
  777MOL0     H 2517   9.339   4.921   2.677 -0.2164  1.9972 -0.5839
  777MOL0     H 2518   9.490   4.633   2.886 -0.9980 -1.3779  3.1698
  777MOL0     H 2519   9.325   4.673   2.804 -0.8027  1.2690  1.2806
  777MOL0     H 2520   9.259   4.742   3.051  2.4247  2.5758  0.4112
  777MOL0     H 2521   9.406   4.641   3.093  1.3430 -1.5759 -1.2366
  777MOL0     H 2522   9.156   4.546   2.957  0.0485 -5.3624 -1.5401
  777MOL0     H 2523   9.308   4.451   2.987 -0.7233 -0.3944  2.0320
  777MOL0     H 2524   9.170   4.579   3.215  1.6857 -0.1769  1.5268
  777MOL0     H 2525   9.294   4.469   3.213 -0.2926  1.6376  0.9193
  777MOL0     H 2526   9.104   4.497   3.378 -2.2668 -0.2950  0.8238
  777MOL0     H 2527   9.016   4.391   3.590 -0.7063 -0.0218  0.6784
  777MOL0     H 2528   8.796   4.082   3.863  2.2590 -0.4000  0.7124
  777MOL0     H 2529   8.732   3.933   4.016 -2.2998  1.8908 -1.5676
  777MOL0     H 2530   8.663   3.486   4.084  0.5975  2.1736  1.3082
  777MOL0     H 2531   8.714   3.477   3.915 -0.7668  1.4381 -0.6923
  777MOL0     H 2532   8.477   3.544   3.860  3.6799 -1.4435 -0.9389
  777MOL0     H 2533   8.462   3.621   4.022 -2.7834 -0.4362  0.0943
  777MOL0     H 2534   8.467   3.422   4.132  0.6141  3.6783 -0.0838
  777MOL0     H 2535   8.459   3.323   3.984  1.0458  0.5193  0.2502
  777MOL0     H 2536   8.251   3.530   4.043  1.8634  0.6141  2.5119
  777MOL0     H 2537   8.248   3.417   3.904 -0.0082  1.6316  0.1451
  777MOL0     H 2538   8.216   3.341   4.205  1.1161  1.2479 -1.2680
  777MOL0     H 2539   8.219   3.219   4.078  1.7649  0.2545 -0.9887
  777MOL0     H 2540   8.011   3.381   3.988  2.0256  2.6912 -0.1461
  777MOL0     H 2541   8.035   3.463   4.135 -1.1944  0.2120 -1.1932
  777MOL0     H 2542   7.859   3.339   4.167  1.4836  3.7731  0.0870
  777MOL0     H 2543   7.911   3.197   4.072 -0.8975 -0.4246  2.3130
  777MOL0     H 2544   8.067   3.149   4.267 -0.3540  1.7523 -1.8088
  777MOL0     H 2545   7.888   3.133   4.320  0.2192  0.3899  0.6208
  777MOL0     H 2546   8.770   3.598   3.730 -1.7175  0.8109 -1.4215
  777MOL0     H 2547   8.842   3.771   3.564 -0.5649  0.2680  0.7940
  777MOL0     H 2548   9.004   4.016   3.390 -1.5551  1.5558 -0.1989
  777MOL0     H 2549   9.077   4.116   3.181 -0.6579  1.4786 -0.7246
  777MOL0     H 2550   8.727   5.728   3.006 -1.0762 -0.3892 -1.4990
  777MOL0     H 2551   8.514   5.660   2.900  2.3656 -1.7636 -2.0637
  777MOL0     H 2552   8.269   5.403   2.579  2.6937 -0.4671  2.2731
  777MOL0     H 2553   8.071   5.303   2.489 -0.4790  1.2963  0.3963
  777MOL0     H 2554   7.849   5.170   2.450 -0.9924  1.3330 -1.4467
  777MOL0     H 2555   7.837   5.341   2.489 -0.7293  0.5653  0.6756
  777MOL0     H 2556   7.589   5.295   2.530 -0.7114 -0.7194  2.5393
  777MOL0     H 2557   7.660   5.212   2.381  3.0652  0.3402 -0.6825
  777MOL0     H 2558   7.709   5.007   2.531  0.2117 -0.2640 -0.0294
  777MOL0     H 2559   7.548   5.031   2.470 -0.2637 -1.6039  1.9103
  777MOL0     H 2560   7.623   5.091   2.753  2.0764 -0.9443 -0.7580
  777MOL0     H 2561   7.475   5.137   2.695  0.2602 -0.5302  2.0686
  777MOL0     H 2562   7.395   4.752   2.832 -1.6747  0.1754 -1.3422
  777MOL0     H 2563   7.940   5.218   2.892  2.2026 -2.1306  1.4592
  777MOL0     H 2564   8.142   5.317   2.982  1.8752 -1.9090  0.9653
  778MOL0     O 2565   8.266   1.068  11.169  0.9624  0.3030  0.5379
  778MOL0     C 2566   8.194   1.153  11.218  0.9534 -0.3028 -1.1105
  778MOL0     O 2567   8.097   1.130  11.315 -0.6655 -0.5719 -0.1147
  778MOL0     C 2568   8.075   0.997  11.357  0.2965  0.0699 -1.2817
  778MOL0     C 2569   7.955   0.941  11.325 -0.2058  0.4055  1.2739
  778MOL0     C 2570   7.926   0.813  11.356 -0.9217  0.9442  0.0853
  778MOL0     C 2571   8.009   0.737  11.431  0.1339  0.8348 -0.0852
  778MOL0     O 2572   7.987   0.608  11.471 -0.1326 -0.3630  0.7108
  778MOL0     C 2573   7.891   0.517  11.413  0.3587 -0.3376  0.6165
  778MOL0     C 2574   7.925   0.365  11.426  0.1212  0.5637 -0.0425
  778MOL0     C 2575   7.918   0.310  11.569 -0.7237  0.3037  0.3489
  778MOL0     C 2576   7.958   0.169  11.580 -0.2243  0.7576 -0.2095
  778MOL0     C 2577   7.944   0.114  11.718 -1.0570  0.1156 -0.1786
  778MOL0     C 2578   7.984  -0.035  11.721  0.7228  0.7527  0.0855
  778MOL0     C 2579   7.977  -0.079  11.863  0.2277  0.1839  0.2475
  778MOL0     C 2580   8.009  -0.228  11.863  0.3386  0.4523  0.6035
  778MOL0     N 2581   7.982  -0.302  11.990  0.1271 -0.0586  0.1828
  778MOL0     C 2582   7.890  -0.268  12.085 -0.1553  0.1006  0.5189
  778MOL0     C 2583   7.924  -0.341  12.195  0.5692 -0.5536  0.1991
  778MOL0     C 2584   7.853  -0.331  12.329  0.4657 -0.2531 -0.6409
  778MOL0     C 2585   7.838  -0.481  12.390  0.7988 -0.0638  0.4666
  778MOL0     C 2586   7.749  -0.496  12.519  1.1493  0.6340 -0.0878
  778MOL0     C 2587   7.737  -0.645  12.554  0.3444 -0.5634  0.0552
  778MOL0     O 2588   7.632  -0.701  12.462 -0.4081  0.0051  0.0881
  778MOL0     C 2589   7.499  -0.699  12.510  0.7873  0.6832 -0.6044
  778MOL0     C 2590   7.391  -0.751  12.441 -0.0289 -0.2822 -0.5668
  778MOL0     C 2591   7.263  -0.759  12.490 -0.5468 -0.3948  0.8157
  778MOL0     C 2592   7.227  -0.685  12.598  0.0470  0.3742 -0.6469
  778MOL0     C 2593   7.089  -0.681  12.633 -0.3778  0.1695 -0.3853
  778MOL0     O 2594   7.022  -0.794  12.604 -0.2361 -0.0523  0.3944
  778MOL0     C 2595   6.888  -0.803  12.615 -1.1507 -0.6388 -1.3990
  778MOL0     C 2596   6.794  -0.752  12.524  0.0045  0.4714 -0.6617
  778MOL0     C 2597   6.659  -0.747  12.564  0.4045 -0.7684  0.0029
  778MOL0     C 2598   6.620  -0.777  12.700  0.3307 -0.1063 -0.1885
  778MOL0     O 2599   6.490  -0.754  12.744  0.5383  0.0111 -0.1810
  778MOL0     C 2600   6.441  -0.795  12.875 -0.3420 -0.0365 -0.6165
  778MOL0     C 2601   6.380  -0.939  12.868  0.3682  0.6727  0.4158
  778MOL0     C 2602   6.296  -0.969  12.994  0.4543 -0.4111  0.0047
  778MOL0     C 2603   6.218  -1.095  12.971 -0.0266  0.1900  0.1285
  778MOL0     C 2604   6.168  -1.174  13.098 -0.6835  1.1150 -0.1989
  778MOL0     C 2605   6.099  -1.316  13.079  0.1667  0.0633 -0.4728
  778MOL0     C 2606   5.961  -1.330  13.012 -0.6375  0.3172  0.3452
  778MOL0     C 2607   5.928  -1.480  12.977  0.2984  0.1271 -0.1783
  778MOL0    Cl 2608   5.917  -1.577  13.127 -0.2418 -0.2187 -0.1872
  778MOL0     C 2609   6.722  -0.818  12.783  0.1490  0.9487 -0.7032
  778MOL0     C 2610   6.852  -0.841  12.744 -0.0851 -0.6822  1.0740
  778MOL0     O 2611   7.047  -0.587  12.699 -0.2332  0.1415  0.2193
  778MOL0     C 2612   7.325  -0.626  12.664  0.4320  0.2521  0.1092
  778MOL0     C 2613   7.456  -0.627  12.624 -0.2445  0.3056  0.1673
  778MOL0     N 2614   8.032  -0.413  12.159  0.1778 -0.0662 -0.3312
  778MOL0     N 2615   8.059  -0.405  12.035 -0.3877  0.0377  0.5642
  778MOL0     C 2616   8.126   0.790  11.475 -0.3572 -0.3000 -0.1284
  778MOL0     C 2617   8.163   0.924  11.443 -0.0596  0.1479  0.1046
  778MOL0     C 2618   8.210   1.300  11.188 -0.4940 -0.1852  0.9500
  778MOL0     C 2619   8.114   1.397  11.224  0.2739  0.5620 -0.8663
  778MOL0     C 2620   8.098   1.525  11.177 -0.7268 -0.0890 -0.9296
  778MOL0     C 2621   8.192   1.570  11.078 -0.6661  0.7551 -0.1064
  778MOL0     O 2622   8.186   1.695  11.007  0.6001  0.8871 -0.5387
  778MOL0     C 2623   8.086   1.784  11.041  0.7393  0.0912  0.0278
  778MOL0     C 2624   8.112   1.922  11.000  0.0517 -0.6896  0.1941
  778MOL0     C 2625   8.012   2.034  11.060  0.3882  0.7922  0.5004
  778MOL0     C 2626   8.065   2.181  11.080  0.9442  0.0097 -0.0809
  778MOL0     C 2627   8.147   2.233  10.974  0.2533  0.1086  0.5840
  778MOL0     C 2628   8.221   2.273  10.879 -0.2317 -0.1004 -0.6616
  778MOL0     C 2629   8.280   1.476  11.033  1.4072 -0.1700  0.0766
  778MOL0     C 2630   8.292   1.349  11.084  0.4658  0.2652 -0.0496
  778MOL0     H 2631   7.884   0.996  11.265  0.9566  0.7390  0.1565
  778MOL0     H 2632   7.835   0.768  11.318  0.5089 -0.4276 -1.8928
  778MOL0     H 2633   7.882   0.545  11.308 -3.0917  1.0150  1.1167
  778MOL0     H 2634   7.791   0.540  11.451  0.0522  0.5665 -0.6561
  778MOL0     H 2635   8.029   0.360  11.391  0.4781 -0.7239  1.1465
  778MOL0     H 2636   7.865   0.298  11.364  0.0871  1.0320 -0.5213
  778MOL0     H 2637   7.816   0.319  11.607 -3.1074 -1.6592 -4.6132
  778MOL0     H 2638   7.989   0.367  11.630 -0.9918  0.2577  0.7081
  778MOL0     H 2639   7.909   0.101  11.509 -1.4329  0.3349  0.9782
  778MOL0     H 2640   8.067   0.165  11.570 -0.0387  0.8589  1.4415
  778MOL0     H 2641   7.841   0.128  11.754 -1.1955  2.0011 -1.1566
  778MOL0     H 2642   8.007   0.170  11.787 -0.9515 -0.4487  0.1878
  778MOL0     H 2643   8.085  -0.046  11.680 -0.4517 -0.5787 -2.7178
  778MOL0     H 2644   7.918  -0.102  11.665  1.3452 -3.2357  3.6041
  778MOL0     H 2645   8.055  -0.026  11.919 -1.2431  0.8983  1.7261
  778MOL0     H 2646   7.878  -0.057  11.904  1.2001  0.4585  2.6393
  778MOL0     H 2647   8.111  -0.241  11.827 -0.1268  0.4942 -0.7925
  778MOL0     H 2648   7.948  -0.269  11.782 -0.0992 -1.0858  1.6660
  778MOL0     H 2649   7.799  -0.209  12.073 -2.5845 -3.3467  0.4534
  778MOL0     H 2650   7.754  -0.284  12.324  0.6147 -0.0277 -1.7329
  778MOL0     H 2651   7.903  -0.260  12.395 -2.3531  0.9357  0.3920
  778MOL0     H 2652   7.938  -0.526  12.400 -0.5016 -3.9585 -1.8225
  778MOL0     H 2653   7.805  -0.551  12.312  1.2134  0.3793 -0.1185
  778MOL0     H 2654   7.793  -0.447  12.607 -0.6583 -1.4616  2.1395
  778MOL0     H 2655   7.650  -0.449  12.516  1.8186  2.0955 -0.4537
  778MOL0     H 2656   7.725  -0.654  12.663  1.0839 -0.4978  0.1469
  778MOL0     H 2657   7.837  -0.685  12.535  1.2207  0.8927  1.3206
  778MOL0     H 2658   7.402  -0.785  12.338  1.1538 -2.5826  0.2404
  778MOL0     H 2659   7.199  -0.810  12.418  2.9227 -2.1797 -1.2672
  778MOL0     H 2660   6.837  -0.714  12.432 -1.9003  1.6583 -1.1061
  778MOL0     H 2661   6.587  -0.711  12.491  0.2431 -1.3903 -0.1434
  778MOL0     H 2662   6.366  -0.721  12.904 -1.5183 -0.7010 -1.8116
  778MOL0     H 2663   6.519  -0.796  12.951  0.7891  2.5401 -1.6515
  778MOL0     H 2664   6.453  -1.019  12.854  0.1158  0.0924  2.1749
  778MOL0     H 2665   6.321  -0.947  12.776  1.5464  2.8240 -0.6175
  778MOL0     H 2666   6.227  -0.886  13.008 -3.2873 -2.7459 -2.5874
  778MOL0     H 2667   6.352  -0.990  13.085 -0.7396 -2.4523  0.3397
  778MOL0     H 2668   6.141  -1.070  12.898 -0.6478 -0.1277  0.6630
  778MOL0     H 2669   6.276  -1.175  12.925  0.3492 -1.1740  2.7506
  778MOL0     H 2670   6.085  -1.111  13.129  0.4642  1.8357  1.5659
  778MOL0     H 2671   6.236  -1.181  13.183 -2.1233 -0.8568  0.8742
  778MOL0     H 2672   6.088  -1.355  13.181  3.3207  0.6567  0.1950
  778MOL0     H 2673   6.165  -1.393  13.040 -0.4181 -1.8574  2.0665
  778MOL0     H 2674   5.887  -1.295  13.085 -1.7591 -0.8391 -0.2142
  778MOL0     H 2675   5.955  -1.268  12.922 -1.2575  0.7052  0.6484
  778MOL0     H 2676   6.012  -1.514  12.916  1.4850  1.7958  0.4477
  778MOL0     H 2677   5.837  -1.487  12.917  1.1864 -0.1794 -1.5292
  778MOL0     H 2678   6.700  -0.847  12.885  2.7192 -1.8701 -0.8038
  778MOL0     H 2679   6.923  -0.882  12.816  0.7989  0.8431  1.1146
  778MOL0     H 2680   7.298  -0.560  12.746  0.0038  3.1121 -2.1577
  778MOL0     H 2681   7.527  -0.562  12.674 -0.9363  1.2344 -0.0563
  778MOL0     H 2682   8.188   0.734  11.545  3.7757  1.9734 -1.6347
  778MOL0     H 2683   8.253   0.961  11.490  0.7747 -3.3592  1.5620
  778MOL0     H 2684   8.045   1.372  11.303  1.3853  0.6858  0.1804
  778MOL0     H 2685   8.017   1.590  11.209 -0.1949  1.3250 -2.2948
  778MOL0     H 2686   8.082   1.791  11.151 -1.8645 -3.0319  0.2543
  778MOL0     H 2687   7.989   1.747  11.008 -0.8649  3.0616  1.0151
  778MOL0     H 2688   8.216   1.944  11.023 -0.1273 -1.4937  1.9892
  778MOL0     H 2689   8.098   1.932  10.892 -1.2049  2.1710  0.5231
  778MOL0     H 2690   7.950   2.003  11.144 -1.3558 -2.3110 -1.7438
  778MOL0     H 2691   7.940   2.043  10.978 -2.1554  0.0441  2.5176
  778MOL0     H 2692   7.982   2.248  11.105  1.7751  1.2165 -0.4450
  778MOL0     H 2693   8.132   2.184  11.166  0.4032 -1.8667  0.4444
  778MOL0     H 2694   8.284   2.301  10.797 -1.4120  2.0822 -0.8842
  778MOL0     H 2695   8.335   1.506  10.945 -1.2510 -1.8623 -2.3517
  778MOL0     H 2696   8.368   1.282  11.044  1.4292  1.4103 -0.1830
  779MOL0     O 2697   2.431   2.916   6.106 -0.8608 -0.0810  0.2893
  779MOL0     C 2698   2.343   2.829   6.125  0.1214  0.2140 -0.1201
  779MOL0     O 2699   2.271   2.767   6.027  0.2308  0.0698  0.0222
  779MOL0     C 2700   2.266   2.808   5.900  0.2377 -0.0943 -0.9125
  779MOL0     C 2701   2.201   2.926   5.870 -0.3899 -0.8560  0.0628
  779MOL0     C 2702   2.212   2.984   5.745 -0.0589  0.3046  0.2551
  779MOL0     C 2703   2.274   2.912   5.639  0.2410  0.2848 -1.2578
  779MOL0     O 2704   2.307   2.970   5.514  0.0948 -0.1587  0.2261
  779MOL0     C 2705   2.179   3.005   5.450 -0.1029  0.2112  0.6690
  779MOL0     C 2706   2.210   3.094   5.327  1.1757 -0.5494  0.3682
  779MOL0     C 2707   2.271   3.023   5.210  0.2508  0.7858 -0.0763
  779MOL0     C 2708   2.296   3.111   5.091  0.7361 -0.6648 -0.1434
  779MOL0     C 2709   2.284   3.052   4.952  0.3788  0.0649  0.4581
  779MOL0     C 2710   2.366   2.930   4.921 -0.8336  0.6360 -0.3031
  779MOL0     C 2711   2.326   2.865   4.791 -0.5807 -0.8465  0.4764
  779MOL0     C 2712   2.177   2.849   4.779  0.7369  0.3056  0.4518
  779MOL0     N 2713   2.133   2.737   4.690  0.2067 -0.6418  0.2942
  779MOL0     C 2714   2.194   2.718   4.566 -0.4956 -0.0057 -0.8797
  779MOL0     C 2715   2.140   2.604   4.518 -0.6560  0.0617  0.5881
  779MOL0     C 2716   2.183   2.553   4.385  0.2151 -0.0560  0.3269
  779MOL0     C 2717   2.250   2.423   4.391 -1.1988 -0.3431 -0.4495
  779MOL0     C 2718   2.399   2.436   4.440  0.7338 -0.1275  0.8872
  779MOL0     C 2719   2.486   2.476   4.331 -0.1170  0.1276  1.1050
  779MOL0     O 2720   2.474   2.412   4.189  0.1100  0.6071  0.5455
  779MOL0     C 2721   2.491   2.279   4.172 -0.0970  0.1474 -0.5499
  779MOL0     C 2722   2.421   2.204   4.079  1.3656  0.0901 -0.7215
  779MOL0     C 2723   2.418   2.068   4.061  0.4977 -1.6973 -0.2839
  779MOL0     C 2724   2.496   1.991   4.139  0.2290 -1.1352 -0.5882
  779MOL0     C 2725   2.489   1.847   4.127 -0.1002 -0.1605  0.2663
  779MOL0     O 2726   2.380   1.791   4.066 -0.6402  0.5123 -0.3008
  779MOL0     C 2727   2.343   1.664   4.087 -0.4520 -0.4825 -0.6511
  779MOL0     C 2728   2.369   1.586   4.211  0.1000  0.8240  0.7731
  779MOL0     C 2729   2.298   1.472   4.219 -0.2015  0.3482 -1.0429
  779MOL0     C 2730   2.224   1.411   4.117 -0.4431  0.3303 -0.3808
  779MOL0     O 2731   2.172   1.286   4.125  0.1762  0.0984  0.7332
  779MOL0     C 2732   2.233   1.186   4.208 -0.0350 -0.3451 -0.1228
  779MOL0     C 2733   2.143   1.070   4.194  0.0062  1.4362  0.5000
  779MOL0     C 2734   2.202   0.936   4.244 -0.3707  0.2392  0.0315
  779MOL0     C 2735   2.258   0.948   4.386  0.6388 -1.2355 -0.2790
  779MOL0     C 2736   2.283   0.814   4.446  0.8425 -0.8298  1.0945
  779MOL0     C 2737   2.311   0.843   4.592  0.7001 -0.2343 -0.6442
  779MOL0     C 2738   2.295   0.717   4.677 -0.2791  0.7471  0.3935
  779MOL0     C 2739   2.195   0.740   4.791 -0.7276 -0.7213  0.0760
  779MOL0    Cl 2740   2.034   0.764   4.733 -0.0231 -0.3151  0.3306
  779MOL0     C 2741   2.211   1.492   4.004  0.4332 -0.4978  0.0704
  779MOL0     C 2742   2.265   1.618   3.983  0.7912 -0.1513 -0.3889
  779MOL0     O 2743   2.584   1.786   4.181 -0.2914  0.5398  0.5864
  779MOL0     C 2744   2.582   2.055   4.226 -0.8384  0.9083 -0.9936
  779MOL0     C 2745   2.570   2.193   4.247 -0.5164  0.9048 -1.4517
  779MOL0     N 2746   2.047   2.560   4.612  0.2653 -0.3384 -1.4128
  779MOL0     N 2747   2.039   2.640   4.706  0.2280 -0.6615 -0.2082
  779MOL0     C 2748   2.341   2.796   5.671 -0.2178 -0.2165  1.2017
  779MOL0     C 2749   2.331   2.736   5.789  0.1293 -0.4496 -0.7187
  779MOL0     C 2750   2.313   2.793   6.266  0.6895  0.1956 -0.2576
  779MOL0     C 2751   2.333   2.889   6.367 -0.1058 -0.8664 -0.4290
  779MOL0     C 2752   2.284   2.878   6.494 -1.2155  0.1880 -0.1356
  779MOL0     C 2753   2.246   2.752   6.543  1.0428 -0.1690 -0.2039
  779MOL0     O 2754   2.203   2.743   6.672  0.5524 -0.3048 -0.9750
  779MOL0     C 2755   2.179   2.610   6.738 -1.0904 -0.2397  0.6827
  779MOL0     C 2756   2.037   2.553   6.715  0.3552  0.2091  0.4107
  779MOL0     C 2757   1.949   2.581   6.827  0.4398 -0.3422 -0.2656
  779MOL0     C 2758   1.874   2.712   6.819 -0.0129  0.8927  0.1092
  779MOL0     C 2759   1.850   2.754   6.955  0.6184  0.0949 -0.6666
  779MOL0     C 2760   1.828   2.784   7.073  0.7990 -0.0236 -0.7485
  779MOL0     C 2761   2.247   2.639   6.456  0.0766  0.6068  0.1983
  779MOL0     C 2762   2.270   2.660   6.316  0.6042 -0.2306  1.0471
  779MOL0     H 2763   2.154   2.987   5.946  1.3135  0.4070  0.1537
  779MOL0     H 2764   2.165   3.081   5.735 -1.9048 -0.4247  1.3882
  779MOL0     H 2765   2.112   3.063   5.515 -1.9066 -0.8662 -0.1640
  779MOL0     H 2766   2.122   2.914   5.431 -0.8016  0.4588  1.4960
  779MOL0     H 2767   2.275   3.172   5.367 -0.3969  0.6147  0.7213
  779MOL0     H 2768   2.111   3.134   5.303  0.2081 -1.1158  3.1241
  779MOL0     H 2769   2.199   2.949   5.173 -0.9402  0.5116  2.6079
  779MOL0     H 2770   2.363   2.972   5.240 -1.1478 -0.8192  1.7257
  779MOL0     H 2771   2.234   3.201   5.104 -0.2711 -1.5197  1.2285
  779MOL0     H 2772   2.397   3.151   5.081  1.4069 -1.2532  3.1656
  779MOL0     H 2773   2.313   3.128   4.878 -0.2986 -3.8518 -4.3262
  779MOL0     H 2774   2.179   3.024   4.933  1.1613 -2.5723 -0.3596
  779MOL0     H 2775   2.350   2.864   5.007  2.7817 -0.2920 -0.1710
  779MOL0     H 2776   2.473   2.953   4.909 -0.8857  0.5290 -0.9839
  779MOL0     H 2777   2.358   2.926   4.706  0.7160  0.1385  1.6378
  779MOL0     H 2778   2.374   2.768   4.771 -0.9942 -1.1045  0.7176
  779MOL0     H 2779   2.136   2.947   4.752  4.2447  2.0398  0.8956
  779MOL0     H 2780   2.124   2.833   4.873  0.1370  1.5681  0.3465
  779MOL0     H 2781   2.274   2.782   4.530 -1.2713  1.1324 -0.6115
  779MOL0     H 2782   2.244   2.620   4.324 -0.5649 -0.3151 -0.7752
  779MOL0     H 2783   2.095   2.549   4.320  0.8322  3.1450 -0.8775
  779MOL0     H 2784   2.241   2.382   4.290 -3.3287  0.8312 -0.7981
  779MOL0     H 2785   2.203   2.348   4.455  2.2264 -3.0634 -0.8778
  779MOL0     H 2786   2.402   2.517   4.514 -3.8290  0.0112  1.2069
  779MOL0     H 2787   2.438   2.346   4.489  1.9847  0.3990  0.8896
  779MOL0     H 2788   2.593   2.489   4.350  0.0026  3.0113 -0.8344
  779MOL0     H 2789   2.470   2.584   4.318  1.4033  0.1359 -1.4988
  779MOL0     H 2790   2.348   2.266   4.028 -1.6942 -0.3085  2.7705
  779MOL0     H 2791   2.348   2.039   3.984 -0.3923 -0.5372  0.0593
  779MOL0     H 2792   2.427   1.629   4.292 -1.2109  1.8998  1.1624
  779MOL0     H 2793   2.321   1.432   4.318  3.5304 -0.7145 -2.1621
  779MOL0     H 2794   2.230   1.222   4.312  2.3611 -0.9203  0.2040
  779MOL0     H 2795   2.334   1.161   4.176  0.3196 -0.0212  0.7019
  779MOL0     H 2796   2.113   1.056   4.090 -2.5580  0.9801  1.2297
  779MOL0     H 2797   2.048   1.090   4.246 -1.2605 -3.1308  0.3433
  779MOL0     H 2798   2.278   0.891   4.181 -0.3413 -1.0990  0.9934
  779MOL0     H 2799   2.118   0.868   4.228  0.2182 -0.4154 -0.3247
  779MOL0     H 2800   2.342   1.016   4.401 -1.0565  1.2384 -1.3741
  779MOL0     H 2801   2.169   0.988   4.434  0.1800 -0.4055 -1.7663
  779MOL0     H 2802   2.370   0.771   4.397  0.8268 -0.0929  0.4091
  779MOL0     H 2803   2.200   0.744   4.432  1.3409 -1.4082  0.9780
  779MOL0     H 2804   2.240   0.919   4.626 -1.6489 -2.2489 -0.7824
  779MOL0     H 2805   2.400   0.903   4.613  0.7029 -0.7215  0.8573
  779MOL0     H 2806   2.264   0.631   4.617  1.0403  1.0575 -0.7868
  779MOL0     H 2807   2.393   0.704   4.723 -1.3141  1.3981  2.9643
  779MOL0     H 2808   2.219   0.831   4.846  3.0425 -0.9586 -0.9161
  779MOL0     H 2809   2.205   0.667   4.873  3.1649  1.1468  1.5003
  779MOL0     H 2810   2.142   1.457   3.928 -0.1147  1.3991 -0.3336
  779MOL0     H 2811   2.240   1.676   3.895  0.5079 -0.7373 -0.7090
  779MOL0     H 2812   2.649   1.994   4.285 -1.3458  0.2766 -1.0604
  779MOL0     H 2813   2.635   2.234   4.324 -1.2008 -0.5248 -0.0625
  779MOL0     H 2814   2.391   2.749   5.587 -1.5066  1.9929 -0.9305
  779MOL0     H 2815   2.383   2.642   5.806  0.8900  0.2476  0.9159
  779MOL0     H 2816   2.378   2.985   6.346 -1.4389 -0.0880  0.1649
  779MOL0     H 2817   2.284   2.956   6.570  2.2602  3.4131 -3.0585
  779MOL0     H 2818   2.203   2.624   6.844 -0.7179  0.5004  0.5075
  779MOL0     H 2819   2.247   2.543   6.685  0.7616  1.4535  0.7921
  779MOL0     H 2820   1.987   2.588   6.624  0.7418  0.6844  0.3743
  779MOL0     H 2821   2.029   2.444   6.705 -0.2968  0.4307 -2.3686
  779MOL0     H 2822   2.019   2.595   6.910  0.3828  0.0816 -0.2868
  779MOL0     H 2823   1.880   2.499   6.852 -0.2718  0.4784  0.5742
  779MOL0     H 2824   1.928   2.793   6.768 -1.5480  2.1468  0.3785
  779MOL0     H 2825   1.783   2.694   6.761  0.5110 -2.9969  0.2536
  779MOL0     H 2826   1.820   2.809   7.177 -2.2431  1.8703 -1.3261
  779MOL0     H 2827   2.199   2.543   6.472 -0.1919  0.1271 -2.9005
  779MOL0     H 2828   2.248   2.590   6.236 -0.7893  2.6329 -1.2822
  780MOL0     O 2829   7.683   8.004   9.087  0.2761 -0.0587 -0.7793
  780MOL0     C 2830   7.700   8.047   8.976 -0.5941  0.5944  0.0514
  780MOL0     O 2831   7.817   8.075   8.917  0.2305  0.4178 -0.5289
  780MOL0     C 2832   7.933   8.111   8.982  0.2970 -0.1437 -1.0678
  780MOL0     C 2833   8.056   8.098   8.913  0.3327  0.3775  0.0513
  780MOL0     C 2834   8.179   8.121   8.976 -0.0039 -0.9517  0.2488
  780MOL0     C 2835   8.173   8.164   9.112  0.6339  0.4508  0.0419
  780MOL0     O 2836   8.276   8.200   9.189 -0.9386 -0.0139 -0.3121
  780MOL0     C 2837   8.404   8.250   9.128  0.7961 -0.3618 -0.5095
  780MOL0     C 2838   8.394   8.398   9.078 -0.1964  0.9533  0.6358
  780MOL0     C 2839   8.522   8.465   9.018 -0.1004 -0.2696 -0.9882
  780MOL0     C 2840   8.536   8.423   8.867 -0.1610 -0.6380  0.6637
  780MOL0     C 2841   8.522   8.541   8.765 -0.3317 -0.3359 -1.2019
  780MOL0     C 2842   8.654   8.605   8.738 -0.5317 -0.3730 -1.1035
  780MOL0     C 2843   8.622   8.740   8.677 -0.4524  1.0340  0.6578
  780MOL0     C 2844   8.759   8.801   8.637 -0.2495 -0.6468  0.0081
  780MOL0     N 2845   8.752   8.940   8.596  0.1710 -0.3435 -0.5761
  780MOL0     C 2846   8.647   8.997   8.521  0.1692  0.2939 -0.4918
  780MOL0     C 2847   8.683   9.128   8.513 -0.0242 -0.0547 -0.0603
  780MOL0     C 2848   8.595   9.232   8.445  0.9849  0.2470 -0.2658
  780MOL0     C 2849   8.483   9.278   8.545 -1.2622  0.2708  0.6564
  780MOL0     C 2850   8.401   9.386   8.468  0.1333  0.2113  0.8652
  780MOL0     C 2851   8.273   9.324   8.396 -0.7549  0.2541 -0.4301
  780MOL0     O 2852   8.298   9.245   8.282 -0.2164  0.3759 -0.0572
  780MOL0     C 2853   8.201   9.214   8.191  0.3099  0.0671 -0.0182
  780MOL0     C 2854   8.239   9.141   8.072  0.4020 -0.1872 -0.4360
  780MOL0     C 2855   8.144   9.090   7.979  0.1387 -0.9373  0.6069
  780MOL0     C 2856   8.007   9.108   8.001 -0.3891 -0.1425  0.2731
  780MOL0     C 2857   7.900   9.079   7.911 -0.2912 -0.8438 -0.2126
  780MOL0     O 2858   7.902   9.137   7.787  0.5842  0.6487  0.0521
  780MOL0     C 2859   7.804   9.112   7.700 -0.2764  0.3874  1.1747
  780MOL0     C 2860   7.664   9.116   7.724 -1.0055  0.3422  0.3201
  780MOL0     C 2861   7.573   9.099   7.615 -0.3309  0.5007  0.2496
  780MOL0     C 2862   7.625   9.050   7.495  0.5691 -1.0267  0.5543
  780MOL0     O 2863   7.552   9.000   7.395 -0.4566  0.2696  0.1989
  780MOL0     C 2864   7.440   8.912   7.399 -0.1516  0.3058  0.8721
  780MOL0     C 2865   7.470   8.829   7.267  0.4751  0.8945 -0.3409
  780MOL0     C 2866   7.400   8.696   7.275  0.2904  0.3938 -0.0628
  780MOL0     C 2867   7.396   8.623   7.145  0.1471 -0.0163  0.1860
  780MOL0     C 2868   7.327   8.495   7.169 -0.4387  0.3999  0.1956
  780MOL0     C 2869   7.282   8.444   7.028 -0.0534  0.3499 -0.6497
  780MOL0     C 2870   7.399   8.385   6.942  0.0337  0.3393  0.8225
  780MOL0     C 2871   7.338   8.356   6.808 -0.3824 -0.7015 -0.2439
  780MOL0    Cl 2872   7.453   8.298   6.684  0.8954 -0.1536 -0.2232
  780MOL0     C 2873   7.758   9.052   7.470 -0.6494 -0.2325 -0.6321
  780MOL0     C 2874   7.849   9.085   7.566  0.0502 -0.3579 -0.3087
  780MOL0     O 2875   7.801   9.021   7.958 -0.2771  0.0819  0.0171
  780MOL0     C 2876   7.969   9.188   8.111 -0.4545 -0.0029 -0.1131
  780MOL0     C 2877   8.066   9.237   8.205  1.1630  0.0107  0.6230
  780MOL0     N 2878   8.808   9.153   8.573  0.0227  0.2413 -0.7025
  780MOL0     N 2879   8.853   9.033   8.618  0.7957 -0.4091  0.0943
  780MOL0     C 2880   8.050   8.178   9.182  0.1295  0.0696 -0.9026
  780MOL0     C 2881   7.927   8.154   9.114  0.1865  0.2805  0.0719
  780MOL0     C 2882   7.568   8.057   8.897 -0.3148 -0.6589  0.0625
  780MOL0     C 2883   7.571   8.099   8.764 -0.7509  0.9091 -0.3427
  780MOL0     C 2884   7.450   8.079   8.700 -0.7952 -0.4936 -0.4203
  780MOL0     C 2885   7.331   8.047   8.759 -0.0424  0.3776 -0.6390
  780MOL0     O 2886   7.206   8.043   8.700  0.0088 -0.4544  0.3423
  780MOL0     C 2887   7.197   8.078   8.558  0.1586 -0.3354 -0.8542
  780MOL0     C 2888   7.048   8.129   8.520 -1.0558  0.4579 -0.1133
  780MOL0     C 2889   6.945   8.013   8.531  0.3108 -0.0205  0.0503
  780MOL0     C 2890   6.796   8.060   8.512 -0.4204  0.4707 -0.1823
  780MOL0     C 2891   6.771   8.163   8.618 -0.0772  0.2434  0.2357
  780MOL0     C 2892   6.732   8.243   8.707  0.0199  0.2747  0.5548
  780MOL0     C 2893   7.333   8.006   8.892  0.0361 -1.0090  0.5183
  780MOL0     C 2894   7.452   8.005   8.958 -0.3464 -0.4551  0.4975
  780MOL0     H 2895   8.044   8.071   8.808 -1.3014  1.3375 -0.0436
  780MOL0     H 2896   8.264   8.101   8.912 -0.5766  0.0824 -0.8821
  780MOL0     H 2897   8.431   8.190   9.040  2.1340 -0.7507  0.1356
  780MOL0     H 2898   8.494   8.246   9.190  0.2164  3.4774  0.8113
  780MOL0     H 2899   8.380   8.445   9.176 -1.6491  1.5118  0.1803
  780MOL0     H 2900   8.305   8.411   9.016  0.4092 -0.6506 -0.6405
  780MOL0     H 2901   8.601   8.429   9.083 -0.3733 -0.2038 -0.6164
  780MOL0     H 2902   8.509   8.573   9.030 -0.3751 -0.5426  1.9387
  780MOL0     H 2903   8.631   8.370   8.858  0.1489  0.0641 -0.3417
  780MOL0     H 2904   8.456   8.350   8.853 -2.4589  1.6327  1.1747
  780MOL0     H 2905   8.443   8.610   8.798 -0.9557 -1.4061 -0.3784
  780MOL0     H 2906   8.478   8.505   8.671 -2.2134 -2.4359  0.3917
  780MOL0     H 2907   8.716   8.547   8.669  1.0182  0.0616 -0.1291
  780MOL0     H 2908   8.703   8.625   8.835 -2.0472  3.4371 -0.9287
  780MOL0     H 2909   8.558   8.726   8.589  0.7277  0.4782 -0.1376
  780MOL0     H 2910   8.569   8.811   8.740  1.3760  4.2312 -1.1220
  780MOL0     H 2911   8.792   8.753   8.544 -0.3997  1.0502 -0.9613
  780MOL0     H 2912   8.837   8.795   8.713 -0.6042  2.2973  0.7198
  780MOL0     H 2913   8.548   8.964   8.491 -1.3639  0.3224  3.8138
  780MOL0     H 2914   8.554   9.197   8.350  1.2312 -0.8698  0.0255
  780MOL0     H 2915   8.659   9.317   8.419 -0.5981  1.2036 -1.2388
  780MOL0     H 2916   8.524   9.315   8.640  1.2324  1.0930 -0.6292
  780MOL0     H 2917   8.427   9.188   8.569 -1.8497  0.7102  0.9664
  780MOL0     H 2918   8.362   9.465   8.532 -0.9644 -1.5314  2.4739
  780MOL0     H 2919   8.458   9.444   8.395 -0.1293  0.7081  1.0558
  780MOL0     H 2920   8.206   9.408   8.377  0.7454  1.7976  0.8484
  780MOL0     H 2921   8.228   9.254   8.468  1.0384 -1.3357 -0.7796
  780MOL0     H 2922   8.339   9.102   8.063  0.1343 -1.8190  2.4946
  780MOL0     H 2923   8.170   9.027   7.895 -0.4211 -0.7983  0.3184
  780MOL0     H 2924   7.619   9.141   7.820 -0.0933  4.6249 -0.1823
  780MOL0     H 2925   7.465   9.108   7.618 -0.3042  0.9126  0.0483
  780MOL0     H 2926   7.352   8.977   7.391  1.0710  1.8087 -2.9339
  780MOL0     H 2927   7.421   8.842   7.480 -4.6121 -1.0449 -1.0113
  780MOL0     H 2928   7.577   8.806   7.268  0.4184  0.5413  0.9926
  780MOL0     H 2929   7.449   8.885   7.176  1.9940 -0.2473 -1.4472
  780MOL0     H 2930   7.298   8.719   7.306  0.2672  0.6365 -0.3169
  780MOL0     H 2931   7.453   8.636   7.350 -0.1825  0.7381  0.5617
  780MOL0     H 2932   7.349   8.690   7.072  2.1782  1.7342  0.3676
  780MOL0     H 2933   7.496   8.602   7.107  0.0546  0.7058 -0.4844
  780MOL0     H 2934   7.232   8.506   7.223  1.1105  0.7150  3.0603
  780MOL0     H 2935   7.392   8.423   7.220 -1.7549  1.2740  3.3616
  780MOL0     H 2936   7.236   8.528   6.976 -0.0720  0.3220 -0.6794
  780MOL0     H 2937   7.209   8.362   7.031 -0.3833  0.6572  0.2026
  780MOL0     H 2938   7.474   8.464   6.934 -1.1119  1.3199 -0.7994
  780MOL0     H 2939   7.447   8.292   6.972  0.7116  0.7000  0.8762
  780MOL0     H 2940   7.297   8.448   6.766  1.7588 -0.1397 -1.2410
  780MOL0     H 2941   7.247   8.299   6.828  0.3213 -1.0365  2.3650
  780MOL0     H 2942   7.797   9.024   7.372  0.7201  0.3549 -0.2797
  780MOL0     H 2943   7.955   9.067   7.551  0.7785  1.0718  2.3371
  780MOL0     H 2944   7.865   9.219   8.118 -1.3468 -2.9610  1.2261
  780MOL0     H 2945   8.025   9.296   8.286 -1.7761 -0.4111 -0.4214
  780MOL0     H 2946   8.039   8.224   9.279  0.0197 -2.5265  0.4074
  780MOL0     H 2947   7.827   8.176   9.152  0.4654  1.0094  0.3846
  780MOL0     H 2948   7.668   8.125   8.723  0.7136 -2.2851  0.7876
  780MOL0     H 2949   7.455   8.089   8.592  1.6054 -0.2885 -0.3463
  780MOL0     H 2950   7.214   7.987   8.501  2.1235 -0.5089 -0.0683
  780MOL0     H 2951   7.261   8.162   8.529 -1.0778  0.9558 -0.0020
  780MOL0     H 2952   7.039   8.212   8.590  0.0321  0.6231 -0.1432
  780MOL0     H 2953   7.051   8.168   8.418 -0.4603 -0.4945 -0.4821
  780MOL0     H 2954   6.961   7.956   8.623  1.4363 -2.5770 -1.6299
  780MOL0     H 2955   6.966   7.938   8.454  0.1182 -0.9934  0.9246
  780MOL0     H 2956   6.766   8.095   8.413 -1.2064 -3.3613 -1.4877
  780MOL0     H 2957   6.740   7.966   8.521  2.0118 -1.1409 -0.7800
  780MOL0     H 2958   6.689   8.321   8.767  1.6512  1.2999  0.4629
  780MOL0     H 2959   7.239   7.963   8.924 -1.5575  0.4584 -1.8927
  780MOL0     H 2960   7.445   7.957   9.056 -2.1311  1.9662  1.6625
  781MOL0     O 2961   2.290   4.646   6.929  0.4586  0.1907 -0.1211
  781MOL0     C 2962   2.200   4.714   6.875 -0.1594  0.4034  0.7833
  781MOL0     O 2963   2.207   4.845   6.853 -0.1181 -0.3504  0.4604
  781MOL0     C 2964   2.288   4.925   6.934 -0.6062 -0.5785 -0.2253
  781MOL0     C 2965   2.346   4.901   7.057  0.5358  0.3318 -0.1249
  781MOL0     C 2966   2.439   4.990   7.110  0.3891 -0.1240 -0.1446
  781MOL0     C 2967   2.457   5.122   7.058  0.8646 -0.1456 -0.2518
  781MOL0     O 2968   2.522   5.215   7.129 -0.0890  0.3302 -0.8860
  781MOL0     C 2969   2.468   5.251   7.260  1.2662  1.4759  0.6567
  781MOL0     C 2970   2.542   5.370   7.315  0.0856  0.6971 -0.7933
  781MOL0     C 2971   2.529   5.386   7.469  0.6111 -0.5677  0.3195
  781MOL0     C 2972   2.649   5.460   7.520 -0.4524 -0.0665  0.0762
  781MOL0     C 2973   2.647   5.460   7.675  0.4546 -0.6407  0.3393
  781MOL0     C 2974   2.775   5.528   7.732  0.9664  0.7329  0.9984
  781MOL0     C 2975   2.817   5.488   7.872 -0.3606 -0.1296  0.1044
  781MOL0     C 2976   2.716   5.538   7.971 -0.2960 -0.3289  1.0259
  781MOL0     N 2977   2.744   5.499   8.104 -0.4214  0.0642  0.3982
  781MOL0     C 2978   2.661   5.435   8.188 -0.1517  0.2051 -0.4761
  781MOL0     C 2979   2.729   5.414   8.308 -0.9495  0.2782  1.5066
  781MOL0     C 2980   2.677   5.349   8.423  0.0338 -0.4615  0.0842
  781MOL0     C 2981   2.578   5.446   8.474  0.8285 -0.4287  0.2853
  781MOL0     C 2982   2.480   5.361   8.549  0.3472  0.4775  0.9808
  781MOL0     C 2983   2.367   5.445   8.608  0.6723  0.8371  1.2155
  781MOL0     O 2984   2.415   5.542   8.701 -0.5540 -0.4423  0.8827
  781MOL0     C 2985   2.457   5.503   8.821 -0.1513  0.7113 -0.4624
  781MOL0     C 2986   2.467   5.368   8.875  0.2546 -0.2520 -0.2314
  781MOL0     C 2987   2.489   5.343   9.008  0.5112 -0.5329 -0.1967
  781MOL0     C 2988   2.511   5.447   9.098  0.3809 -0.3484  0.1189
  781MOL0     C 2989   2.549   5.416   9.245  0.3866 -0.1782 -0.7208
  781MOL0     O 2990   2.556   5.520   9.334 -0.2183  0.0216  0.0496
  781MOL0     C 2991   2.542   5.499   9.470  0.7809  0.2437 -0.9915
  781MOL0     C 2992   2.461   5.404   9.535 -0.4999 -0.0405 -0.9141
  781MOL0     C 2993   2.464   5.397   9.674  0.6805  0.2090  0.9309
  781MOL0     C 2994   2.521   5.498   9.757  0.3269 -0.0085  0.9159
  781MOL0     O 2995   2.492   5.485   9.892  0.7503  0.3126  0.9833
  781MOL0     C 2996   2.600   5.543   9.979 -0.1202  0.7526 -0.1372
  781MOL0     C 2997   2.561   5.518  10.123 -0.4104  0.4069  1.1843
  781MOL0     C 2998   2.641   5.615  10.209  0.4158 -0.4163 -0.5527
  781MOL0     C 2999   2.602   5.607  10.361 -0.7827 -0.8323 -0.3476
  781MOL0     C 3000   2.720   5.661  10.458  1.2837 -0.0743 -0.2880
  781MOL0     C 3001   2.665   5.698  10.599  0.6009  0.9740 -0.6200
  781MOL0     C 3002   2.776   5.753  10.678 -0.1573  0.3858 -0.6577
  781MOL0     C 3003   2.755   5.767  10.823  0.0741  0.2726  0.4116
  781MOL0    Cl 3004   2.857   5.884  10.894 -0.0550  0.2020 -0.3218
  781MOL0     C 3005   2.593   5.602   9.686  0.4812  0.3794  0.5812
  781MOL0     C 3006   2.595   5.601   9.546 -1.2251  0.1605  0.1624
  781MOL0     O 3007   2.559   5.290   9.271  0.6700 -0.0565  0.1369
  781MOL0     C 3008   2.510   5.582   9.053 -0.2362  0.2354  0.0325
  781MOL0     C 3009   2.485   5.602   8.913  0.7937  0.1786 -0.1779
  781MOL0     N 3010   2.856   5.440   8.278 -0.5932  0.7998 -0.2687
  781MOL0     N 3011   2.873   5.496   8.164  0.1217 -0.9377  0.4907
  781MOL0     C 3012   2.382   5.155   6.943  0.7673 -1.4234 -0.6288
  781MOL0     C 3013   2.302   5.050   6.880 -0.5632 -1.4199 -0.4673
  781MOL0     C 3014   2.079   4.658   6.816 -1.2418  0.2273 -0.0955
  781MOL0     C 3015   2.054   4.522   6.846  0.2427 -0.1458 -0.1760
  781MOL0     C 3016   1.948   4.453   6.785  0.2604  0.0222  0.5883
  781MOL0     C 3017   1.880   4.512   6.678  0.9052 -0.3822  0.3491
  781MOL0     O 3018   1.775   4.437   6.621 -0.1289 -0.1691  1.2495
  781MOL0     C 3019   1.817   4.313   6.558  0.9599  0.6039  0.2842
  781MOL0     C 3020   1.779   4.304   6.403  0.6192  0.5668 -1.2748
  781MOL0     C 3021   1.624   4.303   6.394 -0.3834  1.0197 -0.1794
  781MOL0     C 3022   1.588   4.312   6.243 -0.1358 -0.4495 -0.2103
  781MOL0     C 3023   1.445   4.274   6.233  0.3608 -0.0702  0.4071
  781MOL0     C 3024   1.329   4.237   6.230  0.0332 -0.0158  0.4425
  781MOL0     C 3025   1.908   4.643   6.647 -0.7855  1.0441 -0.3641
  781MOL0     C 3026   2.000   4.719   6.713 -0.5195  1.2580 -0.8337
  781MOL0     H 3027   2.330   4.804   7.104 -0.8222 -0.5996 -2.3738
  781MOL0     H 3028   2.479   4.963   7.207 -2.6839 -1.7850  0.7624
  781MOL0     H 3029   2.476   5.167   7.330  0.5585  1.1503  0.3581
  781MOL0     H 3030   2.360   5.264   7.248  0.4471 -3.1248  1.1636
  781MOL0     H 3031   2.499   5.459   7.269  0.0072  1.7105  1.1317
  781MOL0     H 3032   2.645   5.354   7.282  0.8006 -0.2110  1.6650
  781MOL0     H 3033   2.504   5.285   7.503 -2.1655 -0.7944 -1.9946
  781MOL0     H 3034   2.436   5.441   7.486 -0.6938 -1.9712 -1.7127
  781MOL0     H 3035   2.737   5.398   7.499 -3.6667 -4.6104 -1.9486
  781MOL0     H 3036   2.652   5.561   7.479  0.2374 -0.1192 -0.0198
  781MOL0     H 3037   2.644   5.357   7.710  0.6379 -0.2719  1.4702
  781MOL0     H 3038   2.553   5.511   7.697  0.5920  0.8108 -2.0630
  781MOL0     H 3039   2.776   5.636   7.713  1.4202  0.4368 -0.9189
  781MOL0     H 3040   2.857   5.504   7.663 -0.1821 -0.2460 -0.0713
  781MOL0     H 3041   2.805   5.380   7.882  1.9862 -0.2929  2.1043
  781MOL0     H 3042   2.917   5.518   7.906 -0.2184  0.2930 -0.6607
  781MOL0     H 3043   2.615   5.514   7.938  0.5435 -0.4723 -1.7349
  781MOL0     H 3044   2.719   5.647   7.965 -4.4883 -0.1056 -0.2540
  781MOL0     H 3045   2.559   5.403   8.168 -0.0404 -1.6181  1.6113
  781MOL0     H 3046   2.761   5.332   8.492  0.8445  2.0495 -0.1749
  781MOL0     H 3047   2.632   5.252   8.400  1.9866 -2.3879  3.4267
  781MOL0     H 3048   2.509   5.492   8.402  1.6151  1.0811  0.4580
  781MOL0     H 3049   2.623   5.528   8.531  0.5990  0.4955 -0.8169
  781MOL0     H 3050   2.439   5.293   8.474  1.4908  0.1537  0.6313
  781MOL0     H 3051   2.530   5.293   8.619 -2.4050 -0.4449  2.1811
  781MOL0     H 3052   2.278   5.391   8.639  0.2956 -1.0787 -2.6475
  781MOL0     H 3053   2.323   5.505   8.529  2.4414  0.0959 -0.4193
  781MOL0     H 3054   2.453   5.275   8.821  0.5603 -2.3629  3.0745
  781MOL0     H 3055   2.504   5.240   9.039  2.6774 -1.3750 -3.4920
  781MOL0     H 3056   2.414   5.326   9.476 -0.6685 -0.3134 -0.4304
  781MOL0     H 3057   2.385   5.342   9.724  0.2155  0.4512  0.4813
  781MOL0     H 3058   2.605   5.648   9.950  0.9220  0.0313 -2.9328
  781MOL0     H 3059   2.690   5.483   9.962 -0.9306 -2.0813  3.9671
  781MOL0     H 3060   2.577   5.416  10.159  5.3787  0.4548 -0.1394
  781MOL0     H 3061   2.453   5.531  10.132 -0.5004  0.0553  0.6762
  781MOL0     H 3062   2.631   5.722  10.187  2.5339 -0.3524 -1.3635
  781MOL0     H 3063   2.749   5.599  10.199  1.0384  3.5011 -1.7381
  781MOL0     H 3064   2.510   5.664  10.375  0.4712  0.9980  0.8648
  781MOL0     H 3065   2.576   5.502  10.381  0.0438 -0.7057  1.6034
  781MOL0     H 3066   2.777   5.744  10.415  0.0051  0.5078 -0.9342
  781MOL0     H 3067   2.795   5.583  10.476  1.7965  0.8141  1.7148
  781MOL0     H 3068   2.624   5.606  10.641 -0.8776  1.4580 -0.9283
  781MOL0     H 3069   2.590   5.776  10.577  1.2093  0.6283 -4.9034
  781MOL0     H 3070   2.864   5.688  10.665 -1.2861 -1.0634 -1.2938
  781MOL0     H 3071   2.805   5.850  10.635  2.3761 -1.2158 -2.9041
  781MOL0     H 3072   2.781   5.674  10.875  1.1887  0.8355  0.8942
  781MOL0     H 3073   2.650   5.789  10.844 -1.2155 -0.0950 -4.5275
  781MOL0     H 3074   2.633   5.684   9.744 -1.0040  0.3144  1.7402
  781MOL0     H 3075   2.637   5.686   9.493 -0.9674  1.4711  2.3499
  781MOL0     H 3076   2.523   5.668   9.118  1.4031 -0.1689  0.2826
  781MOL0     H 3077   2.477   5.706   8.884  1.2226 -0.8192 -4.4775
  781MOL0     H 3078   2.380   5.261   6.920 -2.7122 -0.1695  3.9554
  781MOL0     H 3079   2.246   5.070   6.789 -2.7104  1.6050  1.3630
  781MOL0     H 3080   2.104   4.483   6.933 -1.0493  0.8892  1.0882
  781MOL0     H 3081   1.931   4.347   6.801  4.3361 -1.6171 -3.4221
  781MOL0     H 3082   1.783   4.226   6.615  2.3523 -0.5056 -0.4884
  781MOL0     H 3083   1.926   4.303   6.568  1.0313  0.5749 -0.4915
  781MOL0     H 3084   1.800   4.401   6.357  1.9601  0.8450 -0.1415
  781MOL0     H 3085   1.813   4.213   6.354 -2.3241 -1.4899  0.1900
  781MOL0     H 3086   1.574   4.389   6.441  0.7533  1.9542 -0.6196
  781MOL0     H 3087   1.580   4.207   6.421  0.3475  0.1650 -1.8843
  781MOL0     H 3088   1.606   4.416   6.212 -2.8489  0.5581  1.2088
  781MOL0     H 3089   1.651   4.240   6.191  0.6739 -1.6422  2.2379
  781MOL0     H 3090   1.224   4.217   6.229  0.1050 -0.7441 -2.4420
  781MOL0     H 3091   1.854   4.689   6.565 -2.1791  0.1810  0.0226
  781MOL0     H 3092   2.025   4.823   6.695 -2.6212  1.9035 -0.3635
  782MOL0     O 3093   5.244  10.742   9.228 -0.0669 -0.3626 -0.3503
  782MOL0     C 3094   5.325  10.718   9.322  0.3429 -0.4907 -0.1290
  782MOL0     O 3095   5.335  10.780   9.439  0.2871 -0.1763  0.2526
  782MOL0     C 3096   5.270  10.898   9.447 -0.8676 -0.6611 -0.6957
  782MOL0     C 3097   5.150  10.912   9.509  0.4166  0.1951  0.3972
  782MOL0     C 3098   5.074  11.040   9.495  0.4780  0.2586 -0.0368
  782MOL0     C 3099   5.136  11.149   9.431  0.2990  0.5900 -0.0847
  782MOL0     O 3100   5.067  11.266   9.423  0.6806 -1.2158  0.9556
  782MOL0     C 3101   5.025  11.312   9.285 -0.7009  0.5189  0.0936
  782MOL0     C 3102   4.973  11.448   9.297  0.9466  0.3408  0.5306
  782MOL0     C 3103   4.944  11.512   9.167 -0.2551 -0.0960 -0.5009
  782MOL0     C 3104   4.938  11.663   9.181 -0.7597  0.0380  0.4089
  782MOL0     C 3105   4.924  11.726   9.043  0.1260  0.3623 -1.0931
  782MOL0     C 3106   4.793  11.702   8.958 -0.5352  0.2197 -0.5861
  782MOL0     C 3107   4.791  11.818   8.859 -0.5128  0.3625 -1.0879
  782MOL0     C 3108   4.666  11.817   8.759 -0.2977 -1.0561  0.2730
  782MOL0     N 3109   4.692  11.921   8.659 -0.2548  0.3926  0.2640
  782MOL0     C 3110   4.702  11.892   8.526  0.6523 -0.1327  0.5872
  782MOL0     C 3111   4.745  12.003   8.471 -0.4569 -1.1209 -0.0231
  782MOL0     C 3112   4.758  12.016   8.322 -0.2416 -0.3461 -0.0749
  782MOL0     C 3113   4.863  12.122   8.270 -0.4638 -0.6523  1.6469
  782MOL0     C 3114   4.883  12.125   8.112  0.6795 -0.2186 -0.9776
  782MOL0     C 3115   4.767  12.147   8.017 -0.5265  0.9765 -0.1567
  782MOL0     O 3116   4.649  12.062   8.012 -0.8117  0.1705  0.4419
  782MOL0     C 3117   4.658  11.926   7.983  0.5202 -0.2100 -0.6120
  782MOL0     C 3118   4.568  11.838   8.046  0.0360 -0.3806  0.5362
  782MOL0     C 3119   4.567  11.697   8.034  0.6461 -0.9023 -0.1402
  782MOL0     C 3120   4.668  11.648   7.952  0.4504 -0.1052  0.1564
  782MOL0     C 3121   4.655  11.493   7.927 -1.0982  0.3676  0.0150
  782MOL0     O 3122   4.743  11.439   7.830 -0.8242  0.0141 -0.6210
  782MOL0     C 3123   4.757  11.301   7.807  0.3028  0.4565  0.1656
  782MOL0     C 3124   4.696  11.191   7.877  0.6333  0.2531 -0.4990
  782MOL0     C 3125   4.704  11.064   7.839  0.3788  0.4202  0.1391
  782MOL0     C 3126   4.756  11.031   7.712  0.2880 -0.1047  0.2319
  782MOL0     O 3127   4.747  10.903   7.661  0.3240 -0.4789 -1.0319
  782MOL0     C 3128   4.746  10.883   7.521 -0.4118 -0.1987  0.0579
  782MOL0     C 3129   4.630  10.773   7.499  0.0543 -0.6198 -0.0671
  782MOL0     C 3130   4.596  10.738   7.356 -0.1546  0.1383  1.0964
  782MOL0     C 3131   4.468  10.637   7.349 -1.0763 -1.0843  0.2209
  782MOL0     C 3132   4.467  10.561   7.213  0.5654  1.1396  0.6263
  782MOL0     C 3133   4.343  10.470   7.198 -0.4769  0.1993  0.6692
  782MOL0     C 3134   4.345  10.371   7.083 -0.6888  0.9686  0.7451
  782MOL0     C 3135   4.445  10.259   7.102 -0.8617  0.6885 -0.7322
  782MOL0    Cl 3136   4.416  10.141   6.976 -0.5695  0.2427 -0.5954
  782MOL0     C 3137   4.824  11.128   7.653  0.3579  0.4706  0.0585
  782MOL0     C 3138   4.830  11.264   7.696  0.8783  0.4251  0.0604
  782MOL0     O 3139   4.581  11.433   7.999  0.1461 -0.9425 -0.6506
  782MOL0     C 3140   4.764  11.732   7.890  0.8937  0.2416 -0.1710
  782MOL0     C 3141   4.755  11.872   7.913  0.1037 -0.1730  0.7696
  782MOL0     N 3142   4.756  12.106   8.570  0.1748 -0.4325 -0.0318
  782MOL0     N 3143   4.724  12.050   8.684 -0.3981 -0.7912 -0.0802
  782MOL0     C 3144   5.263  11.130   9.368 -0.2921 -0.2038 -0.7396
  782MOL0     C 3145   5.320  11.004   9.371 -0.1492  1.0614 -0.8591
  782MOL0     C 3146   5.420  10.603   9.297 -0.4844  0.9648 -0.2910
  782MOL0     C 3147   5.399  10.506   9.193 -0.8825 -0.7585 -0.1502
  782MOL0     C 3148   5.490  10.399   9.162 -0.5815 -0.2452 -0.6059
  782MOL0     C 3149   5.608  10.391   9.241 -0.8982  0.6447 -0.2754
  782MOL0     O 3150   5.693  10.288   9.239 -0.3538 -0.2137  1.0328
  782MOL0     C 3151   5.742  10.237   9.112 -0.6536  0.0102  0.1175
  782MOL0     C 3152   5.865  10.146   9.118 -0.3657  0.5125  0.7041
  782MOL0     C 3153   5.867  10.042   9.233 -0.6982  0.9590 -0.0522
  782MOL0     C 3154   5.771   9.923   9.212 -0.2750  0.1900  0.6040
  782MOL0     C 3155   5.629   9.950   9.233  0.0757 -0.0882 -0.2560
  782MOL0     C 3156   5.514   9.960   9.256  0.0658  0.4012 -0.5421
  782MOL0     C 3157   5.626  10.479   9.345  0.2661  0.5169 -0.1705
  782MOL0     C 3158   5.532  10.587   9.374  0.5656  0.5699 -0.0213
  782MOL0     H 3159   5.121  10.818   9.554  2.1577 -1.2992 -1.4308
  782MOL0     H 3160   4.972  11.045   9.529  0.7546 -0.3459  0.9279
  782MOL0     H 3161   4.946  11.248   9.246  0.0506 -1.3209  1.4299
  782MOL0     H 3162   5.115  11.315   9.222 -2.8223 -0.2938 -3.1856
  782MOL0     H 3163   5.057  11.504   9.339 -0.5282  4.4000 -1.3194
  782MOL0     H 3164   4.894  11.470   9.371 -1.0011  1.7325 -1.7978
  782MOL0     H 3165   4.843  11.477   9.143 -0.4130 -2.9503  3.4285
  782MOL0     H 3166   5.008  11.490   9.082  0.1731  0.0023 -0.2046
  782MOL0     H 3167   4.857  11.684   9.252  0.1818 -0.9827  1.8305
  782MOL0     H 3168   5.027  11.706   9.227 -0.1534 -0.4864 -0.2512
  782MOL0     H 3169   5.006  11.686   8.983  0.1678 -0.4226 -0.5277
  782MOL0     H 3170   4.945  11.831   9.067 -2.5234  0.2674  2.5134
  782MOL0     H 3171   4.714  11.705   9.034  0.0872  0.9104  0.0472
  782MOL0     H 3172   4.791  11.608   8.902 -0.9846  0.2022 -0.5453
  782MOL0     H 3173   4.787  11.902   8.929  1.4801 -2.2498  2.5290
  782MOL0     H 3174   4.888  11.813   8.809  1.0450  3.1561  1.3487
  782MOL0     H 3175   4.576  11.840   8.816 -1.5180 -0.0291 -1.9454
  782MOL0     H 3176   4.630  11.727   8.708 -0.9010 -0.1133 -1.0210
  782MOL0     H 3177   4.687  11.804   8.464  2.7857  0.3317 -0.6731
  782MOL0     H 3178   4.665  12.048   8.275  0.3821  3.2785  0.8874
  782MOL0     H 3179   4.786  11.915   8.291 -0.2820 -0.8771  1.5262
  782MOL0     H 3180   4.966  12.112   8.305  0.0108 -0.6702  0.2981
  782MOL0     H 3181   4.828  12.224   8.291 -0.1693  0.9808 -4.1837
  782MOL0     H 3182   4.963  12.195   8.083  1.3683 -1.3992 -2.0043
  782MOL0     H 3183   4.927  12.027   8.091 -0.0713 -0.5567 -0.9856
  782MOL0     H 3184   4.824  12.151   7.923  1.2500 -1.5640  0.7136
  782MOL0     H 3185   4.741  12.252   8.032 -3.2007  0.2186  1.2839
  782MOL0     H 3186   4.483  11.887   8.093 -0.1833  1.4458 -1.5988
  782MOL0     H 3187   4.477  11.649   8.072 -0.1041  2.5358  3.0744
  782MOL0     H 3188   4.656  11.205   7.977  0.4447 -1.4625 -0.3056
  782MOL0     H 3189   4.650  10.994   7.901 -0.5993  0.5795 -0.5102
  782MOL0     H 3190   4.838  10.833   7.490  0.1893  0.8087  0.1563
  782MOL0     H 3191   4.724  10.977   7.470  3.9059  0.8159 -0.3424
  782MOL0     H 3192   4.533  10.796   7.543 -0.5856  0.9727 -2.1036
  782MOL0     H 3193   4.673  10.688   7.552 -2.3174 -1.4129  0.7015
  782MOL0     H 3194   4.684  10.703   7.301  0.4227  1.1384  1.3792
  782MOL0     H 3195   4.558  10.830   7.312  1.5962 -0.1435 -1.2209
  782MOL0     H 3196   4.483  10.559   7.423  1.0859 -0.6662  0.2852
  782MOL0     H 3197   4.371  10.679   7.379  0.2381 -0.6319  4.3271
  782MOL0     H 3198   4.557  10.500   7.217 -1.1959 -1.5604  1.6508
  782MOL0     H 3199   4.474  10.627   7.126  2.1613  0.0361 -0.1182
  782MOL0     H 3200   4.254  10.533   7.206 -0.5082 -0.0096  2.2548
  782MOL0     H 3201   4.330  10.410   7.289  1.1915 -0.2142  0.6553
  782MOL0     H 3202   4.241  10.337   7.077 -1.0170  2.1200 -0.9380
  782MOL0     H 3203   4.364  10.430   6.993  0.0903  0.2228  0.4063
  782MOL0     H 3204   4.432  10.213   7.200 -2.1024  1.8019 -0.3413
  782MOL0     H 3205   4.549  10.292   7.095 -0.4270  0.5724  3.1979
  782MOL0     H 3206   4.859  11.096   7.556  0.5489 -3.9015  1.3812
  782MOL0     H 3207   4.875  11.327   7.620  0.3698 -1.3614 -1.8387
  782MOL0     H 3208   4.842  11.700   7.822  0.8371 -3.0256  1.1471
  782MOL0     H 3209   4.823  11.938   7.860 -2.7822  0.5077 -2.4353
  782MOL0     H 3210   5.323  11.212   9.331 -0.5430  0.7563  0.8729
  782MOL0     H 3211   5.415  10.983   9.322  0.7350 -0.9035  1.4446
  782MOL0     H 3212   5.311  10.512   9.130  1.6631 -0.6583 -4.0386
  782MOL0     H 3213   5.457  10.321   9.095 -2.5134  0.0165 -0.0160
  782MOL0     H 3214   5.766  10.331   9.063 -1.9942  0.2191 -0.1722
  782MOL0     H 3215   5.664  10.178   9.064  1.3209 -1.6893 -1.1715
  782MOL0     H 3216   5.867  10.099   9.019 -1.5184 -2.5019  2.0108
  782MOL0     H 3217   5.957  10.205   9.118  0.1823 -0.1428 -2.3170
  782MOL0     H 3218   5.853  10.080   9.334  1.1391  3.6746 -0.7144
  782MOL0     H 3219   5.968   9.999   9.227 -0.6767  0.9572  0.2719
  782MOL0     H 3220   5.780   9.894   9.107 -0.7266 -0.2277  0.6735
  782MOL0     H 3221   5.817   9.846   9.275  1.1123  0.0333 -0.5653
  782MOL0     H 3222   5.414   9.949   9.294 -0.9757 -1.8654 -3.5025
  782MOL0     H 3223   5.711  10.464   9.410 -0.4527  3.9149  1.8039
  782MOL0     H 3224   5.563  10.668   9.440  2.7801  0.8211 -1.2855
  783MOL0     O 3225   0.908   7.703   8.156  0.2757  0.3424 -0.1938
  783MOL0     C 3226   0.808   7.700   8.229  0.0486  1.0582  0.5319
  783MOL0     O 3227   0.709   7.607   8.221 -0.8273 -0.1682  0.3726
  783MOL0     C 3228   0.736   7.485   8.170 -0.4277 -0.9831 -0.0034
  783MOL0     C 3229   0.712   7.453   8.033  0.3530 -0.2125 -0.6562
  783MOL0     C 3230   0.744   7.330   7.973  0.1995 -0.0263 -0.5170
  783MOL0     C 3231   0.793   7.232   8.069  1.1009  0.2746  0.5845
  783MOL0     O 3232   0.783   7.109   8.009 -0.2742  0.1751  0.1836
  783MOL0     C 3233   0.869   7.002   8.069  0.0365 -0.1063 -0.5610
  783MOL0     C 3234   0.815   6.873   8.007  0.1067 -0.0128  0.4462
  783MOL0     C 3235   0.858   6.751   8.087  0.9164  0.0760 -0.3935
  783MOL0     C 3236   0.797   6.617   8.019 -0.1924  0.4796  0.5224
  783MOL0     C 3237   0.835   6.486   8.098  1.0886 -0.5362  0.5504
  783MOL0     C 3238   0.791   6.356   8.029 -0.1180  0.2493 -0.6700
  783MOL0     C 3239   0.886   6.242   8.062 -0.6510  0.0111 -1.1726
  783MOL0     C 3240   0.892   6.205   8.213  0.3567  0.5826  1.1571
  783MOL0     N 3241   0.771   6.131   8.243  0.0049  0.8223 -0.3442
  783MOL0     C 3242   0.764   5.993   8.239 -0.2278  0.7951  0.0276
  783MOL0     C 3243   0.635   5.968   8.278  0.0283  0.0482  0.3781
  783MOL0     C 3244   0.563   5.834   8.291 -0.6740 -0.9661  0.2907
  783MOL0     C 3245   0.414   5.843   8.253  0.3782 -0.1076 -0.2722
  783MOL0     C 3246   0.389   5.897   8.105  0.5236 -0.3683 -0.5881
  783MOL0     C 3247   0.243   5.936   8.079 -0.3913  0.6753  0.2868
  783MOL0     O 3248   0.215   5.991   7.944 -0.8307  0.1978 -0.1621
  783MOL0     C 3249   0.257   6.109   7.901  1.0872  0.1548  0.0320
  783MOL0     C 3250   0.335   6.191   7.976 -0.2478  1.2610  0.8400
  783MOL0     C 3251   0.394   6.306   7.914 -0.5691  0.0049  0.6652
  783MOL0     C 3252   0.352   6.344   7.783  0.8219 -1.3306  0.4873
  783MOL0     C 3253   0.392   6.467   7.713  0.6172  0.3013 -1.1210
  783MOL0     O 3254   0.465   6.552   7.793 -0.4226 -0.6253  0.0666
  783MOL0     C 3255   0.562   6.626   7.733  0.3484  1.0096 -1.3072
  783MOL0     C 3256   0.671   6.552   7.676  0.7313  0.4285 -1.0607
  783MOL0     C 3257   0.763   6.630   7.612 -0.2902  0.2485  0.0759
  783MOL0     C 3258   0.770   6.770   7.619  0.3036  0.2323  0.7553
  783MOL0     O 3259   0.871   6.829   7.557  0.0952  0.3142 -0.2067
  783MOL0     C 3260   0.863   6.963   7.518 -0.3770 -0.2022 -0.4856
  783MOL0     C 3261   0.939   7.059   7.610 -0.0471  0.4533 -0.6705
  783MOL0     C 3262   1.089   7.049   7.586 -0.4118 -0.1160  0.2992
  783MOL0     C 3263   1.143   7.136   7.460  0.0097  0.1331  0.8514
  783MOL0     C 3264   1.283   7.102   7.427 -0.6454  0.0058  0.0395
  783MOL0     C 3265   1.380   7.128   7.540 -0.4998  0.0793 -0.2142
  783MOL0     C 3266   1.526   7.079   7.508 -0.8807 -0.0635 -0.2858
  783MOL0     C 3267   1.543   6.939   7.566 -0.4999  0.3895 -0.7228
  783MOL0    Cl 3268   1.430   6.823   7.492 -0.1168  0.2965  0.2666
  783MOL0     C 3269   0.660   6.843   7.676  0.3223  0.3891  0.0089
  783MOL0     C 3270   0.555   6.761   7.724  0.1840 -0.1796  0.2242
  783MOL0     O 3271   0.351   6.492   7.598  0.1124 -0.5759 -0.1102
  783MOL0     C 3272   0.267   6.258   7.709 -0.7697  1.2175 -0.6149
  783MOL0     C 3273   0.238   6.134   7.766  0.1965  0.5690  1.1762
  783MOL0     N 3274   0.574   6.090   8.312  0.7367 -0.3344  0.0027
  783MOL0     N 3275   0.650   6.184   8.286 -0.5774 -0.7424 -0.3636
  783MOL0     C 3276   0.805   7.262   8.208  0.7850 -0.2562  0.1501
  783MOL0     C 3277   0.783   7.389   8.253  0.3579  0.2482  0.4218
  783MOL0     C 3278   0.804   7.800   8.349 -0.3647  1.0410  0.9209
  783MOL0     C 3279   0.902   7.902   8.365  0.6286 -0.6529  0.2769
  783MOL0     C 3280   0.894   7.996   8.466 -0.1565 -0.4156 -0.4708
  783MOL0     C 3281   0.792   7.986   8.560 -0.0790 -0.3133  0.3173
  783MOL0     O 3282   0.795   8.083   8.667  0.2493 -0.1863  0.6701
  783MOL0     C 3283   0.714   8.076   8.787  0.0716 -0.1061  0.9907
  783MOL0     C 3284   0.581   8.149   8.791 -0.3620 -0.6426  0.1579
  783MOL0     C 3285   0.456   8.054   8.778  0.6757 -0.8067 -0.8753
  783MOL0     C 3286   0.331   8.116   8.832 -0.4910  0.8727 -0.3895
  783MOL0     C 3287   0.228   8.009   8.823  0.9799  0.3007  0.5086
  783MOL0     C 3288   0.166   7.903   8.830  0.1630  0.4872  0.5629
  783MOL0     C 3289   0.700   7.887   8.546  0.5656 -0.0370  0.3250
  783MOL0     C 3290   0.707   7.791   8.444 -0.2449 -0.6370 -1.0082
  783MOL0     H 3291   0.676   7.535   7.971  0.3301  0.9485  0.8299
  783MOL0     H 3292   0.708   7.304   7.874 -1.3354  1.4054 -0.3649
  783MOL0     H 3293   0.865   6.998   8.178  1.3242  0.0078 -0.4929
  783MOL0     H 3294   0.973   7.007   8.036  0.1068 -1.8007 -0.6883
  783MOL0     H 3295   0.850   6.855   7.905 -2.5939 -2.9042 -0.0889
  783MOL0     H 3296   0.706   6.880   8.007  0.0810 -0.2807 -0.6319
  783MOL0     H 3297   0.819   6.757   8.189 -1.0891  0.2851 -1.1286
  783MOL0     H 3298   0.966   6.755   8.102  1.4998 -0.0223 -3.7218
  783MOL0     H 3299   0.689   6.619   8.002 -0.1031  3.9422 -0.2934
  783MOL0     H 3300   0.845   6.597   7.922 -0.6843 -5.1212  1.0611
  783MOL0     H 3301   0.793   6.487   8.199  0.2544 -2.8461  0.2732
  783MOL0     H 3302   0.944   6.485   8.102  1.3078 -1.5310 -2.7492
  783MOL0     H 3303   0.807   6.361   7.921  1.5627  0.9089 -0.4305
  783MOL0     H 3304   0.688   6.327   8.051 -0.8521  0.5273 -3.3885
  783MOL0     H 3305   0.855   6.154   8.005 -2.9253  1.5095 -2.3610
  783MOL0     H 3306   0.989   6.269   8.037 -0.2435  0.0692  0.4054
  783MOL0     H 3307   0.894   6.294   8.278 -0.0137 -0.0678  2.0887
  783MOL0     H 3308   0.981   6.144   8.229  1.1688  1.2492 -0.6073
  783MOL0     H 3309   0.843   5.925   8.210 -0.2471  0.7031  0.1848
  783MOL0     H 3310   0.573   5.825   8.400  0.0108 -0.8413  0.2465
  783MOL0     H 3311   0.599   5.749   8.233 -0.3694 -0.2316 -0.6306
  783MOL0     H 3312   0.370   5.908   8.329 -0.4569 -0.2196 -0.6460
  783MOL0     H 3313   0.366   5.746   8.270 -3.7491  1.5514 -1.2067
  783MOL0     H 3314   0.442   5.984   8.066 -4.8733  2.5072 -2.5943
  783MOL0     H 3315   0.417   5.817   8.035 -1.6740 -0.2284 -1.6970
  783MOL0     H 3316   0.194   6.007   8.147 -3.8190  0.3155 -1.6162
  783MOL0     H 3317   0.191   5.841   8.092 -1.2815  0.6375 -2.8226
  783MOL0     H 3318   0.357   6.156   8.077  0.4302 -0.4565  0.1239
  783MOL0     H 3319   0.472   6.367   7.957 -0.4223 -0.4271  1.0222
  783MOL0     H 3320   0.664   6.444   7.675  1.8941  0.3111  0.2842
  783MOL0     H 3321   0.839   6.572   7.559 -1.1194 -3.4608  2.5452
  783MOL0     H 3322   0.760   6.990   7.493 -0.3746 -0.5108 -0.8411
  783MOL0     H 3323   0.908   6.975   7.420  1.4698 -2.5268 -0.0161
  783MOL0     H 3324   0.921   7.039   7.716  0.1631 -4.3329 -1.3117
  783MOL0     H 3325   0.911   7.162   7.588 -0.9031  0.3333 -0.1687
  783MOL0     H 3326   1.125   6.949   7.558 -1.6449  0.4432 -4.1523
  783MOL0     H 3327   1.137   7.095   7.672  2.7883 -0.2731 -1.2527
  783MOL0     H 3328   1.092   7.119   7.364  2.6928  0.6640 -0.7872
  783MOL0     H 3329   1.129   7.243   7.475  1.1688  0.4559 -0.1949
  783MOL0     H 3330   1.303   7.167   7.341 -3.4655 -0.3403 -0.9944
  783MOL0     H 3331   1.299   7.002   7.387  0.8609  1.3295 -3.0100
  783MOL0     H 3332   1.345   7.092   7.637  2.6962 -2.1906  0.2650
  783MOL0     H 3333   1.392   7.237   7.547  0.1045 -0.0016  0.1047
  783MOL0     H 3334   1.570   7.081   7.408 -1.2468 -2.7999 -0.5844
  783MOL0     H 3335   1.597   7.142   7.562  0.3052 -3.7740  2.8677
  783MOL0     H 3336   1.511   6.946   7.670 -1.2246  0.1940 -0.9285
  783MOL0     H 3337   1.648   6.908   7.562 -0.4087  0.8281 -3.8167
  783MOL0     H 3338   0.651   6.950   7.692  0.5204  0.2955  0.7916
  783MOL0     H 3339   0.473   6.817   7.769 -0.7438  1.0987 -2.7443
  783MOL0     H 3340   0.231   6.278   7.608  1.3738  1.1522 -1.4272
  783MOL0     H 3341   0.164   6.081   7.707 -0.8586  0.2005  2.7788
  783MOL0     H 3342   0.839   7.193   8.284  3.6246  1.0327  0.1903
  783MOL0     H 3343   0.790   7.409   8.359 -2.0567 -1.8772  1.0808
  783MOL0     H 3344   0.979   7.910   8.290 -0.1888  1.3520 -0.4189
  783MOL0     H 3345   0.978   8.064   8.479 -0.3240  0.1734 -2.1857
  783MOL0     H 3346   0.782   8.098   8.870 -0.4265 -0.0518  1.3879
  783MOL0     H 3347   0.691   7.971   8.806 -0.8140 -0.2191 -0.5092
  783MOL0     H 3348   0.569   8.190   8.892  1.0509  3.9114 -1.2832
  783MOL0     H 3349   0.583   8.233   8.721 -0.9318 -1.6981 -1.1588
  783MOL0     H 3350   0.490   7.962   8.827  2.8802 -0.3293 -1.4071
  783MOL0     H 3351   0.453   8.041   8.670  0.1841 -1.9094 -0.7415
  783MOL0     H 3352   0.347   8.147   8.936 -0.4999  0.3435 -0.2285
  783MOL0     H 3353   0.294   8.201   8.773 -0.1483 -0.3879 -2.4916
  783MOL0     H 3354   0.143   7.801   8.854  1.6438 -0.7743 -2.8164
  783MOL0     H 3355   0.617   7.888   8.616 -0.6104  1.8307 -1.0029
  783MOL0     H 3356   0.619   7.728   8.442 -1.1818  0.4861  1.1467
  784MOL0     O 3357   7.397   5.083  10.495  0.6648 -0.4761  0.5769
  784MOL0     C 3358   7.364   4.969  10.517 -0.2564  0.1759  0.6232
  784MOL0     O 3359   7.398   4.879  10.618  0.4884  0.3260  1.0532
  784MOL0     C 3360   7.452   4.938  10.723  0.6516  0.5010 -0.4114
  784MOL0     C 3361   7.371   4.967  10.832 -0.3821  0.3471 -0.3591
  784MOL0     C 3362   7.429   5.032  10.945 -0.4084 -0.1147  0.1869
  784MOL0     C 3363   7.566   5.057  10.954 -0.6841  0.7066 -0.5013
  784MOL0     O 3364   7.636   5.117  11.058 -0.5484 -0.9069  0.2109
  784MOL0     C 3365   7.555   5.197  11.147 -0.9844 -0.0857  0.6602
  784MOL0     C 3366   7.503   5.126  11.267 -0.4499 -0.6486  0.5695
  784MOL0     C 3367   7.539   5.198  11.395  0.8425 -0.3437 -0.4600
  784MOL0     C 3368   7.686   5.175  11.440  0.3978  0.8240 -0.7920
  784MOL0     C 3369   7.730   5.297  11.517 -0.9178  0.2776  0.2457
  784MOL0     C 3370   7.678   5.309  11.658  0.4480 -0.5832  0.0957
  784MOL0     C 3371   7.770   5.377  11.765  0.1686 -0.0617 -0.1665
  784MOL0     C 3372   7.778   5.529  11.748 -0.0645  0.5640 -0.6674
  784MOL0     N 3373   7.831   5.589  11.868 -0.3153  0.1913  0.0044
  784MOL0     C 3374   7.967   5.598  11.905 -0.2210 -0.3572 -0.7808
  784MOL0     C 3375   7.961   5.634  12.036  0.0390  0.3384 -0.0861
  784MOL0     C 3376   8.077   5.647  12.129 -0.8034 -0.5143 -0.8774
  784MOL0     C 3377   8.081   5.779  12.219  0.3116  0.9053 -0.1769
  784MOL0     C 3378   8.202   5.776  12.324  0.8013  0.7467  0.1455
  784MOL0     C 3379   8.278   5.906  12.345 -0.0039  0.2458 -0.9494
  784MOL0     O 3380   8.381   5.915  12.246  0.3829 -0.7681 -0.4124
  784MOL0     C 3381   8.476   6.022  12.265  0.3522  0.4356 -0.7012
  784MOL0     C 3382   8.569   6.036  12.156  0.4591  1.0074 -0.1155
  784MOL0     C 3383   8.650   6.148  12.152  0.2860  0.4265 -0.8906
  784MOL0     C 3384   8.642   6.248  12.247 -0.2009 -0.2172  1.2124
  784MOL0     C 3385   8.714   6.372  12.215 -0.9652  0.1066  0.5439
  784MOL0     O 3386   8.707   6.463  12.324 -0.3012 -0.3232  0.5808
  784MOL0     C 3387   8.765   6.588  12.317 -0.9657  0.2815  0.0838
  784MOL0     C 3388   8.847   6.632  12.418 -0.4933 -0.1536  0.2723
  784MOL0     C 3389   8.898   6.768  12.421 -0.0799 -0.0791 -0.0829
  784MOL0     C 3390   8.873   6.853  12.320 -0.5805 -0.6043 -0.3715
  784MOL0     O 3391   8.933   6.976  12.340  0.6929 -1.0057  0.6063
  784MOL0     C 3392   8.921   7.069  12.232 -0.0087 -0.5557 -0.8584
  784MOL0     C 3393   9.026   7.183  12.250 -0.6987 -0.5413  0.0430
  784MOL0     C 3394   9.018   7.259  12.383 -0.0823 -0.5368  0.1599
  784MOL0     C 3395   9.158   7.286  12.430  0.1157  0.0016 -1.0213
  784MOL0     C 3396   9.247   7.165  12.472  0.6462  0.5061 -0.1929
  784MOL0     C 3397   9.370   7.227  12.530  1.5212 -0.8458  0.3659
  784MOL0     C 3398   9.447   7.329  12.434 -0.2174 -0.1053  0.6997
  784MOL0     C 3399   9.587   7.373  12.494 -0.3574  0.4161 -0.5390
  784MOL0    Cl 3400   9.551   7.480  12.632 -0.0677 -0.1314 -0.2230
  784MOL0     C 3401   8.794   6.809  12.214  0.7528 -0.1141  0.4743
  784MOL0     C 3402   8.746   6.683  12.215  0.4969  0.5988  0.3193
  784MOL0     O 3403   8.779   6.388  12.111 -0.2120  0.9807 -0.3003
  784MOL0     C 3404   8.555   6.240  12.354  0.3926  0.1400 -0.2640
  784MOL0     C 3405   8.466   6.128  12.358 -0.2935  0.3409  0.7224
  784MOL0     N 3406   7.832   5.641  12.077 -0.3881  0.1807 -0.3956
  784MOL0     N 3407   7.760   5.629  11.977 -0.5348  0.7547  0.5293
  784MOL0     C 3408   7.647   5.022  10.845 -0.1691 -0.3128 -0.1329
  784MOL0     C 3409   7.590   4.965  10.732 -0.6550 -0.3435  0.2751
  784MOL0     C 3410   7.256   4.918  10.425 -0.0740 -0.8191 -0.8994
  784MOL0     C 3411   7.206   4.788  10.435  2.2525 -0.6462 -0.2083
  784MOL0     C 3412   7.090   4.757  10.358  0.1485  0.3890  0.2966
  784MOL0     C 3413   7.026   4.856  10.277 -0.2216  0.1638 -0.0210
  784MOL0     O 3414   6.910   4.810  10.207  0.3794  1.3030 -0.2163
  784MOL0     C 3415   6.797   4.891  10.193 -0.1899  0.3150  0.0411
  784MOL0     C 3416   6.688   4.843  10.291  0.2959  0.6508 -0.6537
  784MOL0     C 3417   6.566   4.929  10.265 -0.0481  0.5200 -0.8087
  784MOL0     C 3418   6.436   4.885  10.323  0.0795 -0.0633 -0.4686
  784MOL0     C 3419   6.438   4.874  10.469  0.0647  0.9585  0.6388
  784MOL0     C 3420   6.420   4.883  10.592  0.1590  0.1655  0.5142
  784MOL0     C 3421   7.079   4.980  10.261  0.1785  0.3229  0.0372
  784MOL0     C 3422   7.200   5.001  10.332 -0.3407 -1.0407  0.6558
  784MOL0     H 3423   7.268   4.933  10.840  0.8445 -3.7804  0.2013
  784MOL0     H 3424   7.376   5.039  11.039  0.9768 -0.7604  1.0437
  784MOL0     H 3425   7.477   5.240  11.083  1.3475  1.5823 -1.2541
  784MOL0     H 3426   7.631   5.270  11.173 -0.2050  0.9085 -3.5797
  784MOL0     H 3427   7.538   5.023  11.270 -0.9934 -1.0567 -2.9591
  784MOL0     H 3428   7.394   5.125  11.258 -0.3251  1.0467 -4.9883
  784MOL0     H 3429   7.466   5.167  11.471  1.6954  1.3203  1.1325
  784MOL0     H 3430   7.527   5.304  11.371  0.8808 -0.3567 -0.5403
  784MOL0     H 3431   7.700   5.075  11.482  3.0224  0.2173 -2.8316
  784MOL0     H 3432   7.748   5.167  11.350  2.0146  4.3318 -0.1640
  784MOL0     H 3433   7.691   5.386  11.468 -0.3580  1.3868  1.7637
  784MOL0     H 3434   7.840   5.296  11.516 -0.8643  2.0629  0.9739
  784MOL0     H 3435   7.652   5.208  11.692 -2.7780  0.2340  0.3274
  784MOL0     H 3436   7.577   5.349  11.663 -0.2028 -2.2237  0.6882
  784MOL0     H 3437   7.712   5.349  11.854 -2.5105 -1.7450 -2.2753
  784MOL0     H 3438   7.875   5.349  11.773  0.9252  2.4768 -0.1687
  784MOL0     H 3439   7.673   5.558  11.743  0.1451  1.8375  1.1047
  784MOL0     H 3440   7.839   5.552  11.660  2.6703 -1.4713  0.5505
  784MOL0     H 3441   8.054   5.606  11.839 -0.0349  1.5409 -0.3577
  784MOL0     H 3442   8.167   5.649  12.066 -2.2224  2.4347 -3.0211
  784MOL0     H 3443   8.093   5.564  12.199  3.2415  2.1016  1.7058
  784MOL0     H 3444   7.992   5.770  12.282 -0.9547  1.2056 -1.8517
  784MOL0     H 3445   8.078   5.877  12.171 -1.2181  1.3072  0.6653
  784MOL0     H 3446   8.176   5.753  12.428  2.3972 -0.0266  0.4057
  784MOL0     H 3447   8.280   5.703  12.300  1.8236  0.7617  3.1185
  784MOL0     H 3448   8.325   5.895  12.443 -0.3157 -0.2878 -0.8570
  784MOL0     H 3449   8.208   5.989  12.353 -0.6439 -0.3772  0.2267
  784MOL0     H 3450   8.579   5.957  12.083  2.5356  1.9355 -0.9099
  784MOL0     H 3451   8.718   6.137  12.068 -1.4092 -2.3371 -2.0454
  784MOL0     H 3452   8.859   6.578  12.511 -0.5300  0.2314  0.5033
  784MOL0     H 3453   8.956   6.800  12.507 -0.0498  2.4702 -0.9675
  784MOL0     H 3454   8.817   7.103  12.238 -1.5696 -4.9637  1.7157
  784MOL0     H 3455   8.938   7.024  12.134 -1.1123 -2.3228 -0.2937
  784MOL0     H 3456   9.012   7.254  12.168 -0.2932  0.8910  1.1648
  784MOL0     H 3457   9.122   7.135  12.233 -0.2265  1.0556 -2.2105
  784MOL0     H 3458   8.960   7.213  12.464 -1.8033  1.1465 -0.0538
  784MOL0     H 3459   8.978   7.358  12.361  0.7356  0.4600  2.8207
  784MOL0     H 3460   9.210   7.343  12.353 -0.8309 -0.4814 -2.0438
  784MOL0     H 3461   9.142   7.340  12.524  1.6370 -0.2410 -0.6021
  784MOL0     H 3462   9.285   7.109  12.386  1.6787  0.3682  0.3396
  784MOL0     H 3463   9.193   7.091  12.531  2.1110 -1.8676 -1.6223
  784MOL0     H 3464   9.442   7.147  12.550  0.2818 -1.9671  0.4623
  784MOL0     H 3465   9.341   7.277  12.622 -2.3987 -4.8507  1.6357
  784MOL0     H 3466   9.461   7.288  12.334 -1.5627 -1.6933  1.1116
  784MOL0     H 3467   9.383   7.417  12.422 -2.1137 -1.5711 -0.6026
  784MOL0     H 3468   9.650   7.425  12.421 -1.4068  0.8349 -1.1761
  784MOL0     H 3469   9.641   7.283  12.525 -0.0935  0.7270 -0.0819
  784MOL0     H 3470   8.767   6.868  12.127  0.5470 -1.9377 -0.7599
  784MOL0     H 3471   8.689   6.653  12.127  0.4155  0.3167  0.4666
  784MOL0     H 3472   8.539   6.325  12.421 -1.2269  0.0876 -0.5387
  784MOL0     H 3473   8.389   6.115  12.433 -1.1682  1.1215 -0.0180
  784MOL0     H 3474   7.753   5.042  10.855  0.0048 -0.2465 -1.8380
  784MOL0     H 3475   7.645   4.935  10.644 -1.4769  0.4731 -0.5506
  784MOL0     H 3476   7.241   4.720  10.511 -1.2612 -1.1305  1.1892
  784MOL0     H 3477   7.051   4.657  10.376  1.5921  0.1675  2.6581
  784MOL0     H 3478   6.766   4.886  10.088 -0.6770  0.5507  0.1733
  784MOL0     H 3479   6.825   4.994  10.215  3.0027 -0.0733 -1.5711
  784MOL0     H 3480   6.664   4.737  10.281 -2.4550  1.0921  0.3711
  784MOL0     H 3481   6.711   4.849  10.397  0.5150  1.1588 -0.7263
  784MOL0     H 3482   6.559   4.911  10.157 -1.1103 -0.1229 -0.6525
  784MOL0     H 3483   6.591   5.035  10.274  0.6797  0.1613  2.5116
  784MOL0     H 3484   6.346   4.932  10.283 -4.0736 -3.2026  4.1000
  784MOL0     H 3485   6.418   4.786  10.279 -0.7280  0.7376 -2.0041
  784MOL0     H 3486   6.393   4.878  10.696 -0.7541  1.4002  0.3514
  784MOL0     H 3487   7.031   5.047  10.191 -0.8732 -0.3350  0.0942
  784MOL0     H 3488   7.237   5.102  10.317 -0.7048 -1.1068 -0.8467
  785MOL0     O 3489   7.588   6.962   0.054  0.3790  0.4436  0.6878
  785MOL0     C 3490   7.696   7.008   0.025 -1.1664 -0.6397 -0.7600
  785MOL0     O 3491   7.812   6.942   0.039 -0.2541 -0.7233 -0.3771
  785MOL0     C 3492   7.804   6.804   0.073  0.6607 -0.2265 -0.4676
  785MOL0     C 3493   7.839   6.762   0.198  0.4016 -0.7721  0.1994
  785MOL0     C 3494   7.837   6.629   0.233  0.1156  0.1434 -0.0069
  785MOL0     C 3495   7.801   6.528   0.143  1.0897  0.2843  1.2637
  785MOL0     O 3496   7.805   6.401   0.194 -0.0583 -0.0188  0.5555
  785MOL0     C 3497   7.690   6.319   0.156 -0.5214 -0.2014 -0.5171
  785MOL0     C 3498   7.732   6.185   0.107  0.3936  0.0573  0.7890
  785MOL0     C 3499   7.614   6.091   0.117  0.0616  0.9881  0.4452
  785MOL0     C 3500   7.660   5.947   0.097  0.3345 -1.0516  0.1828
  785MOL0     C 3501   7.546   5.848   0.099  0.7353 -0.1476  0.4032
  785MOL0     C 3502   7.575   5.714   0.014  0.3701 -0.2488  0.6277
  785MOL0     C 3503   7.585   5.733  -0.144 -0.2957 -0.2296  2.0420
  785MOL0     C 3504   7.470   5.788  -0.229 -0.0451  0.5322 -0.9711
  785MOL0     N 3505   7.356   5.703  -0.235  0.4438 -0.2170 -0.9815
  785MOL0     C 3506   7.358   5.574  -0.271 -0.0078 -0.2012  0.5527
  785MOL0     C 3507   7.225   5.537  -0.256 -0.6786 -0.3411  0.0483
  785MOL0     C 3508   7.191   5.397  -0.268 -0.5559  0.3789 -0.4805
  785MOL0     C 3509   7.044   5.361  -0.274  1.0608 -0.8265  0.5327
  785MOL0     C 3510   7.025   5.227  -0.331  0.9904 -0.3680 -0.4212
  785MOL0     C 3511   7.028   5.113  -0.220 -0.8938  0.6553 -0.1388
  785MOL0     O 3512   6.981   4.984  -0.271 -0.0398  1.0278 -0.2201
  785MOL0     C 3513   6.846   4.947  -0.301  0.8889 -1.0742 -0.3851
  785MOL0     C 3514   6.741   5.037  -0.284  0.0997 -1.1061  0.8266
  785MOL0     C 3515   6.612   5.006  -0.329  0.0254  0.1783 -0.1843
  785MOL0     C 3516   6.590   4.875  -0.385  0.5613 -0.1181 -0.1400
  785MOL0     C 3517   6.447   4.831  -0.408 -0.1362 -0.9418 -0.1115
  785MOL0     O 3518   6.342   4.910  -0.371 -0.3817 -0.0170 -0.9263
  785MOL0     C 3519   6.214   4.873  -0.398  0.0062  0.6179 -1.7076
  785MOL0     C 3520   6.151   4.781  -0.308  1.1881 -0.4335 -1.2966
  785MOL0     C 3521   6.024   4.729  -0.344 -0.3243  0.6672  0.1924
  785MOL0     C 3522   5.956   4.781  -0.456  0.3704  0.0577 -0.7077
  785MOL0     O 3523   5.830   4.731  -0.478  0.2737 -0.9064 -0.5264
  785MOL0     C 3524   5.745   4.807  -0.555 -1.0853 -0.5354 -0.0195
  785MOL0     C 3525   5.612   4.738  -0.549 -0.1036 -0.0683 -0.2780
  785MOL0     C 3526   5.548   4.750  -0.407  0.5406 -0.2850 -0.0302
  785MOL0     C 3527   5.391   4.730  -0.411 -0.2853  0.3996 -1.0638
  785MOL0     C 3528   5.317   4.758  -0.274 -0.4673  0.1882  0.0950
  785MOL0     C 3529   5.307   4.902  -0.241 -0.5009 -0.2289 -0.3333
  785MOL0     C 3530   5.257   4.921  -0.106  0.5630  1.0715  0.2123
  785MOL0     C 3531   5.140   4.831  -0.071  0.2216 -0.4282  0.4922
  785MOL0    Cl 3532   5.060   4.916   0.061  0.0855 -0.4800  0.0769
  785MOL0     C 3533   6.019   4.876  -0.540  1.6468  1.0533 -0.2193
  785MOL0     C 3534   6.141   4.924  -0.500 -0.1935 -0.5441  0.7853
  785MOL0     O 3535   6.438   4.720  -0.462  0.1124 -0.0381  0.2091
  785MOL0     C 3536   6.696   4.789  -0.399  0.2108  0.5221 -0.5689
  785MOL0     C 3537   6.820   4.824  -0.367 -0.6150 -0.1270 -0.4412
  785MOL0     N 3538   7.153   5.641  -0.220 -0.4933  0.1558 -0.8456
  785MOL0     N 3539   7.229   5.743  -0.209  0.1516 -0.5599 -0.2821
  785MOL0     C 3540   7.768   6.568   0.009  0.6879  0.4363  0.3825
  785MOL0     C 3541   7.772   6.701  -0.024 -0.7034 -0.5802 -0.0290
  785MOL0     C 3542   7.703   7.151  -0.014  0.6181  0.0026 -0.5543
  785MOL0     C 3543   7.636   7.260   0.051  0.3951 -0.2587  0.2452
  785MOL0     C 3544   7.622   7.386  -0.022  0.2711  0.8366  0.2534
  785MOL0     C 3545   7.671   7.396  -0.153  0.9537 -0.3339 -0.0848
  785MOL0     O 3546   7.648   7.518  -0.211 -0.1717  0.9704  1.4497
  785MOL0     C 3547   7.600   7.520  -0.352  1.1201  0.1990  0.5163
  785MOL0     C 3548   7.541   7.663  -0.387  0.1974  0.0009 -0.4699
  785MOL0     C 3549   7.401   7.677  -0.336  0.7345 -1.0566  0.3134
  785MOL0     C 3550   7.334   7.821  -0.336  0.7948  0.4518 -0.4244
  785MOL0     C 3551   7.194   7.815  -0.302  0.2475  1.0050 -0.2347
  785MOL0     C 3552   7.084   7.808  -0.257 -0.2011 -0.5115 -1.4667
  785MOL0     C 3553   7.738   7.297  -0.207  0.1111  1.1037 -0.8417
  785MOL0     C 3554   7.752   7.175  -0.136  0.2712 -0.2146 -0.8924
  785MOL0     H 3555   7.878   6.835   0.268 -0.8563 -0.8810  1.0325
  785MOL0     H 3556   7.878   6.608   0.331 -1.7503 -0.5378  0.6663
  785MOL0     H 3557   7.621   6.369   0.087 -0.3141 -1.4701 -1.6885
  785MOL0     H 3558   7.627   6.301   0.243  1.3074 -0.1902  0.8560
  785MOL0     H 3559   7.806   6.142   0.174  2.7641 -0.1182 -1.7723
  785MOL0     H 3560   7.772   6.194   0.005 -2.7630  0.8179 -0.5060
  785MOL0     H 3561   7.542   6.121   0.040 -0.0234  3.3439  1.3700
  785MOL0     H 3562   7.562   6.097   0.213  1.2102  0.1050  1.1500
  785MOL0     H 3563   7.721   5.944   0.006 -1.9538 -2.8257 -1.4097
  785MOL0     H 3564   7.732   5.925   0.176  1.0089 -1.4524 -0.5227
  785MOL0     H 3565   7.460   5.887   0.044  1.4114  1.0238  0.1374
  785MOL0     H 3566   7.524   5.833   0.205  0.9189  2.7902  0.9589
  785MOL0     H 3567   7.512   5.625   0.029  1.9775 -1.1047  3.0012
  785MOL0     H 3568   7.667   5.674   0.058 -1.3680 -2.3998  2.5766
  785MOL0     H 3569   7.671   5.800  -0.159 -1.6569  1.0907 -0.4269
  785MOL0     H 3570   7.614   5.644  -0.200  0.3177  1.2220 -0.0919
  785MOL0     H 3571   7.512   5.797  -0.329 -0.4578  3.0341 -1.0056
  785MOL0     H 3572   7.448   5.894  -0.210 -0.6365  0.6896 -2.4269
  785MOL0     H 3573   7.441   5.513  -0.305 -1.7588 -1.1608 -2.3479
  785MOL0     H 3574   7.229   5.341  -0.183 -3.0278 -2.5614 -1.1411
  785MOL0     H 3575   7.247   5.353  -0.351  1.1959  0.7398  0.4574
  785MOL0     H 3576   6.995   5.424  -0.349  0.7903 -3.0510 -1.2791
  785MOL0     H 3577   6.987   5.357  -0.181  0.1743 -0.2064  0.0257
  785MOL0     H 3578   6.922   5.230  -0.367  0.5837 -1.3175  0.5891
  785MOL0     H 3579   7.099   5.212  -0.410  1.6813  0.0101  0.1350
  785MOL0     H 3580   6.974   5.142  -0.129 -2.0039  1.3376 -0.9985
  785MOL0     H 3581   7.130   5.081  -0.195 -1.8075 -2.6627 -0.0666
  785MOL0     H 3582   6.759   5.137  -0.245  0.7466  0.9697 -3.9713
  785MOL0     H 3583   6.525   5.070  -0.317  2.1584  3.2667  0.1631
  785MOL0     H 3584   6.207   4.745  -0.223 -0.6208  1.4518  0.8141
  785MOL0     H 3585   5.980   4.650  -0.284  4.1126 -0.8586  1.8100
  785MOL0     H 3586   5.785   4.798  -0.657 -1.8571 -3.0627 -0.1642
  785MOL0     H 3587   5.750   4.914  -0.532  3.8881 -0.3950 -0.6970
  785MOL0     H 3588   5.630   4.632  -0.570  1.1351  0.3572 -1.5593
  785MOL0     H 3589   5.551   4.771  -0.634  0.4125 -2.3510 -1.6108
  785MOL0     H 3590   5.570   4.851  -0.371  0.5845 -0.1848 -0.3320
  785MOL0     H 3591   5.591   4.680  -0.335  0.7366  0.0777  0.2075
  785MOL0     H 3592   5.344   4.783  -0.495 -2.0574 -3.5220 -2.8220
  785MOL0     H 3593   5.375   4.627  -0.444  3.8850 -0.8185  0.1719
  785MOL0     H 3594   5.362   4.702  -0.192 -3.4578 -2.0914  0.3706
  785MOL0     H 3595   5.220   4.707  -0.279  0.3200 -1.9785  3.6669
  785MOL0     H 3596   5.240   4.960  -0.306  1.4044  3.2437  0.5258
  785MOL0     H 3597   5.408   4.943  -0.236 -0.4223 -0.5581  2.9095
  785MOL0     H 3598   5.331   4.908  -0.026 -1.3116 -1.5894  1.7086
  785MOL0     H 3599   5.214   5.021  -0.107 -0.2905  0.8408 -3.8536
  785MOL0     H 3600   5.169   4.727  -0.048  3.6256  0.7089  1.9943
  785MOL0     H 3601   5.065   4.827  -0.151 -2.2941 -0.9546  2.7528
  785MOL0     H 3602   5.971   4.909  -0.632 -0.5634  0.4080  0.6408
  785MOL0     H 3603   6.180   5.005  -0.561 -1.8925 -1.7027 -2.0196
  785MOL0     H 3604   6.682   4.687  -0.433  3.9573  0.5396 -2.7342
  785MOL0     H 3605   6.900   4.752  -0.381  0.3554  1.2740 -2.6904
  785MOL0     H 3606   7.742   6.485  -0.056 -0.5245  0.6183  0.6013
  785MOL0     H 3607   7.747   6.735  -0.124  2.0633  0.9363 -0.3166
  785MOL0     H 3608   7.585   7.239   0.145 -2.3919 -2.3689 -1.5679
  785MOL0     H 3609   7.566   7.469   0.021 -0.1917  2.0993 -2.5584
  785MOL0     H 3610   7.524   7.444  -0.373  2.7956 -1.6402  0.8156
  785MOL0     H 3611   7.684   7.508  -0.421  1.4213 -1.0086  1.0623
  785MOL0     H 3612   7.599   7.738  -0.334 -1.4154  0.8603  0.1638
  785MOL0     H 3613   7.549   7.681  -0.495  1.4065 -2.3796 -0.8428
  785MOL0     H 3614   7.397   7.643  -0.232  0.4916 -3.2226 -0.3594
  785MOL0     H 3615   7.335   7.614  -0.395  1.4315 -2.4018  0.9226
  785MOL0     H 3616   7.380   7.900  -0.275 -3.5995  1.7361  1.6406
  785MOL0     H 3617   7.336   7.858  -0.439  0.2803  0.0581 -0.5808
  785MOL0     H 3618   6.996   7.781  -0.202  0.9089  0.8487  1.1538
  785MOL0     H 3619   7.790   7.311  -0.301 -1.3041  1.3604 -1.6148
  785MOL0     H 3620   7.809   7.091  -0.177 -0.7244 -2.7798  2.5154
  786MOL0     O 3621   6.527   8.697   8.349 -0.0737  0.4664  0.2612
  786MOL0     C 3622   6.589   8.584   8.351  1.3762  0.1593 -0.0778
  786MOL0     O 3623   6.542   8.472   8.293  0.2688  0.1450  0.3675
  786MOL0     C 3624   6.435   8.474   8.204 -0.2028  0.5727  0.5156
  786MOL0     C 3625   6.420   8.558   8.094 -1.1281 -0.3834  0.7466
  786MOL0     C 3626   6.309   8.550   8.016 -0.2464  0.0033  0.0145
  786MOL0     C 3627   6.211   8.450   8.042 -0.6153 -0.0219 -0.6040
  786MOL0     O 3628   6.101   8.431   7.968  0.8606  0.0387 -0.0425
  786MOL0     C 3629   6.078   8.510   7.846  0.2653  0.5133 -0.6498
  786MOL0     C 3630   5.921   8.490   7.819 -0.8474 -0.9765 -0.2434
  786MOL0     C 3631   5.873   8.341   7.806 -0.6811  0.0277 -0.0908
  786MOL0     C 3632   5.955   8.259   7.702  0.5518  0.2354  1.2578
  786MOL0     C 3633   5.944   8.313   7.560  0.0916  1.5544 -0.1326
  786MOL0     C 3634   6.024   8.224   7.454 -0.2248 -1.7127 -0.1959
  786MOL0     C 3635   6.007   8.312   7.319  0.9648 -0.1327  0.2060
  786MOL0     C 3636   6.109   8.279   7.220 -1.1830 -0.3665  0.3781
  786MOL0     N 3637   6.076   8.320   7.083  0.6338  0.0585 -0.0234
  786MOL0     C 3638   6.117   8.417   7.001 -0.7142  0.3260  0.3053
  786MOL0     C 3639   6.046   8.404   6.881 -0.4433  0.3004 -0.3106
  786MOL0     C 3640   6.082   8.501   6.768  0.8613 -0.9326 -0.2983
  786MOL0     C 3641   6.014   8.452   6.630 -0.7796 -0.3873  0.2217
  786MOL0     C 3642   5.974   8.562   6.533  0.2395 -0.3998  0.7807
  786MOL0     C 3643   5.920   8.511   6.396  0.9741 -0.0887 -0.5477
  786MOL0     O 3644   5.936   8.619   6.290  0.6394  0.1064  0.1778
  786MOL0     C 3645   5.828   8.699   6.281 -0.0327  0.3796 -0.8154
  786MOL0     C 3646   5.823   8.757   6.149  0.3331  0.1492  0.7107
  786MOL0     C 3647   5.717   8.836   6.115 -0.9400  0.2523  0.2841
  786MOL0     C 3648   5.611   8.869   6.206  1.6346 -0.0510  0.0471
  786MOL0     C 3649   5.493   8.956   6.168 -0.7578 -0.7056 -0.0946
  786MOL0     O 3650   5.499   9.003   6.040 -0.8451 -0.1554 -0.3636
  786MOL0     C 3651   5.386   9.060   5.989 -0.8366  0.4053 -0.4821
  786MOL0     C 3652   5.263   8.986   5.971  0.2388 -0.2261 -0.2439
  786MOL0     C 3653   5.149   9.054   5.912  0.8568 -0.9220 -0.3824
  786MOL0     C 3654   5.163   9.191   5.873  0.0081  0.5501 -0.3493
  786MOL0     O 3655   5.056   9.263   5.831 -0.4256 -0.0714  0.2856
  786MOL0     C 3656   5.056   9.268   5.685  0.3950  0.0306  0.3825
  786MOL0     C 3657   4.936   9.343   5.628  0.9261 -0.3373 -0.3162
  786MOL0     C 3658   4.809   9.281   5.691 -0.6033  0.3634  0.2615
  786MOL0     C 3659   4.797   9.134   5.688  0.5034 -0.2624 -0.0665
  786MOL0     C 3660   4.641   9.104   5.727 -0.2408  0.5866 -0.4229
  786MOL0     C 3661   4.593   9.160   5.867 -0.7573  0.2955 -0.8183
  786MOL0     C 3662   4.673   9.108   5.989  0.1985  0.4121  0.7437
  786MOL0     C 3663   4.662   8.957   6.010 -1.0523  1.0288  0.6979
  786MOL0    Cl 3664   4.783   8.864   5.911 -0.1558 -0.6015 -0.3304
  786MOL0     C 3665   5.280   9.257   5.913  0.8475 -0.3338 -0.9918
  786MOL0     C 3666   5.386   9.197   5.974 -0.2511  0.1242  0.0411
  786MOL0     O 3667   5.400   8.956   6.244 -0.0172 -0.1057  0.3192
  786MOL0     C 3668   5.626   8.819   6.338  1.0369 -0.3314 -0.0847
  786MOL0     C 3669   5.722   8.728   6.373  0.0323  0.4198  0.9944
  786MOL0     N 3670   5.953   8.300   6.893 -0.6934 -0.3440 -0.6300
  786MOL0     N 3671   5.976   8.247   7.014 -0.6034 -0.3216 -0.0848
  786MOL0     C 3672   6.219   8.361   8.150 -0.5394  0.3868  0.5264
  786MOL0     C 3673   6.332   8.381   8.227 -1.2295  0.4481  0.4692
  786MOL0     C 3674   6.702   8.570   8.450 -0.0678 -0.2603 -0.0653
  786MOL0     C 3675   6.819   8.487   8.435 -0.3326 -0.6029  0.0896
  786MOL0     C 3676   6.919   8.470   8.528 -0.4602 -0.1378  0.6705
  786MOL0     C 3677   6.909   8.547   8.650 -0.0173 -0.1022  0.8858
  786MOL0     O 3678   7.000   8.541   8.754 -0.3297 -0.3407 -0.0036
  786MOL0     C 3679   7.122   8.467   8.731  0.9284 -1.4249 -0.4335
  786MOL0     C 3680   7.209   8.465   8.861 -0.6862 -0.5120  1.1039
  786MOL0     C 3681   7.154   8.370   8.964  1.0405  0.5903 -0.1608
  786MOL0     C 3682   7.266   8.302   9.050 -0.3681  0.4423  0.2599
  786MOL0     C 3683   7.292   8.390   9.159  0.2040 -0.5999 -0.0928
  786MOL0     C 3684   7.327   8.455   9.253 -0.6068 -0.6258 -0.3438
  786MOL0     C 3685   6.795   8.628   8.669 -1.1067  0.3501 -0.3445
  786MOL0     C 3686   6.706   8.647   8.567 -0.2184  0.1852 -0.7701
  786MOL0     H 3687   6.497   8.634   8.091 -0.4131 -1.0341 -2.9782
  786MOL0     H 3688   6.280   8.620   7.939 -5.0967  2.2038  3.3242
  786MOL0     H 3689   6.141   8.481   7.761 -2.4742 -1.6289 -2.1146
  786MOL0     H 3690   6.097   8.616   7.863 -2.8925  1.0106  0.4043
  786MOL0     H 3691   5.896   8.544   7.727 -1.0149 -0.4498  0.1087
  786MOL0     H 3692   5.870   8.540   7.903 -0.0741  0.2396 -0.4731
  786MOL0     H 3693   5.770   8.342   7.769 -0.8618  2.0449  0.3610
  786MOL0     H 3694   5.877   8.290   7.903  2.6582 -0.2196 -0.2387
  786MOL0     H 3695   6.060   8.260   7.733  1.0878 -2.4436 -0.1625
  786MOL0     H 3696   5.911   8.159   7.705 -2.8351  1.5282  0.0688
  786MOL0     H 3697   5.967   8.420   7.560  0.1623  1.5457 -0.8668
  786MOL0     H 3698   5.840   8.299   7.532  0.6886  0.6862 -2.1267
  786MOL0     H 3699   5.985   8.122   7.453 -0.8546 -1.5141  1.3424
  786MOL0     H 3700   6.129   8.223   7.484 -0.4162  2.2413  1.2210
  786MOL0     H 3701   5.907   8.291   7.281  1.5307 -2.4801 -0.1659
  786MOL0     H 3702   6.005   8.415   7.354  1.3397 -0.1742  0.3638
  786MOL0     H 3703   6.116   8.171   7.204  0.8199 -0.6460  2.4719
  786MOL0     H 3704   6.213   8.303   7.248 -1.8945  1.0848  1.9610
  786MOL0     H 3705   6.198   8.484   7.028 -0.4821  0.2717 -0.2482
  786MOL0     H 3706   6.190   8.503   6.754  0.7616 -0.5060 -1.0701
  786MOL0     H 3707   6.043   8.598   6.801  2.6265 -1.7715  5.2425
  786MOL0     H 3708   5.919   8.398   6.639 -0.7157 -0.3055  1.6335
  786MOL0     H 3709   6.087   8.392   6.576  1.1498  1.6207  0.4679
  786MOL0     H 3710   5.894   8.617   6.584 -2.0474 -3.4217  0.7627
  786MOL0     H 3711   6.065   8.617   6.509  1.2520 -2.2366  0.2433
  786MOL0     H 3712   5.813   8.495   6.415  1.0780 -1.3417 -0.8822
  786MOL0     H 3713   5.964   8.415   6.366 -1.1790 -0.8344 -1.5386
  786MOL0     H 3714   5.897   8.739   6.072 -1.5717  1.5691 -1.5907
  786MOL0     H 3715   5.710   8.868   6.012  2.7959  1.5157  0.2773
  786MOL0     H 3716   5.256   8.879   5.983  1.8650 -0.3370 -0.1005
  786MOL0     H 3717   5.050   9.013   5.895  0.0062  1.6418 -2.1460
  786MOL0     H 3718   5.052   9.166   5.647 -1.4580 -0.5101  1.8308
  786MOL0     H 3719   5.148   9.309   5.644  1.6267 -0.7534  2.2035
  786MOL0     H 3720   4.926   9.327   5.520  0.1487  0.4338 -0.3665
  786MOL0     H 3721   4.943   9.450   5.646 -2.2919  0.0659 -0.8093
  786MOL0     H 3722   4.716   9.320   5.648 -1.8932  0.0144  2.5796
  786MOL0     H 3723   4.805   9.321   5.792 -2.5154  0.9997 -0.0174
  786MOL0     H 3724   4.809   9.103   5.584 -3.4151  2.7795 -1.6911
  786MOL0     H 3725   4.856   9.077   5.760 -1.1503 -1.8257  0.1385
  786MOL0     H 3726   4.623   8.996   5.722 -3.0127  0.9218  0.3989
  786MOL0     H 3727   4.581   9.152   5.650  0.3926  4.3952  1.2410
  786MOL0     H 3728   4.489   9.129   5.879 -0.0526 -2.9516 -2.0262
  786MOL0     H 3729   4.595   9.269   5.865  1.5388  0.3017 -0.7767
  786MOL0     H 3730   4.779   9.137   5.987  1.1387 -2.6453  1.1261
  786MOL0     H 3731   4.630   9.155   6.077 -0.0684 -1.0269  1.4156
  786MOL0     H 3732   4.566   8.921   5.971  0.2881 -1.6023 -0.4372
  786MOL0     H 3733   4.671   8.927   6.115 -4.8612  0.8396  1.1139
  786MOL0     H 3734   5.278   9.364   5.894 -1.5288 -0.5516 -2.3885
  786MOL0     H 3735   5.479   9.250   5.988 -0.0398 -0.4029  0.6819
  786MOL0     H 3736   5.542   8.841   6.404 -0.4777 -1.1027 -1.6865
  786MOL0     H 3737   5.726   8.688   6.474  1.3121  0.9953  1.1885
  786MOL0     H 3738   6.143   8.287   8.172 -0.7611  0.4892  0.1174
  786MOL0     H 3739   6.359   8.307   8.302  0.6749 -0.7843 -1.3383
  786MOL0     H 3740   6.839   8.438   8.340  0.7103  3.4141 -1.9914
  786MOL0     H 3741   7.006   8.407   8.513  0.9766  0.7446  4.3018
  786MOL0     H 3742   7.189   8.500   8.651 -0.4903 -0.3915 -1.2474
  786MOL0     H 3743   7.091   8.363   8.713 -2.9806 -0.5595  0.3764
  786MOL0     H 3744   7.299   8.419   8.818  1.4155  2.9444  1.4176
  786MOL0     H 3745   7.238   8.565   8.894  1.3959  0.5599 -3.2565
  786MOL0     H 3746   7.095   8.297   8.908  1.1817  1.7984 -1.9904
  786MOL0     H 3747   7.089   8.422   9.035  0.7007 -0.2116  0.1352
  786MOL0     H 3748   7.227   8.211   9.097  0.2772  0.5723  1.0699
  786MOL0     H 3749   7.352   8.260   8.996  0.3905  1.8243  0.3506
  786MOL0     H 3750   7.375   8.507   9.334 -1.5139 -0.5963  0.1875
  786MOL0     H 3751   6.798   8.684   8.762  2.9183 -1.6458  0.9654
  786MOL0     H 3752   6.631   8.722   8.588  1.2710  0.9026  2.6249
  787MOL0     O 3753   4.749  10.360  10.119 -1.1092  0.0567 -0.0903
  787MOL0     C 3754   4.827  10.377  10.212 -0.2546 -0.3482  0.2175
  787MOL0     O 3755   4.944  10.439  10.210  0.3276  0.6492  0.7251
  787MOL0     C 3756   4.977  10.527  10.107 -1.0163  0.2021 -0.2600
  787MOL0     C 3757   5.110  10.564  10.100 -0.4987  0.1099  0.8126
  787MOL0     C 3758   5.146  10.663  10.003 -0.3213 -1.0046 -0.4626
  787MOL0     C 3759   5.056  10.744   9.947  0.2182 -0.0115 -0.8758
  787MOL0     O 3760   5.099  10.853   9.878 -0.0705 -0.4076  0.8532
  787MOL0     C 3761   5.015  10.949   9.832 -0.5709 -0.1329 -0.1708
  787MOL0     C 3762   4.964  11.036   9.941 -0.0454  0.4088 -0.2621
  787MOL0     C 3763   4.835  11.117   9.907 -0.0560  0.5519 -0.8875
  787MOL0     C 3764   4.828  11.154   9.760 -0.1327  0.4738 -0.7627
  787MOL0     C 3765   4.714  11.245   9.726  0.2313  0.8264 -0.1639
  787MOL0     C 3766   4.755  11.382   9.696 -1.3334 -0.5352 -1.4685
  787MOL0     C 3767   4.660  11.456   9.614 -0.3495 -0.7930  0.5235
  787MOL0     C 3768   4.691  11.603   9.575 -0.2305 -0.3945 -0.5968
  787MOL0     N 3769   4.589  11.645   9.481 -0.0567 -0.7124  0.9753
  787MOL0     C 3770   4.457  11.678   9.501 -0.4839  0.7316 -0.3591
  787MOL0     C 3771   4.402  11.722   9.378  0.4531  1.5719 -0.2077
  787MOL0     C 3772   4.262  11.768   9.348  0.0811  0.3677 -0.7411
  787MOL0     C 3773   4.240  11.839   9.210  0.1269 -0.1829 -0.1657
  787MOL0     C 3774   4.315  11.974   9.193 -0.3387 -0.4755  0.1263
  787MOL0     C 3775   4.222  12.092   9.202  0.1341 -0.0069  0.1264
  787MOL0     O 3776   4.113  12.083   9.103  0.2482  0.1312  0.0209
  787MOL0     C 3777   4.001  12.156   9.116  0.1902 -0.2895  0.2792
  787MOL0     C 3778   4.013  12.280   9.177  0.2347 -0.4176 -1.0617
  787MOL0     C 3779   3.901  12.367   9.175 -0.3024 -0.7287  0.7328
  787MOL0     C 3780   3.785  12.330   9.104 -0.9668  0.1593 -1.3017
  787MOL0     C 3781   3.680  12.432   9.100  0.7670 -0.1691 -0.0435
  787MOL0     O 3782   3.691  12.549   9.164 -0.9305 -0.5929  0.2238
  787MOL0     C 3783   3.584  12.627   9.143  0.3876 -0.6531  0.1975
  787MOL0     C 3784   3.499  12.639   9.250 -0.5583  0.0630 -0.5382
  787MOL0     C 3785   3.374  12.704   9.254 -0.5365  0.2692  0.6995
  787MOL0     C 3786   3.331  12.767   9.133 -0.0784 -0.2797 -0.6580
  787MOL0     O 3787   3.220  12.848   9.122  0.2813  0.4115  1.1036
  787MOL0     C 3788   3.127  12.837   9.233 -0.4482  0.0835 -0.4994
  787MOL0     C 3789   2.998  12.915   9.212 -0.1311  0.4958 -0.4564
  787MOL0     C 3790   3.019  13.067   9.182 -0.5215  0.2553  0.7347
  787MOL0     C 3791   2.897  13.139   9.129  0.2291 -0.1116  0.4564
  787MOL0     C 3792   2.785  13.135   9.230 -0.3485 -0.0295  0.2353
  787MOL0     C 3793   2.684  13.242   9.191  0.5750  0.0338 -0.7731
  787MOL0     C 3794   2.618  13.315   9.312 -0.8208 -0.4680  0.9075
  787MOL0     C 3795   2.498  13.249   9.365  0.5566  0.2670  0.0130
  787MOL0    Cl 3796   2.525  13.069   9.394 -0.6463  0.2506 -0.1328
  787MOL0     C 3797   3.420  12.760   9.028  0.0930 -0.0056  0.4885
  787MOL0     C 3798   3.541  12.692   9.024 -0.0414 -0.7108 -0.8639
  787MOL0     O 3799   3.590  12.393   9.016  0.2048 -0.3277  0.3893
  787MOL0     C 3800   3.771  12.198   9.048 -0.0060  0.2999  0.8688
  787MOL0     C 3801   3.885  12.119   9.049  0.5939 -0.8952 -0.2818
  787MOL0     N 3802   4.502  11.699   9.290  0.5532  0.1842  0.2451
  787MOL0     N 3803   4.609  11.649   9.339 -0.0885  0.5461 -0.6442
  787MOL0     C 3804   4.919  10.714   9.958  0.0388  0.0574 -0.4646
  787MOL0     C 3805   4.878  10.603  10.035  0.1057  0.2643 -0.0065
  787MOL0     C 3806   4.812  10.294  10.342 -0.5094 -0.2495  0.9394
  787MOL0     C 3807   4.906  10.309  10.448 -0.8313  0.2819 -0.3134
  787MOL0     C 3808   4.896  10.224  10.560 -0.0091 -0.8484 -0.0789
  787MOL0     C 3809   4.812  10.115  10.565 -0.8554 -0.2208 -0.2056
  787MOL0     O 3810   4.819  10.027  10.673 -0.1976  0.7332  0.0828
  787MOL0     C 3811   4.948   9.959  10.692 -0.0849  0.7298 -0.8475
  787MOL0     C 3812   5.007   9.981  10.835  0.4029  0.6233  0.5201
  787MOL0     C 3813   4.928   9.894  10.942 -0.2371 -0.7264  0.7686
  787MOL0     C 3814   4.999   9.901  11.072 -0.2241 -0.3679 -0.6923
  787MOL0     C 3815   4.905   9.849  11.177 -0.6491  0.2376  0.7435
  787MOL0     C 3816   4.841   9.814  11.277 -0.4739  0.7614 -1.0091
  787MOL0     C 3817   4.709  10.104  10.471  0.4676  1.7340  1.0472
  787MOL0     C 3818   4.715  10.185  10.353  0.9605  0.1339 -0.5052
  787MOL0     H 3819   5.178  10.522  10.173 -1.0345 -0.1585  1.1653
  787MOL0     H 3820   5.250  10.689   9.988 -0.5499  0.6033  0.5759
  787MOL0     H 3821   4.938  10.898   9.773  2.6279 -6.0349  0.0336
  787MOL0     H 3822   5.058  11.021   9.762 -0.1565  0.7129  0.9334
  787MOL0     H 3823   5.037  11.113   9.967  1.0167  0.1964 -2.4198
  787MOL0     H 3824   4.940  10.983  10.034  4.6157  0.2462  1.1167
  787MOL0     H 3825   4.837  11.208   9.967  3.6981  0.1918 -0.2699
  787MOL0     H 3826   4.748  11.056   9.934  0.3707 -0.7240 -2.2309
  787MOL0     H 3827   4.925  11.188   9.722  0.4172 -3.2841 -3.2715
  787MOL0     H 3828   4.810  11.066   9.698 -0.6773 -0.2631  0.4138
  787MOL0     H 3829   4.649  11.239   9.814  0.5560  1.4583  0.1238
  787MOL0     H 3830   4.676  11.208   9.630  2.9011  1.5230 -1.5941
  787MOL0     H 3831   4.841  11.361   9.633 -1.2690  1.9440 -2.3090
  787MOL0     H 3832   4.777  11.444   9.784 -2.5702 -1.4563 -0.4609
  787MOL0     H 3833   4.647  11.403   9.519 -1.7366  1.5278 -0.6930
  787MOL0     H 3834   4.569  11.438   9.673 -1.3706 -0.7164 -0.9711
  787MOL0     H 3835   4.791  11.612   9.533  0.7366 -0.2116  1.6140
  787MOL0     H 3836   4.698  11.665   9.666 -3.1969 -1.7382  0.6849
  787MOL0     H 3837   4.390  11.674   9.586  0.8354 -1.2048  0.6613
  787MOL0     H 3838   4.231  11.831   9.432 -0.1068  0.4939 -0.9032
  787MOL0     H 3839   4.184  11.692   9.341 -0.8560  1.2987 -0.5842
  787MOL0     H 3840   4.134  11.858   9.196  0.2472 -0.1080 -1.0280
  787MOL0     H 3841   4.263  11.767   9.131  2.6927  0.0470  0.2776
  787MOL0     H 3842   4.386  11.975   9.276  2.7012 -1.3785 -2.2729
  787MOL0     H 3843   4.366  11.972   9.097  0.8103  1.7933  0.6206
  787MOL0     H 3844   4.280  12.184   9.189 -4.5942  3.1495 -1.1088
  787MOL0     H 3845   4.180  12.091   9.303  1.6026  0.8294  0.7720
  787MOL0     H 3846   4.113  12.312   9.202  1.8607 -2.5322 -4.1690
  787MOL0     H 3847   3.915  12.456   9.235  0.1209  0.7362 -1.3924
  787MOL0     H 3848   3.525  12.589   9.343  1.8067  1.6720 -0.2548
  787MOL0     H 3849   3.316  12.709   9.345 -0.0797  1.7643  0.9398
  787MOL0     H 3850   3.176  12.866   9.327  0.3952 -5.7396  1.2562
  787MOL0     H 3851   3.102  12.731   9.241  2.7197 -0.7237 -0.0002
  787MOL0     H 3852   2.941  12.907   9.305  1.0896  0.0170  0.2746
  787MOL0     H 3853   2.935  12.861   9.140 -0.2985  0.3019 -0.1663
  787MOL0     H 3854   3.104  13.063   9.112 -0.7626 -1.3959  0.4845
  787MOL0     H 3855   3.047  13.117   9.275  2.2850 -0.1163  0.1889
  787MOL0     H 3856   2.937  13.240   9.120 -2.1284  0.7149 -1.6555
  787MOL0     H 3857   2.882  13.099   9.029  1.9602  0.0630  0.0897
  787MOL0     H 3858   2.840  13.158   9.322  2.8004  1.8440 -1.9202
  787MOL0     H 3859   2.740  13.036   9.230  0.1969 -0.3099  2.1881
  787MOL0     H 3860   2.609  13.191   9.130  1.3729  0.5333 -2.2303
  787MOL0     H 3861   2.728  13.312   9.119  1.8607 -2.6385 -2.7485
  787MOL0     H 3862   2.695  13.312   9.390  0.2449  2.6036  0.1110
  787MOL0     H 3863   2.588  13.419   9.293 -2.6265 -1.4946 -2.7753
  787MOL0     H 3864   2.415  13.259   9.294  2.1958  1.5847 -1.8270
  787MOL0     H 3865   2.465  13.306   9.452 -1.7098  1.2005 -1.3664
  787MOL0     H 3866   3.399  12.795   8.927  0.7877  1.1123  0.7132
  787MOL0     H 3867   3.610  12.696   8.940 -1.3748  0.6208 -1.9358
  787MOL0     H 3868   3.681  12.163   8.997  1.6034  1.9864 -3.5872
  787MOL0     H 3869   3.887  12.030   8.988 -1.6475  0.7587 -3.0190
  787MOL0     H 3870   4.846  10.783   9.916 -1.9629 -0.8391  1.3437
  787MOL0     H 3871   4.772  10.581  10.040 -0.2754  2.1385  0.6859
  787MOL0     H 3872   4.970  10.397  10.442 -2.6121  1.5524 -1.6894
  787MOL0     H 3873   4.966  10.238  10.642 -2.4883  0.2671  1.9916
  787MOL0     H 3874   5.021   9.995  10.619  2.3563  1.3506  1.7201
  787MOL0     H 3875   4.927   9.852  10.679  3.4193 -0.0577 -1.2668
  787MOL0     H 3876   5.113   9.954  10.836  0.2933  0.1932  0.7640
  787MOL0     H 3877   5.009  10.087  10.860  1.8264  1.0970 -1.4245
  787MOL0     H 3878   4.916   9.790  10.913  0.5029 -1.2807  2.3240
  787MOL0     H 3879   4.825   9.928  10.955 -0.0905  1.6007 -2.7617
  787MOL0     H 3880   5.093   9.845  11.080 -1.0501 -1.6468  0.3217
  787MOL0     H 3881   5.018  10.007  11.092  0.0545 -1.0550  3.5561
  787MOL0     H 3882   4.786   9.772  11.359 -1.6692  0.4882 -1.9372
  787MOL0     H 3883   4.634  10.027  10.484  0.7283  1.3826  0.4910
  787MOL0     H 3884   4.643  10.172  10.272  1.3810 -1.8822 -0.6204
  788MOL0     O 3885   0.419   2.834   9.774 -0.7196  0.6672 -0.6089
  788MOL0     C 3886   0.541   2.855   9.806  0.3325 -0.2786 -0.2882
  788MOL0     O 3887   0.632   2.929   9.732  0.2728  0.0475 -0.1142
  788MOL0     C 3888   0.590   2.994   9.623 -0.8263  0.4391 -0.0476
  788MOL0     C 3889   0.528   2.935   9.510 -0.8509  0.1230 -0.3534
  788MOL0     C 3890   0.498   3.010   9.395  0.7228  0.8075 -0.1155
  788MOL0     C 3891   0.535   3.151   9.391  0.2745 -0.1219 -0.7164
  788MOL0     O 3892   0.530   3.216   9.270  0.2642  0.4957  0.1586
  788MOL0     C 3893   0.417   3.198   9.182  0.9066 -0.5521  0.2281
  788MOL0     C 3894   0.363   3.338   9.134 -0.4834 -0.6994 -0.5004
  788MOL0     C 3895   0.287   3.416   9.236  0.6924  0.2395 -0.7876
  788MOL0     C 3896   0.256   3.546   9.167 -0.2430  0.2383 -0.8009
  788MOL0     C 3897   0.121   3.532   9.078  0.1775 -0.6899 -0.6333
  788MOL0     C 3898   0.057   3.669   9.092  0.1094  0.6654  0.1234
  788MOL0     C 3899   0.138   3.779   9.019  0.2509 -0.1014  0.5364
  788MOL0     C 3900   0.135   3.912   9.094  0.1661  0.6199 -0.1723
  788MOL0     N 3901   0.154   4.035   9.024  0.2540 -0.9320  1.0363
  788MOL0     C 3902   0.199   4.157   9.080 -0.5188 -0.2039 -0.7489
  788MOL0     C 3903   0.218   4.248   8.981  0.6107  0.5610  0.3047
  788MOL0     C 3904   0.261   4.391   8.983  1.0569 -0.2355 -0.3458
  788MOL0     C 3905   0.200   4.462   9.096 -0.3858 -0.6247  1.0358
  788MOL0     C 3906   0.047   4.456   9.116 -0.1214 -0.2132  0.4678
  788MOL0     C 3907  -0.007   4.574   9.202 -0.3023  0.3515 -0.5380
  788MOL0     O 3908   0.080   4.604   9.307 -0.0930 -0.8587 -0.6648
  788MOL0     C 3909   0.069   4.541   9.429  1.0638  0.2867  0.2287
  788MOL0     C 3910   0.063   4.410   9.443 -0.6613  0.6744 -0.4909
  788MOL0     C 3911   0.038   4.348   9.570 -0.2274 -0.2630 -0.2417
  788MOL0     C 3912   0.023   4.432   9.687 -0.7708  1.1120 -0.4590
  788MOL0     C 3913  -0.016   4.381   9.819 -0.8107 -1.2325  0.1545
  788MOL0     O 3914   0.011   4.250   9.830 -0.0558 -0.2598  0.0223
  788MOL0     C 3915  -0.001   4.178   9.947 -0.4669  0.6815  0.3083
  788MOL0     C 3916  -0.102   4.208  10.047 -0.6462 -1.1435  0.1734
  788MOL0     C 3917  -0.102   4.140  10.164 -0.0499  0.6617 -0.8870
  788MOL0     C 3918  -0.021   4.028  10.178  1.2686 -0.4608 -0.3887
  788MOL0     O 3919  -0.038   3.946  10.291  0.3432 -0.2346  0.0447
  788MOL0     C 3920  -0.063   4.022  10.420  0.8520  0.1640  0.4342
  788MOL0     C 3921  -0.056   3.934  10.547 -1.5468  0.1517  0.2936
  788MOL0     C 3922   0.086   3.901  10.578  0.2612 -0.3752 -0.2892
  788MOL0     C 3923   0.088   3.877  10.729  0.1517 -0.1329  0.1434
  788MOL0     C 3924   0.225   3.834  10.774 -0.7518 -1.0787  0.2401
  788MOL0     C 3925   0.227   3.773  10.914 -0.5632 -0.7323 -0.6218
  788MOL0     C 3926   0.365   3.727  10.924 -0.8320 -0.5879 -0.2383
  788MOL0     C 3927   0.356   3.635  11.045  0.1235 -0.8269 -0.6894
  788MOL0    Cl 3928   0.524   3.555  11.064 -0.2726 -0.0350 -0.5123
  788MOL0     C 3929   0.073   3.990  10.083  0.1450 -0.9641 -0.1739
  788MOL0     C 3930   0.090   4.074   9.973  0.5380 -0.0745  0.0104
  788MOL0     O 3931  -0.070   4.459   9.895  0.0226  0.2734 -0.8399
  788MOL0     C 3932   0.035   4.564   9.666 -0.1396 -0.0089 -0.3342
  788MOL0     C 3933   0.072   4.615   9.542 -0.7110 -0.7907  0.6486
  788MOL0     N 3934   0.181   4.174   8.870  0.1627 -0.3758  0.3734
  788MOL0     N 3935   0.144   4.053   8.895 -0.3227 -0.7163  0.4671
  788MOL0     C 3936   0.602   3.206   9.506  0.3302  0.1367  0.1788
  788MOL0     C 3937   0.633   3.125   9.614  0.3278  0.3624 -0.2736
  788MOL0     C 3938   0.607   2.776   9.913  1.0226  1.3881  0.6455
  788MOL0     C 3939   0.516   2.693   9.993 -0.8211 -0.8497 -0.1008
  788MOL0     C 3940   0.567   2.605  10.089 -0.4783  0.6751 -1.2367
  788MOL0     C 3941   0.709   2.583  10.104  0.4694  0.6902 -1.4058
  788MOL0     O 3942   0.783   2.510  10.195 -0.2647 -0.0432 -0.3624
  788MOL0     C 3943   0.716   2.392  10.247  0.1275  0.4040 -0.3010
  788MOL0     C 3944   0.628   2.437  10.366  0.8291  0.4145 -0.0506
  788MOL0     C 3945   0.708   2.456  10.488  0.5512 -1.5344  0.8026
  788MOL0     C 3946   0.641   2.525  10.610 -0.0196  0.2786  0.0811
  788MOL0     C 3947   0.751   2.560  10.702 -0.4085  0.6794 -0.6806
  788MOL0     C 3948   0.826   2.604  10.790 -0.1203  1.5289  0.4544
  788MOL0     C 3949   0.789   2.654  10.015 -1.0314  0.2677 -0.5166
  788MOL0     C 3950   0.741   2.753   9.934 -0.7765  0.2075  0.7309
  788MOL0     H 3951   0.506   2.829   9.514  2.5117 -0.6750 -0.4017
  788MOL0     H 3952   0.456   2.954   9.312  2.0980 -1.6652  0.7384
  788MOL0     H 3953   0.337   3.144   9.234 -1.5839  2.4099 -0.2339
  788MOL0     H 3954   0.446   3.144   9.092  1.7995  0.0603  0.1384
  788MOL0     H 3955   0.292   3.308   9.056 -3.0774 -0.5133  1.6583
  788MOL0     H 3956   0.450   3.397   9.103  0.4948 -0.6643  2.1092
  788MOL0     H 3957   0.339   3.424   9.331  3.9762 -4.6640 -1.8078
  788MOL0     H 3958   0.189   3.373   9.261  0.3649  1.9758  1.0878
  788MOL0     H 3959   0.239   3.617   9.248  0.7187 -0.3038 -0.1033
  788MOL0     H 3960   0.334   3.589   9.104 -0.5222 -0.7689 -1.8709
  788MOL0     H 3961   0.057   3.453   9.121  0.9654  0.7290  3.6715
  788MOL0     H 3962   0.149   3.503   8.977  0.5182 -1.2124 -0.3972
  788MOL0     H 3963   0.052   3.697   9.198 -0.7903  0.6905  0.0863
  788MOL0     H 3964  -0.043   3.663   9.049  0.2573 -1.5714 -0.0372
  788MOL0     H 3965   0.242   3.752   8.997 -0.0163  1.3217 -3.0280
  788MOL0     H 3966   0.099   3.791   8.918 -1.2139  1.4890  1.2507
  788MOL0     H 3967   0.201   3.910   9.181 -2.8975 -0.2326  2.3297
  788MOL0     H 3968   0.037   3.930   9.140  1.4192  1.4792  2.3701
  788MOL0     H 3969   0.227   4.178   9.183  1.1104  1.5588 -1.4914
  788MOL0     H 3970   0.230   4.434   8.887  2.2818  2.7269  0.4777
  788MOL0     H 3971   0.370   4.381   8.975  0.7907 -1.7385 -4.4108
  788MOL0     H 3972   0.231   4.565   9.076 -0.6098 -0.6479  0.5643
  788MOL0     H 3973   0.247   4.443   9.193  1.2126  0.8365  0.6036
  788MOL0     H 3974   0.003   4.464   9.016 -0.6576 -1.1919  0.6102
  788MOL0     H 3975   0.013   4.359   9.155 -3.1004  0.6557  0.3045
  788MOL0     H 3976  -0.109   4.562   9.239  1.1080  1.7878  4.5067
  788MOL0     H 3977  -0.004   4.665   9.141 -1.2112  1.8517  1.5441
  788MOL0     H 3978   0.057   4.337   9.363 -1.2773  0.5058 -0.2931
  788MOL0     H 3979   0.040   4.242   9.592  1.1160 -0.0168  1.0328
  788MOL0     H 3980  -0.179   4.280  10.021 -1.0562 -2.5744 -3.2348
  788MOL0     H 3981  -0.172   4.171  10.241  0.0582 -1.9641  0.3762
  788MOL0     H 3982  -0.162   4.066  10.435  1.6092  1.6011  1.4546
  788MOL0     H 3983   0.013   4.100  10.428 -1.6435  2.9837 -1.2437
  788MOL0     H 3984  -0.116   3.843  10.534 -4.5242  2.1084 -0.8853
  788MOL0     H 3985  -0.112   4.001  10.613  0.1751  1.8553  0.1031
  788MOL0     H 3986   0.146   3.990  10.555  0.7255 -0.6584 -0.1973
  788MOL0     H 3987   0.126   3.818  10.519 -0.4418 -0.7712 -0.2189
  788MOL0     H 3988   0.048   3.969  10.773 -1.7863  1.4255 -4.3065
  788MOL0     H 3989   0.016   3.797  10.748  0.7614 -0.6639  0.2629
  788MOL0     H 3990   0.285   3.926  10.776 -2.1440 -0.0975 -0.6078
  788MOL0     H 3991   0.265   3.770  10.696 -2.1845  1.4477 -2.7883
  788MOL0     H 3992   0.145   3.701  10.913 -1.7571  0.5036  1.3586
  788MOL0     H 3993   0.218   3.848  10.993 -1.9192  0.0808 -1.5111
  788MOL0     H 3994   0.382   3.657  10.841  0.1454  0.5167 -0.9940
  788MOL0     H 3995   0.437   3.808  10.934 -1.4125 -0.0694 -0.2226
  788MOL0     H 3996   0.281   3.555  11.047 -2.3344  1.3450  0.3199
  788MOL0     H 3997   0.332   3.693  11.135 -1.2385 -2.1953 -0.1181
  788MOL0     H 3998   0.139   3.905  10.097  3.9146  1.6366 -0.6818
  788MOL0     H 3999   0.176   4.053   9.909  1.3060 -0.8278  1.2586
  788MOL0     H 4000   0.016   4.639   9.743  0.0757  2.6769 -2.7052
  788MOL0     H 4001   0.092   4.721   9.525 -0.4315 -0.8973  0.3083
  788MOL0     H 4002   0.639   3.307   9.496 -2.0431  0.9980 -0.5518
  788MOL0     H 4003   0.700   3.168   9.688  1.4314  0.8869 -1.5305
  788MOL0     H 4004   0.409   2.701  10.007 -0.8097 -1.6995  0.5782
  788MOL0     H 4005   0.503   2.539  10.147  0.4032  0.4323 -0.5181
  788MOL0     H 4006   0.786   2.323  10.294  0.0376 -1.7226 -3.0821
  788MOL0     H 4007   0.662   2.346  10.164 -0.7221  0.9167 -0.0584
  788MOL0     H 4008   0.565   2.523  10.340  0.3710 -0.4358 -1.8908
  788MOL0     H 4009   0.554   2.359  10.387 -0.4581  0.9281 -2.3431
  788MOL0     H 4010   0.774   2.538  10.458  0.4549 -0.9975  1.9901
  788MOL0     H 4011   0.758   2.364  10.519  0.4971 -2.3868 -1.4367
  788MOL0     H 4012   0.586   2.618  10.589 -0.4929  0.5136  2.2034
  788MOL0     H 4013   0.568   2.453  10.648 -0.5203  0.6344 -0.1896
  788MOL0     H 4014   0.900   2.644  10.857  2.3415  0.3132 -1.3512
  788MOL0     H 4015   0.897   2.647  10.023 -1.0152 -0.6953 -1.3656
  788MOL0     H 4016   0.802   2.816   9.870 -2.2235  1.6700  0.7440
  789MOL0     O 4017   6.138   7.713   7.501  0.5897 -0.4982 -0.7724
  789MOL0     C 4018   6.129   7.797   7.410 -0.5977  0.2228  0.7119
  789MOL0     O 4019   6.227   7.893   7.385  0.8509  0.4453  0.3592
  789MOL0     C 4020   6.352   7.895   7.449  0.4144 -0.1223 -0.0767
  789MOL0     C 4021   6.420   8.018   7.470  0.5575 -0.5643 -0.4152
  789MOL0     C 4022   6.553   8.023   7.520  0.5596 -1.0524  0.4465
  789MOL0     C 4023   6.632   7.900   7.544  0.0005 -1.3500 -0.1569
  789MOL0     O 4024   6.746   7.892   7.613 -0.0063 -0.7838  0.2842
  789MOL0     C 4025   6.841   7.994   7.571 -0.5361 -0.0596 -0.0220
  789MOL0     C 4026   6.913   7.988   7.429 -0.1490  0.9970 -0.4950
  789MOL0     C 4027   7.016   8.095   7.397  0.9431  0.1627 -0.2063
  789MOL0     C 4028   7.085   8.080   7.260 -0.5103  0.2493  0.9376
  789MOL0     C 4029   7.187   7.973   7.274 -0.3088  0.1984 -0.4071
  789MOL0     C 4030   7.263   7.953   7.147 -0.2212 -0.3343 -0.4532
  789MOL0     C 4031   7.376   7.852   7.164 -0.6116  0.7817 -0.6233
  789MOL0     C 4032   7.447   7.855   7.017 -0.9304  0.1292 -0.1272
  789MOL0     N 4033   7.355   7.829   6.895 -0.1816 -0.5140 -0.1637
  789MOL0     C 4034   7.361   7.923   6.796  0.6442 -0.8606  0.1889
  789MOL0     C 4035   7.274   7.877   6.706 -0.4733  0.3235 -0.2517
  789MOL0     C 4036   7.239   7.956   6.577 -0.6693 -0.6827  0.9420
  789MOL0     C 4037   7.150   8.069   6.605  0.4114 -0.8414 -0.3019
  789MOL0     C 4038   7.104   8.154   6.474  0.3112  0.5706  0.1152
  789MOL0     C 4039   7.067   8.290   6.524  1.3662 -0.0118 -0.5303
  789MOL0     O 4040   6.954   8.261   6.610  0.1280 -0.4474 -0.2561
  789MOL0     C 4041   6.941   8.344   6.723  0.0634 -0.1472 -0.2707
  789MOL0     C 4042   6.914   8.481   6.705 -0.4666 -0.7209  0.3356
  789MOL0     C 4043   6.908   8.570   6.814  0.4550  0.8076  0.1175
  789MOL0     C 4044   6.924   8.525   6.947  0.6589  0.1904  0.9705
  789MOL0     C 4045   6.932   8.638   7.041 -0.5972  0.8109 -0.2305
  789MOL0     O 4046   6.964   8.762   6.994 -0.4993 -0.0672 -0.0470
  789MOL0     C 4047   7.022   8.852   7.085 -0.5051  0.7174 -0.4715
  789MOL0     C 4048   7.152   8.899   7.059  0.4972  0.4796 -1.0640
  789MOL0     C 4049   7.206   8.993   7.148  0.6495  0.3712  0.2295
  789MOL0     C 4050   7.139   9.042   7.261 -0.4095 -0.0136 -0.7190
  789MOL0     O 4051   7.204   9.136   7.341 -0.3927  0.4047 -0.0321
  789MOL0     C 4052   7.174   9.160   7.481  0.4304 -0.0408 -0.3746
  789MOL0     C 4053   7.159   9.311   7.509 -0.7142 -0.3626  0.1171
  789MOL0     C 4054   7.042   9.369   7.428  0.2311  0.3710  1.0184
  789MOL0     C 4055   7.008   9.513   7.448  0.1260  0.4362 -0.0852
  789MOL0     C 4056   7.090   9.615   7.388 -0.6934  0.3192  0.3331
  789MOL0     C 4057   7.046   9.631   7.246 -0.8534 -0.7766  0.1999
  789MOL0     C 4058   7.129   9.720   7.152  0.1111 -0.1360 -0.3676
  789MOL0     C 4059   7.267   9.668   7.135 -0.2085  0.0680  0.3383
  789MOL0    Cl 4060   7.352   9.762   7.015 -0.5835  0.2133 -0.7868
  789MOL0     C 4061   7.005   9.002   7.279 -0.5408  0.2514  0.4962
  789MOL0     C 4062   6.946   8.914   7.190 -0.1965 -0.2976  0.5124
  789MOL0     O 4063   6.944   8.604   7.162  1.1254 -0.3076 -0.0991
  789MOL0     C 4064   6.945   8.389   6.973 -0.9958 -0.6392  0.0827
  789MOL0     C 4065   6.944   8.299   6.860 -0.6900  0.7033 -0.8977
  789MOL0     N 4066   7.220   7.751   6.745  0.2532  0.1981 -0.0721
  789MOL0     N 4067   7.276   7.723   6.861  0.3318  0.4542  0.0435
  789MOL0     C 4068   6.561   7.788   7.533  0.0395 -0.8274  0.7738
  789MOL0     C 4069   6.425   7.783   7.482 -0.4913  0.1940  0.1776
  789MOL0     C 4070   5.997   7.810   7.337 -0.4793  0.2427 -0.6029
  789MOL0     C 4071   5.890   7.720   7.365  0.3727 -0.3929  0.4062
  789MOL0     C 4072   5.776   7.724   7.280 -0.3310  0.0982  0.9781
  789MOL0     C 4073   5.763   7.817   7.176 -0.4172  0.7204 -0.8299
  789MOL0     O 4074   5.656   7.844   7.100  0.0189 -0.6029 -0.0928
  789MOL0     C 4075   5.543   7.753   7.089  0.6678 -0.1902 -0.6933
  789MOL0     C 4076   5.587   7.638   7.004 -0.0838  0.7540  0.0581
  789MOL0     C 4077   5.470   7.552   6.949 -0.3800  0.0127 -0.0446
  789MOL0     C 4078   5.505   7.402   6.920 -0.3989 -0.4294 -0.0547
  789MOL0     C 4079   5.566   7.324   7.028  0.6822 -0.4714 -0.0686
  789MOL0     C 4080   5.592   7.269   7.135 -0.8365 -0.6034  0.5858
  789MOL0     C 4081   5.873   7.901   7.160  0.3284  0.0880 -0.0975
  789MOL0     C 4082   5.981   7.909   7.239  0.2368 -1.0965  0.4910
  789MOL0     H 4083   6.361   8.109   7.463 -3.4040 -2.5553  2.7698
  789MOL0     H 4084   6.589   8.123   7.540 -2.4691  0.5284 -1.3892
  789MOL0     H 4085   6.911   7.993   7.655  0.3622 -3.5533 -0.6664
  789MOL0     H 4086   6.796   8.094   7.573 -1.4926 -0.4590 -0.7675
  789MOL0     H 4087   6.841   8.004   7.348  0.1485 -2.4094 -1.5933
  789MOL0     H 4088   6.974   7.897   7.423  0.8820  1.5244  1.2262
  789MOL0     H 4089   7.096   8.098   7.472  1.9903 -3.5041 -0.9720
  789MOL0     H 4090   6.959   8.188   7.401  1.3094  0.3563  1.4253
  789MOL0     H 4091   7.027   8.038   7.178  1.3604 -5.0838  1.9089
  789MOL0     H 4092   7.135   8.173   7.234  1.5204  1.0101  6.1560
  789MOL0     H 4093   7.128   7.883   7.292  0.1545 -0.3810 -1.6387
  789MOL0     H 4094   7.246   8.001   7.362 -2.9002 -1.8171  2.1630
  789MOL0     H 4095   7.308   8.049   7.123 -0.2174  0.1072  1.2442
  789MOL0     H 4096   7.197   7.924   7.064  0.4435 -2.2952 -0.3425
  789MOL0     H 4097   7.450   7.890   7.236 -1.5115  2.0850 -0.3602
  789MOL0     H 4098   7.343   7.757   7.208 -2.2773  1.1817 -0.9458
  789MOL0     H 4099   7.524   7.778   7.026 -1.3937 -0.3098  0.1466
  789MOL0     H 4100   7.500   7.950   7.008 -1.5195  0.3682 -1.3248
  789MOL0     H 4101   7.419   8.014   6.790  0.7921 -0.7830  2.1103
  789MOL0     H 4102   7.182   7.892   6.509 -0.1995  0.5149 -0.6517
  789MOL0     H 4103   7.324   7.994   6.519 -2.0209 -0.5530 -1.0591
  789MOL0     H 4104   7.211   8.136   6.666 -2.7126  3.2367 -1.1600
  789MOL0     H 4105   7.070   8.029   6.669 -1.5990  2.1401 -0.7059
  789MOL0     H 4106   7.191   8.146   6.408 -0.2968 -1.1819 -0.5484
  789MOL0     H 4107   7.022   8.107   6.419  2.3692  0.0649 -2.7369
  789MOL0     H 4108   7.035   8.361   6.447 -0.9357 -2.6391 -2.1749
  789MOL0     H 4109   7.147   8.337   6.582  0.6848 -1.0304  1.3074
  789MOL0     H 4110   6.896   8.509   6.601  0.4161  2.7128  0.9667
  789MOL0     H 4111   6.897   8.677   6.800  1.5569  0.8169 -0.8271
  789MOL0     H 4112   7.207   8.853   6.977 -0.1865 -0.6997 -0.8869
  789MOL0     H 4113   7.307   9.028   7.125  1.3580 -1.1305  0.9109
  789MOL0     H 4114   7.254   9.122   7.546 -0.1815 -1.3887 -0.3714
  789MOL0     H 4115   7.077   9.114   7.503 -0.9398  3.4924  1.7281
  789MOL0     H 4116   7.246   9.377   7.506  0.2290 -1.6117 -0.7018
  789MOL0     H 4117   7.127   9.311   7.613 -1.9183 -2.0651 -0.2002
  789MOL0     H 4118   6.949   9.319   7.455  0.1932  1.0319  2.2094
  789MOL0     H 4119   7.064   9.348   7.323 -3.8727  0.2487  0.0206
  789MOL0     H 4120   6.903   9.537   7.427  0.7227  0.7018 -3.3509
  789MOL0     H 4121   7.031   9.526   7.554  2.1112  0.8953 -0.5417
  789MOL0     H 4122   7.195   9.587   7.402 -0.9876 -0.6520  0.6704
  789MOL0     H 4123   7.077   9.711   7.438 -0.8451  0.2491  0.4308
  789MOL0     H 4124   6.939   9.648   7.233 -0.7076  0.3224  0.2947
  789MOL0     H 4125   7.057   9.535   7.196  1.5888 -1.1667  1.3197
  789MOL0     H 4126   7.075   9.728   7.057 -0.2790 -0.7367 -0.1977
  789MOL0     H 4127   7.150   9.823   7.183 -1.6009  0.3047 -0.5931
  789MOL0     H 4128   7.263   9.563   7.103  0.9850 -0.0674  0.6131
  789MOL0     H 4129   7.322   9.679   7.229 -3.6896  0.4729  2.5093
  789MOL0     H 4130   6.939   9.028   7.361 -0.0467 -1.9615  1.6577
  789MOL0     H 4131   6.837   8.906   7.195 -0.2505 -1.6383 -1.4791
  789MOL0     H 4132   6.972   8.359   7.074 -1.0894  3.4363  1.4804
  789MOL0     H 4133   6.954   8.192   6.871 -4.4335 -0.0217 -2.9787
  789MOL0     H 4134   6.626   7.704   7.557  4.5272  1.9686 -0.3805
  789MOL0     H 4135   6.379   7.686   7.467  1.2117 -0.8538  1.4541
  789MOL0     H 4136   5.906   7.652   7.448  3.5896 -1.6027 -1.0095
  789MOL0     H 4137   5.692   7.657   7.299  0.4148 -0.9731  0.6033
  789MOL0     H 4138   5.468   7.806   7.029  1.8167  1.6362 -0.5880
  789MOL0     H 4139   5.513   7.731   7.192  2.8992  2.7615  0.7468
  789MOL0     H 4140   5.639   7.661   6.910  0.8967 -3.8221 -0.7473
  789MOL0     H 4141   5.655   7.574   7.060  2.2761  1.5144 -1.7323
  789MOL0     H 4142   5.445   7.587   6.848  0.5583  1.4884  0.2090
  789MOL0     H 4143   5.385   7.546   7.018 -0.7810 -2.4942 -0.6640
  789MOL0     H 4144   5.407   7.358   6.901  0.1063 -1.9673  0.7802
  789MOL0     H 4145   5.576   7.393   6.836 -2.0685 -0.0046 -1.5733
  789MOL0     H 4146   5.599   7.198   7.215 -1.0620 -1.5120 -0.1717
  789MOL0     H 4147   5.862   7.961   7.070 -0.9311  0.5015  0.3207
  789MOL0     H 4148   6.066   7.973   7.223 -1.9515  2.1323  0.9073
  790MOL0     O 4149  10.334   9.391   6.444 -0.5276 -1.3871 -0.2498
  790MOL0     C 4150  10.353   9.351   6.557 -0.9118  0.1511 -0.3497
  790MOL0     O 4151  10.459   9.277   6.601 -0.3337 -0.1043 -0.1116
  790MOL0     C 4152  10.538   9.209   6.513  0.5306 -0.5436  0.1229
  790MOL0     C 4153  10.676   9.190   6.541  0.0044  0.2294 -0.2146
  790MOL0     C 4154  10.754   9.105   6.465  0.1096 -0.0623 -0.0774
  790MOL0     C 4155  10.706   9.041   6.353  0.2546  1.0257  0.1709
  790MOL0     O 4156  10.802   8.990   6.266  0.0649  0.3395 -0.8778
  790MOL0     C 4157  10.763   8.862   6.204  0.0298 -0.3934  0.2478
  790MOL0     C 4158  10.848   8.749   6.264  0.2168  0.3770  0.8184
  790MOL0     C 4159  10.797   8.708   6.403  0.0764  0.0206  0.2133
  790MOL0     C 4160  10.815   8.559   6.443 -0.3153 -0.2494  0.7291
  790MOL0     C 4161  10.753   8.529   6.577 -0.9608  0.3194  0.4289
  790MOL0     C 4162  10.778   8.378   6.593  0.4495  0.3123 -0.2848
  790MOL0     C 4163  10.670   8.332   6.701 -0.3488 -0.7405 -0.2619
  790MOL0     C 4164  10.708   8.191   6.768  0.7521 -0.6177  0.1962
  790MOL0     N 4165  10.809   8.220   6.872 -0.8800  0.4404 -0.6021
  790MOL0     C 4166  10.782   8.276   6.998  0.2021 -0.2394  0.6517
  790MOL0     C 4167  10.876   8.242   7.081 -0.9903  0.2931  0.5729
  790MOL0     C 4168  10.896   8.287   7.222  0.5559 -0.4203 -0.2376
  790MOL0     C 4169  10.977   8.409   7.249  0.2568 -0.4949  0.7683
  790MOL0     C 4170  10.950   8.476   7.390  0.4413 -0.2048  1.3525
  790MOL0     C 4171  11.035   8.610   7.382 -0.3606  1.0204  0.0410
  790MOL0     O 4172  11.011   8.694   7.493  0.5169 -0.8656 -0.8194
  790MOL0     C 4173  11.052   8.821   7.485  0.7524 -0.3613  0.3827
  790MOL0     C 4174  11.157   8.869   7.405 -0.2244  0.6233  0.4128
  790MOL0     C 4175  11.205   9.003   7.420 -0.4562  0.1067 -0.1157
  790MOL0     C 4176  11.124   9.101   7.493 -0.1627  0.7721 -0.1896
  790MOL0     C 4177  11.170   9.246   7.488  0.7980 -0.0585 -0.3347
  790MOL0     O 4178  11.227   9.284   7.370 -0.2145  0.1558 -0.8074
  790MOL0     C 4179  11.268   9.413   7.343 -0.1273 -0.4220  0.2199
  790MOL0     C 4180  11.207   9.492   7.246 -0.4434 -0.3982 -0.2329
  790MOL0     C 4181  11.255   9.623   7.224  0.0167  1.1861 -0.1220
  790MOL0     C 4182  11.351   9.683   7.314  0.0040  0.4558  0.0778
  790MOL0     O 4183  11.385   9.816   7.322 -0.0314  0.3681  0.1816
  790MOL0     C 4184  11.328   9.894   7.226 -0.2461 -0.3407 -0.1835
  790MOL0     C 4185  11.408  10.025   7.233  0.0621  0.3365  0.8589
  790MOL0     C 4186  11.363  10.118   7.122  0.1431 -0.9306  0.9881
  790MOL0     C 4187  11.401  10.262   7.153  0.4504  0.9092 -0.2896
  790MOL0     C 4188  11.519  10.325   7.068  0.0452  0.0152 -0.2958
  790MOL0     C 4189  11.590  10.444   7.134  0.3072 -0.0052  0.3637
  790MOL0     C 4190  11.503  10.560   7.171  0.3676 -0.0268 -0.5559
  790MOL0     C 4191  11.531  10.687   7.091  0.3318 -0.7381  0.1196
  790MOL0    Cl 4192  11.696  10.753   7.150  0.0689  0.4914 -0.6046
  790MOL0     C 4193  11.406   9.599   7.406  0.1495  0.7844  0.5118
  790MOL0     C 4194  11.369   9.472   7.415  0.6308 -0.1868  0.6661
  790MOL0     O 4195  11.155   9.311   7.587  0.2387 -0.9522 -1.0410
  790MOL0     C 4196  11.020   9.047   7.568  0.8621 -0.9104  0.6810
  790MOL0     C 4197  10.991   8.914   7.567  0.3917  0.6026  0.8554
  790MOL0     N 4198  10.969   8.169   7.009  0.5348  0.1345  0.0175
  790MOL0     N 4199  10.926   8.154   6.883 -1.1772 -0.1058  1.0495
  790MOL0     C 4200  10.564   9.054   6.320 -0.4014 -0.4252  0.1180
  790MOL0     C 4201  10.492   9.135   6.405  0.4509 -0.3676 -1.0909
  790MOL0     C 4202  10.256   9.392   6.665  0.2484  0.3169  0.3030
  790MOL0     C 4203  10.168   9.494   6.639  0.1724  0.3069  0.5933
  790MOL0     C 4204  10.088   9.553   6.736 -0.2007  1.5573  0.3882
  790MOL0     C 4205  10.088   9.496   6.860  0.5730  0.3134 -0.7132
  790MOL0     O 4206  10.035   9.550   6.974 -0.3997 -0.8428 -0.0181
  790MOL0     C 4207   9.964   9.677   6.948  0.2659 -0.1455  0.0722
  790MOL0     C 4208   9.885   9.724   7.067  0.4352  0.1104  1.1516
  790MOL0     C 4209   9.771   9.630   7.102 -0.6294 -0.1568 -0.0279
  790MOL0     C 4210   9.738   9.638   7.251 -0.7566 -0.3425 -0.4876
  790MOL0     C 4211   9.720   9.779   7.299  0.4466  0.2130 -0.3919
  790MOL0     C 4212   9.712   9.896   7.324 -0.3003 -0.7290 -0.0240
  790MOL0     C 4213  10.173   9.386   6.890 -0.1613 -0.8321 -0.1146
  790MOL0     C 4214  10.249   9.328   6.788 -0.7254 -0.9172  0.2271
  790MOL0     H 4215  10.717   9.246   6.625  0.4976  2.8379 -2.0687
  790MOL0     H 4216  10.857   9.104   6.501 -0.1717  0.7338  0.7906
  790MOL0     H 4217  10.789   8.853   6.099  0.9929 -0.7019  0.5065
  790MOL0     H 4218  10.656   8.841   6.220  0.2774  0.1278  3.3345
  790MOL0     H 4219  10.946   8.793   6.285 -0.1666  0.7531  1.8740
  790MOL0     H 4220  10.851   8.660   6.200 -5.2769  0.0664  0.5554
  790MOL0     H 4221  10.690   8.729   6.410 -0.6962 -1.6169 -3.7151
  790MOL0     H 4222  10.855   8.765   6.475  0.6282  0.5405 -0.6289
  790MOL0     H 4223  10.785   8.495   6.359  1.5099 -0.8255  0.4879
  790MOL0     H 4224  10.920   8.531   6.452 -0.3863 -0.5942  0.5041
  790MOL0     H 4225  10.648   8.558   6.565 -0.9779 -0.6565 -2.4387
  790MOL0     H 4226  10.813   8.591   6.645  0.5505  0.6910 -1.1845
  790MOL0     H 4227  10.878   8.351   6.630 -0.1545  0.6269  1.7289
  790MOL0     H 4228  10.758   8.336   6.494 -1.2504  0.2562  0.0500
  790MOL0     H 4229  10.670   8.403   6.783 -1.1942 -1.6182  0.5296
  790MOL0     H 4230  10.574   8.323   6.649 -2.1584 -1.5755  2.9768
  790MOL0     H 4231  10.741   8.118   6.693  2.1300  2.2788 -2.1943
  790MOL0     H 4232  10.625   8.146   6.823  1.7252 -0.8661  1.5093
  790MOL0     H 4233  10.691   8.331   7.022 -0.9730 -2.3757  1.4275
  790MOL0     H 4234  10.935   8.197   7.270 -1.7857 -1.7677 -0.7182
  790MOL0     H 4235  10.794   8.308   7.256 -0.5832 -3.1103 -1.7051
  790MOL0     H 4236  10.954   8.480   7.169  1.6296 -1.2714 -0.3631
  790MOL0     H 4237  11.085   8.393   7.238  0.7120  2.0194  0.9581
  790MOL0     H 4238  10.842   8.494   7.389  0.1512 -1.7981  0.5595
  790MOL0     H 4239  10.974   8.431   7.486  1.0134 -0.3477  1.1471
  790MOL0     H 4240  11.021   8.667   7.290  0.4414 -0.2677 -0.9227
  790MOL0     H 4241  11.138   8.574   7.395 -1.0212  0.0007  3.2948
  790MOL0     H 4242  11.214   8.801   7.342  1.2210  3.0667 -1.0992
  790MOL0     H 4243  11.291   9.043   7.368 -1.5363 -1.2813 -3.2670
  790MOL0     H 4244  11.119   9.443   7.205 -1.5323  1.6588 -0.4970
  790MOL0     H 4245  11.198   9.685   7.155 -1.3108 -3.2209 -3.4004
  790MOL0     H 4246  11.224   9.913   7.252 -0.8510 -3.5739  0.0923
  790MOL0     H 4247  11.335   9.851   7.126 -0.0792 -2.5909  0.7430
  790MOL0     H 4248  11.516  10.007   7.239  0.3169  1.1986 -0.6145
  790MOL0     H 4249  11.390  10.073   7.330  0.4143  0.9102  0.6500
  790MOL0     H 4250  11.255  10.107   7.106 -0.0921  1.4982  0.5082
  790MOL0     H 4251  11.418  10.088   7.033 -2.0398  3.0873 -2.0571
  790MOL0     H 4252  11.314  10.327   7.138  1.9564  3.3342  0.9333
  790MOL0     H 4253  11.425  10.263   7.260 -1.5595  2.0869  0.2032
  790MOL0     H 4254  11.472  10.341   6.970  0.6374 -0.1448 -0.6073
  790MOL0     H 4255  11.583  10.237   7.060 -4.2955 -3.7603  1.4561
  790MOL0     H 4256  11.664  10.484   7.064 -0.0062  2.3406  1.2815
  790MOL0     H 4257  11.643  10.410   7.223 -2.8044 -1.4272  1.8024
  790MOL0     H 4258  11.400  10.535   7.146 -0.0215 -2.8751  3.0824
  790MOL0     H 4259  11.493  10.568   7.279 -2.3836  1.5086 -0.8458
  790MOL0     H 4260  11.446  10.753   7.113 -0.6492 -1.3791 -1.5912
  790MOL0     H 4261  11.527  10.685   6.982 -3.7371 -0.2298  0.1163
  790MOL0     H 4262  11.478   9.637   7.477 -0.6119 -0.1382  1.8172
  790MOL0     H 4263  11.418   9.400   7.480  0.8014 -2.4028 -1.7586
  790MOL0     H 4264  10.957   9.120   7.618  2.6276  3.3532 -2.6273
  790MOL0     H 4265  10.916   8.872   7.633 -0.2432 -0.7587 -0.6627
  790MOL0     H 4266  10.522   8.999   6.236 -0.6059  2.6659 -1.9840
  790MOL0     H 4267  10.385   9.140   6.387  0.2801 -0.9041 -0.2755
  790MOL0     H 4268  10.160   9.548   6.546 -0.6499  0.5598  0.7988
  790MOL0     H 4269  10.044   9.649   6.712 -1.9983  0.5546 -0.6318
  790MOL0     H 4270   9.901   9.676   6.858 -0.7951  0.5333  0.7915
  790MOL0     H 4271  10.037   9.757   6.931  0.6193 -0.4380  0.1954
  790MOL0     H 4272   9.961   9.722   7.146  2.5765  0.2438 -0.8192
  790MOL0     H 4273   9.844   9.825   7.057 -5.3757 -1.6753  2.4998
  790MOL0     H 4274   9.792   9.528   7.068  1.3025  0.2017 -0.0273
  790MOL0     H 4275   9.682   9.667   7.051 -1.7283 -1.0362  1.1776
  790MOL0     H 4276   9.651   9.579   7.279  1.7482 -2.8758  2.8832
  790MOL0     H 4277   9.820   9.601   7.314 -0.6527 -1.0237 -1.0164
  790MOL0     H 4278   9.695  10.001   7.331 -1.9832 -0.8081 -1.9606
  790MOL0     H 4279  10.182   9.337   6.986 -1.6648 -1.0291 -0.0563
  790MOL0     H 4280  10.303   9.236   6.806  0.9915 -0.1450 -0.6985
  791MOL0     O 4281   5.891   9.634   4.367  0.4476  0.7805  0.4112
  791MOL0     C 4282   5.873   9.529   4.421  0.6374  0.3653 -0.3527
  791MOL0     O 4283   5.870   9.507   4.560  0.9989 -0.5384  0.0876
  791MOL0     C 4284   5.911   9.610   4.641  0.6449  0.3054 -0.2353
  791MOL0     C 4285   6.024   9.686   4.614 -0.4833 -0.0939  0.3665
  791MOL0     C 4286   6.051   9.792   4.701 -0.1787 -0.7614 -0.5050
  791MOL0     C 4287   5.983   9.800   4.822 -0.1580  0.1201 -0.1639
  791MOL0     O 4288   6.013   9.906   4.907 -0.0095  0.3349 -0.2950
  791MOL0     C 4289   5.900   9.993   4.947 -0.6820  0.6656  0.5926
  791MOL0     C 4290   5.928  10.120   5.009  0.5987 -0.2136 -0.6153
  791MOL0     C 4291   6.000  10.105   5.141 -0.4745 -0.1346 -0.8263
  791MOL0     C 4292   5.991  10.227   5.237 -0.7789 -0.8891 -1.3980
  791MOL0     C 4293   5.843  10.277   5.263 -0.1057  0.5116 -0.5920
  791MOL0     C 4294   5.841  10.339   5.406 -0.1146  0.1181 -0.9740
  791MOL0     C 4295   5.710  10.388   5.463  0.2403 -0.7003 -0.5153
  791MOL0     C 4296   5.713  10.421   5.613  1.3292  0.1202 -0.2356
  791MOL0     N 4297   5.803  10.535   5.649  0.4471 -0.4909 -0.1697
  791MOL0     C 4298   5.771  10.640   5.728 -0.0976  0.1550  0.1989
  791MOL0     C 4299   5.883  10.708   5.730  0.1720 -0.5468 -0.2593
  791MOL0     C 4300   5.906  10.822   5.820  0.6564  0.3995  0.3085
  791MOL0     C 4301   6.055  10.840   5.864  0.1788  0.1817 -0.0960
  791MOL0     C 4302   6.090  10.741   5.974  1.0768 -0.0841  0.6409
  791MOL0     C 4303   6.225  10.763   6.036 -1.3061  0.1554  1.1332
  791MOL0     O 4304   6.239  10.900   6.079  0.3401  0.1344  0.0800
  791MOL0     C 4305   6.351  10.949   6.143  0.0984 -0.0161  0.5836
  791MOL0     C 4306   6.352  11.085   6.172 -0.1642 -0.0980  0.4666
  791MOL0     C 4307   6.470  11.150   6.202 -0.2362  0.5625  0.2674
  791MOL0     C 4308   6.592  11.084   6.231  1.3091  0.0053  0.4871
  791MOL0     C 4309   6.709  11.152   6.277 -0.9515  0.2998  0.1036
  791MOL0     O 4310   6.815  11.075   6.315 -0.0350 -0.1400  0.4515
  791MOL0     C 4311   6.938  11.124   6.295  0.6492  0.5144  0.1593
  791MOL0     C 4312   7.019  11.090   6.402  0.4460  0.8133 -0.6549
  791MOL0     C 4313   7.144  11.139   6.418  0.2962  1.5592 -0.6394
  791MOL0     C 4314   7.197  11.224   6.317 -0.2134 -0.0344 -0.6338
  791MOL0     O 4315   7.310  11.288   6.333  0.1446  0.1829  0.1517
  791MOL0     C 4316   7.435  11.220   6.286  1.1179 -1.0804  0.7291
  791MOL0     C 4317   7.553  11.278   6.366 -0.6351  0.3544  0.6378
  791MOL0     C 4318   7.545  11.430   6.370 -0.7972  0.3236 -0.5896
  791MOL0     C 4319   7.677  11.489   6.438 -0.0539  0.0315  0.9710
  791MOL0     C 4320   7.708  11.643   6.408  0.3179  0.3438  0.2412
  791MOL0     C 4321   7.589  11.731   6.371  0.4885 -0.1419 -0.2010
  791MOL0     C 4322   7.592  11.862   6.459  0.5898 -0.0277 -0.0631
  791MOL0     C 4323   7.448  11.934   6.461 -0.3098 -0.1478  0.6189
  791MOL0    Cl 4324   7.398  11.997   6.288  0.6507 -0.4533 -0.2495
  791MOL0     C 4325   7.121  11.241   6.205  0.5795 -0.3947 -0.0879
  791MOL0     C 4326   6.995  11.198   6.187 -0.3247 -0.0874  0.5921
  791MOL0     O 4327   6.709  11.274   6.274 -0.1252  0.2452  0.0844
  791MOL0     C 4328   6.585  10.946   6.212 -0.3332 -0.8356 -1.0459
  791MOL0     C 4329   6.475  10.881   6.164  1.0978 -0.8277  0.5866
  791MOL0     N 4330   5.983  10.652   5.659  0.6659 -0.4037 -1.5547
  791MOL0     N 4331   5.935  10.539   5.619  0.6846 -0.1165  0.2705
  791MOL0     C 4332   5.868   9.721   4.853 -0.5799 -0.0129 -0.0029
  791MOL0     C 4333   5.832   9.628   4.759  1.0341  0.2311  0.7006
  791MOL0     C 4334   5.820   9.425   4.321 -0.2442 -1.2181 -0.6372
  791MOL0     C 4335   5.810   9.448   4.181 -0.0230 -0.1362 -0.6085
  791MOL0     C 4336   5.745   9.356   4.095  0.4822 -1.0804  0.1298
  791MOL0     C 4337   5.701   9.231   4.150  0.6781 -0.4329  0.0107
  791MOL0     O 4338   5.637   9.129   4.081  0.0034 -0.4298 -0.2735
  791MOL0     C 4339   5.622   9.142   3.939 -0.6310 -0.7738  0.4721
  791MOL0     C 4340   5.560   9.017   3.883  0.3653  0.6592  0.0073
  791MOL0     C 4341   5.618   8.874   3.893  0.5091 -0.0467  0.1803
  791MOL0     C 4342   5.769   8.863   3.876  0.3025 -0.2223  0.2722
  791MOL0     C 4343   5.819   8.907   3.744  0.3600 -0.3140  0.5676
  791MOL0     C 4344   5.835   8.928   3.627 -0.6843  0.0737  0.0242
  791MOL0     C 4345   5.711   9.220   4.289 -0.4976  0.0102  0.3100
  791MOL0     C 4346   5.768   9.305   4.374 -0.2277 -0.5155 -0.6912
  791MOL0     H 4347   6.081   9.660   4.526 -3.1633  0.7119 -1.7429
  791MOL0     H 4348   6.132   9.863   4.689 -3.8268  4.1505  0.5235
  791MOL0     H 4349   5.829   9.930   5.002  0.2491 -1.3964 -0.4824
  791MOL0     H 4350   5.848  10.018   4.854  1.6157  0.9919 -0.6809
  791MOL0     H 4351   5.838  10.182   5.015 -0.0818 -1.2109 -0.3876
  791MOL0     H 4352   5.997  10.164   4.936 -0.9272  2.0642 -0.8007
  791MOL0     H 4353   6.105  10.078   5.123 -0.1258  2.2698 -3.0546
  791MOL0     H 4354   5.964  10.021   5.200  1.7004  1.1661  2.6638
  791MOL0     H 4355   6.031  10.193   5.333 -1.5154  5.2456  1.5108
  791MOL0     H 4356   6.052  10.313   5.208  1.9449 -1.5480  1.7176
  791MOL0     H 4357   5.770  10.197   5.245 -1.4969  0.5851  3.7154
  791MOL0     H 4358   5.831  10.353   5.185  0.8148 -0.4220 -1.6968
  791MOL0     H 4359   5.917  10.418   5.409 -0.6623  0.7140  3.4966
  791MOL0     H 4360   5.869  10.258   5.474 -2.8787  1.3769  1.8931
  791MOL0     H 4361   5.674  10.473   5.404  0.6368 -1.4584 -1.9032
  791MOL0     H 4362   5.643  10.304   5.444  0.9325 -0.9532 -1.9617
  791MOL0     H 4363   5.740  10.332   5.670  1.3079 -1.5718 -2.7240
  791MOL0     H 4364   5.618  10.463   5.646  2.3646 -1.1163  5.2128
  791MOL0     H 4365   5.677  10.670   5.772 -0.1463  1.7819 -0.9186
  791MOL0     H 4366   5.849  10.823   5.913  0.6842  0.8288  0.3196
  791MOL0     H 4367   5.878  10.914   5.768  1.1497  0.6564  0.4935
  791MOL0     H 4368   6.068  10.943   5.897 -1.6521  0.4900 -0.2579
  791MOL0     H 4369   6.129  10.831   5.784  0.5611  1.7102  0.0644
  791MOL0     H 4370   6.022  10.767   6.056  1.4988  0.7561  0.7405
  791MOL0     H 4371   6.081  10.635   5.952 -0.6131  0.6499 -2.8863
  791MOL0     H 4372   6.302  10.753   5.960  1.3759  0.9411  3.5965
  791MOL0     H 4373   6.256  10.686   6.107  1.7063  0.0255 -0.1918
  791MOL0     H 4374   6.267  11.152   6.161  0.7106  0.8389 -0.9927
  791MOL0     H 4375   6.462  11.256   6.222  0.7535  1.0393 -1.6066
  791MOL0     H 4376   6.980  11.041   6.490 -4.0835  2.5112 -1.4760
  791MOL0     H 4377   7.199  11.101   6.503 -1.4117 -1.8890 -0.9053
  791MOL0     H 4378   7.441  11.247   6.181 -0.3316  2.7076  1.4671
  791MOL0     H 4379   7.428  11.111   6.297 -1.5456 -0.9732  0.8405
  791MOL0     H 4380   7.637  11.238   6.308 -2.2768 -1.4483 -0.6065
  791MOL0     H 4381   7.558  11.245   6.470  1.3956  0.5181  0.6416
  791MOL0     H 4382   7.464  11.469   6.433 -0.8691 -0.7812  0.0173
  791MOL0     H 4383   7.539  11.477   6.272  1.2498  1.0827 -0.3961
  791MOL0     H 4384   7.663  11.493   6.546  6.0731  0.9980  2.0818
  791MOL0     H 4385   7.763  11.423   6.425  2.6198  3.0101  2.3481
  791MOL0     H 4386   7.767  11.651   6.315 -1.7379  2.5750 -0.9828
  791MOL0     H 4387   7.771  11.680   6.490  1.8309 -0.4858 -0.4970
  791MOL0     H 4388   7.507  11.678   6.421  0.8521 -1.6286 -1.1175
  791MOL0     H 4389   7.568  11.753   6.266 -2.3965  2.8630  0.8148
  791MOL0     H 4390   7.615  11.841   6.564  1.0832 -0.1191 -0.1885
  791MOL0     H 4391   7.656  11.944   6.424 -1.4222  0.7826 -2.1222
  791MOL0     H 4392   7.460  12.022   6.525  0.4686  1.2842 -1.4034
  791MOL0     H 4393   7.360  11.875   6.489 -0.9419  1.4536  2.2797
  791MOL0     H 4394   7.150  11.335   6.157  2.1337 -0.1564  1.2353
  791MOL0     H 4395   6.930  11.226   6.105  2.2073 -2.3760 -2.4488
  791MOL0     H 4396   6.678  10.895   6.235  0.6407  0.5984 -1.6302
  791MOL0     H 4397   6.481  10.777   6.133 -4.6503 -0.2976 -3.8781
  791MOL0     H 4398   5.805   9.730   4.941 -0.0616 -2.1218  0.6559
  791MOL0     H 4399   5.737   9.578   4.778  0.8044  1.2465  2.4410
  791MOL0     H 4400   5.826   9.549   4.146 -1.1047  0.6550  1.0502
  791MOL0     H 4401   5.728   9.383   3.991  2.2663 -0.7975 -0.1156
  791MOL0     H 4402   5.714   9.169   3.886 -1.2765  2.1178  0.6681
  791MOL0     H 4403   5.555   9.227   3.925  0.7840  0.4911  1.1155
  791MOL0     H 4404   5.455   9.026   3.916  0.7235  1.5202  0.9934
  791MOL0     H 4405   5.556   9.034   3.775  1.8306  1.2438  0.0290
  791MOL0     H 4406   5.565   8.804   3.828 -2.9616  1.6769  0.9011
  791MOL0     H 4407   5.587   8.827   3.987 -2.5111 -4.3372 -2.5993
  791MOL0     H 4408   5.814   8.927   3.953 -3.2319 -0.8409  3.0988
  791MOL0     H 4409   5.803   8.759   3.871  0.2900 -0.1765 -1.1274
  791MOL0     H 4410   5.864   8.941   3.525 -2.8822  2.1903 -0.4285
  791MOL0     H 4411   5.672   9.127   4.327  1.1410 -0.9609 -0.2770
  791MOL0     H 4412   5.757   9.286   4.480  0.3603  1.0582 -0.3189
  792MOL0     O 4413   2.015   6.516   6.653  0.3930 -0.4476 -0.0463
  792MOL0     C 4414   1.963   6.616   6.616 -0.1435 -0.0413  0.7833
  792MOL0     O 4415   2.031   6.722   6.546 -0.7734 -0.2853 -0.2195
  792MOL0     C 4416   2.167   6.707   6.530 -0.2408 -0.5656  0.6954
  792MOL0     C 4417   2.259   6.779   6.601  0.5106 -0.7505 -0.0475
  792MOL0     C 4418   2.391   6.759   6.592 -0.2709  0.6989  0.0126
  792MOL0     C 4419   2.438   6.663   6.500 -0.1993 -0.0832 -0.1075
  792MOL0     O 4420   2.572   6.625   6.478  0.0923  0.3157 -0.1497
  792MOL0     C 4421   2.669   6.693   6.550  0.3699  0.2975 -0.4150
  792MOL0     C 4422   2.722   6.822   6.480  0.4935  0.6033  1.0349
  792MOL0     C 4423   2.865   6.865   6.505 -0.5787 -0.3721 -0.1161
  792MOL0     C 4424   2.958   6.763   6.434 -0.4254 -0.9615 -0.2846
  792MOL0     C 4425   3.104   6.805   6.464  0.0644 -0.5507 -0.3873
  792MOL0     C 4426   3.142   6.945   6.444  0.3744  0.0726  1.2620
  792MOL0     C 4427   3.273   6.984   6.506 -0.7456 -0.0703 -0.3903
  792MOL0     C 4428   3.305   7.131   6.462 -0.1605  0.3745  0.7207
  792MOL0     N 4429   3.420   7.187   6.532  0.4575  0.1012  0.3887
  792MOL0     C 4430   3.448   7.190   6.662  0.2493 -0.1444  0.1651
  792MOL0     C 4431   3.578   7.189   6.680  0.3534 -0.5071 -0.3558
  792MOL0     C 4432   3.665   7.174   6.808  0.3521  0.9944 -0.1807
  792MOL0     C 4433   3.712   7.298   6.866 -0.2435  0.9382 -0.2101
  792MOL0     C 4434   3.726   7.293   7.035  0.8829 -0.1055  0.3898
  792MOL0     C 4435   3.598   7.308   7.109  0.8865  0.2203 -0.9734
  792MOL0     O 4436   3.525   7.434   7.103  0.2858 -0.4862 -0.0675
  792MOL0     C 4437   3.564   7.543   7.179 -0.9735  0.2813  0.1068
  792MOL0     C 4438   3.479   7.646   7.197 -0.2908  0.6020 -0.0712
  792MOL0     C 4439   3.517   7.761   7.262  0.2549 -0.4259 -0.3753
  792MOL0     C 4440   3.647   7.783   7.319  0.6816 -0.7700 -0.0331
  792MOL0     C 4441   3.697   7.913   7.374 -0.7117 -0.4422  0.7947
  792MOL0     O 4442   3.832   7.919   7.394 -0.0365  0.5111  0.1361
  792MOL0     C 4443   3.893   8.005   7.482 -0.1244  0.5283  0.1483
  792MOL0     C 4444   3.820   8.080   7.581 -0.7662  0.6087  0.6134
  792MOL0     C 4445   3.893   8.167   7.655 -0.7845 -0.3841  0.2680
  792MOL0     C 4446   4.024   8.183   7.632 -0.5633 -0.2936 -0.6378
  792MOL0     O 4447   4.100   8.267   7.716  0.5398  0.2651 -0.1528
  792MOL0     C 4448   4.177   8.358   7.633 -0.2905  0.0131 -0.6777
  792MOL0     C 4449   4.176   8.488   7.705 -0.3555  0.6991 -0.3252
  792MOL0     C 4450   4.256   8.486   7.840  0.1469  0.0530 -1.1362
  792MOL0     C 4451   4.264   8.621   7.911  1.0340 -0.0735  0.6122
  792MOL0     C 4452   4.388   8.650   7.996 -0.5392 -0.3781 -0.3817
  792MOL0     C 4453   4.409   8.535   8.093  0.9298 -0.7242 -0.2749
  792MOL0     C 4454   4.541   8.546   8.172  0.0380  0.5395  0.9052
  792MOL0     C 4455   4.547   8.674   8.263  0.6737  0.6127  1.0769
  792MOL0    Cl 4456   4.681   8.673   8.387 -0.2933 -0.6806 -0.6057
  792MOL0     C 4457   4.100   8.101   7.549 -0.3697 -0.7357  0.3578
  792MOL0     C 4458   4.030   8.019   7.461  0.0053 -0.0200  0.0686
  792MOL0     O 4459   3.621   8.010   7.377  0.3614  0.5337 -0.7127
  792MOL0     C 4460   3.728   7.665   7.314 -0.3659  0.7720 -0.5547
  792MOL0     C 4461   3.686   7.537   7.251  1.7292 -0.7057 -0.3341
  792MOL0     N 4462   3.628   7.199   6.556 -0.7099 -0.2541 -0.4983
  792MOL0     N 4463   3.533   7.205   6.462 -0.4883 -0.6665  0.7753
  792MOL0     C 4464   2.348   6.595   6.420  0.1138  1.3335 -0.4628
  792MOL0     C 4465   2.212   6.620   6.429 -0.0034  0.0435  1.4069
  792MOL0     C 4466   1.818   6.617   6.641 -0.5758  0.2762  0.4279
  792MOL0     C 4467   1.739   6.721   6.586  0.8020 -1.1280 -0.0137
  792MOL0     C 4468   1.608   6.728   6.618  0.1227  0.1180 -0.1506
  792MOL0     C 4469   1.547   6.622   6.697  0.4055 -0.6558 -0.9328
  792MOL0     O 4470   1.414   6.635   6.736 -1.1577  0.2062  0.0630
  792MOL0     C 4471   1.330   6.542   6.795  0.4244  0.8347 -1.4593
  792MOL0     C 4472   1.267   6.439   6.703  0.1809 -0.3565  0.2053
  792MOL0     C 4473   1.166   6.507   6.608  0.8758 -0.2110 -0.3502
  792MOL0     C 4474   1.018   6.501   6.656  0.7496 -0.3390  0.2915
  792MOL0     C 4475   0.972   6.355   6.671 -0.7837 -0.0210 -0.1944
  792MOL0     C 4476   0.935   6.243   6.673  0.2316  0.2271 -0.6198
  792MOL0     C 4477   1.623   6.522   6.749 -0.2423 -0.1690 -0.5477
  792MOL0     C 4478   1.760   6.509   6.715 -0.1794 -0.8072  0.9626
  792MOL0     H 4479   2.210   6.854   6.661 -0.8325 -2.0963  0.5965
  792MOL0     H 4480   2.463   6.813   6.652 -1.9615  0.2125  2.6457
  792MOL0     H 4481   2.759   6.631   6.552 -0.6456 -1.2008 -0.3711
  792MOL0     H 4482   2.659   6.700   6.658  0.4991 -0.3347 -0.3616
  792MOL0     H 4483   2.654   6.905   6.501 -1.4096 -0.6511  0.0754
  792MOL0     H 4484   2.714   6.805   6.372  0.7716 -0.8270  1.2256
  792MOL0     H 4485   2.897   6.866   6.609 -0.8945  1.0952 -0.0004
  792MOL0     H 4486   2.868   6.966   6.461 -2.8837 -1.0222 -1.9969
  792MOL0     H 4487   2.942   6.658   6.459 -0.4928 -1.3853 -1.9754
  792MOL0     H 4488   2.946   6.781   6.327 -0.3692  2.4516  0.1608
  792MOL0     H 4489   3.181   6.740   6.421  2.2474  1.3808  0.4475
  792MOL0     H 4490   3.107   6.790   6.572 -2.0266  0.5486 -0.1298
  792MOL0     H 4491   3.062   7.009   6.483 -0.7643 -0.2079 -0.4750
  792MOL0     H 4492   3.138   6.974   6.338  2.5983 -0.1928  1.0738
  792MOL0     H 4493   3.270   6.974   6.615 -0.3234  3.0133  0.0002
  792MOL0     H 4494   3.347   6.906   6.488 -0.1485  0.6667 -1.2057
  792MOL0     H 4495   3.222   7.201   6.479  0.0191  1.2536 -1.7300
  792MOL0     H 4496   3.315   7.130   6.354 -4.8126  3.0742 -0.0389
  792MOL0     H 4497   3.369   7.182   6.737 -2.0613  0.7098 -2.0481
  792MOL0     H 4498   3.736   7.098   6.774  0.1267 -0.2399  1.9087
  792MOL0     H 4499   3.610   7.120   6.885  0.3198 -1.0240 -1.5586
  792MOL0     H 4500   3.666   7.390   6.829  2.2373  1.8391 -1.2727
  792MOL0     H 4501   3.814   7.309   6.828 -0.7023  0.7397 -1.5257
  792MOL0     H 4502   3.769   7.194   7.054 -2.3404 -2.3131 -2.5535
  792MOL0     H 4503   3.791   7.375   7.070 -0.6554  1.8113 -1.0347
  792MOL0     H 4504   3.620   7.306   7.216  0.3129  2.8385 -0.7447
  792MOL0     H 4505   3.538   7.228   7.065  0.2132  0.6643 -0.8833
  792MOL0     H 4506   3.382   7.641   7.149  0.3091  1.7031 -1.4595
  792MOL0     H 4507   3.452   7.847   7.251  0.4987 -0.2966 -0.8577
  792MOL0     H 4508   3.719   8.051   7.608 -0.3612  0.8739  2.5600
  792MOL0     H 4509   3.846   8.223   7.736 -0.8409  0.5552 -0.4028
  792MOL0     H 4510   4.155   8.382   7.528  1.9420  1.4210 -0.9010
  792MOL0     H 4511   4.280   8.326   7.645 -0.7206 -1.1997 -0.0735
  792MOL0     H 4512   4.069   8.506   7.721 -1.0300 -0.7484 -2.6325
  792MOL0     H 4513   4.215   8.553   7.626 -0.5963 -0.9146 -1.8457
  792MOL0     H 4514   4.359   8.457   7.818  0.8049 -0.3966  2.0382
  792MOL0     H 4515   4.207   8.418   7.909  1.1885  0.2037 -0.2109
  792MOL0     H 4516   4.255   8.704   7.840 -2.2715 -0.0734  0.8799
  792MOL0     H 4517   4.167   8.639   7.958  0.0670  2.4322 -2.0041
  792MOL0     H 4518   4.371   8.747   8.044  1.5787  0.0099 -0.3421
  792MOL0     H 4519   4.475   8.661   7.931 -1.7698 -0.5631 -2.1311
  792MOL0     H 4520   4.418   8.439   8.043  2.1595 -2.0215  2.2586
  792MOL0     H 4521   4.323   8.533   8.160  0.7475  1.3909 -0.3545
  792MOL0     H 4522   4.535   8.453   8.228 -0.4538 -0.1133 -0.1935
  792MOL0     H 4523   4.618   8.544   8.094 -1.0284 -0.4639 -0.1748
  792MOL0     H 4524   4.445   8.695   8.294  0.9103  2.7686  0.5306
  792MOL0     H 4525   4.559   8.755   8.191 -3.2818  0.1953 -0.2741
  792MOL0     H 4526   4.203   8.130   7.529 -0.2676 -1.2998  0.0683
  792MOL0     H 4527   4.086   7.964   7.386  2.9013  2.2813  0.3728
  792MOL0     H 4528   3.824   7.672   7.364 -1.6162  3.7346  1.7458
  792MOL0     H 4529   3.760   7.457   7.253  0.4106 -1.9609  0.7810
  792MOL0     H 4530   2.379   6.534   6.335  0.4014 -1.2448  1.3744
  792MOL0     H 4531   2.144   6.569   6.362  0.7578  3.1584 -2.0871
  792MOL0     H 4532   1.799   6.800   6.542 -2.2516  1.9815  0.9557
  792MOL0     H 4533   1.540   6.807   6.588 -0.1871  0.0979  0.4834
  792MOL0     H 4534   1.239   6.587   6.836 -0.7855 -0.9339 -2.0712
  792MOL0     H 4535   1.388   6.485   6.868  0.7829 -0.0751 -2.4325
  792MOL0     H 4536   1.339   6.385   6.641  1.7271  0.6410  1.0664
  792MOL0     H 4537   1.214   6.365   6.763 -0.5489 -0.0814 -0.0838
  792MOL0     H 4538   1.157   6.463   6.508 -1.5531  1.8293 -1.1448
  792MOL0     H 4539   1.205   6.608   6.592  0.5830 -0.3381 -2.0375
  792MOL0     H 4540   1.022   6.528   6.762  1.3874 -2.0942  0.7532
  792MOL0     H 4541   0.945   6.560   6.600  1.0719 -2.3690 -2.4384
  792MOL0     H 4542   0.880   6.151   6.679  0.3700  0.2138  1.5079
  792MOL0     H 4543   1.578   6.455   6.823 -1.5783  0.3893 -0.8263
  792MOL0     H 4544   1.819   6.436   6.769 -4.2642 -3.2665  2.4746
  793MOL0     O 4545   9.742   7.268   9.749 -0.0404 -0.8503  0.4874
  793MOL0     C 4546   9.668   7.223   9.661 -0.4794 -0.2083 -0.5576
  793MOL0     O 4547   9.653   7.283   9.533 -0.2167 -0.5070 -0.3707
  793MOL0     C 4548   9.746   7.379   9.492  0.0950  0.6479 -0.8319
  793MOL0     C 4549   9.827   7.351   9.380  0.4542 -0.4745 -0.1416
  793MOL0     C 4550   9.915   7.447   9.328 -1.0498 -0.1396 -0.8626
  793MOL0     C 4551   9.908   7.583   9.375  1.8099  1.1230  0.3993
  793MOL0     O 4552   9.972   7.670   9.301 -0.1442  0.0890 -0.1990
  793MOL0     C 4553   9.990   7.805   9.338 -0.1141  0.0274 -0.1583
  793MOL0     C 4554  10.053   7.825   9.479  0.5696 -0.7451  0.4492
  793MOL0     C 4555  10.192   7.774   9.494 -0.0617  0.4434  0.2499
  793MOL0     C 4556  10.287   7.835   9.386  0.0296  0.0211  0.1079
  793MOL0     C 4557  10.428   7.780   9.396  0.9817  0.4283  0.1498
  793MOL0     C 4558  10.496   7.860   9.509 -0.3225  0.3842 -0.3223
  793MOL0     C 4559  10.649   7.831   9.501  1.1193 -0.3182  0.9767
  793MOL0     C 4560  10.703   7.930   9.597 -0.3316 -0.1235  0.4101
  793MOL0     N 4561  10.851   7.929   9.605  0.6618  0.0089 -0.8479
  793MOL0     C 4562  10.925   7.894   9.717  0.6675 -0.2856 -0.1191
  793MOL0     C 4563  11.053   7.908   9.675 -0.2701 -0.1658 -0.0446
  793MOL0     C 4564  11.173   7.887   9.772  0.1644  0.0749 -0.3648
  793MOL0     C 4565  11.295   7.817   9.711 -0.3733 -0.0673  1.0713
  793MOL0     C 4566  11.420   7.834   9.799 -0.2354 -0.0447  0.0551
  793MOL0     C 4567  11.537   7.753   9.737 -0.4668  0.0568 -0.0332
  793MOL0     O 4568  11.627   7.743   9.845 -0.3909  0.2717  0.1116
  793MOL0     C 4569  11.757   7.694   9.835  0.0112 -0.5233  0.5602
  793MOL0     C 4570  11.820   7.643   9.716  0.5460 -0.2091  0.4528
  793MOL0     C 4571  11.948   7.598   9.711  0.0245  0.3121  0.1400
  793MOL0     C 4572  12.030   7.589   9.819 -0.2710 -0.9875 -0.4228
  793MOL0     C 4573  12.169   7.534   9.798 -1.5668 -0.2919 -0.2225
  793MOL0     O 4574  12.194   7.486   9.676  0.9450 -0.2475  0.4608
  793MOL0     C 4575  12.279   7.385   9.636 -0.0341  0.7202 -0.4609
  793MOL0     C 4576  12.352   7.392   9.516  0.8175 -0.9843 -0.0928
  793MOL0     C 4577  12.442   7.295   9.479 -0.5652  0.1454  0.0697
  793MOL0     C 4578  12.467   7.181   9.552 -0.9857  0.8208  0.3453
  793MOL0     O 4579  12.561   7.093   9.522  0.0926  0.3205  0.2908
  793MOL0     C 4580  12.509   6.962   9.478 -0.4251  0.0377 -0.1275
  793MOL0     C 4581  12.488   6.959   9.324  0.0629 -0.1310 -0.4353
  793MOL0     C 4582  12.467   6.809   9.274 -0.2513  0.0010  0.6626
  793MOL0     C 4583  12.409   6.811   9.126 -1.3092  0.0456  0.0460
  793MOL0     C 4584  12.401   6.676   9.057  0.8981 -0.4778 -0.7059
  793MOL0     C 4585  12.299   6.581   9.110  0.6301 -0.1484 -0.8879
  793MOL0     C 4586  12.285   6.447   9.037  0.4908 -0.1545  0.0816
  793MOL0     C 4587  12.259   6.453   8.888 -0.3443  0.1280  0.3717
  793MOL0    Cl 4588  12.325   6.305   8.810  0.2323 -0.2264 -0.0236
  793MOL0     C 4589  12.382   7.162   9.670 -1.1213 -1.2754 -0.1401
  793MOL0     C 4590  12.306   7.270   9.712  0.5512 -0.8127  0.1066
  793MOL0     O 4591  12.234   7.515   9.902  0.1849  0.0659  0.2499
  793MOL0     C 4592  11.980   7.644   9.942 -0.1960 -0.3838  0.2012
  793MOL0     C 4593  11.846   7.701   9.948  0.4395  0.7735 -0.3974
  793MOL0     N 4594  11.058   7.943   9.544 -0.5254 -0.5191 -0.5203
  793MOL0     N 4595  10.938   7.939   9.500 -0.0279  0.9280 -0.4574
  793MOL0     C 4596   9.807   7.611   9.468  0.5958  1.6240  0.9158
  793MOL0     C 4597   9.735   7.511   9.544 -0.3644  0.6740  0.4445
  793MOL0     C 4598   9.625   7.081   9.678 -0.7829 -0.5422  0.2869
  793MOL0     C 4599   9.524   7.032   9.595 -0.5373 -0.2174 -0.7776
  793MOL0     C 4600   9.466   6.906   9.603 -0.0824  0.0928 -0.3782
  793MOL0     C 4601   9.513   6.825   9.700  0.4024  0.8069 -0.3622
  793MOL0     O 4602   9.472   6.697   9.712 -1.0152 -0.1246  0.8282
  793MOL0     C 4603   9.427   6.617   9.609  0.2170 -0.3140  0.2370
  793MOL0     C 4604   9.395   6.464   9.647 -0.3905 -0.8124 -0.6963
  793MOL0     C 4605   9.450   6.409   9.781  0.3490  0.3834 -0.0044
  793MOL0     C 4606   9.406   6.261   9.804  0.1268  0.7930  0.9786
  793MOL0     C 4607   9.426   6.156   9.701 -0.7597  0.3045  0.4403
  793MOL0     C 4608   9.433   6.066   9.616  0.5953 -1.3080 -0.5665
  793MOL0     C 4609   9.608   6.872   9.793  0.6469 -0.1931  0.3891
  793MOL0     C 4610   9.669   7.006   9.784 -0.5534  0.0118 -0.0123
  793MOL0     H 4611   9.831   7.252   9.336 -1.4102 -1.1392  1.0816
  793MOL0     H 4612   9.988   7.417   9.254 -2.0919 -1.6478 -1.3141
  793MOL0     H 4613   9.892   7.853   9.325  0.2965  0.9207 -0.0742
  793MOL0     H 4614  10.059   7.849   9.265 -1.7953 -0.0244 -1.8607
  793MOL0     H 4615   9.990   7.789   9.561  1.5977 -2.5711  0.4912
  793MOL0     H 4616  10.060   7.934   9.488 -1.5346 -0.3931 -1.3829
  793MOL0     H 4617  10.212   7.669   9.470  0.7644  0.3764  1.1514
  793MOL0     H 4618  10.238   7.792   9.592 -0.3421 -0.4594  0.5584
  793MOL0     H 4619  10.256   7.788   9.292  3.0834 -2.6892  0.2711
  793MOL0     H 4620  10.277   7.943   9.372 -3.6011 -0.0517  1.2381
  793MOL0     H 4621  10.485   7.794   9.304 -0.4286 -0.5431 -0.8983
  793MOL0     H 4622  10.428   7.672   9.411  1.9289 -0.2109 -3.4643
  793MOL0     H 4623  10.450   7.820   9.600 -3.4350 -2.2977 -2.8503
  793MOL0     H 4624  10.470   7.965   9.497  0.2290  0.5374 -0.2119
  793MOL0     H 4625  10.671   7.726   9.522  1.1682 -0.6402 -0.5948
  793MOL0     H 4626  10.695   7.856   9.405 -0.5637  1.5328  0.5679
  793MOL0     H 4627  10.669   7.919   9.700  0.7391  2.4684  1.1251
  793MOL0     H 4628  10.667   8.021   9.548 -3.6248 -2.8665 -2.8694
  793MOL0     H 4629  10.889   7.875   9.818  0.4375  1.7905  0.2331
  793MOL0     H 4630  11.145   7.830   9.861  1.0578  0.0163 -0.1099
  793MOL0     H 4631  11.198   7.978   9.826 -1.0774 -0.9951  2.1578
  793MOL0     H 4632  11.300   7.850   9.607  1.6174  1.5747  1.6291
  793MOL0     H 4633  11.276   7.709   9.708 -3.1591  0.3238  1.6955
  793MOL0     H 4634  11.454   7.937   9.807  0.1862 -0.0286 -1.5331
  793MOL0     H 4635  11.393   7.796   9.897  0.7374  0.6648  0.6155
  793MOL0     H 4636  11.566   7.799   9.642 -3.3682 -1.0739 -1.5961
  793MOL0     H 4637  11.495   7.655   9.710 -1.8225  0.4603  0.5643
  793MOL0     H 4638  11.757   7.642   9.628 -0.1426 -1.5066  0.9264
  793MOL0     H 4639  11.981   7.568   9.612 -2.9538  2.1386 -1.6058
  793MOL0     H 4640  12.325   7.485   9.466  0.6074 -1.1440 -0.2751
  793MOL0     H 4641  12.479   7.312   9.378 -3.4491  2.4080 -0.7471
  793MOL0     H 4642  12.413   6.933   9.523  0.2352 -3.3715 -0.6619
  793MOL0     H 4643  12.579   6.880   9.495  0.2348  1.2335  3.9215
  793MOL0     H 4644  12.574   6.989   9.264  0.5736  2.4005  1.3701
  793MOL0     H 4645  12.406   7.029   9.307 -0.8458 -1.3193 -1.1067
  793MOL0     H 4646  12.386   6.755   9.325 -0.9688 -0.0694 -0.5127
  793MOL0     H 4647  12.566   6.764   9.283 -0.1761  0.3137  1.4961
  793MOL0     H 4648  12.311   6.860   9.130 -0.6579  1.4148 -0.0993
  793MOL0     H 4649  12.476   6.860   9.054  1.5558 -3.7145 -0.1715
  793MOL0     H 4650  12.504   6.639   9.059  0.3647 -2.1119 -1.5292
  793MOL0     H 4651  12.381   6.690   8.950 -0.0856 -0.8036 -0.5776
  793MOL0     H 4652  12.211   6.646   9.106  3.3712  3.8503 -2.3133
  793MOL0     H 4653  12.312   6.568   9.218 -0.2893  0.3819 -0.7030
  793MOL0     H 4654  12.372   6.388   9.067  1.1424 -0.3534 -2.0613
  793MOL0     H 4655  12.192   6.409   9.081 -1.5688  2.9395 -1.2235
  793MOL0     H 4656  12.310   6.539   8.843 -3.0844  1.0193 -1.2696
  793MOL0     H 4657  12.153   6.477   8.875 -0.5813  0.6660  2.9000
  793MOL0     H 4658  12.405   7.080   9.738  0.6844  1.1393  2.3736
  793MOL0     H 4659  12.261   7.258   9.811  1.4424  0.8015  0.7431
  793MOL0     H 4660  12.051   7.623  10.021 -0.6244 -2.9445  0.0000
  793MOL0     H 4661  11.802   7.752  10.034 -1.0775  0.2738 -0.8486
  793MOL0     H 4662   9.796   7.716   9.491  0.1384  1.5094  1.2380
  793MOL0     H 4663   9.655   7.540   9.612 -1.8303 -0.9029 -0.5132
  793MOL0     H 4664   9.478   7.106   9.530 -0.4979  1.8036  1.3650
  793MOL0     H 4665   9.387   6.876   9.534  0.6455 -1.7533 -0.4659
  793MOL0     H 4666   9.498   6.621   9.525 -0.3449 -1.8663 -0.3475
  793MOL0     H 4667   9.336   6.659   9.565 -1.3318 -2.4294  1.2435
  793MOL0     H 4668   9.286   6.459   9.653 -0.3169 -0.9417  1.0033
  793MOL0     H 4669   9.431   6.401   9.565 -0.3396  1.7755 -2.8009
  793MOL0     H 4670   9.411   6.478   9.856 -0.4636  0.2242 -0.2686
  793MOL0     H 4671   9.559   6.411   9.777  0.3726  0.6648  0.6342
  793MOL0     H 4672   9.454   6.242   9.901  0.6251  1.5072  0.8777
  793MOL0     H 4673   9.303   6.261   9.842 -0.2922 -0.6755 -0.0849
  793MOL0     H 4674   9.441   5.993   9.538 -0.3129 -1.4101 -0.5661
  793MOL0     H 4675   9.638   6.809   9.875  4.3976 -0.5123 -1.0565
  793MOL0     H 4676   9.729   7.031   9.871 -0.0964 -4.1164  1.0739
  794MOL0     O 4677  10.975   4.879   5.905 -0.0153 -0.6401 -0.1257
  794MOL0     C 4678  11.028   4.892   6.015  0.4983  0.1980 -0.1377
  794MOL0     O 4679  10.959   4.951   6.121 -0.2375  0.4834 -0.3690
  794MOL0     C 4680  10.822   4.957   6.110  0.7839 -0.2292  0.0986
  794MOL0     C 4681  10.742   4.859   6.055 -1.0026  0.7671 -0.1036
  794MOL0     C 4682  10.605   4.874   6.040  0.2496  0.8458 -0.0444
  794MOL0     C 4683  10.535   4.990   6.089 -0.0351 -0.0732  0.0258
  794MOL0     O 4684  10.401   5.018   6.074 -0.4511  0.1943 -0.4353
  794MOL0     C 4685  10.321   4.955   5.972  0.8629  0.0850  0.5411
  794MOL0     C 4686  10.268   4.817   6.002 -0.6495  0.0096 -0.5790
  794MOL0     C 4687  10.231   4.799   6.153 -0.7031  0.4027 -0.8912
  794MOL0     C 4688  10.098   4.876   6.179  0.9078  0.0318  0.2067
  794MOL0     C 4689  10.008   4.806   6.273 -0.6790  0.2567 -0.2105
  794MOL0     C 4690   9.892   4.882   6.326  1.0893 -0.0092 -0.0339
  794MOL0     C 4691   9.858   4.836   6.467  0.4861  0.5369 -0.7445
  794MOL0     C 4692   9.761   4.716   6.468  0.2310  0.2560  1.2015
  794MOL0     N 4693   9.662   4.707   6.571  0.4758 -0.3740  1.1711
  794MOL0     C 4694   9.672   4.728   6.711 -0.5278 -0.8233  0.6623
  794MOL0     C 4695   9.569   4.660   6.765 -0.8883  0.2375  0.3252
  794MOL0     C 4696   9.536   4.656   6.912  0.7973 -0.6575 -0.0807
  794MOL0     C 4697   9.381   4.672   6.948  0.1725 -0.8388 -0.6785
  794MOL0     C 4698   9.354   4.594   7.074  0.7863  1.1437  0.3885
  794MOL0     C 4699   9.207   4.618   7.129 -0.0546 -0.8039 -0.3616
  794MOL0     O 4700   9.195   4.758   7.155 -0.5949  0.1582 -0.3375
  794MOL0     C 4701   9.073   4.824   7.146  0.7207  0.5214  0.4495
  794MOL0     C 4702   9.072   4.961   7.179  0.0585 -0.0325 -0.6134
  794MOL0     C 4703   8.952   5.042   7.173  0.3466 -0.3801 -0.3094
  794MOL0     C 4704   8.827   4.982   7.142  0.5221  0.8448  0.0995
  794MOL0     C 4705   8.702   5.070   7.140  0.0546 -0.2290  0.3098
  794MOL0     O 4706   8.591   5.006   7.084  0.2758 -0.4252  0.0038
  794MOL0     C 4707   8.466   5.059   7.105  0.0245  0.0876 -0.3137
  794MOL0     C 4708   8.416   5.172   7.042  0.8808 -0.7571  0.4199
  794MOL0     C 4709   8.300   5.235   7.093 -0.2029 -0.4436  1.1101
  794MOL0     C 4710   8.228   5.171   7.186  0.3052 -0.0267 -0.0514
  794MOL0     O 4711   8.106   5.212   7.228  0.3553  0.3258  1.1797
  794MOL0     C 4712   8.002   5.212   7.129 -0.6652  0.4765 -0.1120
  794MOL0     C 4713   7.864   5.214   7.193  1.4841  0.2678 -0.0481
  794MOL0     C 4714   7.815   5.078   7.245 -0.7343  0.1668  0.4202
  794MOL0     C 4715   7.675   5.089   7.311 -1.0242  0.6765 -0.1000
  794MOL0     C 4716   7.605   4.951   7.331 -0.2584  0.1230  0.9372
  794MOL0     C 4717   7.520   4.941   7.456  0.4232  0.1829 -0.6022
  794MOL0     C 4718   7.410   4.839   7.431  0.7212  0.3494  0.8549
  794MOL0     C 4719   7.322   4.810   7.549  0.3510  0.6559 -0.4126
  794MOL0    Cl 4720   7.222   4.660   7.517  0.3597  0.0663  0.3479
  794MOL0     C 4721   8.276   5.065   7.262 -1.4171  0.0478  0.3728
  794MOL0     C 4722   8.398   5.002   7.215 -0.2008  0.4076  0.3595
  794MOL0     O 4723   8.702   5.179   7.199  0.2814  0.4033 -0.3332
  794MOL0     C 4724   8.830   4.843   7.100  1.1137 -1.2401  0.2711
  794MOL0     C 4725   8.952   4.762   7.107  0.0804 -0.8119 -0.5438
  794MOL0     N 4726   9.491   4.605   6.667 -0.6298 -0.1316 -1.1918
  794MOL0     N 4727   9.548   4.628   6.553 -0.5521  0.7524  0.8851
  794MOL0     C 4728  10.618   5.090   6.141  0.4068 -0.5903 -0.1785
  794MOL0     C 4729  10.752   5.070   6.155  0.3138 -0.2423  0.4135
  794MOL0     C 4730  11.166   4.846   6.041 -0.9345  1.0754  0.4346
  794MOL0     C 4731  11.242   4.790   5.936  0.1891  0.9160  0.0924
  794MOL0     C 4732  11.368   4.729   5.961  0.2104  0.6108  0.9752
  794MOL0     C 4733  11.433   4.744   6.085  0.1425 -0.3344 -0.4217
  794MOL0     O 4734  11.572   4.699   6.105 -0.5350 -0.2598 -0.0985
  794MOL0     C 4735  11.651   4.686   5.987 -0.8950 -0.3591 -0.2070
  794MOL0     C 4736  11.794   4.721   6.028 -0.2094  0.1423  0.8580
  794MOL0     C 4737  11.853   4.610   6.107 -0.0125 -0.0421 -0.1874
  794MOL0     C 4738  11.934   4.512   6.040 -0.4061 -0.7533 -0.1218
  794MOL0     C 4739  11.962   4.393   6.114 -0.5057 -0.3101 -1.5352
  794MOL0     C 4740  11.983   4.297   6.180 -0.3298 -0.1294  0.3310
  794MOL0     C 4741  11.363   4.820   6.191 -0.3084  1.1949 -0.3564
  794MOL0     C 4742  11.231   4.862   6.169  0.3285  0.0663 -0.4329
  794MOL0     H 4743  10.798   4.771   6.025  1.5806  2.7761 -1.5987
  794MOL0     H 4744  10.541   4.800   5.992  0.7064  0.2486  0.2592
  794MOL0     H 4745  10.364   4.968   5.872 -0.0442  1.3800  0.3034
  794MOL0     H 4746  10.232   5.017   5.963 -0.1434 -1.5734 -3.1856
  794MOL0     H 4747  10.347   4.744   5.982  0.7033  0.9375  1.1362
  794MOL0     H 4748  10.182   4.795   5.937 -0.7309  3.1442 -1.7104
  794MOL0     H 4749  10.316   4.844   6.206  0.0057 -1.6205 -0.2158
  794MOL0     H 4750  10.223   4.691   6.171  0.0030  0.4008 -0.5547
  794MOL0     H 4751  10.122   4.975   6.218 -0.4671  0.6285 -0.3999
  794MOL0     H 4752  10.048   4.878   6.082 -0.1443  1.6160  0.7382
  794MOL0     H 4753  10.075   4.791   6.359  0.0323  1.0614 -0.6132
  794MOL0     H 4754   9.970   4.710   6.237 -1.0613  0.7756 -1.2141
  794MOL0     H 4755   9.811   4.886   6.253 -0.0677 -0.9439  1.1391
  794MOL0     H 4756   9.920   4.986   6.347  0.0689  0.1160  0.8165
  794MOL0     H 4757   9.948   4.800   6.516  0.2520  0.6475 -0.2201
  794MOL0     H 4758   9.823   4.927   6.518  0.0328  0.1794 -0.4028
  794MOL0     H 4759   9.828   4.630   6.464 -0.8731 -0.7347  2.8290
  794MOL0     H 4760   9.700   4.711   6.378 -2.1380  1.2017  2.6709
  794MOL0     H 4761   9.736   4.786   6.777 -1.5879 -2.5371  3.3912
  794MOL0     H 4762   9.598   4.729   6.965  2.1361 -2.7646  1.4381
  794MOL0     H 4763   9.571   4.555   6.937 -0.4871 -0.5933  2.2718
  794MOL0     H 4764   9.325   4.634   6.861 -1.2640 -0.9579  0.2578
  794MOL0     H 4765   9.354   4.778   6.962 -0.9799 -1.2858  0.7694
  794MOL0     H 4766   9.371   4.486   7.069 -2.2294  0.5407  0.9347
  794MOL0     H 4767   9.414   4.630   7.159  1.2243  1.1123  0.0939
  794MOL0     H 4768   9.196   4.556   7.219 -1.9704  0.8317  0.6203
  794MOL0     H 4769   9.136   4.588   7.051 -2.4159  0.7889  1.0355
  794MOL0     H 4770   9.169   5.008   7.186 -0.2124  0.6864 -1.4733
  794MOL0     H 4771   8.956   5.148   7.196  0.0652 -0.3630 -0.3401
  794MOL0     H 4772   8.475   5.210   6.959 -2.3771  0.5018 -1.5121
  794MOL0     H 4773   8.273   5.328   7.042  0.9016 -0.6150  0.1554
  794MOL0     H 4774   8.002   5.119   7.072 -0.6070 -0.5770  1.5544
  794MOL0     H 4775   8.005   5.298   7.061  0.2504 -1.0123 -2.0477
  794MOL0     H 4776   7.785   5.264   7.136 -0.5882  0.7788  3.0224
  794MOL0     H 4777   7.866   5.283   7.277 -0.0958  0.3787 -0.0629
  794MOL0     H 4778   7.888   5.038   7.316 -1.3494 -1.5229  0.1477
  794MOL0     H 4779   7.817   5.007   7.162  2.4211  1.4317 -0.7313
  794MOL0     H 4780   7.695   5.129   7.411 -0.4860 -1.2861  0.6225
  794MOL0     H 4781   7.606   5.152   7.254  0.1430  0.0204 -2.3637
  794MOL0     H 4782   7.675   4.867   7.316  1.4483  2.0243 -3.3471
  794MOL0     H 4783   7.551   4.932   7.238  1.4024  3.6546 -0.9561
  794MOL0     H 4784   7.474   5.032   7.494  0.2350 -0.8756  1.9603
  794MOL0     H 4785   7.578   4.902   7.541 -3.7558 -0.6850  2.1771
  794MOL0     H 4786   7.341   4.877   7.355 -1.7036 -0.5242  2.5216
  794MOL0     H 4787   7.458   4.747   7.396 -1.2664 -0.5449  0.3462
  794MOL0     H 4788   7.260   4.899   7.568 -0.9785  0.0936 -1.8760
  794MOL0     H 4789   7.388   4.779   7.631  0.1095 -1.1955 -0.8704
  794MOL0     H 4790   8.212   5.018   7.335  0.0843  2.6171  3.5715
  794MOL0     H 4791   8.422   4.913   7.273  1.9611  0.2387 -0.7237
  794MOL0     H 4792   8.743   4.792   7.061 -0.0868  0.3088  0.8266
  794MOL0     H 4793   8.951   4.663   7.063  0.4874 -1.1944  0.2955
  794MOL0     H 4794  10.578   5.190   6.155  1.2443 -0.0845 -1.2775
  794MOL0     H 4795  10.812   5.157   6.181 -0.9105  1.7247 -2.7024
  794MOL0     H 4796  11.209   4.779   5.833 -0.5655 -3.1993  0.6049
  794MOL0     H 4797  11.427   4.679   5.885  0.9277 -1.4345  2.7670
  794MOL0     H 4798  11.617   4.765   5.919 -0.9890 -0.1322  0.0989
  794MOL0     H 4799  11.655   4.599   5.920 -1.7840  0.6742 -1.6761
  794MOL0     H 4800  11.861   4.742   5.943  0.4573 -0.3806  1.2407
  794MOL0     H 4801  11.800   4.812   6.088  4.7214 -1.2438  2.9656
  794MOL0     H 4802  11.769   4.558   6.155 -0.8704  2.3669  1.0970
  794MOL0     H 4803  11.906   4.641   6.198  2.6909 -4.0984 -0.1406
  794MOL0     H 4804  11.877   4.476   5.955  0.6472  0.5650 -1.4427
  794MOL0     H 4805  12.025   4.553   5.995 -0.9411 -3.4012 -4.0559
  794MOL0     H 4806  12.027   4.208   6.221  1.4355  0.2019 -0.7202
  794MOL0     H 4807  11.400   4.826   6.293 -3.0666 -2.0484  1.0426
  794MOL0     H 4808  11.191   4.919   6.252  0.6906 -2.9626  2.0100
  795MOL0     O 4809   4.168   7.828  11.022 -0.2068 -0.4244 -0.3597
  795MOL0     C 4810   4.142   7.927  11.092 -1.0323  0.3910  0.2967
  795MOL0     O 4811   4.056   7.931  11.193  0.3106  0.6501 -0.8549
  795MOL0     C 4812   3.996   7.816  11.245 -0.1930 -0.1372 -0.0694
  795MOL0     C 4813   3.868   7.836  11.315 -0.0138  0.4921  0.5618
  795MOL0     C 4814   3.788   7.730  11.360 -1.2436  0.6798  0.0274
  795MOL0     C 4815   3.839   7.596  11.356  0.1963 -0.8625 -0.7332
  795MOL0     O 4816   3.778   7.481  11.392  0.8896 -0.1090  0.4988
  795MOL0     C 4817   3.647   7.483  11.456  0.4693 -0.5976 -0.3594
  795MOL0     C 4818   3.615   7.349  11.520  0.5163 -0.7391 -0.0802
  795MOL0     C 4819   3.471   7.334  11.550  0.4378  1.1161 -0.0510
  795MOL0     C 4820   3.450   7.197  11.615 -0.6829  1.0815  0.2146
  795MOL0     C 4821   3.304   7.185  11.667  0.4309  0.7670  0.0475
  795MOL0     C 4822   3.211   7.169  11.550  0.2584 -0.7808  0.3613
  795MOL0     C 4823   3.062   7.160  11.599 -0.1798  0.3879  0.1724
  795MOL0     C 4824   3.011   7.294  11.654  0.0132  0.1308 -0.2308
  795MOL0     N 4825   2.869   7.297  11.669  0.4965 -1.3139 -0.1283
  795MOL0     C 4826   2.770   7.342  11.576 -0.1044  0.4573  0.4245
  795MOL0     C 4827   2.658   7.352  11.651  0.3650  0.5157 -0.0494
  795MOL0     C 4828   2.514   7.379  11.619 -0.1721 -0.5878 -0.1080
  795MOL0     C 4829   2.484   7.358  11.471  0.4671 -0.6344 -0.3398
  795MOL0     C 4830   2.331   7.361  11.441 -0.2673 -0.4528  0.4342
  795MOL0     C 4831   2.303   7.434  11.308  0.6709 -0.5731 -0.5399
  795MOL0     O 4832   2.335   7.585  11.327  0.1858 -0.0217 -0.1159
  795MOL0     C 4833   2.361   7.644  11.208 -0.0887  0.4852  0.1602
  795MOL0     C 4834   2.269   7.643  11.107  0.3713  0.0772  0.5739
  795MOL0     C 4835   2.289   7.714  10.990  0.5767 -0.1924  0.2800
  795MOL0     C 4836   2.419   7.763  10.962 -0.1602 -0.6274  0.0217
  795MOL0     C 4837   2.447   7.820  10.829 -0.9252  0.8228  0.1963
  795MOL0     O 4838   2.368   7.777  10.727  0.7446 -0.4388 -0.0684
  795MOL0     C 4839   2.390   7.823  10.598  0.9863 -0.6501  0.7950
  795MOL0     C 4840   2.473   7.927  10.548  0.3520 -0.2258  0.3906
  795MOL0     C 4841   2.490   7.943  10.408  0.1702 -0.1001  0.5379
  795MOL0     C 4842   2.421   7.860  10.326 -0.3338  0.3551  0.7665
  795MOL0     O 4843   2.426   7.880  10.187  0.4113  0.3399 -0.0094
  795MOL0     C 4844   2.486   7.770  10.115  0.7136  0.4641  1.1204
  795MOL0     C 4845   2.392   7.753   9.980  0.1227 -0.9504 -0.3827
  795MOL0     C 4846   2.258   7.675  10.002 -0.2305 -0.0202 -0.3278
  795MOL0     C 4847   2.190   7.627   9.878  0.3545 -0.6215 -0.2606
  795MOL0     C 4848   2.076   7.525   9.888  0.6063  0.5355 -0.0120
  795MOL0     C 4849   1.983   7.525   9.766  0.0847  0.5990  0.4050
  795MOL0     C 4850   1.888   7.400   9.779  1.5312 -0.2061  0.3558
  795MOL0     C 4851   1.815   7.366   9.646 -1.6009  0.1171 -0.1691
  795MOL0    Cl 4852   1.929   7.280   9.558  0.2010  0.0153  0.1081
  795MOL0     C 4853   2.347   7.757  10.367 -0.3437 -0.1501 -0.3639
  795MOL0     C 4854   2.327   7.740  10.500  0.6139  0.1845 -0.5798
  795MOL0     O 4855   2.521   7.910  10.827  0.7229  0.4185  0.3530
  795MOL0     C 4856   2.514   7.759  11.063  0.9049  0.3543  0.4419
  795MOL0     C 4857   2.481   7.711  11.192 -0.5615  1.0249  0.2015
  795MOL0     N 4858   2.687   7.309  11.780 -0.3906  0.7011  0.1822
  795MOL0     N 4859   2.810   7.278  11.792  0.5355 -0.6819  0.2644
  795MOL0     C 4860   3.967   7.577  11.300  0.1891 -0.6719  0.3898
  795MOL0     C 4861   4.041   7.680  11.249 -0.2830 -0.7560  0.2658
  795MOL0     C 4862   4.207   8.050  11.059 -1.0588 -0.0495  0.5290
  795MOL0     C 4863   4.333   8.037  10.996  0.0902  0.0849  0.5034
  795MOL0     C 4864   4.411   8.151  10.958 -0.0329  0.1201 -0.0737
  795MOL0     C 4865   4.362   8.282  10.989 -0.5147  0.1758  0.6207
  795MOL0     O 4866   4.416   8.401  10.951 -0.8462 -0.0582  0.5658
  795MOL0     C 4867   4.553   8.411  10.915 -0.0524  0.0276  0.3812
  795MOL0     C 4868   4.564   8.416  10.762  0.8220  0.2258  0.1448
  795MOL0     C 4869   4.705   8.354  10.716  0.3118 -0.1327 -0.6051
  795MOL0     C 4870   4.748   8.393  10.571 -0.4581 -0.7036  0.2593
  795MOL0     C 4871   4.735   8.285  10.463  0.1161  0.5707  1.1953
  795MOL0     C 4872   4.744   8.191  10.380 -0.8254  0.0296 -0.5069
  795MOL0     C 4873   4.241   8.284  11.064 -0.2096 -0.0969 -0.5064
  795MOL0     C 4874   4.155   8.176  11.084 -0.9314  0.1470 -0.7411
  795MOL0     H 4875   3.828   7.932  11.347 -5.2253 -2.0079  2.7239
  795MOL0     H 4876   3.687   7.752  11.394 -1.4310  1.4227 -0.9697
  795MOL0     H 4877   3.571   7.523  11.388 -0.2139 -0.6432  0.3668
  795MOL0     H 4878   3.645   7.547  11.544  0.3420 -2.0365  0.7316
  795MOL0     H 4879   3.670   7.346  11.615  0.8544 -1.8413 -0.2981
  795MOL0     H 4880   3.653   7.278  11.446 -0.3858 -2.6765  1.2160
  795MOL0     H 4881   3.417   7.323  11.455 -0.4675  0.4613  0.5246
  795MOL0     H 4882   3.440   7.411  11.621 -3.5527 -0.7763  0.5594
  795MOL0     H 4883   3.460   7.111  11.548 -2.2302 -0.8585  2.2853
  795MOL0     H 4884   3.523   7.173  11.693  0.0186  1.3023 -0.3659
  795MOL0     H 4885   3.281   7.281  11.714  4.4873  0.1912  3.9576
  795MOL0     H 4886   3.286   7.108  11.742 -1.6679  1.5962  0.4632
  795MOL0     H 4887   3.229   7.080  11.490 -0.8007 -0.5393 -0.3474
  795MOL0     H 4888   3.220   7.254  11.481  1.9978 -0.3026  1.1183
  795MOL0     H 4889   3.001   7.125  11.515  0.2234  1.6658 -0.6899
  795MOL0     H 4890   3.058   7.084  11.678  2.1511  0.5619  0.5517
  795MOL0     H 4891   3.047   7.380  11.597  1.6302  1.1718  2.1502
  795MOL0     H 4892   3.063   7.306  11.750  2.9476 -0.6300 -1.5890
  795MOL0     H 4893   2.759   7.334  11.468 -1.1598 -0.1142  0.5586
  795MOL0     H 4894   2.485   7.475  11.663  3.2415 -1.0321  3.6105
  795MOL0     H 4895   2.459   7.293  11.657 -1.8819 -0.2206 -1.5796
  795MOL0     H 4896   2.533   7.265  11.441  1.9204  0.6353 -2.1556
  795MOL0     H 4897   2.530   7.441  11.416 -3.9040  1.5488 -1.1410
  795MOL0     H 4898   2.288   7.260  11.435 -2.7257  0.4475  1.4219
  795MOL0     H 4899   2.274   7.407  11.523 -0.7641 -2.9753  1.6027
  795MOL0     H 4900   2.204   7.408  11.269 -0.3770 -0.1980  1.6910
  795MOL0     H 4901   2.369   7.404  11.226  1.8051  0.7422 -0.1471
  795MOL0     H 4902   2.177   7.589  11.128  0.9696 -0.2600  2.5366
  795MOL0     H 4903   2.209   7.728  10.917  0.9408  0.8429  0.0689
  795MOL0     H 4904   2.527   7.994  10.614 -1.0731 -1.6151  3.1317
  795MOL0     H 4905   2.558   8.014  10.362 -0.2974 -0.6867 -1.1389
  795MOL0     H 4906   2.504   7.677  10.170 -2.4354 -0.4028  0.9029
  795MOL0     H 4907   2.581   7.812  10.083  0.6903  1.2926  2.0760
  795MOL0     H 4908   2.457   7.717   9.901  0.9842 -2.5432  0.9984
  795MOL0     H 4909   2.360   7.854   9.952  0.4358 -0.7175  0.0755
  795MOL0     H 4910   2.187   7.741  10.053  2.3825  1.9776  0.9583
  795MOL0     H 4911   2.264   7.589  10.069  0.3682  0.9694  0.9222
  795MOL0     H 4912   2.151   7.714   9.824  2.7611  2.7614  2.8758
  795MOL0     H 4913   2.274   7.584   9.823  1.5538 -0.8397  1.6472
  795MOL0     H 4914   2.008   7.545   9.971 -0.5700  0.4384 -0.9341
  795MOL0     H 4915   2.127   7.429   9.901 -0.7892 -0.7051 -2.9984
  795MOL0     H 4916   2.045   7.525   9.676 -2.1163 -1.1105 -1.2333
  795MOL0     H 4917   1.928   7.619   9.761 -0.7674  0.0978  0.1335
  795MOL0     H 4918   1.949   7.320   9.822 -0.4056 -1.6736  0.5244
  795MOL0     H 4919   1.801   7.415   9.845 -0.4017 -2.2038 -1.6076
  795MOL0     H 4920   1.801   7.457   9.587 -0.4393 -0.0693 -0.7547
  795MOL0     H 4921   1.727   7.302   9.658 -3.0893  2.1963  0.4931
  795MOL0     H 4922   2.288   7.702  10.295 -0.6570  0.9477 -0.9735
  795MOL0     H 4923   2.251   7.668  10.528  0.5589  0.5803  0.3428
  795MOL0     H 4924   2.618   7.791  11.055  1.2493 -0.9571 -0.7006
  795MOL0     H 4925   2.555   7.702  11.271 -0.0907 -0.8869 -0.4087
  795MOL0     H 4926   3.999   7.475  11.279  2.1525  0.4407 -2.4524
  795MOL0     H 4927   4.131   7.666  11.189 -1.2242  3.2622 -2.5276
  795MOL0     H 4928   4.369   7.935  10.982 -1.3328 -0.5563  1.3281
  795MOL0     H 4929   4.508   8.148  10.910  0.5690 -0.4731  1.1508
  795MOL0     H 4930   4.615   8.332  10.959 -0.9738 -2.3654 -2.2867
  795MOL0     H 4931   4.587   8.501  10.967 -1.8753  1.7674 -1.2502
  795MOL0     H 4932   4.486   8.352  10.718 -0.4458  2.7636 -1.5923
  795MOL0     H 4933   4.558   8.519  10.727 -1.1860  0.4766  1.1075
  795MOL0     H 4934   4.694   8.249  10.745  0.8452 -0.1252 -0.3696
  795MOL0     H 4935   4.781   8.400  10.779  1.0016  0.5447 -1.8778
  795MOL0     H 4936   4.728   8.497  10.545 -2.2444 -1.1127 -0.1265
  795MOL0     H 4937   4.856   8.397  10.586 -0.0128 -0.8748 -2.5199
  795MOL0     H 4938   4.751   8.115  10.304 -0.0705  1.2479 -1.7060
  795MOL0     H 4939   4.205   8.383  11.089 -0.7013 -0.3055 -0.3860
  795MOL0     H 4940   4.060   8.193  11.133 -0.2811 -0.0971  0.6558
  796MOL0     O 4941   9.083   6.124   3.217  0.2321  0.2113  0.0622
  796MOL0     C 4942   8.962   6.099   3.213  0.2121  0.1464 -1.1765
  796MOL0     O 4943   8.887   6.058   3.110  0.5076 -0.2566  0.2703
  796MOL0     C 4944   8.954   6.050   2.989  0.1824  0.1206 -0.4131
  796MOL0     C 4945   8.993   5.933   2.937 -1.5018  1.1051 -0.6423
  796MOL0     C 4946   9.058   5.937   2.809 -0.3725 -0.0909  0.1978
  796MOL0     C 4947   9.081   6.057   2.736 -0.2874  0.5939 -0.6450
  796MOL0     O 4948   9.140   6.072   2.614  0.6803  0.1799 -0.8244
  796MOL0     C 4949   9.181   5.956   2.538  0.7500 -0.5917  1.2356
  796MOL0     C 4950   9.266   6.015   2.414 -0.5464  0.7461 -0.4251
  796MOL0     C 4951   9.347   5.897   2.349  0.4432  0.3973 -0.4162
  796MOL0     C 4952   9.250   5.793   2.293 -0.8269 -0.5038 -0.2551
  796MOL0     C 4953   9.319   5.658   2.278  0.5285  0.0783 -1.2444
  796MOL0     C 4954   9.330   5.568   2.411  0.3089 -0.0915 -0.3487
  796MOL0     C 4955   9.326   5.423   2.397 -0.6806 -0.3688  0.4134
  796MOL0     C 4956   9.192   5.359   2.419  0.1728  0.1542  0.9044
  796MOL0     N 4957   9.185   5.216   2.400  0.3294  0.6831  0.3251
  796MOL0     C 4958   9.173   5.168   2.272 -0.2380 -0.5180  0.6763
  796MOL0     C 4959   9.107   5.050   2.283 -0.0883  0.5916  0.0461
  796MOL0     C 4960   9.047   4.968   2.174 -0.1356 -0.4369  0.3755
  796MOL0     C 4961   9.079   4.827   2.207 -0.0101 -0.9339 -0.5682
  796MOL0     C 4962   9.036   4.722   2.108 -0.3365 -0.0051 -0.0515
  796MOL0     C 4963   9.066   4.586   2.146  0.2240  0.3686  0.0011
  796MOL0     O 4964   9.196   4.559   2.223  0.2471 -0.4479  0.3646
  796MOL0     C 4965   9.320   4.577   2.173 -0.4906  0.2825 -0.0740
  796MOL0     C 4966   9.347   4.618   2.042  0.1531 -0.4100 -0.4522
  796MOL0     C 4967   9.478   4.637   1.999  0.4877 -0.2019  0.2344
  796MOL0     C 4968   9.579   4.639   2.084 -0.3717 -0.4167  0.3390
  796MOL0     C 4969   9.707   4.693   2.043  0.2378 -0.1669 -0.4833
  796MOL0     O 4970   9.796   4.726   2.140  0.8516  0.5487 -0.0988
  796MOL0     C 4971   9.906   4.795   2.116  0.8225 -0.6383  0.3261
  796MOL0     C 4972  10.019   4.768   2.192 -0.6631 -0.2448  0.7005
  796MOL0     C 4973  10.135   4.845   2.184  0.5231  0.5699 -0.8645
  796MOL0     C 4974  10.149   4.950   2.085 -1.0498 -0.5457  0.8100
  796MOL0     O 4975  10.261   5.030   2.060 -0.1087  0.4381 -0.5101
  796MOL0     C 4976  10.340   5.090   2.165 -0.4451 -0.5266  0.5818
  796MOL0     C 4977  10.331   5.243   2.150 -0.0839 -0.4240 -0.0173
  796MOL0     C 4978  10.173   5.294   2.155 -1.1027  0.1004 -0.3204
  796MOL0     C 4979  10.175   5.434   2.206  0.5381 -0.9185 -0.3516
  796MOL0     C 4980  10.037   5.506   2.179 -0.2801 -0.3803 -0.4795
  796MOL0     C 4981  10.025   5.660   2.209  0.2510 -0.0662  0.5098
  796MOL0     C 4982   9.906   5.734   2.150  1.0549  0.3818 -0.1838
  796MOL0     C 4983   9.892   5.878   2.192 -0.2969 -1.1032 -0.0487
  796MOL0    Cl 4984   9.718   5.926   2.223 -0.0416 -0.5340 -0.0078
  796MOL0     C 4985  10.039   4.972   2.004  0.8308 -0.1453 -0.4473
  796MOL0     C 4986   9.918   4.898   2.020  0.6404 -0.4967 -0.8458
  796MOL0     O 4987   9.725   4.700   1.923 -0.2125  0.1529  0.8719
  796MOL0     C 4988   9.555   4.615   2.220 -0.2903  0.5954  1.0950
  796MOL0     C 4989   9.430   4.570   2.264 -0.4882  0.0117  0.4672
  796MOL0     N 4990   9.063   5.037   2.414 -0.0448  1.2844  0.1786
  796MOL0     N 4991   9.122   5.132   2.485  1.3089 -0.1807  1.3871
  796MOL0     C 4992   9.040   6.173   2.798  0.2737  0.6164  0.4475
  796MOL0     C 4993   8.976   6.169   2.922  0.2774  0.0568 -0.3580
  796MOL0     C 4994   8.894   6.096   3.349 -0.0106 -0.0049  0.2582
  796MOL0     C 4995   8.761   6.037   3.361  0.0714  0.1924  0.2706
  796MOL0     C 4996   8.687   6.047   3.481  0.0764  0.6610 -0.4231
  796MOL0     C 4997   8.744   6.122   3.593 -0.3751  0.8489  0.2437
  796MOL0     O 4998   8.661   6.130   3.690  0.3665  0.0155 -0.7379
  796MOL0     C 4999   8.709   6.120   3.820  0.5263  0.6831 -0.1370
  796MOL0     C 5000   8.670   6.244   3.909 -0.7169  0.0235  0.2928
  796MOL0     C 5001   8.718   6.251   4.056  0.1792  0.0502  0.1961
  796MOL0     C 5002   8.855   6.201   4.083  0.0464  0.7861  0.7204
  796MOL0     C 5003   8.961   6.266   3.999  0.0251 -0.2251  0.6755
  796MOL0     C 5004   9.035   6.333   3.928  0.3837 -0.7877  0.0704
  796MOL0     C 5005   8.875   6.167   3.579 -0.7688 -0.1051  0.8168
  796MOL0     C 5006   8.947   6.165   3.460  0.1522 -0.8546  1.4232
  796MOL0     H 5007   9.002   5.839   2.990 -1.2782 -0.3432 -3.0938
  796MOL0     H 5008   9.093   5.841   2.770  4.1567  1.6812 -0.7089
  796MOL0     H 5009   9.094   5.891   2.528 -1.0325  1.9363 -2.0868
  796MOL0     H 5010   9.262   5.911   2.595  1.3633  2.4788  3.0456
  796MOL0     H 5011   9.318   6.102   2.454 -3.0165  2.1254 -0.0006
  796MOL0     H 5012   9.193   6.061   2.347 -0.4317 -0.0051 -1.0851
  796MOL0     H 5013   9.411   5.852   2.426  0.0915 -1.9169 -1.4068
  796MOL0     H 5014   9.415   5.929   2.270 -0.1057  1.2280 -0.5651
  796MOL0     H 5015   9.157   5.777   2.348  0.2194 -4.2895  0.6870
  796MOL0     H 5016   9.225   5.835   2.195  3.2175 -0.8178 -1.6345
  796MOL0     H 5017   9.417   5.669   2.232  1.0537  0.3756 -0.0969
  796MOL0     H 5018   9.255   5.595   2.215  1.2811 -0.2476 -1.6958
  796MOL0     H 5019   9.247   5.609   2.470  0.0122 -0.8658 -0.2133
  796MOL0     H 5020   9.412   5.600   2.476 -0.6311 -2.5812  2.2735
  796MOL0     H 5021   9.369   5.390   2.302  3.6400 -0.5959  2.2368
  796MOL0     H 5022   9.398   5.382   2.468 -1.4670 -2.3953  0.1219
  796MOL0     H 5023   9.142   5.390   2.326  3.3822 -1.3562 -1.5229
  796MOL0     H 5024   9.142   5.387   2.512  0.1520 -0.6461  1.1370
  796MOL0     H 5025   9.213   5.210   2.180  0.0313  3.2398  2.3124
  796MOL0     H 5026   9.088   4.982   2.073 -0.7255  3.4865  0.5138
  796MOL0     H 5027   8.938   4.982   2.173 -0.0228  1.0169  2.4154
  796MOL0     H 5028   9.046   4.813   2.311  1.5890  2.0586  0.4391
  796MOL0     H 5029   9.188   4.818   2.201  0.2726  1.1851  0.4936
  796MOL0     H 5030   8.931   4.744   2.087 -0.4750 -0.8552 -0.2493
  796MOL0     H 5031   9.088   4.752   2.017  1.3456  1.1610  1.2111
  796MOL0     H 5032   9.041   4.509   2.073 -0.7576  0.3221  0.3733
  796MOL0     H 5033   8.998   4.569   2.230  1.4955 -2.4823  0.5527
  796MOL0     H 5034   9.263   4.619   1.973 -0.3096 -3.8441 -0.1058
  796MOL0     H 5035   9.496   4.668   1.896 -0.5615  2.8183  0.8718
  796MOL0     H 5036  10.021   4.681   2.258  3.1000  0.2494  1.4319
  796MOL0     H 5037  10.221   4.834   2.249  0.9796 -0.2906 -1.5926
  796MOL0     H 5038  10.442   5.056   2.145 -0.6645  0.0265 -1.6952
  796MOL0     H 5039  10.305   5.069   2.267  0.8025 -1.5781  0.8347
  796MOL0     H 5040  10.388   5.292   2.070  2.8317 -2.2618  0.8017
  796MOL0     H 5041  10.370   5.281   2.244 -1.6975 -0.9251  0.8983
  796MOL0     H 5042  10.114   5.224   2.215  1.1953 -1.0600  0.7040
  796MOL0     H 5043  10.131   5.301   2.054 -4.2314  0.2992  0.8822
  796MOL0     H 5044  10.210   5.453   2.308 -2.9206 -2.8649  1.3654
  796MOL0     H 5045  10.253   5.476   2.141 -0.0417 -2.4811 -2.1487
  796MOL0     H 5046   9.963   5.448   2.236  2.1089 -1.3318  1.8976
  796MOL0     H 5047  10.009   5.494   2.074 -0.6753 -2.5211 -0.1835
  796MOL0     H 5048  10.106   5.721   2.167 -2.1938  1.8860 -1.7232
  796MOL0     H 5049  10.019   5.664   2.318 -0.2278 -3.5375  0.7230
  796MOL0     H 5050   9.893   5.702   2.047  3.5497 -0.9151 -0.1484
  796MOL0     H 5051   9.819   5.687   2.198 -0.7163  3.3439 -0.2365
  796MOL0     H 5052   9.917   5.948   2.112  1.4341 -0.4031  1.0597
  796MOL0     H 5053   9.961   5.893   2.276 -1.0901  0.5963  0.3520
  796MOL0     H 5054  10.050   5.063   1.946 -1.8356  1.6464  1.5917
  796MOL0     H 5055   9.834   4.927   1.958 -0.3807  0.3572  0.8568
  796MOL0     H 5056   9.641   4.619   2.286  0.8060  0.7664 -0.2794
  796MOL0     H 5057   9.412   4.552   2.370 -1.1493 -1.8840  0.0737
  796MOL0     H 5058   9.061   6.262   2.739  1.9502 -0.0600 -0.0069
  796MOL0     H 5059   8.939   6.256   2.975 -0.1737  0.8354 -1.9245
  796MOL0     H 5060   8.715   5.975   3.284 -1.8407 -0.3205  1.7303
  796MOL0     H 5061   8.590   5.999   3.483 -1.8666  4.2013  2.0232
  796MOL0     H 5062   8.817   6.108   3.828  0.7221  0.4680 -2.4933
  796MOL0     H 5063   8.648   6.035   3.853  0.2538 -0.6313 -3.5991
  796MOL0     H 5064   8.702   6.334   3.856 -1.2496  1.2690  2.0109
  796MOL0     H 5065   8.561   6.246   3.904 -0.6494 -0.1159 -2.7051
  796MOL0     H 5066   8.637   6.196   4.104 -2.0377  1.5992 -1.5447
  796MOL0     H 5067   8.715   6.351   4.101 -4.5345  0.1024  0.2438
  796MOL0     H 5068   8.871   6.237   4.185 -0.2677 -2.9115  2.2275
  796MOL0     H 5069   8.867   6.092   4.085  1.5395  0.8182 -1.8170
  796MOL0     H 5070   9.107   6.398   3.884 -0.6973  1.1762  1.0637
  796MOL0     H 5071   8.931   6.221   3.655  0.5046 -0.7820  0.3956
  796MOL0     H 5072   9.039   6.222   3.468 -0.0548 -0.0941 -0.9145
  797MOL0     O 5073   6.098  11.127   5.534  0.2830  0.3741  0.1749
  797MOL0     C 5074   6.026  11.181   5.457 -0.4679 -0.1731  0.6460
  797MOL0     O 5075   6.034  11.309   5.422  0.4803 -0.1887 -0.3903
  797MOL0     C 5076   6.134  11.395   5.469  1.0036  0.2241  0.4667
  797MOL0     C 5077   6.098  11.529   5.473  0.2668  0.3523 -0.1131
  797MOL0     C 5078   6.192  11.631   5.512 -0.3030 -0.3349  0.3788
  797MOL0     C 5079   6.321  11.590   5.554  0.6450  0.0495  0.2166
  797MOL0     O 5080   6.400  11.693   5.597  0.4126  0.2288  0.0893
  797MOL0     C 5081   6.536  11.677   5.543  0.3835  0.5995 -1.1225
  797MOL0     C 5082   6.623  11.804   5.558  0.5921 -0.2234 -0.7148
  797MOL0     C 5083   6.690  11.821   5.699 -0.2847 -0.1692 -0.4450
  797MOL0     C 5084   6.796  11.942   5.713 -0.0959  0.0974  0.0263
  797MOL0     C 5085   6.874  11.930   5.843 -0.2294  0.6649 -0.4654
  797MOL0     C 5086   6.975  12.048   5.860  0.4646  0.1300 -0.9972
  797MOL0     C 5087   7.032  12.036   6.000 -0.0281 -0.8086 -0.2330
  797MOL0     C 5088   6.936  12.041   6.125  0.6361  0.5267  0.0521
  797MOL0     N 5089   6.998  12.042   6.254  0.3343  0.4838 -0.1322
  797MOL0     C 5090   7.088  12.138   6.292 -0.5968 -0.0544 -0.8134
  797MOL0     C 5091   7.094  12.123   6.431  0.6961 -0.0335  1.2313
  797MOL0     C 5092   7.177  12.219   6.511 -0.0333  1.1129 -0.2037
  797MOL0     C 5093   7.111  12.251   6.637 -0.2843  0.8753  0.2219
  797MOL0     C 5094   7.091  12.140   6.734 -0.3081  0.4995 -0.0916
  797MOL0     C 5095   7.222  12.058   6.756  0.7464 -0.0277  0.8569
  797MOL0     O 5096   7.209  11.956   6.856  0.3362 -0.9213 -0.5184
  797MOL0     C 5097   7.290  11.842   6.851  0.0095 -0.2812 -0.3173
  797MOL0     C 5098   7.242  11.729   6.914 -0.0543  0.2927  0.2558
  797MOL0     C 5099   7.325  11.615   6.930 -0.4000 -0.1039 -0.3325
  797MOL0     C 5100   7.461  11.623   6.888 -0.6541  0.1339 -0.4510
  797MOL0     C 5101   7.563  11.525   6.936  0.9097  0.1296  0.5935
  797MOL0     O 5102   7.528  11.467   7.052  0.3168 -0.0176 -0.0198
  797MOL0     C 5103   7.575  11.339   7.070 -0.4615 -0.3103 -0.1231
  797MOL0     C 5104   7.681  11.324   7.162 -0.2387  0.2811  0.1660
  797MOL0     C 5105   7.727  11.194   7.200  0.0203  1.1955  0.0358
  797MOL0     C 5106   7.650  11.084   7.153 -0.0266  1.2345 -0.7184
  797MOL0     O 5107   7.687  10.953   7.187 -0.0451 -0.2692 -1.3213
  797MOL0     C 5108   7.759  10.928   7.315  0.2924 -0.8176  1.2365
  797MOL0     C 5109   7.682  10.823   7.402  0.8398  0.5816  0.9203
  797MOL0     C 5110   7.750  10.794   7.540 -0.4124 -0.2935  0.6385
  797MOL0     C 5111   7.885  10.733   7.520  0.7152  0.1543 -0.2359
  797MOL0     C 5112   7.934  10.677   7.654 -0.4540 -0.0091 -0.1212
  797MOL0     C 5113   8.084  10.688   7.673 -1.1108  0.7981  0.0638
  797MOL0     C 5114   8.165  10.599   7.586  1.2499 -1.3279 -0.8299
  797MOL0     C 5115   8.304  10.614   7.579 -0.1976 -0.0440 -0.1018
  797MOL0    Cl 5116   8.338  10.765   7.480 -0.4632 -0.1417  0.1162
  797MOL0     C 5117   7.550  11.098   7.051  0.2763 -0.5009 -0.5013
  797MOL0     C 5118   7.513  11.230   7.006 -0.0057  0.8174 -0.4257
  797MOL0     O 5119   7.654  11.481   6.864 -0.3015 -0.0512 -0.0381
  797MOL0     C 5120   7.507  11.733   6.818  0.7640  0.3173  0.1835
  797MOL0     C 5121   7.419  11.834   6.796 -0.0968 -1.0634  1.1859
  797MOL0     N 5122   7.009  12.018   6.462  0.1540  0.6893 -0.6331
  797MOL0     N 5123   6.954  11.969   6.358  0.8057 -1.0634  0.1147
  797MOL0     C 5124   6.354  11.453   5.539 -0.1520 -0.0689  0.7876
  797MOL0     C 5125   6.265  11.359   5.491  0.4236 -0.9549  0.1838
  797MOL0     C 5126   5.907  11.105   5.409  0.2534 -0.2897  0.0674
  797MOL0     C 5127   5.865  10.981   5.467 -0.4520  0.0506  0.3093
  797MOL0     C 5128   5.760  10.910   5.404 -0.6827 -0.2790  0.5773
  797MOL0     C 5129   5.678  10.979   5.308 -0.3461  0.8452 -0.8016
  797MOL0     O 5130   5.561  10.921   5.262 -0.2694  0.3139 -0.2370
  797MOL0     C 5131   5.445  10.996   5.227 -1.1784  0.0629  0.6726
  797MOL0     C 5132   5.418  11.127   5.307 -0.0513  0.3010  0.1120
  797MOL0     C 5133   5.276  11.169   5.275 -0.1368 -0.6356 -0.7658
  797MOL0     C 5134   5.164  11.103   5.351 -0.2248 -0.1778 -0.0199
  797MOL0     C 5135   5.036  11.142   5.282  0.1736  0.9734  0.8070
  797MOL0     C 5136   4.922  11.162   5.244  1.5583  0.1438 -0.6304
  797MOL0     C 5137   5.725  11.095   5.256  0.7801 -0.3428 -0.1228
  797MOL0     C 5138   5.846  11.152   5.298  0.9744  0.1083 -0.5736
  797MOL0     H 5139   5.996  11.554   5.446  0.3095 -0.8573 -1.5771
  797MOL0     H 5140   6.155  11.733   5.522  0.5295 -0.0944  1.1393
  797MOL0     H 5141   6.520  11.666   5.435 -1.9587 -2.5595 -0.6019
  797MOL0     H 5142   6.587  11.592   5.590  1.1959  1.0160 -1.2315
  797MOL0     H 5143   6.557  11.889   5.544  1.2919  0.3130 -0.8271
  797MOL0     H 5144   6.700  11.803   5.481 -0.1953  0.2842 -1.5179
  797MOL0     H 5145   6.730  11.723   5.727 -0.1982 -0.9308 -2.9749
  797MOL0     H 5146   6.620  11.844   5.780  0.3231  3.7341 -0.8548
  797MOL0     H 5147   6.872  11.955   5.635  4.1674 -1.8845  3.3670
  797MOL0     H 5148   6.744  12.038   5.717  1.6534  1.1530 -1.2547
  797MOL0     H 5149   6.929  11.836   5.847  0.1136  0.7731 -1.9092
  797MOL0     H 5150   6.805  11.939   5.927 -2.3200 -1.0882 -1.9035
  797MOL0     H 5151   6.910  12.136   5.858 -3.0517 -2.2528 -1.4859
  797MOL0     H 5152   7.053  12.047   5.784  0.8615 -0.9642 -0.6000
  797MOL0     H 5153   7.078  11.938   5.989  0.5708 -0.3365 -2.3763
  797MOL0     H 5154   7.108  12.110   6.029  1.1828 -1.4327 -1.7000
  797MOL0     H 5155   6.884  11.945   6.125 -0.9417  1.2342  3.4065
  797MOL0     H 5156   6.861  12.120   6.120  2.4310  2.3589  0.4852
  797MOL0     H 5157   7.141  12.210   6.232 -1.5218  2.7506  1.5274
  797MOL0     H 5158   7.202  12.306   6.449  1.2878  0.7978 -0.1383
  797MOL0     H 5159   7.272  12.168   6.524 -0.1219 -0.3300 -4.0145
  797MOL0     H 5160   7.009  12.284   6.616  0.6118  3.0854 -1.0732
  797MOL0     H 5161   7.159  12.340   6.680 -0.9700  1.3279  0.0698
  797MOL0     H 5162   7.052  12.197   6.819 -2.0241  1.3987 -1.4068
  797MOL0     H 5163   7.022  12.061   6.705 -0.9158  0.3537  1.6697
  797MOL0     H 5164   7.304  12.128   6.774  3.2494 -2.2629 -1.0184
  797MOL0     H 5165   7.252  12.020   6.658 -2.3975  4.2638 -2.1691
  797MOL0     H 5166   7.147  11.729   6.966 -0.6594 -4.4770 -0.3970
  797MOL0     H 5167   7.288  11.533   6.990 -0.2576 -1.1456 -1.6202
  797MOL0     H 5168   7.723  11.406   7.220  1.5719 -0.7950  0.4578
  797MOL0     H 5169   7.811  11.192   7.268  0.4255 -2.5581 -0.3479
  797MOL0     H 5170   7.774  11.023   7.369  4.2260  0.4585 -1.6278
  797MOL0     H 5171   7.858  10.891   7.287  1.1726  0.4738  2.4909
  797MOL0     H 5172   7.687  10.726   7.351 -0.3977  1.9202 -1.9709
  797MOL0     H 5173   7.578  10.850   7.419  0.0104  1.0590 -3.7162
  797MOL0     H 5174   7.683  10.721   7.588 -1.4200 -0.5876 -1.1283
  797MOL0     H 5175   7.758  10.889   7.593  1.0795  1.3185 -2.2590
  797MOL0     H 5176   7.878  10.651   7.448 -2.3748 -1.7388  1.9594
  797MOL0     H 5177   7.957  10.804   7.479  1.7760 -1.6600 -1.6848
  797MOL0     H 5178   7.901  10.576   7.679  1.6364 -0.8220 -0.4524
  797MOL0     H 5179   7.896  10.747   7.729 -1.5702  1.4328 -1.9570
  797MOL0     H 5180   8.113  10.660   7.774  0.1028  3.3957  0.5329
  797MOL0     H 5181   8.108  10.795   7.664  0.7792  0.3517 -0.5865
  797MOL0     H 5182   8.146  10.497   7.620 -2.7250 -0.4311  0.1156
  797MOL0     H 5183   8.123  10.602   7.485  0.0896 -0.7137 -0.3592
  797MOL0     H 5184   8.350  10.526   7.533 -0.6151 -0.4510  0.2520
  797MOL0     H 5185   8.353  10.630   7.675 -0.1436  2.3634 -0.4731
  797MOL0     H 5186   7.491  11.019   7.006 -3.1743  1.7225 -0.2533
  797MOL0     H 5187   7.444  11.247   6.924 -0.8481  0.7255  0.2492
  797MOL0     H 5188   7.606  11.750   6.779  0.4616  0.7764 -0.4033
  797MOL0     H 5189   7.451  11.917   6.734 -1.6279  1.5376  3.6252
  797MOL0     H 5190   6.449  11.417   5.575  0.5038  0.2071 -0.5925
  797MOL0     H 5191   6.302  11.258   5.478  1.8495 -0.9445  3.3710
  797MOL0     H 5192   5.923  10.935   5.546  0.5834 -0.9909 -1.0155
  797MOL0     H 5193   5.731  10.811   5.437 -1.3464  1.2156  5.1384
  797MOL0     H 5194   5.358  10.932   5.243 -0.7394 -0.7317 -0.0585
  797MOL0     H 5195   5.450  11.022   5.121 -1.7462 -1.8671  0.1390
  797MOL0     H 5196   5.437  11.104   5.412  0.1519 -1.3176 -0.2458
  797MOL0     H 5197   5.487  11.206   5.275 -0.0950 -0.2862 -1.5238
  797MOL0     H 5198   5.264  11.145   5.169  1.4593 -2.8401 -0.5335
  797MOL0     H 5199   5.275  11.277   5.288  1.6570 -0.4981 -1.4531
  797MOL0     H 5200   5.158  10.996   5.370  2.3860 -0.0896  1.8365
  797MOL0     H 5201   5.158  11.144   5.452  2.8710 -0.6911  0.4541
  797MOL0     H 5202   4.819  11.161   5.216  1.2401 -0.3496  0.5041
  797MOL0     H 5203   5.675  11.138   5.171 -1.4289 -1.5325  0.5073
  797MOL0     H 5204   5.873  11.234   5.232 -0.8681  2.7899  1.7588
  798MOL0     O 5205   7.848   3.222   7.190 -0.0493  0.8781 -0.6630
  798MOL0     C 5206   7.857   3.121   7.245 -0.5196 -0.0210 -0.5785
  798MOL0     O 5207   7.967   3.089   7.323 -0.2823  0.6632  0.3352
  798MOL0     C 5208   8.067   3.183   7.356  0.2725 -0.1460 -0.7528
  798MOL0     C 5209   8.193   3.161   7.312 -0.9532 -0.8166 -0.5532
  798MOL0     C 5210   8.303   3.243   7.353  0.0535  0.5807 -0.2133
  798MOL0     C 5211   8.289   3.340   7.447  0.6550 -2.3427 -0.7557
  798MOL0     O 5212   8.390   3.418   7.497 -0.5899  0.2259 -0.3541
  798MOL0     C 5213   8.484   3.362   7.596  0.2111  1.0607  0.1388
  798MOL0     C 5214   8.459   3.427   7.728  0.2358 -0.5107  0.0173
  798MOL0     C 5215   8.484   3.580   7.729 -0.2487 -0.0061 -0.7401
  798MOL0     C 5216   8.422   3.654   7.845 -0.6267  0.0801  0.2740
  798MOL0     C 5217   8.436   3.804   7.802 -0.0300 -0.7393 -0.2288
  798MOL0     C 5218   8.375   3.876   7.918  0.1293  0.3730  0.4114
  798MOL0     C 5219   8.386   4.024   7.900  0.8815 -0.1817  1.1299
  798MOL0     C 5220   8.296   4.109   7.994 -0.3819 -0.4503 -0.2536
  798MOL0     N 5221   8.327   4.091   8.132  0.6269 -0.8788  0.0396
  798MOL0     C 5222   8.445   4.128   8.189 -0.4027 -0.8169 -0.9043
  798MOL0     C 5223   8.445   4.061   8.310  0.2726  0.8715  1.5023
  798MOL0     C 5224   8.548   4.042   8.412 -0.3306  0.3415 -0.7684
  798MOL0     C 5225   8.531   4.141   8.535 -0.1696  0.1945  0.2369
  798MOL0     C 5226   8.641   4.083   8.640  1.7490  0.6181 -0.0784
  798MOL0     C 5227   8.660   4.210   8.729 -0.7697  0.2957 -0.4104
  798MOL0     O 5228   8.741   4.164   8.837  0.9417 -0.4354 -0.5638
  798MOL0     C 5229   8.773   4.252   8.940 -0.1961 -0.0998 -0.1606
  798MOL0     C 5230   8.810   4.179   9.049 -0.8008 -0.2652 -0.3149
  798MOL0     C 5231   8.853   4.236   9.167 -0.3593 -0.6745  0.4730
  798MOL0     C 5232   8.849   4.374   9.183 -0.6173  1.1709  0.1190
  798MOL0     C 5233   8.886   4.432   9.320  0.6744  1.6449  0.4357
  798MOL0     O 5234   8.859   4.565   9.344 -0.0653  0.0308  0.1547
  798MOL0     C 5235   8.892   4.638   9.463  1.1740  0.3556  0.4743
  798MOL0     C 5236   8.983   4.604   9.563  0.4747  0.6600  0.1738
  798MOL0     C 5237   8.956   4.654   9.695 -0.0784 -0.2627  0.9004
  798MOL0     C 5238   8.861   4.757   9.724  0.1691 -0.0660  0.0458
  798MOL0     O 5239   8.840   4.813   9.850  0.0139 -0.1671  0.1720
  798MOL0     C 5240   8.771   4.718   9.938 -0.5871  0.2315 -0.0537
  798MOL0     C 5241   8.670   4.797  10.026  0.2591  0.1450  0.2630
  798MOL0     C 5242   8.530   4.766   9.976  0.0754  0.0662  0.1861
  798MOL0     C 5243   8.493   4.805   9.825 -0.3235  0.4885 -0.1369
  798MOL0     C 5244   8.345   4.808   9.794 -0.0334 -0.2270 -0.1207
  798MOL0     C 5245   8.252   4.726   9.880 -0.0494  0.2158  0.1508
  798MOL0     C 5246   8.115   4.739   9.808  0.2877 -0.6473  0.3261
  798MOL0     C 5247   8.006   4.681   9.893  0.4111  0.7373  0.1721
  798MOL0    Cl 5248   8.020   4.492   9.920  0.1885 -0.5082 -0.5395
  798MOL0     C 5249   8.784   4.808   9.619  0.0113  1.1002  0.3999
  798MOL0     C 5250   8.801   4.743   9.487  0.3320 -0.4762 -0.2493
  798MOL0     O 5251   8.949   4.362   9.396  0.4898  0.3077 -0.6099
  798MOL0     C 5252   8.795   4.456   9.076  0.8484  0.6583  0.6377
  798MOL0     C 5253   8.756   4.397   8.950 -0.5451  0.0976  0.0508
  798MOL0     N 5254   8.326   3.992   8.321 -0.7159  0.3116 -0.2241
  798MOL0     N 5255   8.256   4.011   8.214  0.2115  0.2065 -0.7766
  798MOL0     C 5256   8.155   3.368   7.478  0.1978 -0.2182 -0.9506
  798MOL0     C 5257   8.046   3.288   7.437  0.0295  0.3298  1.1549
  798MOL0     C 5258   7.738   3.039   7.261  0.5446  0.1150  0.2385
  798MOL0     C 5259   7.720   2.964   7.379 -0.2703  0.4500 -0.1593
  798MOL0     C 5260   7.608   2.886   7.395  0.9796 -0.0289  0.0579
  798MOL0     C 5261   7.500   2.888   7.313 -0.2350 -0.5588  0.5511
  798MOL0     O 5262   7.386   2.810   7.323  0.5240  0.4294  0.2074
  798MOL0     C 5263   7.360   2.728   7.437  0.0922 -0.4448 -0.0597
  798MOL0     C 5264   7.446   2.607   7.421 -0.1593  0.5834  0.1758
  798MOL0     C 5265   7.385   2.516   7.306  0.0903  0.2532  0.6118
  798MOL0     C 5266   7.427   2.372   7.310  0.4574 -0.6501 -0.8009
  798MOL0     C 5267   7.367   2.307   7.428  0.7543 -0.4797 -0.1557
  798MOL0     C 5268   7.322   2.236   7.519  0.0251 -0.4476  0.2967
  798MOL0     C 5269   7.516   2.962   7.190 -0.1680  0.5722 -0.3998
  798MOL0     C 5270   7.630   3.036   7.160  0.4631 -0.1113 -0.1241
  798MOL0     H 5271   8.215   3.081   7.242  0.0260 -0.6408 -0.4536
  798MOL0     H 5272   8.398   3.216   7.307 -0.6027 -1.9965 -0.2534
  798MOL0     H 5273   8.584   3.386   7.559 -0.1178  0.9322 -0.8625
  798MOL0     H 5274   8.472   3.253   7.590 -2.1790  1.3193 -3.6919
  798MOL0     H 5275   8.534   3.386   7.796  2.0228  0.7192 -1.1397
  798MOL0     H 5276   8.358   3.397   7.758 -0.7742  0.5065 -2.1171
  798MOL0     H 5277   8.443   3.620   7.636 -0.4676  2.3126  0.3054
  798MOL0     H 5278   8.591   3.593   7.747 -0.2585 -1.3425  0.4411
  798MOL0     H 5279   8.315   3.632   7.851 -1.3321  2.6056 -1.3523
  798MOL0     H 5280   8.464   3.632   7.943 -3.5039 -0.4852  1.5034
  798MOL0     H 5281   8.378   3.818   7.710  0.7297  1.7160 -0.4038
  798MOL0     H 5282   8.540   3.833   7.782 -0.4767 -0.4747 -2.4660
  798MOL0     H 5283   8.427   3.848   8.010  1.6430  1.9635  0.1018
  798MOL0     H 5284   8.271   3.843   7.923  0.7656 -2.2749 -1.3478
  798MOL0     H 5285   8.489   4.058   7.913  0.4959  0.5932  2.2909
  798MOL0     H 5286   8.352   4.045   7.798  1.3222  0.3047  1.0830
  798MOL0     H 5287   8.195   4.076   7.970 -0.1740  0.6076 -2.9408
  798MOL0     H 5288   8.300   4.212   7.958 -0.5929 -0.5074 -0.4440
  798MOL0     H 5289   8.517   4.202   8.154 -1.4138  0.7641  0.2115
  798MOL0     H 5290   8.647   4.044   8.366 -0.7915 -1.6874 -1.9754
  798MOL0     H 5291   8.548   3.940   8.452 -0.2327  0.1919 -1.1527
  798MOL0     H 5292   8.431   4.129   8.576  0.2111 -0.6974  0.9606
  798MOL0     H 5293   8.550   4.243   8.502 -0.2561 -0.2365 -1.2094
  798MOL0     H 5294   8.593   4.010   8.705  2.1260 -1.5284 -2.0852
  798MOL0     H 5295   8.733   4.059   8.586  2.3266  2.7772 -0.1568
  798MOL0     H 5296   8.563   4.243   8.766 -0.9876 -2.1720  1.4683
  798MOL0     H 5297   8.702   4.295   8.674 -1.4072  0.6919 -0.2939
  798MOL0     H 5298   8.822   4.072   9.049  1.6649 -0.0402  0.1624
  798MOL0     H 5299   8.896   4.172   9.242  0.3169  1.4497  2.0033
  798MOL0     H 5300   9.061   4.534   9.535  2.0601  2.4077  0.0710
  798MOL0     H 5301   9.009   4.640   9.789  0.4955  1.9119  0.9500
  798MOL0     H 5302   8.844   4.661   9.997  2.2598  1.3929 -2.1932
  798MOL0     H 5303   8.720   4.642   9.879  0.6371  1.9432 -3.6333
  798MOL0     H 5304   8.672   4.905  10.008  0.7455 -0.3201 -3.0768
  798MOL0     H 5305   8.668   4.766  10.131 -3.7494 -1.3666 -0.0684
  798MOL0     H 5306   8.461   4.815  10.045 -0.8564 -0.1486 -0.5732
  798MOL0     H 5307   8.504   4.660   9.963  2.8871 -0.4277 -3.4618
  798MOL0     H 5308   8.537   4.900   9.795 -2.0622  1.6579  0.8873
  798MOL0     H 5309   8.537   4.725   9.765  1.1684 -2.1561  4.0099
  798MOL0     H 5310   8.330   4.775   9.691 -1.4770 -2.6029  0.7707
  798MOL0     H 5311   8.319   4.913   9.805  0.9764 -0.1298  1.7665
  798MOL0     H 5312   8.233   4.766   9.981 -1.0562  0.5138 -0.1461
  798MOL0     H 5313   8.285   4.622   9.886 -2.3789 -0.6205 -0.5959
  798MOL0     H 5314   8.088   4.845   9.809  0.2703 -0.6505  1.2152
  798MOL0     H 5315   8.118   4.703   9.705  0.2183 -0.1397  0.1405
  798MOL0     H 5316   7.919   4.700   9.830  0.9495 -1.8077 -1.5044
  798MOL0     H 5317   7.998   4.740   9.984  2.2923  0.2465  0.6960
  798MOL0     H 5318   8.705   4.878   9.644  0.9098  1.3782  2.7204
  798MOL0     H 5319   8.738   4.764   9.400  3.1739  0.0047 -2.3384
  798MOL0     H 5320   8.775   4.563   9.077 -0.3167  0.7509 -4.6245
  798MOL0     H 5321   8.729   4.453   8.861  0.1432 -1.2296 -1.0311
  798MOL0     H 5322   8.133   3.443   7.553  1.2077  0.3469 -1.2018
  798MOL0     H 5323   7.942   3.311   7.462 -0.8540 -1.1416 -0.8720
  798MOL0     H 5324   7.791   2.978   7.460 -2.8268 -1.2846  2.5887
  798MOL0     H 5325   7.587   2.828   7.484 -0.6443  0.9620  0.3554
  798MOL0     H 5326   7.252   2.712   7.443 -0.3456  1.0859 -2.4772
  798MOL0     H 5327   7.370   2.789   7.527 -2.9842 -1.4432  1.0927
  798MOL0     H 5328   7.548   2.637   7.394  0.0929 -0.6559 -0.3498
  798MOL0     H 5329   7.456   2.543   7.510  0.8899  0.2396 -0.1738
  798MOL0     H 5330   7.410   2.554   7.207 -1.7918  0.6302  0.2413
  798MOL0     H 5331   7.276   2.525   7.310  0.0667 -0.4821  2.2030
  798MOL0     H 5332   7.401   2.319   7.218  1.0977 -1.0250 -0.7764
  798MOL0     H 5333   7.535   2.357   7.315  0.5065 -0.7514 -2.0367
  798MOL0     H 5334   7.263   2.178   7.587  0.0475 -2.8716 -1.6333
  798MOL0     H 5335   7.438   2.939   7.118  2.6788 -3.7431 -2.5726
  798MOL0     H 5336   7.643   3.088   7.066  2.0969 -1.1173 -0.4873
  799MOL0     O 5337   7.999   9.571   3.127 -0.7867 -0.6154  1.0516
  799MOL0     C 5338   7.999   9.452   3.092 -0.5340  0.8125 -0.4133
  799MOL0     O 5339   8.111   9.382   3.066 -0.3549  0.1146 -0.5368
  799MOL0     C 5340   8.214   9.442   3.004 -1.0090  0.1519  0.3885
  799MOL0     C 5341   8.340   9.434   3.074  0.2295  0.7694 -0.3832
  799MOL0     C 5342   8.452   9.501   3.007 -0.5929  0.2256 -0.2881
  799MOL0     C 5343   8.446   9.550   2.874  0.4966  0.6307  0.1234
  799MOL0     O 5344   8.545   9.622   2.822 -0.0048  0.1907 -0.6683
  799MOL0     C 5345   8.548   9.755   2.883  0.2502  0.3288  0.6247
  799MOL0     C 5346   8.653   9.761   2.981  0.0768  0.5730  0.2093
  799MOL0     C 5347   8.786   9.767   2.922 -0.0416 -0.1493 -0.6534
  799MOL0     C 5348   8.893   9.757   3.031  0.3369  0.1862 -0.4397
  799MOL0     C 5349   9.039   9.759   2.979  0.1995 -0.8854  0.1765
  799MOL0     C 5350   9.083   9.644   2.892 -0.2768 -0.3843 -0.3652
  799MOL0     C 5351   9.189   9.677   2.786 -0.0025  0.7019  0.1878
  799MOL0     C 5352   9.329   9.643   2.844  0.3914  0.7504  0.5032
  799MOL0     N 5353   9.340   9.511   2.912 -0.1167  0.0975  0.4834
  799MOL0     C 5354   9.295   9.387   2.865  0.0202 -0.7220  0.3381
  799MOL0     C 5355   9.279   9.306   2.965 -1.2794 -0.6287 -0.0112
  799MOL0     C 5356   9.214   9.174   2.956  0.6731 -0.0832 -0.1636
  799MOL0     C 5357   9.183   9.123   3.103  0.1170  0.5998  0.1189
  799MOL0     C 5358   9.059   9.197   3.152 -0.1992  0.1061  0.1487
  799MOL0     C 5359   9.077   9.240   3.307  0.7229  0.6308 -0.4849
  799MOL0     O 5360   8.961   9.313   3.332 -0.4700  0.2441 -0.1563
  799MOL0     C 5361   8.960   9.451   3.328  0.3749 -0.4593 -0.0814
  799MOL0     C 5362   9.059   9.542   3.287 -0.8123  1.4556 -1.1090
  799MOL0     C 5363   9.054   9.681   3.300  1.1486  0.0711 -0.3634
  799MOL0     C 5364   8.942   9.740   3.353 -0.0714  0.1615 -0.0387
  799MOL0     C 5365   8.934   9.890   3.359  0.2117 -0.4638 -0.5907
  799MOL0     O 5366   8.812   9.943   3.339 -0.7251  0.7824 -0.9919
  799MOL0     C 5367   8.791  10.076   3.352  1.2608 -0.2292  0.4428
  799MOL0     C 5368   8.825  10.153   3.470 -0.1566  0.2927 -0.0485
  799MOL0     C 5369   8.792  10.287   3.493  0.2218  0.4455  0.4718
  799MOL0     C 5370   8.714  10.354   3.401 -0.0218  0.5430  0.0638
  799MOL0     O 5371   8.674  10.485   3.413  0.4212  0.9381  0.1284
  799MOL0     C 5372   8.705  10.552   3.536 -0.7284  1.1093 -0.0745
  799MOL0     C 5373   8.662  10.695   3.527  0.5761  0.1498  0.3080
  799MOL0     C 5374   8.694  10.783   3.661 -0.1795 -0.4072  0.3967
  799MOL0     C 5375   8.669  10.933   3.631 -0.0185  0.2215 -0.0314
  799MOL0     C 5376   8.735  11.017   3.738  0.7035 -0.3091 -0.2654
  799MOL0     C 5377   8.713  11.165   3.725 -0.2820  0.7470 -0.2120
  799MOL0     C 5378   8.750  11.234   3.857  0.0038  0.2389  0.0492
  799MOL0     C 5379   8.784  11.388   3.837 -0.0391 -0.0653 -0.3532
  799MOL0    Cl 5380   8.658  11.470   3.756  0.1187 -0.4190 -0.0165
  799MOL0     C 5381   8.660  10.272   3.295  0.4949  0.5588  0.0791
  799MOL0     C 5382   8.695  10.139   3.278  0.2906 -0.5880  0.8486
  799MOL0     O 5383   9.039   9.944   3.360 -0.2676 -0.6843 -0.5546
  799MOL0     C 5384   8.835   9.656   3.386  0.0316  0.6287 -0.6522
  799MOL0     C 5385   8.840   9.517   3.369  0.3048  0.7749 -0.7631
  799MOL0     N 5386   9.357   9.365   3.068  0.6153 -0.5074  0.2302
  799MOL0     N 5387   9.383   9.492   3.037 -0.5277 -0.2355  0.2388
  799MOL0     C 5388   8.329   9.548   2.810  0.0622  0.0615 -0.1165
  799MOL0     C 5389   8.210   9.496   2.872 -0.4783  0.0226  0.2826
  799MOL0     C 5390   7.876   9.370   3.111 -0.3066  0.1335 -0.2782
  799MOL0     C 5391   7.844   9.268   3.020 -0.3046 -0.2183  0.1168
  799MOL0     C 5392   7.727   9.193   3.025  1.0623 -0.1005  0.1788
  799MOL0     C 5393   7.637   9.207   3.127  0.7925  0.5717 -0.7738
  799MOL0     O 5394   7.515   9.139   3.126 -0.4994 -0.2485  0.7435
  799MOL0     C 5395   7.503   9.009   3.076  0.8807 -0.2730 -1.0659
  799MOL0     C 5396   7.356   8.969   3.079 -0.6682  0.4334 -0.2165
  799MOL0     C 5397   7.297   8.958   3.221 -0.6719  0.4733  0.8945
  799MOL0     C 5398   7.248   9.083   3.276 -0.0961  0.3567 -0.2548
  799MOL0     C 5399   7.120   9.114   3.208  0.1740  0.1099  0.9950
  799MOL0     C 5400   7.019   9.135   3.150 -0.8554  0.3255 -0.3781
  799MOL0     C 5401   7.670   9.303   3.235  0.4446 -0.1379 -0.0959
  799MOL0     C 5402   7.780   9.389   3.218  0.9872  0.2011 -0.6479
  799MOL0     H 5403   8.345   9.415   3.181 -0.9200  3.5523  0.2528
  799MOL0     H 5404   8.541   9.489   3.067  0.9585 -1.7356 -2.7872
  799MOL0     H 5405   8.448   9.778   2.921 -0.1010  3.1805 -1.6831
  799MOL0     H 5406   8.563   9.828   2.803 -3.2906 -0.9027 -1.3871
  799MOL0     H 5407   8.635   9.684   3.056  1.3895  0.3608  0.3445
  799MOL0     H 5408   8.651   9.859   3.028  2.8806  1.2004 -0.7493
  799MOL0     H 5409   8.793   9.860   2.863 -1.3466  0.2744 -0.1737
  799MOL0     H 5410   8.808   9.686   2.852  0.2313  1.3439 -2.3713
  799MOL0     H 5411   8.868   9.851   3.081 -1.5249  0.7057 -2.2566
  799MOL0     H 5412   8.873   9.669   3.094  1.3600 -1.6149 -2.4851
  799MOL0     H 5413   9.117   9.779   3.053  1.4459 -1.0650 -1.0548
  799MOL0     H 5414   9.051   9.851   2.920  2.4515 -1.3163 -0.1179
  799MOL0     H 5415   9.003   9.617   2.823  0.4222  2.9752 -2.7428
  799MOL0     H 5416   9.093   9.557   2.958  0.1031  0.2817  0.4817
  799MOL0     H 5417   9.175   9.623   2.692  0.0842  0.9920  0.0090
  799MOL0     H 5418   9.181   9.778   2.746 -2.2337  0.7486  0.6162
  799MOL0     H 5419   9.360   9.729   2.903 -0.4085  2.8809 -1.9854
  799MOL0     H 5420   9.397   9.650   2.758 -2.2048  1.9916 -1.6014
  799MOL0     H 5421   9.268   9.370   2.762 -1.8592  3.3097 -0.0446
  799MOL0     H 5422   9.271   9.108   2.891  2.5292  1.2896 -0.0099
  799MOL0     H 5423   9.119   9.187   2.903 -1.2504 -0.6033  2.9359
  799MOL0     H 5424   9.269   9.145   3.167  3.0595  2.7300 -4.1011
  799MOL0     H 5425   9.166   9.014   3.102  1.3895  0.3165  2.3956
  799MOL0     H 5426   9.033   9.282   3.087  0.6979 -0.0545 -0.4373
  799MOL0     H 5427   8.974   9.130   3.139  0.3707 -0.6721  0.4038
  799MOL0     H 5428   9.162   9.310   3.314  1.4247 -0.3470  1.6567
  799MOL0     H 5429   9.087   9.152   3.371 -5.2985  0.9244  1.4557
  799MOL0     H 5430   9.150   9.504   3.244 -0.0341  2.4050 -0.3560
  799MOL0     H 5431   9.135   9.744   3.266 -0.6082  1.8446 -1.4944
  799MOL0     H 5432   8.894  10.114   3.545 -0.7103 -0.9601 -0.1615
  799MOL0     H 5433   8.851  10.345   3.564  3.1136 -0.1611 -1.2670
  799MOL0     H 5434   8.815  10.553   3.536 -0.5136 -2.1809 -2.7895
  799MOL0     H 5435   8.663  10.496   3.621  0.1567  0.3990 -0.0829
  799MOL0     H 5436   8.555  10.688   3.510  0.5657  0.0015  0.4343
  799MOL0     H 5437   8.716  10.758   3.455 -0.9093  2.3318  1.0137
  799MOL0     H 5438   8.800  10.771   3.682  0.3757  0.4827 -1.6933
  799MOL0     H 5439   8.633  10.763   3.750 -0.7308  1.0741  0.3902
  799MOL0     H 5440   8.699  10.964   3.530 -0.7886 -1.5635 -0.8486
  799MOL0     H 5441   8.563  10.955   3.618 -0.1172  1.3170  2.1108
  799MOL0     H 5442   8.843  11.000   3.739  1.1921  2.3050 -1.3368
  799MOL0     H 5443   8.691  10.982   3.831 -0.4774 -4.7361 -2.1944
  799MOL0     H 5444   8.608  11.180   3.698 -0.7489 -1.7628 -0.0890
  799MOL0     H 5445   8.767  11.222   3.649  2.0131  2.3989  2.4715
  799MOL0     H 5446   8.664  11.220   3.922 -0.5930  3.6565  0.1984
  799MOL0     H 5447   8.832  11.184   3.909 -0.5352 -3.3169 -2.1381
  799MOL0     H 5448   8.878  11.400   3.784  1.2303 -0.2359  1.7537
  799MOL0     H 5449   8.799  11.426   3.939 -1.5514  0.1884 -0.1888
  799MOL0     H 5450   8.581  10.316   3.235 -1.3850 -2.8468 -0.2122
  799MOL0     H 5451   8.657  10.097   3.185 -3.2800  2.0182  0.9446
  799MOL0     H 5452   8.741   9.703   3.414  0.6058  2.7083 -1.9986
  799MOL0     H 5453   8.751   9.460   3.391 -1.4983  3.0936 -1.6832
  799MOL0     H 5454   8.315   9.580   2.707  3.2887 -0.4773 -0.8291
  799MOL0     H 5455   8.122   9.481   2.811 -0.7534 -0.0334  0.6877
  799MOL0     H 5456   7.902   9.245   2.931 -0.7395 -0.1558 -0.1864
  799MOL0     H 5457   7.726   9.120   2.945  2.7315  2.7352 -2.7045
  799MOL0     H 5458   7.568   8.940   3.130 -0.2228  2.2102  4.0335
  799MOL0     H 5459   7.530   9.009   2.970 -1.7212 -1.7202 -1.8143
  799MOL0     H 5460   7.306   9.048   3.023  1.7177  4.7835  3.1095
  799MOL0     H 5461   7.344   8.878   3.020  1.2092 -1.4772  2.1206
  799MOL0     H 5462   7.383   8.932   3.282  1.5669 -2.2694 -3.0041
  799MOL0     H 5463   7.217   8.884   3.210 -0.0742  0.1706 -2.0611
  799MOL0     H 5464   7.233   9.063   3.383  0.8648 -1.6975 -0.4408
  799MOL0     H 5465   7.324   9.160   3.260  2.8401 -2.7183 -2.5476
  799MOL0     H 5466   6.922   9.137   3.104 -1.8942  1.0729  1.6864
  799MOL0     H 5467   7.595   9.313   3.312  1.3822  0.6560  0.7338
  799MOL0     H 5468   7.813   9.477   3.272  1.0208 -0.4878  0.4820
  800MOL0     O 5469   1.031  11.058   6.298 -0.6382  0.0682  0.4552
  800MOL0     C 5470   1.016  10.935   6.294  0.4962 -0.8989  0.0110
  800MOL0     O 5471   1.092  10.854   6.219 -0.5651  0.4464 -0.4269
  800MOL0     C 5472   1.182  10.921   6.130 -0.1754  1.6293 -0.5764
  800MOL0     C 5473   1.312  10.962   6.151  0.5806  0.2826 -0.5095
  800MOL0     C 5474   1.383  11.022   6.047  0.8587 -0.0214  0.2628
  800MOL0     C 5475   1.330  11.044   5.923 -0.4602 -0.3333 -0.5407
  800MOL0     O 5476   1.400  11.141   5.853  0.4477 -0.3710  0.2807
  800MOL0     C 5477   1.326  11.262   5.827  0.2727  0.4291  0.0401
  800MOL0     C 5478   1.274  11.339   5.949  0.2785  1.2748  0.0907
  800MOL0     C 5479   1.237  11.481   5.921  0.5199 -0.4573  0.3124
  800MOL0     C 5480   1.142  11.517   5.810  0.3417 -1.2695 -0.0775
  800MOL0     C 5481   1.153  11.671   5.764 -0.0205  0.1756  0.0379
  800MOL0     C 5482   1.063  11.766   5.845  0.0989  0.9304 -0.2622
  800MOL0     C 5483   1.126  11.901   5.834  0.7889 -0.0472 -0.2953
  800MOL0     C 5484   1.052  12.005   5.913  0.2621 -0.5306 -0.4870
  800MOL0     N 5485   0.921  12.040   5.867 -0.4936  0.3675  0.2715
  800MOL0     C 5486   0.902  12.109   5.753  0.1503  0.0879  1.1410
  800MOL0     C 5487   0.773  12.151   5.744 -0.6981  0.5794 -1.0071
  800MOL0     C 5488   0.705  12.235   5.652 -0.3545 -0.8962 -0.6807
  800MOL0     C 5489   0.603  12.162   5.570 -0.0728  0.6296  0.3928
  800MOL0     C 5490   0.471  12.122   5.647  0.4912 -0.3294 -0.4103
  800MOL0     C 5491   0.360  12.093   5.541 -0.5995 -0.8725  0.1633
  800MOL0     O 5492   0.246  12.045   5.614  0.2236  0.3204  0.6493
  800MOL0     C 5493   0.249  11.941   5.698 -0.1248  0.0883  0.2450
  800MOL0     C 5494   0.153  11.941   5.802 -0.1068  0.5734  0.0736
  800MOL0     C 5495   0.151  11.832   5.888  0.6366 -0.6355 -0.6602
  800MOL0     C 5496   0.244  11.728   5.881  0.9046  0.7513  1.1108
  800MOL0     C 5497   0.217  11.616   5.962  0.0903  0.7507 -1.4980
  800MOL0     O 5498   0.152  11.638   6.081  0.2273  0.5669 -1.1738
  800MOL0     C 5499   0.121  11.542   6.177  0.6803 -0.2889  0.0891
  800MOL0     C 5500   0.087  11.413   6.142  0.3897 -0.0427  0.1427
  800MOL0     C 5501   0.055  11.321   6.231  0.2384  0.7206  0.6170
  800MOL0     C 5502   0.078  11.343   6.369 -0.1085 -0.9571 -0.6022
  800MOL0     O 5503   0.046  11.255   6.467 -0.8756  0.1250  0.3658
  800MOL0     C 5504  -0.085  11.206   6.469 -0.0415  0.5082 -0.0468
  800MOL0     C 5505  -0.169  11.245   6.599  0.0647  0.6942  1.3258
  800MOL0     C 5506  -0.289  11.160   6.630  1.3295 -0.6184 -0.3549
  800MOL0     C 5507  -0.269  11.013   6.663  1.7882 -0.6635  0.6268
  800MOL0     C 5508  -0.404  10.942   6.696  0.3997 -0.0281  0.3630
  800MOL0     C 5509  -0.391  10.805   6.750 -0.5049  0.9922 -0.4743
  800MOL0     C 5510  -0.297  10.707   6.672 -0.7232 -0.3557  0.1951
  800MOL0     C 5511  -0.331  10.561   6.691  0.7168 -0.9186  0.4433
  800MOL0    Cl 5512  -0.224  10.475   6.796 -0.1690  0.0083  0.6064
  800MOL0     C 5513   0.097  11.480   6.407 -0.1203  0.0391 -0.3191
  800MOL0     C 5514   0.113  11.575   6.313 -0.0737  0.4002 -0.6057
  800MOL0     O 5515   0.283  11.514   5.940 -0.0868  0.3318 -0.6208
  800MOL0     C 5516   0.340  11.728   5.769  0.9346  0.0928 -0.9575
  800MOL0     C 5517   0.338  11.837   5.678  0.7129 -0.4308 -0.3738
  800MOL0     N 5518   0.709  12.096   5.864  0.7612 -0.2971  0.7237
  800MOL0     N 5519   0.801  12.032   5.934 -0.1348 -0.0548 -0.2273
  800MOL0     C 5520   1.201  11.003   5.898  0.3209  0.0911  0.0524
  800MOL0     C 5521   1.130  10.940   6.002 -1.0198  0.7177 -0.7175
  800MOL0     C 5522   0.902  10.879   6.375 -1.1909  0.6416  0.1530
  800MOL0     C 5523   0.884  10.735   6.383 -0.4203  0.1829  0.4661
  800MOL0     C 5524   0.776  10.681   6.449 -0.1713 -0.2206  0.7574
  800MOL0     C 5525   0.698  10.757   6.525  0.3910 -0.4894  0.7672
  800MOL0     O 5526   0.601  10.697   6.595  0.5347 -0.7119  0.9558
  800MOL0     C 5527   0.578  10.726   6.732  1.0038  0.2398 -0.4117
  800MOL0     C 5528   0.659  10.633   6.824 -0.7544 -0.4186  0.4899
  800MOL0     C 5529   0.584  10.570   6.938  0.4330 -0.6698  1.1068
  800MOL0     C 5530   0.653  10.457   7.020  1.0871 -0.7624 -0.4500
  800MOL0     C 5531   0.553  10.388   7.104  0.2141 -0.6644 -0.2601
  800MOL0     C 5532   0.493  10.313   7.176 -0.0937  0.1804 -0.1386
  800MOL0     C 5533   0.727  10.895   6.535  0.0283  0.7316 -0.2543
  800MOL0     C 5534   0.824  10.963   6.454 -0.0023  0.3886 -0.6654
  800MOL0     H 5535   1.344  10.965   6.255  0.2693 -0.5013 -0.3830
  800MOL0     H 5536   1.479  11.073   6.056  1.1210 -0.3438 -0.5401
  800MOL0     H 5537   1.252  11.243   5.749  0.2575  0.8912 -0.0622
  800MOL0     H 5538   1.396  11.326   5.772  2.1023 -0.3356  1.3960
  800MOL0     H 5539   1.362  11.327   6.013  1.8486  2.5612 -1.7078
  800MOL0     H 5540   1.181  11.288   5.975  0.3547  0.2207 -1.5293
  800MOL0     H 5541   1.329  11.526   5.882  0.5268 -1.0527 -0.3707
  800MOL0     H 5542   1.201  11.521   6.016  1.2841  0.6241  0.1616
  800MOL0     H 5543   1.165  11.473   5.712 -0.2710 -1.6659 -0.0438
  800MOL0     H 5544   1.045  11.475   5.836 -1.9902  2.7142 -1.4337
  800MOL0     H 5545   1.146  11.695   5.658  0.7730  2.1515  0.3768
  800MOL0     H 5546   1.257  11.701   5.782 -0.1654 -0.6941  2.7655
  800MOL0     H 5547   1.067  11.743   5.952 -0.2335  1.7231 -0.0721
  800MOL0     H 5548   0.959  11.759   5.810  0.4100 -5.2405 -1.0814
  800MOL0     H 5549   1.222  11.894   5.885 -0.1750  0.8950  1.7670
  800MOL0     H 5550   1.145  11.943   5.734  3.2649  0.9808  0.5349
  800MOL0     H 5551   1.124  12.087   5.908  1.6767 -1.7966 -1.9522
  800MOL0     H 5552   1.049  11.974   6.018 -1.2332  2.0758  0.3189
  800MOL0     H 5553   0.981  12.126   5.680  0.8856 -2.3782  1.2873
  800MOL0     H 5554   0.774  12.291   5.588 -1.6995  0.4983 -0.9454
  800MOL0     H 5555   0.641  12.301   5.710 -1.4875 -0.2156 -2.6032
  800MOL0     H 5556   0.653  12.079   5.519 -0.2634  2.3925 -2.9360
  800MOL0     H 5557   0.569  12.222   5.485  1.5410 -1.7436 -2.0785
  800MOL0     H 5558   0.486  12.031   5.705  0.0265  0.2099  0.5718
  800MOL0     H 5559   0.434  12.210   5.701 -3.6673 -1.7287 -0.6238
  800MOL0     H 5560   0.386  12.029   5.457 -0.5277  0.8543 -1.1740
  800MOL0     H 5561   0.340  12.186   5.489 -0.7967 -0.4454  0.9791
  800MOL0     H 5562   0.083  12.024   5.809  0.1743  0.9744 -1.5397
  800MOL0     H 5563   0.072  11.827   5.963  1.5718  2.9619  0.8002
  800MOL0     H 5564   0.077  11.398   6.035 -1.8493 -3.1463  0.6265
  800MOL0     H 5565   0.044  11.219   6.194 -1.4919  0.4919  1.6905
  800MOL0     H 5566  -0.085  11.099   6.446 -1.8193  0.9241 -2.3760
  800MOL0     H 5567  -0.149  11.249   6.391  2.5597  3.0479 -0.9935
  800MOL0     H 5568  -0.201  11.349   6.587  0.6660  0.7175 -0.4940
  800MOL0     H 5569  -0.099  11.254   6.683  1.7246  0.4519  0.0283
  800MOL0     H 5570  -0.357  11.181   6.547 -2.4741  0.5030  2.7312
  800MOL0     H 5571  -0.333  11.209   6.718  0.2611  2.7670 -2.5768
  800MOL0     H 5572  -0.234  10.964   6.571 -0.2697  0.9660 -1.1234
  800MOL0     H 5573  -0.198  11.000   6.745  1.5009  0.0061  0.9803
  800MOL0     H 5574  -0.463  10.952   6.605  1.2746 -0.6110 -0.2816
  800MOL0     H 5575  -0.448  11.010   6.770  1.2426  0.3149  0.5510
  800MOL0     H 5576  -0.493  10.766   6.761 -0.8405  2.3011  1.5036
  800MOL0     H 5577  -0.355  10.819   6.852 -2.4773  2.3114  0.0984
  800MOL0     H 5578  -0.323  10.729   6.568 -1.2595 -0.0522  0.3920
  800MOL0     H 5579  -0.188  10.720   6.679 -0.8591  2.6437 -1.6030
  800MOL0     H 5580  -0.331  10.510   6.595 -1.7987 -4.6758  2.1993
  800MOL0     H 5581  -0.433  10.554   6.730  1.2960  1.1835  2.6010
  800MOL0     H 5582   0.103  11.502   6.513 -1.3116  1.5791 -0.5342
  800MOL0     H 5583   0.127  11.674   6.353  4.7400  0.1382 -1.0014
  800MOL0     H 5584   0.409  11.649   5.741  1.0910  1.1916 -4.0319
  800MOL0     H 5585   0.399  11.839   5.588  0.1518 -0.8381 -0.7710
  800MOL0     H 5586   1.150  11.020   5.804  0.4843  2.9223  0.3915
  800MOL0     H 5587   1.024  10.917   5.993 -0.9300 -1.5030  2.3161
  800MOL0     H 5588   0.952  10.672   6.326 -0.0822  0.6126  0.3874
  800MOL0     H 5589   0.743  10.578   6.440  1.5027 -0.8089  1.0522
  800MOL0     H 5590   0.475  10.729   6.768  1.1170  1.2118 -0.1421
  800MOL0     H 5591   0.602  10.831   6.749  0.3320  0.5613 -1.3702
  800MOL0     H 5592   0.716  10.556   6.772 -1.3631 -0.8764  0.4908
  800MOL0     H 5593   0.736  10.696   6.871  0.8508  0.8663 -3.4665
  800MOL0     H 5594   0.488  10.540   6.894  1.7949 -1.8797 -1.1881
  800MOL0     H 5595   0.562  10.648   7.011 -0.4561  0.1035  0.0434
  800MOL0     H 5596   0.702  10.398   6.941 -2.1140 -0.0122 -3.2271
  800MOL0     H 5597   0.720  10.498   7.095 -1.8256 -1.2854  2.6591
  800MOL0     H 5598   0.451  10.231   7.230  1.4170  0.3161  1.3431
  800MOL0     H 5599   0.689  10.956   6.616  0.2835 -3.0670  3.0085
  800MOL0     H 5600   0.833  11.070   6.467  1.1210  0.0742  1.5726
  801MOL0     O 5601   3.179   9.455   8.347 -0.5046  0.6295  0.4671
  801MOL0     C 5602   3.218   9.432   8.233  0.7821 -0.6612  0.9070
  801MOL0     O 5603   3.246   9.314   8.181 -0.3822 -0.0213 -0.0641
  801MOL0     C 5604   3.177   9.207   8.235  0.2233 -0.2544  0.2630
  801MOL0     C 5605   3.249   9.090   8.253  0.1095 -0.5351 -0.5027
  801MOL0     C 5606   3.187   8.972   8.303 -0.9225 -0.2630  0.1588
  801MOL0     C 5607   3.046   8.954   8.323  0.5778 -0.6129  0.3594
  801MOL0     O 5608   3.002   8.824   8.345 -0.0472  0.2744 -0.4104
  801MOL0     C 5609   2.896   8.805   8.442 -0.7453  0.6163  0.2108
  801MOL0     C 5610   2.888   8.657   8.495  0.0806 -0.7204 -0.3344
  801MOL0     C 5611   2.871   8.585   8.359 -0.7479 -0.4846 -0.2287
  801MOL0     C 5612   2.812   8.443   8.395  0.1019  0.0994 -0.5509
  801MOL0     C 5613   2.808   8.343   8.275 -0.8163 -0.2227  0.3179
  801MOL0     C 5614   2.708   8.388   8.166 -0.2797  0.3001  0.0906
  801MOL0     C 5615   2.706   8.286   8.054 -1.0897  0.1870 -0.2995
  801MOL0     C 5616   2.595   8.182   8.045  0.2282 -0.6132 -0.1562
  801MOL0     N 5617   2.644   8.082   7.950 -0.6912  0.5720  0.1842
  801MOL0     C 5618   2.567   8.007   7.866  0.1335 -0.1837  0.1507
  801MOL0     C 5619   2.624   7.886   7.848  0.5626 -0.6821  0.0450
  801MOL0     C 5620   2.590   7.782   7.751 -0.7221  0.2939  0.1154
  801MOL0     C 5621   2.444   7.753   7.753  0.7238 -0.7058  0.0373
  801MOL0     C 5622   2.417   7.661   7.639 -0.1008 -0.2169 -0.8076
  801MOL0     C 5623   2.270   7.625   7.605  0.1578 -0.0209 -0.1809
  801MOL0     O 5624   2.206   7.742   7.552 -0.2033  0.6553 -0.2628
  801MOL0     C 5625   2.068   7.763   7.533 -0.1873  0.7765  0.5448
  801MOL0     C 5626   2.011   7.875   7.598  0.2356  0.4177  0.2508
  801MOL0     C 5627   1.872   7.897   7.595  0.2517  1.4000  0.2362
  801MOL0     C 5628   1.788   7.795   7.545  0.2675 -0.1926  1.4968
  801MOL0     C 5629   1.642   7.812   7.547  0.0585  0.5891  1.3103
  801MOL0     O 5630   1.561   7.699   7.528 -0.5579 -0.5570 -0.3392
  801MOL0     C 5631   1.427   7.700   7.545  0.2345  0.9865 -0.5724
  801MOL0     C 5632   1.364   7.753   7.666  0.9303 -0.7877 -0.6513
  801MOL0     C 5633   1.215   7.735   7.683  0.7663 -0.5861  0.1623
  801MOL0     C 5634   1.137   7.649   7.594  0.3209 -0.0645 -1.0294
  801MOL0     O 5635   1.009   7.597   7.626 -0.8095 -0.0767 -0.1589
  801MOL0     C 5636   0.991   7.568   7.766 -0.0236  1.1672 -0.2929
  801MOL0     C 5637   1.073   7.435   7.798 -1.2504 -0.2999  1.0042
  801MOL0     C 5638   1.198   7.452   7.893  1.2027 -0.0935  0.2713
  801MOL0     C 5639   1.161   7.407   8.044 -0.3046 -0.5590  0.0288
  801MOL0     C 5640   1.261   7.473   8.133 -0.7960 -1.1701 -0.7151
  801MOL0     C 5641   1.358   7.385   8.216  0.4384 -0.1648 -0.3076
  801MOL0     C 5642   1.467   7.467   8.276 -0.1607  0.2430 -0.8712
  801MOL0     C 5643   1.586   7.397   8.341  0.4429  0.3548 -0.0874
  801MOL0    Cl 5644   1.533   7.259   8.438  0.1911  0.1579  0.1314
  801MOL0     C 5645   1.203   7.594   7.488  0.0127  0.7851  0.0424
  801MOL0     C 5646   1.335   7.620   7.463  0.2238  0.5051  0.4744
  801MOL0     O 5647   1.596   7.924   7.557 -0.3746  0.1493 -0.8314
  801MOL0     C 5648   1.846   7.679   7.483  0.7980 -0.4451 -0.0182
  801MOL0     C 5649   1.981   7.664   7.475 -0.6521 -0.1500 -0.9991
  801MOL0     N 5650   2.746   7.887   7.916 -0.4876  0.1283 -0.2171
  801MOL0     N 5651   2.749   7.998   7.981  0.3792  0.0905  0.8904
  801MOL0     C 5652   2.967   9.078   8.299 -0.3251 -0.6793 -0.4176
  801MOL0     C 5653   3.029   9.198   8.250 -0.4055 -0.2252  0.0085
  801MOL0     C 5654   3.278   9.548   8.159  0.5769 -0.3871 -0.6174
  801MOL0     C 5655   3.296   9.678   8.223 -0.5107  0.0580 -0.2419
  801MOL0     C 5656   3.342   9.791   8.145  0.6333  0.7296 -0.1767
  801MOL0     C 5657   3.367   9.783   8.008  0.6011  0.3586 -0.0057
  801MOL0     O 5658   3.427   9.882   7.940 -0.0131 -0.2971  0.3725
  801MOL0     C 5659   3.327   9.949   7.860 -0.5054  0.1034 -0.2091
  801MOL0     C 5660   3.204  10.022   7.922 -0.9431  0.5155 -0.3770
  801MOL0     C 5661   3.130  10.098   7.809  0.0078 -0.4593  0.1395
  801MOL0     C 5662   3.008  10.181   7.864  0.0802 -0.4772 -1.0372
  801MOL0     C 5663   2.965  10.305   7.792 -0.6385  0.1734  0.5060
  801MOL0     C 5664   2.942  10.411   7.734  0.3013  0.3569  0.3557
  801MOL0     C 5665   3.354   9.656   7.945 -1.0358 -0.7189  0.2094
  801MOL0     C 5666   3.305   9.539   8.017 -0.6752  0.4991 -0.2560
  801MOL0     H 5667   3.357   9.079   8.244  0.0045 -1.9963 -0.3096
  801MOL0     H 5668   3.240   8.879   8.313 -1.5462 -0.3611  3.6921
  801MOL0     H 5669   2.807   8.837   8.387 -0.3680 -2.3901 -2.5267
  801MOL0     H 5670   2.917   8.867   8.529  5.0224 -2.2941  1.3687
  801MOL0     H 5671   2.807   8.642   8.566  1.7953 -0.0000  1.8690
  801MOL0     H 5672   2.979   8.630   8.549  1.4828  0.2257 -2.1132
  801MOL0     H 5673   2.969   8.569   8.315 -1.7874 -0.9697 -2.5287
  801MOL0     H 5674   2.804   8.632   8.286 -0.8788  2.2613  1.5178
  801MOL0     H 5675   2.882   8.392   8.462 -2.1270  0.3607  2.1514
  801MOL0     H 5676   2.712   8.451   8.439 -0.1293 -0.4213 -0.9693
  801MOL0     H 5677   2.770   8.247   8.311  0.0544  0.0039  1.8984
  801MOL0     H 5678   2.906   8.337   8.226 -1.4909  1.9993 -1.4771
  801MOL0     H 5679   2.748   8.484   8.131 -0.2247  0.0717 -0.4801
  801MOL0     H 5680   2.608   8.398   8.210  1.0595 -2.4574  4.4057
  801MOL0     H 5681   2.698   8.341   7.960 -1.7758 -2.6471 -2.0432
  801MOL0     H 5682   2.805   8.240   8.060  0.1309  2.2356 -2.9279
  801MOL0     H 5683   2.507   8.229   8.000 -0.4757 -2.6763 -1.0461
  801MOL0     H 5684   2.569   8.143   8.144 -4.1045  1.8346 -0.0917
  801MOL0     H 5685   2.474   8.035   7.818  0.4499 -2.2210 -1.8132
  801MOL0     H 5686   2.635   7.684   7.767 -2.6210 -1.5143 -4.2952
  801MOL0     H 5687   2.630   7.820   7.657  2.2692 -0.1207  1.0943
  801MOL0     H 5688   2.375   7.835   7.728 -1.2632 -3.1059 -3.2318
  801MOL0     H 5689   2.415   7.703   7.846  3.9076 -0.0745  1.4986
  801MOL0     H 5690   2.458   7.704   7.547  1.1171 -0.0456 -0.2014
  801MOL0     H 5691   2.465   7.566   7.667  1.6647  0.7953 -0.2483
  801MOL0     H 5692   2.216   7.577   7.687  1.7369 -1.4944  0.0375
  801MOL0     H 5693   2.296   7.552   7.527  0.8023  2.3840 -2.3622
  801MOL0     H 5694   2.079   7.934   7.658  0.1975  1.5091 -0.7527
  801MOL0     H 5695   1.827   7.971   7.661 -1.2366 -0.0112  0.8856
  801MOL0     H 5696   1.422   7.804   7.742  1.1074  2.0102 -2.5133
  801MOL0     H 5697   1.170   7.786   7.768 -1.0140 -1.8655  0.0517
  801MOL0     H 5698   0.884   7.546   7.775  0.1982  0.0407 -0.3249
  801MOL0     H 5699   1.020   7.648   7.835  1.3073 -1.4406  2.3588
  801MOL0     H 5700   1.113   7.394   7.704 -3.9770  1.0590 -0.8963
  801MOL0     H 5701   0.995   7.364   7.825  0.2761 -2.1354  0.7837
  801MOL0     H 5702   1.222   7.559   7.894 -0.2960  0.2748  1.7185
  801MOL0     H 5703   1.280   7.390   7.854  0.0335 -0.4731 -1.6758
  801MOL0     H 5704   1.059   7.413   8.084  0.3181 -1.0166  1.7926
  801MOL0     H 5705   1.173   7.298   8.042 -0.8277 -0.6134 -0.5849
  801MOL0     H 5706   1.199   7.544   8.189 -0.1576  0.3458 -1.8528
  801MOL0     H 5707   1.328   7.538   8.075 -0.0880 -0.6382  0.6432
  801MOL0     H 5708   1.402   7.314   8.145  0.7408 -1.6814  1.3110
  801MOL0     H 5709   1.313   7.335   8.302  0.5318  0.6988  0.2519
  801MOL0     H 5710   1.513   7.525   8.195  1.1809  0.5132  0.0458
  801MOL0     H 5711   1.423   7.534   8.351  2.7314 -0.8917  2.0702
  801MOL0     H 5712   1.648   7.472   8.391  2.8847 -2.7873  2.0248
  801MOL0     H 5713   1.649   7.363   8.258 -1.5121  3.4020 -3.0929
  801MOL0     H 5714   1.162   7.513   7.427 -2.3156  1.2573  0.8765
  801MOL0     H 5715   1.373   7.566   7.377  0.0746  1.9772 -0.5678
  801MOL0     H 5716   1.794   7.597   7.434  1.3294 -0.1968 -1.0244
  801MOL0     H 5717   2.031   7.581   7.426  1.2683 -0.9476  2.0014
  801MOL0     H 5718   2.859   9.079   8.304 -0.2886 -0.1354  0.6100
  801MOL0     H 5719   2.969   9.283   8.220  0.1218 -0.6385 -2.4626
  801MOL0     H 5720   3.304   9.674   8.331  2.3449  1.4150 -0.3206
  801MOL0     H 5721   3.364   9.879   8.203  2.1895 -0.6469  1.4263
  801MOL0     H 5722   3.297   9.878   7.782  0.2088 -0.0619 -0.3464
  801MOL0     H 5723   3.378  10.023   7.796 -4.1268  2.6043 -0.5067
  801MOL0     H 5724   3.131   9.953   7.965 -0.8332  2.3926  3.1481
  801MOL0     H 5725   3.229  10.098   7.996 -0.2955 -0.2280  0.1821
  801MOL0     H 5726   3.092  10.037   7.727  1.7516 -0.6877 -0.5420
  801MOL0     H 5727   3.199  10.171   7.768 -0.2242  0.0461  0.6383
  801MOL0     H 5728   2.922  10.113   7.874  1.3027 -1.8564  0.8599
  801MOL0     H 5729   3.030  10.226   7.961 -0.9363 -0.2678 -0.8927
  801MOL0     H 5730   2.918  10.497   7.675  0.8635  0.0810 -0.2964
  801MOL0     H 5731   3.381   9.639   7.841  0.4241 -0.7423  0.5639
  801MOL0     H 5732   3.286   9.442   7.972 -3.8421  1.7744 -2.0649
  802MOL0     O 5733  11.472   3.565   0.121 -0.1274  0.1063 -0.1361
  802MOL0     C 5734  11.424   3.545   0.011 -0.0363  0.3991  1.4832
  802MOL0     O 5735  11.491   3.502  -0.102 -0.4923 -0.7419 -0.7746
  802MOL0     C 5736  11.626   3.461  -0.091  0.7128 -0.8121 -0.5457
  802MOL0     C 5737  11.658   3.329  -0.048  0.1112 -0.0101 -0.2295
  802MOL0     C 5738  11.797   3.298  -0.023  0.5819 -0.2265  0.4922
  802MOL0     C 5739  11.887   3.404  -0.034  0.1930  0.1406 -0.0971
  802MOL0     O 5740  12.005   3.362   0.009 -0.6071 -0.5872  0.1846
  802MOL0     C 5741  12.079   3.459   0.084  0.0419  0.0490  0.0884
  802MOL0     C 5742  12.228   3.412   0.099 -0.0034 -0.4130 -0.2243
  802MOL0     C 5743  12.304   3.524   0.163  0.3694 -0.5580 -0.1509
  802MOL0     C 5744  12.456   3.488   0.163  0.1899  0.3935  0.5282
  802MOL0     C 5745  12.539   3.617   0.174  0.3344  0.1567 -0.2871
  802MOL0     C 5746  12.509   3.711   0.297 -0.4314  0.1443 -0.1880
  802MOL0     C 5747  12.633   3.795   0.333  0.1377  0.9661  0.4953
  802MOL0     C 5748  12.681   3.888   0.219 -0.3201  0.6842  0.8703
  802MOL0     N 5749  12.800   3.973   0.264 -0.2290 -0.0087  0.6917
  802MOL0     C 5750  12.933   3.934   0.269 -0.3886  0.1195 -0.8850
  802MOL0     C 5751  12.996   4.047   0.311  0.4607 -0.2112 -1.2251
  802MOL0     C 5752  13.142   4.033   0.348  0.0801  0.6674  0.5502
  802MOL0     C 5753  13.219   4.048   0.217 -0.6279  0.6391  0.0750
  802MOL0     C 5754  13.368   4.066   0.251 -0.3514  0.2410 -0.2888
  802MOL0     C 5755  13.462   4.095   0.133 -0.3738 -0.9882  0.2227
  802MOL0     O 5756  13.468   3.975   0.054 -0.4569  0.0542  0.6385
  802MOL0     C 5757  13.539   3.985  -0.063 -1.0403 -0.0266  0.0336
  802MOL0     C 5758  13.537   4.106  -0.150  0.3361  0.4326  0.1138
  802MOL0     C 5759  13.597   4.102  -0.276 -0.3770 -0.2218  0.5137
  802MOL0     C 5760  13.672   3.989  -0.317 -0.6619 -0.0559 -0.0033
  802MOL0     C 5761  13.736   3.985  -0.449 -0.0905 -0.4523 -0.0881
  802MOL0     O 5762  13.815   3.879  -0.478  0.1735 -0.1466  0.1865
  802MOL0     C 5763  13.833   3.849  -0.609 -0.7437  0.1070 -0.6439
  802MOL0     C 5764  13.807   3.722  -0.651  0.1647 -0.5213 -0.0897
  802MOL0     C 5765  13.849   3.676  -0.772 -0.1675 -0.0054  0.8459
  802MOL0     C 5766  13.906   3.768  -0.868  0.1667  0.0101 -0.1957
  802MOL0     O 5767  13.945   3.733  -0.992 -0.2948 -0.5994 -0.1187
  802MOL0     C 5768  13.859   3.776  -1.098 -1.0670  0.5571 -0.6880
  802MOL0     C 5769  13.932   3.831  -1.224 -0.1236 -0.4960 -0.2428
  802MOL0     C 5770  14.044   3.745  -1.274  0.9491 -0.6170  0.5717
  802MOL0     C 5771  14.127   3.802  -1.397  0.7380 -0.3837 -0.6980
  802MOL0     C 5772  14.216   3.712  -1.474  0.0311  0.3105  0.3700
  802MOL0     C 5773  14.256   3.778  -1.610  0.2678  0.2101  0.4405
  802MOL0     C 5774  14.343   3.682  -1.675 -0.4901  0.0028  1.0877
  802MOL0     C 5775  14.478   3.656  -1.617  0.0613 -0.0991 -0.6511
  802MOL0    Cl 5776  14.586   3.805  -1.625 -0.3663  0.1950  0.0314
  802MOL0     C 5777  13.953   3.896  -0.816  0.5147  1.0745  0.4526
  802MOL0     C 5778  13.916   3.938  -0.691 -0.0885  0.1167 -0.3317
  802MOL0     O 5779  13.699   4.072  -0.523 -0.2800 -0.2602 -0.0589
  802MOL0     C 5780  13.682   3.879  -0.226 -0.4008  0.8234 -0.1655
  802MOL0     C 5781  13.612   3.877  -0.107  0.3094 -0.4410  0.0642
  802MOL0     N 5782  12.900   4.138   0.363  0.4576  0.1098  0.6019
  802MOL0     N 5783  12.779   4.084   0.331 -0.4961 -0.8557 -0.9678
  802MOL0     C 5784  11.859   3.531  -0.095  1.1830  0.2407  0.4079
  802MOL0     C 5785  11.723   3.558  -0.118  0.8136  0.1629 -0.0505
  802MOL0     C 5786  11.278   3.557  -0.008 -0.8096  0.0159  0.2002
  802MOL0     C 5787  11.195   3.577   0.103 -0.0027  0.4879  0.1266
  802MOL0     C 5788  11.052   3.586   0.089 -1.0143  0.2614  0.3938
  802MOL0     C 5789  10.990   3.556  -0.031 -0.0810  0.2933 -0.0824
  802MOL0     O 5790  10.852   3.548  -0.023  0.3158  0.0274  0.8414
  802MOL0     C 5791  10.780   3.590  -0.139 -0.2385 -0.3874 -0.1788
  802MOL0     C 5792  10.634   3.547  -0.119  0.6255 -0.2110  0.0276
  802MOL0     C 5793  10.568   3.478  -0.238  0.6047  0.6542 -0.6867
  802MOL0     C 5794  10.451   3.382  -0.185  0.0901  0.0591  0.5697
  802MOL0     C 5795  10.497   3.244  -0.170 -0.7758 -0.1296  0.5998
  802MOL0     C 5796  10.539   3.132  -0.166 -0.3696 -0.3083  0.2079
  802MOL0     C 5797  11.076   3.529  -0.141 -0.3291  0.0202 -0.0388
  802MOL0     C 5798  11.215   3.531  -0.132  0.8425 -0.1703  0.4157
  802MOL0     H 5799  11.580   3.254  -0.040  1.9861 -2.1212 -0.5175
  802MOL0     H 5800  11.833   3.206   0.021  2.0757  0.6705  1.2274
  802MOL0     H 5801  12.045   3.468   0.188  0.8567 -2.4680  0.6490
  802MOL0     H 5802  12.092   3.552   0.028 -1.6744  0.9432  1.1072
  802MOL0     H 5803  12.271   3.394   0.001  1.9895  2.5783 -0.0374
  802MOL0     H 5804  12.238   3.322   0.160 -0.9568  1.4539  2.9455
  802MOL0     H 5805  12.274   3.551   0.264  0.4947  3.5484 -1.0335
  802MOL0     H 5806  12.299   3.617   0.106  5.7492 -1.0250 -1.9810
  802MOL0     H 5807  12.465   3.420   0.248 -1.5866  0.5004  0.8486
  802MOL0     H 5808  12.484   3.429   0.075 -3.6102 -1.8125  0.5809
  802MOL0     H 5809  12.518   3.685   0.091 -2.6161  1.3673  1.3123
  802MOL0     H 5810  12.643   3.581   0.172  0.4368 -0.2136  3.9326
  802MOL0     H 5811  12.481   3.661   0.390 -0.3205 -0.2290 -0.3577
  802MOL0     H 5812  12.446   3.791   0.257  3.8059  3.3771 -1.1695
  802MOL0     H 5813  12.604   3.853   0.421 -1.6124 -1.9684  2.0036
  802MOL0     H 5814  12.718   3.731   0.361  1.5868  2.3808 -0.4599
  802MOL0     H 5815  12.593   3.947   0.193  1.1906  1.8263 -2.1706
  802MOL0     H 5816  12.701   3.833   0.127 -3.2336  1.6138 -0.4499
  802MOL0     H 5817  12.978   3.836   0.256 -1.2793 -0.4315  0.0561
  802MOL0     H 5818  13.163   3.931   0.382 -1.6036  0.2465  0.3789
  802MOL0     H 5819  13.176   4.106   0.423  1.9719 -0.4915  0.9079
  802MOL0     H 5820  13.185   4.127   0.150  0.2968 -0.0202 -1.1998
  802MOL0     H 5821  13.210   3.953   0.163  2.9723  0.3249 -0.1956
  802MOL0     H 5822  13.373   4.161   0.305  0.3767  0.6676 -1.0893
  802MOL0     H 5823  13.395   3.980   0.313  2.5719  1.0871 -0.2550
  802MOL0     H 5824  13.561   4.123   0.168 -0.5011 -1.1112  0.6968
  802MOL0     H 5825  13.433   4.187   0.081  0.3867  0.0449  1.5872
  802MOL0     H 5826  13.462   4.184  -0.141 -3.2166 -2.8054  1.1890
  802MOL0     H 5827  13.595   4.190  -0.339  3.8024  0.1127  0.6002
  802MOL0     H 5828  13.773   3.656  -0.572  3.7227 -0.2967  1.7959
  802MOL0     H 5829  13.838   3.569  -0.786 -2.0822  0.5475 -3.7624
  802MOL0     H 5830  13.791   3.850  -1.054 -0.5563  1.2259 -0.9973
  802MOL0     H 5831  13.800   3.687  -1.121 -1.4504 -1.5052  6.2300
  802MOL0     H 5832  13.974   3.931  -1.211  1.4984 -1.0069 -1.2478
  802MOL0     H 5833  13.858   3.842  -1.303  0.8036 -1.1780 -1.2397
  802MOL0     H 5834  14.005   3.647  -1.306 -2.0452  0.7796 -0.3801
  802MOL0     H 5835  14.127   3.727  -1.204  3.9045 -0.8877 -2.6878
  802MOL0     H 5836  14.054   3.855  -1.459 -0.2580 -0.4183  0.4152
  802MOL0     H 5837  14.196   3.878  -1.357 -0.6346  2.3879 -3.2036
  802MOL0     H 5838  14.160   3.623  -1.502 -3.5802  2.0420  1.4962
  802MOL0     H 5839  14.308   3.696  -1.417  0.7084 -2.5213 -1.3218
  802MOL0     H 5840  14.314   3.865  -1.577 -0.6515  0.2315  2.1140
  802MOL0     H 5841  14.176   3.796  -1.682  0.0893 -0.6302  0.4260
  802MOL0     H 5842  14.301   3.586  -1.708  3.5371 -1.5112 -0.2592
  802MOL0     H 5843  14.371   3.737  -1.765  0.8087  2.5280  2.9184
  802MOL0     H 5844  14.524   3.577  -1.678 -0.7989 -1.5751  0.5578
  802MOL0     H 5845  14.482   3.605  -1.521 -2.8492 -0.7748 -0.7977
  802MOL0     H 5846  14.015   3.958  -0.879  0.2523  0.1212 -0.7847
  802MOL0     H 5847  13.945   4.035  -0.652 -0.5258 -0.4137  1.3599
  802MOL0     H 5848  13.747   3.795  -0.248 -0.2164  0.2952  2.1227
  802MOL0     H 5849  13.612   3.793  -0.038  1.0644 -3.1303 -2.9174
  802MOL0     H 5850  11.937   3.603  -0.115 -0.2733  1.0829 -2.9204
  802MOL0     H 5851  11.701   3.660  -0.148 -1.0850 -0.5560 -1.3381
  802MOL0     H 5852  11.218   3.591   0.208 -1.9285 -3.1973  1.2279
  802MOL0     H 5853  11.000   3.594   0.184  0.5001 -2.8343  1.6466
  802MOL0     H 5854  10.821   3.539  -0.228  1.1866 -0.4285  0.4772
  802MOL0     H 5855  10.785   3.699  -0.144 -1.9035 -0.2177  1.1611
  802MOL0     H 5856  10.631   3.471  -0.039  2.9521 -0.1955  0.2066
  802MOL0     H 5857  10.570   3.635  -0.106  2.6076  1.1329  1.2847
  802MOL0     H 5858  10.647   3.423  -0.290 -0.2541 -0.4154 -0.8793
  802MOL0     H 5859  10.522   3.561  -0.292 -2.5531 -0.1392  0.5639
  802MOL0     H 5860  10.412   3.417  -0.089  0.4377  3.0485 -0.2499
  802MOL0     H 5861  10.371   3.382  -0.260 -0.6661 -1.8238  1.3384
  802MOL0     H 5862  10.570   3.030  -0.169 -2.2286 -0.8802 -0.3498
  802MOL0     H 5863  11.024   3.493  -0.230 -1.4792  0.6395  0.3576
  802MOL0     H 5864  11.280   3.511  -0.217 -1.0555 -1.2938 -0.8573
  803MOL0     O 5865   2.964   2.532   1.877  0.3165  0.2064  0.2802
  803MOL0     C 5866   2.970   2.411   1.899  0.1207 -0.4881 -0.7234
  803MOL0     O 5867   2.956   2.315   1.817  0.0647  0.2679  0.1601
  803MOL0     C 5868   2.912   2.345   1.693 -1.4969 -0.2932  0.4749
  803MOL0     C 5869   3.009   2.337   1.595  0.5231  0.2946 -0.1907
  803MOL0     C 5870   2.974   2.351   1.457 -1.0689 -0.3333  0.3833
  803MOL0     C 5871   2.841   2.366   1.418 -1.0669 -0.2577  0.4030
  803MOL0     O 5872   2.813   2.371   1.282  0.2362 -0.4720  0.2580
  803MOL0     C 5873   2.696   2.453   1.236 -0.3667 -0.3881  1.1300
  803MOL0     C 5874   2.713   2.605   1.260 -0.8062  0.0071 -0.6399
  803MOL0     C 5875   2.587   2.687   1.240  0.8288 -0.1168 -0.1935
  803MOL0     C 5876   2.611   2.834   1.267 -0.3117  0.1036 -0.4527
  803MOL0     C 5877   2.501   2.942   1.249 -0.7851 -0.6853 -0.5875
  803MOL0     C 5878   2.436   2.947   1.115  0.2185 -0.1769  0.5178
  803MOL0     C 5879   2.330   3.051   1.113  0.3173 -0.1340 -0.8834
  803MOL0     C 5880   2.243   3.040   0.978 -0.4381 -0.4026  0.8422
  803MOL0     N 5881   2.325   3.062   0.854  0.2019  0.3061 -0.9948
  803MOL0     C 5882   2.368   2.960   0.772  0.0040 -0.1825  0.0168
  803MOL0     C 5883   2.450   3.018   0.685  0.2966 -0.6630  0.1810
  803MOL0     C 5884   2.516   2.942   0.568  0.7927 -0.5126 -1.0398
  803MOL0     C 5885   2.644   2.868   0.612 -0.1145 -0.3465  0.2078
  803MOL0     C 5886   2.709   2.795   0.495  0.4177  0.5883 -0.0762
  803MOL0     C 5887   2.812   2.686   0.536 -0.8149 -0.4134  1.1307
  803MOL0     O 5888   2.857   2.615   0.414  0.6963 -1.0689 -0.1110
  803MOL0     C 5889   2.954   2.515   0.428 -0.1993  0.2190  0.4740
  803MOL0     C 5890   2.953   2.407   0.337 -0.5607 -0.5053 -0.1026
  803MOL0     C 5891   3.037   2.298   0.350 -0.4526 -0.9004  0.1894
  803MOL0     C 5892   3.137   2.299   0.451 -0.2628  0.8910  0.8386
  803MOL0     C 5893   3.234   2.182   0.478  0.6754 -0.0674  0.7023
  803MOL0     O 5894   3.211   2.068   0.392  0.2225  0.0854 -0.7773
  803MOL0     C 5895   3.306   1.968   0.372  0.4885 -0.0349  0.2772
  803MOL0     C 5896   3.270   1.871   0.276 -0.1840 -0.5265 -0.0470
  803MOL0     C 5897   3.354   1.764   0.263 -0.0314  0.2887  0.7111
  803MOL0     C 5898   3.471   1.744   0.335  0.0809 -0.6077 -0.0762
  803MOL0     O 5899   3.562   1.636   0.330  0.9485  0.0116 -0.2541
  803MOL0     C 5900   3.583   1.561   0.208 -0.2560 -1.0518 -0.5190
  803MOL0     C 5901   3.686   1.438   0.247  0.4771 -1.2620 -0.7859
  803MOL0     C 5902   3.608   1.327   0.310 -0.1227  0.5932  0.0363
  803MOL0     C 5903   3.694   1.201   0.338  0.7524 -0.3166  0.6087
  803MOL0     C 5904   3.613   1.090   0.407  0.2933  0.2504 -0.2315
  803MOL0     C 5905   3.673   1.028   0.530  1.0267  0.6957 -0.8217
  803MOL0     C 5906   3.595   0.906   0.583  0.6212  0.1573  0.5138
  803MOL0     C 5907   3.604   0.788   0.484  0.4571 -0.5463  0.4759
  803MOL0    Cl 5908   3.487   0.660   0.517 -0.4375  0.2177  0.1547
  803MOL0     C 5909   3.506   1.846   0.420 -0.4847 -0.2581  1.2902
  803MOL0     C 5910   3.426   1.963   0.439  0.8518 -0.0653  0.3836
  803MOL0     O 5911   3.325   2.211   0.554 -0.4537  0.8344  0.4442
  803MOL0     C 5912   3.145   2.416   0.530  0.1219 -0.3340  0.3917
  803MOL0     C 5913   3.063   2.518   0.516 -0.6542 -0.4660  0.0387
  803MOL0     N 5914   2.436   3.154   0.704 -0.4765 -1.2849  0.3657
  803MOL0     N 5915   2.352   3.179   0.795  0.0004  0.0737 -0.0525
  803MOL0     C 5916   2.755   2.391   1.517 -0.1591  0.8862 -0.9995
  803MOL0     C 5917   2.785   2.363   1.655  0.1878 -1.0842  0.4526
  803MOL0     C 5918   3.018   2.362   2.032  0.6610 -0.3748 -0.5407
  803MOL0     C 5919   3.112   2.265   2.059 -0.5858  0.0809  0.5374
  803MOL0     C 5920   3.145   2.230   2.192 -0.7407  1.2813  0.3099
  803MOL0     C 5921   3.097   2.302   2.305 -0.0495  0.9164  0.3390
  803MOL0     O 5922   3.136   2.275   2.429 -0.1209  0.5262 -0.0392
  803MOL0     C 5923   3.221   2.165   2.466  0.1552 -0.6280 -0.4821
  803MOL0     C 5924   3.379   2.175   2.438  0.5218  0.9937 -0.3030
  803MOL0     C 5925   3.447   2.037   2.400 -0.0806 -0.8586  0.1159
  803MOL0     C 5926   3.590   2.051   2.364  0.1575 -0.2305  0.0978
  803MOL0     C 5927   3.660   2.110   2.475 -0.8285  0.7028  0.4242
  803MOL0     C 5928   3.725   2.159   2.570  0.6721  0.9753 -0.6580
  803MOL0     C 5929   3.004   2.393   2.275 -0.3614 -0.1904  1.3384
  803MOL0     C 5930   2.962   2.420   2.146  0.5121  0.0121  0.7625
  803MOL0     H 5931   3.109   2.305   1.624  0.2341  1.2586  2.0913
  803MOL0     H 5932   3.043   2.319   1.379 -1.6818 -4.1525  1.2148
  803MOL0     H 5933   2.609   2.410   1.285 -0.2566  1.2586  2.9049
  803MOL0     H 5934   2.684   2.447   1.128  1.2218  1.8918  0.7481
  803MOL0     H 5935   2.796   2.644   1.201 -0.0673  0.8898  0.9334
  803MOL0     H 5936   2.740   2.621   1.364 -0.0516  1.1993 -0.9953
  803MOL0     H 5937   2.507   2.647   1.304  1.2457 -4.6191 -2.1278
  803MOL0     H 5938   2.556   2.666   1.138 -0.1235 -0.7527  0.2126
  803MOL0     H 5939   2.644   2.849   1.370  2.1970  3.7779 -1.5819
  803MOL0     H 5940   2.700   2.872   1.215  0.4571  0.0390  0.7569
  803MOL0     H 5941   2.537   3.045   1.262  1.1914 -1.2756 -0.9911
  803MOL0     H 5942   2.426   2.920   1.326 -0.6664  0.2818 -0.1738
  803MOL0     H 5943   2.390   2.851   1.094 -0.5043  0.3856 -0.5603
  803MOL0     H 5944   2.516   2.969   1.044 -0.5728 -1.9524 -1.0131
  803MOL0     H 5945   2.275   3.036   1.207  1.1322 -0.2518 -0.4211
  803MOL0     H 5946   2.374   3.151   1.121  1.5686 -0.3565 -3.6911
  803MOL0     H 5947   2.162   3.112   0.962  1.1838  1.5597  1.0148
  803MOL0     H 5948   2.202   2.939   0.982  0.3151 -0.8365 -1.2825
  803MOL0     H 5949   2.349   2.854   0.762  4.5336 -1.3220  1.2903
  803MOL0     H 5950   2.528   2.995   0.473 -1.2866 -0.8028 -1.5193
  803MOL0     H 5951   2.447   2.862   0.538 -0.2038 -0.9975  2.2326
  803MOL0     H 5952   2.608   2.789   0.678 -1.7693 -2.5266 -3.0158
  803MOL0     H 5953   2.712   2.944   0.650 -0.7105  0.6482 -0.6468
  803MOL0     H 5954   2.630   2.737   0.447  1.3801 -1.7194  0.9656
  803MOL0     H 5955   2.752   2.869   0.427 -2.1406  5.1303  2.8004
  803MOL0     H 5956   2.782   2.621   0.619 -0.1471  2.0458  3.4003
  803MOL0     H 5957   2.903   2.739   0.564 -2.8360  2.6370  2.3154
  803MOL0     H 5958   2.877   2.399   0.260  1.7467  0.5020 -2.6557
  803MOL0     H 5959   3.022   2.219   0.277  2.1102 -0.9132 -0.4151
  803MOL0     H 5960   3.180   1.879   0.216 -1.1459  0.2543  1.4292
  803MOL0     H 5961   3.318   1.689   0.193  2.2657 -2.7906  2.5814
  803MOL0     H 5962   3.622   1.626   0.129 -2.0052  0.0350 -0.5546
  803MOL0     H 5963   3.489   1.529   0.162 -0.0060 -1.0367 -1.0464
  803MOL0     H 5964   3.750   1.480   0.325  1.7100 -0.6783 -2.0643
  803MOL0     H 5965   3.743   1.407   0.159 -0.6243  0.2918 -2.0979
  803MOL0     H 5966   3.526   1.284   0.251  1.7413 -1.2390 -1.4104
  803MOL0     H 5967   3.566   1.373   0.399  0.1765 -1.6289  1.4043
  803MOL0     H 5968   3.731   1.176   0.238 -3.9921  1.5559 -1.9458
  803MOL0     H 5969   3.777   1.230   0.403 -0.2905  1.4140  1.2309
  803MOL0     H 5970   3.603   1.018   0.325 -0.7226  0.1381 -0.0166
  803MOL0     H 5971   3.510   1.125   0.411  1.0744  3.1021 -1.8737
  803MOL0     H 5972   3.693   1.099   0.612  0.7363  0.6010 -0.6684
  803MOL0     H 5973   3.772   0.992   0.502  1.1701  0.7073 -0.3509
  803MOL0     H 5974   3.639   0.875   0.679  3.9327  0.8944 -0.6115
  803MOL0     H 5975   3.488   0.924   0.598  0.7118  2.0355 -0.7676
  803MOL0     H 5976   3.710   0.762   0.484  0.4575 -0.6056 -1.1799
  803MOL0     H 5977   3.571   0.823   0.386  0.0769 -0.3724  0.6626
  803MOL0     H 5978   3.598   1.835   0.477  0.9528  0.9577 -0.6496
  803MOL0     H 5979   3.472   2.028   0.513  1.6422  1.5286 -1.4377
  803MOL0     H 5980   3.227   2.419   0.602 -0.0102 -4.5256  0.9697
  803MOL0     H 5981   3.072   2.589   0.597  1.4527 -0.6850  0.0653
  803MOL0     H 5982   2.655   2.414   1.482  0.3744 -1.3335 -4.3995
  803MOL0     H 5983   2.704   2.367   1.727  1.6753  0.7070  2.1586
  803MOL0     H 5984   3.160   2.212   1.977 -2.3983  0.3054 -0.7339
  803MOL0     H 5985   3.200   2.136   2.188 -2.6725  0.1508 -0.5150
  803MOL0     H 5986   3.181   2.074   2.420 -0.7160  0.2299 -1.4773
  803MOL0     H 5987   3.209   2.161   2.574  1.7062  0.7877 -0.2126
  803MOL0     H 5988   3.387   2.248   2.357 -1.2070  1.5270 -0.0254
  803MOL0     H 5989   3.427   2.213   2.528  0.0699 -1.1488  0.9083
  803MOL0     H 5990   3.394   2.000   2.311 -1.9801  4.0492 -1.1037
  803MOL0     H 5991   3.445   1.963   2.480 -0.9315 -0.4670  0.4691
  803MOL0     H 5992   3.632   1.954   2.334  2.5331  1.4599 -2.5135
  803MOL0     H 5993   3.597   2.113   2.275 -2.2388 -1.3028 -0.9127
  803MOL0     H 5994   3.790   2.182   2.651 -2.2943  2.1364  1.5607
  803MOL0     H 5995   2.948   2.445   2.351  0.0037 -1.1724  2.3167
  803MOL0     H 5996   2.887   2.497   2.125  1.5595  1.4201  1.9911
  804MOL0     O 5997   5.266   5.789  10.839 -0.0190  0.8716  1.1057
  804MOL0     C 5998   5.315   5.884  10.789 -0.7101  0.0422 -0.5414
  804MOL0     O 5999   5.260   5.970  10.697 -0.4583  0.1511  0.4394
  804MOL0     C 6000   5.130   5.941  10.661  0.1712  0.2110 -0.2465
  804MOL0     C 6001   5.037   6.006  10.727  0.0687 -0.5817 -0.4370
  804MOL0     C 6002   4.906   6.004  10.686  0.4868  0.0667  0.2219
  804MOL0     C 6003   4.854   5.928  10.590  0.3014 -0.4210  0.2679
  804MOL0     O 6004   4.719   5.917  10.568 -0.4194 -0.3704  0.1619
  804MOL0     C 6005   4.646   5.897  10.687  0.4740  0.3125  0.2379
  804MOL0     C 6006   4.495   5.847  10.652  0.1937 -0.7585  0.1566
  804MOL0     C 6007   4.407   5.860  10.782 -1.0358 -0.2949  0.1695
  804MOL0     C 6008   4.433   5.743  10.894 -0.4590 -1.3135  0.1471
  804MOL0     C 6009   4.378   5.781  11.027  0.3806 -1.0163  0.4214
  804MOL0     C 6010   4.430   5.692  11.145 -0.0206  0.6703  0.2102
  804MOL0     C 6011   4.510   5.766  11.250  0.0262  0.3800  0.0746
  804MOL0     C 6012   4.625   5.856  11.220 -0.7141  0.4330 -0.2221
  804MOL0     N 6013   4.743   5.786  11.164 -0.2546 -0.3884 -0.1515
  804MOL0     C 6014   4.872   5.790  11.212  0.7048  0.3846  0.0420
  804MOL0     C 6015   4.943   5.724  11.119  0.5999  0.4376 -0.0379
  804MOL0     C 6016   5.093   5.698  11.144  0.4628 -0.3998  0.5596
  804MOL0     C 6017   5.110   5.551  11.186  0.1922 -0.2463 -0.6032
  804MOL0     C 6018   5.248   5.533  11.257  0.4687  0.3628  0.5935
  804MOL0     C 6019   5.354   5.591  11.175  0.1878 -0.4813 -0.0027
  804MOL0     O 6020   5.480   5.582  11.252 -0.0133  0.7148 -0.3404
  804MOL0     C 6021   5.598   5.601  11.191 -0.3820 -0.8459 -0.4294
  804MOL0     C 6022   5.719   5.609  11.265  0.6675  0.2413  0.9029
  804MOL0     C 6023   5.841   5.645  11.211 -0.5262 -0.2287  0.4245
  804MOL0     C 6024   5.857   5.646  11.072 -0.1826 -0.8385 -0.4729
  804MOL0     C 6025   5.979   5.675  11.005 -1.2991  0.2303 -0.2413
  804MOL0     O 6026   6.088   5.724  11.081  0.0326  0.4325 -0.7657
  804MOL0     C 6027   6.205   5.780  11.033  0.5322 -0.1996  0.1771
  804MOL0     C 6028   6.272   5.884  11.092  0.9877  0.0511  0.4424
  804MOL0     C 6029   6.388   5.934  11.030  0.2037  0.8647 -0.7076
  804MOL0     C 6030   6.445   5.885  10.917 -0.2029 -0.5254 -0.9657
  804MOL0     O 6031   6.570   5.930  10.872 -1.0422 -0.0177  0.6323
  804MOL0     C 6032   6.560   6.057  10.804 -0.3218 -0.6353  0.1668
  804MOL0     C 6033   6.697   6.093  10.733 -0.4490 -0.4394  0.2757
  804MOL0     C 6034   6.759   5.984  10.639  0.1789  0.1565 -0.5566
  804MOL0     C 6035   6.659   5.981  10.526  0.4415 -0.7121  0.5374
  804MOL0     C 6036   6.715   5.898  10.419  0.9311  0.7520  0.0045
  804MOL0     C 6037   6.613   5.826  10.331  0.3226 -0.2542 -0.0487
  804MOL0     C 6038   6.657   5.803  10.189 -0.1605  0.0067 -0.6813
  804MOL0     C 6039   6.562   5.713  10.113  0.8181 -0.0950  0.5758
  804MOL0    Cl 6040   6.437   5.821  10.062 -0.2137 -0.3596  0.2930
  804MOL0     C 6041   6.375   5.779  10.858 -1.1812  0.0263  0.0732
  804MOL0     C 6042   6.258   5.726  10.912  0.2398 -0.4213  0.3058
  804MOL0     O 6043   5.983   5.674  10.879  0.0631 -0.2544 -0.5819
  804MOL0     C 6044   5.740   5.640  10.991  0.8529  0.3002 -0.9512
  804MOL0     C 6045   5.609   5.624  11.051  0.1468 -1.0321 -0.3984
  804MOL0     N 6046   4.855   5.695  11.014 -0.2680 -0.5746 -0.4676
  804MOL0     N 6047   4.742   5.748  11.039  0.4764  0.2703 -0.1768
  804MOL0     C 6048   4.949   5.848  10.532  1.1184  0.0751  0.2319
  804MOL0     C 6049   5.086   5.854  10.555  1.5927 -0.2023  0.6416
  804MOL0     C 6050   5.449   5.922  10.842 -0.9749  1.1201  0.2979
  804MOL0     C 6051   5.553   5.946  10.755 -0.4894  0.7760 -0.2023
  804MOL0     C 6052   5.681   5.967  10.808 -0.1365  0.2854  0.3615
  804MOL0     C 6053   5.707   5.966  10.948  0.1486 -0.5088 -1.2120
  804MOL0     O 6054   5.824   5.983  11.003 -0.3584 -0.6150 -0.0462
  804MOL0     C 6055   5.947   6.015  10.933  0.1454 -0.5626 -0.3042
  804MOL0     C 6056   5.945   6.147  10.857 -0.5917 -1.1255  0.1266
  804MOL0     C 6057   6.032   6.162  10.734 -0.9493 -0.7385  0.1302
  804MOL0     C 6058   6.183   6.189  10.755  0.2279  0.2911 -0.4980
  804MOL0     C 6059   6.257   6.181  10.635 -0.3073 -0.0249 -0.1676
  804MOL0     C 6060   6.327   6.176  10.539  1.0654  0.2863 -1.0104
  804MOL0     C 6061   5.599   5.932  11.033 -0.3122 -0.0958 -0.4839
  804MOL0     C 6062   5.476   5.914  10.986  0.0487 -0.4703  0.8537
  804MOL0     H 6063   5.069   6.055  10.818  3.6904 -2.9500 -0.2094
  804MOL0     H 6064   4.850   6.088  10.727 -0.0230  1.1410 -2.5125
  804MOL0     H 6065   4.636   5.993  10.738  3.2257  1.4815 -1.2208
  804MOL0     H 6066   4.704   5.824  10.745 -2.0440 -2.6770 -0.7530
  804MOL0     H 6067   4.506   5.743  10.619 -1.6708  0.0971 -3.7222
  804MOL0     H 6068   4.453   5.907  10.571  0.9399  1.6239  1.4318
  804MOL0     H 6069   4.304   5.867  10.745 -0.8289 -1.8448 -0.7758
  804MOL0     H 6070   4.427   5.959  10.825  4.5953 -0.6927 -0.8442
  804MOL0     H 6071   4.380   5.650  10.868 -1.4057 -1.3564  2.0479
  804MOL0     H 6072   4.541   5.726  10.903  0.3795  2.9013 -0.0235
  804MOL0     H 6073   4.269   5.777  11.020  0.4063 -1.1063 -0.0000
  804MOL0     H 6074   4.393   5.889  11.038 -3.7150  0.1208 -2.6092
  804MOL0     H 6075   4.479   5.602  11.107 -2.5398 -1.1720  1.0520
  804MOL0     H 6076   4.346   5.654  11.203  2.0362 -2.2671  1.5439
  804MOL0     H 6077   4.436   5.834  11.293 -2.6086 -0.7895 -2.2805
  804MOL0     H 6078   4.553   5.697  11.324  2.0020  3.4875  2.0347
  804MOL0     H 6079   4.661   5.908  11.309  3.1533 -0.0695 -1.3278
  804MOL0     H 6080   4.603   5.942  11.156  1.5702  0.7352 -0.6953
  804MOL0     H 6081   4.907   5.836  11.305 -0.9014 -1.4198  1.6298
  804MOL0     H 6082   5.132   5.761  11.224 -0.6842 -1.0293  1.6598
  804MOL0     H 6083   5.145   5.702  11.048  0.6875 -1.7240  0.6133
  804MOL0     H 6084   5.103   5.479  11.103  0.8201 -0.7017 -0.2720
  804MOL0     H 6085   5.040   5.525  11.266  2.6705 -0.1721  1.7346
  804MOL0     H 6086   5.256   5.580  11.355  1.5710 -2.6463  2.0864
  804MOL0     H 6087   5.262   5.425  11.269 -1.4629 -0.0030 -0.0153
  804MOL0     H 6088   5.344   5.698  11.151  3.5583  0.1537  0.8734
  804MOL0     H 6089   5.354   5.539  11.079  0.1968  1.3653 -1.0501
  804MOL0     H 6090   5.711   5.588  11.372 -2.8124  0.9350  0.8973
  804MOL0     H 6091   5.916   5.681  11.281  1.3994 -0.0139 -1.6276
  804MOL0     H 6092   6.240   5.939  11.180 -1.2934  0.1502 -0.3968
  804MOL0     H 6093   6.436   6.008  11.093 -0.3485 -0.6973  1.7032
  804MOL0     H 6094   6.549   6.138  10.877 -4.9144  2.0167 -2.9985
  804MOL0     H 6095   6.474   6.069  10.738  0.3810  2.1604 -0.3818
  804MOL0     H 6096   6.768   6.138  10.803 -1.1827  4.7832 -1.8234
  804MOL0     H 6097   6.672   6.173  10.662  1.2230 -0.3765 -0.2858
  804MOL0     H 6098   6.772   5.895  10.701 -2.2290 -1.1326 -1.7606
  804MOL0     H 6099   6.858   6.013  10.600  0.8277 -0.8593  0.2817
  804MOL0     H 6100   6.566   5.934  10.561 -0.3162 -0.6635 -1.3084
  804MOL0     H 6101   6.623   6.076  10.487 -3.6585 -1.4637  1.9263
  804MOL0     H 6102   6.763   5.810  10.463 -1.9451 -1.1854 -0.4853
  804MOL0     H 6103   6.788   5.962  10.369 -1.3453  5.1987  1.8408
  804MOL0     H 6104   6.525   5.890  10.321  1.5397  2.2141  3.1643
  804MOL0     H 6105   6.585   5.727  10.370 -4.4697 -0.3523 -2.8939
  804MOL0     H 6106   6.655   5.899  10.136 -0.0700 -0.1473 -0.9628
  804MOL0     H 6107   6.757   5.759  10.192  0.7135  1.8801  1.5540
  804MOL0     H 6108   6.521   5.628  10.170 -3.3541  0.0366 -1.7797
  804MOL0     H 6109   6.599   5.646  10.034 -1.4742 -2.2806  1.1918
  804MOL0     H 6110   6.419   5.737  10.768 -3.0366  1.8164 -1.8059
  804MOL0     H 6111   6.210   5.634  10.879  2.3681 -0.8144 -2.0080
  804MOL0     H 6112   5.736   5.643  10.882  1.3620 -2.6861 -1.1561
  804MOL0     H 6113   5.525   5.621  10.983  0.2551  0.5741 -0.6241
  804MOL0     H 6114   4.927   5.769  10.461 -0.1620  0.7129 -0.1171
  804MOL0     H 6115   5.164   5.805  10.499  1.3670 -1.0857  1.0921
  804MOL0     H 6116   5.529   5.942  10.649 -1.2644  3.0378 -0.1738
  804MOL0     H 6117   5.770   5.989  10.750  0.6502 -1.7284  0.7106
  804MOL0     H 6118   5.968   5.934  10.863 -0.3524 -1.2808  0.3694
  804MOL0     H 6119   6.021   6.032  11.011  0.9818  1.0487 -1.3793
  804MOL0     H 6120   5.840   6.156  10.825 -0.5042 -1.0012 -0.1316
  804MOL0     H 6121   5.965   6.236  10.916 -1.5212  0.8381 -2.3442
  804MOL0     H 6122   5.998   6.256  10.691 -0.5519  0.5225  2.4381
  804MOL0     H 6123   6.004   6.082  10.664  0.4585 -0.7025 -0.5128
  804MOL0     H 6124   6.196   6.289  10.796  0.7644 -0.4785  1.3158
  804MOL0     H 6125   6.225   6.113  10.821 -0.1827  1.3424  1.0294
  804MOL0     H 6126   6.396   6.178  10.458  2.4687 -3.1884 -0.0464
  804MOL0     H 6127   5.620   5.928  11.139  0.6496  2.5500 -0.4773
  804MOL0     H 6128   5.399   5.898  11.061  2.7941 -0.5273  3.8925
  805MOL0     O 6129   4.041   5.252   5.437  0.0730 -0.3025  0.2474
  805MOL0     C 6130   3.992   5.364   5.459  0.1001  0.0218 -0.1402
  805MOL0     O 6131   3.865   5.405   5.429 -0.1631  0.0777  0.8709
  805MOL0     C 6132   3.791   5.318   5.362  1.0957 -0.1631 -0.0751
  805MOL0     C 6133   3.810   5.286   5.224 -0.7963  0.4570  0.5478
  805MOL0     C 6134   3.711   5.207   5.168  0.1715 -0.0693  0.1917
  805MOL0     C 6135   3.600   5.146   5.233  0.1928  0.8027 -0.6053
  805MOL0     O 6136   3.537   5.041   5.163 -0.4711 -0.2438 -0.0900
  805MOL0     C 6137   3.440   4.964   5.238 -0.2221 -0.2326  0.0496
  805MOL0     C 6138   3.396   4.839   5.165  0.0331  0.4094 -0.2157
  805MOL0     C 6139   3.494   4.723   5.185  0.6376  0.7081 -0.2687
  805MOL0     C 6140   3.630   4.730   5.111  0.1716 -0.0288  0.7376
  805MOL0     C 6141   3.749   4.714   5.214 -0.7326 -0.2751  0.0673
  805MOL0     C 6142   3.776   4.849   5.285 -0.1866 -0.4627 -0.4971
  805MOL0     C 6143   3.858   4.838   5.410 -0.1130 -0.4783  0.2728
  805MOL0     C 6144   3.991   4.778   5.396 -1.3122 -0.1112 -0.2411
  805MOL0     N 6145   4.065   4.831   5.288  0.4584  0.5031 -0.0360
  805MOL0     C 6146   4.136   4.940   5.308  0.2926 -0.9340 -0.0943
  805MOL0     C 6147   4.229   4.959   5.208  0.3142 -0.1189 -0.2009
  805MOL0     C 6148   4.320   5.081   5.192 -0.7180  0.7855 -1.0957
  805MOL0     C 6149   4.382   5.111   5.324  0.0739 -0.8690  0.0549
  805MOL0     C 6150   4.498   5.216   5.300 -0.3490 -0.0345  0.0055
  805MOL0     C 6151   4.567   5.285   5.422  0.2406  0.4445 -0.0524
  805MOL0     O 6152   4.624   5.186   5.514  0.1460 -0.3338 -0.3613
  805MOL0     C 6153   4.751   5.142   5.494 -0.3978 -0.2385 -0.2830
  805MOL0     C 6154   4.866   5.194   5.534  0.1843 -0.8758 -0.5872
  805MOL0     C 6155   4.990   5.130   5.522 -0.0781 -0.3894  0.1824
  805MOL0     C 6156   5.001   5.001   5.463 -0.2703 -0.3644  0.5623
  805MOL0     C 6157   5.119   4.925   5.435 -0.8700  0.3398 -0.4820
  805MOL0     O 6158   5.092   4.789   5.409 -0.5240 -0.4038  0.0469
  805MOL0     C 6159   5.198   4.703   5.409 -0.2033 -0.6303  0.7452
  805MOL0     C 6160   5.302   4.717   5.312  0.8000  0.8593  1.0376
  805MOL0     C 6161   5.405   4.625   5.297  0.2260 -0.3274  0.2394
  805MOL0     C 6162   5.411   4.519   5.387  0.3084 -0.0418  0.0915
  805MOL0     O 6163   5.512   4.426   5.405 -0.5455  0.1171 -0.8142
  805MOL0     C 6164   5.566   4.377   5.276  0.6872 -0.3203 -0.1106
  805MOL0     C 6165   5.629   4.241   5.285  0.2133 -0.6978  1.1870
  805MOL0     C 6166   5.767   4.253   5.339  0.1120  0.5962 -0.1197
  805MOL0     C 6167   5.829   4.108   5.323 -1.1505  0.8988 -0.6619
  805MOL0     C 6168   5.954   4.083   5.405  0.3484  0.4233  0.5126
  805MOL0     C 6169   5.995   3.942   5.442 -0.2252 -0.1290 -0.1100
  805MOL0     C 6170   6.096   3.871   5.349  0.0726  0.0882  0.2169
  805MOL0     C 6171   6.124   3.723   5.393  0.5059 -0.5358  0.4152
  805MOL0    Cl 6172   6.198   3.699   5.549 -0.0777  0.4568  0.0476
  805MOL0     C 6173   5.293   4.490   5.476 -0.2571 -0.1073  0.2781
  805MOL0     C 6174   5.194   4.594   5.493 -0.6356 -0.1839  0.4856
  805MOL0     O 6175   5.235   4.972   5.464  0.2704  0.0462 -0.9804
  805MOL0     C 6176   4.880   4.943   5.411  0.8175 -0.3081  1.3134
  805MOL0     C 6177   4.756   5.014   5.426 -0.5380  0.5717 -0.8513
  805MOL0     N 6178   4.223   4.842   5.129 -0.0757 -0.0938 -0.2529
  805MOL0     N 6179   4.120   4.773   5.179  0.3602  1.0559 -0.2234
  805MOL0     C 6180   3.587   5.177   5.376 -0.0535  0.0926  0.3503
  805MOL0     C 6181   3.681   5.265   5.436  1.3773  0.2620 -0.3368
  805MOL0     C 6182   4.062   5.454   5.555 -0.5570  0.3751 -0.2271
  805MOL0     C 6183   4.165   5.394   5.644  0.5127 -0.0347  0.0238
  805MOL0     C 6184   4.230   5.480   5.729  0.4440 -0.4235 -0.8303
  805MOL0     C 6185   4.216   5.626   5.724  0.3856  0.3065  0.4568
  805MOL0     O 6186   4.290   5.716   5.789  0.1178 -0.8230 -0.6294
  805MOL0     C 6187   4.426   5.696   5.807  0.1063  0.8343 -0.4745
  805MOL0     C 6188   4.481   5.798   5.909 -1.1728 -0.2095 -0.0471
  805MOL0     C 6189   4.475   5.945   5.871  0.1287  0.2578 -0.0354
  805MOL0     C 6190   4.565   6.031   5.958 -0.3185  0.2824  0.0982
  805MOL0     C 6191   4.531   6.026   6.102  0.4521 -0.2630 -0.0454
  805MOL0     C 6192   4.476   6.013   6.215  0.6229 -0.4345  0.4037
  805MOL0     C 6193   4.124   5.676   5.644 -0.4020 -0.5456 -0.0942
  805MOL0     C 6194   4.043   5.596   5.563  0.5059 -0.1798  1.0803
  805MOL0     H 6195   3.880   5.337   5.158 -0.9276  1.4546  1.1496
  805MOL0     H 6196   3.711   5.194   5.060  1.0434 -1.3347  0.3294
  805MOL0     H 6197   3.350   5.023   5.261 -0.2070 -0.6150  1.1392
  805MOL0     H 6198   3.483   4.926   5.331  3.7255 -3.8376 -2.8674
  805MOL0     H 6199   3.383   4.863   5.059  1.6403  0.4072 -0.4455
  805MOL0     H 6200   3.299   4.814   5.208  1.6737 -0.3623  3.4070
  805MOL0     H 6201   3.435   4.638   5.147  1.9274 -1.2981  1.9253
  805MOL0     H 6202   3.509   4.703   5.291 -3.2086 -3.6965 -0.2194
  805MOL0     H 6203   3.628   4.653   5.033  1.4129  0.7320 -0.0832
  805MOL0     H 6204   3.642   4.817   5.046  0.8384 -0.5022  0.2145
  805MOL0     H 6205   3.843   4.686   5.167  0.3041  3.6397 -0.5391
  805MOL0     H 6206   3.720   4.639   5.288 -1.6520  0.2074  0.2182
  805MOL0     H 6207   3.680   4.894   5.314  0.1589 -0.2189  0.2996
  805MOL0     H 6208   3.824   4.920   5.217  1.8822 -0.0667  1.2765
  805MOL0     H 6209   3.869   4.940   5.449 -1.2736 -0.4504  0.5679
  805MOL0     H 6210   3.812   4.779   5.490  0.3024  2.4153  2.8566
  805MOL0     H 6211   4.001   4.669   5.399 -1.4223 -0.1814  3.8580
  805MOL0     H 6212   4.046   4.812   5.485  0.3667  1.0530 -1.6484
  805MOL0     H 6213   4.143   5.001   5.397 -1.5226 -0.6481 -0.1106
  805MOL0     H 6214   4.261   5.166   5.155 -0.1811  1.3363 -0.6914
  805MOL0     H 6215   4.399   5.056   5.120  2.1716  4.2303  0.5723
  805MOL0     H 6216   4.427   5.021   5.368  0.1675 -1.7697 -1.8013
  805MOL0     H 6217   4.310   5.157   5.392 -2.1724 -1.7483 -1.5991
  805MOL0     H 6218   4.577   5.166   5.243  0.9218  0.7600  0.9942
  805MOL0     H 6219   4.462   5.296   5.236  4.6098  0.9444 -2.0506
  805MOL0     H 6220   4.491   5.345   5.473  2.0128  3.8996 -1.1696
  805MOL0     H 6221   4.641   5.359   5.391  1.2148 -1.1888 -1.8949
  805MOL0     H 6222   4.865   5.288   5.589  2.4185 -0.9468 -0.3205
  805MOL0     H 6223   5.081   5.172   5.563 -1.8592  2.2643  1.7529
  805MOL0     H 6224   5.306   4.811   5.258 -2.1604  2.0335  2.6047
  805MOL0     H 6225   5.479   4.655   5.223  0.8978 -2.0357  0.1775
  805MOL0     H 6226   5.635   4.456   5.246 -0.8255  1.4425  0.8532
  805MOL0     H 6227   5.487   4.375   5.201  0.3728  2.0292  0.1027
  805MOL0     H 6228   5.638   4.199   5.184 -0.7390  2.5460 -0.3637
  805MOL0     H 6229   5.562   4.180   5.347  1.5364 -3.9629 -0.3708
  805MOL0     H 6230   5.768   4.278   5.445 -0.9890  1.7123 -0.3465
  805MOL0     H 6231   5.832   4.327   5.291  3.5240 -1.3691  1.1711
  805MOL0     H 6232   5.757   4.037   5.365  1.3402 -1.6362 -0.2914
  805MOL0     H 6233   5.837   4.084   5.217  0.7879  0.3120 -0.4348
  805MOL0     H 6234   5.938   4.129   5.503 -1.8833  0.6168  0.1142
  805MOL0     H 6235   6.042   4.128   5.357 -0.8892  0.6364 -1.6888
  805MOL0     H 6236   5.912   3.877   5.470 -0.7460  2.1688  4.6883
  805MOL0     H 6237   6.049   3.936   5.537 -0.0982 -0.8889 -0.2189
  805MOL0     H 6238   6.063   3.851   5.246  1.8983 -2.3870  0.0225
  805MOL0     H 6239   6.185   3.933   5.358 -0.3156  0.5089  1.3244
  805MOL0     H 6240   6.189   3.671   5.322 -1.7429 -2.1095 -0.6275
  805MOL0     H 6241   6.031   3.668   5.371 -0.0116  0.7527 -0.7989
  805MOL0     H 6242   5.298   4.404   5.541 -0.0005 -2.9214 -3.1889
  805MOL0     H 6243   5.119   4.584   5.571 -1.7521 -1.3997 -0.6825
  805MOL0     H 6244   4.879   4.860   5.341  4.5068  0.6416 -0.1429
  805MOL0     H 6245   4.661   4.972   5.393 -0.7058 -0.2936  0.6244
  805MOL0     H 6246   3.492   5.153   5.422 -0.4922 -0.9593 -1.0181
  805MOL0     H 6247   3.655   5.287   5.539 -1.1464  0.6173 -0.9774
  805MOL0     H 6248   4.173   5.287   5.656 -1.6376  0.0316  3.1736
  805MOL0     H 6249   4.289   5.438   5.810  1.0223 -1.7596 -1.9080
  805MOL0     H 6250   4.478   5.712   5.712  2.5174  0.4194  0.6983
  805MOL0     H 6251   4.444   5.599   5.854 -0.5105 -0.4190 -2.6805
  805MOL0     H 6252   4.434   5.785   6.007 -1.4644 -0.9810 -0.2792
  805MOL0     H 6253   4.584   5.773   5.937 -1.7298 -0.7819  1.6065
  805MOL0     H 6254   4.371   5.981   5.876 -0.8125 -1.6965 -2.9050
  805MOL0     H 6255   4.495   5.967   5.766 -0.7726 -0.9149 -0.4750
  805MOL0     H 6256   4.665   5.991   5.940 -0.4350 -0.9107  1.8358
  805MOL0     H 6257   4.558   6.138   5.936 -1.1773  0.6591  1.9775
  805MOL0     H 6258   4.443   6.021   6.316 -0.1978  2.5347 -0.0071
  805MOL0     H 6259   4.110   5.784   5.646 -1.1770 -0.6367  1.7909
  805MOL0     H 6260   3.954   5.641   5.519  1.3528  0.2783 -0.2127
  806MOL0     O 6261   4.901   9.773   8.150  0.0143 -0.5904 -0.2532
  806MOL0     C 6262   4.916   9.781   8.029  1.1814 -0.1801  0.2169
  806MOL0     O 6263   4.968   9.886   7.956 -0.2413 -0.5558  0.0162
  806MOL0     C 6264   4.988  10.010   8.015  0.0284  0.4444 -0.2016
  806MOL0     C 6265   4.961  10.114   7.930  0.3368  0.6167 -0.6100
  806MOL0     C 6266   4.973  10.246   7.979  0.0492  0.1712  0.9577
  806MOL0     C 6267   5.042  10.265   8.095  0.0608  0.0782 -1.1533
  806MOL0     O 6268   5.047  10.395   8.126  0.1244 -0.1487  0.2090
  806MOL0     C 6269   5.061  10.432   8.272  0.4792 -0.1529 -0.1471
  806MOL0     C 6270   5.001  10.575   8.284  0.5400 -0.2573  0.5189
  806MOL0     C 6271   5.047  10.663   8.409 -0.3778  0.0388 -0.2782
  806MOL0     C 6272   4.983  10.592   8.537 -1.2782  0.4155  0.1086
  806MOL0     C 6273   5.085  10.594   8.653  0.9887 -0.2380 -0.1404
  806MOL0     C 6274   5.115  10.739   8.691  0.0511  1.1223 -1.0320
  806MOL0     C 6275   5.221  10.731   8.804  0.0271  0.0275  0.4875
  806MOL0     C 6276   5.246  10.870   8.862  0.6455 -0.2037  0.1560
  806MOL0     N 6277   5.136  10.932   8.939  0.4999  0.2340  0.1962
  806MOL0     C 6278   5.064  10.854   9.032  0.2041  0.8176 -0.5794
  806MOL0     C 6279   4.982  10.946   9.091 -0.3698  0.2479  0.9379
  806MOL0     C 6280   4.881  10.908   9.202 -0.4069 -0.1983 -0.5494
  806MOL0     C 6281   4.769  11.003   9.210  0.3932  0.0934 -0.5196
  806MOL0     C 6282   4.676  10.967   9.322 -0.1808 -0.4694 -0.3577
  806MOL0     C 6283   4.569  11.069   9.359  0.2202  0.0599  0.2894
  806MOL0     O 6284   4.463  11.026   9.449  0.4273  0.3896 -0.2048
  806MOL0     C 6285   4.366  11.105   9.502  1.1882 -0.2512  0.2936
  806MOL0     C 6286   4.281  11.045   9.583  0.1976  0.1221 -0.1756
  806MOL0     C 6287   4.195  11.125   9.660 -0.0135  0.4409 -0.1362
  806MOL0     C 6288   4.198  11.269   9.644 -0.0421  0.0921  0.7752
  806MOL0     C 6289   4.105  11.353   9.724  0.5932  0.9851 -0.4324
  806MOL0     O 6290   4.004  11.297   9.813 -0.7779  0.0528 -0.2388
  806MOL0     C 6291   3.927  11.381   9.895 -0.4998  0.5939 -1.2866
  806MOL0     C 6292   3.815  11.327   9.967 -1.0527  0.0606 -0.3260
  806MOL0     C 6293   3.742  11.396  10.064 -0.3705  0.1132 -0.8149
  806MOL0     C 6294   3.776  11.525  10.111 -0.1676  0.3003  0.6652
  806MOL0     O 6295   3.736  11.586  10.219 -0.6586 -0.5833  0.7755
  806MOL0     C 6296   3.660  11.532  10.326 -0.9376 -0.4708  0.9798
  806MOL0     C 6297   3.620  11.656  10.415  0.3397 -0.0851  0.2184
  806MOL0     C 6298   3.652  11.616  10.561  0.3637  0.5658 -0.3634
  806MOL0     C 6299   3.560  11.495  10.610 -0.8019  0.4622 -0.6518
  806MOL0     C 6300   3.422  11.555  10.667 -0.5693 -0.4303 -0.2674
  806MOL0     C 6301   3.434  11.610  10.817  0.0279  0.5124  0.5125
  806MOL0     C 6302   3.329  11.717  10.852 -0.7949 -0.0261 -0.0800
  806MOL0     C 6303   3.337  11.745  11.005  0.8747  0.1775  1.0152
  806MOL0    Cl 6304   3.191  11.682  11.079 -0.0940 -0.1450  0.4986
  806MOL0     C 6305   3.880  11.585  10.043  0.8151 -0.2060 -0.1400
  806MOL0     C 6306   3.950  11.516   9.940 -0.0675  0.8329 -0.2068
  806MOL0     O 6307   4.123  11.471   9.701 -0.7343 -0.4623  0.4377
  806MOL0     C 6308   4.291  11.331   9.554 -0.0414  0.3616  0.1820
  806MOL0     C 6309   4.362  11.244   9.473  0.2038  0.3991  0.5693
  806MOL0     N 6310   5.007  11.068   9.031  0.1629  0.4391 -0.3585
  806MOL0     N 6311   5.092  11.062   8.944  0.1851  0.0251  0.6091
  806MOL0     C 6312   5.077  10.155   8.185  0.5708 -1.1764  0.2055
  806MOL0     C 6313   5.054  10.027   8.143  0.4640 -0.4650  0.7313
  806MOL0     C 6314   4.915   9.654   7.943  0.6477 -0.0844  0.0157
  806MOL0     C 6315   4.907   9.528   8.005  0.7175 -0.2468  0.4816
  806MOL0     C 6316   4.917   9.406   7.929  1.1698 -0.1768  1.0051
  806MOL0     C 6317   4.903   9.418   7.790  0.1827 -0.3864 -0.3951
  806MOL0     O 6318   4.877   9.306   7.714 -1.0155 -0.2288 -0.2552
  806MOL0     C 6319   4.745   9.300   7.661 -0.1757 -0.1080 -0.2123
  806MOL0     C 6320   4.701   9.167   7.602 -0.7677 -0.1186  0.0554
  806MOL0     C 6321   4.753   9.131   7.468  0.1500  0.7816 -0.3523
  806MOL0     C 6322   4.653   9.203   7.370 -0.7285  0.0677  1.2091
  806MOL0     C 6323   4.720   9.209   7.238  0.5131 -1.0613  0.8533
  806MOL0     C 6324   4.803   9.211   7.148 -0.0054  0.7879  0.7103
  806MOL0     C 6325   4.921   9.546   7.728  0.5366  0.2582  0.0764
  806MOL0     C 6326   4.919   9.661   7.801 -0.6897 -0.6117  0.0831
  806MOL0     H 6327   4.920  10.097   7.831 -0.2905  0.1317 -0.2756
  806MOL0     H 6328   4.943  10.330   7.918 -0.1481  2.4730  4.0210
  806MOL0     H 6329   5.168  10.440   8.289 -0.0183  3.2044  2.4600
  806MOL0     H 6330   5.005  10.360   8.332  0.4174 -2.1595 -2.4484
  806MOL0     H 6331   4.892  10.579   8.275  0.6362  1.0023 -0.4421
  806MOL0     H 6332   5.030  10.628   8.192  2.9839  0.9655  1.9043
  806MOL0     H 6333   5.004  10.763   8.411  0.0010  0.2021 -0.2347
  806MOL0     H 6334   5.156  10.673   8.411 -0.4466  1.0930 -1.0555
  806MOL0     H 6335   4.892  10.649   8.562 -1.5722 -0.8003  2.0109
  806MOL0     H 6336   4.955  10.488   8.521 -3.5557  1.1414 -1.0671
  806MOL0     H 6337   5.177  10.542   8.623  1.3087  0.9504 -1.2806
  806MOL0     H 6338   5.045  10.546   8.743  0.7350 -0.1348 -0.1992
  806MOL0     H 6339   5.020  10.780   8.727 -0.9386 -3.1599  1.9043
  806MOL0     H 6340   5.151  10.792   8.602 -0.0349 -1.7055 -2.8917
  806MOL0     H 6341   5.193  10.661   8.882 -0.6299  1.4166  1.5382
  806MOL0     H 6342   5.312  10.681   8.768 -0.8827  0.3033 -2.5047
  806MOL0     H 6343   5.295  10.941   8.795  0.0219 -0.5614 -0.6995
  806MOL0     H 6344   5.323  10.854   8.939 -1.4561 -3.6447  1.7776
  806MOL0     H 6345   5.069  10.746   9.041 -0.0384  0.7223 -1.5126
  806MOL0     H 6346   4.935  10.916   9.296  0.3394  0.5643 -1.0219
  806MOL0     H 6347   4.859  10.803   9.184  1.4459 -1.0171  1.5276
  806MOL0     H 6348   4.717  10.997   9.114  1.8634  0.6087 -1.3903
  806MOL0     H 6349   4.799  11.107   9.223  0.8850 -0.2707  1.7991
  806MOL0     H 6350   4.639  10.868   9.295  1.2807 -0.4990 -2.4857
  806MOL0     H 6351   4.731  10.961   9.416  0.2420 -0.6596 -0.6165
  806MOL0     H 6352   4.524  11.112   9.268  1.9777  0.9495 -0.1975
  806MOL0     H 6353   4.622  11.155   9.401  1.1963  0.6351 -1.9940
  806MOL0     H 6354   4.297  10.941   9.610 -0.2593  0.4278  1.4209
  806MOL0     H 6355   4.143  11.072   9.739  3.1559 -0.6005  1.3881
  806MOL0     H 6356   3.803  11.220   9.954  1.7650 -0.2438 -0.9478
  806MOL0     H 6357   3.667  11.332  10.109  0.3199 -1.4481 -1.7847
  806MOL0     H 6358   3.726  11.461  10.377 -0.8023 -0.8644  0.2657
  806MOL0     H 6359   3.561  11.487  10.311 -0.2419 -1.7297 -0.0003
  806MOL0     H 6360   3.513  11.681  10.410  0.7140  3.0118  3.1973
  806MOL0     H 6361   3.665  11.755  10.401 -0.2128  0.0767 -0.4671
  806MOL0     H 6362   3.652  11.696  10.636  1.4374 -0.8697  1.2454
  806MOL0     H 6363   3.752  11.574  10.548  0.4916  1.2764 -1.9276
  806MOL0     H 6364   3.536  11.421  10.534  0.2646  0.4725 -1.0092
  806MOL0     H 6365   3.612  11.440  10.689  0.2561 -0.6085 -2.0614
  806MOL0     H 6366   3.349  11.475  10.660 -0.3294 -0.8335  1.4137
  806MOL0     H 6367   3.394  11.635  10.598  1.7649  0.7215  0.0106
  806MOL0     H 6368   3.535  11.651  10.832  0.6669  0.1396 -2.1613
  806MOL0     H 6369   3.422  11.516  10.871  0.9779 -1.2646 -2.1264
  806MOL0     H 6370   3.364  11.808  10.803 -2.3486  0.7440  0.1822
  806MOL0     H 6371   3.230  11.690  10.814 -0.0867 -4.0425  0.4818
  806MOL0     H 6372   3.355  11.853  11.009 -1.6055  0.6826  0.2106
  806MOL0     H 6373   3.419  11.692  11.054  1.2107  2.0636  2.6321
  806MOL0     H 6374   3.911  11.684  10.074  0.1070  0.2074 -0.7244
  806MOL0     H 6375   4.025  11.572   9.885 -2.2266  0.6570 -3.6436
  806MOL0     H 6376   4.293  11.437   9.529 -3.7921  0.1984 -1.6970
  806MOL0     H 6377   4.425  11.292   9.399 -2.2219  0.5876 -1.4829
  806MOL0     H 6378   5.122  10.171   8.283  1.6191  1.7110 -0.6404
  806MOL0     H 6379   5.097   9.943   8.197  1.2223 -0.3420  0.3440
  806MOL0     H 6380   4.898   9.514   8.112  1.3341 -0.5166  0.5005
  806MOL0     H 6381   4.913   9.313   7.984 -0.3067 -0.9830 -0.4068
  806MOL0     H 6382   4.744   9.380   7.586 -0.9031 -1.9127 -2.2045
  806MOL0     H 6383   4.678   9.347   7.734  2.5823  0.6511  2.0543
  806MOL0     H 6384   4.733   9.090   7.673 -1.2762 -0.4854 -0.1016
  806MOL0     H 6385   4.592   9.161   7.612 -0.7861  2.7194  3.8545
  806MOL0     H 6386   4.742   9.029   7.431  1.4762  1.6973 -3.6072
  806MOL0     H 6387   4.856   9.166   7.461  0.2070  1.3550  2.3784
  806MOL0     H 6388   4.560   9.147   7.365  0.8343 -2.7577  1.3987
  806MOL0     H 6389   4.637   9.304   7.411 -2.1594  0.0137  0.8284
  806MOL0     H 6390   4.875   9.219   7.070  0.0272 -1.1156  0.5119
  806MOL0     H 6391   4.925   9.571   7.623  1.0190  0.0011  0.0320
  806MOL0     H 6392   4.909   9.759   7.755  1.6252  0.6023  1.9788
  807MOL0     O 6393   0.984   0.024   8.714 -1.0131  0.2229  1.1510
  807MOL0     C 6394   1.073  -0.056   8.741 -0.0551 -0.2150 -0.6267
  807MOL0     O 6395   1.080  -0.141   8.849 -0.4025 -0.4107  0.2243
  807MOL0     C 6396   0.978  -0.158   8.941 -1.2468 -0.1019  0.4038
  807MOL0     C 6397   0.848  -0.175   8.897 -0.5209 -0.8265  0.1425
  807MOL0     C 6398   0.745  -0.186   8.989  0.0976  0.0074 -0.1693
  807MOL0     C 6399   0.773  -0.176   9.128  0.0947  0.1410  0.7358
  807MOL0     O 6400   0.670  -0.177   9.219  0.2935 -0.5717  0.1590
  807MOL0     C 6401   0.676  -0.258   9.339  0.1645  0.7217  0.5643
  807MOL0     C 6402   0.533  -0.299   9.364  0.0792  0.1153  0.4127
  807MOL0     C 6403   0.522  -0.373   9.508  0.6962  0.6671 -0.0951
  807MOL0     C 6404   0.531  -0.282   9.622 -0.2748 -0.0789 -0.2231
  807MOL0     C 6405   0.493  -0.344   9.753 -0.3470 -0.7500  0.3034
  807MOL0     C 6406   0.561  -0.263   9.865 -0.1706  1.2255 -0.3363
  807MOL0     C 6407   0.510  -0.296  10.011 -1.3735 -0.1475  0.7582
  807MOL0     C 6408   0.357  -0.295  10.041  0.1619  0.5701 -0.0174
  807MOL0     N 6409   0.288  -0.165  10.025 -0.5810  0.4926  0.5946
  807MOL0     C 6410   0.204  -0.133   9.917 -0.3328  0.0949  0.3194
  807MOL0     C 6411   0.130  -0.023   9.941 -0.3193 -0.4979 -0.2098
  807MOL0     C 6412   0.044   0.064   9.845 -0.1300 -0.4509 -0.2046
  807MOL0     C 6413  -0.111   0.051   9.862 -0.7581 -1.0713  0.2820
  807MOL0     C 6414  -0.191   0.161   9.796 -0.1994  1.4241  0.1500
  807MOL0     C 6415  -0.340   0.146   9.815  0.3357  0.7331 -0.2292
  807MOL0     O 6416  -0.421   0.239   9.734  0.0520  0.5740 -0.0527
  807MOL0     C 6417  -0.554   0.230   9.738  0.0527  0.8504 -0.0735
  807MOL0     C 6418  -0.635   0.297   9.648 -0.5767 -0.2255  0.5642
  807MOL0     C 6419  -0.774   0.288   9.635 -0.8626 -0.0698  0.3397
  807MOL0     C 6420  -0.843   0.196   9.715 -0.5091 -0.4541 -0.0673
  807MOL0     C 6421  -0.989   0.175   9.696 -1.1337 -0.0429  0.3719
  807MOL0     O 6422  -1.055   0.262   9.607  0.8537 -0.0063  0.2128
  807MOL0     C 6423  -1.189   0.282   9.619 -0.2285 -0.4653 -0.2600
  807MOL0     C 6424  -1.260   0.294   9.734 -0.5757 -0.6335 -0.4848
  807MOL0     C 6425  -1.402   0.326   9.733 -0.5293  0.1632  0.2043
  807MOL0     C 6426  -1.466   0.315   9.609 -0.3423  0.1979 -0.2523
  807MOL0     O 6427  -1.596   0.322   9.601  0.4691 -0.0451 -0.2701
  807MOL0     C 6428  -1.655   0.433   9.676  0.5738  0.2485  0.8940
  807MOL0     C 6429  -1.740   0.495   9.579 -0.4101  0.4619  0.7009
  807MOL0     C 6430  -1.807   0.627   9.618  0.2955 -0.2009  0.3737
  807MOL0     C 6431  -1.920   0.652   9.527 -0.7695  0.1963  0.9320
  807MOL0     C 6432  -1.988   0.780   9.575  0.3071  0.4352 -0.2631
  807MOL0     C 6433  -2.112   0.797   9.485 -0.7403  0.1977  0.0538
  807MOL0     C 6434  -2.189   0.918   9.535 -0.2766  0.1203  0.4031
  807MOL0     C 6435  -2.142   1.062   9.524 -0.5085  0.0157  0.1204
  807MOL0    Cl 6436  -2.095   1.092   9.340 -0.0077  0.2022  0.0410
  807MOL0     C 6437  -1.387   0.310   9.492 -0.7931 -0.2025 -0.1643
  807MOL0     C 6438  -1.254   0.300   9.503  0.2038  0.5208  0.7433
  807MOL0     O 6439  -1.041   0.091   9.772 -0.2966 -0.4570  0.9350
  807MOL0     C 6440  -0.769   0.120   9.815  0.6308  0.2364 -1.1654
  807MOL0     C 6441  -0.627   0.134   9.818  0.6822  0.1482 -0.0835
  807MOL0     N 6442   0.173   0.019  10.066 -0.7567 -0.0327  0.7870
  807MOL0     N 6443   0.268  -0.058  10.112  0.2993 -0.2724  0.2344
  807MOL0     C 6444   0.911  -0.155   9.170  0.1477  0.5362  0.3278
  807MOL0     C 6445   1.017  -0.153   9.077 -0.2573  0.1399 -0.2373
  807MOL0     C 6446   1.186  -0.069   8.643 -0.2247 -0.4642 -0.1450
  807MOL0     C 6447   1.296  -0.149   8.667  0.2312  0.3342  0.1479
  807MOL0     C 6448   1.395  -0.160   8.568 -0.6306  0.4726 -0.8857
  807MOL0     C 6449   1.404  -0.066   8.460 -0.0692  0.6930 -0.7783
  807MOL0     O 6450   1.521  -0.079   8.388 -0.5413 -0.5100 -0.2520
  807MOL0     C 6451   1.563   0.013   8.287 -0.4746 -0.8219  0.1572
  807MOL0     C 6452   1.664  -0.043   8.193  0.2636 -0.3318  0.5832
  807MOL0     C 6453   1.792  -0.072   8.271 -0.0967  0.4735 -0.3755
  807MOL0     C 6454   1.914  -0.070   8.171  0.2751 -0.0474  0.4506
  807MOL0     C 6455   1.947   0.063   8.118 -0.2072 -0.5893 -0.5691
  807MOL0     C 6456   1.986   0.165   8.068 -0.2299 -0.3673  0.8536
  807MOL0     C 6457   1.296   0.017   8.436  0.1225  0.8020 -0.9056
  807MOL0     C 6458   1.187   0.013   8.528  0.3766 -0.5242 -0.8943
  807MOL0     H 6459   0.822  -0.169   8.791 -0.6677 -0.9965  0.1666
  807MOL0     H 6460   0.642  -0.193   8.956 -0.4673 -0.1924  1.5332
  807MOL0     H 6461   0.727  -0.187   9.405  1.2310 -1.8864  2.7080
  807MOL0     H 6462   0.735  -0.349   9.332 -1.2362 -0.0764 -2.4304
  807MOL0     H 6463   0.496  -0.360   9.282 -0.9245  0.8988  0.2684
  807MOL0     H 6464   0.476  -0.206   9.370 -0.9201 -0.5148  1.0524
  807MOL0     H 6465   0.595  -0.454   9.497 -1.4486 -1.2785 -1.0199
  807MOL0     H 6466   0.422  -0.418   9.505 -0.1174  2.4100 -0.1161
  807MOL0     H 6467   0.637  -0.257   9.612 -0.8446  1.6192 -3.2604
  807MOL0     H 6468   0.471  -0.193   9.601 -1.0203  0.2323  2.7824
  807MOL0     H 6469   0.521  -0.449   9.767  0.6540 -0.4616  0.5294
  807MOL0     H 6470   0.384  -0.340   9.759 -0.3708  2.5294 -0.3928
  807MOL0     H 6471   0.548  -0.155   9.854 -0.7234  1.2101  0.1270
  807MOL0     H 6472   0.669  -0.276   9.855  0.2504  2.9211  1.2378
  807MOL0     H 6473   0.545  -0.396  10.038  1.8243  0.9930  1.2435
  807MOL0     H 6474   0.569  -0.228  10.073  5.2246 -3.2586 -1.1942
  807MOL0     H 6475   0.354  -0.330  10.145  0.7975  0.9811  0.1439
  807MOL0     H 6476   0.306  -0.372   9.982 -1.1130  0.8365  0.6962
  807MOL0     H 6477   0.208  -0.193   9.827 -0.7748 -1.0921  1.0488
  807MOL0     H 6478   0.073   0.044   9.742  1.2318 -0.6783  0.2033
  807MOL0     H 6479   0.068   0.168   9.866  2.5270  0.1456 -4.8275
  807MOL0     H 6480  -0.126   0.045   9.971  2.1934 -1.1203  0.7586
  807MOL0     H 6481  -0.148  -0.041   9.815  1.6348 -1.1692 -1.5639
  807MOL0     H 6482  -0.167   0.252   9.852 -0.0129  0.9881  0.7908
  807MOL0     H 6483  -0.167   0.166   9.689 -2.4434  2.0973 -0.3699
  807MOL0     H 6484  -0.370   0.153   9.920  4.9082  1.2294  1.2544
  807MOL0     H 6485  -0.347   0.047   9.768  4.0977  1.0655 -1.8134
  807MOL0     H 6486  -0.584   0.364   9.579 -1.8858  1.5272  1.2079
  807MOL0     H 6487  -0.816   0.338   9.548  1.1249 -0.7716 -1.1034
  807MOL0     H 6488  -1.214   0.276   9.831 -0.7145 -1.3204 -0.5394
  807MOL0     H 6489  -1.461   0.329   9.824  1.6548  0.9110  1.6966
  807MOL0     H 6490  -1.582   0.508   9.708 -0.2403  1.1871  0.5785
  807MOL0     H 6491  -1.711   0.391   9.760 -1.3531 -3.0359 -1.7540
  807MOL0     H 6492  -1.818   0.424   9.549 -1.8480  0.8213  3.2221
  807MOL0     H 6493  -1.675   0.511   9.493 -1.1418  0.9400  0.2299
  807MOL0     H 6494  -1.735   0.708   9.630 -0.5959  0.7037 -0.2147
  807MOL0     H 6495  -1.847   0.615   9.719 -0.4347 -1.8358 -0.0741
  807MOL0     H 6496  -1.885   0.659   9.423 -1.8819 -2.5387  0.2917
  807MOL0     H 6497  -2.001   0.580   9.541 -0.1383 -0.9469 -0.9326
  807MOL0     H 6498  -1.918   0.861   9.554  1.9139 -0.0716  2.6059
  807MOL0     H 6499  -2.013   0.773   9.681  2.4076 -0.3201  0.2340
  807MOL0     H 6500  -2.172   0.707   9.500 -0.4565  0.1903  1.2374
  807MOL0     H 6501  -2.090   0.812   9.378 -1.2420  0.9050  0.0435
  807MOL0     H 6502  -2.289   0.927   9.491  1.2311  3.2227 -2.8730
  807MOL0     H 6503  -2.203   0.910   9.643  2.7898 -1.1366  0.8052
  807MOL0     H 6504  -2.056   1.080   9.590  0.6658  1.6417 -1.7572
  807MOL0     H 6505  -2.222   1.132   9.549 -2.7394 -1.7234 -1.7037
  807MOL0     H 6506  -1.443   0.319   9.400 -0.4000 -1.0378 -0.4946
  807MOL0     H 6507  -1.193   0.305   9.413 -3.0613 -1.7135 -1.8792
  807MOL0     H 6508  -0.820   0.046   9.875  2.5106 -0.6211 -0.5463
  807MOL0     H 6509  -0.571   0.060   9.874 -1.1110 -0.7407  0.6154
  807MOL0     H 6510   0.919  -0.137   9.277  0.2776  2.3405  0.0362
  807MOL0     H 6511   1.117  -0.129   9.113  0.4144 -0.5222 -1.5737
  807MOL0     H 6512   1.288  -0.214   8.754  2.9019 -0.1193  0.1459
  807MOL0     H 6513   1.474  -0.234   8.575  1.1018  2.2666 -0.2963
  807MOL0     H 6514   1.597   0.110   8.324 -1.1506 -0.5604  0.1025
  807MOL0     H 6515   1.476   0.036   8.224 -0.4242  0.5809  0.5761
  807MOL0     H 6516   1.643  -0.141   8.149  0.9700  0.2792 -1.2082
  807MOL0     H 6517   1.668   0.032   8.113 -2.7374 -0.9950 -0.3174
  807MOL0     H 6518   1.789  -0.174   8.310 -0.2980  1.2997  1.9320
  807MOL0     H 6519   1.802  -0.015   8.363 -0.7504 -1.2043  0.7744
  807MOL0     H 6520   1.997  -0.120   8.223  0.3558 -2.0991 -1.5195
  807MOL0     H 6521   1.882  -0.139   8.093  0.4679 -1.6040  1.6891
  807MOL0     H 6522   2.027   0.256   8.029 -1.3694 -0.6664 -1.1551
  807MOL0     H 6523   1.287   0.080   8.348 -1.0747 -0.3616 -1.6672
  807MOL0     H 6524   1.099   0.075   8.507  0.6055  0.4694  0.8846
  808MOL0     O 6525   3.383   0.765   6.245 -0.1414 -0.4549  0.1985
  808MOL0     C 6526   3.440   0.677   6.310 -0.0277  0.0708  0.3163
  808MOL0     O 6527   3.489   0.555   6.266  0.5544  0.0858 -0.3883
  808MOL0     C 6528   3.479   0.512   6.130 -0.1921 -0.0496 -0.4762
  808MOL0     C 6529   3.412   0.563   6.029 -0.1339 -1.0115 -0.7853
  808MOL0     C 6530   3.426   0.514   5.901 -0.1606  0.2506  0.8748
  808MOL0     C 6531   3.502   0.399   5.874  0.2009 -0.6693  0.2131
  808MOL0     O 6532   3.494   0.351   5.747 -0.3397 -0.6985  0.0695
  808MOL0     C 6533   3.605   0.291   5.688  0.3946 -1.3022 -0.5299
  808MOL0     C 6534   3.611   0.274   5.536  0.2077  0.4722  0.6805
  808MOL0     C 6535   3.511   0.171   5.481  1.2768 -0.1112 -1.2322
  808MOL0     C 6536   3.536   0.147   5.335  0.3465 -0.1667  0.5185
  808MOL0     C 6537   3.437   0.033   5.277 -0.7716 -0.3990 -1.1961
  808MOL0     C 6538   3.467  -0.107   5.332  0.1011 -0.2490  0.1465
  808MOL0     C 6539   3.354  -0.198   5.284  0.6023 -0.0389  0.1268
  808MOL0     C 6540   3.372  -0.244   5.149 -0.3338 -0.4170  0.4254
  808MOL0     N 6541   3.267  -0.330   5.099 -0.0173  0.3651  0.2525
  808MOL0     C 6542   3.263  -0.439   5.015  0.0731  0.5666 -1.0747
  808MOL0     C 6543   3.132  -0.477   4.994  0.2118 -0.2612 -0.3462
  808MOL0     C 6544   3.077  -0.602   4.925 -0.3882 -1.4431  0.6212
  808MOL0     C 6545   3.085  -0.728   5.021  0.1841 -0.8195  0.6448
  808MOL0     C 6546   3.004  -0.707   5.152  0.7013  0.0637 -0.2006
  808MOL0     C 6547   3.037  -0.793   5.269  0.5112 -0.4890  0.5721
  808MOL0     O 6548   3.133  -0.726   5.352 -0.3997  0.2061 -0.0534
  808MOL0     C 6549   3.162  -0.772   5.477  0.9973 -0.5382 -0.1477
  808MOL0     C 6550   3.258  -0.707   5.554  0.6794 -0.0283  0.1285
  808MOL0     C 6551   3.294  -0.756   5.677  0.4518 -1.7835 -0.2860
  808MOL0     C 6552   3.248  -0.877   5.729  0.6760 -0.9082 -0.5313
  808MOL0     C 6553   3.291  -0.932   5.866  0.4609  0.0326  0.6274
  808MOL0     O 6554   3.253  -1.067   5.897 -0.1098 -0.7966 -0.7899
  808MOL0     C 6555   3.268  -1.112   6.023  0.2361 -0.5803 -0.9264
  808MOL0     C 6556   3.179  -1.069   6.128 -0.2889 -0.1979 -0.0769
  808MOL0     C 6557   3.192  -1.111   6.258  0.0391  0.4969  0.5497
  808MOL0     C 6558   3.282  -1.207   6.298 -0.0799  0.4167  0.0528
  808MOL0     O 6559   3.299  -1.262   6.429 -0.0014 -0.0635 -0.0037
  808MOL0     C 6560   3.202  -1.248   6.526  0.5012  0.3660  0.3914
  808MOL0     C 6561   3.198  -1.379   6.595  0.7047 -0.0736  0.0809
  808MOL0     C 6562   3.085  -1.402   6.702  0.7043 -0.3487  0.4798
  808MOL0     C 6563   3.083  -1.535   6.780 -0.0285  0.2292  0.3386
  808MOL0     C 6564   3.083  -1.658   6.685  0.3031 -0.0023  0.6472
  808MOL0     C 6565   3.037  -1.786   6.754  0.2708  0.7102  0.8674
  808MOL0     C 6566   2.890  -1.785   6.804  0.4609  0.0093 -0.2294
  808MOL0     C 6567   2.873  -1.845   6.949 -1.2713 -0.6282  0.2985
  808MOL0    Cl 6568   2.982  -1.986   6.984 -0.0857  0.2768 -0.1747
  808MOL0     C 6569   3.384  -1.241   6.205  0.2162  0.0280  0.5816
  808MOL0     C 6570   3.368  -1.208   6.065  0.8209 -0.6269 -0.7190
  808MOL0     O 6571   3.359  -0.867   5.936 -0.3174 -0.9153  0.6715
  808MOL0     C 6572   3.151  -0.946   5.653  0.9554 -0.4123  0.1647
  808MOL0     C 6573   3.115  -0.898   5.528 -0.0038 -0.2146  0.2068
  808MOL0     N 6574   3.064  -0.373   5.060 -0.2988 -0.3453 -0.7026
  808MOL0     N 6575   3.138  -0.289   5.111 -0.1594  0.5411  0.3867
  808MOL0     C 6576   3.573   0.341   5.983  0.0475 -0.8299 -0.6637
  808MOL0     C 6577   3.553   0.403   6.111 -0.4596  0.5989  0.3204
  808MOL0     C 6578   3.463   0.686   6.453  0.2136 -0.4271 -0.4849
  808MOL0     C 6579   3.540   0.596   6.519 -1.5306 -0.3042 -0.5616
  808MOL0     C 6580   3.575   0.628   6.647  0.0582 -0.3652  0.4331
  808MOL0     C 6581   3.511   0.725   6.717 -0.1284 -0.4347 -0.8960
  808MOL0     O 6582   3.530   0.766   6.849  0.0407 -1.1372 -0.5124
  808MOL0     C 6583   3.644   0.699   6.915 -0.5518 -0.5427 -0.7730
  808MOL0     C 6584   3.643   0.767   7.052 -0.5511 -0.1772  0.0225
  808MOL0     C 6585   3.700   0.672   7.167 -0.3074  0.0352  0.0953
  808MOL0     C 6586   3.709   0.741   7.302 -0.4894 -0.1564  0.6185
  808MOL0     C 6587   3.580   0.812   7.336  0.4395  0.2900 -0.8630
  808MOL0     C 6588   3.487   0.891   7.365  0.0425 -0.4726 -0.1604
  808MOL0     C 6589   3.419   0.802   6.652 -0.4940  0.0431  0.8537
  808MOL0     C 6590   3.401   0.796   6.512  1.1460  0.2075 -0.2203
  808MOL0     H 6591   3.349   0.650   6.042 -0.6741 -1.0072 -3.0028
  808MOL0     H 6592   3.384   0.576   5.822  2.4810 -1.2699 -1.9338
  808MOL0     H 6593   3.618   0.194   5.737 -3.5541 -1.7537 -0.1078
  808MOL0     H 6594   3.692   0.355   5.705 -0.2544 -0.1563 -1.4412
  808MOL0     H 6595   3.710   0.232   5.518  0.7445  1.7409  0.5659
  808MOL0     H 6596   3.603   0.369   5.481  1.1586  0.1926  0.0478
  808MOL0     H 6597   3.405   0.186   5.504  0.8722 -0.2622 -2.8886
  808MOL0     H 6598   3.525   0.084   5.546 -2.4991 -0.3830 -0.5706
  808MOL0     H 6599   3.520   0.243   5.287  3.5736 -0.3677 -1.2854
  808MOL0     H 6600   3.643   0.125   5.321 -0.2021 -1.7291 -1.5094
  808MOL0     H 6601   3.455   0.032   5.169 -0.1305  0.3286 -1.1099
  808MOL0     H 6602   3.336   0.059   5.309 -0.8426 -1.1843 -0.7547
  808MOL0     H 6603   3.465  -0.096   5.441  0.9844  1.8719 -0.0203
  808MOL0     H 6604   3.568  -0.143   5.310  1.2202  3.0601 -0.6592
  808MOL0     H 6605   3.363  -0.284   5.351  0.4591  0.4884  0.8351
  808MOL0     H 6606   3.256  -0.151   5.294  0.6513  0.3744 -1.2176
  808MOL0     H 6607   3.467  -0.297   5.154 -0.0150  0.1129  5.4278
  808MOL0     H 6608   3.376  -0.156   5.084  3.6155  0.9744  2.2505
  808MOL0     H 6609   3.338  -0.505   4.974 -0.6220 -1.3740  0.5919
  808MOL0     H 6610   3.149  -0.627   4.847  0.0011 -0.5195  0.6712
  808MOL0     H 6611   2.978  -0.585   4.881  0.3161  2.8949  0.2875
  808MOL0     H 6612   3.192  -0.742   5.042  0.6646  0.7880 -0.5420
  808MOL0     H 6613   3.031  -0.799   4.958 -2.5700  2.1560 -0.5742
  808MOL0     H 6614   3.012  -0.604   5.188  0.0712 -0.3669  1.2439
  808MOL0     H 6615   2.906  -0.710   5.104  1.1061  4.0607 -1.6618
  808MOL0     H 6616   3.082  -0.888   5.239  0.9906  0.3924 -1.6239
  808MOL0     H 6617   2.951  -0.811   5.334  1.3583 -2.0778  1.3138
  808MOL0     H 6618   3.308  -0.615   5.527  2.2773 -1.1964 -1.0793
  808MOL0     H 6619   3.363  -0.698   5.737  2.4899 -1.2137 -3.0140
  808MOL0     H 6620   3.113  -0.994   6.086  1.7672  0.6205 -2.0127
  808MOL0     H 6621   3.116  -1.086   6.332  3.0058  0.0453  4.0552
  808MOL0     H 6622   3.106  -1.219   6.482  0.0974 -3.4527 -1.6430
  808MOL0     H 6623   3.243  -1.172   6.594  1.3226 -1.3265  1.8617
  808MOL0     H 6624   3.297  -1.382   6.640  1.1522 -0.3607 -0.8969
  808MOL0     H 6625   3.197  -1.464   6.526 -3.7679 -0.4277  0.2878
  808MOL0     H 6626   2.983  -1.377   6.671  0.8089  2.1210  1.8383
  808MOL0     H 6627   3.096  -1.328   6.781  1.0727  1.6751 -1.3608
  808MOL0     H 6628   3.174  -1.536   6.841  0.1762 -1.1395  0.0361
  808MOL0     H 6629   2.999  -1.532   6.850 -0.1646 -0.7569  0.2232
  808MOL0     H 6630   3.188  -1.680   6.664  1.1803 -0.6993  4.7394
  808MOL0     H 6631   3.025  -1.640   6.595 -4.1787 -0.9448  3.0446
  808MOL0     H 6632   3.095  -1.797   6.846  1.8378  3.2980  0.2984
  808MOL0     H 6633   3.040  -1.877   6.693 -4.7301 -0.6038  2.1022
  808MOL0     H 6634   2.846  -1.685   6.793  3.2007  2.0296  4.4214
  808MOL0     H 6635   2.835  -1.861   6.747 -1.7776  0.4066  1.2618
  808MOL0     H 6636   2.771  -1.885   6.952 -1.4876 -0.6635 -3.3854
  808MOL0     H 6637   2.894  -1.759   7.012  1.6151 -0.6920 -0.4533
  808MOL0     H 6638   3.466  -1.305   6.238 -0.2021 -1.1739 -0.6245
  808MOL0     H 6639   3.428  -1.248   5.984  4.7906 -0.1949  1.7575
  808MOL0     H 6640   3.125  -1.048   5.680 -0.0627  0.0293  0.8904
  808MOL0     H 6641   3.052  -0.967   5.473 -0.1491  0.3348 -0.3265
  808MOL0     H 6642   3.643   0.258   5.974  0.9786 -0.5502  2.7330
  808MOL0     H 6643   3.622   0.355   6.180  1.1029  2.2037 -0.0564
  808MOL0     H 6644   3.565   0.502   6.470 -2.8355 -0.7379 -0.4552
  808MOL0     H 6645   3.642   0.559   6.697 -0.7813 -3.4979 -2.3993
  808MOL0     H 6646   3.736   0.725   6.862 -1.1374 -0.8055 -1.9400
  808MOL0     H 6647   3.624   0.591   6.918  0.0998 -0.6940 -1.4906
  808MOL0     H 6648   3.697   0.862   7.046 -2.1489  0.7360 -0.5858
  808MOL0     H 6649   3.541   0.799   7.076 -1.4747 -1.5355 -1.8222
  808MOL0     H 6650   3.802   0.638   7.145 -0.6465 -2.5633  2.0409
  808MOL0     H 6651   3.640   0.581   7.183 -1.0369  0.2352 -1.3195
  808MOL0     H 6652   3.738   0.672   7.381 -0.5169 -0.3902  0.4270
  808MOL0     H 6653   3.780   0.824   7.297  0.8871 -1.1254  2.8091
  808MOL0     H 6654   3.404   0.954   7.387  2.7988  3.1565  0.8104
  808MOL0     H 6655   3.350   0.872   6.698 -1.1166 -0.3902  0.5884
  808MOL0     H 6656   3.330   0.859   6.460  1.8517 -0.6800 -2.4159
  809MOL0     O 6657   7.619  11.238   9.328  0.1144 -0.1864  0.1977
  809MOL0     C 6658   7.645  11.348   9.266 -0.4801  0.1484  0.6803
  809MOL0     O 6659   7.576  11.395   9.152  0.5873 -0.4601 -0.7699
  809MOL0     C 6660   7.478  11.327   9.090  0.3934 -0.4741  1.0925
  809MOL0     C 6661   7.343  11.341   9.128  0.4051 -1.0827  0.8058
  809MOL0     C 6662   7.251  11.257   9.063  0.7212 -0.8104  0.5673
  809MOL0     C 6663   7.286  11.173   8.965  1.3490 -0.8788  1.3247
  809MOL0     O 6664   7.187  11.099   8.914  0.3350  0.2341  0.0052
  809MOL0     C 6665   7.231  10.976   8.851 -1.0917 -0.0365  0.3250
  809MOL0     C 6666   7.106  10.900   8.821  0.5196  0.4611  0.4688
  809MOL0     C 6667   6.995  10.883   8.932  0.7106 -0.9846 -0.4187
  809MOL0     C 6668   6.857  10.862   8.875  1.1862 -0.6908  0.2563
  809MOL0     C 6669   6.749  10.852   8.992 -0.0862  0.2672 -0.3753
  809MOL0     C 6670   6.616  10.816   8.930  0.0091 -0.2279 -0.5478
  809MOL0     C 6671   6.533  10.940   8.934  0.3990 -0.2368 -0.5431
  809MOL0     C 6672   6.407  10.926   8.845 -0.6611  0.1819 -0.6122
  809MOL0     N 6673   6.299  11.026   8.864  0.2131  0.9979 -0.5581
  809MOL0     C 6674   6.256  11.081   8.982  0.2981  0.5403  0.3786
  809MOL0     C 6675   6.160  11.174   8.945  0.4153 -0.4945 -0.6094
  809MOL0     C 6676   6.104  11.285   9.038 -0.3837  0.0809 -0.1432
  809MOL0     C 6677   6.170  11.419   9.005  0.0476  0.3265  0.4867
  809MOL0     C 6678   6.101  11.534   9.092  0.2920 -0.0246 -1.0620
  809MOL0     C 6679   5.968  11.561   9.019  0.1983 -0.3811 -0.1182
  809MOL0     O 6680   5.867  11.612   9.110 -0.1476 -0.5056  0.3931
  809MOL0     C 6681   5.813  11.733   9.081 -0.4087 -0.1643  0.8963
  809MOL0     C 6682   5.775  11.812   9.190  0.7319 -0.2001 -0.2557
  809MOL0     C 6683   5.718  11.943   9.170  0.4161  0.8348 -0.7883
  809MOL0     C 6684   5.699  11.995   9.035 -0.5280 -0.6927 -0.1638
  809MOL0     C 6685   5.665  12.143   9.011  0.3476  0.1865 -0.0682
  809MOL0     O 6686   5.654  12.224   9.121  0.4513 -0.1510  0.4823
  809MOL0     C 6687   5.672  12.360   9.098 -0.2227 -0.2064 -0.4639
  809MOL0     C 6688   5.781  12.415   9.025 -0.4413  0.3488  0.7866
  809MOL0     C 6689   5.784  12.558   8.999  0.4690  0.9372  0.7937
  809MOL0     C 6690   5.677  12.641   9.040 -0.8656  0.2290 -0.8122
  809MOL0     O 6691   5.695  12.778   9.029  0.2043 -0.9120 -0.9996
  809MOL0     C 6692   5.676  12.839   8.900 -0.0226  0.5811 -0.6247
  809MOL0     C 6693   5.770  12.951   8.877  0.4390 -0.7239 -0.4555
  809MOL0     C 6694   5.746  13.088   8.957  0.0635 -0.4004  0.0753
  809MOL0     C 6695   5.865  13.199   8.954 -0.2302 -0.2954 -0.6927
  809MOL0     C 6696   5.887  13.251   9.097  0.0305  0.4574 -0.2197
  809MOL0     C 6697   5.996  13.358   9.108  0.1892 -0.2298  0.5446
  809MOL0     C 6698   5.941  13.493   9.060 -0.3988  0.3513  0.6662
  809MOL0     C 6699   6.046  13.605   9.049  0.3229 -0.7184  0.3754
  809MOL0    Cl 6700   6.156  13.559   8.917  0.0077  0.2605  0.4686
  809MOL0     C 6701   5.573  12.588   9.112 -0.4598  0.0683  0.1767
  809MOL0     C 6702   5.567  12.450   9.147 -0.3195 -0.0652 -0.1548
  809MOL0     O 6703   5.632  12.169   8.896 -0.2516  0.6797 -0.0630
  809MOL0     C 6704   5.728  11.904   8.928 -0.3371 -0.6365 -0.2327
  809MOL0     C 6705   5.780  11.778   8.949 -0.4564  0.0488 -0.1884
  809MOL0     N 6706   6.158  11.177   8.814  0.0441  0.4162  0.0233
  809MOL0     N 6707   6.245  11.098   8.770 -0.5749  0.1607 -1.0688
  809MOL0     C 6708   7.417  11.172   8.918 -0.5942 -0.3094 -0.0865
  809MOL0     C 6709   7.521  11.241   8.983 -0.2107 -0.1219  0.8187
  809MOL0     C 6710   7.738  11.444   9.322 -0.1270 -0.1223 -0.1051
  809MOL0     C 6711   7.824  11.399   9.417  0.0183 -0.4198  0.8123
  809MOL0     C 6712   7.914  11.474   9.479  0.0822 -0.3391 -0.7614
  809MOL0     C 6713   7.906  11.617   9.451  0.0401 -0.8049 -0.1640
  809MOL0     O 6714   7.992  11.711   9.508  1.0481  0.5276  0.8861
  809MOL0     C 6715   8.106  11.740   9.416  0.8476  0.4591  0.1070
  809MOL0     C 6716   8.210  11.817   9.511  0.0991 -0.2272  1.4243
  809MOL0     C 6717   8.326  11.873   9.423  0.5212  1.3501 -0.8762
  809MOL0     C 6718   8.453  11.922   9.494 -1.0275 -0.0683  0.4212
  809MOL0     C 6719   8.557  11.978   9.388  0.5447 -0.1583 -0.8329
  809MOL0     C 6720   8.632  12.035   9.313 -0.4686  0.2986  0.0544
  809MOL0     C 6721   7.811  11.674   9.366 -0.1355  0.3047  0.2498
  809MOL0     C 6722   7.725  11.579   9.298 -0.1449 -0.1560  0.2935
  809MOL0     H 6723   7.313  11.401   9.214 -1.6866 -0.8195 -0.0584
  809MOL0     H 6724   7.147  11.257   9.095  1.1773  0.8996  2.2513
  809MOL0     H 6725   7.306  10.923   8.911 -2.3764 -3.3994 -0.7987
  809MOL0     H 6726   7.279  10.977   8.753 -1.9316 -2.3914 -0.1810
  809MOL0     H 6727   7.142  10.801   8.791  1.9260  1.5777 -1.8618
  809MOL0     H 6728   7.057  10.954   8.740  1.4978  2.6373  1.2498
  809MOL0     H 6729   6.978  10.977   8.986  0.2009 -0.5779 -1.2650
  809MOL0     H 6730   7.008  10.808   9.010 -1.0570  0.5686  1.4907
  809MOL0     H 6731   6.842  10.943   8.803  1.6040  1.7428  2.7514
  809MOL0     H 6732   6.852  10.773   8.812 -1.3907 -1.3038  1.1978
  809MOL0     H 6733   6.736  10.929   9.068 -2.2255 -2.6197  2.4662
  809MOL0     H 6734   6.779  10.761   9.045 -2.0509 -0.7638 -0.9033
  809MOL0     H 6735   6.572  10.741   8.997 -2.4066  2.2328  0.8544
  809MOL0     H 6736   6.631  10.776   8.830 -0.8838  1.9519 -1.6331
  809MOL0     H 6737   6.502  10.955   9.038  1.1630  0.1678 -0.3641
  809MOL0     H 6738   6.589  11.027   8.899 -2.4099  0.3532 -4.1798
  809MOL0     H 6739   6.362  10.829   8.871  0.4887 -0.6096 -1.4560
  809MOL0     H 6740   6.437  10.915   8.740  2.9792  2.0726  0.0877
  809MOL0     H 6741   6.289  11.046   9.079  2.3516 -3.0956 -1.4013
  809MOL0     H 6742   6.111  11.265   9.146  0.7942 -0.4399 -0.3053
  809MOL0     H 6743   5.998  11.291   9.012 -0.3917  1.7086  0.1251
  809MOL0     H 6744   6.155  11.449   8.902 -2.3297 -0.1640  0.6337
  809MOL0     H 6745   6.277  11.426   9.027  0.3512  1.5814 -1.2548
  809MOL0     H 6746   6.071  11.491   9.188  0.4218  0.4998 -0.7836
  809MOL0     H 6747   6.153  11.629   9.102 -1.8704  1.2373 -1.1825
  809MOL0     H 6748   5.924  11.473   8.970  1.1181  0.0500 -1.7728
  809MOL0     H 6749   5.992  11.631   8.940  0.7922 -0.6451 -0.1711
  809MOL0     H 6750   5.798  11.790   9.294 -3.3306  1.4238  1.2274
  809MOL0     H 6751   5.684  11.995   9.260 -1.0361 -0.8436 -0.3167
  809MOL0     H 6752   5.866  12.366   8.977  1.2118  1.6473  2.2501
  809MOL0     H 6753   5.869  12.606   8.951  0.8157  0.6867  1.1490
  809MOL0     H 6754   5.571  12.869   8.889  0.2719  2.8773  1.6549
  809MOL0     H 6755   5.684  12.761   8.825 -0.3745 -0.9819  0.8976
  809MOL0     H 6756   5.752  12.984   8.775  1.2382  3.8432  0.6596
  809MOL0     H 6757   5.873  12.915   8.886  1.1856  1.2339 -0.5910
  809MOL0     H 6758   5.746  13.063   9.064  0.8092 -1.6967 -0.1949
  809MOL0     H 6759   5.649  13.128   8.930  0.1806  0.4537  0.8694
  809MOL0     H 6760   5.948  13.133   8.931 -1.4695 -3.3039  2.4638
  809MOL0     H 6761   5.840  13.271   8.876 -2.6536 -0.8569 -0.5283
  809MOL0     H 6762   5.937  13.171   9.152  1.9848  0.7833 -1.4118
  809MOL0     H 6763   5.791  13.283   9.137 -2.5800 -2.7984 -3.1703
  809MOL0     H 6764   6.074  13.328   9.038 -2.2419 -1.6113 -1.7479
  809MOL0     H 6765   6.027  13.371   9.212  3.8255  0.0432 -0.4610
  809MOL0     H 6766   5.885  13.476   8.968 -0.5771 -2.6352  1.2220
  809MOL0     H 6767   5.870  13.524   9.137  1.0013  2.1920  1.2677
  809MOL0     H 6768   6.102  13.619   9.142  0.9835  2.3874 -0.3992
  809MOL0     H 6769   5.996  13.700   9.031  2.6038  0.1700 -1.6864
  809MOL0     H 6770   5.495  12.657   9.142  1.7719  1.8214  2.4146
  809MOL0     H 6771   5.488  12.423   9.216  1.1805  1.8011  2.4395
  809MOL0     H 6772   5.721  11.943   8.827  3.0101 -0.8363 -0.6524
  809MOL0     H 6773   5.815  11.719   8.865 -1.6076 -1.8818  0.6303
  809MOL0     H 6774   7.450  11.117   8.831 -1.6068 -1.4554  0.2300
  809MOL0     H 6775   7.621  11.214   8.949 -2.0926 -3.4831 -2.9139
  809MOL0     H 6776   7.839  11.293   9.436 -1.2201 -0.9821 -1.0260
  809MOL0     H 6777   7.980  11.443   9.559  0.9259  2.0583 -0.4641
  809MOL0     H 6778   8.087  11.804   9.330  3.1719  1.8979  0.5980
  809MOL0     H 6779   8.129  11.640   9.377 -1.5926 -0.1030 -0.0191
  809MOL0     H 6780   8.153  11.903   9.545 -1.0073 -0.2001 -0.3700
  809MOL0     H 6781   8.256  11.757   9.590  3.0976  2.5811  2.0155
  809MOL0     H 6782   8.276  11.950   9.363 -0.6399  0.8969 -0.5063
  809MOL0     H 6783   8.352  11.795   9.351 -3.6831  0.7157 -1.9762
  809MOL0     H 6784   8.425  12.000   9.566 -1.0603 -1.2492  1.7330
  809MOL0     H 6785   8.497  11.837   9.546  2.2906  0.8661 -0.5861
  809MOL0     H 6786   8.679  12.103   9.245 -1.2202 -0.4775 -1.2829
  809MOL0     H 6787   7.805  11.780   9.344 -0.6171  0.4303  0.9754
  809MOL0     H 6788   7.658  11.596   9.214  1.7180 -0.7323 -1.3892
  810MOL0     O 6789   8.032  10.691   9.766 -0.4711 -0.2933 -0.8170
  810MOL0     C 6790   8.082  10.577   9.788 -0.3583  0.0541 -0.1194
  810MOL0     O 6791   8.177  10.543   9.878  0.5520  0.1836 -0.4365
  810MOL0     C 6792   8.189  10.624   9.992 -0.6010 -0.7576 -0.5012
  810MOL0     C 6793   8.314  10.643  10.047 -0.2903 -0.1676 -0.0619
  810MOL0     C 6794   8.338  10.720  10.159  0.6823  0.2547  0.0401
  810MOL0     C 6795   8.231  10.785  10.224  0.1964  0.5586  0.3961
  810MOL0     O 6796   8.271  10.862  10.330 -0.1235 -0.2442 -0.3277
  810MOL0     C 6797   8.171  10.925  10.421 -0.1707  0.3658  0.1295
  810MOL0     C 6798   8.122  11.076  10.392  0.0029  0.1845  0.0368
  810MOL0     C 6799   8.056  11.136  10.515  0.3536 -1.0236 -0.5421
  810MOL0     C 6800   7.909  11.067  10.536 -0.7446  0.1413  1.4294
  810MOL0     C 6801   7.832  11.169  10.608  0.1473  0.1729  0.7696
  810MOL0     C 6802   7.677  11.142  10.620 -0.0149 -0.4901 -0.4784
  810MOL0     C 6803   7.590  11.257  10.686 -0.1775 -0.3337 -0.2582
  810MOL0     C 6804   7.571  11.392  10.618  0.4554  0.3498 -0.6421
  810MOL0     N 6805   7.466  11.463  10.697  0.0446 -0.0274  0.1351
  810MOL0     C 6806   7.332  11.441  10.672  0.4121  0.3141 -0.8590
  810MOL0     C 6807   7.261  11.514  10.764 -0.2522  0.0837 -0.3416
  810MOL0     C 6808   7.114  11.528  10.780 -0.5664  0.4030  0.5397
  810MOL0     C 6809   7.056  11.408  10.820 -0.2488  0.0539  0.2614
  810MOL0     C 6810   6.903  11.427  10.863 -1.2177  0.7265  0.3798
  810MOL0     C 6811   6.824  11.297  10.889 -0.1600 -0.6092  0.3525
  810MOL0     O 6812   6.801  11.236  10.765  0.4857 -0.1650 -0.6266
  810MOL0     C 6813   6.828  11.104  10.775  0.0184 -0.1534  0.7461
  810MOL0     C 6814   6.726  11.022  10.779  0.4144  0.4788  0.7535
  810MOL0     C 6815   6.750  10.886  10.782 -0.3425 -0.5280  0.2152
  810MOL0     C 6816   6.874  10.836  10.793 -0.5326 -0.3325 -0.0471
  810MOL0     C 6817   6.906  10.687  10.814  0.3264 -1.0040 -0.7369
  810MOL0     O 6818   6.794  10.611  10.832 -0.5988 -0.5772 -0.0553
  810MOL0     C 6819   6.794  10.472  10.840  0.7107 -0.5134 -0.5879
  810MOL0     C 6820   6.899  10.397  10.897  0.1002  0.2515 -0.0391
  810MOL0     C 6821   6.892  10.253  10.888 -0.1922 -0.7320 -1.2539
  810MOL0     C 6822   6.766  10.190  10.850 -0.3872  0.9048 -0.5447
  810MOL0     O 6823   6.769  10.051  10.851  0.6139  0.4463  0.1572
  810MOL0     C 6824   6.661   9.964  10.804  0.2970  0.3176  0.1772
  810MOL0     C 6825   6.710   9.816  10.832  0.3628  0.3946  1.0217
  810MOL0     C 6826   6.705   9.790  10.979 -0.9531 -0.1605  0.7004
  810MOL0     C 6827   6.744   9.648  11.002  0.3225  0.1216 -0.8786
  810MOL0     C 6828   6.723   9.615  11.156 -0.9505 -1.8915  0.5183
  810MOL0     C 6829   6.809   9.696  11.252 -0.1478 -0.2499 -0.4980
  810MOL0     C 6830   6.957   9.669  11.231 -0.2540  0.1949 -0.4125
  810MOL0     C 6831   7.052   9.734  11.331  0.7326  0.7616 -0.4022
  810MOL0    Cl 6832   7.034   9.658  11.496  0.3211  0.1772  0.3807
  810MOL0     C 6833   6.651  10.269  10.821 -0.8506  1.4193 -0.6226
  810MOL0     C 6834   6.675  10.405  10.811 -0.5908  0.3844  0.3342
  810MOL0     O 6835   7.017  10.662  10.851 -0.0754 -0.1048  0.5923
  810MOL0     C 6836   6.989  10.921  10.778 -0.5327  0.0251 -0.8632
  810MOL0     C 6837   6.960  11.062  10.757 -0.1687 -0.8814 -0.5696
  810MOL0     N 6838   7.358  11.576  10.849 -0.3827  0.9864  0.0712
  810MOL0     N 6839   7.481  11.548  10.809 -0.8607 -0.0425  0.5500
  810MOL0     C 6840   8.102  10.752  10.182 -0.5075  1.1688  0.0726
  810MOL0     C 6841   8.080  10.675  10.061  0.2751 -0.2271  0.1671
  810MOL0     C 6842   8.031  10.478   9.690  0.3140  0.6954  0.4752
  810MOL0     C 6843   8.005  10.345   9.723  1.0353 -0.7720  0.5104
  810MOL0     C 6844   7.950  10.260   9.633  0.3146 -0.5929 -0.2711
  810MOL0     C 6845   7.933  10.296   9.497  0.4275 -0.3363 -1.0859
  810MOL0     O 6846   7.878  10.218   9.396  0.3438 -0.8305 -0.3966
  810MOL0     C 6847   7.823  10.095   9.439  0.1206 -0.4006 -0.2119
  810MOL0     C 6848   7.918   9.978   9.453  0.1446 -0.0307  0.0147
  810MOL0     C 6849   7.963   9.926   9.317  0.1078 -0.0302  0.7574
  810MOL0     C 6850   8.075   9.825   9.326 -0.6951 -0.9913  1.4315
  810MOL0     C 6851   8.089   9.750   9.205  0.8618 -0.2480  0.3773
  810MOL0     C 6852   8.090   9.671   9.115 -0.2706 -0.9433  0.0589
  810MOL0     C 6853   7.958  10.428   9.463 -0.6633  0.3279 -1.1630
  810MOL0     C 6854   8.003  10.522   9.558  1.7156  0.1068  0.3559
  810MOL0     H 6855   8.385  10.589   9.986  0.4057 -0.1121  0.6812
  810MOL0     H 6856   8.440  10.741  10.189  0.3157  0.8604  0.8888
  810MOL0     H 6857   8.217  10.926  10.520  0.3004 -0.8731 -0.0641
  810MOL0     H 6858   8.080  10.865  10.430 -0.4842  0.6941 -0.7173
  810MOL0     H 6859   8.049  11.076  10.311  1.5182  2.4168 -1.4400
  810MOL0     H 6860   8.209  11.139  10.367 -1.2746  0.6110 -4.0453
  810MOL0     H 6861   8.032  11.242  10.503 -0.2168 -0.8522  1.6517
  810MOL0     H 6862   8.121  11.129  10.603 -0.3304 -3.2496 -0.1417
  810MOL0     H 6863   7.858  11.051  10.441 -0.3610 -2.0758  1.5505
  810MOL0     H 6864   7.908  10.971  10.589 -1.1169 -0.1887  0.8332
  810MOL0     H 6865   7.845  11.259  10.548 -1.6229 -0.4297 -0.5911
  810MOL0     H 6866   7.871  11.180  10.710  1.7639 -2.5826  0.5374
  810MOL0     H 6867   7.659  11.061  10.691 -2.8937  1.8979  1.7890
  810MOL0     H 6868   7.653  11.111  10.518 -0.2490 -0.0261 -0.5656
  810MOL0     H 6869   7.485  11.230  10.702 -1.0801  3.1790  0.4050
  810MOL0     H 6870   7.629  11.286  10.784  1.5295 -0.6360 -0.8213
  810MOL0     H 6871   7.545  11.377  10.513 -2.2760  0.9273 -0.1387
  810MOL0     H 6872   7.672  11.433  10.625  0.2312  0.6825  1.3382
  810MOL0     H 6873   7.289  11.389  10.587  0.0203 -1.5960  0.4578
  810MOL0     H 6874   7.070  11.548  10.681  0.6255  1.0663  0.1252
  810MOL0     H 6875   7.085  11.611  10.844 -2.5314  0.9220 -0.9122
  810MOL0     H 6876   7.101  11.370  10.912 -2.6601  1.0472  1.9534
  810MOL0     H 6877   7.069  11.341  10.734  0.9586  1.3353 -0.6048
  810MOL0     H 6878   6.908  11.476  10.961 -0.7054 -0.4140  0.9530
  810MOL0     H 6879   6.857  11.492  10.788 -0.4524 -1.7675 -2.4787
  810MOL0     H 6880   6.728  11.314  10.940 -0.6094 -3.6394  0.6967
  810MOL0     H 6881   6.881  11.238  10.961  0.6267 -0.3477 -0.0441
  810MOL0     H 6882   6.629  11.068  10.794  0.5545  2.4659 -3.2579
  810MOL0     H 6883   6.663  10.825  10.802  0.2299 -1.3083  0.3440
  810MOL0     H 6884   6.993  10.441  10.932  1.5466 -1.0315 -2.0799
  810MOL0     H 6885   6.972  10.202  10.940 -0.9979  0.0249  0.8169
  810MOL0     H 6886   6.639   9.979  10.698 -1.8505  2.7755  0.8678
  810MOL0     H 6887   6.570   9.973  10.865  0.2422  0.9168  0.0066
  810MOL0     H 6888   6.805   9.820  10.778 -0.3560  1.3419 -0.2568
  810MOL0     H 6889   6.637   9.746  10.789  1.6966 -0.3650 -0.0990
  810MOL0     H 6890   6.604   9.803  11.021 -2.0035  1.0816 -1.9369
  810MOL0     H 6891   6.776   9.856  11.029 -0.2546 -0.8811  0.6840
  810MOL0     H 6892   6.677   9.582  10.946  2.7474 -0.8153 -2.8946
  810MOL0     H 6893   6.848   9.635  10.969 -0.3170  2.5428 -4.3262
  810MOL0     H 6894   6.740   9.507  11.162  0.2645 -1.8530 -1.4504
  810MOL0     H 6895   6.624   9.647  11.189  0.6047  1.5345  2.4607
  810MOL0     H 6896   6.776   9.693  11.357 -2.9513  0.0842 -1.2947
  810MOL0     H 6897   6.780   9.795  11.218  1.7154 -0.1528 -1.9661
  810MOL0     H 6898   6.967   9.560  11.226  0.4636  0.2926 -1.7261
  810MOL0     H 6899   6.993   9.681  11.128 -1.4917 -1.7958 -1.1329
  810MOL0     H 6900   7.035   9.842  11.339 -0.7505  0.4951  0.2835
  810MOL0     H 6901   7.153   9.724  11.289  1.2422 -0.0144  0.9228
  810MOL0     H 6902   6.549  10.237  10.802 -0.3419 -0.0380 -1.0559
  810MOL0     H 6903   6.593  10.458  10.765 -1.3573 -0.4401  0.7120
  810MOL0     H 6904   7.092  10.888  10.783  1.1393  4.6748  1.4121
  810MOL0     H 6905   7.045  11.130  10.756  0.7606 -1.9751  0.4389
  810MOL0     H 6906   8.018  10.806  10.224 -2.1370 -3.2765  3.3243
  810MOL0     H 6907   7.977  10.669  10.027 -0.2412 -3.4159  1.8816
  810MOL0     H 6908   8.014  10.313   9.826 -0.6399 -0.3968  0.8080
  810MOL0     H 6909   7.929  10.158   9.666  0.6473 -0.4389  0.4408
  810MOL0     H 6910   7.742  10.054   9.378 -1.7211 -2.8405  3.4797
  810MOL0     H 6911   7.784  10.109   9.540 -0.7367 -3.4928 -0.0151
  810MOL0     H 6912   8.004  10.003   9.516 -0.0355 -0.9978  0.6548
  810MOL0     H 6913   7.869   9.898   9.509  3.5227 -1.0137  1.8646
  810MOL0     H 6914   7.985  10.009   9.249 -1.4845 -0.6572 -0.5861
  810MOL0     H 6915   7.874   9.885   9.269 -0.3331  2.2214 -0.5117
  810MOL0     H 6916   8.161   9.890   9.342 -2.4427  1.4821  1.2700
  810MOL0     H 6917   8.073   9.761   9.416  4.1108 -0.3273  2.2674
  810MOL0     H 6918   8.089   9.611   9.026  1.3771  0.1772 -0.7647
  810MOL0     H 6919   7.943  10.457   9.359 -0.9270 -2.6745 -2.0841
  810MOL0     H 6920   8.028  10.623   9.529  2.6909 -0.1731  0.2087
  811MOL0     O 6921   3.647   3.233   0.345 -0.4489 -0.4187  0.7869
  811MOL0     C 6922   3.580   3.157   0.280  1.0121  0.9750  0.1621
  811MOL0     O 6923   3.451   3.181   0.225  0.0234  0.3630  0.0661
  811MOL0     C 6924   3.394   3.297   0.261 -0.2754  1.2181  0.3647
  811MOL0     C 6925   3.350   3.318   0.397 -0.3647 -0.0755 -0.1538
  811MOL0     C 6926   3.267   3.418   0.436 -0.0217  0.5214  1.1310
  811MOL0     C 6927   3.227   3.512   0.345 -0.0150  0.2041 -0.4470
  811MOL0     O 6928   3.149   3.616   0.379  0.4902 -0.9076 -0.3519
  811MOL0     C 6929   3.010   3.568   0.368  0.4398  0.4567 -0.5142
  811MOL0     C 6930   2.915   3.691   0.373  1.1588 -0.9224 -0.2865
  811MOL0     C 6931   2.975   3.807   0.286  0.9986  0.0359 -0.1076
  811MOL0     C 6932   2.892   3.932   0.290 -0.3076 -0.0294  0.5956
  811MOL0     C 6933   2.983   4.046   0.242  1.1990  0.1203  0.8162
  811MOL0     C 6934   2.910   4.178   0.282 -1.0779 -0.7358 -0.3624
  811MOL0     C 6935   2.936   4.308   0.199 -0.9246 -0.9412 -0.7488
  811MOL0     C 6936   3.070   4.376   0.227 -0.1816  0.1628 -0.3807
  811MOL0     N 6937   3.057   4.522   0.222 -0.0668 -0.3670  0.2907
  811MOL0     C 6938   3.136   4.603   0.301  0.2280 -0.4765 -0.0150
  811MOL0     C 6939   3.111   4.726   0.260 -0.6194 -0.0623  0.3941
  811MOL0     C 6940   3.168   4.845   0.321 -0.3416  0.3394 -0.0894
  811MOL0     C 6941   3.176   4.844   0.471  0.6631 -0.1947 -0.8531
  811MOL0     C 6942   3.262   4.962   0.508 -0.1150  0.3596 -0.8816
  811MOL0     C 6943   3.319   4.951   0.651 -0.4031  0.7841  0.2978
  811MOL0     O 6944   3.409   4.836   0.653 -0.6805 -0.7839  0.5441
  811MOL0     C 6945   3.442   4.781   0.769  0.5654  0.1376 -1.2375
  811MOL0     C 6946   3.480   4.641   0.758 -1.7505  0.2240 -0.3998
  811MOL0     C 6947   3.494   4.562   0.873  0.2065 -0.1704 -1.0228
  811MOL0     C 6948   3.480   4.622   1.001  0.7355  0.0126  0.3227
  811MOL0     C 6949   3.475   4.534   1.117 -0.3976  0.2865 -0.2705
  811MOL0     O 6950   3.501   4.403   1.108  0.0086 -0.8178 -0.1581
  811MOL0     C 6951   3.531   4.321   1.213 -0.2137  0.7844  0.8233
  811MOL0     C 6952   3.469   4.198   1.227  0.3814 -0.4855  1.0680
  811MOL0     C 6953   3.520   4.105   1.329  0.4560 -0.5656 -0.3238
  811MOL0     C 6954   3.621   4.146   1.422  0.6531  0.5836  0.1829
  811MOL0     O 6955   3.637   4.058   1.528 -0.4464 -0.5001 -0.2006
  811MOL0     C 6956   3.733   4.095   1.627 -0.2182  0.4052  0.8114
  811MOL0     C 6957   3.726   3.997   1.751 -0.0071  0.9817  0.9111
  811MOL0     C 6958   3.805   3.865   1.713  0.1773  0.3040 -0.5842
  811MOL0     C 6959   3.805   3.757   1.816  0.6357  0.7915 -0.3749
  811MOL0     C 6960   3.677   3.674   1.821 -0.1991  0.3410 -0.5742
  811MOL0     C 6961   3.677   3.587   1.947  0.1423 -0.6201 -0.3817
  811MOL0     C 6962   3.539   3.542   1.983 -0.8162 -0.0201 -0.6493
  811MOL0     C 6963   3.549   3.454   2.109 -0.3094 -1.3432  0.3288
  811MOL0    Cl 6964   3.415   3.340   2.145  0.1150 -0.3669 -0.1447
  811MOL0     C 6965   3.682   4.270   1.404  0.7992  1.3839 -1.5430
  811MOL0     C 6966   3.636   4.358   1.301  0.0797 -0.6693  0.4678
  811MOL0     O 6967   3.449   4.591   1.220  0.2372 -0.0496 -0.3130
  811MOL0     C 6968   3.459   4.766   1.008 -0.3817 -0.2195  0.8070
  811MOL0     C 6969   3.439   4.838   0.892 -0.8768  0.6559  0.3994
  811MOL0     N 6970   3.009   4.730   0.166 -1.1620 -0.7107 -0.0681
  811MOL0     N 6971   2.980   4.601   0.141 -0.2112  0.5164  0.2847
  811MOL0     C 6972   3.270   3.498   0.212  0.7568 -0.3575 -0.2636
  811MOL0     C 6973   3.350   3.392   0.170 -0.3555 -0.7744 -0.1329
  811MOL0     C 6974   3.632   3.024   0.251  0.3396  0.8959 -1.1166
  811MOL0     C 6975   3.650   2.963   0.128  0.8305  0.0225 -0.3902
  811MOL0     C 6976   3.718   2.842   0.110 -0.0287 -0.4541  0.5877
  811MOL0     C 6977   3.750   2.772   0.220  0.5775  0.0466 -0.3229
  811MOL0     O 6978   3.811   2.647   0.217  0.9391 -0.7925  0.0119
  811MOL0     C 6979   3.717   2.546   0.185 -0.4723 -1.1640 -0.5235
  811MOL0     C 6980   3.775   2.403   0.148 -0.0637 -0.9696  0.0908
  811MOL0     C 6981   3.849   2.344   0.261 -0.9546  0.7088 -0.3482
  811MOL0     C 6982   3.925   2.207   0.235 -0.2461 -0.3477  0.1459
  811MOL0     C 6983   3.836   2.090   0.247 -0.2860  0.1995 -0.2801
  811MOL0     C 6984   3.773   1.983   0.241 -0.7434 -0.1392  0.1224
  811MOL0     C 6985   3.726   2.824   0.350  0.1022 -0.1216  0.1527
  811MOL0     C 6986   3.675   2.951   0.365  0.6020  0.4383  0.3644
  811MOL0     H 6987   3.390   3.269   0.484  1.4707  0.9503 -0.3611
  811MOL0     H 6988   3.239   3.427   0.540 -0.7974  1.5316  0.8540
  811MOL0     H 6989   2.984   3.505   0.454 -0.3337  2.4736  0.8103
  811MOL0     H 6990   2.992   3.507   0.279 -0.5884  2.2190 -1.5606
  811MOL0     H 6991   2.895   3.731   0.473  1.9422  1.5686 -1.0775
  811MOL0     H 6992   2.816   3.664   0.335  0.5896 -0.7322  1.0034
  811MOL0     H 6993   2.994   3.782   0.182  2.6386 -0.0090  0.1802
  811MOL0     H 6994   3.073   3.827   0.332  0.7585 -0.3713  0.5986
  811MOL0     H 6995   2.807   3.933   0.221  0.6381 -0.5266 -0.6186
  811MOL0     H 6996   2.863   3.935   0.395  1.2439 -0.9585  1.0810
  811MOL0     H 6997   2.984   4.055   0.133 -2.4492  0.2015  0.6424
  811MOL0     H 6998   3.083   4.041   0.284  1.2732 -0.6164  0.5539
  811MOL0     H 6999   2.932   4.195   0.388  0.0497 -0.7527 -0.5777
  811MOL0     H 7000   2.803   4.160   0.278 -1.0786 -0.5465 -2.6263
  811MOL0     H 7001   2.916   4.268   0.099  1.5433 -1.5574 -1.0623
  811MOL0     H 7002   2.865   4.388   0.222  1.7225  1.4846 -0.3699
  811MOL0     H 7003   3.138   4.340   0.149  1.3988  0.1726  0.9491
  811MOL0     H 7004   3.102   4.342   0.326  0.5854 -1.4167 -1.1409
  811MOL0     H 7005   3.201   4.584   0.386  3.2207  2.4516 -1.4343
  811MOL0     H 7006   3.107   4.927   0.282  0.6947  0.4644 -1.5519
  811MOL0     H 7007   3.265   4.864   0.274  0.3908  0.2926  1.3362
  811MOL0     H 7008   3.229   4.754   0.502  1.7243  0.5446 -0.4608
  811MOL0     H 7009   3.077   4.845   0.517  0.9654  1.3968 -0.1827
  811MOL0     H 7010   3.351   4.958   0.445  1.7446 -2.4950  1.6578
  811MOL0     H 7011   3.199   5.051   0.501 -1.9010 -0.8600 -1.0531
  811MOL0     H 7012   3.244   4.938   0.730 -1.0176  3.4359  0.2620
  811MOL0     H 7013   3.375   5.043   0.671  0.5774  0.5931 -1.4354
  811MOL0     H 7014   3.480   4.575   0.671  2.4922 -1.9389  0.9399
  811MOL0     H 7015   3.508   4.454   0.871  1.7674 -0.0421  0.5158
  811MOL0     H 7016   3.391   4.162   1.161 -0.9812 -0.2486  2.4794
  811MOL0     H 7017   3.468   4.011   1.350  0.8469 -0.1619  3.1907
  811MOL0     H 7018   3.733   4.201   1.654  1.8670  1.5820 -3.0451
  811MOL0     H 7019   3.822   4.081   1.565 -1.5552  2.7436 -1.8917
  811MOL0     H 7020   3.623   3.967   1.770  0.4798 -0.0902  1.9629
  811MOL0     H 7021   3.772   4.040   1.841 -1.3265 -2.2914  3.3316
  811MOL0     H 7022   3.908   3.887   1.684  0.1019  2.5636  0.6057
  811MOL0     H 7023   3.773   3.827   1.616  1.0868 -2.5116  0.1252
  811MOL0     H 7024   3.897   3.702   1.794  1.3942  2.0559 -0.4058
  811MOL0     H 7025   3.826   3.799   1.915 -1.1620  2.2423 -0.5569
  811MOL0     H 7026   3.668   3.622   1.725  1.2035 -2.9767  0.9128
  811MOL0     H 7027   3.595   3.746   1.828 -0.5689 -0.0379 -1.0063
  811MOL0     H 7028   3.723   3.632   2.034  0.2014  1.1842 -1.3105
  811MOL0     H 7029   3.731   3.500   1.908 -0.0094 -0.4734 -0.9336
  811MOL0     H 7030   3.471   3.626   1.999 -2.3528 -0.7013 -3.1284
  811MOL0     H 7031   3.512   3.478   1.899  3.7269 -5.4277  1.3387
  811MOL0     H 7032   3.571   3.522   2.191 -4.4913  2.8842 -1.5828
  811MOL0     H 7033   3.644   3.400   2.104  1.5620  1.4003  2.8975
  811MOL0     H 7034   3.775   4.294   1.455  1.0218 -1.9630 -0.1594
  811MOL0     H 7035   3.693   4.449   1.286  4.1616 -3.1581 -0.6095
  811MOL0     H 7036   3.445   4.817   1.102 -2.5245 -0.6812  0.7942
  811MOL0     H 7037   3.417   4.944   0.905  3.6583  1.9231 -0.2109
  811MOL0     H 7038   3.249   3.578   0.143  3.4378  0.9773  0.3427
  811MOL0     H 7039   3.377   3.384   0.065 -2.2856  0.7427 -0.8088
  811MOL0     H 7040   3.643   3.016   0.033  4.8493  1.8170  0.0884
  811MOL0     H 7041   3.753   2.804   0.014 -1.7554  0.0577 -0.2943
  811MOL0     H 7042   3.659   2.564   0.095  1.4553 -0.6428 -1.7270
  811MOL0     H 7043   3.655   2.537   0.275  2.5347 -0.8683  1.7530
  811MOL0     H 7044   3.687   2.340   0.134 -1.1387  0.3471  0.6512
  811MOL0     H 7045   3.836   2.415   0.058 -0.9430  4.8280 -0.1557
  811MOL0     H 7046   3.785   2.338   0.349  0.3303  2.1499  0.7397
  811MOL0     H 7047   3.924   2.422   0.279  0.4193 -1.0482  2.1729
  811MOL0     H 7048   3.972   2.202   0.137  1.4936 -2.4102  1.0229
  811MOL0     H 7049   4.001   2.196   0.314 -0.6157  2.2933  0.9900
  811MOL0     H 7050   3.715   1.893   0.241 -1.4345  0.2409  2.0877
  811MOL0     H 7051   3.752   2.777   0.444 -0.4779 -2.8229 -0.9555
  811MOL0     H 7052   3.685   2.994   0.464 -0.1125  2.2660 -0.3300
  812MOL0     O 7053   9.087   2.805   8.794  0.8936 -0.0573 -0.3933
  812MOL0     C 7054   9.207   2.787   8.791 -1.1337 -0.5966 -0.3323
  812MOL0     O 7055   9.264   2.669   8.775  0.6867 -0.0032 -0.2370
  812MOL0     C 7056   9.197   2.554   8.815 -0.6271  0.3332 -0.3116
  812MOL0     C 7057   9.135   2.540   8.942  1.0426  0.0417  0.1580
  812MOL0     C 7058   9.091   2.411   8.997 -0.3984  0.7523  0.1599
  812MOL0     C 7059   9.113   2.298   8.915 -0.2231  0.3254  0.0496
  812MOL0     O 7060   9.087   2.163   8.963 -1.0584  0.9848 -0.3150
  812MOL0     C 7061   8.944   2.151   8.996  0.6386 -0.2176  0.9211
  812MOL0     C 7062   8.906   1.998   9.021 -0.4837 -0.6945  0.3187
  812MOL0     C 7063   8.968   1.919   9.136  0.4756 -0.1193  0.6065
  812MOL0     C 7064   8.912   1.778   9.141 -1.4077  0.2711  0.4457
  812MOL0     C 7065   9.030   1.673   9.171 -0.1507 -0.3560 -0.8435
  812MOL0     C 7066   9.073   1.687   9.319 -0.5206  0.3919  0.4041
  812MOL0     C 7067   9.130   1.561   9.394 -0.4512 -0.1192 -0.1599
  812MOL0     C 7068   9.167   1.576   9.538 -0.7832  0.1487 -0.7938
  812MOL0     N 7069   9.044   1.565   9.626 -0.0057  0.0263  0.0617
  812MOL0     C 7070   9.019   1.471   9.717 -0.6605  0.2874  0.4288
  812MOL0     C 7071   8.902   1.512   9.774  0.2813  0.2222  0.1187
  812MOL0     C 7072   8.827   1.438   9.883 -0.1509  0.0671  0.4278
  812MOL0     C 7073   8.691   1.377   9.829  0.3428 -0.7403 -0.4742
  812MOL0     C 7074   8.608   1.323   9.954 -0.1675  0.4509  0.3292
  812MOL0     C 7075   8.557   1.433  10.037 -0.1432 -1.1417  0.0946
  812MOL0     O 7076   8.626   1.425  10.167  0.0322  0.2367  0.2170
  812MOL0     C 7077   8.579   1.331  10.264  0.5978  0.8846 -1.1882
  812MOL0     C 7078   8.631   1.343  10.390  0.0835  0.6073  1.0006
  812MOL0     C 7079   8.590   1.249  10.495 -0.6652 -1.0138  0.7332
  812MOL0     C 7080   8.474   1.169  10.471  0.0350  0.4067 -0.6068
  812MOL0     C 7081   8.416   1.095  10.591  0.1753 -1.1721  0.4833
  812MOL0     O 7082   8.499   1.089  10.694  0.7465  0.2524  0.3629
  812MOL0     C 7083   8.502   0.997  10.793  0.1419  0.3411  0.3549
  812MOL0     C 7084   8.486   0.857  10.774 -0.2507  0.1752 -0.1742
  812MOL0     C 7085   8.517   0.770  10.883  0.2584  1.4791 -0.6247
  812MOL0     C 7086   8.532   0.807  11.012  0.1112 -1.2484 -0.7674
  812MOL0     O 7087   8.528   0.717  11.115 -0.3487 -1.0340 -0.2445
  812MOL0     C 7088   8.416   0.741  11.200 -0.6754  0.6058  0.6791
  812MOL0     C 7089   8.417   0.619  11.306  0.5322  0.7503  0.7157
  812MOL0     C 7090   8.430   0.488  11.223  0.3558  0.0099  0.0170
  812MOL0     C 7091   8.422   0.360  11.313  0.9296  0.1806 -0.6704
  812MOL0     C 7092   8.383   0.231  11.242 -0.3825 -0.5780 -0.3720
  812MOL0     C 7093   8.501   0.198  11.139 -0.3733  1.1004  0.1961
  812MOL0     C 7094   8.495   0.046  11.094  0.3846  0.8156  0.2607
  812MOL0     C 7095   8.533  -0.060  11.208  0.8625  0.8371 -1.0474
  812MOL0    Cl 7096   8.707  -0.099  11.183  0.0100  0.1727 -0.1143
  812MOL0     C 7097   8.540   0.945  11.034  0.1231 -0.2361 -0.0322
  812MOL0     C 7098   8.528   1.039  10.924 -0.1196  0.1632  0.3275
  812MOL0     O 7099   8.300   1.049  10.583  0.0390  0.3418  0.0456
  812MOL0     C 7100   8.418   1.170  10.341  0.3011 -0.5568 -0.3539
  812MOL0     C 7101   8.471   1.243  10.244  0.2366 -0.7661  0.5621
  812MOL0     N 7102   8.864   1.637   9.713 -0.2748  0.4792 -0.9529
  812MOL0     N 7103   8.959   1.670   9.634 -0.2989  0.0561 -0.6393
  812MOL0     C 7104   9.177   2.308   8.791 -0.7166  0.3511 -0.3341
  812MOL0     C 7105   9.212   2.438   8.742 -0.4985  0.8008  1.1011
  812MOL0     C 7106   9.302   2.901   8.804 -0.8952  0.3629  0.2864
  812MOL0     C 7107   9.263   3.038   8.811  0.0530 -0.6358  0.3123
  812MOL0     C 7108   9.360   3.146   8.829  0.2425 -0.3988  0.1717
  812MOL0     C 7109   9.497   3.106   8.844  0.7219  0.9075 -0.3937
  812MOL0     O 7110   9.607   3.184   8.865  0.0956 -0.7863 -0.2117
  812MOL0     C 7111   9.594   3.327   8.874  0.1611 -0.6969  0.2914
  812MOL0     C 7112   9.566   3.401   8.740 -0.7029  0.1498  0.1637
  812MOL0     C 7113   9.671   3.384   8.635 -0.7322 -0.0547  0.7267
  812MOL0     C 7114   9.792   3.457   8.670  0.0768  0.1049 -0.9354
  812MOL0     C 7115   9.780   3.602   8.660  0.4211  0.6415  0.5949
  812MOL0     C 7116   9.755   3.718   8.670 -0.2802 -0.0894 -0.0356
  812MOL0     C 7117   9.528   2.973   8.830  0.1988  0.1322  0.5030
  812MOL0     C 7118   9.433   2.870   8.818 -0.7663 -1.3560  0.0220
  812MOL0     H 7119   9.138   2.620   9.016 -2.9696 -1.7447  2.6239
  812MOL0     H 7120   9.051   2.398   9.098  0.3845 -2.1396  0.1984
  812MOL0     H 7121   8.905   2.189   8.902  2.8785  2.2941  0.8747
  812MOL0     H 7122   8.924   2.215   9.083  0.6826  1.4674 -0.2763
  812MOL0     H 7123   8.922   1.947   8.925  0.5004  0.8720 -0.3931
  812MOL0     H 7124   8.799   2.015   9.030 -1.6807 -5.3182 -1.8750
  812MOL0     H 7125   8.949   1.982   9.224 -1.3896  1.5188 -0.8994
  812MOL0     H 7126   9.077   1.919   9.126  0.2341 -0.3319 -3.0209
  812MOL0     H 7127   8.834   1.762   9.216 -0.6269 -0.1474  1.1852
  812MOL0     H 7128   8.873   1.759   9.040  3.1403  1.6927 -1.8675
  812MOL0     H 7129   9.125   1.681   9.119  2.4631 -3.3620  2.8874
  812MOL0     H 7130   8.990   1.572   9.157 -0.6679 -0.1296 -1.0568
  812MOL0     H 7131   8.984   1.705   9.380 -1.2566 -0.7521 -0.2977
  812MOL0     H 7132   9.144   1.770   9.317 -1.1907  0.9685 -0.5820
  812MOL0     H 7133   9.041   1.498   9.381 -0.9028  1.0905 -7.2454
  812MOL0     H 7134   9.213   1.516   9.338 -1.5835 -0.7125 -1.4097
  812MOL0     H 7135   9.225   1.662   9.573  0.9930 -1.5519  0.7149
  812MOL0     H 7136   9.230   1.492   9.568 -1.2101  0.0910 -0.0324
  812MOL0     H 7137   9.069   1.377   9.741  0.9436 -0.2961 -4.1456
  812MOL0     H 7138   8.803   1.513   9.959 -0.5791  1.2698 -0.8617
  812MOL0     H 7139   8.896   1.364   9.927 -0.4888  0.0773  0.9907
  812MOL0     H 7140   8.704   1.300   9.753 -1.6602  1.1852 -2.9424
  812MOL0     H 7141   8.631   1.457   9.783 -1.8205 -1.0799  1.5378
  812MOL0     H 7142   8.517   1.276   9.916 -1.1428  1.8083  0.9067
  812MOL0     H 7143   8.658   1.251  10.020  0.9531 -1.3608 -2.3106
  812MOL0     H 7144   8.448   1.429  10.049 -0.0585  0.5612  2.0090
  812MOL0     H 7145   8.581   1.536  10.008 -2.6120 -0.2932  0.7848
  812MOL0     H 7146   8.710   1.414  10.414  0.2952  0.1311  1.7143
  812MOL0     H 7147   8.641   1.264  10.589 -0.2092  0.1584  0.3115
  812MOL0     H 7148   8.451   0.825  10.677 -1.1520 -0.9654  0.5124
  812MOL0     H 7149   8.522   0.664  10.862  1.0664  1.3178  0.3049
  812MOL0     H 7150   8.327   0.746  11.138  1.2947  5.0758 -2.3243
  812MOL0     H 7151   8.426   0.837  11.251 -1.4193  1.3003 -0.4565
  812MOL0     H 7152   8.320   0.628  11.354 -1.2156  1.2779 -2.5779
  812MOL0     H 7153   8.511   0.616  11.362  2.7223 -1.6915 -2.6475
  812MOL0     H 7154   8.533   0.486  11.186  1.4024  0.8518  2.6158
  812MOL0     H 7155   8.358   0.489  11.141  1.7306  0.9267 -1.2449
  812MOL0     H 7156   8.518   0.361  11.365 -1.0365 -1.6543  3.4740
  812MOL0     H 7157   8.341   0.378  11.384 -1.2523 -0.4963 -2.8624
  812MOL0     H 7158   8.290   0.229  11.185  0.4140 -0.1707 -1.7425
  812MOL0     H 7159   8.370   0.163  11.326 -3.1606 -0.9645 -1.0163
  812MOL0     H 7160   8.603   0.205  11.177  0.6516 -6.8008  0.4850
  812MOL0     H 7161   8.491   0.258  11.048  3.6926 -0.4554 -1.5159
  812MOL0     H 7162   8.392   0.018  11.072  0.2730 -2.2647  3.7293
  812MOL0     H 7163   8.548   0.032  11.000 -0.1251 -0.9599  0.2098
  812MOL0     H 7164   8.476  -0.153  11.197  0.0143  1.1098  0.6150
  812MOL0     H 7165   8.508  -0.016  11.306 -1.2504 -0.2504 -1.0443
  812MOL0     H 7166   8.560   0.978  11.136  1.3741 -2.2107  0.4270
  812MOL0     H 7167   8.538   1.147  10.932 -1.1836  0.5138 -2.2936
  812MOL0     H 7168   8.330   1.114  10.311  0.0196  0.9375 -2.5558
  812MOL0     H 7169   8.428   1.243  10.144  2.1144 -2.4636 -0.2977
  812MOL0     H 7170   9.198   2.216   8.737  0.6662  0.3807  0.1143
  812MOL0     H 7171   9.263   2.439   8.646 -1.2746  3.9503  0.5941
  812MOL0     H 7172   9.162   3.076   8.795  0.7626  1.4074  0.3180
  812MOL0     H 7173   9.318   3.245   8.842  1.5695  0.2462 -0.2758
  812MOL0     H 7174   9.684   3.368   8.921 -1.1322  0.0426  2.2774
  812MOL0     H 7175   9.518   3.356   8.948  1.5084  0.1415  1.3957
  812MOL0     H 7176   9.466   3.393   8.696 -2.3097 -2.2320  3.7203
  812MOL0     H 7177   9.570   3.505   8.773  2.4841  1.3613 -3.2877
  812MOL0     H 7178   9.638   3.419   8.536 -1.1884  0.6884  1.1298
  812MOL0     H 7179   9.702   3.280   8.624 -3.1865 -0.6055 -2.5044
  812MOL0     H 7180   9.831   3.433   8.769  0.4575  0.5922 -0.9670
  812MOL0     H 7181   9.868   3.431   8.596 -0.4222 -1.8817 -0.8299
  812MOL0     H 7182   9.757   3.823   8.689  1.3635  0.0324 -0.6425
  812MOL0     H 7183   9.632   2.956   8.851 -0.2624 -0.1973  2.7469
  812MOL0     H 7184   9.459   2.766   8.834 -3.9831 -2.1519  0.6860
  813MOL0     O 7185   2.118   3.305   2.159 -0.1846 -0.1248 -0.5312
  813MOL0     C 7186   2.038   3.360   2.083  0.7810 -0.6041 -0.1500
  813MOL0     O 7187   1.984   3.303   1.967 -0.0145 -0.1109 -1.0606
  813MOL0     C 7188   1.999   3.169   1.929  0.5109 -0.2929  0.3489
  813MOL0     C 7189   2.045   3.067   2.018  0.4297 -0.3154 -0.1721
  813MOL0     C 7190   2.087   2.939   1.976 -0.2509 -0.6664  0.1403
  813MOL0     C 7191   2.078   2.907   1.843 -0.8836  0.4430  0.5377
  813MOL0     O 7192   2.121   2.774   1.792 -0.6221  0.4922  0.0609
  813MOL0     C 7193   2.256   2.739   1.823 -0.4818  0.3391 -0.0655
  813MOL0     C 7194   2.330   2.734   1.692 -0.2688 -0.1023 -0.5970
  813MOL0     C 7195   2.449   2.616   1.713  0.7788 -0.8747  0.2765
  813MOL0     C 7196   2.582   2.675   1.763  0.0731  0.9207  0.0513
  813MOL0     C 7197   2.589   2.718   1.910 -0.0551  0.1898 -0.9055
  813MOL0     C 7198   2.554   2.599   2.001  0.9976 -0.2707 -0.4836
  813MOL0     C 7199   2.576   2.636   2.153 -0.3079  0.2573  0.7926
  813MOL0     C 7200   2.485   2.547   2.242 -0.7149 -0.4401  0.3327
  813MOL0     N 7201   2.501   2.402   2.226 -1.6876 -0.6835  0.3649
  813MOL0     C 7202   2.595   2.328   2.297 -0.2575  0.3908  0.7388
  813MOL0     C 7203   2.607   2.216   2.231 -0.4013 -0.1946  0.1745
  813MOL0     C 7204   2.711   2.105   2.268  0.8788 -0.1029 -0.1097
  813MOL0     C 7205   2.749   2.104   2.419  0.3190 -0.1310  0.3103
  813MOL0     C 7206   2.839   1.996   2.464 -0.3556  1.0739 -0.0462
  813MOL0     C 7207   2.776   1.896   2.558 -0.7477 -0.8437  0.7930
  813MOL0     O 7208   2.695   1.803   2.487 -0.0291 -0.1915 -0.3065
  813MOL0     C 7209   2.634   1.711   2.570 -0.7185 -0.7697  1.0382
  813MOL0     C 7210   2.532   1.752   2.664 -0.1643 -0.0528  0.5383
  813MOL0     C 7211   2.472   1.653   2.736 -0.0751  0.2245 -0.5440
  813MOL0     C 7212   2.515   1.519   2.732 -0.4113  0.4862  0.1119
  813MOL0     C 7213   2.457   1.405   2.812 -0.8115 -0.5289  1.3315
  813MOL0     O 7214   2.501   1.284   2.789  0.0279 -0.1177 -0.5474
  813MOL0     C 7215   2.421   1.184   2.841 -0.8507  0.0436 -0.4963
  813MOL0     C 7216   2.490   1.099   2.927 -0.0366  0.1839  0.3929
  813MOL0     C 7217   2.416   0.992   2.987 -0.3618 -0.1789  0.0275
  813MOL0     C 7218   2.275   0.967   2.958 -0.3758 -1.6834  0.0177
  813MOL0     O 7219   2.197   0.865   2.995  0.8864  0.2285  0.0309
  813MOL0     C 7220   2.238   0.786   3.106  0.3390 -0.4936  0.2671
  813MOL0     C 7221   2.112   0.728   3.170  0.4869  0.3205 -0.0166
  813MOL0     C 7222   2.155   0.654   3.304  0.0648 -0.1325 -0.0869
  813MOL0     C 7223   2.033   0.618   3.390  0.2603  0.1100  0.2090
  813MOL0     C 7224   2.039   0.483   3.454 -0.9360 -0.0193 -0.4204
  813MOL0     C 7225   2.146   0.470   3.565 -0.2044 -0.1273  0.0085
  813MOL0     C 7226   2.128   0.338   3.642  0.9117  0.6287 -0.6214
  813MOL0     C 7227   2.233   0.320   3.757 -0.0050  0.4741 -0.4585
  813MOL0    Cl 7228   2.395   0.322   3.667 -0.1823 -0.1566  0.2956
  813MOL0     C 7229   2.219   1.053   2.875 -0.4198 -0.2153  1.1073
  813MOL0     C 7230   2.289   1.164   2.810 -0.2722  0.2697 -1.2807
  813MOL0     O 7231   2.388   1.441   2.903  0.1688 -0.3767 -0.4738
  813MOL0     C 7232   2.612   1.481   2.637 -0.3763 -0.9636  0.9639
  813MOL0     C 7233   2.675   1.578   2.564  0.7715 -1.3606  0.3336
  813MOL0     N 7234   2.533   2.222   2.120 -0.4219 -0.5797  0.2473
  813MOL0     N 7235   2.456   2.331   2.118 -0.5979  0.6101 -0.0977
  813MOL0     C 7236   2.017   2.995   1.757  0.3579  0.2917  0.1893
  813MOL0     C 7237   1.983   3.124   1.796  0.8546 -0.5742  0.8630
  813MOL0     C 7238   1.989   3.498   2.109  1.1414 -0.1472 -0.1349
  813MOL0     C 7239   1.992   3.542   2.242  0.3096  0.3673  0.2838
  813MOL0     C 7240   1.921   3.658   2.271  0.1142 -0.6772  0.5273
  813MOL0     C 7241   1.874   3.739   2.161 -0.3132 -0.4519  0.5943
  813MOL0     O 7242   1.823   3.869   2.189  0.0018 -0.6518  0.0540
  813MOL0     C 7243   1.804   3.901   2.326 -0.4763 -0.8332 -0.5531
  813MOL0     C 7244   1.670   3.846   2.361 -0.2720 -0.5804 -0.1572
  813MOL0     C 7245   1.554   3.886   2.269 -0.3799 -0.8743  0.7739
  813MOL0     C 7246   1.419   3.873   2.343  0.4896 -0.3064  0.1703
  813MOL0     C 7247   1.399   3.972   2.451 -1.0424 -0.0008  0.6161
  813MOL0     C 7248   1.381   4.065   2.524  0.6050  0.1105  0.0223
  813MOL0     C 7249   1.889   3.706   2.027 -0.4014 -0.1158  0.2749
  813MOL0     C 7250   1.936   3.575   2.006  0.2939  0.4480  0.2738
  813MOL0     H 7251   2.043   3.082   2.126  1.1656 -1.0618 -0.0448
  813MOL0     H 7252   2.118   2.866   2.049  1.0439 -1.8338 -1.4866
  813MOL0     H 7253   2.262   2.640   1.869  1.7635 -0.7399 -2.3912
  813MOL0     H 7254   2.303   2.813   1.889  0.6359  0.7085 -1.2235
  813MOL0     H 7255   2.369   2.835   1.676 -0.6020  0.7193  3.0529
  813MOL0     H 7256   2.258   2.697   1.618  0.5911 -1.6497 -0.7252
  813MOL0     H 7257   2.457   2.571   1.614  0.8993  0.3254 -0.2765
  813MOL0     H 7258   2.407   2.528   1.762  0.2327 -1.8819 -1.8996
  813MOL0     H 7259   2.668   2.609   1.748  0.6464  1.4513  0.9176
  813MOL0     H 7260   2.613   2.747   1.686  0.2754 -1.3387 -2.0852
  813MOL0     H 7261   2.527   2.808   1.919  1.3854  1.3915 -2.3435
  813MOL0     H 7262   2.693   2.745   1.934  0.0732  2.3734 -3.4460
  813MOL0     H 7263   2.609   2.510   1.968  0.0297 -0.6441 -1.1240
  813MOL0     H 7264   2.446   2.586   1.988  1.1550 -1.1396 -1.0347
  813MOL0     H 7265   2.679   2.620   2.184 -0.3647 -0.5808  0.5851
  813MOL0     H 7266   2.556   2.743   2.158  0.8417  0.7487 -2.4625
  813MOL0     H 7267   2.382   2.580   2.226  0.0187  2.0572  0.3891
  813MOL0     H 7268   2.517   2.562   2.345  1.5510  2.6450 -0.6677
  813MOL0     H 7269   2.665   2.362   2.373 -1.1413  0.9383  1.3376
  813MOL0     H 7270   2.795   2.120   2.200  0.0643  0.9818 -0.9149
  813MOL0     H 7271   2.653   2.017   2.240  0.9614  0.7919 -3.4682
  813MOL0     H 7272   2.659   2.105   2.481  2.9064 -1.4346  4.4612
  813MOL0     H 7273   2.810   2.195   2.428  2.0361 -1.2420  0.2268
  813MOL0     H 7274   2.864   1.943   2.372 -2.3768  2.8205 -1.7181
  813MOL0     H 7275   2.931   2.034   2.510  2.4861 -1.7370 -2.8819
  813MOL0     H 7276   2.715   1.945   2.635  0.2879 -0.5486  1.4441
  813MOL0     H 7277   2.856   1.844   2.612 -0.8223 -1.4471  0.3361
  813MOL0     H 7278   2.502   1.856   2.670 -0.7986 -0.0468 -1.6260
  813MOL0     H 7279   2.383   1.676   2.794 -0.9378 -3.7077 -0.0255
  813MOL0     H 7280   2.594   1.120   2.951 -0.3663  1.4890  0.7078
  813MOL0     H 7281   2.457   0.921   3.058 -0.2512  0.5121  0.6714
  813MOL0     H 7282   2.275   0.855   3.182  0.1063 -2.1597  1.9740
  813MOL0     H 7283   2.307   0.704   3.088  0.9268 -0.5287  2.4244
  813MOL0     H 7284   2.055   0.658   3.108 -1.1048 -0.6512  2.3917
  813MOL0     H 7285   2.042   0.802   3.209  1.1302  0.3897  1.0533
  813MOL0     H 7286   2.217   0.724   3.360 -2.9534  2.5269  0.1965
  813MOL0     H 7287   2.222   0.571   3.282  0.2295  0.0628 -0.3254
  813MOL0     H 7288   2.013   0.700   3.460  0.0997  1.7047 -1.6356
  813MOL0     H 7289   1.945   0.611   3.325 -1.6213 -3.0953  2.7651
  813MOL0     H 7290   2.057   0.406   3.378  0.0858 -0.2540  0.0438
  813MOL0     H 7291   1.947   0.446   3.501  0.3630 -2.0330  0.6791
  813MOL0     H 7292   2.139   0.555   3.633  2.6493  1.2047 -1.1942
  813MOL0     H 7293   2.242   0.456   3.515 -0.6051 -5.5753  0.1289
  813MOL0     H 7294   2.030   0.344   3.692  1.3569 -2.6647  0.9278
  813MOL0     H 7295   2.124   0.258   3.568 -0.8177  1.3025 -1.2996
  813MOL0     H 7296   2.231   0.227   3.815  0.7668  0.7951  0.0841
  813MOL0     H 7297   2.217   0.400   3.829  0.4155 -1.6384  2.1475
  813MOL0     H 7298   2.115   1.051   2.845  0.1739  1.3332 -1.4364
  813MOL0     H 7299   2.231   1.220   2.738 -1.2142 -2.5361 -2.8413
  813MOL0     H 7300   2.639   1.376   2.628  0.4872 -0.5993 -1.1513
  813MOL0     H 7301   2.757   1.561   2.495 -0.4237 -1.0530 -1.1865
  813MOL0     H 7302   2.008   2.976   1.650  2.3303  0.1900 -0.0030
  813MOL0     H 7303   1.925   3.188   1.730 -2.8661 -1.0408  3.3754
  813MOL0     H 7304   2.025   3.478   2.323 -1.3399 -0.2785  0.4661
  813MOL0     H 7305   1.932   3.685   2.375  2.5539  4.1985 -0.6489
  813MOL0     H 7306   1.820   4.007   2.346  0.5251 -0.9526 -0.6921
  813MOL0     H 7307   1.883   3.865   2.392 -0.3309  1.4406  0.6090
  813MOL0     H 7308   1.676   3.737   2.369 -1.4642 -0.5302  2.0638
  813MOL0     H 7309   1.663   3.863   2.468 -1.2042 -0.6216 -0.2023
  813MOL0     H 7310   1.555   3.818   2.183 -0.6638 -1.2980  1.0956
  813MOL0     H 7311   1.571   3.990   2.240  2.0183 -2.1482 -3.0864
  813MOL0     H 7312   1.345   3.888   2.264  0.4470  2.4657  0.6305
  813MOL0     H 7313   1.413   3.774   2.390  1.6859 -0.5972 -0.2488
  813MOL0     H 7314   1.375   4.153   2.584  2.7375  0.2873  0.0769
  813MOL0     H 7315   1.851   3.765   1.944  1.8464 -1.1339 -1.5736
  813MOL0     H 7316   1.943   3.542   1.902  0.1081  0.4118  0.2728
  814MOL0     O 7317   6.758   1.387   8.706 -0.5328  0.3210  0.3999
  814MOL0     C 7318   6.830   1.287   8.697  0.2852 -0.7264  0.3008
  814MOL0     O 7319   6.965   1.291   8.707 -0.0009  0.2519  0.8411
  814MOL0     C 7320   7.046   1.406   8.731 -0.3145 -0.7377  0.5150
  814MOL0     C 7321   7.066   1.507   8.632 -0.8091  0.6848  0.2550
  814MOL0     C 7322   7.183   1.594   8.639  0.7648  0.5912 -0.9892
  814MOL0     C 7323   7.264   1.583   8.745  0.6409 -0.1606  0.1377
  814MOL0     O 7324   7.374   1.667   8.740  0.4259  0.2178 -0.2004
  814MOL0     C 7325   7.494   1.641   8.815  0.6987  0.0135  0.0536
  814MOL0     C 7326   7.611   1.743   8.813 -0.4988 -0.4700 -0.5377
  814MOL0     C 7327   7.567   1.889   8.812  0.0851 -0.0086  0.5290
  814MOL0     C 7328   7.675   1.990   8.762  0.3346 -0.1104  0.6661
  814MOL0     C 7329   7.654   2.133   8.792  0.2193 -0.2819  0.7378
  814MOL0     C 7330   7.604   2.216   8.671  0.7130  0.1533  0.2533
  814MOL0     C 7331   7.718   2.238   8.556  0.4872  0.6272 -0.1003
  814MOL0     C 7332   7.805   2.354   8.586 -0.0538 -0.2198 -0.1705
  814MOL0     N 7333   7.743   2.493   8.613 -0.5057  0.3055  0.5394
  814MOL0     C 7334   7.788   2.578   8.704 -0.6681  0.7065  0.2254
  814MOL0     C 7335   7.708   2.681   8.705  0.2271 -1.0732 -0.1778
  814MOL0     C 7336   7.704   2.793   8.810 -0.1368  0.2294 -1.3145
  814MOL0     C 7337   7.839   2.845   8.866 -0.6349  0.6573 -0.2168
  814MOL0     C 7338   7.815   2.981   8.935  0.8168  0.1398  0.2047
  814MOL0     C 7339   7.813   3.097   8.844  0.1780  0.4375  0.3204
  814MOL0     O 7340   7.925   3.101   8.752 -0.5661 -0.7890  0.2837
  814MOL0     C 7341   7.931   3.197   8.657  0.1930  0.1652  0.2648
  814MOL0     C 7342   7.841   3.303   8.637 -0.6344 -0.5696  0.1202
  814MOL0     C 7343   7.863   3.390   8.526  0.8654  0.0024  0.0031
  814MOL0     C 7344   7.976   3.379   8.437 -0.0823  0.1196 -0.9454
  814MOL0     C 7345   7.985   3.461   8.324  0.0409  0.1146 -0.4932
  814MOL0     O 7346   8.096   3.452   8.243  0.0291 -0.0928  0.2960
  814MOL0     C 7347   8.083   3.508   8.118 -0.4883  0.2713  0.6066
  814MOL0     C 7348   8.102   3.424   8.008  0.8737  0.9658 -0.8526
  814MOL0     C 7349   8.073   3.453   7.881 -0.6469  0.1966  0.1720
  814MOL0     C 7350   8.041   3.589   7.848  0.4607  0.3430  0.6417
  814MOL0     O 7351   8.008   3.621   7.717  0.3014 -0.7305 -0.4972
  814MOL0     C 7352   7.909   3.559   7.642  0.4856  0.0278 -0.0757
  814MOL0     C 7353   7.789   3.656   7.639 -0.4525 -0.6035 -0.2653
  814MOL0     C 7354   7.687   3.616   7.538  0.3759 -0.5271  0.0641
  814MOL0     C 7355   7.621   3.477   7.553 -0.1157 -0.2282  0.1997
  814MOL0     C 7356   7.507   3.456   7.455  0.3241  0.7573 -0.1674
  814MOL0     C 7357   7.455   3.310   7.447  0.3919  0.5945  0.4471
  814MOL0     C 7358   7.328   3.301   7.358  0.4365 -0.2994  0.2833
  814MOL0     C 7359   7.231   3.181   7.374 -0.0949 -0.2843 -0.1715
  814MOL0    Cl 7360   7.130   3.216   7.525  1.1276 -0.1196 -0.1764
  814MOL0     C 7361   8.045   3.684   7.950 -0.6147 -0.3429 -0.9221
  814MOL0     C 7362   8.066   3.642   8.084 -0.0071  0.4136 -0.7797
  814MOL0     O 7363   7.900   3.538   8.309 -0.4659 -0.7789  1.0771
  814MOL0     C 7364   8.057   3.271   8.455  0.0546 -0.1483 -1.2649
  814MOL0     C 7365   8.035   3.186   8.570  0.6845  0.4792  0.4450
  814MOL0     N 7366   7.644   2.674   8.580  0.6282 -0.1538 -0.2247
  814MOL0     N 7367   7.663   2.560   8.519  0.1311  0.2315  0.3064
  814MOL0     C 7368   7.251   1.478   8.840 -0.7068  0.1173  1.0290
  814MOL0     C 7369   7.145   1.388   8.827 -0.9663  0.5420  0.6024
  814MOL0     C 7370   6.779   1.151   8.663  0.3897 -0.7135  0.5980
  814MOL0     C 7371   6.849   1.069   8.562 -0.0785 -0.2087 -1.2544
  814MOL0     C 7372   6.793   0.938   8.537 -0.1819 -0.1754  0.9784
  814MOL0     C 7373   6.672   0.893   8.595 -0.8434 -0.3159 -0.3565
  814MOL0     O 7374   6.611   0.770   8.572 -0.5039 -0.2850  0.3460
  814MOL0     C 7375   6.664   0.682   8.467 -0.9542 -1.2819  0.0954
  814MOL0     C 7376   6.566   0.558   8.446 -0.0309 -0.0350 -0.4244
  814MOL0     C 7377   6.530   0.482   8.581  0.1678 -1.4967  0.4942
  814MOL0     C 7378   6.449   0.356   8.551 -0.7113  0.8924 -0.6656
  814MOL0     C 7379   6.452   0.253   8.658  0.5727 -0.1734  0.9226
  814MOL0     C 7380   6.456   0.202   8.763 -0.4901  1.0710  0.0126
  814MOL0     C 7381   6.611   0.971   8.688 -0.6710 -0.8977 -1.2564
  814MOL0     C 7382   6.660   1.100   8.724 -0.4644  0.0405 -0.5636
  814MOL0     H 7383   6.999   1.512   8.547 -1.8201 -0.4499  0.9528
  814MOL0     H 7384   7.202   1.676   8.570 -0.2357 -0.0883 -2.1096
  814MOL0     H 7385   7.534   1.551   8.766 -1.6584 -0.3889 -1.3001
  814MOL0     H 7386   7.472   1.617   8.920  0.5048 -0.8708 -0.1747
  814MOL0     H 7387   7.665   1.721   8.721 -0.7612 -0.4954 -0.6878
  814MOL0     H 7388   7.677   1.726   8.899 -0.5139  0.7790 -0.2573
  814MOL0     H 7389   7.524   1.925   8.906  2.1522  0.1731  1.4619
  814MOL0     H 7390   7.488   1.904   8.738 -1.4142 -0.8032  1.8952
  814MOL0     H 7391   7.770   1.968   8.812 -0.9439 -1.9365  2.4166
  814MOL0     H 7392   7.689   1.975   8.654  1.0210  0.6047  0.6444
  814MOL0     H 7393   7.744   2.180   8.833  1.4232 -1.5122 -0.4197
  814MOL0     H 7394   7.578   2.143   8.870  1.6128  3.8551  1.8147
  814MOL0     H 7395   7.567   2.316   8.696 -1.8316 -0.6216 -0.0690
  814MOL0     H 7396   7.517   2.164   8.629  1.1949  0.0201 -0.5835
  814MOL0     H 7397   7.778   2.148   8.545  1.1758  0.8962  1.2297
  814MOL0     H 7398   7.666   2.260   8.462 -1.1829  3.3095  1.3173
  814MOL0     H 7399   7.884   2.358   8.510  0.0257  1.2654 -0.0502
  814MOL0     H 7400   7.868   2.325   8.670  2.8131 -0.1995 -2.1744
  814MOL0     H 7401   7.857   2.551   8.784  1.2028 -2.0066 -2.0790
  814MOL0     H 7402   7.649   2.742   8.890 -0.5789  3.1576  0.3810
  814MOL0     H 7403   7.641   2.877   8.780 -2.5667 -0.2904  1.7198
  814MOL0     H 7404   7.906   2.861   8.782 -0.3188  1.0124  0.0992
  814MOL0     H 7405   7.874   2.765   8.931 -1.7159  2.4282  2.8011
  814MOL0     H 7406   7.716   2.977   8.980 -0.9555  1.8197 -3.1103
  814MOL0     H 7407   7.893   2.995   9.010 -0.3532  1.0191  1.2805
  814MOL0     H 7408   7.814   3.193   8.897 -0.7535 -0.1910  1.5300
  814MOL0     H 7409   7.718   3.113   8.792  0.9594  2.1900 -0.6563
  814MOL0     H 7410   7.753   3.325   8.696 -1.0012  1.1264 -0.9760
  814MOL0     H 7411   7.794   3.473   8.512  0.6397  0.4753  3.2841
  814MOL0     H 7412   8.119   3.323   8.046 -0.3232  1.2899  0.6481
  814MOL0     H 7413   8.075   3.371   7.811  0.9246 -1.0157  1.5561
  814MOL0     H 7414   7.889   3.455   7.670 -1.5945  0.3916 -0.0430
  814MOL0     H 7415   7.946   3.568   7.540 -2.9474  2.6192 -1.2991
  814MOL0     H 7416   7.818   3.759   7.620 -1.8860 -0.0460  0.4344
  814MOL0     H 7417   7.738   3.644   7.735 -1.2592  0.8399 -0.4899
  814MOL0     H 7418   7.741   3.620   7.443  0.2786  1.6765  0.0458
  814MOL0     H 7419   7.614   3.697   7.528  1.3352  0.5267  1.2364
  814MOL0     H 7420   7.697   3.401   7.534 -0.3380 -0.9472  1.9493
  814MOL0     H 7421   7.582   3.461   7.654  0.3311  0.4649  0.4888
  814MOL0     H 7422   7.540   3.475   7.353  4.1048  0.3846  0.8469
  814MOL0     H 7423   7.437   3.537   7.479  1.1517  1.0950  1.2534
  814MOL0     H 7424   7.433   3.283   7.551  0.0511 -2.1087 -0.2500
  814MOL0     H 7425   7.532   3.240   7.413 -0.1678 -0.2719  0.9262
  814MOL0     H 7426   7.263   3.385   7.381  0.0702 -0.5728  0.2622
  814MOL0     H 7427   7.359   3.303   7.253 -1.3546 -1.1676 -0.3047
  814MOL0     H 7428   7.281   3.089   7.407 -0.0527 -0.0998  0.2821
  814MOL0     H 7429   7.179   3.160   7.280  2.1147 -3.0136 -0.9139
  814MOL0     H 7430   8.021   3.789   7.939 -0.1751 -0.2297 -0.8117
  814MOL0     H 7431   8.056   3.718   8.161 -2.1001 -0.5924  0.0340
  814MOL0     H 7432   8.150   3.257   8.401  0.3281  1.4729 -1.2732
  814MOL0     H 7433   8.105   3.105   8.588 -2.7359 -2.4405  1.8343
  814MOL0     H 7434   7.321   1.458   8.921 -2.2833 -1.2518  2.1283
  814MOL0     H 7435   7.140   1.305   8.897 -3.0651  1.0704  1.1503
  814MOL0     H 7436   6.944   1.106   8.527 -0.0254  0.6290 -0.2560
  814MOL0     H 7437   6.846   0.867   8.474  0.1962  1.4960 -0.6795
  814MOL0     H 7438   6.765   0.649   8.493 -0.5824  0.4141  1.0041
  814MOL0     H 7439   6.644   0.740   8.377 -3.5273  0.7078  1.7766
  814MOL0     H 7440   6.473   0.598   8.403  0.1684  2.6817  1.3996
  814MOL0     H 7441   6.614   0.489   8.376  1.5367  1.7491 -1.2065
  814MOL0     H 7442   6.472   0.560   8.632  3.0886  0.6914  0.7703
  814MOL0     H 7443   6.618   0.455   8.639  0.5288 -2.5012 -0.4844
  814MOL0     H 7444   6.349   0.368   8.508 -1.7027 -4.9601 -0.7850
  814MOL0     H 7445   6.501   0.313   8.465 -0.0569  1.2529 -0.4503
  814MOL0     H 7446   6.467   0.151   8.857 -0.5544  4.0646  1.7981
  814MOL0     H 7447   6.519   0.942   8.737 -0.0806 -1.4254 -0.4502
  814MOL0     H 7448   6.606   1.152   8.802 -1.1226 -2.9368  1.1162
  815MOL0     O 7449   7.521   3.672   4.171 -0.1830 -1.0047  0.1150
  815MOL0     C 7450   7.604   3.589   4.114  0.9336  0.2032 -0.0939
  815MOL0     O 7451   7.692   3.510   4.191 -0.1685 -0.2685 -0.0740
  815MOL0     C 7452   7.654   3.486   4.319 -0.3688  1.3337 -0.0951
  815MOL0     C 7453   7.526   3.424   4.340  0.9930 -0.0151 -0.4020
  815MOL0     C 7454   7.493   3.396   4.478 -0.7494  0.8276  0.4770
  815MOL0     C 7455   7.588   3.417   4.582  0.4719 -0.2596 -0.1189
  815MOL0     O 7456   7.561   3.382   4.711  0.9105 -1.0068  0.5902
  815MOL0     C 7457   7.578   3.495   4.800  0.2202 -0.5441  0.4039
  815MOL0     C 7458   7.629   3.453   4.933 -1.5728 -0.2833 -0.8680
  815MOL0     C 7459   7.774   3.405   4.925  0.6345 -0.1743  0.4531
  815MOL0     C 7460   7.824   3.355   5.056 -1.0597  0.9007 -1.2955
  815MOL0     C 7461   7.968   3.408   5.097  0.0206 -0.2779  0.6127
  815MOL0     C 7462   8.008   3.359   5.241  0.1301  0.2441  0.4219
  815MOL0     C 7463   8.143   3.417   5.284 -0.2092 -1.4949  0.6752
  815MOL0     C 7464   8.182   3.355   5.418  0.7061  0.6067 -0.0804
  815MOL0     N 7465   8.328   3.368   5.448  0.6386  0.8346 -0.1192
  815MOL0     C 7466   8.387   3.459   5.525 -0.7929 -0.3002 -1.3011
  815MOL0     C 7467   8.520   3.438   5.513  0.6337  0.1471 -0.1262
  815MOL0     C 7468   8.617   3.506   5.606  0.0502  0.4948 -0.4260
  815MOL0     C 7469   8.693   3.612   5.522  0.9717  0.2735  0.7738
  815MOL0     C 7470   8.751   3.725   5.599 -0.4855  0.7246  0.6996
  815MOL0     C 7471   8.826   3.816   5.503 -0.1116  0.1744  0.0801
  815MOL0     O 7472   8.890   3.914   5.585  0.6632  0.0029  0.4353
  815MOL0     C 7473   8.911   4.023   5.509  0.0135  0.1666  0.4951
  815MOL0     C 7474   8.990   4.016   5.403  0.0893  0.3725  0.3835
  815MOL0     C 7475   9.015   4.124   5.315  0.2024 -0.1885 -0.8862
  815MOL0     C 7476   8.961   4.251   5.336  0.3596 -0.3528 -1.1774
  815MOL0     C 7477   8.994   4.366   5.257  0.7121 -0.3918 -0.1563
  815MOL0     O 7478   8.930   4.479   5.280  0.7785  0.1886  0.0881
  815MOL0     C 7479   8.971   4.594   5.210 -0.8524 -0.0870 -1.4865
  815MOL0     C 7480   9.102   4.645   5.214 -0.1942  1.0483  0.0271
  815MOL0     C 7481   9.130   4.769   5.161  0.0166  0.2027 -0.6438
  815MOL0     C 7482   9.039   4.849   5.104  0.1965  0.4613 -0.0132
  815MOL0     O 7483   9.076   4.956   5.031 -0.0008  0.2182 -0.4997
  815MOL0     C 7484   9.104   5.079   5.106 -0.3545 -0.3888  0.6897
  815MOL0     C 7485   9.023   5.103   5.238 -0.9652 -0.3281  1.0113
  815MOL0     C 7486   8.880   5.135   5.211  0.3742 -0.2317 -0.2306
  815MOL0     C 7487   8.796   5.185   5.331  0.3207  0.1385  0.5577
  815MOL0     C 7488   8.817   5.331   5.351 -0.4615 -0.1914  0.9639
  815MOL0     C 7489   8.706   5.423   5.281  0.3299  0.3841  0.3412
  815MOL0     C 7490   8.728   5.574   5.316  0.1887  0.6047 -0.3332
  815MOL0     C 7491   8.829   5.656   5.236  0.2809 -0.5767  1.1925
  815MOL0    Cl 7492   8.993   5.612   5.255 -0.1738 -0.1256  0.2100
  815MOL0     C 7493   8.916   4.782   5.091  0.5392 -0.3744 -0.6247
  815MOL0     C 7494   8.883   4.669   5.147  0.3608 -0.4237  0.2878
  815MOL0     O 7495   9.083   4.359   5.173  0.2358 -0.1749  0.3441
  815MOL0     C 7496   8.883   4.261   5.458  0.4991 -0.9143  0.0355
  815MOL0     C 7497   8.857   4.149   5.542  0.2021 -1.1777  0.0519
  815MOL0     N 7498   8.541   3.340   5.414 -0.4395 -0.0055 -0.2117
  815MOL0     N 7499   8.421   3.309   5.370  0.3904 -1.1146  0.2155
  815MOL0     C 7500   7.715   3.474   4.551 -0.3456  0.0693  0.2441
  815MOL0     C 7501   7.746   3.513   4.424 -0.9093 -1.0108  0.9939
  815MOL0     C 7502   7.620   3.602   3.975  0.1195 -1.0670 -0.2484
  815MOL0     C 7503   7.559   3.703   3.895 -0.3827  0.3085  1.2066
  815MOL0     C 7504   7.592   3.711   3.762 -0.1178  0.5412  0.5482
  815MOL0     C 7505   7.669   3.620   3.693 -0.2290  0.4252  0.1208
  815MOL0     O 7506   7.708   3.623   3.564 -0.4005  0.1168 -0.3511
  815MOL0     C 7507   7.683   3.746   3.497 -0.1721 -0.7652  0.2055
  815MOL0     C 7508   7.757   3.763   3.362 -0.9575 -0.1403  0.4391
  815MOL0     C 7509   7.660   3.708   3.251  0.3251  0.8429 -0.3869
  815MOL0     C 7510   7.653   3.560   3.217 -0.8424 -0.2114  0.6982
  815MOL0     C 7511   7.550   3.513   3.131  0.0245  0.7617 -0.6069
  815MOL0     C 7512   7.464   3.465   3.063 -0.2263  0.6820 -0.8801
  815MOL0     C 7513   7.739   3.527   3.765  0.7355 -0.5035 -0.7102
  815MOL0     C 7514   7.713   3.513   3.906  1.2752 -0.9777 -0.7351
  815MOL0     H 7515   7.456   3.418   4.257 -0.8307 -0.5324  1.1101
  815MOL0     H 7516   7.397   3.355   4.506 -0.1150 -0.9744  0.1160
  815MOL0     H 7517   7.478   3.539   4.799 -0.3843 -1.8803  0.4277
  815MOL0     H 7518   7.638   3.578   4.762 -4.2295  2.0845 -1.7748
  815MOL0     H 7519   7.557   3.378   4.968 -2.9398  0.8382 -1.1718
  815MOL0     H 7520   7.618   3.538   5.002 -1.8091  0.1881 -1.4810
  815MOL0     H 7521   7.830   3.493   4.895 -1.5039  2.2357  2.9573
  815MOL0     H 7522   7.779   3.332   4.844 -0.8048 -0.4374  0.5759
  815MOL0     H 7523   7.756   3.364   5.141  1.8740 -2.2529  1.7072
  815MOL0     H 7524   7.823   3.247   5.041 -1.5560  0.7886 -0.5043
  815MOL0     H 7525   7.972   3.517   5.088 -2.4492 -0.2737 -1.7129
  815MOL0     H 7526   8.028   3.359   5.020 -2.0000  1.0505 -1.9534
  815MOL0     H 7527   8.001   3.250   5.250  1.6080  0.1054  0.1861
  815MOL0     H 7528   7.924   3.404   5.294  0.9182  0.1056  1.8164
  815MOL0     H 7529   8.214   3.389   5.205 -0.0984 -2.0042  0.9516
  815MOL0     H 7530   8.146   3.526   5.273  1.1600 -1.4477  1.1900
  815MOL0     H 7531   8.149   3.251   5.410  1.6809  0.4569 -3.1817
  815MOL0     H 7532   8.117   3.387   5.501 -0.3874 -0.7042 -0.3955
  815MOL0     H 7533   8.344   3.527   5.598 -1.3579 -0.8657 -1.0991
  815MOL0     H 7534   8.689   3.437   5.651 -0.8248 -0.7070 -0.8404
  815MOL0     H 7535   8.564   3.555   5.689 -1.0310 -1.4660  0.1129
  815MOL0     H 7536   8.621   3.661   5.456 -1.7143  0.1979  3.4386
  815MOL0     H 7537   8.756   3.552   5.455 -1.2677 -1.8435  0.4178
  815MOL0     H 7538   8.673   3.782   5.649  1.2822  3.2600  0.7568
  815MOL0     H 7539   8.815   3.668   5.667  0.9517  0.1207 -1.0566
  815MOL0     H 7540   8.748   3.869   5.447 -0.9245  1.3695  2.2310
  815MOL0     H 7541   8.905   3.768   5.446  0.4655  1.3132 -0.1162
  815MOL0     H 7542   9.042   3.923   5.379  1.1589  0.0659  3.4183
  815MOL0     H 7543   9.075   4.113   5.226  1.7589  1.8095 -0.1845
  815MOL0     H 7544   9.181   4.584   5.256 -0.4949 -0.8431 -1.9926
  815MOL0     H 7545   9.232   4.803   5.148 -0.5378  1.4125 -2.3209
  815MOL0     H 7546   9.084   5.155   5.030  0.5042 -0.9545 -0.1267
  815MOL0     H 7547   9.210   5.085   5.130 -0.4976 -1.0397  1.5485
  815MOL0     H 7548   9.068   5.196   5.273  0.1364  0.1601 -1.5054
  815MOL0     H 7549   9.022   5.020   5.309  3.1712 -1.6557 -0.2069
  815MOL0     H 7550   8.839   5.039   5.177  0.2616 -0.2807  0.0474
  815MOL0     H 7551   8.868   5.195   5.120 -0.2374 -0.8089 -0.5408
  815MOL0     H 7552   8.689   5.164   5.322  1.0007 -3.0142 -2.0384
  815MOL0     H 7553   8.827   5.122   5.415 -0.9732 -0.7868  0.3784
  815MOL0     H 7554   8.910   5.359   5.300 -1.3611 -2.3431 -2.1771
  815MOL0     H 7555   8.811   5.335   5.460 -1.2416 -1.8044  1.0127
  815MOL0     H 7556   8.604   5.388   5.300  0.7957 -2.5786 -1.7640
  815MOL0     H 7557   8.715   5.415   5.172  2.8385  3.2377  0.2035
  815MOL0     H 7558   8.632   5.618   5.286  0.1923  0.0142 -1.2906
  815MOL0     H 7559   8.759   5.593   5.418 -0.1920  2.0262 -0.4676
  815MOL0     H 7560   8.814   5.763   5.256  0.0240  0.0283 -1.8353
  815MOL0     H 7561   8.807   5.645   5.130  1.9698  1.3475  0.5801
  815MOL0     H 7562   8.845   4.831   5.026  1.3068  1.1357 -0.3818
  815MOL0     H 7563   8.780   4.647   5.120 -0.5219  2.2834  1.1471
  815MOL0     H 7564   8.845   4.356   5.494  0.0419 -1.0415 -0.0961
  815MOL0     H 7565   8.793   4.161   5.628 -0.4036 -3.6524  0.0058
  815MOL0     H 7566   7.792   3.477   4.626 -1.5322  0.5268  1.4922
  815MOL0     H 7567   7.837   3.570   4.410 -2.3682  1.1565 -0.3245
  815MOL0     H 7568   7.488   3.776   3.933 -0.4654 -1.0953  3.9821
  815MOL0     H 7569   7.532   3.772   3.696  0.6418 -0.9882 -1.6825
  815MOL0     H 7570   7.711   3.824   3.568 -0.8975  0.3134 -0.6392
  815MOL0     H 7571   7.576   3.769   3.491 -0.0430 -0.5299 -2.8871
  815MOL0     H 7572   7.765   3.871   3.349 -0.0883 -0.1823  0.6306
  815MOL0     H 7573   7.856   3.719   3.362 -0.8563  0.0829 -0.1174
  815MOL0     H 7574   7.705   3.739   3.156 -0.6730 -1.2186 -1.5953
  815MOL0     H 7575   7.564   3.758   3.265 -1.9351 -3.4232  1.0724
  815MOL0     H 7576   7.749   3.548   3.165 -0.8216  3.0666 -0.2873
  815MOL0     H 7577   7.648   3.507   3.313 -3.9965 -0.8915  0.2671
  815MOL0     H 7578   7.397   3.405   3.004  0.3094  0.8287 -1.6423
  815MOL0     H 7579   7.804   3.464   3.706  0.6194  0.4996 -1.9432
  815MOL0     H 7580   7.773   3.444   3.965 -0.5185 -3.2104 -1.3981
  816MOL0     O 7581   4.599   4.700   7.531 -0.0635  0.0839  0.2065
  816MOL0     C 7582   4.680   4.760   7.597  0.6012 -1.1752  0.0314
  816MOL0     O 7583   4.810   4.730   7.625  0.7290  0.0021 -0.2448
  816MOL0     C 7584   4.844   4.600   7.657 -0.5328 -1.6476  0.5242
  816MOL0     C 7585   4.981   4.573   7.650  0.1042  0.3071 -0.0574
  816MOL0     C 7586   5.038   4.454   7.695  0.9715  0.2488  0.1609
  816MOL0     C 7587   4.948   4.350   7.714 -0.3273  0.9524 -0.6694
  816MOL0     O 7588   5.015   4.234   7.731  0.8431 -0.5820  0.6745
  816MOL0     C 7589   4.981   4.122   7.663  1.6283  0.4142 -0.0618
  816MOL0     C 7590   5.061   4.005   7.721  0.7359  0.3684  0.1111
  816MOL0     C 7591   5.001   3.867   7.683 -1.0975  0.1853 -0.8900
  816MOL0     C 7592   4.900   3.814   7.788  0.1172 -0.4587  0.9553
  816MOL0     C 7593   4.825   3.692   7.727 -0.1867 -0.0908  0.1143
  816MOL0     C 7594   4.726   3.629   7.827 -0.4542  0.3129  0.5338
  816MOL0     C 7595   4.649   3.522   7.753 -0.2379 -0.9983 -0.6180
  816MOL0     C 7596   4.599   3.406   7.843  0.6405  0.3197  0.4201
  816MOL0     N 7597   4.498   3.317   7.784 -0.3462 -0.0947  0.1018
  816MOL0     C 7598   4.516   3.194   7.736 -0.0418  0.1884  0.2083
  816MOL0     C 7599   4.399   3.142   7.704 -0.2821  0.2204 -0.0797
  816MOL0     C 7600   4.365   3.003   7.661  0.1336  0.6009 -0.0507
  816MOL0     C 7601   4.444   2.973   7.532 -1.1037  0.3627 -0.4306
  816MOL0     C 7602   4.439   2.822   7.500  0.8657  0.4871 -0.8129
  816MOL0     C 7603   4.476   2.797   7.349 -0.5420  0.0751 -0.3428
  816MOL0     O 7604   4.476   2.659   7.322 -0.3352 -0.4576  0.6768
  816MOL0     C 7605   4.525   2.627   7.199  0.3766  0.1262 -0.3943
  816MOL0     C 7606   4.575   2.715   7.096 -1.3350 -0.1143 -0.2575
  816MOL0     C 7607   4.643   2.672   6.985  0.9015  0.1351  0.0743
  816MOL0     C 7608   4.637   2.534   6.960  0.6957  0.2336 -0.0296
  816MOL0     C 7609   4.682   2.479   6.824 -0.0781 -0.0330  0.0894
  816MOL0     O 7610   4.671   2.349   6.804  0.0197  0.1884 -0.8978
  816MOL0     C 7611   4.734   2.294   6.704 -0.7979  0.4730 -0.0290
  816MOL0     C 7612   4.873   2.305   6.704  0.3180 -0.5333  0.7503
  816MOL0     C 7613   4.953   2.239   6.601  1.0303  0.5323  0.0559
  816MOL0     C 7614   4.886   2.152   6.508  0.8052  0.4631 -0.1697
  816MOL0     O 7615   4.966   2.102   6.404 -0.2478 -0.4450 -0.2729
  816MOL0     C 7616   4.990   2.193   6.293  0.1041  0.4561 -0.3324
  816MOL0     C 7617   4.915   2.130   6.175 -0.6515  0.5372 -0.0124
  816MOL0     C 7618   4.954   2.211   6.049 -0.4630 -0.6335 -1.2531
  816MOL0     C 7619   4.909   2.157   5.907  0.5078 -0.0099  0.0182
  816MOL0     C 7620   4.769   2.114   5.904 -0.3820  0.4812 -0.4655
  816MOL0     C 7621   4.722   2.072   5.768  0.6517  0.5860  0.5810
  816MOL0     C 7622   4.566   2.056   5.784 -0.4092 -0.3506 -0.1411
  816MOL0     C 7623   4.480   2.183   5.752  0.0922  0.0763 -0.8067
  816MOL0    Cl 7624   4.458   2.283   5.897 -0.0949  0.0474  0.1185
  816MOL0     C 7625   4.747   2.147   6.505 -0.2560  1.2665 -0.4053
  816MOL0     C 7626   4.677   2.210   6.609 -0.8455 -0.1933 -1.0836
  816MOL0     O 7627   4.731   2.558   6.744  0.3643 -0.2453  0.4120
  816MOL0     C 7628   4.600   2.446   7.057 -0.5756 -0.2999 -0.7165
  816MOL0     C 7629   4.547   2.488   7.186  0.2798  0.0725  0.1270
  816MOL0     N 7630   4.306   3.232   7.742 -0.5312  0.1971  0.1488
  816MOL0     N 7631   4.362   3.333   7.803 -0.5159 -0.5684 -0.2561
  816MOL0     C 7632   4.805   4.371   7.723 -0.3765 -0.9064  0.5397
  816MOL0     C 7633   4.754   4.501   7.699 -0.3949  0.7492 -0.6763
  816MOL0     C 7634   4.629   4.886   7.665 -0.1774  0.2939 -1.8281
  816MOL0     C 7635   4.707   4.949   7.765 -0.7472  0.6917 -0.2421
  816MOL0     C 7636   4.661   5.059   7.830 -0.3156 -0.7293 -0.4863
  816MOL0     C 7637   4.534   5.113   7.797  0.3655 -0.3512 -0.4006
  816MOL0     O 7638   4.467   5.217   7.860 -0.2391  0.3796  0.6911
  816MOL0     C 7639   4.507   5.280   7.985  0.2598  0.5434 -0.0700
  816MOL0     C 7640   4.458   5.184   8.091 -0.0073 -0.1436 -0.2624
  816MOL0     C 7641   4.506   5.227   8.230  0.0831 -0.7900  0.7598
  816MOL0     C 7642   4.487   5.371   8.269 -0.2647 -0.0068 -0.5375
  816MOL0     C 7643   4.347   5.416   8.250 -0.3262 -0.8185  0.3045
  816MOL0     C 7644   4.226   5.442   8.270  0.4780  0.4923  1.4410
  816MOL0     C 7645   4.450   5.048   7.699 -0.4525  0.2402 -0.0551
  816MOL0     C 7646   4.506   4.935   7.641  0.2359 -0.5701  0.8196
  816MOL0     H 7647   5.046   4.649   7.608  4.5377 -1.7791  2.3670
  816MOL0     H 7648   5.146   4.441   7.694  0.8193 -1.1535 -0.4764
  816MOL0     H 7649   4.998   4.132   7.555 -0.9939  0.0832 -0.5882
  816MOL0     H 7650   4.875   4.104   7.685  1.2651  0.9657 -1.2642
  816MOL0     H 7651   5.050   4.004   7.830 -0.9120  0.3221 -0.0282
  816MOL0     H 7652   5.164   4.025   7.693  0.3225  3.8547  0.6057
  816MOL0     H 7653   5.082   3.795   7.671 -1.0695  0.0960 -0.2265
  816MOL0     H 7654   4.948   3.879   7.588 -2.1441 -2.4525 -0.7069
  816MOL0     H 7655   4.941   3.789   7.886 -0.6095 -1.6091  0.9806
  816MOL0     H 7656   4.835   3.899   7.813 -1.0687 -1.4764  1.4107
  816MOL0     H 7657   4.905   3.618   7.711  0.6215  0.8065 -0.0840
  816MOL0     H 7658   4.783   3.714   7.629  2.1605 -1.4759 -1.2995
  816MOL0     H 7659   4.658   3.701   7.873 -0.0450  0.3257  1.1331
  816MOL0     H 7660   4.783   3.581   7.908 -1.6353  1.1644  1.9147
  816MOL0     H 7661   4.558   3.572   7.719 -1.8877 -0.1732  4.1976
  816MOL0     H 7662   4.713   3.488   7.671  0.4633 -0.4248 -0.3280
  816MOL0     H 7663   4.551   3.440   7.935  1.1878  2.9306 -0.1901
  816MOL0     H 7664   4.694   3.356   7.867  0.0654 -0.5491  0.9625
  816MOL0     H 7665   4.602   3.128   7.739  0.0905  0.3628  0.2910
  816MOL0     H 7666   4.257   2.996   7.645  0.1851 -1.2959  0.1248
  816MOL0     H 7667   4.397   2.944   7.747  0.1785  1.7003  0.7048
  816MOL0     H 7668   4.549   3.002   7.541 -1.4644  2.6546 -2.5953
  816MOL0     H 7669   4.399   3.040   7.459 -1.4761  1.4587  0.7652
  816MOL0     H 7670   4.503   2.759   7.562 -0.1452  0.7581  0.5643
  816MOL0     H 7671   4.334   2.794   7.511  0.8356  1.0741  0.5175
  816MOL0     H 7672   4.577   2.837   7.337 -0.7141  0.2820 -1.0889
  816MOL0     H 7673   4.414   2.850   7.277 -4.1545  0.0692  2.4716
  816MOL0     H 7674   4.547   2.819   7.107 -0.6577  0.4320 -2.9813
  816MOL0     H 7675   4.679   2.756   6.927  0.3679  0.2458 -0.0960
  816MOL0     H 7676   4.922   2.381   6.764  4.7460 -1.6528 -1.0031
  816MOL0     H 7677   5.055   2.274   6.589  1.4573 -0.3390  1.0665
  816MOL0     H 7678   5.098   2.210   6.282  0.2888 -0.7403 -0.4855
  816MOL0     H 7679   4.946   2.291   6.312  0.3598  0.5944 -0.4443
  816MOL0     H 7680   4.807   2.120   6.184 -0.3448 -1.3591  3.3179
  816MOL0     H 7681   4.950   2.026   6.168  3.4289  1.2815  4.2489
  816MOL0     H 7682   5.062   2.230   6.052 -0.7795  1.4503 -1.7357
  816MOL0     H 7683   4.905   2.308   6.044 -3.9650 -2.1218  0.5260
  816MOL0     H 7684   4.916   2.241   5.837 -1.8631 -1.5017 -2.1728
  816MOL0     H 7685   4.967   2.068   5.879 -0.1159 -0.9140  1.4867
  816MOL0     H 7686   4.707   2.193   5.947 -2.4658  0.6310 -3.4485
  816MOL0     H 7687   4.771   2.028   5.972 -3.4824 -1.4413 -2.5152
  816MOL0     H 7688   4.771   1.976   5.749  2.4928  1.1508  2.2294
  816MOL0     H 7689   4.733   2.151   5.693 -3.1197 -0.0986 -0.9473
  816MOL0     H 7690   4.520   1.976   5.725 -3.5435  0.0333  1.6053
  816MOL0     H 7691   4.550   2.033   5.889 -0.3236 -0.0923 -0.0703
  816MOL0     H 7692   4.388   2.139   5.712  0.0505 -4.1202  3.1042
  816MOL0     H 7693   4.527   2.244   5.673 -0.1782  0.8093 -0.4062
  816MOL0     H 7694   4.702   2.090   6.424  0.5791 -0.6968  0.4263
  816MOL0     H 7695   4.569   2.197   6.614 -0.5733 -2.5866  0.8844
  816MOL0     H 7696   4.603   2.339   7.038 -1.2155 -0.0832 -2.1835
  816MOL0     H 7697   4.513   2.426   7.268  1.4429  1.7094  1.9632
  816MOL0     H 7698   4.744   4.294   7.769 -0.9803 -0.8717 -0.1868
  816MOL0     H 7699   4.646   4.512   7.709 -1.0401 -1.3548 -3.7454
  816MOL0     H 7700   4.809   4.913   7.778 -0.3897  2.0306  0.9785
  816MOL0     H 7701   4.720   5.104   7.910  0.0717 -0.7498 -0.7555
  816MOL0     H 7702   4.469   5.380   8.009 -0.2938 -0.1719  2.3392
  816MOL0     H 7703   4.616   5.282   7.995  0.4808 -2.8425 -0.4774
  816MOL0     H 7704   4.348   5.184   8.089 -0.0171  0.5863 -0.0420
  816MOL0     H 7705   4.483   5.079   8.073 -1.5451 -0.9387  1.7825
  816MOL0     H 7706   4.612   5.201   8.224 -0.5886 -3.5315 -1.0521
  816MOL0     H 7707   4.460   5.169   8.310 -1.8289  1.3823  1.3486
  816MOL0     H 7708   4.508   5.390   8.375  3.0966 -4.9307  0.0218
  816MOL0     H 7709   4.553   5.435   8.210  1.2278  1.6270  2.6580
  816MOL0     H 7710   4.127   5.456   8.308  0.9700 -0.3592  3.1535
  816MOL0     H 7711   4.347   5.071   7.675 -0.5002 -0.9738 -1.1361
  816MOL0     H 7712   4.438   4.883   7.574  3.3153 -1.9512 -1.4449
  817MOL0     O 7713   5.857   3.528   8.625  0.7582 -0.3403 -0.5432
  817MOL0     C 7714   5.874   3.456   8.529 -0.1605  0.5263  0.2607
  817MOL0     O 7715   5.936   3.489   8.405 -0.4501  0.3973 -0.5876
  817MOL0     C 7716   6.041   3.573   8.398  0.1532 -0.6753 -0.5897
  817MOL0     C 7717   6.128   3.598   8.503 -0.4890 -0.2957 -0.2550
  817MOL0     C 7718   6.232   3.687   8.488  0.0887 -1.0384 -0.0132
  817MOL0     C 7719   6.266   3.744   8.374 -0.1223 -0.1391  1.0904
  817MOL0     O 7720   6.362   3.841   8.371 -0.4473 -0.1734 -0.3609
  817MOL0     C 7721   6.470   3.834   8.274  0.1551 -0.2704 -0.6850
  817MOL0     C 7722   6.604   3.819   8.341 -1.1282  0.5084 -0.2063
  817MOL0     C 7723   6.668   3.955   8.365  1.1440  0.5816 -0.5600
  817MOL0     C 7724   6.803   3.947   8.437  0.7525  0.9400  0.6971
  817MOL0     C 7725   6.893   4.076   8.413 -0.2927  0.3798  1.0613
  817MOL0     C 7726   6.823   4.205   8.464 -0.4276  0.5598  0.2171
  817MOL0     C 7727   6.886   4.341   8.408  0.2793 -0.2636 -0.4551
  817MOL0     C 7728   6.797   4.444   8.462  0.2353 -0.7751  0.3319
  817MOL0     N 7729   6.860   4.568   8.412  0.6948  0.2817  0.6260
  817MOL0     C 7730   6.973   4.629   8.466 -0.4125  0.1679 -0.0682
  817MOL0     C 7731   6.983   4.744   8.390  0.4011 -0.3109 -0.0320
  817MOL0     C 7732   7.099   4.838   8.401  0.8295 -0.3690 -0.7473
  817MOL0     C 7733   7.052   4.984   8.426 -0.5433 -0.5685  0.4731
  817MOL0     C 7734   7.030   5.082   8.300 -0.3865 -0.0476 -0.1053
  817MOL0     C 7735   7.163   5.126   8.237  0.5951  1.5874 -0.5639
  817MOL0     O 7736   7.222   5.230   8.304 -0.6623 -0.1387  0.4151
  817MOL0     C 7737   7.233   5.348   8.228 -0.7314  0.2769  0.3368
  817MOL0     C 7738   7.171   5.468   8.255 -0.2488  0.5064 -0.0546
  817MOL0     C 7739   7.194   5.584   8.180  0.3419 -0.4903  1.5958
  817MOL0     C 7740   7.283   5.585   8.069 -0.1395  0.2177  0.0517
  817MOL0     C 7741   7.311   5.700   7.980 -0.6557  0.4065 -0.5229
  817MOL0     O 7742   7.425   5.684   7.893  0.3388 -0.3012 -0.7018
  817MOL0     C 7743   7.463   5.777   7.799 -0.2675  0.3789  0.5466
  817MOL0     C 7744   7.376   5.822   7.695 -0.1023 -0.1696  0.4172
  817MOL0     C 7745   7.420   5.898   7.585  0.6101 -0.0600  0.7197
  817MOL0     C 7746   7.552   5.940   7.577  0.9237 -0.5265  0.5819
  817MOL0     O 7747   7.593   6.041   7.485  0.1615 -0.1495 -0.7767
  817MOL0     C 7748   7.728   6.056   7.464 -0.5506  0.3814  0.6043
  817MOL0     C 7749   7.773   5.944   7.369  0.3399 -0.2076 -0.2158
  817MOL0     C 7750   7.926   5.947   7.356  0.8830 -0.6769 -0.8362
  817MOL0     C 7751   7.985   6.082   7.314 -0.0808 -0.3254 -0.0490
  817MOL0     C 7752   8.137   6.080   7.302  0.5125  0.3364  0.4098
  817MOL0     C 7753   8.197   6.208   7.252 -0.3280 -0.9603  0.3149
  817MOL0     C 7754   8.311   6.194   7.151 -0.7224 -0.0113 -0.6226
  817MOL0     C 7755   8.418   6.308   7.137 -0.8870  0.4494  0.5504
  817MOL0    Cl 7756   8.529   6.330   7.276  0.0475  0.1939 -0.2584
  817MOL0     C 7757   7.640   5.881   7.671 -0.8344  0.6667  0.0839
  817MOL0     C 7758   7.598   5.807   7.785 -0.3090  0.2954  0.0548
  817MOL0     O 7759   7.227   5.782   7.977  0.4674 -0.0204 -0.3029
  817MOL0     C 7760   7.355   5.459   8.042 -0.0336 -0.9926 -0.5391
  817MOL0     C 7761   7.318   5.346   8.118  0.9129  0.0135 -0.4807
  817MOL0     N 7762   6.888   4.745   8.291  1.0488  0.1314 -0.5018
  817MOL0     N 7763   6.818   4.637   8.297 -0.7013  0.3928 -0.4992
  817MOL0     C 7764   6.184   3.717   8.264  0.5487  0.4194  0.2021
  817MOL0     C 7765   6.065   3.639   8.270  0.4916  0.0503 -0.9848
  817MOL0     C 7766   5.817   3.319   8.522  0.7723  0.4957 -0.4877
  817MOL0     C 7767   5.714   3.280   8.613  1.0231 -1.2547 -0.0396
  817MOL0     C 7768   5.649   3.162   8.601  0.9503 -0.7618  0.5830
  817MOL0     C 7769   5.682   3.069   8.496 -1.0421 -0.1861 -0.4048
  817MOL0     O 7770   5.634   2.947   8.487 -0.3327 -0.1481  0.4888
  817MOL0     C 7771   5.558   2.893   8.602 -0.1847  0.8979  0.4771
  817MOL0     C 7772   5.501   2.747   8.567  0.7598  0.1471  0.1411
  817MOL0     C 7773   5.383   2.733   8.474 -0.0740  0.0466 -0.5466
  817MOL0     C 7774   5.398   2.797   8.331 -1.0313 -0.3892  0.1708
  817MOL0     C 7775   5.316   2.747   8.227  0.1288  1.3472 -0.8289
  817MOL0     C 7776   5.255   2.713   8.129  0.3433  0.2112 -0.3344
  817MOL0     C 7777   5.781   3.103   8.403 -0.6984 -0.6030  0.0914
  817MOL0     C 7778   5.847   3.231   8.413  0.5767 -0.0559  0.0648
  817MOL0     H 7779   6.121   3.538   8.594 -2.3924  3.8492  2.6370
  817MOL0     H 7780   6.289   3.709   8.578  2.1943  2.3183 -1.9742
  817MOL0     H 7781   6.473   3.919   8.204 -0.8317  0.8565  0.5794
  817MOL0     H 7782   6.455   3.744   8.214 -3.4682 -0.9445  1.0018
  817MOL0     H 7783   6.665   3.757   8.275 -2.7373 -2.0473  0.5686
  817MOL0     H 7784   6.579   3.765   8.433  0.1599 -0.3895 -0.3540
  817MOL0     H 7785   6.595   4.001   8.432  0.6730  1.1670 -1.4538
  817MOL0     H 7786   6.670   4.016   8.274 -1.9796  2.4773  0.4784
  817MOL0     H 7787   6.787   3.930   8.544 -1.4163  0.2318  0.3007
  817MOL0     H 7788   6.858   3.858   8.406 -0.3000  1.9058 -5.0584
  817MOL0     H 7789   6.907   4.095   8.307  0.4448 -2.3196  0.5965
  817MOL0     H 7790   6.996   4.061   8.447  0.9390  0.6190 -2.2602
  817MOL0     H 7791   6.831   4.199   8.573  5.6554 -2.4237 -0.0089
  817MOL0     H 7792   6.718   4.192   8.438  0.0562 -1.1821 -1.0211
  817MOL0     H 7793   6.993   4.351   8.427  0.9730 -1.5620 -3.2013
  817MOL0     H 7794   6.869   4.343   8.300  0.3920 -0.1214 -0.4704
  817MOL0     H 7795   6.795   4.448   8.571 -1.2658  3.3333  0.3158
  817MOL0     H 7796   6.693   4.426   8.430  0.8270 -1.3537 -1.3975
  817MOL0     H 7797   7.036   4.589   8.546  0.1411 -2.1418 -1.5545
  817MOL0     H 7798   7.173   4.821   8.323  0.9864 -0.6391 -0.5405
  817MOL0     H 7799   7.164   4.809   8.484 -0.5295  0.1458  0.5343
  817MOL0     H 7800   7.124   5.029   8.495 -2.8495 -1.9756  4.0868
  817MOL0     H 7801   6.962   4.989   8.489  0.6472  2.5681  2.1676
  817MOL0     H 7802   6.967   5.034   8.225 -1.0583 -0.0215  0.4219
  817MOL0     H 7803   6.970   5.167   8.336 -1.4246 -2.0073  3.2025
  817MOL0     H 7804   7.136   5.149   8.134 -2.0662 -3.8495 -1.4714
  817MOL0     H 7805   7.236   5.044   8.238  1.2538  2.1570 -1.3134
  817MOL0     H 7806   7.099   5.463   8.336  0.0190 -1.0179  0.1197
  817MOL0     H 7807   7.135   5.673   8.199 -3.7159 -2.3504 -0.9485
  817MOL0     H 7808   7.269   5.805   7.685 -0.5154  2.7315 -1.1115
  817MOL0     H 7809   7.344   5.939   7.519  0.3771 -1.3273  0.1675
  817MOL0     H 7810   7.779   6.076   7.559 -2.9730  3.0294  1.5007
  817MOL0     H 7811   7.718   6.159   7.426 -2.1740  0.4411  1.1432
  817MOL0     H 7812   7.740   5.952   7.265  0.2216 -0.3407 -0.1899
  817MOL0     H 7813   7.741   5.845   7.402  0.1051 -0.1141 -0.1522
  817MOL0     H 7814   7.959   5.865   7.292 -2.6022 -3.4503  0.5875
  817MOL0     H 7815   7.961   5.918   7.456  0.2582 -0.2082 -0.4720
  817MOL0     H 7816   7.942   6.111   7.217  0.6292 -0.8802 -0.5433
  817MOL0     H 7817   7.949   6.157   7.385  3.0984  1.1924  0.1586
  817MOL0     H 7818   8.152   6.000   7.229 -0.0023  0.3929  0.2322
  817MOL0     H 7819   8.179   6.050   7.398  1.7547 -5.0388 -1.4387
  817MOL0     H 7820   8.237   6.270   7.332 -1.3191  1.1107 -0.7386
  817MOL0     H 7821   8.112   6.260   7.207  1.0577  0.9419 -0.2108
  817MOL0     H 7822   8.358   6.103   7.189 -1.2697  0.9443  2.7486
  817MOL0     H 7823   8.271   6.171   7.052  0.1990  1.1597 -1.2946
  817MOL0     H 7824   8.377   6.407   7.115  2.1682  1.6125 -0.5095
  817MOL0     H 7825   8.484   6.280   7.054  1.0277 -2.2570  2.7838
  817MOL0     H 7826   7.746   5.907   7.673  0.0175 -2.4016  1.0214
  817MOL0     H 7827   7.666   5.759   7.854  2.2425  1.2552 -1.6614
  817MOL0     H 7828   7.432   5.454   7.965  1.8215 -0.0899  1.1641
  817MOL0     H 7829   7.371   5.253   8.101 -0.1944 -0.9433  1.1041
  817MOL0     H 7830   6.213   3.768   8.173  0.3218 -0.3957 -0.3389
  817MOL0     H 7831   5.990   3.616   8.196 -2.3551 -0.0553  1.7422
  817MOL0     H 7832   5.678   3.338   8.698 -0.6807  0.5613 -1.8748
  817MOL0     H 7833   5.571   3.155   8.676 -1.7163 -0.5927 -1.9590
  817MOL0     H 7834   5.482   2.965   8.636  1.1428  1.8233  1.5766
  817MOL0     H 7835   5.633   2.876   8.679  1.4427 -2.6983 -1.6743
  817MOL0     H 7836   5.593   2.694   8.541  1.4472  0.8658  1.0285
  817MOL0     H 7837   5.472   2.715   8.668  1.6872  0.8260  0.6395
  817MOL0     H 7838   5.293   2.773   8.520 -0.1614  0.0969 -0.7599
  817MOL0     H 7839   5.376   2.625   8.458 -3.5841  0.1109 -0.1853
  817MOL0     H 7840   5.381   2.905   8.341 -0.1664 -0.1915 -0.4526
  817MOL0     H 7841   5.502   2.785   8.298 -1.4897 -0.8159 -1.1723
  817MOL0     H 7842   5.181   2.702   8.052 -0.6891  1.9063  0.3484
  817MOL0     H 7843   5.814   3.033   8.328 -1.3788  0.6685 -1.4523
  817MOL0     H 7844   5.910   3.252   8.328 -1.3648  1.2234 -1.1425
  818MOL0     O 7845   3.032   4.530   9.155  0.3691  0.0734  0.3309
  818MOL0     C 7846   3.007   4.592   9.260 -0.3882  0.3776 -0.5701
  818MOL0     O 7847   3.097   4.654   9.332  0.0007 -0.4515 -0.2565
  818MOL0     C 7848   3.209   4.700   9.273 -0.2855 -0.2637 -0.2503
  818MOL0     C 7849   3.335   4.672   9.324  0.9088 -0.4609 -0.0207
  818MOL0     C 7850   3.443   4.718   9.253 -0.0980 -0.9868  0.6985
  818MOL0     C 7851   3.430   4.802   9.150 -0.0319  0.4716  0.5910
  818MOL0     O 7852   3.542   4.844   9.083  0.5467 -0.5942 -0.0221
  818MOL0     C 7853   3.534   4.932   8.975 -0.3420 -0.4670 -0.0424
  818MOL0     C 7854   3.678   4.960   8.939 -0.4909  0.0232 -0.4908
  818MOL0     C 7855   3.690   5.081   8.853  0.7123 -0.7207 -0.0786
  818MOL0     C 7856   3.828   5.089   8.791 -0.5270  0.9595  0.1943
  818MOL0     C 7857   3.858   5.175   8.670 -0.0122  0.6727 -0.3369
  818MOL0     C 7858   3.815   5.310   8.695 -0.5999 -0.4231  0.4029
  818MOL0     C 7859   3.861   5.385   8.574  0.9378 -0.0560  0.4285
  818MOL0     C 7860   3.780   5.515   8.560  0.6023 -0.4715  0.3560
  818MOL0     N 7861   3.809   5.610   8.669 -0.3024  0.5094 -0.7777
  818MOL0     C 7862   3.916   5.691   8.669  0.7592 -0.3668 -0.1550
  818MOL0     C 7863   3.924   5.736   8.799  0.1531  0.5090  0.7556
  818MOL0     C 7864   4.018   5.837   8.852  0.1095  0.9115 -0.6311
  818MOL0     C 7865   4.017   5.967   8.774  0.7169 -0.4710 -0.6544
  818MOL0     C 7866   4.040   6.073   8.886  0.3773  0.7278  0.6363
  818MOL0     C 7867   4.055   6.213   8.835 -1.3557 -0.6268  0.2826
  818MOL0     O 7868   3.977   6.318   8.899 -0.3855 -0.0460  0.1782
  818MOL0     C 7869   4.057   6.379   8.991 -1.4428  0.9705  0.8074
  818MOL0     C 7870   4.105   6.311   9.105 -0.5586 -0.4538  0.3207
  818MOL0     C 7871   4.185   6.370   9.211 -0.0457  0.1238  0.5978
  818MOL0     C 7872   4.217   6.502   9.195  0.2531  1.3944  0.0569
  818MOL0     C 7873   4.311   6.558   9.289  0.2945 -0.9781  0.1482
  818MOL0     O 7874   4.294   6.529   9.417 -0.5691  1.4441 -0.2971
  818MOL0     C 7875   4.365   6.578   9.521 -0.6065  0.0647  0.0592
  818MOL0     C 7876   4.309   6.683   9.584 -0.9506  0.0717 -0.5172
  818MOL0     C 7877   4.369   6.732   9.708  0.1297  1.0546  0.5892
  818MOL0     C 7878   4.492   6.680   9.758  0.1697 -0.6262 -0.1202
  818MOL0     O 7879   4.571   6.746   9.853  0.5137  0.3912  0.5155
  818MOL0     C 7880   4.509   6.824   9.950 -0.4524 -0.9366 -1.1937
  818MOL0     C 7881   4.571   6.782  10.083  0.4550  0.1611  0.1689
  818MOL0     C 7882   4.505   6.862  10.202  0.6000  0.1502  0.3377
  818MOL0     C 7883   4.562   6.839  10.342 -0.0302  0.3197  0.6944
  818MOL0     C 7884   4.709   6.867  10.341 -0.0393  0.3337  0.1064
  818MOL0     C 7885   4.763   6.863  10.483 -1.0574 -0.6933  0.2853
  818MOL0     C 7886   4.905   6.911  10.481 -0.5316 -0.1899  0.4830
  818MOL0     C 7887   5.000   6.800  10.428 -0.4173 -0.3087  0.3041
  818MOL0    Cl 7888   5.025   6.651  10.524 -0.8392 -0.5295  0.1762
  818MOL0     C 7889   4.546   6.583   9.680  0.5189  0.1858 -0.5602
  818MOL0     C 7890   4.486   6.526   9.566  0.1315  0.0720 -0.2453
  818MOL0     O 7891   4.366   6.664   9.251  0.1955 -0.5744 -0.5739
  818MOL0     C 7892   4.158   6.571   9.086  0.2591 -0.2376 -0.0070
  818MOL0     C 7893   4.082   6.513   8.984  0.5345  0.3339  0.3227
  818MOL0     N 7894   3.813   5.691   8.869 -0.3600  0.4181  0.7079
  818MOL0     N 7895   3.745   5.621   8.785 -0.9073  0.3029  0.6883
  818MOL0     C 7896   3.303   4.824   9.090  0.7030  0.7686  0.5019
  818MOL0     C 7897   3.192   4.779   9.162 -0.5455 -0.1948 -1.0508
  818MOL0     C 7898   2.873   4.594   9.301  0.2606  0.1748 -0.0462
  818MOL0     C 7899   2.843   4.620   9.435 -0.0518 -0.4066 -0.4938
  818MOL0     C 7900   2.705   4.616   9.483  0.0049 -0.8618 -0.6059
  818MOL0     C 7901   2.600   4.598   9.396  0.1397 -0.3975 -0.3727
  818MOL0     O 7902   2.474   4.619   9.452 -0.1824 -0.5143  0.2464
  818MOL0     C 7903   2.370   4.636   9.354 -0.3718 -0.3386  0.5255
  818MOL0     C 7904   2.235   4.679   9.412 -0.5407  0.2223  0.4214
  818MOL0     C 7905   2.220   4.809   9.480 -0.5049 -0.0983  0.8920
  818MOL0     C 7906   2.270   4.925   9.388 -0.7749 -0.1953 -0.0757
  818MOL0     C 7907   2.211   5.049   9.438 -0.3950  1.2274 -0.2444
  818MOL0     C 7908   2.175   5.154   9.490  0.3634  0.7417 -0.8009
  818MOL0     C 7909   2.638   4.562   9.261 -0.0729  0.0728  0.9776
  818MOL0     C 7910   2.769   4.562   9.210 -0.4009 -1.3055  0.1967
  818MOL0     H 7911   3.353   4.596   9.399  0.9680 -1.7718 -1.3113
  818MOL0     H 7912   3.543   4.688   9.284 -1.2811 -2.4998  3.4035
  818MOL0     H 7913   3.491   5.028   9.004  2.4651  1.3715 -1.5474
  818MOL0     H 7914   3.482   4.898   8.885 -1.2281  2.7909 -0.9063
  818MOL0     H 7915   3.706   4.867   8.889 -3.8185 -1.1021 -0.5086
  818MOL0     H 7916   3.741   4.976   9.028 -2.6334  3.5143  0.5875
  818MOL0     H 7917   3.681   5.174   8.910 -2.0962 -0.6409 -0.4790
  818MOL0     H 7918   3.608   5.092   8.782 -2.3668 -2.0841  2.9336
  818MOL0     H 7919   3.903   5.126   8.862 -0.2583 -1.0479  1.0078
  818MOL0     H 7920   3.860   4.991   8.755  3.9261  2.9705 -2.1650
  818MOL0     H 7921   3.800   5.135   8.586  0.2886 -3.1346  1.0718
  818MOL0     H 7922   3.966   5.166   8.658  0.2576  1.1458  1.4307
  818MOL0     H 7923   3.864   5.360   8.780 -0.5122 -0.9355  0.6551
  818MOL0     H 7924   3.708   5.312   8.717 -0.2623 -2.7377  2.7354
  818MOL0     H 7925   3.968   5.402   8.582  1.3871 -1.8782 -0.9859
  818MOL0     H 7926   3.846   5.326   8.483 -1.3100 -4.4798  3.2970
  818MOL0     H 7927   3.674   5.491   8.565 -0.3871  2.7870 -1.8679
  818MOL0     H 7928   3.790   5.561   8.461  0.6377  0.5628  0.8343
  818MOL0     H 7929   3.968   5.725   8.579 -0.2596  1.1643 -0.2078
  818MOL0     H 7930   4.118   5.793   8.841 -1.4063 -3.4601  0.8803
  818MOL0     H 7931   3.988   5.838   8.957 -1.1706 -0.8934 -0.9387
  818MOL0     H 7932   3.918   5.980   8.728 -0.6333 -0.5876  2.0311
  818MOL0     H 7933   4.083   5.955   8.687  0.1888 -3.2863 -0.7470
  818MOL0     H 7934   3.944   6.068   8.936 -0.8062  2.0997 -1.3354
  818MOL0     H 7935   4.119   6.049   8.958 -0.0333 -1.3537  0.4542
  818MOL0     H 7936   4.052   6.215   8.725  0.3183 -0.3443  0.2091
  818MOL0     H 7937   4.161   6.242   8.840 -1.5561  0.0008  0.9760
  818MOL0     H 7938   4.066   6.209   9.110  1.5451 -1.2989  0.6850
  818MOL0     H 7939   4.203   6.313   9.302  2.9643  2.5102  1.6672
  818MOL0     H 7940   4.210   6.721   9.560 -0.9845 -0.2736 -0.9389
  818MOL0     H 7941   4.312   6.815   9.747 -0.6605  1.2228 -0.8595
  818MOL0     H 7942   4.400   6.814   9.961 -0.5418 -0.0538 -1.1609
  818MOL0     H 7943   4.517   6.932   9.931  1.8978 -0.6569  0.8933
  818MOL0     H 7944   4.677   6.809  10.080  0.7406 -0.8576  0.7709
  818MOL0     H 7945   4.552   6.677  10.107  0.1089  0.1704 -0.0700
  818MOL0     H 7946   4.400   6.834  10.194  0.3101  0.9325  1.1990
  818MOL0     H 7947   4.508   6.968  10.179 -1.4505  1.1772  3.9768
  818MOL0     H 7948   4.509   6.906  10.410 -2.6390 -0.1142 -0.7991
  818MOL0     H 7949   4.555   6.736  10.378  0.4752  0.4895  1.2882
  818MOL0     H 7950   4.724   6.963  10.290  3.5692 -1.4156 -2.6188
  818MOL0     H 7951   4.765   6.789  10.287  0.9036  0.2508  1.1616
  818MOL0     H 7952   4.770   6.763  10.526  3.5538 -0.0382  1.5212
  818MOL0     H 7953   4.692   6.918  10.546 -0.9910 -0.4573  0.1589
  818MOL0     H 7954   4.916   6.990  10.405 -2.4985 -1.0636 -0.7930
  818MOL0     H 7955   4.936   6.951  10.578  0.8434 -0.5178  0.2035
  818MOL0     H 7956   5.102   6.837  10.437  0.1068 -0.9992 -1.9354
  818MOL0     H 7957   4.988   6.772  10.323 -0.7963 -2.5958  0.9070
  818MOL0     H 7958   4.638   6.532   9.708 -0.1467 -0.5659  0.3040
  818MOL0     H 7959   4.526   6.446   9.504  1.1245  0.5612 -0.2548
  818MOL0     H 7960   4.187   6.676   9.084 -1.7943  0.5096  2.9305
  818MOL0     H 7961   4.049   6.572   8.899  2.1481 -0.8091 -1.1582
  818MOL0     H 7962   3.284   4.877   8.997  0.3625 -1.8950 -1.0605
  818MOL0     H 7963   3.095   4.812   9.126  0.6226  4.2178 -0.7542
  818MOL0     H 7964   2.920   4.643   9.508 -1.1730 -0.5857  0.8152
  818MOL0     H 7965   2.689   4.648   9.586  1.4113  2.6651 -1.3318
  818MOL0     H 7966   2.342   4.539   9.312  0.9807  0.0289 -1.3654
  818MOL0     H 7967   2.402   4.696   9.269 -1.4956 -0.9180 -0.3386
  818MOL0     H 7968   2.164   4.674   9.330 -2.5183 -1.1444  2.1047
  818MOL0     H 7969   2.205   4.595   9.475  0.3144 -1.4011 -1.2288
  818MOL0     H 7970   2.273   4.809   9.575  0.1511 -1.5655  0.5480
  818MOL0     H 7971   2.117   4.808   9.518 -0.4678 -0.0018  0.9948
  818MOL0     H 7972   2.379   4.926   9.396 -0.6938  2.7201 -0.6120
  818MOL0     H 7973   2.250   4.905   9.282 -0.1901  2.9330 -0.8946
  818MOL0     H 7974   2.148   5.245   9.540 -1.9094  0.6314 -1.7321
  818MOL0     H 7975   2.559   4.546   9.189  1.2868  2.7177 -1.3069
  818MOL0     H 7976   2.797   4.532   9.110  3.3168  3.5342 -0.6312
  819MOL0     O 7977   8.195   6.133   6.014  0.1492 -0.0271  0.0751
  819MOL0     C 7978   8.170   6.193   5.911 -0.1397  0.1429 -0.0354
  819MOL0     O 7979   8.098   6.305   5.908  0.0316 -0.2182 -0.5003
  819MOL0     C 7980   8.067   6.367   6.034  1.1916 -0.0694  0.5663
  819MOL0     C 7981   8.126   6.496   6.060  0.1379  0.1794 -0.6444
  819MOL0     C 7982   8.112   6.554   6.193  0.8111 -0.2585 -0.3297
  819MOL0     C 7983   8.029   6.500   6.290  0.5950 -0.5886 -0.4881
  819MOL0     O 7984   8.012   6.567   6.403 -0.2498 -0.5001  0.1718
  819MOL0     C 7985   7.906   6.530   6.490  0.0769 -0.0831 -0.4616
  819MOL0     C 7986   7.870   6.639   6.595 -0.0188  0.1301 -0.1572
  819MOL0     C 7987   7.756   6.582   6.685 -0.2920  0.9920  0.7446
  819MOL0     C 7988   7.610   6.568   6.630 -0.0895 -0.8087  0.5670
  819MOL0     C 7989   7.536   6.443   6.691  0.7436  0.7759  0.2421
  819MOL0     C 7990   7.549   6.318   6.609 -0.2013  0.2536 -0.1603
  819MOL0     C 7991   7.474   6.197   6.654 -0.1475  0.6134 -0.2709
  819MOL0     C 7992   7.324   6.205   6.642  0.3663  0.6277  0.0350
  819MOL0     N 7993   7.290   6.176   6.499  1.1240  0.0990  0.3137
  819MOL0     C 7994   7.281   6.049   6.454 -0.4657  0.0453  0.6482
  819MOL0     C 7995   7.224   6.055   6.333  0.1193  0.2597 -0.4530
  819MOL0     C 7996   7.179   5.940   6.250 -0.7672 -0.3963 -1.2287
  819MOL0     C 7997   7.052   5.870   6.290 -0.5287 -1.2117  0.2078
  819MOL0     C 7998   6.936   5.955   6.293  0.1220  0.2632  0.0689
  819MOL0     C 7999   6.798   5.881   6.306 -0.3670 -0.5882 -0.9368
  819MOL0     O 8000   6.794   5.783   6.414  0.2391  0.5421 -0.0930
  819MOL0     C 8001   6.821   5.827   6.536 -0.5133 -0.6419 -0.5497
  819MOL0     C 8002   6.731   5.918   6.590  0.7898 -0.5466  0.2874
  819MOL0     C 8003   6.747   5.960   6.723 -0.5317 -0.0430  0.3797
  819MOL0     C 8004   6.847   5.919   6.802 -0.4768  0.2473 -0.1645
  819MOL0     C 8005   6.879   5.960   6.942  0.3485 -0.3509 -0.2059
  819MOL0     O 8006   6.782   6.035   6.995  0.7287 -1.1653 -0.6595
  819MOL0     C 8007   6.824   6.103   7.103  0.6777 -0.6832 -0.1072
  819MOL0     C 8008   6.768   6.084   7.238 -1.1766 -0.5386  0.4985
  819MOL0     C 8009   6.804   6.171   7.335  0.7250  0.0106  0.1747
  819MOL0     C 8010   6.887   6.280   7.308 -0.2351 -0.0171 -0.0134
  819MOL0     O 8011   6.925   6.370   7.409  0.2045 -0.2385 -0.6321
  819MOL0     C 8012   7.023   6.316   7.497 -0.2515  0.1785  0.0860
  819MOL0     C 8013   7.050   6.410   7.615 -0.0696 -0.2633 -0.1999
  819MOL0     C 8014   6.920   6.470   7.668  1.1935 -0.4137 -0.5058
  819MOL0     C 8015   6.954   6.595   7.752 -0.3201 -0.0687 -0.1537
  819MOL0     C 8016   6.824   6.673   7.793 -0.1114  0.1406  0.0132
  819MOL0     C 8017   6.739   6.593   7.894  0.2248 -1.1465 -0.8547
  819MOL0     C 8018   6.623   6.526   7.832  0.4484  0.6659  0.3436
  819MOL0     C 8019   6.573   6.399   7.910  0.4357  0.0249  0.1690
  819MOL0    Cl 8020   6.690   6.274   7.899 -0.2386  0.0514  0.2503
  819MOL0     C 8021   6.932   6.298   7.178 -0.4055 -0.3651 -1.4316
  819MOL0     C 8022   6.901   6.215   7.073 -0.6307  1.0483 -0.3834
  819MOL0     O 8023   7.000   5.943   6.986  1.1386 -0.5758 -0.1624
  819MOL0     C 8024   6.954   5.834   6.738  0.3545 -0.4599  0.0556
  819MOL0     C 8025   6.933   5.783   6.608  0.7303 -0.0317 -0.0330
  819MOL0     N 8026   7.219   6.186   6.289 -0.6225  0.4435  0.5320
  819MOL0     N 8027   7.265   6.258   6.395  0.1210 -0.6725  0.0173
  819MOL0     C 8028   7.968   6.376   6.258 -0.2920  0.2056  0.1931
  819MOL0     C 8029   7.983   6.310   6.135  0.4522 -0.1398 -0.6384
  819MOL0     C 8030   8.222   6.141   5.784 -0.2692  0.8296 -0.5160
  819MOL0     C 8031   8.214   6.221   5.675  0.3691 -0.9888 -0.5743
  819MOL0     C 8032   8.270   6.184   5.555 -0.4617 -0.6906 -1.0881
  819MOL0     C 8033   8.328   6.055   5.530 -0.4171  0.5031 -0.5241
  819MOL0     O 8034   8.394   6.016   5.420 -0.5422  0.2558  0.1969
  819MOL0     C 8035   8.381   6.089   5.299  0.3658  0.6654  1.1119
  819MOL0     C 8036   8.241   6.044   5.241 -0.3019  0.5837  0.0089
  819MOL0     C 8037   8.227   6.076   5.090  0.1738 -0.5940  0.5647
  819MOL0     C 8038   8.201   6.231   5.072  0.2280 -0.0316  0.0356
  819MOL0     C 8039   8.060   6.267   5.099  0.1771 -0.1579 -0.5830
  819MOL0     C 8040   7.946   6.305   5.097  0.8543  0.1251  0.9344
  819MOL0     C 8041   8.332   5.978   5.646  0.3849 -0.0807 -0.6768
  819MOL0     C 8042   8.271   6.012   5.768 -0.8754 -0.1102 -0.4315
  819MOL0     H 8043   8.200   6.542   5.995  0.1237 -0.0868 -0.8545
  819MOL0     H 8044   8.169   6.645   6.208  0.8078 -0.1176 -1.1050
  819MOL0     H 8045   7.932   6.441   6.548 -3.6835 -2.6287 -2.3163
  819MOL0     H 8046   7.818   6.512   6.428 -0.4733 -1.0790  0.5600
  819MOL0     H 8047   7.847   6.744   6.573  0.3317  0.0493 -0.9126
  819MOL0     H 8048   7.956   6.661   6.659  0.8572 -1.1721 -0.8615
  819MOL0     H 8049   7.746   6.636   6.780 -1.1241  1.8330  0.1914
  819MOL0     H 8050   7.775   6.475   6.703 -0.5809  0.6026 -1.1291
  819MOL0     H 8051   7.562   6.665   6.649 -0.7214 -0.4611 -2.3783
  819MOL0     H 8052   7.614   6.567   6.521  0.6572  0.5290  0.5622
  819MOL0     H 8053   7.431   6.473   6.685  1.4730  3.3365 -1.0770
  819MOL0     H 8054   7.568   6.420   6.793 -0.6138 -1.3756  0.2621
  819MOL0     H 8055   7.652   6.289   6.586 -1.4564 -3.1405 -2.3365
  819MOL0     H 8056   7.508   6.342   6.510 -0.7010  2.0969  0.4509
  819MOL0     H 8057   7.505   6.112   6.592 -1.9402 -1.4147  1.4792
  819MOL0     H 8058   7.489   6.178   6.760  0.8018 -0.3517 -0.5575
  819MOL0     H 8059   7.282   6.299   6.679 -0.0657 -0.7208  3.2477
  819MOL0     H 8060   7.291   6.122   6.704 -2.4383  0.9384 -0.8839
  819MOL0     H 8061   7.303   5.950   6.494 -2.7075 -0.3237  1.1025
  819MOL0     H 8062   7.258   5.863   6.251 -2.4873 -2.2379 -0.5382
  819MOL0     H 8063   7.166   5.971   6.146  0.7100  1.9992 -0.7639
  819MOL0     H 8064   7.061   5.820   6.387  0.1250 -3.1409 -0.7768
  819MOL0     H 8065   7.043   5.802   6.204 -2.4805  1.4853 -1.9022
  819MOL0     H 8066   6.953   6.034   6.366  0.5105 -0.3944  0.7073
  819MOL0     H 8067   6.931   6.002   6.195  2.3577 -0.8194 -0.6185
  819MOL0     H 8068   6.794   5.827   6.212  0.1909 -0.0309 -1.2927
  819MOL0     H 8069   6.712   5.948   6.316 -0.0379 -0.2569 -0.1900
  819MOL0     H 8070   6.639   5.948   6.542 -0.0536 -0.3164  1.9757
  819MOL0     H 8071   6.676   6.035   6.759  0.5073  2.4703 -2.3746
  819MOL0     H 8072   6.695   6.008   7.262 -1.8161  0.6110  2.3484
  819MOL0     H 8073   6.777   6.160   7.439  2.3116 -1.5937  0.4783
  819MOL0     H 8074   7.116   6.310   7.440 -1.5146  2.7252 -2.4951
  819MOL0     H 8075   6.996   6.217   7.534 -1.6214 -0.0840 -1.5271
  819MOL0     H 8076   7.115   6.486   7.571 -1.5256  1.6516  0.8194
  819MOL0     H 8077   7.090   6.365   7.706  1.0082  1.3229  0.1518
  819MOL0     H 8078   6.873   6.408   7.745 -1.4636 -2.5749 -3.5974
  819MOL0     H 8079   6.835   6.480   7.600 -0.4353 -0.6170  1.4018
  819MOL0     H 8080   7.019   6.576   7.838 -2.6539  3.3760  2.7063
  819MOL0     H 8081   7.009   6.662   7.685 -3.0696  1.5169 -0.9906
  819MOL0     H 8082   6.767   6.695   7.701  1.0883  0.6285 -0.6287
  819MOL0     H 8083   6.861   6.762   7.842 -0.5638 -1.1507  2.8724
  819MOL0     H 8084   6.691   6.673   7.951  0.0341 -0.8307 -1.4494
  819MOL0     H 8085   6.806   6.539   7.961  1.6307  0.1384 -1.1515
  819MOL0     H 8086   6.537   6.593   7.828 -0.3543 -0.3433  0.1406
  819MOL0     H 8087   6.646   6.486   7.733  0.1198  0.2755  0.4256
  819MOL0     H 8088   6.475   6.369   7.872  0.4873  2.0878 -1.8039
  819MOL0     H 8089   6.564   6.420   8.017  1.0758 -1.3342  0.5081
  819MOL0     H 8090   7.001   6.379   7.157  0.2611  0.2544  2.3517
  819MOL0     H 8091   6.951   6.238   6.980  1.2603 -0.7734  0.1060
  819MOL0     H 8092   7.044   5.817   6.796 -0.1432  0.5765  1.1818
  819MOL0     H 8093   7.013   5.724   6.564  2.8517 -0.2020  3.6341
  819MOL0     H 8094   7.911   6.319   6.331  2.9450 -1.3107  1.7419
  819MOL0     H 8095   7.948   6.212   6.104 -1.4450  0.2027  0.2817
  819MOL0     H 8096   8.192   6.327   5.677 -1.2356 -1.0468 -4.6428
  819MOL0     H 8097   8.253   6.248   5.469  0.1695 -2.3569 -2.5382
  819MOL0     H 8098   8.457   6.066   5.224 -1.9539 -0.3457 -1.0809
  819MOL0     H 8099   8.390   6.197   5.318  0.7248  1.0214 -0.8677
  819MOL0     H 8100   8.219   5.940   5.263 -4.8047  1.5070  0.8047
  819MOL0     H 8101   8.169   6.105   5.295  0.3046 -0.8757  2.6348
  819MOL0     H 8102   8.142   6.017   5.055 -0.4527  1.4807 -1.7000
  819MOL0     H 8103   8.316   6.049   5.033 -0.3568  0.1529 -0.6475
  819MOL0     H 8104   8.258   6.299   5.135 -3.2990  1.9959  1.3660
  819MOL0     H 8105   8.220   6.265   4.970 -0.9632  2.5301  0.5963
  819MOL0     H 8106   7.848   6.345   5.081  0.4205 -0.8094  1.1839
  819MOL0     H 8107   8.377   5.879   5.638  2.4163  0.7029  0.4230
  819MOL0     H 8108   8.288   5.942   5.848 -0.3943 -0.8567 -1.1661
  820MOL0     O 8109   9.614   9.369   4.917  0.0865 -0.4443  0.4955
  820MOL0     C 8110   9.515   9.328   4.854 -0.4916  0.1879  0.5367
  820MOL0     O 8111   9.431   9.220   4.882 -0.5490 -0.0209 -0.6253
  820MOL0     C 8112   9.450   9.116   4.968  0.7831 -0.3726 -0.7035
  820MOL0     C 8113   9.340   9.031   4.999 -0.2716 -0.3254 -0.1948
  820MOL0     C 8114   9.346   8.917   5.083  0.1405 -0.3383  0.5147
  820MOL0     C 8115   9.474   8.881   5.150  0.5411 -0.0189 -0.2874
  820MOL0     O 8116   9.478   8.801   5.265  0.2466  0.1658 -0.4711
  820MOL0     C 8117   9.417   8.675   5.246  0.3435 -0.4329 -0.9482
  820MOL0     C 8118   9.443   8.596   5.369 -0.1352 -0.1242  1.3728
  820MOL0     C 8119   9.373   8.666   5.491  1.7496  0.0653 -0.5314
  820MOL0     C 8120   9.401   8.583   5.619  0.2251  0.1033 -0.2897
  820MOL0     C 8121   9.548   8.559   5.657 -0.2444  0.4053 -1.2788
  820MOL0     C 8122   9.571   8.468   5.777  0.2902  0.2500 -0.4739
  820MOL0     C 8123   9.514   8.525   5.905 -0.4377  0.1361 -0.2120
  820MOL0     C 8124   9.452   8.423   6.000  0.3316  0.5674 -0.2390
  820MOL0     N 8125   9.541   8.311   6.031  0.3929 -0.2383 -0.7959
  820MOL0     C 8126   9.587   8.290   6.154 -0.1246 -0.5501  1.0413
  820MOL0     C 8127   9.660   8.174   6.149  0.1742  1.0339 -0.7770
  820MOL0     C 8128   9.725   8.082   6.257  0.0634 -0.7639  0.1591
  820MOL0     C 8129   9.821   8.165   6.343  1.1756  0.2326  0.3784
  820MOL0     C 8130   9.851   8.075   6.469 -0.1851 -0.6401  0.6663
  820MOL0     C 8131   9.973   8.132   6.538 -0.4205 -0.0268  0.6590
  820MOL0     O 8132   9.973   8.274   6.561 -0.2771  0.0203 -0.7554
  820MOL0     C 8133  10.068   8.341   6.641 -0.7349 -0.2394 -0.7476
  820MOL0     C 8134  10.018   8.450   6.701  0.2635 -0.0300  0.6339
  820MOL0     C 8135  10.090   8.521   6.789 -0.8078 -0.5471 -0.1457
  820MOL0     C 8136  10.230   8.490   6.821  0.7567 -0.3425  0.5167
  820MOL0     C 8137  10.317   8.576   6.886 -0.2506 -0.2390 -0.1813
  820MOL0     O 8138  10.439   8.527   6.900 -0.0190  0.9484 -0.0739
  820MOL0     C 8139  10.540   8.596   6.962  1.0701 -0.4754  0.1372
  820MOL0     C 8140  10.605   8.698   6.884  0.1256  0.1636 -0.2892
  820MOL0     C 8141  10.706   8.764   6.957  0.5244 -0.6160 -0.0139
  820MOL0     C 8142  10.740   8.734   7.095  0.2195  0.0478 -0.0924
  820MOL0     O 8143  10.840   8.810   7.148 -0.1579 -0.1190  0.2663
  820MOL0     C 8144  10.798   8.936   7.202 -0.1748  0.7966 -0.2988
  820MOL0     C 8145  10.913   9.029   7.199 -0.2061  0.1948 -0.7996
  820MOL0     C 8146  10.966   9.065   7.055 -0.6638 -0.4829 -0.5177
  820MOL0     C 8147  11.103   9.148   7.062  0.2578 -1.1833  0.4581
  820MOL0     C 8148  11.162   9.188   6.931 -0.4022 -0.4374 -0.0018
  820MOL0     C 8149  11.083   9.300   6.858 -0.0534  0.3006 -0.1512
  820MOL0     C 8150  11.133   9.338   6.718 -0.7010  0.3486 -0.5855
  820MOL0     C 8151  11.092   9.476   6.678  0.4686  0.4687  0.4705
  820MOL0    Cl 8152  11.140   9.586   6.797  0.0737  0.2841  0.2159
  820MOL0     C 8153  10.685   8.620   7.154  0.7734  0.8486  0.7561
  820MOL0     C 8154  10.588   8.549   7.084  0.9265 -0.0727  0.9875
  820MOL0     O 8155  10.278   8.680   6.935  0.2536 -0.0946  0.3040
  820MOL0     C 8156  10.276   8.363   6.760  0.2914 -0.4282 -0.5153
  820MOL0     C 8157  10.189   8.286   6.678  0.6543 -0.6105  0.2397
  820MOL0     N 8158   9.659   8.132   6.016 -0.8035 -0.1466 -0.0122
  820MOL0     N 8159   9.581   8.209   5.946  0.2102  0.0386 -0.6089
  820MOL0     C 8160   9.580   8.971   5.129  0.1890 -0.1761  0.0809
  820MOL0     C 8161   9.564   9.087   5.046 -0.7295 -0.0511 -0.9810
  820MOL0     C 8162   9.475   9.417   4.736 -0.7566 -0.2005 -0.2520
  820MOL0     C 8163   9.559   9.513   4.692 -0.0306  0.2766  0.5953
  820MOL0     C 8164   9.522   9.590   4.582 -0.8226 -0.3593  0.6749
  820MOL0     C 8165   9.395   9.571   4.512 -0.5670 -0.5898 -0.1780
  820MOL0     O 8166   9.350   9.632   4.400 -1.0868 -0.3195  0.6861
  820MOL0     C 8167   9.387   9.774   4.384  0.4492 -0.0324 -0.4675
  820MOL0     C 8168   9.251   9.832   4.336 -0.7552 -1.3069  0.5217
  820MOL0     C 8169   9.142   9.858   4.449 -0.4116  0.2418 -0.9963
  820MOL0     C 8170   9.006   9.879   4.381 -0.1912  0.0720  0.1760
  820MOL0     C 8171   8.938   9.743   4.366  0.2361 -0.6248 -0.0423
  820MOL0     C 8172   8.910   9.626   4.359 -0.2845 -0.4463 -0.9573
  820MOL0     C 8173   9.305   9.477   4.565 -0.3469 -0.4703 -0.0188
  820MOL0     C 8174   9.350   9.402   4.676  0.7941  0.6202  0.5234
  820MOL0     H 8175   9.247   9.037   4.943  1.2881  0.6569 -2.8710
  820MOL0     H 8176   9.265   8.848   5.103  1.5081 -1.3990  2.8668
  820MOL0     H 8177   9.451   8.620   5.158 -3.0169  0.8269 -3.2693
  820MOL0     H 8178   9.310   8.692   5.227  0.3348  2.1315  0.9011
  820MOL0     H 8179   9.548   8.572   5.387 -0.4862 -0.2865  3.3956
  820MOL0     H 8180   9.396   8.500   5.345 -1.7263  1.5330 -3.3690
  820MOL0     H 8181   9.265   8.671   5.473  1.7919 -0.5442 -0.9853
  820MOL0     H 8182   9.416   8.766   5.504  0.2860  0.7070 -0.4251
  820MOL0     H 8183   9.360   8.653   5.692 -1.2922 -1.2625  0.2209
  820MOL0     H 8184   9.354   8.485   5.621  1.7000 -0.6703  2.7972
  820MOL0     H 8185   9.590   8.654   5.691 -1.0007  0.2630  0.1517
  820MOL0     H 8186   9.593   8.506   5.573  2.8249 -1.6247  1.4169
  820MOL0     H 8187   9.679   8.451   5.785  0.1816 -0.7683 -1.0113
  820MOL0     H 8188   9.514   8.379   5.752 -2.5916  1.3907  1.4967
  820MOL0     H 8189   9.598   8.573   5.956 -0.8151  1.0370 -0.4251
  820MOL0     H 8190   9.427   8.588   5.885 -1.5502 -0.6063  2.0567
  820MOL0     H 8191   9.367   8.376   5.949  3.9545 -3.5260 -3.2890
  820MOL0     H 8192   9.421   8.470   6.094 -0.0527 -3.0659  1.6530
  820MOL0     H 8193   9.564   8.328   6.253 -0.5781 -1.8733  1.4646
  820MOL0     H 8194   9.774   8.001   6.202  2.2206 -0.2149  1.1452
  820MOL0     H 8195   9.640   8.055   6.320  1.6139  1.1792  3.3873
  820MOL0     H 8196   9.765   8.253   6.375 -1.0652 -1.2141  0.6671
  820MOL0     H 8197   9.911   8.185   6.284  0.9304 -0.9569 -0.4311
  820MOL0     H 8198   9.759   8.068   6.527 -0.9493  1.5697 -0.1706
  820MOL0     H 8199   9.878   7.973   6.439 -3.4694 -0.9489 -1.8010
  820MOL0     H 8200  10.062   8.104   6.480 -1.6896 -0.7798 -0.9888
  820MOL0     H 8201   9.979   8.089   6.638  2.8907 -2.5526 -0.4285
  820MOL0     H 8202   9.918   8.484   6.677  0.5597 -0.3940 -1.3222
  820MOL0     H 8203  10.042   8.610   6.827 -1.7046 -0.7845 -0.7041
  820MOL0     H 8204  10.582   8.739   6.786 -0.5379  0.4132 -0.0278
  820MOL0     H 8205  10.733   8.859   6.912 -1.5291  0.2758  0.5461
  820MOL0     H 8206  10.754   8.926   7.302  2.7478  1.5135  1.1728
  820MOL0     H 8207  10.730   8.986   7.132  0.6575  0.5212 -1.3338
  820MOL0     H 8208  11.000   8.973   7.236  0.0989  0.9987 -0.2788
  820MOL0     H 8209  10.897   9.123   7.253  1.4476  0.5176 -0.8216
  820MOL0     H 8210  10.894   9.135   7.010 -1.3951  1.8945  3.7603
  820MOL0     H 8211  10.969   8.982   6.984 -2.2509 -0.5327 -0.5672
  820MOL0     H 8212  11.082   9.236   7.124 -0.2528 -0.6996 -0.3670
  820MOL0     H 8213  11.177   9.092   7.119  4.0984  1.4613 -1.4349
  820MOL0     H 8214  11.173   9.095   6.875  0.6248  0.6025 -1.5796
  820MOL0     H 8215  11.262   9.231   6.943  0.0387 -0.9788 -1.5460
  820MOL0     H 8216  11.067   9.385   6.925 -5.5042 -2.3655  2.5260
  820MOL0     H 8217  10.979   9.269   6.846  0.4029 -0.3793 -3.4296
  820MOL0     H 8218  11.241   9.349   6.719 -0.8647  4.0931 -3.6672
  820MOL0     H 8219  11.113   9.250   6.656 -0.8653 -2.4678  3.0884
  820MOL0     H 8220  10.985   9.494   6.667 -0.0620 -2.0296  1.0275
  820MOL0     H 8221  11.141   9.494   6.581  2.1499 -3.1106  0.4741
  820MOL0     H 8222  10.710   8.585   7.254 -0.9410  0.1327  0.9593
  820MOL0     H 8223  10.545   8.462   7.133 -1.2761 -0.4731 -1.4291
  820MOL0     H 8224  10.375   8.329   6.788 -0.7501 -1.5584  2.0646
  820MOL0     H 8225  10.224   8.191   6.639  2.8012  1.1487 -2.5189
  820MOL0     H 8226   9.668   8.955   5.190 -0.6727  0.9168  1.7180
  820MOL0     H 8227   9.644   9.160   5.047 -0.1171 -0.6872  1.4151
  820MOL0     H 8228   9.654   9.532   4.743  0.7077  1.1111 -1.0350
  820MOL0     H 8229   9.604   9.654   4.550 -0.7830 -1.0441 -0.6966
  820MOL0     H 8230   9.458   9.797   4.305 -3.2299  0.3059 -3.9992
  820MOL0     H 8231   9.412   9.816   4.482 -1.2505 -0.0866  0.0205
  820MOL0     H 8232   9.269   9.927   4.285  0.0132 -0.6568  1.9404
  820MOL0     H 8233   9.216   9.763   4.258  2.2374 -0.3621 -1.8683
  820MOL0     H 8234   9.162   9.948   4.507  0.9294  0.2708 -1.4649
  820MOL0     H 8235   9.143   9.774   4.519  1.2159  1.4192  0.4879
  820MOL0     H 8236   8.948   9.937   4.453 -0.8799 -0.4269  0.0301
  820MOL0     H 8237   9.025   9.928   4.285  0.6478  1.5435  1.0652
  820MOL0     H 8238   8.865   9.529   4.355 -3.8293  0.8942  1.5679
  820MOL0     H 8239   9.212   9.445   4.520  0.3956  0.5937 -2.4997
  820MOL0     H 8240   9.273   9.333   4.708  0.9353 -1.8871 -3.7128
  821MOL0     O 8241   8.541  10.090   5.425 -0.3999  0.2739 -0.0031
  821MOL0     C 8242   8.571  10.079   5.303  0.2238 -0.0518 -0.5968
  821MOL0     O 8243   8.689  10.093   5.249 -0.3610  0.0448 -0.5778
  821MOL0     C 8244   8.783  10.156   5.328 -0.1139  0.9002 -0.5044
  821MOL0     C 8245   8.880  10.094   5.410  0.5313 -0.6090 -1.1841
  821MOL0     C 8246   8.987  10.174   5.456  0.0862 -0.4743  0.8572
  821MOL0     C 8247   8.994  10.308   5.427 -0.8736  0.2119 -0.4655
  821MOL0     O 8248   9.103  10.381   5.466  1.5147 -0.9104  0.2129
  821MOL0     C 8249   9.226  10.348   5.399  0.4823 -0.6212 -0.5807
  821MOL0     C 8250   9.311  10.472   5.414 -0.1674 -0.0746 -0.0899
  821MOL0     C 8251   9.444  10.462   5.338  0.7619  0.1309  0.5628
  821MOL0     C 8252   9.500  10.608   5.321  0.1774  0.3058 -0.6826
  821MOL0     C 8253   9.618  10.618   5.218 -0.2184 -0.3729  0.0850
  821MOL0     C 8254   9.751  10.555   5.281  0.4279  0.7490  0.6267
  821MOL0     C 8255   9.871  10.550   5.183  0.4630 -0.4711  0.6563
  821MOL0     C 8256   9.903  10.689   5.121 -0.7596 -0.6370 -0.2847
  821MOL0     N 8257  10.033  10.689   5.045  0.3719 -0.0399 -0.5027
  821MOL0     C 8258  10.105  10.583   4.992 -0.3644 -0.0333  1.2151
  821MOL0     C 8259  10.202  10.639   4.915  0.9342  0.0837 -0.3219
  821MOL0     C 8260  10.319  10.563   4.859  0.6456 -0.0311  0.5009
  821MOL0     C 8261  10.424  10.528   4.960 -0.8400  0.0727 -1.3346
  821MOL0     C 8262  10.485  10.641   5.055  0.2051 -0.6253 -0.2370
  821MOL0     C 8263  10.544  10.739   4.956  1.1415  0.1655 -0.7419
  821MOL0     O 8264  10.617  10.707   4.839  0.3414 -0.4449 -0.3565
  821MOL0     C 8265  10.655  10.804   4.767  0.4482 -0.6984  0.3682
  821MOL0     C 8266  10.729  10.778   4.655 -0.5273  0.1430 -0.8713
  821MOL0     C 8267  10.782  10.877   4.576 -0.1680  0.1862 -1.2348
  821MOL0     C 8268  10.755  11.008   4.603  0.1645 -0.4505  0.2197
  821MOL0     C 8269  10.826  11.114   4.527  0.0538 -0.8916 -0.5262
  821MOL0     O 8270  10.863  11.072   4.405  0.5422 -0.2314  0.0255
  821MOL0     C 8271  10.901  11.162   4.311 -0.3574  0.1096 -0.4782
  821MOL0     C 8272  10.800  11.248   4.262  0.3064  0.0494 -0.0898
  821MOL0     C 8273  10.834  11.353   4.165  1.3679 -0.1875 -0.3514
  821MOL0     C 8274  10.974  11.378   4.146  0.0318  0.8321  0.8330
  821MOL0     O 8275  11.023  11.478   4.069 -0.5905 -0.1209 -0.0897
  821MOL0     C 8276  10.927  11.556   3.987  1.0363 -0.0096  0.0727
  821MOL0     C 8277  10.980  11.643   3.879 -0.6889  0.4378  0.2884
  821MOL0     C 8278  10.870  11.724   3.802  0.1259 -0.3501 -0.3911
  821MOL0     C 8279  10.916  11.845   3.706  0.2944  0.6838 -0.4396
  821MOL0     C 8280  10.984  11.781   3.579 -0.8068 -0.2037  0.2513
  821MOL0     C 8281  11.010  11.888   3.457  1.4509 -0.1946  0.3249
  821MOL0     C 8282  11.061  11.821   3.332  0.1976 -0.0326  0.2784
  821MOL0     C 8283  11.041  11.900   3.203 -0.6821  0.9330 -1.2984
  821MOL0    Cl 8284  11.097  11.813   3.067  0.0246 -0.2484 -0.0452
  821MOL0     C 8285  11.075  11.311   4.217 -0.4205 -0.3823 -0.4523
  821MOL0     C 8286  11.044  11.202   4.299 -0.5825 -0.5407 -0.1006
  821MOL0     O 8287  10.831  11.231   4.576 -0.1169 -0.1053 -0.0750
  821MOL0     C 8288  10.679  11.043   4.707  1.2910  0.1367 -0.2763
  821MOL0     C 8289  10.627  10.943   4.794 -0.5502  0.1250 -0.4036
  821MOL0     N 8290  10.186  10.770   4.922  0.7122 -0.4596 -1.2341
  821MOL0     N 8291  10.092  10.806   5.005 -0.3132  0.1785 -0.1699
  821MOL0     C 8292   8.888  10.372   5.362 -0.2900 -0.0667  0.9450
  821MOL0     C 8293   8.787  10.293   5.316 -0.8362  0.0904  1.5745
  821MOL0     C 8294   8.470  10.037   5.219 -0.4947  0.1341 -0.3496
  821MOL0     C 8295   8.401   9.918   5.251 -0.4174 -0.3666 -0.2226
  821MOL0     C 8296   8.278   9.901   5.190  0.1233 -0.3637  0.0430
  821MOL0     C 8297   8.238   9.985   5.089  0.1980  0.1098  0.8513
  821MOL0     O 8298   8.129   9.952   5.007 -0.0822 -0.2445 -0.6897
  821MOL0     C 8299   8.029   9.848   5.051  0.9823 -0.7161 -0.7339
  821MOL0     C 8300   7.969   9.879   5.187 -0.0912  0.1291  0.5006
  821MOL0     C 8301   7.880   9.777   5.241  0.3275 -0.1016  0.2936
  821MOL0     C 8302   7.831   9.798   5.385  0.2082  0.3930 -0.5036
  821MOL0     C 8303   7.759   9.678   5.436 -0.0828  0.4225 -0.1679
  821MOL0     C 8304   7.678   9.592   5.469 -0.0501  0.5849  0.2578
  821MOL0     C 8305   8.319  10.087   5.055 -0.1342 -0.6870 -0.0482
  821MOL0     C 8306   8.441  10.120   5.113  0.2622 -0.0624  0.9355
  821MOL0     H 8307   8.861  10.001   5.463 -3.8511  1.1677  0.8157
  821MOL0     H 8308   9.068  10.141   5.520  0.0847 -0.3239  0.9377
  821MOL0     H 8309   9.215  10.322   5.293  1.8279  0.7782 -1.0986
  821MOL0     H 8310   9.270  10.270   5.461  1.8080  0.7394  0.2510
  821MOL0     H 8311   9.315  10.508   5.518 -0.8694 -0.7257  0.1648
  821MOL0     H 8312   9.256  10.549   5.360 -1.7413 -0.7709  0.4705
  821MOL0     H 8313   9.444  10.401   5.248 -0.9225  1.4896 -0.4339
  821MOL0     H 8314   9.504  10.406   5.410  0.7351 -0.7182 -0.0721
  821MOL0     H 8315   9.421  10.657   5.263  0.1314  0.3401 -0.5885
  821MOL0     H 8316   9.530  10.656   5.414  2.8916  0.3903 -1.5188
  821MOL0     H 8317   9.643  10.720   5.188  0.2032 -0.6206 -0.4286
  821MOL0     H 8318   9.590  10.550   5.137 -2.0333 -3.2072  2.8593
  821MOL0     H 8319   9.732  10.452   5.310  2.1483 -0.4351 -2.0300
  821MOL0     H 8320   9.759  10.625   5.364 -1.8874  1.5044  0.2714
  821MOL0     H 8321   9.953  10.514   5.246 -1.1235 -3.2220  1.3517
  821MOL0     H 8322   9.856  10.474   5.105 -1.3978  1.5929 -1.1373
  821MOL0     H 8323   9.904  10.772   5.192  1.0221 -0.4814 -0.4615
  821MOL0     H 8324   9.818  10.719   5.058  0.3252  0.0904 -1.4548
  821MOL0     H 8325  10.084  10.479   5.011  0.6511 -1.8305 -5.2535
  821MOL0     H 8326  10.352  10.635   4.785 -1.6180 -0.1131 -0.6801
  821MOL0     H 8327  10.274  10.468   4.826  1.4432 -1.0105  2.0953
  821MOL0     H 8328  10.510  10.476   4.917 -1.0137 -1.4593  0.0739
  821MOL0     H 8329  10.392  10.450   5.029  3.4669  0.9055  2.1046
  821MOL0     H 8330  10.412  10.693   5.116  2.1408  1.7083  0.2535
  821MOL0     H 8331  10.561  10.612   5.128 -0.3277 -1.3637  0.0326
  821MOL0     H 8332  10.613  10.804   5.011 -0.3872 -0.9492  2.7983
  821MOL0     H 8333  10.457  10.798   4.926 -1.2782 -2.9633 -0.4972
  821MOL0     H 8334  10.759  10.674   4.656 -0.8035  0.0684 -0.4871
  821MOL0     H 8335  10.844  10.845   4.493  2.3051 -0.0625  0.5965
  821MOL0     H 8336  10.692  11.240   4.274  0.1686  1.8235  0.1402
  821MOL0     H 8337  10.757  11.413   4.117  2.1487  1.4274  0.3551
  821MOL0     H 8338  10.882  11.635   4.048  1.2176  2.6495 -2.9983
  821MOL0     H 8339  10.845  11.490   3.955  0.4515  0.6431  0.1899
  821MOL0     H 8340  11.019  11.575   3.803  0.3389  1.2738  0.0292
  821MOL0     H 8341  11.057  11.710   3.920 -1.0771  0.5928  0.7700
  821MOL0     H 8342  10.812  11.773   3.880  2.9850 -1.4258  2.6511
  821MOL0     H 8343  10.815  11.654   3.739  1.3022  1.1206 -3.2807
  821MOL0     H 8344  10.838  11.908   3.663 -0.3338  1.9453  2.3293
  821MOL0     H 8345  10.986  11.912   3.756  3.3732  0.6507 -4.2284
  821MOL0     H 8346  10.924  11.700   3.538  2.3398 -3.9041  2.2953
  821MOL0     H 8347  11.081  11.735   3.600 -1.7717 -1.6321  1.6897
  821MOL0     H 8348  11.086  11.958   3.495  1.1333 -0.0373  0.6721
  821MOL0     H 8349  10.914  11.938   3.445  0.8734 -1.4307 -0.3919
  821MOL0     H 8350  11.163  11.784   3.345  0.1360 -0.2383  0.1837
  821MOL0     H 8351  10.997  11.733   3.315  0.1058  0.4471 -2.2276
  821MOL0     H 8352  11.093  11.996   3.193  0.5914  0.0395 -4.5164
  821MOL0     H 8353  10.933  11.916   3.190 -0.0701  4.5377 -3.5056
  821MOL0     H 8354  11.182  11.328   4.226 -0.0040 -2.5352 -0.8459
  821MOL0     H 8355  11.118  11.147   4.358 -1.8138 -2.2752 -0.1084
  821MOL0     H 8356  10.666  11.147   4.736  0.6884  0.5642 -1.9993
  821MOL0     H 8357  10.585  10.976   4.889  0.1018 -0.7193  0.1879
  821MOL0     H 8358   8.889  10.480   5.362 -1.3172 -0.0199  2.6019
  821MOL0     H 8359   8.718  10.337   5.245 -0.4398 -2.9864 -0.9171
  821MOL0     H 8360   8.427   9.838   5.320  1.0572  0.8346  0.6654
  821MOL0     H 8361   8.224   9.809   5.214 -2.0340  1.5203  3.0489
  821MOL0     H 8362   8.072   9.748   5.055 -2.0746 -2.1922  4.0288
  821MOL0     H 8363   7.949   9.835   4.977  0.4598 -3.1353  0.1786
  821MOL0     H 8364   8.053   9.880   5.257  1.2034 -0.6098 -0.9756
  821MOL0     H 8365   7.924   9.977   5.172 -1.6923 -0.4376  1.2755
  821MOL0     H 8366   7.936   9.684   5.226  2.9494  1.5118 -0.5333
  821MOL0     H 8367   7.789   9.776   5.181  0.2585  2.6062  0.2587
  821MOL0     H 8368   7.902   9.838   5.458  1.3540  0.1338 -1.4600
  821MOL0     H 8369   7.756   9.877   5.387 -1.1512 -0.7190  3.3761
  821MOL0     H 8370   7.604   9.522   5.502  0.7494 -0.7785 -0.7363
  821MOL0     H 8371   8.291  10.153   4.973  1.4279  1.0555  0.7257
  821MOL0     H 8372   8.510  10.201   5.090  1.2291 -1.0383  0.2613
  822MOL0     O 8373   8.809   8.440   6.039 -0.1760  0.4583 -0.9051
  822MOL0     C 8374   8.698   8.395   6.041 -0.4008  0.2818 -0.0134
  822MOL0     O 8375   8.620   8.386   6.148 -0.1859 -0.1129  0.1497
  822MOL0     C 8376   8.667   8.413   6.273  0.8047 -0.2253 -0.0290
  822MOL0     C 8377   8.730   8.314   6.350 -0.5581 -1.0149  0.4145
  822MOL0     C 8378   8.794   8.346   6.474  0.3089 -0.9205 -0.1775
  822MOL0     C 8379   8.766   8.477   6.531 -0.9842 -1.0447 -0.0505
  822MOL0     O 8380   8.821   8.522   6.650  0.3446  0.7355  0.0640
  822MOL0     C 8381   8.857   8.417   6.739  0.2527  0.1957  0.7925
  822MOL0     C 8382   8.859   8.474   6.868  0.7088 -0.0214  0.5944
  822MOL0     C 8383   8.881   8.361   6.968  0.8772 -0.2328 -0.1818
  822MOL0     C 8384   8.830   8.404   7.110 -1.1222  0.6444  0.4560
  822MOL0     C 8385   8.860   8.290   7.211  0.2412  0.6985  0.0477
  822MOL0     C 8386   8.787   8.309   7.350 -0.8992  0.5074  0.5811
  822MOL0     C 8387   8.842   8.417   7.432  0.2979  0.0133  0.7595
  822MOL0     C 8388   8.725   8.514   7.478  0.7844  0.0373 -1.0571
  822MOL0     N 8389   8.596   8.456   7.518 -0.3841  0.2325  0.2513
  822MOL0     C 8390   8.473   8.490   7.458  0.6199 -0.9142 -0.6283
  822MOL0     C 8391   8.388   8.414   7.531 -0.3455 -0.6394 -0.7624
  822MOL0     C 8392   8.242   8.417   7.507 -0.1589 -0.1209  0.3140
  822MOL0     C 8393   8.176   8.292   7.434 -0.6784 -0.1556  0.0806
  822MOL0     C 8394   8.220   8.291   7.291  0.3999  0.7623  0.2963
  822MOL0     C 8395   8.362   8.236   7.251  0.2060 -0.5686 -1.1892
  822MOL0     O 8396   8.406   8.298   7.129 -0.5745 -0.1653  0.0559
  822MOL0     C 8397   8.480   8.216   7.044  1.2876 -0.4907  0.0506
  822MOL0     C 8398   8.460   8.248   6.907  0.0978 -0.8134  0.3579
  822MOL0     C 8399   8.511   8.152   6.809 -0.1363 -0.8111 -0.4044
  822MOL0     C 8400   8.584   8.040   6.851 -0.5758  0.5570  0.2102
  822MOL0     C 8401   8.641   7.948   6.748  1.0255 -0.3472  0.6856
  822MOL0     O 8402   8.598   7.962   6.619 -0.1101  0.0934  0.2409
  822MOL0     C 8403   8.593   7.851   6.539  0.1191 -0.0479 -0.1104
  822MOL0     C 8404   8.580   7.714   6.573  0.6062  0.4332 -0.9101
  822MOL0     C 8405   8.577   7.605   6.482  0.0769  0.1166 -0.6623
  822MOL0     C 8406   8.580   7.626   6.347 -0.0614 -0.8615  0.6625
  822MOL0     O 8407   8.576   7.515   6.270  0.9527  0.8640  0.2944
  822MOL0     C 8408   8.462   7.520   6.181  0.3941 -1.0681  0.2571
  822MOL0     C 8409   8.370   7.398   6.176 -0.2071 -0.8510  1.0134
  822MOL0     C 8410   8.444   7.269   6.128 -0.6809  0.1554 -0.7956
  822MOL0     C 8411   8.366   7.148   6.175  0.9845 -0.3434 -0.9323
  822MOL0     C 8412   8.447   7.026   6.199 -0.2459 -0.3934 -0.2032
  822MOL0     C 8413   8.366   6.930   6.282 -0.4412 -0.2517 -1.2845
  822MOL0     C 8414   8.449   6.805   6.339  0.4337  0.1223  0.3243
  822MOL0     C 8415   8.384   6.754   6.460  0.0574  0.7525 -0.2377
  822MOL0    Cl 8416   8.388   6.875   6.597 -0.3564 -0.4053  0.6039
  822MOL0     C 8417   8.610   7.763   6.301 -0.1218  0.9526 -0.4922
  822MOL0     C 8418   8.612   7.874   6.396  0.3928  0.2869 -0.2275
  822MOL0     O 8419   8.715   7.862   6.792 -0.2706  0.3479 -0.1484
  822MOL0     C 8420   8.599   8.015   6.982 -0.4509  0.6136 -0.6686
  822MOL0     C 8421   8.555   8.099   7.085  0.6213  0.4088 -0.2947
  822MOL0     N 8422   8.449   8.351   7.639  0.1619  0.1759  0.1012
  822MOL0     N 8423   8.578   8.378   7.632 -0.9057  0.2801  0.5296
  822MOL0     C 8424   8.699   8.577   6.452  0.7527  0.0137 -0.4559
  822MOL0     C 8425   8.652   8.552   6.320  0.0567  0.1475  1.0255
  822MOL0     C 8426   8.647   8.340   5.905 -0.1874 -0.3960 -0.1862
  822MOL0     C 8427   8.511   8.298   5.897 -0.3591  1.6877 -0.8861
  822MOL0     C 8428   8.455   8.246   5.773  0.4082  0.2732 -0.0420
  822MOL0     C 8429   8.531   8.251   5.663 -0.8147 -0.4398  0.0731
  822MOL0     O 8430   8.505   8.208   5.532 -0.0262 -0.1316  0.0032
  822MOL0     C 8431   8.384   8.136   5.505  0.4589 -0.8001 -0.3160
  822MOL0     C 8432   8.400   7.989   5.524  0.5280  0.0848  0.3859
  822MOL0     C 8433   8.473   7.915   5.412  0.4489 -0.2776  0.0133
  822MOL0     C 8434   8.496   7.776   5.448  0.3048 -0.4303 -0.1261
  822MOL0     C 8435   8.511   7.707   5.316 -0.5021  1.1805 -0.1599
  822MOL0     C 8436   8.550   7.654   5.212 -0.4588 -0.0062  0.1627
  822MOL0     C 8437   8.663   8.300   5.665 -0.0130  0.5803  0.9200
  822MOL0     C 8438   8.725   8.345   5.781 -0.6634 -0.3495 -1.4284
  822MOL0     H 8439   8.755   8.219   6.305  1.1964  0.5157 -2.1102
  822MOL0     H 8440   8.857   8.272   6.523 -0.0150 -2.5984 -2.1521
  822MOL0     H 8441   8.960   8.384   6.722  1.9120  5.3061 -0.7893
  822MOL0     H 8442   8.791   8.331   6.723  1.6566 -1.0124  1.1795
  822MOL0     H 8443   8.763   8.518   6.893  0.1944 -1.7630  1.8893
  822MOL0     H 8444   8.937   8.551   6.876  0.1655  0.7812 -1.2577
  822MOL0     H 8445   8.986   8.331   6.965  0.7047 -0.7840 -2.6066
  822MOL0     H 8446   8.829   8.271   6.933 -0.2824  1.0784 -2.0137
  822MOL0     H 8447   8.880   8.493   7.148 -1.7476 -0.1222  3.3170
  822MOL0     H 8448   8.721   8.412   7.100 -1.1298 -1.8613 -3.1955
  822MOL0     H 8449   8.968   8.284   7.222  0.4444 -3.9302 -2.0916
  822MOL0     H 8450   8.825   8.191   7.179  4.0558 -0.1279 -2.2086
  822MOL0     H 8451   8.810   8.217   7.405  3.6164  0.9421 -0.1876
  822MOL0     H 8452   8.679   8.315   7.329 -0.2379  4.1319 -2.8581
  822MOL0     H 8453   8.895   8.373   7.518 -0.9269 -1.6130  0.7265
  822MOL0     H 8454   8.911   8.488   7.386 -0.5529  0.6319  0.4160
  822MOL0     H 8455   8.696   8.578   7.394 -0.2887 -0.1192 -0.8188
  822MOL0     H 8456   8.755   8.572   7.566  0.5947 -1.2686 -0.1094
  822MOL0     H 8457   8.442   8.556   7.378  2.7996 -0.4682 -1.1682
  822MOL0     H 8458   8.201   8.506   7.458 -2.9353  2.2416  6.0179
  822MOL0     H 8459   8.187   8.432   7.600 -0.6540 -3.1792  0.6224
  822MOL0     H 8460   8.067   8.291   7.432 -0.6786 -1.1122 -1.1742
  822MOL0     H 8461   8.210   8.204   7.489 -1.5876 -1.0773 -0.7783
  822MOL0     H 8462   8.161   8.220   7.233  0.4966  1.3069 -0.4787
  822MOL0     H 8463   8.203   8.391   7.252  1.7479  0.6449 -0.6804
  822MOL0     H 8464   8.359   8.127   7.266 -1.8152 -0.2152  2.1530
  822MOL0     H 8465   8.436   8.249   7.330  0.4001 -1.0511 -1.2853
  822MOL0     H 8466   8.412   8.342   6.883 -1.3970 -2.5705 -4.9883
  822MOL0     H 8467   8.496   8.170   6.704 -0.2037  1.0074 -0.1155
  822MOL0     H 8468   8.591   7.690   6.679  1.6411  3.0763 -0.3587
  822MOL0     H 8469   8.567   7.505   6.522  3.0757 -0.3145 -0.7513
  822MOL0     H 8470   8.514   7.528   6.085  2.9469 -0.4379  1.5943
  822MOL0     H 8471   8.403   7.609   6.205 -0.5119 -1.3950 -0.6636
  822MOL0     H 8472   8.298   7.416   6.095 -0.4990 -1.3316  1.1577
  822MOL0     H 8473   8.322   7.395   6.275 -1.4739 -0.0536  0.4412
  822MOL0     H 8474   8.542   7.271   6.178 -1.4361  1.8219  0.7283
  822MOL0     H 8475   8.453   7.261   6.019 -1.9547  0.5347 -0.9409
  822MOL0     H 8476   8.313   7.166   6.269 -0.9398 -0.2505 -1.9709
  822MOL0     H 8477   8.287   7.128   6.102 -1.7079  1.5098  1.2963
  822MOL0     H 8478   8.530   7.039   6.269 -1.1554 -0.1362  0.8451
  822MOL0     H 8479   8.478   6.994   6.099 -0.7090  2.5032 -1.4015
  822MOL0     H 8480   8.278   6.898   6.224  0.0085 -0.3101 -1.9448
  822MOL0     H 8481   8.332   6.977   6.374  0.7319 -2.2849  0.2889
  822MOL0     H 8482   8.438   6.735   6.256  1.5035  1.4183 -0.9690
  822MOL0     H 8483   8.557   6.800   6.355  0.5441 -2.7308 -0.7480
  822MOL0     H 8484   8.424   6.662   6.504 -1.2434  0.3675  0.1894
  822MOL0     H 8485   8.285   6.713   6.438  0.5357 -1.7951  1.8312
  822MOL0     H 8486   8.615   7.796   6.198  3.1738 -0.4475 -0.8788
  822MOL0     H 8487   8.630   7.979   6.373 -3.3095  1.2264  0.5798
  822MOL0     H 8488   8.658   7.927   7.008 -0.4358  0.3024 -1.7331
  822MOL0     H 8489   8.565   8.073   7.190 -2.6908  0.5004  0.1739
  822MOL0     H 8490   8.699   8.678   6.491  1.6516  0.4076 -1.4370
  822MOL0     H 8491   8.614   8.631   6.256  0.7909 -3.2586 -4.2305
  822MOL0     H 8492   8.452   8.307   5.988 -1.2465  2.4170 -1.5132
  822MOL0     H 8493   8.357   8.199   5.765  0.1299  1.0154 -1.3238
  822MOL0     H 8494   8.346   8.144   5.403  0.4353 -2.7961 -0.5023
  822MOL0     H 8495   8.301   8.164   5.571 -1.2173  0.2805 -2.7358
  822MOL0     H 8496   8.461   7.969   5.613  1.2405  3.3289  0.7551
  822MOL0     H 8497   8.300   7.947   5.538  0.3983  0.1757 -0.2416
  822MOL0     H 8498   8.568   7.967   5.402  0.8256 -0.7625  0.9209
  822MOL0     H 8499   8.417   7.924   5.319 -1.0780 -1.5320  0.7656
  822MOL0     H 8500   8.584   7.775   5.513  2.1213  1.5434 -2.3856
  822MOL0     H 8501   8.416   7.731   5.507  1.4681 -1.8808  0.3905
  822MOL0     H 8502   8.590   7.602   5.127  1.0218  0.2046  0.7018
  822MOL0     H 8503   8.714   8.295   5.569  1.2901 -0.6496  1.6452
  822MOL0     H 8504   8.824   8.387   5.776 -1.0190  0.5073 -1.4725
  823MOL0     O 8505   3.450   2.531   2.445  0.3195  0.0415 -0.0262
  823MOL0     C 8506   3.370   2.591   2.365 -0.1478 -0.4843 -1.0661
  823MOL0     O 8507   3.332   2.549   2.244  0.5453 -0.1113 -0.6015
  823MOL0     C 8508   3.385   2.456   2.159 -0.7022 -0.5992 -0.8782
  823MOL0     C 8509   3.513   2.385   2.177  0.1354 -0.0127 -0.3567
  823MOL0     C 8510   3.568   2.325   2.069 -0.0822  1.1218 -0.1145
  823MOL0     C 8511   3.518   2.319   1.941  0.4291 -1.3012 -0.0102
  823MOL0     O 8512   3.590   2.255   1.833 -0.4147 -0.2194 -0.4432
  823MOL0     C 8513   3.527   2.194   1.719  0.7870  0.3738 -0.6522
  823MOL0     C 8514   3.559   2.047   1.747 -0.6213 -0.2610  0.1406
  823MOL0     C 8515   3.496   1.991   1.873 -0.4694  0.1517  0.4350
  823MOL0     C 8516   3.532   1.847   1.894 -0.4706 -0.2467 -0.2722
  823MOL0     C 8517   3.491   1.789   2.026 -0.1993 -0.0346  0.3237
  823MOL0     C 8518   3.500   1.645   2.041  0.4025 -0.0979  0.0597
  823MOL0     C 8519   3.454   1.589   2.178 -0.5812  0.0295 -0.7348
  823MOL0     C 8520   3.522   1.454   2.229 -1.0690  0.1536 -0.1046
  823MOL0     N 8521   3.504   1.351   2.126  0.3800 -0.3799  0.3230
  823MOL0     C 8522   3.388   1.294   2.082  0.6931 -0.0143 -0.8684
  823MOL0     C 8523   3.432   1.221   1.975 -1.2634  0.5035  1.3758
  823MOL0     C 8524   3.344   1.142   1.892 -0.5106 -0.2738 -0.3310
  823MOL0     C 8525   3.240   1.222   1.819  0.4241 -0.2964 -1.0317
  823MOL0     C 8526   3.286   1.324   1.717  0.8945  0.5777  0.3519
  823MOL0     C 8527   3.354   1.280   1.581  0.3568  0.4509 -0.0699
  823MOL0     O 8528   3.382   1.395   1.495 -0.1122 -0.1507 -0.3119
  823MOL0     C 8529   3.483   1.478   1.546 -0.3930  0.3269 -0.1281
  823MOL0     C 8530   3.492   1.609   1.497 -0.8057 -0.2305 -0.7655
  823MOL0     C 8531   3.591   1.693   1.535 -0.0143 -1.1299 -0.8928
  823MOL0     C 8532   3.696   1.654   1.622  1.0261  0.6067  0.6328
  823MOL0     C 8533   3.806   1.749   1.648 -0.3849  0.4621  0.5849
  823MOL0     O 8534   3.908   1.708   1.730  0.2221  0.6082  0.0731
  823MOL0     C 8535   3.997   1.796   1.777  1.1465 -0.3021  0.4041
  823MOL0     C 8536   4.136   1.774   1.799  0.5595  0.6240 -0.6458
  823MOL0     C 8537   4.223   1.880   1.846 -0.0602 -0.3220 -0.2289
  823MOL0     C 8538   4.173   2.005   1.881 -0.4419  0.9028  0.2252
  823MOL0     O 8539   4.256   2.094   1.942 -0.5953  0.9475  0.2943
  823MOL0     C 8540   4.359   2.042   2.037 -0.4465  0.2371 -0.2596
  823MOL0     C 8541   4.408   2.165   2.127 -0.0015  0.5247 -0.1508
  823MOL0     C 8542   4.511   2.146   2.237  0.9356 -0.3591  0.2192
  823MOL0     C 8543   4.628   2.059   2.201  0.4879 -0.5207 -0.5254
  823MOL0     C 8544   4.734   2.064   2.313  0.5428 -0.5002  0.6120
  823MOL0     C 8545   4.802   2.201   2.330  0.2530 -0.1472 -0.4854
  823MOL0     C 8546   4.837   2.273   2.197 -0.8633 -0.1813  0.4289
  823MOL0     C 8547   4.940   2.381   2.216  0.2803  1.0816  1.2347
  823MOL0    Cl 8548   4.898   2.482   2.363  0.2368  0.2409  0.0120
  823MOL0     C 8549   4.042   2.028   1.857  0.7085  0.8344 -1.0028
  823MOL0     C 8550   3.955   1.924   1.826  0.2348  0.0317 -0.0107
  823MOL0     O 8551   3.803   1.854   1.589 -0.0264 -0.5349  0.8478
  823MOL0     C 8552   3.696   1.520   1.666  0.2420 -0.4270 -0.6300
  823MOL0     C 8553   3.586   1.431   1.634  0.1299  0.1185 -0.8347
  823MOL0     N 8554   3.565   1.219   1.971 -0.2597  0.4478 -0.5573
  823MOL0     N 8555   3.602   1.323   2.049  0.8850  0.2404  1.2853
  823MOL0     C 8556   3.404   2.404   1.919 -0.5815  0.0885 -0.2921
  823MOL0     C 8557   3.341   2.474   2.019  0.2145 -0.8345 -0.8417
  823MOL0     C 8558   3.313   2.725   2.413  0.2075  1.1279  0.1949
  823MOL0     C 8559   3.227   2.790   2.320  0.1581  0.2321 -0.0258
  823MOL0     C 8560   3.187   2.927   2.343  0.1639  0.2272 -0.5635
  823MOL0     C 8561   3.219   2.987   2.469 -0.0797  0.9458  0.0022
  823MOL0     O 8562   3.144   3.105   2.501 -0.9588  0.0434  0.5043
  823MOL0     C 8563   3.207   3.202   2.584 -0.0027 -0.0424  0.4086
  823MOL0     C 8564   3.320   3.279   2.519  0.0085 -0.3891  0.0925
  823MOL0     C 8565   3.375   3.401   2.589 -0.3964  0.3889 -0.0472
  823MOL0     C 8566   3.484   3.465   2.500 -1.0697  0.2413  0.1514
  823MOL0     C 8567   3.549   3.573   2.570  0.1964  0.1504  0.5271
  823MOL0     C 8568   3.596   3.674   2.610  0.1538  0.7995 -0.0753
  823MOL0     C 8569   3.297   2.911   2.565  0.7056 -0.8262  0.3426
  823MOL0     C 8570   3.347   2.790   2.531 -0.7172  0.7860  0.1087
  823MOL0     H 8571   3.564   2.381   2.272 -2.4562  3.5924  1.4168
  823MOL0     H 8572   3.654   2.264   2.094  0.6662  1.3353 -2.0256
  823MOL0     H 8573   3.586   2.232   1.635  2.5053 -1.7793 -0.4997
  823MOL0     H 8574   3.418   2.201   1.720  0.4055 -1.4241  4.7858
  823MOL0     H 8575   3.667   2.047   1.761 -0.2732  2.5577 -1.6905
  823MOL0     H 8576   3.530   2.001   1.652  0.4635  0.9408 -0.8002
  823MOL0     H 8577   3.387   2.001   1.868 -0.5698  0.2354  2.2347
  823MOL0     H 8578   3.547   2.052   1.948  2.2156  0.4486 -1.4768
  823MOL0     H 8579   3.490   1.781   1.818 -1.2712  0.9457 -0.9081
  823MOL0     H 8580   3.642   1.842   1.892 -0.4205  0.4854  0.1911
  823MOL0     H 8581   3.384   1.807   2.044  0.7891  7.2049  2.2988
  823MOL0     H 8582   3.558   1.834   2.101  3.9609  0.1306 -3.1523
  823MOL0     H 8583   3.604   1.620   2.019  0.4220  1.1357 -1.4352
  823MOL0     H 8584   3.442   1.607   1.956  3.2119  3.3133 -3.7666
  823MOL0     H 8585   3.467   1.664   2.258 -0.1263 -1.2880  0.4702
  823MOL0     H 8586   3.345   1.582   2.166 -0.5701  1.3663 -1.8599
  823MOL0     H 8587   3.473   1.424   2.322 -2.3643 -1.0514 -1.1285
  823MOL0     H 8588   3.628   1.471   2.253 -0.6521 -3.8550  1.6390
  823MOL0     H 8589   3.287   1.305   2.120  1.0346  1.0568 -0.2131
  823MOL0     H 8590   3.294   1.070   1.957  0.3453 -1.0500 -0.5001
  823MOL0     H 8591   3.408   1.094   1.817  0.9992  1.2471 -0.0832
  823MOL0     H 8592   3.183   1.282   1.891  0.6154 -1.8581  0.4832
  823MOL0     H 8593   3.182   1.139   1.777  0.4630 -0.7511 -0.2059
  823MOL0     H 8594   3.191   1.368   1.685 -0.5738 -0.7818  2.5607
  823MOL0     H 8595   3.348   1.399   1.767  2.2001 -0.1217 -0.1622
  823MOL0     H 8596   3.290   1.206   1.531  3.7012 -0.8417 -2.7981
  823MOL0     H 8597   3.446   1.222   1.591 -0.7119 -2.2357 -3.5534
  823MOL0     H 8598   3.429   1.646   1.416 -0.8835 -1.0570 -1.1002
  823MOL0     H 8599   3.572   1.793   1.497 -0.1346 -1.5596 -2.0049
  823MOL0     H 8600   4.174   1.674   1.782 -2.8485 -0.7804 -0.9897
  823MOL0     H 8601   4.330   1.863   1.850 -0.3719 -2.3275  1.1824
  823MOL0     H 8602   4.445   2.000   1.984 -1.9505 -0.4808 -2.2679
  823MOL0     H 8603   4.309   1.983   2.114 -0.4417  1.4733  0.7252
  823MOL0     H 8604   4.315   2.192   2.178  0.4256  0.6339  0.5760
  823MOL0     H 8605   4.436   2.248   2.062 -0.0196 -0.6327 -1.6893
  823MOL0     H 8606   4.460   2.106   2.325 -0.6249  0.4836 -0.2563
  823MOL0     H 8607   4.541   2.250   2.252  1.7935 -0.1473 -2.3560
  823MOL0     H 8608   4.603   1.954   2.181  0.7455 -0.6124 -0.3669
  823MOL0     H 8609   4.682   2.083   2.109  2.3479  1.0827  0.9088
  823MOL0     H 8610   4.805   1.984   2.291 -0.6674 -0.9070 -2.2094
  823MOL0     H 8611   4.681   2.033   2.404 -0.5061 -2.9227 -0.7259
  823MOL0     H 8612   4.894   2.189   2.388  0.1325  2.3537  0.3380
  823MOL0     H 8613   4.736   2.270   2.384 -0.4055  1.0960 -2.7470
  823MOL0     H 8614   4.874   2.203   2.121  0.6477  0.7847  0.2366
  823MOL0     H 8615   4.748   2.321   2.155 -0.4250  1.2761  1.0939
  823MOL0     H 8616   4.938   2.438   2.123 -2.9766 -2.7919 -1.4118
  823MOL0     H 8617   5.038   2.335   2.234  0.4104  0.2334 -1.2322
  823MOL0     H 8618   3.983   2.119   1.865 -0.3417  0.0065  1.9528
  823MOL0     H 8619   3.853   1.962   1.825  1.3227  3.1587 -1.2142
  823MOL0     H 8620   3.773   1.471   1.724 -0.6615 -3.2045 -1.5977
  823MOL0     H 8621   3.592   1.333   1.681 -2.3039  0.4282  0.3123
  823MOL0     H 8622   3.371   2.413   1.815  3.2744 -0.7232 -1.7538
  823MOL0     H 8623   3.253   2.530   1.989  0.4101 -1.2007 -2.1631
  823MOL0     H 8624   3.208   2.736   2.227 -0.5416 -2.9296  1.7932
  823MOL0     H 8625   3.143   2.987   2.264 -1.3905  0.2145  0.2489
  823MOL0     H 8626   3.238   3.156   2.678 -1.8790  1.3704  1.8069
  823MOL0     H 8627   3.124   3.272   2.600 -1.3399 -0.9849 -1.9533
  823MOL0     H 8628   3.397   3.208   2.487  0.2035 -1.0308  1.9079
  823MOL0     H 8629   3.277   3.312   2.424  1.0980  4.0656  0.9428
  823MOL0     H 8630   3.423   3.367   2.682 -1.3913 -2.5747 -0.5198
  823MOL0     H 8631   3.300   3.478   2.611  0.6277  1.2274  0.6490
  823MOL0     H 8632   3.549   3.382   2.473 -1.0329  0.3182  0.0063
  823MOL0     H 8633   3.441   3.502   2.406 -0.9082 -1.1855 -0.5095
  823MOL0     H 8634   3.638   3.767   2.643 -0.4746  0.3700  2.0717
  823MOL0     H 8635   3.316   2.973   2.652  0.0743  1.1424 -0.8605
  823MOL0     H 8636   3.409   2.735   2.600  1.1021  1.4432 -0.9279
  824MOL0     O 8637   3.753   4.614   4.232 -0.4495  0.1182 -0.6724
  824MOL0     C 8638   3.804   4.634   4.345 -0.3774 -0.5791  0.3071
  824MOL0     O 8639   3.905   4.716   4.364 -1.2446  0.1916 -0.7050
  824MOL0     C 8640   3.952   4.788   4.264  0.1806  0.0695  0.2998
  824MOL0     C 8641   3.888   4.899   4.214  0.2902  0.4289  0.7046
  824MOL0     C 8642   3.947   4.981   4.124 -0.3671  0.0908  0.0554
  824MOL0     C 8643   4.072   4.953   4.073  1.4359 -1.3726  0.0212
  824MOL0     O 8644   4.131   5.041   3.991 -0.2078 -0.1227  1.0318
  824MOL0     C 8645   4.126   5.181   4.018 -0.1647 -1.2435 -0.4600
  824MOL0     C 8646   4.268   5.233   3.987 -0.4732 -0.6774 -0.3561
  824MOL0     C 8647   4.277   5.263   3.836  0.0741 -0.3128 -0.7234
  824MOL0     C 8648   4.417   5.321   3.804  0.3092 -0.2595  0.9414
  824MOL0     C 8649   4.440   5.321   3.651 -0.1237 -0.5827 -0.3583
  824MOL0     C 8650   4.354   5.426   3.570 -0.1316 -0.0325 -0.2328
  824MOL0     C 8651   4.368   5.422   3.416  0.5097  1.4076 -0.4740
  824MOL0     C 8652   4.284   5.300   3.360  0.2113  0.0079 -0.2977
  824MOL0     N 8653   4.266   5.294   3.218  0.1180 -0.0793  0.7371
  824MOL0     C 8654   4.358   5.233   3.138  0.1542  1.0057 -0.5470
  824MOL0     C 8655   4.336   5.262   3.010 -0.9118 -1.7037 -0.0850
  824MOL0     C 8656   4.414   5.233   2.889 -0.8137  0.1610 -0.7525
  824MOL0     C 8657   4.453   5.085   2.892  0.3384 -0.3928  0.3645
  824MOL0     C 8658   4.548   5.060   2.764  0.2662 -0.2906  0.3010
  824MOL0     C 8659   4.691   5.052   2.816 -0.3596  0.3330 -0.2586
  824MOL0     O 8660   4.745   5.175   2.863 -0.0469 -0.3127  0.8231
  824MOL0     C 8661   4.851   5.180   2.940  0.2215  0.2339  0.7613
  824MOL0     C 8662   4.888   5.305   2.984  1.2707  0.1606 -0.1002
  824MOL0     C 8663   4.998   5.325   3.061 -0.0394 -0.2553  0.4677
  824MOL0     C 8664   5.093   5.224   3.093  0.9534 -0.7693  0.2333
  824MOL0     C 8665   5.223   5.252   3.154 -0.3660  0.6539  0.6939
  824MOL0     O 8666   5.256   5.157   3.249 -0.3069  0.4880 -0.6616
  824MOL0     C 8667   5.353   5.183   3.336 -0.6105  0.7594  0.1285
  824MOL0     C 8668   5.454   5.087   3.359 -0.0350  0.8045 -0.7594
  824MOL0     C 8669   5.548   5.115   3.452 -0.5371  0.3920 -1.0534
  824MOL0     C 8670   5.562   5.244   3.517  0.4167  0.0318  0.3259
  824MOL0     O 8671   5.656   5.256   3.620  0.2269  0.1206  0.0095
  824MOL0     C 8672   5.709   5.398   3.647 -0.7635  0.6791 -0.0774
  824MOL0     C 8673   5.855   5.378   3.700  0.0214 -0.2667  0.2136
  824MOL0     C 8674   5.930   5.506   3.706  1.7331 -0.5970 -0.1331
  824MOL0     C 8675   6.076   5.505   3.748 -1.0638  0.0213  0.7306
  824MOL0     C 8676   6.117   5.644   3.795  0.1626  1.0668 -0.4676
  824MOL0     C 8677   6.255   5.651   3.877  0.9846  0.1994  1.0735
  824MOL0     C 8678   6.372   5.577   3.827  0.3246 -0.0143  0.0903
  824MOL0     C 8679   6.504   5.637   3.889  0.0592 -0.0818 -0.3517
  824MOL0    Cl 8680   6.526   5.587   4.062  0.0330  0.1200 -0.1353
  824MOL0     C 8681   5.473   5.346   3.476 -0.6913  0.3869 -0.4150
  824MOL0     C 8682   5.360   5.311   3.397 -0.5379 -0.7892 -0.3383
  824MOL0     O 8683   5.263   5.368   3.134  0.4275  0.4110 -0.2464
  824MOL0     C 8684   5.042   5.098   3.055 -1.1605  0.1660  0.7408
  824MOL0     C 8685   4.936   5.073   2.976  0.1765  0.5500  0.3695
  824MOL0     N 8686   4.237   5.357   3.011 -0.0665 -0.3664  0.1617
  824MOL0     N 8687   4.198   5.381   3.134  0.8215  0.4153 -0.3560
  824MOL0     C 8688   4.137   4.839   4.115  0.5079 -0.0755  0.0075
  824MOL0     C 8689   4.073   4.751   4.205 -0.2707  0.5975  0.7187
  824MOL0     C 8690   3.736   4.580   4.457 -0.2664  0.0521 -0.5697
  824MOL0     C 8691   3.629   4.487   4.449 -0.3017  1.2691  0.2560
  824MOL0     C 8692   3.567   4.433   4.563 -0.4811  0.3712  0.2909
  824MOL0     C 8693   3.604   4.465   4.691  0.4536  0.2975  0.3804
  824MOL0     O 8694   3.554   4.416   4.808  0.2034 -0.1046 -0.7872
  824MOL0     C 8695   3.507   4.285   4.810 -0.0837 -0.2325  0.4811
  824MOL0     C 8696   3.562   4.224   4.942  0.2838  0.7848 -0.3634
  824MOL0     C 8697   3.495   4.289   5.061 -0.3020 -0.0284 -0.2025
  824MOL0     C 8698   3.523   4.215   5.190 -0.5460  0.3492  0.7543
  824MOL0     C 8699   3.436   4.098   5.204  0.6461  0.1357  0.9577
  824MOL0     C 8700   3.344   4.014   5.214 -0.4144  0.3242 -0.0083
  824MOL0     C 8701   3.703   4.568   4.694  0.0474 -0.2965  0.9104
  824MOL0     C 8702   3.774   4.623   4.585 -0.1876  0.2238 -0.7108
  824MOL0     H 8703   3.793   4.924   4.260  0.7978 -0.0413  2.0870
  824MOL0     H 8704   3.904   5.074   4.088 -0.7749  0.6079  1.7884
  824MOL0     H 8705   4.123   5.183   4.127  0.4052  1.8788 -0.4013
  824MOL0     H 8706   4.050   5.237   3.963 -2.1511 -3.3590 -0.0182
  824MOL0     H 8707   4.347   5.165   4.022 -1.2331 -0.8522  1.1039
  824MOL0     H 8708   4.277   5.319   4.053 -2.4901 -0.6105 -0.1139
  824MOL0     H 8709   4.200   5.338   3.818  1.5160  1.4225 -0.0163
  824MOL0     H 8710   4.251   5.175   3.777  2.1057 -0.9222 -0.7815
  824MOL0     H 8711   4.423   5.424   3.839  3.1258  0.2470 -0.7745
  824MOL0     H 8712   4.494   5.257   3.848 -1.4449 -1.2735  2.6924
  824MOL0     H 8713   4.422   5.222   3.610 -3.8889  0.6222 -2.0976
  824MOL0     H 8714   4.544   5.350   3.639  0.0844  0.3127  2.7379
  824MOL0     H 8715   4.401   5.518   3.605  1.8757 -0.8773 -0.5396
  824MOL0     H 8716   4.248   5.417   3.598  0.2173 -2.7524  0.4909
  824MOL0     H 8717   4.328   5.518   3.383 -0.0509  0.5173 -2.5303
  824MOL0     H 8718   4.473   5.413   3.387  0.4492 -0.5322 -0.2197
  824MOL0     H 8719   4.188   5.323   3.407  0.8808 -0.2021  1.2398
  824MOL0     H 8720   4.317   5.202   3.396  0.4179 -0.1212 -0.8278
  824MOL0     H 8721   4.434   5.166   3.178 -2.3131 -1.1424  0.9023
  824MOL0     H 8722   4.509   5.285   2.881 -1.6995  1.9252 -0.2133
  824MOL0     H 8723   4.356   5.268   2.803 -1.9808 -0.0621 -0.0780
  824MOL0     H 8724   4.368   5.017   2.874  0.9772 -0.4107 -3.6353
  824MOL0     H 8725   4.498   5.052   2.985 -0.3895 -4.1147 -0.4285
  824MOL0     H 8726   4.543   4.968   2.704  1.9135 -0.2514  0.0400
  824MOL0     H 8727   4.539   5.140   2.690  1.8655 -1.3011 -1.0617
  824MOL0     H 8728   4.761   5.005   2.746  2.1666  0.8323  1.7725
  824MOL0     H 8729   4.688   4.973   2.892  0.2280 -0.4011 -0.9780
  824MOL0     H 8730   4.814   5.383   2.975 -1.9741 -2.8687 -2.2767
  824MOL0     H 8731   5.021   5.425   3.096  2.3097 -0.2381 -0.9148
  824MOL0     H 8732   5.452   4.993   3.305 -0.0151  0.0367  0.5345
  824MOL0     H 8733   5.610   5.031   3.482 -1.4867 -0.7190 -2.0967
  824MOL0     H 8734   5.639   5.442   3.719  0.7919 -0.6853  2.4391
  824MOL0     H 8735   5.719   5.458   3.556 -0.3087 -0.5275 -0.8424
  824MOL0     H 8736   5.909   5.317   3.627 -0.2233 -0.3295  0.0839
  824MOL0     H 8737   5.851   5.332   3.799 -2.5341  2.7033  1.6866
  824MOL0     H 8738   5.878   5.573   3.776  2.3179 -1.1050  0.8200
  824MOL0     H 8739   5.914   5.551   3.608  0.8839 -0.7425 -0.0706
  824MOL0     H 8740   6.086   5.445   3.839 -0.9287 -1.1189 -0.0136
  824MOL0     H 8741   6.138   5.457   3.672 -1.0099 -0.9945  1.3867
  824MOL0     H 8742   6.044   5.676   3.869 -2.3286 -1.0531 -1.8263
  824MOL0     H 8743   6.132   5.716   3.714  1.3017  0.5885 -0.7055
  824MOL0     H 8744   6.236   5.599   3.971  0.0551  0.9430  1.3095
  824MOL0     H 8745   6.276   5.757   3.895 -0.4580  0.2850  2.4428
  824MOL0     H 8746   6.347   5.470   3.833  1.6531 -0.2884  1.4799
  824MOL0     H 8747   6.375   5.603   3.721  0.9338 -0.3391  0.0255
  824MOL0     H 8748   6.517   5.745   3.883 -1.9726  0.1505 -1.1959
  824MOL0     H 8749   6.596   5.592   3.851 -0.0788  0.7599 -1.7500
  824MOL0     H 8750   5.483   5.446   3.517  0.7438  1.2090 -2.5990
  824MOL0     H 8751   5.267   5.364   3.380 -2.1770 -2.5192  2.4748
  824MOL0     H 8752   5.099   5.012   3.087 -1.7169 -0.0158  1.2699
  824MOL0     H 8753   4.905   4.970   2.959 -0.6547  1.3417 -4.1155
  824MOL0     H 8754   4.236   4.810   4.081 -0.0438  0.9160 -2.6372
  824MOL0     H 8755   4.131   4.668   4.245 -1.2085 -1.3648 -1.7593
  824MOL0     H 8756   3.587   4.459   4.353  1.0223  0.6736 -0.1628
  824MOL0     H 8757   3.491   4.357   4.563 -1.8679  1.7099  0.5780
  824MOL0     H 8758   3.543   4.223   4.727 -0.1758  1.9187 -1.2439
  824MOL0     H 8759   3.398   4.287   4.817 -0.6155  3.3756 -4.3557
  824MOL0     H 8760   3.533   4.119   4.947 -0.4948  1.0479  1.7220
  824MOL0     H 8761   3.671   4.226   4.948  0.5441 -2.9369 -1.3169
  824MOL0     H 8762   3.389   4.294   5.032  0.3173  2.4955 -2.3160
  824MOL0     H 8763   3.520   4.395   5.067 -0.4941  0.0019  0.1186
  824MOL0     H 8764   3.628   4.186   5.200 -0.9998 -2.3924 -1.2873
  824MOL0     H 8765   3.493   4.285   5.269  1.9229  2.7543 -0.2778
  824MOL0     H 8766   3.255   3.954   5.224  0.8886 -1.6856  0.1172
  824MOL0     H 8767   3.736   4.588   4.796 -3.9289  1.6739  2.0520
  824MOL0     H 8768   3.847   4.701   4.609  0.6773 -0.9415  0.6290
  825MOL0     O 8769   7.220   7.962   1.447 -1.1850 -0.5863  1.1906
  825MOL0     C 8770   7.280   7.856   1.446 -0.8426  0.9764 -0.2962
  825MOL0     O 8771   7.394   7.833   1.368 -0.7716  0.7045 -0.0333
  825MOL0     C 8772   7.463   7.947   1.332  0.7861  0.0020  0.2780
  825MOL0     C 8773   7.482   8.062   1.419 -0.5731 -0.4140  0.2739
  825MOL0     C 8774   7.553   8.176   1.373  0.1863 -1.1444  0.0152
  825MOL0     C 8775   7.607   8.165   1.246  0.1970 -1.1468 -0.8351
  825MOL0     O 8776   7.690   8.256   1.197 -0.1196 -0.4406 -0.4402
  825MOL0     C 8777   7.755   8.364   1.269 -0.0856 -0.5004 -0.3404
  825MOL0     C 8778   7.843   8.332   1.399  0.4954  0.8725  0.8307
  825MOL0     C 8779   7.944   8.220   1.371  0.2112  0.2933 -0.4904
  825MOL0     C 8780   8.062   8.198   1.467  0.2815  0.2353  0.5743
  825MOL0     C 8781   8.161   8.105   1.398  0.0517  0.0608  1.1629
  825MOL0     C 8782   8.266   8.034   1.489  0.1785  0.3287  0.0598
  825MOL0     C 8783   8.404   8.030   1.419  0.1855  0.2804 -0.3992
  825MOL0     C 8784   8.404   7.950   1.287  0.2806  0.1643 -0.2564
  825MOL0     N 8785   8.533   7.956   1.212 -0.6295  0.0366 -0.6110
  825MOL0     C 8786   8.653   7.976   1.271  0.6239  0.8225  0.8210
  825MOL0     C 8787   8.741   7.994   1.167  0.4105 -0.3540  0.3514
  825MOL0     C 8788   8.882   8.008   1.200 -0.1659  0.4066  0.3629
  825MOL0     C 8789   8.945   7.914   1.094 -0.4126 -0.7538 -0.7609
  825MOL0     C 8790   9.086   7.897   1.139 -0.0500  0.0781  0.2919
  825MOL0     C 8791   9.171   7.800   1.055 -0.6595 -0.9269  0.5358
  825MOL0     O 8792   9.227   7.877   0.944  0.3093 -0.4986  0.5433
  825MOL0     C 8793   9.344   7.845   0.903 -0.7716  0.8660 -0.3431
  825MOL0     C 8794   9.374   7.718   0.856 -0.0232 -0.7350  0.3913
  825MOL0     C 8795   9.504   7.684   0.814 -0.2439  0.0780 -0.3091
  825MOL0     C 8796   9.610   7.774   0.830  0.5463  0.8937  0.0266
  825MOL0     C 8797   9.748   7.727   0.801  0.6968 -0.2923  0.3882
  825MOL0     O 8798   9.845   7.815   0.822  0.5137 -0.0709  0.1727
  825MOL0     C 8799   9.978   7.786   0.811 -0.0759  0.5010 -0.9914
  825MOL0     C 8800  10.051   7.837   0.707 -0.8467 -1.1572 -0.3591
  825MOL0     C 8801  10.193   7.812   0.700 -0.5197  0.3392 -0.4298
  825MOL0     C 8802  10.253   7.737   0.810 -0.3820 -0.1227  1.2288
  825MOL0     O 8803  10.383   7.702   0.822 -0.1640 -0.8179 -0.9980
  825MOL0     C 8804  10.417   7.578   0.756 -0.6764 -0.5809 -0.4753
  825MOL0     C 8805  10.555   7.571   0.691 -0.3242 -0.8873  0.0157
  825MOL0     C 8806  10.595   7.432   0.669 -0.4457 -0.3550  0.1476
  825MOL0     C 8807  10.701   7.411   0.561  0.5352  0.8077  0.1435
  825MOL0     C 8808  10.839   7.456   0.596 -0.6187  0.2034 -0.2579
  825MOL0     C 8809  10.927   7.479   0.470  0.1633 -0.3655  0.6841
  825MOL0     C 8810  11.069   7.508   0.512 -0.2516  0.5324 -1.0436
  825MOL0     C 8811  11.144   7.578   0.404  0.2297 -0.0872  0.2860
  825MOL0    Cl 8812  11.305   7.615   0.465  0.5776 -0.2069 -0.0269
  825MOL0     C 8813  10.172   7.682   0.914  0.8824 -0.3141  1.0794
  825MOL0     C 8814  10.037   7.713   0.914  0.3520 -0.3108  0.6086
  825MOL0     O 8815   9.760   7.611   0.761 -0.4052 -0.3100 -0.0268
  825MOL0     C 8816   9.576   7.900   0.870  0.2321 -1.1095 -0.4243
  825MOL0     C 8817   9.449   7.937   0.901 -0.2153  0.1630 -0.3056
  825MOL0     N 8818   8.671   7.992   1.046 -0.4226 -0.4307 -0.5805
  825MOL0     N 8819   8.547   7.968   1.073 -0.1008  0.7600 -0.3902
  825MOL0     C 8820   7.594   8.060   1.161 -0.9446  0.3212 -0.2571
  825MOL0     C 8821   7.516   7.948   1.199 -0.4740 -0.1322  0.3550
  825MOL0     C 8822   7.225   7.742   1.524 -0.5937  0.2175  0.4135
  825MOL0     C 8823   7.295   7.620   1.528  0.2248 -0.0001  0.6051
  825MOL0     C 8824   7.243   7.505   1.576  1.0056  0.1756 -0.5826
  825MOL0     C 8825   7.113   7.515   1.638  0.1505  0.6026 -0.7069
  825MOL0     O 8826   7.056   7.402   1.695  1.0286  0.3118  1.0754
  825MOL0     C 8827   6.913   7.407   1.717 -0.1119 -0.1260  0.0771
  825MOL0     C 8828   6.851   7.269   1.755  0.4197  0.9532 -0.7287
  825MOL0     C 8829   6.711   7.277   1.806  0.0962 -0.0064 -0.8431
  825MOL0     C 8830   6.655   7.138   1.831  0.5776 -0.7600  0.1023
  825MOL0     C 8831   6.632   7.078   1.697  0.2313  0.4368  0.2276
  825MOL0     C 8832   6.625   7.031   1.579 -0.3186  1.2015 -0.5434
  825MOL0     C 8833   7.045   7.639   1.633 -1.4180 -0.0691  0.1076
  825MOL0     C 8834   7.095   7.750   1.574  0.3947 -0.5217  0.3189
  825MOL0     H 8835   7.457   8.053   1.524 -5.0091  0.7487 -0.4690
  825MOL0     H 8836   7.572   8.264   1.433 -1.2396  1.3014 -2.8031
  825MOL0     H 8837   7.695   8.455   1.275 -0.1650 -0.2738 -3.1775
  825MOL0     H 8838   7.829   8.399   1.197  0.6434 -1.6220 -0.1715
  825MOL0     H 8839   7.777   8.316   1.485 -1.3868  3.1254 -0.1049
  825MOL0     H 8840   7.903   8.419   1.425 -2.2304  2.6272  1.6682
  825MOL0     H 8841   7.989   8.252   1.276  0.4444  1.2472 -0.0719
  825MOL0     H 8842   7.895   8.124   1.355  1.6162 -0.6071  0.4798
  825MOL0     H 8843   8.115   8.294   1.471  0.9078 -0.1000  0.4202
  825MOL0     H 8844   8.039   8.167   1.569 -0.1120 -0.3694  0.3010
  825MOL0     H 8845   8.211   8.176   1.332 -3.3552  1.2380 -0.3749
  825MOL0     H 8846   8.104   8.041   1.330  1.0667 -0.7768  1.0699
  825MOL0     H 8847   8.229   7.931   1.497  0.5654  0.2544  0.9438
  825MOL0     H 8848   8.266   8.070   1.592 -0.1624 -4.3417  1.9377
  825MOL0     H 8849   8.430   8.135   1.403 -1.7378  1.3817  2.7070
  825MOL0     H 8850   8.479   7.994   1.491  0.7788  0.6674 -0.8093
  825MOL0     H 8851   8.331   7.990   1.217 -0.8879  0.1030  0.8847
  825MOL0     H 8852   8.380   7.845   1.306  1.3500  0.1744  1.4200
  825MOL0     H 8853   8.681   7.956   1.374  0.2511  1.3923  1.0335
  825MOL0     H 8854   8.911   7.980   1.302 -1.0898 -1.7295  0.0846
  825MOL0     H 8855   8.922   8.110   1.186  0.2106  0.2466  0.2487
  825MOL0     H 8856   8.943   7.961   0.996 -1.5813  0.5530 -0.1400
  825MOL0     H 8857   8.902   7.814   1.081 -0.6931 -0.3936 -3.0456
  825MOL0     H 8858   9.128   7.997   1.154  1.2938 -0.2492 -1.0377
  825MOL0     H 8859   9.084   7.846   1.236  2.2507 -0.4603  0.0940
  825MOL0     H 8860   9.121   7.712   1.013  0.3317 -1.2879  0.0873
  825MOL0     H 8861   9.256   7.769   1.115  4.1144 -0.1656 -4.9213
  825MOL0     H 8862   9.299   7.641   0.840  1.3291 -1.9544 -0.3173
  825MOL0     H 8863   9.506   7.583   0.776 -1.6052  0.6550 -2.0634
  825MOL0     H 8864  10.008   7.894   0.626 -3.5663 -1.8876  0.4598
  825MOL0     H 8865  10.255   7.870   0.632 -1.4675  3.9497  1.4951
  825MOL0     H 8866  10.337   7.558   0.683 -1.0590 -1.3313  0.1366
  825MOL0     H 8867  10.401   7.509   0.839 -1.1583  3.5314  3.1783
  825MOL0     H 8868  10.625   7.631   0.749 -1.1633  2.4111 -2.0962
  825MOL0     H 8869  10.557   7.635   0.602 -0.7954  1.4527  1.6025
  825MOL0     H 8870  10.504   7.380   0.636  1.1063 -2.0773 -1.6403
  825MOL0     H 8871  10.640   7.387   0.758 -0.0486 -2.6537 -1.1364
  825MOL0     H 8872  10.713   7.305   0.537  1.5298  1.2975 -1.7494
  825MOL0     H 8873  10.665   7.462   0.472 -0.2028  1.0439  0.5672
  825MOL0     H 8874  10.889   7.379   0.656 -1.8678 -1.1226 -0.8745
  825MOL0     H 8875  10.836   7.549   0.655  1.6133  0.0693  0.1798
  825MOL0     H 8876  10.888   7.564   0.413 -0.0142 -0.5731  0.4943
  825MOL0     H 8877  10.926   7.393   0.403  1.3078 -0.4242  0.7228
  825MOL0     H 8878  11.074   7.569   0.603  1.0243 -0.5737 -0.3268
  825MOL0     H 8879  11.113   7.416   0.552 -0.3238  0.4535 -1.1435
  825MOL0     H 8880  11.083   7.665   0.376 -2.4546 -2.4447 -1.7928
  825MOL0     H 8881  11.157   7.520   0.312  3.2358  1.1567 -0.1818
  825MOL0     H 8882  10.219   7.613   0.983  3.1978 -2.2608 -2.1341
  825MOL0     H 8883   9.975   7.681   0.998  0.3541  0.8856  1.0855
  825MOL0     H 8884   9.657   7.970   0.886 -2.7106  2.4209  0.2839
  825MOL0     H 8885   9.427   8.038   0.934  1.1504 -0.6894  3.9138
  825MOL0     H 8886   7.631   8.077   1.060 -1.7288  2.1883 -0.2704
  825MOL0     H 8887   7.492   7.864   1.135  0.0347 -0.6388  0.8168
  825MOL0     H 8888   7.399   7.621   1.496  0.7146 -0.4981  2.0871
  825MOL0     H 8889   7.293   7.409   1.580  0.7202 -0.1694 -3.1848
  825MOL0     H 8890   6.875   7.418   1.615  1.7680 -1.4498 -0.8151
  825MOL0     H 8891   6.890   7.486   1.789 -1.1380 -1.4953  1.3081
  825MOL0     H 8892   6.869   7.206   1.667  2.1203 -1.7387  1.3780
  825MOL0     H 8893   6.921   7.228   1.828 -0.3140  2.7363  1.0662
  825MOL0     H 8894   6.642   7.327   1.738 -3.2539 -0.9732  1.5338
  825MOL0     H 8895   6.703   7.330   1.902 -0.4773  0.5625 -1.1962
  825MOL0     H 8896   6.728   7.078   1.887 -0.2476 -2.3429 -0.4580
  825MOL0     H 8897   6.562   7.133   1.889  0.8330  0.6721  0.6634
  825MOL0     H 8898   6.615   6.992   1.479  0.8363  3.1575 -1.4867
  825MOL0     H 8899   6.950   7.641   1.686  1.1289  1.2259  5.3521
  825MOL0     H 8900   7.035   7.841   1.563 -0.2941 -0.4037  3.8919
  826MOL0     O 8901   3.426   2.366   8.195 -0.3462 -0.7311  0.1821
  826MOL0     C 8902   3.536   2.316   8.170  0.1777 -0.3704  0.1278
  826MOL0     O 8903   3.654   2.365   8.223  0.4631 -0.5246 -0.2337
  826MOL0     C 8904   3.669   2.488   8.295  0.4755 -0.5836  0.9656
  826MOL0     C 8905   3.575   2.559   8.359  0.9251  0.7917 -0.9321
  826MOL0     C 8906   3.617   2.668   8.441  0.5618 -0.5144  0.0106
  826MOL0     C 8907   3.750   2.706   8.449  0.0350  0.2748  0.0137
  826MOL0     O 8908   3.779   2.829   8.508 -0.0519  0.0692  0.4430
  826MOL0     C 8909   3.865   2.914   8.439 -0.8281 -0.8051  0.2948
  826MOL0     C 8910   3.831   3.061   8.472 -0.3932 -0.0926 -1.3493
  826MOL0     C 8911   3.932   3.160   8.414 -1.0631  0.2319  0.1230
  826MOL0     C 8912   3.900   3.315   8.453 -0.0682  0.0766  0.4974
  826MOL0     C 8913   4.033   3.395   8.449  0.2479 -0.6524  0.1936
  826MOL0     C 8914   4.092   3.407   8.307 -0.2399 -0.7603  0.1055
  826MOL0     C 8915   4.217   3.506   8.307  0.1784  0.1724 -0.5099
  826MOL0     C 8916   4.343   3.437   8.353 -0.1987 -0.2223 -0.3112
  826MOL0     N 8917   4.468   3.513   8.339 -0.7306  1.4001  0.2903
  826MOL0     C 8918   4.542   3.565   8.432 -0.0289  0.6215  0.6311
  826MOL0     C 8919   4.664   3.607   8.375 -0.4026  0.1709  0.1610
  826MOL0     C 8920   4.774   3.672   8.444 -1.4713  0.0469 -0.5984
  826MOL0     C 8921   4.869   3.754   8.346 -1.6921  1.2110  0.2318
  826MOL0     C 8922   4.781   3.861   8.269 -0.6218  0.0222 -0.1511
  826MOL0     C 8923   4.878   3.951   8.195 -0.3971 -0.8599 -0.3073
  826MOL0     O 8924   4.808   4.024   8.087  0.0795 -0.5204  0.1983
  826MOL0     C 8925   4.822   4.157   8.075 -0.4505 -0.1459 -0.5070
  826MOL0     C 8926   4.717   4.251   8.071  0.2586  0.0476  0.4375
  826MOL0     C 8927   4.726   4.384   8.058  0.0659 -0.2907 -0.0765
  826MOL0     C 8928   4.852   4.443   8.075  0.3503 -1.2159  0.3493
  826MOL0     C 8929   4.862   4.589   8.072 -0.1851 -0.5592  0.9239
  826MOL0     O 8930   4.986   4.645   8.118 -0.6641  0.4300 -0.0302
  826MOL0     C 8931   4.984   4.783   8.136  0.0808 -0.3584 -0.6475
  826MOL0     C 8932   4.982   4.818   8.272 -0.1181 -0.2983  0.4045
  826MOL0     C 8933   4.973   4.959   8.306  1.2474 -0.4318  0.6571
  826MOL0     C 8934   4.968   5.050   8.199 -0.9071  0.8600 -0.5381
  826MOL0     O 8935   4.954   5.186   8.212 -0.1255  0.1865 -0.3552
  826MOL0     C 8936   4.881   5.225   8.327  0.3179  0.6082  0.1058
  826MOL0     C 8937   4.851   5.369   8.329  0.0004 -0.6361  0.1792
  826MOL0     C 8938   4.962   5.468   8.336  0.7400 -0.4788  0.0547
  826MOL0     C 8939   5.048   5.449   8.461 -0.0101  0.3441  0.3586
  826MOL0     C 8940   5.133   5.581   8.484  0.7653  0.8985  0.2279
  826MOL0     C 8941   5.214   5.586   8.611  0.0175 -0.4863  0.6664
  826MOL0     C 8942   5.300   5.715   8.630 -0.2882 -0.7504 -0.6452
  826MOL0     C 8943   5.429   5.680   8.720  0.5637 -0.8834  0.6929
  826MOL0    Cl 8944   5.517   5.848   8.737 -0.1390 -0.1246  0.0083
  826MOL0     C 8945   4.988   5.014   8.070 -0.1817  0.1058 -1.8020
  826MOL0     C 8946   5.003   4.880   8.033 -0.9185  0.4490 -0.8443
  826MOL0     O 8947   4.778   4.653   8.003 -0.1927  0.5014  0.2193
  826MOL0     C 8948   4.968   4.360   8.082  0.4960  0.1240  0.7993
  826MOL0     C 8949   4.950   4.221   8.078  0.4402  0.7746  0.5288
  826MOL0     N 8950   4.665   3.551   8.245  0.1543  0.4352 -0.2767
  826MOL0     N 8951   4.550   3.499   8.228  0.1385 -0.6129  0.3239
  826MOL0     C 8952   3.847   2.639   8.368 -0.8364  0.3556  0.4096
  826MOL0     C 8953   3.802   2.531   8.299  0.0733 -0.5100 -0.2975
  826MOL0     C 8954   3.547   2.188   8.094 -0.0408  0.0870 -0.1779
  826MOL0     C 8955   3.449   2.129   8.012 -0.8583 -0.2371 -0.2062
  826MOL0     C 8956   3.463   2.009   7.940 -0.9500 -0.3292  0.3201
  826MOL0     C 8957   3.578   1.933   7.962  0.1321  0.3089  0.5719
  826MOL0     O 8958   3.595   1.811   7.911  0.1622  0.5929 -0.3356
  826MOL0     C 8959   3.500   1.743   7.830  0.2180 -1.1023 -0.3792
  826MOL0     C 8960   3.526   1.815   7.691  1.1491  0.6641 -0.1076
  826MOL0     C 8961   3.437   1.744   7.579 -0.0991 -0.6322  0.1037
  826MOL0     C 8962   3.440   1.833   7.448  0.2890 -0.4359  0.9552
  826MOL0     C 8963   3.389   1.759   7.332 -0.0111  0.0736 -0.1447
  826MOL0     C 8964   3.351   1.693   7.234 -0.9624  0.0029  0.1361
  826MOL0     C 8965   3.681   1.982   8.052 -0.1116  0.5963  0.6418
  826MOL0     C 8966   3.660   2.103   8.123  0.4843 -0.1984 -0.0534
  826MOL0     H 8967   3.469   2.536   8.347  1.1876 -1.9307  1.1980
  826MOL0     H 8968   3.547   2.733   8.494  1.3345 -0.5970  1.1789
  826MOL0     H 8969   3.863   2.904   8.330 -1.5161  0.5060  0.1729
  826MOL0     H 8970   3.964   2.882   8.472 -2.0227 -3.6414  1.4257
  826MOL0     H 8971   3.831   3.074   8.581  5.0886  0.8608 -1.1635
  826MOL0     H 8972   3.733   3.079   8.428 -0.6996 -0.2331 -0.7386
  826MOL0     H 8973   3.929   3.147   8.306  0.1936  3.4818 -0.4321
  826MOL0     H 8974   4.038   3.144   8.439  0.2606  1.2431 -4.1274
  826MOL0     H 8975   3.825   3.353   8.383 -0.0720  4.1006  2.3928
  826MOL0     H 8976   3.854   3.316   8.552 -4.4615  1.8299 -1.3007
  826MOL0     H 8977   4.099   3.351   8.525 -0.7734 -2.8444 -0.1222
  826MOL0     H 8978   4.018   3.496   8.490  1.5779 -1.1803  2.0924
  826MOL0     H 8979   4.012   3.448   8.246 -0.0944  1.2350  1.1822
  826MOL0     H 8980   4.129   3.311   8.269  0.2540 -0.1028 -1.1381
  826MOL0     H 8981   4.232   3.535   8.203 -0.1254  1.6356 -0.1583
  826MOL0     H 8982   4.197   3.596   8.366 -4.2625  0.2729 -1.7685
  826MOL0     H 8983   4.336   3.340   8.303  1.1922 -0.6405  0.2631
  826MOL0     H 8984   4.329   3.412   8.459 -1.3857  2.7645  0.3344
  826MOL0     H 8985   4.512   3.580   8.535 -0.7789  0.2338  0.4797
  826MOL0     H 8986   4.832   3.599   8.502 -1.5814  0.9916  0.7571
  826MOL0     H 8987   4.748   3.741   8.525  1.7630 -1.6345  2.1302
  826MOL0     H 8988   4.906   3.689   8.266 -1.1271 -0.3029  1.6615
  826MOL0     H 8989   4.956   3.802   8.391  0.4180  0.6545 -2.9408
  826MOL0     H 8990   4.707   3.815   8.202  1.5247  0.7945 -3.2593
  826MOL0     H 8991   4.725   3.918   8.344  1.5063  1.2468  0.5788
  826MOL0     H 8992   4.967   3.905   8.151  1.1511  0.4349  1.3080
  826MOL0     H 8993   4.921   4.020   8.268  1.0608 -2.0940  0.0530
  826MOL0     H 8994   4.624   4.196   8.066 -0.7980  1.8104 -0.4187
  826MOL0     H 8995   4.635   4.443   8.063  0.2112 -0.1439  2.3847
  826MOL0     H 8996   5.002   4.734   8.337  0.5559 -0.3944  0.0801
  826MOL0     H 8997   4.983   4.992   8.408  0.2758  3.3490 -0.3046
  826MOL0     H 8998   4.926   5.200   8.423 -0.6461  2.0927  0.9766
  826MOL0     H 8999   4.783   5.176   8.332 -0.2540  1.7375  0.0983
  826MOL0     H 9000   4.794   5.388   8.421  1.6131  2.5634  0.6503
  826MOL0     H 9001   4.794   5.384   8.236 -0.4400 -1.0367  0.3799
  826MOL0     H 9002   4.923   5.570   8.341 -1.3719 -1.2888  1.0610
  826MOL0     H 9003   5.034   5.476   8.254 -0.9227  2.8582 -1.2934
  826MOL0     H 9004   4.974   5.439   8.541  1.6310 -1.6927  1.7506
  826MOL0     H 9005   5.112   5.364   8.434 -0.8314  0.4350 -2.1205
  826MOL0     H 9006   5.059   5.661   8.482  0.1916  0.4033  1.1679
  826MOL0     H 9007   5.212   5.602   8.411  0.3260  1.1280 -0.1872
  826MOL0     H 9008   5.283   5.502   8.600  1.5180  0.5549  1.7142
  826MOL0     H 9009   5.139   5.578   8.690 -0.6299 -4.4359 -0.1243
  826MOL0     H 9010   5.328   5.752   8.531 -1.5403 -0.9681 -1.0956
  826MOL0     H 9011   5.247   5.798   8.678  1.5386 -1.0955  2.2040
  826MOL0     H 9012   5.487   5.604   8.668 -1.1298 -0.3820 -2.1417
  826MOL0     H 9013   5.408   5.651   8.823 -0.9271 -2.7013 -0.0610
  826MOL0     H 9014   5.003   5.097   8.002 -0.7935 -1.0612 -3.4348
  826MOL0     H 9015   5.027   4.834   7.937 -0.0232 -1.0164  0.0484
  826MOL0     H 9016   5.063   4.411   8.075 -0.9931  2.8509 -2.8625
  826MOL0     H 9017   5.037   4.157   8.087  0.1889  0.5964  1.9359
  826MOL0     H 9018   3.955   2.651   8.373 -0.2214 -2.3535 -2.8096
  826MOL0     H 9019   3.877   2.467   8.253 -1.5811 -2.9975  0.2770
  826MOL0     H 9020   3.356   2.184   8.009 -0.6115  0.1844 -0.2486
  826MOL0     H 9021   3.371   1.986   7.888  0.0548 -1.9227 -0.8407
  826MOL0     H 9022   3.396   1.744   7.863  1.4445  0.1298  4.1801
  826MOL0     H 9023   3.533   1.639   7.820  1.2830 -0.8619  0.3728
  826MOL0     H 9024   3.491   1.918   7.697  2.6898  1.3202 -1.7077
  826MOL0     H 9025   3.633   1.818   7.669  0.9373  0.2406 -1.2538
  826MOL0     H 9026   3.338   1.729   7.624  1.3946 -3.1459  2.9496
  826MOL0     H 9027   3.483   1.648   7.552 -2.3014 -1.3310 -1.4894
  826MOL0     H 9028   3.375   1.921   7.459  2.1257  1.2398 -0.6251
  826MOL0     H 9029   3.535   1.885   7.428 -0.0194  0.4355  1.6929
  826MOL0     H 9030   3.324   1.650   7.140 -0.4001  1.4544 -0.7259
  826MOL0     H 9031   3.756   1.911   8.084 -1.3951 -1.9096 -1.5554
  826MOL0     H 9032   3.742   2.134   8.188  0.0447  2.1680 -0.5591
  827MOL0     O 9033   3.470   3.870  10.128 -0.6937  0.2041  0.5478
  827MOL0     C 9034   3.401   3.768  10.113 -0.0768 -0.7751 -0.8052
  827MOL0     O 9035   3.431   3.659  10.039  0.3007  0.0139  0.1657
  827MOL0     C 9036   3.553   3.652   9.974 -0.0127 -1.2516  0.3046
  827MOL0     C 9037   3.627   3.545  10.019 -0.6610 -0.4756  0.0362
  827MOL0     C 9038   3.757   3.528   9.965  0.2453 -0.0812  0.3529
  827MOL0     C 9039   3.802   3.593   9.852  0.5016  0.3309 -0.0090
  827MOL0     O 9040   3.919   3.556   9.784 -0.6872  0.0320 -0.4634
  827MOL0     C 9041   3.950   3.617   9.655  0.0445  0.4321  0.6659
  827MOL0     C 9042   4.095   3.591   9.638 -1.1217  0.8268 -0.3357
  827MOL0     C 9043   4.147   3.656   9.504 -0.2920  0.1121 -0.3523
  827MOL0     C 9044   4.301   3.641   9.504  0.4096 -0.2078  0.4918
  827MOL0     C 9045   4.369   3.677   9.362  0.5368 -0.2994 -0.4865
  827MOL0     C 9046   4.344   3.582   9.249 -0.3710  0.0050  0.0226
  827MOL0     C 9047   4.377   3.648   9.109  0.0911 -0.6679 -0.5648
  827MOL0     C 9048   4.341   3.557   8.978 -0.6908 -0.7352 -0.4467
  827MOL0     N 9049   4.314   3.633   8.855  0.4376  0.4524  0.5869
  827MOL0     C 9050   4.370   3.761   8.817 -0.3677  0.3556 -0.5001
  827MOL0     C 9051   4.359   3.758   8.679 -0.3094 -0.2421 -0.2472
  827MOL0     C 9052   4.401   3.876   8.582 -0.1546  0.1691 -1.1609
  827MOL0     C 9053   4.447   4.005   8.643 -0.0299 -0.5979 -0.5194
  827MOL0     C 9054   4.463   4.114   8.527 -0.0506  0.4089  0.3908
  827MOL0     C 9055   4.534   4.232   8.592  0.3045  0.5503  0.6016
  827MOL0     O 9056   4.668   4.249   8.540 -1.2647 -0.1150 -0.3743
  827MOL0     C 9057   4.735   4.359   8.582 -0.3542  0.5862 -0.7418
  827MOL0     C 9058   4.855   4.396   8.513 -0.0067  0.6106 -0.1409
  827MOL0     C 9059   4.940   4.502   8.552  0.8518  0.2523  0.1101
  827MOL0     C 9060   4.906   4.573   8.670  0.9181 -0.4592  1.3020
  827MOL0     C 9061   4.989   4.684   8.720 -0.2306  0.3182  0.4066
  827MOL0     O 9062   5.102   4.711   8.660 -0.2646 -0.4539  0.7489
  827MOL0     C 9063   5.180   4.823   8.697  0.4492 -0.2867  0.6071
  827MOL0     C 9064   5.128   4.953   8.693  0.9413  0.8947  0.3624
  827MOL0     C 9065   5.218   5.059   8.689 -0.9760 -0.6584 -0.2244
  827MOL0     C 9066   5.363   5.044   8.714 -0.3745 -0.3317 -0.9120
  827MOL0     O 9067   5.454   5.150   8.688 -0.2088  0.7038 -0.0743
  827MOL0     C 9068   5.436   5.219   8.563  0.3357  0.2953  0.2905
  827MOL0     C 9069   5.546   5.320   8.538  0.0764 -0.1237 -1.4717
  827MOL0     C 9070   5.514   5.404   8.406 -0.3555 -0.2161 -0.6886
  827MOL0     C 9071   5.609   5.528   8.382 -0.0583  0.1617  0.0169
  827MOL0     C 9072   5.753   5.496   8.351  0.1291 -0.2580 -0.1766
  827MOL0     C 9073   5.819   5.625   8.306  0.6951 -0.1156  0.0387
  827MOL0     C 9074   5.969   5.592   8.322  0.0019  0.6005  1.3456
  827MOL0     C 9075   6.051   5.717   8.294 -0.7159  0.2449 -0.2429
  827MOL0    Cl 9076   6.207   5.670   8.316  0.4755 -0.1194  0.2941
  827MOL0     C 9077   5.402   4.904   8.745  1.0821 -0.0230 -0.5024
  827MOL0     C 9078   5.309   4.799   8.736  0.0719  0.6677  0.0776
  827MOL0     O 9079   4.929   4.762   8.796  0.2975 -0.6042  0.5777
  827MOL0     C 9080   4.778   4.553   8.726 -0.2605  0.1887 -0.2918
  827MOL0     C 9081   4.698   4.446   8.693 -0.4303  0.4714 -0.4300
  827MOL0     N 9082   4.301   3.643   8.640 -1.2045 -0.5429  0.0926
  827MOL0     N 9083   4.271   3.569   8.742 -0.9950  0.1869 -0.7228
  827MOL0     C 9084   3.718   3.689   9.799  0.5922  0.2861 -0.2265
  827MOL0     C 9085   3.598   3.727   9.861 -0.4102  0.9236  1.5487
  827MOL0     C 9086   3.281   3.754  10.186  0.5877 -0.3758  0.2074
  827MOL0     C 9087   3.239   3.879  10.234 -0.1651  0.8117 -0.3863
  827MOL0     C 9088   3.119   3.883  10.307  0.3829  0.0054  0.1308
  827MOL0     C 9089   3.043   3.768  10.326  0.2487 -0.7197 -0.1431
  827MOL0     O 9090   2.917   3.763  10.382 -0.8768  0.0651  0.2604
  827MOL0     C 9091   2.894   3.857  10.491 -0.0636  0.7172  0.0568
  827MOL0     C 9092   2.987   3.829  10.609  1.2458  0.5251  0.7953
  827MOL0     C 9093   2.918   3.716  10.692 -0.0745 -0.2774 -0.9660
  827MOL0     C 9094   2.991   3.681  10.821 -0.0199 -0.0628  0.2541
  827MOL0     C 9095   3.126   3.647  10.807 -0.2584 -0.4433 -0.2354
  827MOL0     C 9096   3.240   3.624  10.792 -0.6671  0.3516 -0.1550
  827MOL0     C 9097   3.079   3.645  10.274  0.6492  0.1606 -0.4691
  827MOL0     C 9098   3.200   3.637  10.202 -0.4313 -1.0681 -0.8033
  827MOL0     H 9099   3.602   3.488  10.108 -0.2117  1.4886  1.4826
  827MOL0     H 9100   3.832   3.464  10.008 -0.5413 -0.7672  0.7345
  827MOL0     H 9101   3.937   3.725   9.657 -2.0377  0.2044  1.8586
  827MOL0     H 9102   3.888   3.576   9.575 -2.5131  1.4120  2.0662
  827MOL0     H 9103   4.101   3.482   9.635  1.0418  0.6181  4.1552
  827MOL0     H 9104   4.150   3.626   9.726 -0.0692  0.8733 -1.0008
  827MOL0     H 9105   4.125   3.763   9.515 -3.2064 -0.4978  0.9672
  827MOL0     H 9106   4.093   3.615   9.418  0.8664  2.9159 -2.5737
  827MOL0     H 9107   4.335   3.714   9.578  0.5581  0.8576 -0.5911
  827MOL0     H 9108   4.323   3.538   9.532 -3.1451 -2.3545 -3.4865
  827MOL0     H 9109   4.477   3.682   9.378  0.6402 -1.1500 -0.8651
  827MOL0     H 9110   4.328   3.776   9.340 -1.4622 -0.4444  2.0425
  827MOL0     H 9111   4.237   3.561   9.250 -0.2183 -0.9845 -1.4260
  827MOL0     H 9112   4.393   3.485   9.257  0.2030  0.2809 -0.1277
  827MOL0     H 9113   4.308   3.731   9.091 -0.8118 -2.1031 -4.6505
  827MOL0     H 9114   4.481   3.676   9.094 -0.0800 -1.5155 -4.1125
  827MOL0     H 9115   4.257   3.496   9.011 -1.8531  0.3515 -1.2682
  827MOL0     H 9116   4.430   3.496   8.958  1.5842  2.0190  0.5523
  827MOL0     H 9117   4.429   3.828   8.878  0.6337  0.0882 -1.1507
  827MOL0     H 9118   4.308   3.896   8.529 -2.2901 -1.1303  1.7875
  827MOL0     H 9119   4.477   3.841   8.512  0.2612  0.2470 -0.7569
  827MOL0     H 9120   4.544   3.972   8.682  0.2023  1.6513  0.9892
  827MOL0     H 9121   4.375   4.036   8.720 -2.0755 -6.5630  0.5547
  827MOL0     H 9122   4.522   4.085   8.439  1.4753 -1.1983  1.8520
  827MOL0     H 9123   4.366   4.134   8.480 -0.0149 -2.5364 -1.1641
  827MOL0     H 9124   4.532   4.222   8.701  2.2896  0.8912  0.6935
  827MOL0     H 9125   4.480   4.324   8.567 -0.5993 -0.2159 -0.3878
  827MOL0     H 9126   4.876   4.335   8.426 -1.2898 -0.5051  0.3104
  827MOL0     H 9127   5.027   4.535   8.495  0.0977 -2.0674 -2.6159
  827MOL0     H 9128   5.021   4.972   8.684  0.8430  0.2257  0.0450
  827MOL0     H 9129   5.179   5.157   8.665  2.6526  0.8382 -0.7322
  827MOL0     H 9130   5.343   5.276   8.568  0.9640  1.2575  1.6755
  827MOL0     H 9131   5.437   5.146   8.482  3.6490  1.5420 -0.9524
  827MOL0     H 9132   5.630   5.251   8.527 -2.8348 -4.1906 -0.6713
  827MOL0     H 9133   5.570   5.384   8.623 -3.5540  2.2137 -1.9714
  827MOL0     H 9134   5.411   5.440   8.403 -1.3491 -2.2934  2.7811
  827MOL0     H 9135   5.521   5.331   8.325 -1.0246 -2.3410  1.0604
  827MOL0     H 9136   5.560   5.585   8.303 -1.2308  1.1890  1.4351
  827MOL0     H 9137   5.609   5.579   8.479  0.8755  0.1830  0.0147
  827MOL0     H 9138   5.763   5.420   8.273 -0.3335 -2.0491  1.4469
  827MOL0     H 9139   5.793   5.454   8.444 -1.2322 -0.5303  0.3200
  827MOL0     H 9140   5.790   5.704   8.376  3.2138  0.5548  0.4338
  827MOL0     H 9141   5.796   5.656   8.203 -2.0430  0.8238  0.8569
  827MOL0     H 9142   5.979   5.554   8.424 -1.4006 -3.1301  0.2578
  827MOL0     H 9143   5.998   5.514   8.251 -0.6259  0.7574  0.9100
  827MOL0     H 9144   6.019   5.788   8.371 -0.0815  0.6484 -0.3446
  827MOL0     H 9145   6.029   5.768   8.200  0.6771  1.3336 -0.0127
  827MOL0     H 9146   5.505   4.878   8.767  0.8546 -0.3610  0.1694
  827MOL0     H 9147   5.324   4.693   8.757 -3.7101 -0.3037 -1.3803
  827MOL0     H 9148   4.742   4.616   8.807  2.8362 -0.7523  1.9730
  827MOL0     H 9149   4.602   4.423   8.737  0.5725 -2.8799  0.3049
  827MOL0     H 9150   3.742   3.750   9.713  1.3234  1.6757  0.9321
  827MOL0     H 9151   3.552   3.802   9.797  1.5124  2.1236  1.4803
  827MOL0     H 9152   3.275   3.978  10.209 -0.7130  1.2417  0.5005
  827MOL0     H 9153   3.079   3.978  10.340 -2.4981  0.6474 -4.3970
  827MOL0     H 9154   2.788   3.870  10.516 -0.1488  3.6834 -1.3020
  827MOL0     H 9155   2.911   3.961  10.459 -1.8553  1.2190  0.6041
  827MOL0     H 9156   3.090   3.803  10.581  1.2425  0.0313  1.2196
  827MOL0     H 9157   2.999   3.922  10.666  0.6112  0.9258  0.2909
  827MOL0     H 9158   2.920   3.622  10.637  0.4412 -1.4931  1.0054
  827MOL0     H 9159   2.816   3.738  10.726  1.0654  0.9880  2.0313
  827MOL0     H 9160   2.987   3.770  10.886 -0.8429  0.7019 -0.8007
  827MOL0     H 9161   2.941   3.595  10.868  3.5334 -2.9061 -0.7563
  827MOL0     H 9162   3.344   3.601  10.777 -1.0314 -0.2869 -2.0518
  827MOL0     H 9163   3.014   3.560  10.286 -0.3933  0.2549 -4.3261
  827MOL0     H 9164   3.236   3.546  10.155 -0.7055 -0.5652 -2.0129
  828MOL0     O 9165   5.694   5.157   7.687  0.8544 -0.5601 -0.1222
  828MOL0     C 9166   5.681   5.127   7.570 -0.2379 -0.2273 -0.5109
  828MOL0     O 9167   5.629   5.009   7.521  0.4472  0.2037 -0.3160
  828MOL0     C 9168   5.615   4.909   7.609  1.1395  0.0643 -0.0723
  828MOL0     C 9169   5.724   4.823   7.629 -0.1489 -0.0325 -0.1323
  828MOL0     C 9170   5.714   4.710   7.707  0.2012  0.9425  0.1859
  828MOL0     C 9171   5.589   4.679   7.771 -0.2014 -0.5087 -0.2972
  828MOL0     O 9172   5.567   4.566   7.851  0.4953  0.1986  0.1660
  828MOL0     C 9173   5.591   4.434   7.793 -0.2157 -0.2930 -0.1483
  828MOL0     C 9174   5.478   4.428   7.688 -1.1399  0.1793  0.4992
  828MOL0     C 9175   5.444   4.291   7.634 -0.0016  0.4949  0.0755
  828MOL0     C 9176   5.564   4.203   7.601 -0.1098  0.2870  0.2465
  828MOL0     C 9177   5.624   4.237   7.457 -0.2806 -0.4974  0.2366
  828MOL0     C 9178   5.748   4.315   7.461  0.0829  0.3452 -0.6249
  828MOL0     C 9179   5.875   4.230   7.491  0.0626 -0.1001  0.2092
  828MOL0     C 9180   6.010   4.315   7.487  0.4737  0.7357  0.6389
  828MOL0     N 9181   6.127   4.237   7.528  0.6593 -1.2229  0.1597
  828MOL0     C 9182   6.173   4.127   7.458 -0.9387 -0.2062 -0.1129
  828MOL0     C 9183   6.287   4.082   7.529  0.1011  0.3895  0.0517
  828MOL0     C 9184   6.385   3.976   7.492 -0.0997 -0.3606 -0.4067
  828MOL0     C 9185   6.326   3.840   7.524  0.5325  0.4074 -0.8667
  828MOL0     C 9186   6.220   3.782   7.436 -0.1583  0.6688 -0.2369
  828MOL0     C 9187   6.194   3.639   7.472  0.1692  0.7232 -0.2817
  828MOL0     O 9188   6.128   3.642   7.605 -0.8622  0.3919 -0.3354
  828MOL0     C 9189   6.077   3.536   7.663 -0.8456  0.4649 -0.1492
  828MOL0     C 9190   6.089   3.403   7.615  0.4765 -0.0220  0.1027
  828MOL0     C 9191   6.023   3.296   7.681  0.4751 -0.0718  0.1249
  828MOL0     C 9192   5.960   3.319   7.805 -0.7290  0.1882 -0.0200
  828MOL0     C 9193   5.910   3.206   7.891  0.1354 -0.8898 -0.5202
  828MOL0     O 9194   5.906   3.090   7.826 -0.0508  0.3231  0.1894
  828MOL0     C 9195   5.882   2.965   7.877  0.4404 -0.2549 -0.0317
  828MOL0     C 9196   5.855   2.935   8.015 -0.3985 -0.2756  0.2061
  828MOL0     C 9197   5.824   2.804   8.052  0.1533  0.0721 -0.9481
  828MOL0     C 9198   5.791   2.705   7.966 -0.0159  0.6105 -0.2970
  828MOL0     O 9199   5.744   2.589   8.005 -0.2552 -0.1547  0.6204
  828MOL0     C 9200   5.686   2.575   8.136  0.2884  0.6965 -0.0239
  828MOL0     C 9201   5.590   2.452   8.130  0.3467 -0.6844 -0.2412
  828MOL0     C 9202   5.468   2.468   8.037  0.6748  0.3621  0.0443
  828MOL0     C 9203   5.360   2.351   8.020 -0.8225  0.1410 -0.5336
  828MOL0     C 9204   5.384   2.228   7.925 -0.9275 -0.2499 -0.0721
  828MOL0     C 9205   5.259   2.144   7.914 -1.0446 -0.2365 -0.6275
  828MOL0     C 9206   5.235   2.075   7.780 -0.6327 -0.5250  0.1184
  828MOL0     C 9207   5.120   1.976   7.806  0.5720 -0.3180 -0.3196
  828MOL0    Cl 9208   5.059   1.903   7.661  0.0543  0.0585  0.2661
  828MOL0     C 9209   5.821   2.723   7.828 -0.0883 -0.3353 -0.1045
  828MOL0     C 9210   5.867   2.857   7.781 -0.0823  0.1671 -0.2230
  828MOL0     O 9211   5.861   3.233   8.005 -0.8664 -0.1696  0.3639
  828MOL0     C 9212   5.959   3.450   7.859  0.0308  0.7621  0.5170
  828MOL0     C 9213   6.016   3.559   7.779 -0.8396  0.8739 -0.4206
  828MOL0     N 9214   6.298   4.172   7.639  0.3302  0.5308 -0.0966
  828MOL0     N 9215   6.212   4.262   7.628 -0.9530  0.7727 -0.7116
  828MOL0     C 9216   5.485   4.770   7.755  0.5708 -0.4052  0.1387
  828MOL0     C 9217   5.492   4.893   7.677 -0.0326 -0.1061 -0.3783
  828MOL0     C 9218   5.724   5.229   7.476 -0.4354  0.6550  0.7107
  828MOL0     C 9219   5.787   5.349   7.509 -0.0574 -0.6586  0.3639
  828MOL0     C 9220   5.819   5.456   7.424  0.4962 -0.1869 -0.8946
  828MOL0     C 9221   5.788   5.446   7.288  0.0659  0.6123 -0.0225
  828MOL0     O 9222   5.821   5.532   7.186  0.2862 -0.5724  0.0739
  828MOL0     C 9223   5.783   5.669   7.195 -0.4219  0.0736 -0.0457
  828MOL0     C 9224   5.694   5.704   7.078  1.3990 -0.3723  1.0013
  828MOL0     C 9225   5.662   5.859   7.072  0.1131  0.5251  0.3943
  828MOL0     C 9226   5.619   5.945   7.199 -0.1305 -0.6743  0.9756
  828MOL0     C 9227   5.479   5.978   7.204  0.4292  1.2071 -0.0579
  828MOL0     C 9228   5.360   5.998   7.214  0.3327 -0.1847 -0.9638
  828MOL0     C 9229   5.742   5.319   7.247  0.1668 -0.2635 -0.6364
  828MOL0     C 9230   5.702   5.222   7.330 -0.7636 -0.1115 -0.0883
  828MOL0     H 9231   5.821   4.842   7.584 -0.1114  0.8787  0.3100
  828MOL0     H 9232   5.796   4.639   7.716  2.3096  3.1383 -0.4386
  828MOL0     H 9233   5.579   4.350   7.863  1.7940  0.2611  0.9355
  828MOL0     H 9234   5.691   4.434   7.751  0.2526 -0.6304  0.9242
  828MOL0     H 9235   5.507   4.487   7.601 -2.8826 -0.8717 -0.8569
  828MOL0     H 9236   5.390   4.480   7.729 -0.1240  3.1158 -0.7945
  828MOL0     H 9237   5.379   4.310   7.548 -0.9897  0.7867  0.8653
  828MOL0     H 9238   5.374   4.242   7.702 -0.2575 -0.3496 -0.7764
  828MOL0     H 9239   5.635   4.200   7.684 -0.2127  1.7120  0.4201
  828MOL0     H 9240   5.518   4.104   7.596 -2.8178  1.3431  2.0927
  828MOL0     H 9241   5.536   4.263   7.396  1.5550  1.0614 -1.9236
  828MOL0     H 9242   5.652   4.143   7.408 -1.6558 -0.1949 -1.2364
  828MOL0     H 9243   5.741   4.399   7.532  1.3478  1.3697 -1.6581
  828MOL0     H 9244   5.774   4.360   7.365  2.2781  0.1547 -0.1709
  828MOL0     H 9245   5.866   4.184   7.590 -1.3417 -2.6930 -1.0355
  828MOL0     H 9246   5.874   4.155   7.412  2.2404  0.4186 -0.3617
  828MOL0     H 9247   5.998   4.401   7.554  1.5167  2.3279 -1.1404
  828MOL0     H 9248   6.023   4.350   7.385  1.9539 -1.9020 -0.1651
  828MOL0     H 9249   6.147   4.100   7.356  0.0586  0.5994 -0.6004
  828MOL0     H 9250   6.473   4.013   7.545 -0.5141  2.8360 -1.7312
  828MOL0     H 9251   6.414   3.977   7.387 -0.8127  1.3774 -0.6245
  828MOL0     H 9252   6.274   3.843   7.620  0.3722 -2.1361 -0.8128
  828MOL0     H 9253   6.399   3.759   7.535  1.0629  1.2067  2.7706
  828MOL0     H 9254   6.126   3.828   7.466 -1.5102 -1.3871 -1.1103
  828MOL0     H 9255   6.229   3.803   7.329  4.4050 -2.4328 -0.7535
  828MOL0     H 9256   6.275   3.565   7.471 -1.3537 -1.0094 -0.4703
  828MOL0     H 9257   6.121   3.603   7.399  1.5599 -1.0222 -0.9012
  828MOL0     H 9258   6.153   3.387   7.529 -1.8548 -3.1433 -1.2586
  828MOL0     H 9259   6.041   3.197   7.640  3.4092  0.1302  0.7164
  828MOL0     H 9260   5.853   3.014   8.089 -1.1367 -1.6069  1.6579
  828MOL0     H 9261   5.816   2.785   8.158 -2.7550 -0.8711 -1.2531
  828MOL0     H 9262   5.625   2.662   8.160 -1.0873 -0.3752  0.4903
  828MOL0     H 9263   5.755   2.552   8.218 -0.5493 -2.7278 -0.1383
  828MOL0     H 9264   5.551   2.436   8.231 -0.7451  0.9330 -0.3836
  828MOL0     H 9265   5.642   2.359   8.105  0.0809 -0.8279 -0.2595
  828MOL0     H 9266   5.516   2.486   7.940 -1.7971 -4.3916 -2.4296
  828MOL0     H 9267   5.427   2.560   8.081  1.4607  1.5463 -1.5772
  828MOL0     H 9268   5.348   2.313   8.121 -0.2650  0.6533 -0.2747
  828MOL0     H 9269   5.263   2.391   7.987 -0.3680  0.5729 -1.3945
  828MOL0     H 9270   5.460   2.161   7.966  0.1719  0.7968 -0.3395
  828MOL0     H 9271   5.409   2.253   7.821  1.5575 -3.2937 -0.3439
  828MOL0     H 9272   5.174   2.208   7.939 -0.3926  0.1984  0.5575
  828MOL0     H 9273   5.275   2.070   7.993  7.1072  1.0445 -0.1701
  828MOL0     H 9274   5.205   2.147   7.703 -0.3990 -0.0913  0.4241
  828MOL0     H 9275   5.321   2.019   7.745  0.9051  1.9924 -0.3921
  828MOL0     H 9276   5.038   2.029   7.856 -0.7043 -3.0050  0.5897
  828MOL0     H 9277   5.159   1.900   7.875  1.9071 -2.4548 -3.2551
  828MOL0     H 9278   5.810   2.646   7.751  1.6381  0.9177 -1.6943
  828MOL0     H 9279   5.879   2.870   7.673  1.2842  2.1721  0.1088
  828MOL0     H 9280   5.934   3.472   7.962 -0.1456 -0.1169  0.6678
  828MOL0     H 9281   6.021   3.660   7.820  1.3057  0.1916  1.2125
  828MOL0     H 9282   5.392   4.746   7.806  0.2089 -0.8683 -0.7220
  828MOL0     H 9283   5.410   4.964   7.664 -0.8705 -1.0692 -0.4802
  828MOL0     H 9284   5.817   5.359   7.613 -1.6697  2.3531  0.6273
  828MOL0     H 9285   5.856   5.551   7.461 -2.0407  0.9836 -1.1768
  828MOL0     H 9286   5.875   5.728   7.190 -1.3699  1.4685 -2.2602
  828MOL0     H 9287   5.726   5.683   7.287  0.3418  2.1713  0.1558
  828MOL0     H 9288   5.743   5.673   6.985  2.6510  2.8605  0.4593
  828MOL0     H 9289   5.605   5.640   7.079  0.4376  0.8389 -1.1503
  828MOL0     H 9290   5.578   5.862   7.002  1.2004  1.0865 -0.9246
  828MOL0     H 9291   5.746   5.908   7.022 -0.8180 -0.1671 -1.9927
  828MOL0     H 9292   5.644   5.895   7.293 -2.4069 -3.4147  0.2642
  828MOL0     H 9293   5.681   6.036   7.194 -0.5118 -0.4459  0.1603
  828MOL0     H 9294   5.254   6.002   7.224  0.4779 -0.7609  1.4433
  828MOL0     H 9295   5.722   5.293   7.144 -1.9209  1.2940 -0.7124
  828MOL0     H 9296   5.660   5.125   7.306 -2.3089  0.3550  0.6105
  829MOL0     O 9297   6.629   6.286   6.591 -0.1420  0.3327 -0.3192
  829MOL0     C 9298   6.649   6.404   6.620  0.8808  1.1133 -0.0468
  829MOL0     O 9299   6.548   6.490   6.641 -0.3229 -0.0556 -0.0320
  829MOL0     C 9300   6.412   6.466   6.638  0.5371 -0.5217 -0.4947
  829MOL0     C 9301   6.344   6.364   6.557 -0.4392 -0.0214  0.4295
  829MOL0     C 9302   6.201   6.366   6.546  1.5627  0.1341  0.8842
  829MOL0     C 9303   6.123   6.451   6.617  0.3023  0.5568 -0.1283
  829MOL0     O 9304   5.993   6.446   6.571 -0.1289  1.0084 -0.0587
  829MOL0     C 9305   5.937   6.581   6.565  0.0804  0.8042  0.0532
  829MOL0     C 9306   5.804   6.574   6.493  0.9226 -0.3789  0.3255
  829MOL0     C 9307   5.808   6.565   6.330 -0.8385  0.2064 -0.1588
  829MOL0     C 9308   5.665   6.549   6.271  0.6061 -0.3027 -0.1974
  829MOL0     C 9309   5.670   6.547   6.118  0.1173  0.0109  0.1197
  829MOL0     C 9310   5.536   6.501   6.052  0.0312 -0.2455  0.9044
  829MOL0     C 9311   5.572   6.483   5.903  0.7705  0.0429  0.1463
  829MOL0     C 9312   5.462   6.410   5.828 -1.1023  0.3143  0.7711
  829MOL0     N 9313   5.352   6.500   5.781 -0.6374 -0.0262 -0.3277
  829MOL0     C 9314   5.361   6.582   5.675 -0.1913  0.0244  0.4601
  829MOL0     C 9315   5.232   6.624   5.651 -0.0707 -0.0440  0.7460
  829MOL0     C 9316   5.195   6.734   5.556 -0.1240  0.2265  1.2037
  829MOL0     C 9317   5.101   6.684   5.453  0.3790  0.7698  0.3098
  829MOL0     C 9318   5.164   6.582   5.348 -0.9772 -0.3070 -0.1509
  829MOL0     C 9319   5.050   6.559   5.243  0.1548 -0.0697 -0.2361
  829MOL0     O 9320   5.054   6.673   5.152  0.1546 -0.5040  1.3271
  829MOL0     C 9321   5.113   6.666   5.021 -0.5812  0.5774 -0.6612
  829MOL0     C 9322   5.162   6.547   4.958  1.4632 -1.3236 -0.6082
  829MOL0     C 9323   5.207   6.550   4.825  0.2889 -1.3293 -0.6909
  829MOL0     C 9324   5.213   6.672   4.757 -0.3327 -0.7961  0.0510
  829MOL0     C 9325   5.264   6.684   4.622  0.3146  0.2227  0.6313
  829MOL0     O 9326   5.246   6.794   4.545  0.4333  1.1364  0.7070
  829MOL0     C 9327   5.306   6.794   4.419 -0.1404 -0.0830 -0.0920
  829MOL0     C 9328   5.439   6.842   4.419 -0.6381  0.0793  0.3237
  829MOL0     C 9329   5.499   6.870   4.295  0.5194 -0.3594 -0.7185
  829MOL0     C 9330   5.424   6.868   4.172 -1.0962  0.8523 -0.0275
  829MOL0     O 9331   5.467   6.915   4.045  0.2673  0.5611 -0.5128
  829MOL0     C 9332   5.615   6.907   4.031 -0.3619  0.1965 -0.2253
  829MOL0     C 9333   5.657   6.886   3.885 -0.8518 -0.3243 -1.0795
  829MOL0     C 9334   5.594   6.993   3.791  0.1334 -0.9314  0.7399
  829MOL0     C 9335   5.680   7.023   3.661  0.2722  0.8950  0.0206
  829MOL0     C 9336   5.699   6.881   3.584 -0.0960  0.7437  0.1833
  829MOL0     C 9337   5.773   6.910   3.457  0.8617 -1.0335  0.2160
  829MOL0     C 9338   5.679   6.936   3.337  0.8800 -0.9428 -0.1378
  829MOL0     C 9339   5.737   6.987   3.201 -0.4480  0.1143  0.0055
  829MOL0    Cl 9340   5.893   6.907   3.178  0.1006 -0.3978  0.2096
  829MOL0     C 9341   5.296   6.808   4.178  0.1824 -0.7206 -0.2535
  829MOL0     C 9342   5.248   6.771   4.294  1.1796  0.0735 -0.3426
  829MOL0     O 9343   5.319   6.585   4.580  0.2990  0.4377  0.2497
  829MOL0     C 9344   5.169   6.793   4.814  0.6491 -0.3420 -0.1930
  829MOL0     C 9345   5.119   6.785   4.948  0.0712  0.2260 -0.1910
  829MOL0     N 9346   5.158   6.575   5.756 -0.3198 -1.1783 -0.6113
  829MOL0     N 9347   5.228   6.494   5.829  0.6608  0.2625  0.1478
  829MOL0     C 9348   6.186   6.551   6.693  0.0621 -0.0700 -0.9124
  829MOL0     C 9349   6.326   6.556   6.704 -0.1659 -0.4518  0.5659
  829MOL0     C 9350   6.786   6.429   6.662  0.0161 -0.3232  0.7342
  829MOL0     C 9351   6.820   6.554   6.709 -0.5619 -0.1731 -0.2705
  829MOL0     C 9352   6.947   6.581   6.757  0.2924 -0.1577  0.0424
  829MOL0     C 9353   7.043   6.477   6.763 -1.0565 -0.5814 -0.3072
  829MOL0     O 9354   7.170   6.488   6.816  0.3008 -0.0979  1.0105
  829MOL0     C 9355   7.207   6.618   6.869  1.0394 -0.2168 -0.8452
  829MOL0     C 9356   7.237   6.721   6.754 -0.2309 -0.4888  0.1068
  829MOL0     C 9357   7.273   6.847   6.834 -0.5238 -0.1988  0.6588
  829MOL0     C 9358   7.422   6.841   6.855 -1.7457 -1.0234 -1.2960
  829MOL0     C 9359   7.459   6.967   6.925  0.3100 -0.6228  0.4507
  829MOL0     C 9360   7.509   7.067   6.968  0.0547 -0.3854  0.0250
  829MOL0     C 9361   7.015   6.354   6.705 -0.4085 -0.6571  0.8333
  829MOL0     C 9362   6.881   6.326   6.666 -0.3812  0.4790 -0.0343
  829MOL0     H 9363   6.403   6.300   6.493  3.2662  3.4391  0.0145
  829MOL0     H 9364   6.156   6.299   6.473  0.9282  0.2668  1.1428
  829MOL0     H 9365   6.006   6.640   6.504  4.2589 -0.7004  2.8624
  829MOL0     H 9366   5.930   6.618   6.668  0.2580 -0.9316  0.7316
  829MOL0     H 9367   5.746   6.664   6.516  2.0546 -0.4783  4.2545
  829MOL0     H 9368   5.751   6.487   6.531 -0.1381  1.2192  2.7106
  829MOL0     H 9369   5.877   6.485   6.302  2.6380  2.7636  0.4039
  829MOL0     H 9370   5.852   6.661   6.299  1.5496 -0.4500  1.0146
  829MOL0     H 9371   5.627   6.454   6.309 -0.3695  0.7491  1.6668
  829MOL0     H 9372   5.604   6.630   6.313  1.1599  0.3756 -0.6660
  829MOL0     H 9373   5.741   6.470   6.087 -0.6472 -1.6120  2.1912
  829MOL0     H 9374   5.694   6.646   6.076 -1.6188 -0.5880 -2.5468
  829MOL0     H 9375   5.468   6.582   6.078 -2.2307 -1.7237 -0.1302
  829MOL0     H 9376   5.503   6.404   6.091 -1.9968 -2.2553 -4.8152
  829MOL0     H 9377   5.588   6.584   5.864 -3.7479  1.6217  1.6437
  829MOL0     H 9378   5.665   6.435   5.874  1.7423  1.7998  0.1838
  829MOL0     H 9379   5.433   6.323   5.888  1.1442 -0.2869  1.0666
  829MOL0     H 9380   5.518   6.361   5.747  1.4826  1.3580  1.8181
  829MOL0     H 9381   5.457   6.596   5.626 -0.7396  1.2149 -0.3434
  829MOL0     H 9382   5.281   6.781   5.507 -0.5897  0.4155  0.5618
  829MOL0     H 9383   5.147   6.816   5.610 -1.1693 -0.3844  1.2165
  829MOL0     H 9384   5.075   6.779   5.407 -0.7962  0.4518  0.3027
  829MOL0     H 9385   5.009   6.636   5.486 -0.4701  1.1539 -1.4296
  829MOL0     H 9386   5.256   6.609   5.296 -1.2754  0.0555 -0.4960
  829MOL0     H 9387   5.190   6.486   5.395 -2.5394  0.0325  1.5290
  829MOL0     H 9388   4.959   6.560   5.304  1.0778  2.1304  1.2553
  829MOL0     H 9389   5.062   6.460   5.199 -1.0800  0.8399 -2.8082
  829MOL0     H 9390   5.165   6.450   5.006 -1.4688 -1.6516 -0.8774
  829MOL0     H 9391   5.250   6.459   4.784  0.1289 -3.2850  3.1044
  829MOL0     H 9392   5.496   6.874   4.505 -0.4695  0.2776  0.1403
  829MOL0     H 9393   5.601   6.907   4.295 -0.1557  1.6780  0.1543
  829MOL0     H 9394   5.648   6.826   4.097 -2.0356 -1.6753 -1.5608
  829MOL0     H 9395   5.652   7.002   4.070  0.3541  0.4177 -1.4020
  829MOL0     H 9396   5.649   6.785   3.843 -1.6701  0.0943 -1.9790
  829MOL0     H 9397   5.762   6.914   3.897 -0.9336 -0.6340  0.4765
  829MOL0     H 9398   5.605   7.087   3.847  2.7124 -1.3918  1.1060
  829MOL0     H 9399   5.492   6.971   3.760 -0.6565  2.2342  0.7001
  829MOL0     H 9400   5.614   7.087   3.603 -2.2830  1.0166  2.7859
  829MOL0     H 9401   5.771   7.077   3.690  1.4437 -1.1339  0.3390
  829MOL0     H 9402   5.600   6.841   3.562 -1.1539  4.0281 -1.5694
  829MOL0     H 9403   5.756   6.804   3.639  3.8196  1.3261 -2.6339
  829MOL0     H 9404   5.816   6.815   3.423 -0.8839 -1.3442 -1.3082
  829MOL0     H 9405   5.851   6.985   3.474  0.4249 -0.5136 -0.0405
  829MOL0     H 9406   5.624   6.845   3.310 -1.5228  0.5808 -0.7195
  829MOL0     H 9407   5.600   7.008   3.361  2.4288  0.7973 -0.0802
  829MOL0     H 9408   5.741   7.096   3.210 -0.5798 -0.0147  1.9522
  829MOL0     H 9409   5.668   6.956   3.121 -2.0705  1.1755  0.9231
  829MOL0     H 9410   5.254   6.786   4.080  5.3263 -2.3526 -2.4429
  829MOL0     H 9411   5.147   6.734   4.306  0.9679  0.2495 -1.4640
  829MOL0     H 9412   5.159   6.889   4.765 -2.8274 -0.7167 -0.4828
  829MOL0     H 9413   5.076   6.879   4.984 -0.6213  1.0448 -2.9114
  829MOL0     H 9414   6.126   6.625   6.746  0.9621 -1.7855  2.7639
  829MOL0     H 9415   6.391   6.628   6.755 -1.2006  1.8511 -1.1689
  829MOL0     H 9416   6.762   6.646   6.704  1.0696  0.8558 -1.5758
  829MOL0     H 9417   6.976   6.678   6.794  2.2198 -1.1000  1.2088
  829MOL0     H 9418   7.299   6.604   6.927 -0.4698  0.0465  1.7421
  829MOL0     H 9419   7.141   6.659   6.945  2.1208  2.3332 -1.1744
  829MOL0     H 9420   7.314   6.679   6.688 -0.3963 -1.0179  0.2397
  829MOL0     H 9421   7.145   6.742   6.700 -0.1405 -2.6108 -1.0064
  829MOL0     H 9422   7.237   6.854   6.937  1.4575 -0.1986  1.4060
  829MOL0     H 9423   7.234   6.934   6.780 -1.8625 -1.6091 -0.7469
  829MOL0     H 9424   7.461   6.755   6.910  1.4835 -0.1279 -1.9379
  829MOL0     H 9425   7.482   6.848   6.764 -0.5046  1.8731 -0.4109
  829MOL0     H 9426   7.558   7.156   7.002  1.8080 -0.5653 -1.8716
  829MOL0     H 9427   7.082   6.269   6.716  1.9893  1.2296  1.6158
  829MOL0     H 9428   6.872   6.227   6.624 -1.2995  1.5535 -2.5590
  830MOL0     O 9429   8.359   4.299   9.904 -0.9021  0.1272 -0.0050
  830MOL0     C 9430   8.402   4.185   9.884  0.0506 -0.4264 -0.5556
  830MOL0     O 9431   8.520   4.133   9.929  0.2960 -0.1695 -0.5730
  830MOL0     C 9432   8.604   4.196  10.017  0.4022 -0.3693  0.4579
  830MOL0     C 9433   8.658   4.327   9.988  0.8666  0.5484 -1.0807
  830MOL0     C 9434   8.729   4.386  10.092  1.2472  0.1338 -0.4065
  830MOL0     C 9435   8.784   4.318  10.195  1.3253 -0.0026 -0.8448
  830MOL0     O 9436   8.842   4.386  10.288 -0.3435  0.1335 -0.0112
  830MOL0     C 9437   8.986   4.371  10.281 -0.7288 -0.1046 -0.1225
  830MOL0     C 9438   9.050   4.456  10.393  0.5419  0.5690  0.7732
  830MOL0     C 9439   9.014   4.606  10.374  0.9207  0.2143  0.0474
  830MOL0     C 9440   9.105   4.706  10.443 -0.4780  0.7324 -0.2163
  830MOL0     C 9441   9.042   4.843  10.442  0.6562  0.7373 -0.7385
  830MOL0     C 9442   9.121   4.960  10.498 -0.6951 -0.1777 -0.7878
  830MOL0     C 9443   9.046   5.094  10.510  0.4183  0.2791  0.0362
  830MOL0     C 9444   9.128   5.189  10.599 -0.1800 -1.1706  0.3491
  830MOL0     N 9445   9.068   5.322  10.581  0.2239  0.3298 -0.2875
  830MOL0     C 9446   9.089   5.392  10.467 -0.2802 -0.3505 -0.7635
  830MOL0     C 9447   8.994   5.488  10.463  0.2087  0.6907  0.1204
  830MOL0     C 9448   8.955   5.594  10.357  1.0536 -0.0412 -0.1818
  830MOL0     C 9449   9.029   5.721  10.384  0.0740 -0.0495 -0.1293
  830MOL0     C 9450   8.993   5.806  10.268 -0.8510 -0.3277 -0.1481
  830MOL0     C 9451   9.045   5.945  10.253 -0.9106 -0.0213 -0.1348
  830MOL0     O 9452   9.192   5.955  10.246 -0.2456 -0.3730  0.0811
  830MOL0     C 9453   9.262   6.076  10.285  0.1654  0.2488  0.1504
  830MOL0     C 9454   9.210   6.157  10.393 -0.3212  0.8064  0.6104
  830MOL0     C 9455   9.273   6.273  10.440 -0.2021  0.1546 -0.6075
  830MOL0     C 9456   9.396   6.308  10.377  0.3866 -1.0606  0.2527
  830MOL0     C 9457   9.464   6.430  10.406  0.6318 -0.5466  1.0158
  830MOL0     O 9458   9.546   6.486  10.301 -0.3113  0.6605 -0.3774
  830MOL0     C 9459   9.578   6.615  10.285 -0.2019 -0.0003  1.7861
  830MOL0     C 9460   9.523   6.688  10.169  0.8211  0.0660  0.5028
  830MOL0     C 9461   9.545   6.823  10.162 -0.4938 -0.3681  0.6569
  830MOL0     C 9462   9.637   6.890  10.255 -0.5724 -0.0719 -0.1308
  830MOL0     O 9463   9.679   7.025  10.226  0.1285  0.0183  0.4957
  830MOL0     C 9464   9.746   7.104  10.337  0.7555  0.0335  1.3806
  830MOL0     C 9465   9.772   7.241  10.269  0.5957 -0.4860 -0.6106
  830MOL0     C 9466   9.825   7.340  10.362  0.5865  0.0213 -0.0277
  830MOL0     C 9467   9.824   7.481  10.290  0.6182 -0.7006  0.1457
  830MOL0     C 9468   9.866   7.595  10.380 -0.4895  0.7330  0.0965
  830MOL0     C 9469   9.777   7.633  10.500 -0.6724  0.3529  0.0382
  830MOL0     C 9470   9.841   7.739  10.595  0.3564  0.6220  0.1015
  830MOL0     C 9471   9.745   7.792  10.708  0.2040  0.1965 -0.0958
  830MOL0    Cl 9472   9.835   7.919  10.798  0.4706 -0.5432  0.3054
  830MOL0     C 9473   9.707   6.814  10.352  0.3064  0.4427 -0.4177
  830MOL0     C 9474   9.666   6.679  10.376  0.5646 -0.8748  0.4597
  830MOL0     O 9475   9.421   6.492  10.506 -0.8909  0.2421  0.7975
  830MOL0     C 9476   9.455   6.223  10.279  0.3647 -0.1019  0.2092
  830MOL0     C 9477   9.385   6.109  10.224 -0.7157 -0.0815 -0.3888
  830MOL0     N 9478   8.928   5.483  10.590  1.3890  0.1315  0.2577
  830MOL0     N 9479   8.969   5.373  10.651 -0.2301 -0.1641 -0.3526
  830MOL0     C 9480   8.760   4.175  10.209  0.5870  0.4435  0.0825
  830MOL0     C 9481   8.657   4.119  10.119  0.6922  0.3422 -0.2154
  830MOL0     C 9482   8.329   4.100   9.792  0.0867  0.1541 -0.1137
  830MOL0     C 9483   8.392   3.995   9.720  0.1976  0.7144 -0.2660
  830MOL0     C 9484   8.319   3.917   9.635  0.6755  0.3457  0.7484
  830MOL0     C 9485   8.177   3.937   9.614 -0.7328 -0.4170 -0.5042
  830MOL0     O 9486   8.097   3.870   9.532  0.9502  1.0032 -0.1085
  830MOL0     C 9487   8.150   3.757   9.454 -0.3270 -0.0078 -0.1404
  830MOL0     C 9488   8.234   3.798   9.328  0.3444 -0.1392  0.1698
  830MOL0     C 9489   8.122   3.833   9.213  0.1569 -0.0367  0.3726
  830MOL0     C 9490   8.196   3.858   9.080 -0.0304 -0.5419 -0.2799
  830MOL0     C 9491   8.117   3.900   8.971  0.6856 -0.8501  0.6748
  830MOL0     C 9492   8.031   3.950   8.901 -0.4867  0.1136  0.4645
  830MOL0     C 9493   8.116   4.038   9.691 -0.5191 -0.7295  0.1117
  830MOL0     C 9494   8.188   4.114   9.775 -0.3983  0.6671 -0.8291
  830MOL0     H 9495   8.604   4.386   9.915 -1.4159  0.4509  0.4038
  830MOL0     H 9496   8.745   4.493  10.088 -0.8614  0.4784 -1.1251
  830MOL0     H 9497   9.026   4.396  10.182  1.9169  0.8246  1.1047
  830MOL0     H 9498   9.021   4.269  10.300  3.7974  1.2520  0.0041
  830MOL0     H 9499   9.158   4.445  10.401  0.3166 -1.0126  2.5013
  830MOL0     H 9500   9.002   4.415  10.483 -1.8039 -1.7840 -1.3839
  830MOL0     H 9501   8.909   4.617  10.402  0.0823  0.3074 -2.7803
  830MOL0     H 9502   9.023   4.628  10.267 -1.3076  1.0466 -0.0326
  830MOL0     H 9503   9.129   4.673  10.544 -0.7394 -2.0171 -0.9770
  830MOL0     H 9504   9.198   4.705  10.386 -1.1345  0.6582 -1.3158
  830MOL0     H 9505   8.950   4.820  10.497  0.1130 -0.4471 -2.0542
  830MOL0     H 9506   9.004   4.876  10.345 -3.7145 -1.8462 -0.1504
  830MOL0     H 9507   9.205   4.984  10.432 -0.3301  0.1732 -0.2049
  830MOL0     H 9508   9.155   4.936  10.599 -2.7503 -2.5446 -0.5693
  830MOL0     H 9509   9.040   5.117  10.404 -2.7964 -2.4291 -0.5684
  830MOL0     H 9510   8.941   5.095  10.543  0.5287 -1.9094  0.6482
  830MOL0     H 9511   9.237   5.189  10.583  0.0275  1.9272  1.2082
  830MOL0     H 9512   9.113   5.144  10.698 -3.2827 -0.9062  0.0737
  830MOL0     H 9513   9.165   5.365  10.394  0.4755 -4.4155  1.2097
  830MOL0     H 9514   8.846   5.609  10.365  0.1344 -4.8355 -1.0000
  830MOL0     H 9515   8.968   5.559  10.254 -0.2987  2.2693 -1.2352
  830MOL0     H 9516   9.138   5.708  10.384  0.0733 -1.1540  3.2434
  830MOL0     H 9517   8.993   5.765  10.478  2.6270  0.4080  0.7121
  830MOL0     H 9518   9.034   5.750  10.183  2.7870 -0.4272  1.4991
  830MOL0     H 9519   8.885   5.819  10.255 -0.6166 -0.0109 -2.2180
  830MOL0     H 9520   8.998   6.007  10.330  0.8952 -0.0576  1.0825
  830MOL0     H 9521   9.012   5.985  10.157 -0.3857  1.2816  0.2069
  830MOL0     H 9522   9.117   6.132  10.442  0.6059  1.2021  2.6867
  830MOL0     H 9523   9.229   6.330  10.520  1.4902 -0.5329  0.8850
  830MOL0     H 9524   9.447   6.640  10.108 -0.7471  1.7811  1.0135
  830MOL0     H 9525   9.501   6.879  10.080 -0.2996 -3.2094 -1.5358
  830MOL0     H 9526   9.841   7.058  10.367  0.8857  0.6721  1.9652
  830MOL0     H 9527   9.677   7.121  10.420 -0.1855 -1.5369  0.9733
  830MOL0     H 9528   9.671   7.277  10.253 -0.2945 -1.9752  1.1828
  830MOL0     H 9529   9.832   7.236  10.178 -1.5420  2.1979 -2.3070
  830MOL0     H 9530   9.926   7.324  10.402  1.8166 -1.1475 -3.2648
  830MOL0     H 9531   9.759   7.340  10.449  0.7281  1.3401  0.0954
  830MOL0     H 9532   9.896   7.482  10.208  0.4347  1.2261 -0.0358
  830MOL0     H 9533   9.722   7.502  10.256  0.4584 -0.7556  0.5873
  830MOL0     H 9534   9.866   7.689  10.325 -1.9428 -0.5812 -2.3108
  830MOL0     H 9535   9.965   7.565  10.417  0.2594  0.6760 -1.8662
  830MOL0     H 9536   9.771   7.537  10.552  0.8420 -2.2225 -4.0135
  830MOL0     H 9537   9.677   7.660  10.467 -1.7700 -1.5775  1.5728
  830MOL0     H 9538   9.935   7.704  10.639 -0.7875  1.6042  3.6809
  830MOL0     H 9539   9.867   7.820  10.527 -3.0072  0.5469 -1.4752
  830MOL0     H 9540   9.719   7.704  10.767  2.1135 -1.4604 -1.5408
  830MOL0     H 9541   9.652   7.834  10.670 -0.7072 -0.7065  1.0460
  830MOL0     H 9542   9.784   6.854  10.417  1.4697  0.9581 -2.0477
  830MOL0     H 9543   9.696   6.614  10.458  1.1623 -5.0376 -2.7177
  830MOL0     H 9544   9.556   6.251  10.249  0.3873  1.1347  1.3528
  830MOL0     H 9545   9.428   6.049  10.144  1.0867  1.3899 -0.5944
  830MOL0     H 9546   8.802   4.123  10.293  2.2385  0.1111 -0.9077
  830MOL0     H 9547   8.626   4.016  10.130 -1.6607  0.8910 -1.1918
  830MOL0     H 9548   8.499   3.979   9.734  0.1051 -0.2795 -0.6334
  830MOL0     H 9549   8.374   3.838   9.586  3.7983  0.1449  4.1304
  830MOL0     H 9550   8.069   3.685   9.440 -0.3753 -0.2679  1.3033
  830MOL0     H 9551   8.208   3.693   9.522 -0.2214 -0.2625 -0.4667
  830MOL0     H 9552   8.298   3.884   9.350 -1.0018  0.6474  1.1392
  830MOL0     H 9553   8.297   3.715   9.292 -0.6940 -0.7455 -0.2904
  830MOL0     H 9554   8.087   3.929   9.250 -0.0326 -0.9163  2.6575
  830MOL0     H 9555   8.043   3.757   9.216  1.1064 -1.0420  0.6734
  830MOL0     H 9556   8.276   3.928   9.105 -2.3424  2.2833 -0.1853
  830MOL0     H 9557   8.232   3.760   9.048 -1.5351 -0.8806 -1.0494
  830MOL0     H 9558   7.947   3.989   8.847 -0.7704 -1.1144 -0.0293
  830MOL0     H 9559   8.013   4.062   9.666 -0.3087  0.5332  0.4240
  830MOL0     H 9560   8.138   4.196   9.827 -1.8375 -1.0532  0.6389
  831MOL0     O 9561   5.435   9.042   9.882 -0.1558  0.5652 -0.3726
  831MOL0     C 9562   5.388   9.143   9.923  0.0402 -0.3588  0.3421
  831MOL0     O 9563   5.419   9.272   9.874 -0.2173  0.4825 -0.1669
  831MOL0     C 9564   5.546   9.324   9.873 -0.2530 -0.2739 -0.6325
  831MOL0     C 9565   5.564   9.430   9.794  0.5723  0.0581 -0.9943
  831MOL0     C 9566   5.692   9.500   9.785 -0.2391 -0.6615 -0.7729
  831MOL0     C 9567   5.803   9.451   9.860  0.2003  0.8317 -0.1206
  831MOL0     O 9568   5.920   9.515   9.835 -0.8029 -0.2113 -0.6179
  831MOL0     C 9569   6.041   9.480   9.905  0.5175 -1.2003 -0.1192
  831MOL0     C 9570   6.123   9.386   9.819 -0.3959 -0.3766 -0.2717
  831MOL0     C 9571   6.272   9.379   9.879  1.1902 -0.0370  0.1903
  831MOL0     C 9572   6.367   9.333   9.761 -0.3452 -0.1439  0.6145
  831MOL0     C 9573   6.520   9.344   9.787 -0.8995 -0.4383  0.1060
  831MOL0     C 9574   6.593   9.272   9.892  0.9298  0.0620  0.2170
  831MOL0     C 9575   6.546   9.122   9.918 -0.6329  0.4192 -0.4375
  831MOL0     C 9576   6.601   9.055  10.042 -0.1523 -0.1764 -0.2953
  831MOL0     N 9577   6.749   9.068  10.068 -0.4851 -0.1847  0.0167
  831MOL0     C 9578   6.852   9.007  10.001  0.1299 -0.4028 -0.4890
  831MOL0     C 9579   6.961   9.068  10.061 -0.6645  0.6406  0.8172
  831MOL0     C 9580   7.098   9.032  10.029 -0.1293  0.2873  0.1646
  831MOL0     C 9581   7.109   8.888   9.981 -0.4859 -0.4375 -0.2459
  831MOL0     C 9582   7.237   8.880   9.899  0.7113  0.4174  0.3427
  831MOL0     C 9583   7.355   8.822   9.974  0.0627 -0.2191  0.0831
  831MOL0     O 9584   7.316   8.700  10.038 -0.6452  0.6793 -0.6574
  831MOL0     C 9585   7.309   8.587   9.956  0.9810 -0.2256  0.2275
  831MOL0     C 9586   7.219   8.494   9.983  0.4870  0.4225 -0.2930
  831MOL0     C 9587   7.214   8.374   9.915  0.6581  0.2712  0.9002
  831MOL0     C 9588   7.300   8.352   9.811  0.8403  0.3418 -0.0940
  831MOL0     C 9589   7.291   8.237   9.722 -0.6793 -0.2103 -0.6887
  831MOL0     O 9590   7.340   8.239   9.592  0.3738 -0.2488 -0.1799
  831MOL0     C 9591   7.339   8.126   9.513  0.4466 -0.8868  0.6620
  831MOL0     C 9592   7.261   8.115   9.396  0.1628  0.1154  0.3543
  831MOL0     C 9593   7.278   8.012   9.317  0.6774  0.7155  0.0920
  831MOL0     C 9594   7.375   7.910   9.338  0.9591 -0.6370 -1.0004
  831MOL0     O 9595   7.367   7.805   9.253 -1.0091  0.1994 -0.0964
  831MOL0     C 9596   7.478   7.714   9.241  0.2454 -0.5356  0.4115
  831MOL0     C 9597   7.514   7.662   9.096  0.3036 -1.4503  0.2830
  831MOL0     C 9598   7.390   7.641   9.006 -0.5790 -0.1444  1.7105
  831MOL0     C 9599   7.431   7.593   8.865 -0.5561  0.6024  1.1739
  831MOL0     C 9600   7.542   7.668   8.784  0.1537 -0.3908  0.6733
  831MOL0     C 9601   7.525   7.669   8.643  0.0532 -0.1280 -0.0830
  831MOL0     C 9602   7.654   7.641   8.574 -0.5073 -0.1273  0.5810
  831MOL0     C 9603   7.670   7.642   8.422  0.2226 -0.7268 -0.1368
  831MOL0    Cl 9604   7.642   7.800   8.339  0.5684  0.1468 -0.8813
  831MOL0     C 9605   7.460   7.922   9.448  0.5064  0.5202 -0.5274
  831MOL0     C 9606   7.440   8.039   9.536  0.0575 -0.2745 -0.4459
  831MOL0     O 9607   7.227   8.149   9.771 -0.5156  0.9153 -0.0285
  831MOL0     C 9608   7.386   8.453   9.767  0.0343  0.4681 -0.4717
  831MOL0     C 9609   7.398   8.568   9.850 -0.0894  0.3181 -0.1630
  831MOL0     N 9610   6.925   9.165  10.156 -0.2860  0.7605 -0.3051
  831MOL0     N 9611   6.795   9.153  10.162 -0.6450  0.4365  0.2845
  831MOL0     C 9612   5.791   9.327   9.931  0.3081 -0.4451  0.1092
  831MOL0     C 9613   5.663   9.264   9.937  0.0466 -0.3291  0.4478
  831MOL0     C 9614   5.276   9.120  10.013  0.6370  0.2359 -0.1158
  831MOL0     C 9615   5.202   9.227  10.064  0.5094 -0.0441 -0.6880
  831MOL0     C 9616   5.078   9.204  10.127  0.5000  0.7601  0.0692
  831MOL0     C 9617   5.023   9.075  10.119 -0.0263 -0.3981  1.5464
  831MOL0     O 9618   4.905   9.026  10.164 -0.1406 -0.0513  0.9283
  831MOL0     C 9619   4.801   9.117  10.216  0.0307  0.0992  0.2237
  831MOL0     C 9620   4.733   9.178  10.087 -1.4015 -0.8761  0.0374
  831MOL0     C 9621   4.680   9.069   9.995 -0.0924 -0.2565  0.2090
  831MOL0     C 9622   4.609   9.116   9.866 -0.5224  0.2158  0.0027
  831MOL0     C 9623   4.625   9.019   9.767  0.1881  0.7508 -0.7158
  831MOL0     C 9624   4.633   8.934   9.678 -0.3653 -0.0792  0.3885
  831MOL0     C 9625   5.109   8.966  10.080 -1.1161 -1.0858  0.2218
  831MOL0     C 9626   5.233   8.981  10.029  0.5694  0.2154  0.0492
  831MOL0     H 9627   5.480   9.479   9.747  1.1974 -1.2187 -3.6605
  831MOL0     H 9628   5.712   9.588   9.725 -3.2604 -0.9063 -2.3151
  831MOL0     H 9629   6.027   9.440  10.005 -1.8555 -0.7023 -0.1827
  831MOL0     H 9630   6.104   9.569   9.916  0.1631 -1.0011  0.3058
  831MOL0     H 9631   6.115   9.415   9.714  5.0258 -0.9048 -1.1373
  831MOL0     H 9632   6.083   9.284   9.826  1.1054 -1.2294 -2.6588
  831MOL0     H 9633   6.277   9.327   9.975 -1.6521  0.5598  0.7426
  831MOL0     H 9634   6.288   9.485   9.903 -4.2913  0.4916  3.1165
  831MOL0     H 9635   6.329   9.237   9.725 -4.2139  2.1837 -2.3003
  831MOL0     H 9636   6.335   9.389   9.673 -2.4028 -0.5491  1.0509
  831MOL0     H 9637   6.527   9.453   9.787 -2.7776 -0.2790  1.2256
  831MOL0     H 9638   6.556   9.319   9.686 -2.3871  1.1231 -0.8636
  831MOL0     H 9639   6.593   9.333   9.984  1.3511  0.9494 -0.3590
  831MOL0     H 9640   6.695   9.272   9.854  2.5093 -0.2858  4.0087
  831MOL0     H 9641   6.437   9.133   9.910 -0.8305 -1.7699 -1.6773
  831MOL0     H 9642   6.590   9.073   9.831  1.0388  1.0988 -0.0160
  831MOL0     H 9643   6.593   8.949  10.017  0.2079  0.0036 -1.1761
  831MOL0     H 9644   6.540   9.078  10.130  0.4306 -0.7324  0.2689
  831MOL0     H 9645   6.839   8.943   9.914  0.0394 -1.9872  0.6405
  831MOL0     H 9646   7.163   9.043  10.116  3.2406 -1.4026 -1.9381
  831MOL0     H 9647   7.145   9.108   9.967  2.4343 -1.6884 -0.4981
  831MOL0     H 9648   7.033   8.842   9.917  1.9852 -5.4387 -0.0684
  831MOL0     H 9649   7.108   8.812  10.060 -0.4812  0.3892  0.5654
  831MOL0     H 9650   7.213   8.818   9.812 -1.2937  1.0995  0.3518
  831MOL0     H 9651   7.257   8.981   9.862 -1.4728  1.0680  0.7788
  831MOL0     H 9652   7.367   8.892  10.057 -4.3166 -4.3134  4.9014
  831MOL0     H 9653   7.447   8.825   9.916 -0.5153  3.9681 -0.9871
  831MOL0     H 9654   7.157   8.499  10.072  2.2325 -0.9383  1.0681
  831MOL0     H 9655   7.129   8.315   9.949  3.5321 -3.7445  1.7929
  831MOL0     H 9656   7.186   8.191   9.377 -0.5453 -0.5309  0.5286
  831MOL0     H 9657   7.216   8.011   9.228 -2.3274 -1.5177  1.9793
  831MOL0     H 9658   7.460   7.631   9.310 -2.0266 -1.3106 -0.9945
  831MOL0     H 9659   7.570   7.766   9.269 -0.9227  0.6777  2.2477
  831MOL0     H 9660   7.572   7.569   9.100 -1.1521 -2.7461 -3.8813
  831MOL0     H 9661   7.576   7.740   9.051 -0.4287 -0.3156  1.1802
  831MOL0     H 9662   7.332   7.732   8.991  3.4868  2.3782 -0.7342
  831MOL0     H 9663   7.337   7.559   9.055 -0.2640 -0.4484  1.5553
  831MOL0     H 9664   7.467   7.492   8.887  2.3387  1.4779  0.7998
  831MOL0     H 9665   7.335   7.589   8.811 -0.3979 -0.6476  0.9590
  831MOL0     H 9666   7.646   7.642   8.807  1.1466  1.4755 -1.3674
  831MOL0     H 9667   7.529   7.775   8.807  0.1021 -0.3976  0.6765
  831MOL0     H 9668   7.477   7.762   8.612  2.1199  0.5682 -1.4280
  831MOL0     H 9669   7.452   7.590   8.628 -3.4534  2.5429  1.4106
  831MOL0     H 9670   7.725   7.712   8.617 -1.4515  0.7547  0.7383
  831MOL0     H 9671   7.681   7.542   8.612 -5.3682 -0.9664  2.5804
  831MOL0     H 9672   7.601   7.577   8.368 -2.6093  2.2006 -0.2961
  831MOL0     H 9673   7.773   7.605   8.410 -0.6064 -2.9274 -0.8709
  831MOL0     H 9674   7.525   7.840   9.475  0.9031  1.2036  0.6508
  831MOL0     H 9675   7.504   8.065   9.620 -0.1979 -1.7023  0.2261
  831MOL0     H 9676   7.453   8.442   9.683  0.7118  2.0131 -0.1811
  831MOL0     H 9677   7.480   8.636   9.827  1.2967 -0.9239  0.9191
  831MOL0     H 9678   5.877   9.279   9.978  1.5506  0.8496 -0.7569
  831MOL0     H 9679   5.667   9.175   9.999 -0.1607 -0.2272  0.6103
  831MOL0     H 9680   5.237   9.329  10.053  0.1340  0.3964  1.6560
  831MOL0     H 9681   5.023   9.287  10.171 -1.6844 -0.2114 -0.7021
  831MOL0     H 9682   4.838   9.184  10.293 -1.8852 -1.1004  2.2925
  831MOL0     H 9683   4.736   9.054  10.276 -0.1094  0.2830  0.2662
  831MOL0     H 9684   4.652   9.242  10.124 -0.1731 -0.6448  2.6030
  831MOL0     H 9685   4.815   9.231  10.038  0.3621 -2.8963  0.6557
  831MOL0     H 9686   4.605   9.011  10.049 -0.0448 -1.2726 -0.7967
  831MOL0     H 9687   4.767   9.015   9.958 -0.1904  1.7899 -3.5326
  831MOL0     H 9688   4.501   9.127   9.883 -0.4877 -1.8297  2.1810
  831MOL0     H 9689   4.650   9.212   9.834  0.5603 -0.1100  0.3799
  831MOL0     H 9690   4.626   8.861   9.600 -3.6620  0.3530  0.1400
  831MOL0     H 9691   5.085   8.862  10.097  2.9925 -1.7604  3.7000
  831MOL0     H 9692   5.283   8.887  10.010 -2.4671 -1.7727  1.0500
  832MOL0     O 9693   7.752   2.595   3.700 -0.1543  0.2853  0.0766
  832MOL0     C 9694   7.633   2.625   3.697  0.1675 -0.6252  0.6748
  832MOL0     O 9695   7.527   2.546   3.716  0.5974 -0.1222 -0.2265
  832MOL0     C 9696   7.538   2.415   3.763 -0.0423 -0.0443 -0.2842
  832MOL0     C 9697   7.420   2.347   3.774  0.7915 -0.2688 -0.1971
  832MOL0     C 9698   7.414   2.215   3.817  1.0923 -0.1145 -0.2496
  832MOL0     C 9699   7.524   2.144   3.845 -0.3613  0.1709 -0.1854
  832MOL0     O 9700   7.521   2.014   3.886  0.1946 -0.4548 -0.6953
  832MOL0     C 9701   7.513   1.919   3.785  0.4237  0.3238 -0.7558
  832MOL0     C 9702   7.458   1.792   3.849 -1.3533 -0.2317  0.4736
  832MOL0     C 9703   7.557   1.716   3.944  0.0333 -0.1974  0.3039
  832MOL0     C 9704   7.521   1.566   3.983  0.3545 -0.2618 -0.0101
  832MOL0     C 9705   7.405   1.559   4.087  0.0067 -1.6680 -0.4061
  832MOL0     C 9706   7.398   1.420   4.152 -0.1180 -0.1629  0.6445
  832MOL0     C 9707   7.270   1.387   4.231 -0.2131 -0.4917 -0.5818
  832MOL0     C 9708   7.305   1.322   4.365  0.4582  0.6443  0.3711
  832MOL0     N 9709   7.364   1.187   4.353  0.2195 -0.1726 -0.4191
  832MOL0     C 9710   7.293   1.079   4.309 -1.1127  0.2277 -0.3304
  832MOL0     C 9711   7.362   0.977   4.346  0.1766 -0.4636  0.6558
  832MOL0     C 9712   7.327   0.835   4.307  0.5634 -0.0793 -1.0518
  832MOL0     C 9713   7.297   0.822   4.154  0.5147  0.1480  0.5474
  832MOL0     C 9714   7.416   0.886   4.064  1.0035  0.3761 -0.1160
  832MOL0     C 9715   7.374   1.014   3.985  0.3001 -0.1208 -0.3505
  832MOL0     O 9716   7.233   0.998   3.949  0.1447 -0.0090 -0.3258
  832MOL0     C 9717   7.173   1.107   3.881 -0.1118  0.6498 -0.6669
  832MOL0     C 9718   7.227   1.228   3.845  0.2486 -0.2055 -0.5156
  832MOL0     C 9719   7.161   1.318   3.776 -0.4173  0.8202  0.3429
  832MOL0     C 9720   7.026   1.306   3.757 -0.6991 -0.3013 -0.5786
  832MOL0     C 9721   6.938   1.414   3.691  1.0297  0.0578 -0.4576
  832MOL0     O 9722   6.987   1.521   3.635  0.9673 -0.6170 -0.7885
  832MOL0     C 9723   6.910   1.613   3.570 -0.2591 -0.1175 -0.4325
  832MOL0     C 9724   6.952   1.746   3.594 -0.5517  0.6149  0.2051
  832MOL0     C 9725   6.867   1.847   3.548  0.0369  0.7244 -0.4160
  832MOL0     C 9726   6.746   1.819   3.490 -0.7503 -0.5960 -0.7544
  832MOL0     O 9727   6.674   1.929   3.446  0.0473  0.5499 -0.2351
  832MOL0     C 9728   6.542   1.917   3.507 -0.0140  0.1200  0.3227
  832MOL0     C 9729   6.549   1.933   3.655 -0.0801 -0.4464  0.4466
  832MOL0     C 9730   6.615   2.055   3.721  0.1036  0.0269  0.5376
  832MOL0     C 9731   6.544   2.184   3.679 -0.1436 -0.2359 -0.1273
  832MOL0     C 9732   6.626   2.306   3.716  0.0406  0.6706  0.4883
  832MOL0     C 9733   6.752   2.319   3.628 -0.1313  0.5993  0.0337
  832MOL0     C 9734   6.835   2.441   3.670 -0.1442 -0.6412 -0.0133
  832MOL0     C 9735   6.968   2.459   3.594  0.6297 -0.1458  0.6352
  832MOL0    Cl 9736   7.095   2.336   3.641  0.2644 -0.4207  0.3188
  832MOL0     C 9737   6.713   1.696   3.445 -0.0483  0.2112  0.5224
  832MOL0     C 9738   6.792   1.584   3.490  0.3609 -0.4787  0.1918
  832MOL0     O 9739   6.818   1.386   3.688  0.6893  0.4006  0.2186
  832MOL0     C 9740   6.954   1.201   3.808 -1.1359  0.1703 -0.5589
  832MOL0     C 9741   7.033   1.093   3.863 -0.5220  0.5665 -0.3266
  832MOL0     N 9742   7.469   1.012   4.422 -0.2801 -0.3118 -0.3178
  832MOL0     N 9743   7.463   1.142   4.435 -0.1387  0.7921 -0.2832
  832MOL0     C 9744   7.648   2.206   3.834 -0.2013  0.2660  0.2251
  832MOL0     C 9745   7.653   2.341   3.793 -0.7555 -0.5067  0.6893
  832MOL0     C 9746   7.604   2.764   3.647 -0.3606  0.6825  0.4456
  832MOL0     C 9747   7.708   2.845   3.598 -1.4758 -1.0478 -0.0018
  832MOL0     C 9748   7.672   2.967   3.534 -0.0432  0.4471  0.1847
  832MOL0     C 9749   7.544   3.021   3.542  0.1344  0.0926  0.5841
  832MOL0     O 9750   7.514   3.149   3.499  0.3992  0.0090 -0.5064
  832MOL0     C 9751   7.503   3.242   3.606  0.1734 -0.4056 -0.6029
  832MOL0     C 9752   7.442   3.375   3.561  0.7638 -0.2990  0.6132
  832MOL0     C 9753   7.298   3.352   3.511 -0.2971  0.2888 -0.3707
  832MOL0     C 9754   7.233   3.467   3.444 -1.4313 -0.8665 -0.1181
  832MOL0     C 9755   7.251   3.582   3.544  0.6632 -0.2920 -0.1830
  832MOL0     C 9756   7.240   3.676   3.618 -0.1082  0.2111 -0.5441
  832MOL0     C 9757   7.451   2.953   3.611  0.5113 -0.7096 -0.0837
  832MOL0     C 9758   7.478   2.827   3.659  0.4457 -0.1957  0.2765
  832MOL0     H 9759   7.325   2.395   3.757  0.0750 -0.0581  3.6588
  832MOL0     H 9760   7.316   2.171   3.833  1.3701 -0.6713 -0.0385
  832MOL0     H 9761   7.609   1.922   3.734 -0.1771  0.1120 -1.9486
  832MOL0     H 9762   7.443   1.955   3.709  0.4496 -2.1819 -2.1004
  832MOL0     H 9763   7.448   1.723   3.765 -0.1928 -0.2176  0.3080
  832MOL0     H 9764   7.362   1.805   3.899  0.2954  0.4253  3.7909
  832MOL0     H 9765   7.570   1.774   4.036 -0.5397  0.4895 -0.0442
  832MOL0     H 9766   7.659   1.724   3.906  0.1247 -0.8929  0.3869
  832MOL0     H 9767   7.506   1.497   3.899 -1.0003 -0.8620  0.6768
  832MOL0     H 9768   7.615   1.538   4.032  1.6723  3.4850 -0.0927
  832MOL0     H 9769   7.309   1.568   4.035 -0.4731 -3.3083  0.1040
  832MOL0     H 9770   7.413   1.626   4.173 -1.0444 -3.2484  0.9947
  832MOL0     H 9771   7.487   1.389   4.209  1.0581 -0.7234 -1.3794
  832MOL0     H 9772   7.396   1.353   4.066 -3.1508 -0.4391  0.8439
  832MOL0     H 9773   7.211   1.479   4.241 -2.1546 -1.7284  0.0572
  832MOL0     H 9774   7.203   1.320   4.176 -1.6593  1.8092 -1.8006
  832MOL0     H 9775   7.214   1.324   4.425 -0.2804  1.8126 -0.7222
  832MOL0     H 9776   7.381   1.386   4.410  1.1221 -1.2983  2.1605
  832MOL0     H 9777   7.201   1.069   4.252 -0.9239 -3.4396 -0.1973
  832MOL0     H 9778   7.242   0.816   4.373 -0.6083  3.5742 -1.2529
  832MOL0     H 9779   7.414   0.772   4.329 -0.5738 -1.3680 -0.1476
  832MOL0     H 9780   7.201   0.863   4.123  1.4296 -0.3035 -3.2931
  832MOL0     H 9781   7.295   0.717   4.125  1.4417  0.6193 -1.3427
  832MOL0     H 9782   7.508   0.899   4.121  0.7884  1.0174  0.0912
  832MOL0     H 9783   7.435   0.804   3.994  1.7696 -0.4306  1.0053
  832MOL0     H 9784   7.430   1.029   3.893  0.9371  1.8404  0.2999
  832MOL0     H 9785   7.385   1.106   4.044  0.2054 -1.4352  1.8271
  832MOL0     H 9786   7.329   1.258   3.867  0.2047  0.6200 -1.3523
  832MOL0     H 9787   7.193   1.412   3.734 -3.5175  0.2563 -3.8643
  832MOL0     H 9788   7.042   1.774   3.648 -2.0341  2.3135  1.9233
  832MOL0     H 9789   6.892   1.947   3.581 -0.0115 -0.4998  3.9540
  832MOL0     H 9790   6.496   1.825   3.470 -1.4789  0.5114  1.0917
  832MOL0     H 9791   6.461   1.978   3.465 -1.8188 -3.4714 -1.9280
  832MOL0     H 9792   6.601   1.846   3.697  0.3553 -0.1670  0.4930
  832MOL0     H 9793   6.451   1.926   3.703  2.1297  1.1227  5.9721
  832MOL0     H 9794   6.720   2.048   3.693 -0.0642  0.9404 -0.4062
  832MOL0     H 9795   6.613   2.031   3.827  0.4975 -0.5539  0.4176
  832MOL0     H 9796   6.525   2.164   3.573  2.7399 -0.9118 -0.6025
  832MOL0     H 9797   6.441   2.189   3.718 -0.3281 -1.3693 -0.4539
  832MOL0     H 9798   6.657   2.300   3.821  2.8894  0.3830 -0.2988
  832MOL0     H 9799   6.557   2.390   3.701  0.8086  0.9193 -2.2220
  832MOL0     H 9800   6.723   2.338   3.524 -2.7535 -0.0476  0.5710
  832MOL0     H 9801   6.812   2.228   3.635  1.7329  1.7228 -0.5835
  832MOL0     H 9802   6.778   2.534   3.667 -0.5047 -0.8700 -0.4833
  832MOL0     H 9803   6.868   2.425   3.773  1.4174 -2.6637 -0.7511
  832MOL0     H 9804   7.008   2.560   3.603  0.5754  0.2217 -2.4335
  832MOL0     H 9805   6.946   2.436   3.489  1.9509 -1.9977  0.7189
  832MOL0     H 9806   6.641   1.679   3.365  0.7216 -1.0084  0.0446
  832MOL0     H 9807   6.752   1.487   3.464 -2.0925  0.1098  1.4720
  832MOL0     H 9808   6.846   1.186   3.807 -1.9851  4.0123  3.1095
  832MOL0     H 9809   6.978   1.018   3.919  2.3752 -0.1522  1.7818
  832MOL0     H 9810   7.743   2.158   3.855  0.1700  0.7473 -0.3195
  832MOL0     H 9811   7.750   2.387   3.777 -1.3390 -0.1386 -2.4824
  832MOL0     H 9812   7.813   2.818   3.608 -1.0936 -0.0999 -1.1677
  832MOL0     H 9813   7.756   3.025   3.498  1.0464 -0.6807  0.8092
  832MOL0     H 9814   7.603   3.260   3.644  0.0714 -0.4866 -0.2949
  832MOL0     H 9815   7.449   3.183   3.680  0.0871  0.3338 -0.0586
  832MOL0     H 9816   7.457   3.446   3.642  0.7317 -1.3250  1.5468
  832MOL0     H 9817   7.496   3.411   3.473  2.4888 -2.9993  0.4306
  832MOL0     H 9818   7.229   3.329   3.592 -3.6374  3.2459 -2.0771
  832MOL0     H 9819   7.292   3.266   3.442 -5.5876  0.3203 -0.4048
  832MOL0     H 9820   7.288   3.499   3.355  0.6320 -0.4569  1.2372
  832MOL0     H 9821   7.129   3.443   3.417 -1.9073  2.3497 -1.5775
  832MOL0     H 9822   7.209   3.738   3.699 -1.6993  0.3943 -1.2426
  832MOL0     H 9823   7.348   2.987   3.615  0.2866 -1.3080 -0.6378
  832MOL0     H 9824   7.387   2.775   3.685 -1.9078  2.1727 -2.4755
  833MOL0     O 9825   2.612   7.374   0.740  1.3720 -0.7357  0.6688
  833MOL0     C 9826   2.661   7.304   0.824  0.0745  0.2394 -1.0990
  833MOL0     O 9827   2.624   7.294   0.955 -0.3476 -0.1116 -0.0418
  833MOL0     C 9828   2.534   7.384   1.005  0.6827 -0.8936  1.1960
  833MOL0     C 9829   2.410   7.422   0.935 -0.7153  0.4368 -0.9138
  833MOL0     C 9830   2.313   7.505   1.001  0.0446 -0.4636 -0.1210
  833MOL0     C 9831   2.337   7.552   1.131  0.4749 -0.0906  0.2745
  833MOL0     O 9832   2.264   7.662   1.186 -0.3977  0.3690 -0.8461
  833MOL0     C 9833   2.121   7.645   1.184 -0.7321 -0.3605  0.2810
  833MOL0     C 9834   2.052   7.728   1.071  1.0486  0.0105  0.1242
  833MOL0     C 9835   1.954   7.831   1.123  0.1381  0.3344  0.6068
  833MOL0     C 9836   1.889   7.895   1.006 -0.2560  0.1680 -0.2182
  833MOL0     C 9837   1.780   7.978   1.049  0.0802 -1.0843  0.3657
  833MOL0     C 9838   1.819   8.089   1.147 -0.3169  0.5084  0.1017
  833MOL0     C 9839   1.711   8.199   1.136  0.2278  0.9090 -0.8841
  833MOL0     C 9840   1.738   8.316   1.239 -0.2106  0.6798 -0.1277
  833MOL0     N 9841   1.637   8.426   1.238  0.3112 -0.6251  0.1171
  833MOL0     C 9842   1.605   8.532   1.149  0.5893 -0.1445  0.3082
  833MOL0     C 9843   1.533   8.617   1.217  0.2077 -0.8600  0.1691
  833MOL0     C 9844   1.492   8.758   1.162  0.6233 -0.4198 -0.1433
  833MOL0     C 9845   1.356   8.764   1.088 -0.2906  0.8664  0.3338
  833MOL0     C 9846   1.232   8.688   1.156  0.8803 -0.1639  0.6935
  833MOL0     C 9847   1.113   8.741   1.085  0.1888  0.8618  0.5395
  833MOL0     O 9848   1.006   8.656   1.117  0.7673 -0.4966  0.2470
  833MOL0     C 9849   0.963   8.548   1.048 -0.6763 -0.5691 -0.5290
  833MOL0     C 9850   0.843   8.494   1.105 -1.0494  0.1453  0.5949
  833MOL0     C 9851   0.787   8.386   1.043 -0.7449  0.4369 -0.6155
  833MOL0     C 9852   0.849   8.315   0.934  0.4816 -0.4867  0.5161
  833MOL0     C 9853   0.803   8.184   0.891 -0.9732  0.7416  1.2360
  833MOL0     O 9854   0.862   8.145   0.777  0.3730  0.3659 -0.2793
  833MOL0     C 9855   0.838   8.014   0.747  0.3152 -0.4821 -0.2381
  833MOL0     C 9856   0.868   7.899   0.822  1.2423  0.7918  0.3843
  833MOL0     C 9857   0.831   7.771   0.763 -0.0629 -0.2398  0.0730
  833MOL0     C 9858   0.783   7.751   0.639 -0.5175  0.4668 -0.8675
  833MOL0     O 9859   0.732   7.629   0.589  0.2187 -0.1115  0.3530
  833MOL0     C 9860   0.589   7.615   0.613 -0.0937  0.0647  0.5979
  833MOL0     C 9861   0.512   7.580   0.482  0.1158  0.7012  0.2542
  833MOL0     C 9862   0.367   7.633   0.467  1.0179  0.0965  0.3527
  833MOL0     C 9863   0.376   7.784   0.442 -0.4807  0.0389 -0.4475
  833MOL0     C 9864   0.236   7.835   0.466  0.9225  0.2836  0.2722
  833MOL0     C 9865   0.113   7.775   0.387  0.1466 -0.5214  0.6415
  833MOL0     C 9866   0.133   7.800   0.236 -0.5062 -0.3996  0.2168
  833MOL0     C 9867   0.007   7.794   0.149  0.9575 -0.7257 -0.2352
  833MOL0    Cl 9868  -0.112   7.931   0.171  0.0120  0.1797 -0.4264
  833MOL0     C 9869   0.785   7.861   0.561 -1.1486 -0.2956 -0.2075
  833MOL0     C 9870   0.797   7.994   0.618  0.5319  0.9064  0.4397
  833MOL0     O 9871   0.737   8.116   0.970  0.8465  0.0081 -1.1183
  833MOL0     C 9872   0.967   8.376   0.883  0.0520  0.8319  0.1017
  833MOL0     C 9873   1.025   8.497   0.933  0.5853  0.1376 -0.2785
  833MOL0     N 9874   1.516   8.569   1.338  0.1571 -0.2062 -0.2924
  833MOL0     N 9875   1.587   8.465   1.358  0.8883  0.2878  0.5057
  833MOL0     C 9876   2.467   7.541   1.187 -0.7348 -0.2812  0.6686
  833MOL0     C 9877   2.562   7.444   1.131 -0.3917 -0.5136  0.3057
  833MOL0     C 9878   2.771   7.222   0.778 -0.0095 -1.0358  0.2337
  833MOL0     C 9879   2.820   7.118   0.863  0.1521 -0.1962  0.6776
  833MOL0     C 9880   2.939   7.063   0.820  0.0147 -0.9308 -1.0212
  833MOL0     C 9881   3.004   7.096   0.700 -0.1309  0.9948 -0.6703
  833MOL0     O 9882   3.122   7.036   0.679  0.0383  0.6525 -0.5720
  833MOL0     C 9883   3.217   7.091   0.590  0.0172 -0.0164  0.1871
  833MOL0     C 9884   3.283   7.233   0.603 -0.0212 -0.5701 -0.0948
  833MOL0     C 9885   3.355   7.230   0.746 -0.3959 -0.3125 -0.6187
  833MOL0     C 9886   3.492   7.144   0.760  0.9186 -0.9125  0.6440
  833MOL0     C 9887   3.600   7.224   0.723  0.4146  0.4557  1.1730
  833MOL0     C 9888   3.684   7.300   0.680  0.6368  0.3750  0.5933
  833MOL0     C 9889   2.939   7.174   0.604 -0.5260 -0.6692 -0.1229
  833MOL0     C 9890   2.824   7.238   0.646 -0.0824  0.2618  0.3650
  833MOL0     H 9891   2.380   7.389   0.835 -0.1987 -1.6499 -0.4254
  833MOL0     H 9892   2.225   7.536   0.946 -1.2171 -2.6938  0.4883
  833MOL0     H 9893   2.091   7.673   1.285 -0.2342  4.0144 -0.5744
  833MOL0     H 9894   2.093   7.542   1.163 -3.6260  0.0211  1.8559
  833MOL0     H 9895   2.009   7.650   1.008  3.4238  0.8918 -2.7506
  833MOL0     H 9896   2.129   7.789   1.023  0.5695  1.8122  1.5089
  833MOL0     H 9897   2.007   7.902   1.188 -0.3301 -1.1092  2.6602
  833MOL0     H 9898   1.879   7.783   1.187  0.5014 -0.2051  0.6299
  833MOL0     H 9899   1.971   7.955   0.966 -1.2865  1.0664 -1.0525
  833MOL0     H 9900   1.853   7.820   0.935 -0.5360  0.2565 -0.1698
  833MOL0     H 9901   1.693   7.923   1.085 -4.7441  2.8153 -3.8885
  833MOL0     H 9902   1.743   8.021   0.956  0.2860 -0.7663  0.4263
  833MOL0     H 9903   1.921   8.124   1.127  0.2542 -0.7440  0.6574
  833MOL0     H 9904   1.822   8.044   1.247  0.3149  0.0459 -0.1202
  833MOL0     H 9905   1.715   8.240   1.035 -0.1234  0.6150 -1.0227
  833MOL0     H 9906   1.606   8.172   1.152 -0.4789  2.5179 -2.4759
  833MOL0     H 9907   1.834   8.362   1.216  1.3044 -2.6545 -1.1746
  833MOL0     H 9908   1.755   8.264   1.334  2.0044 -0.6217 -1.1641
  833MOL0     H 9909   1.665   8.548   1.061  2.3933  1.4552  1.7467
  833MOL0     H 9910   1.568   8.795   1.092 -1.3450  1.5854 -1.3320
  833MOL0     H 9911   1.490   8.837   1.238 -0.6971  0.1413 -0.7233
  833MOL0     H 9912   1.372   8.728   0.987 -2.0893  0.9100  0.0003
  833MOL0     H 9913   1.332   8.871   1.086  3.5764  1.9174  0.2908
  833MOL0     H 9914   1.232   8.580   1.143  0.4398 -0.2538  1.3851
  833MOL0     H 9915   1.226   8.723   1.260 -1.3524 -2.6581  1.4954
  833MOL0     H 9916   1.134   8.748   0.978  6.4995  1.5718  1.4641
  833MOL0     H 9917   1.086   8.840   1.123 -2.4633  0.6394 -0.5318
  833MOL0     H 9918   0.805   8.553   1.188 -0.2828  2.9101 -0.8908
  833MOL0     H 9919   0.704   8.343   1.097 -1.4185 -0.1826 -2.0842
  833MOL0     H 9920   0.915   7.897   0.919 -3.1360  1.2039  2.7584
  833MOL0     H 9921   0.841   7.689   0.833  4.8153  2.1585  2.6144
  833MOL0     H 9922   0.537   7.705   0.646 -1.0616  0.0984 -0.9117
  833MOL0     H 9923   0.580   7.541   0.694  0.3418 -2.1860 -1.2881
  833MOL0     H 9924   0.502   7.471   0.478 -3.2298  0.7506  2.7800
  833MOL0     H 9925   0.573   7.605   0.395  1.0166  3.7739  1.6030
  833MOL0     H 9926   0.317   7.608   0.560  2.1351 -0.9030  0.7231
  833MOL0     H 9927   0.309   7.583   0.389  1.4003  1.9809 -1.2177
  833MOL0     H 9928   0.447   7.844   0.499  0.6213  0.4043 -2.1184
  833MOL0     H 9929   0.397   7.787   0.334 -3.5345 -4.3035 -1.4140
  833MOL0     H 9930   0.225   7.939   0.434  1.0972 -0.5669 -2.9467
  833MOL0     H 9931   0.221   7.822   0.574 -0.1440  2.7534  0.4766
  833MOL0     H 9932   0.022   7.824   0.423  0.3251  0.5852 -0.3454
  833MOL0     H 9933   0.094   7.669   0.408 -1.5449 -0.1734  1.0009
  833MOL0     H 9934   0.188   7.893   0.219  1.7695 -1.9657 -1.6211
  833MOL0     H 9935   0.218   7.733   0.218 -0.9456 -0.4531 -1.9014
  833MOL0     H 9936  -0.044   7.700   0.173 -3.8841  1.5815 -0.2794
  833MOL0     H 9937   0.037   7.786   0.044 -0.5786 -2.7218 -0.5852
  833MOL0     H 9938   0.762   7.850   0.456  3.0465 -2.1545 -1.1242
  833MOL0     H 9939   0.793   8.072   0.542  0.6756  1.6349  1.1768
  833MOL0     H 9940   1.013   8.320   0.803 -1.0524  1.3001 -0.8871
  833MOL0     H 9941   1.117   8.545   0.902 -0.3306  1.6445 -0.7761
  833MOL0     H 9942   2.473   7.585   1.286  0.5734  0.6093  0.2114
  833MOL0     H 9943   2.656   7.430   1.182  1.5290  4.9736 -1.0247
  833MOL0     H 9944   2.777   7.103   0.962 -2.4253 -2.9616 -0.7312
  833MOL0     H 9945   2.990   6.998   0.890  0.7325  3.7951  3.4685
  833MOL0     H 9946   3.176   7.083   0.489  1.2600 -0.1193 -0.3296
  833MOL0     H 9947   3.297   7.017   0.602  0.4991  0.1403 -1.7423
  833MOL0     H 9948   3.344   7.245   0.514 -1.0189 -3.9238 -1.3596
  833MOL0     H 9949   3.207   7.312   0.606  0.6998  0.3253 -2.7519
  833MOL0     H 9950   3.279   7.192   0.816 -0.4541 -0.5769 -0.8260
  833MOL0     H 9951   3.370   7.335   0.774 -2.8618 -0.5034  1.9770
  833MOL0     H 9952   3.505   7.102   0.861 -0.1777  1.2323  1.7339
  833MOL0     H 9953   3.484   7.061   0.690 -1.8509 -1.2248  1.2166
  833MOL0     H 9954   3.749   7.358   0.619  0.7616  1.4051  1.6590
  833MOL0     H 9955   2.966   7.170   0.499  5.8591 -1.0111  1.1357
  833MOL0     H 9956   2.783   7.313   0.579  1.1303  0.2191 -0.4717
  834MOL0     O 9957  10.555   6.356   2.047  0.2140  0.3752  0.8433
  834MOL0     C 9958  10.612   6.369   1.932  0.1518  0.9003  0.4234
  834MOL0     O 9959  10.750   6.385   1.901  0.5981 -0.0848  0.2138
  834MOL0     C 9960  10.844   6.428   1.998  0.3204  1.2499 -0.3687
  834MOL0     C 9961  10.827   6.545   2.059 -0.4652 -0.1181 -0.7158
  834MOL0     C 9962  10.940   6.594   2.138 -0.2731  0.4652  0.6867
  834MOL0     C 9963  11.056   6.514   2.139  0.5001 -1.3026 -0.4217
  834MOL0     O 9964  11.151   6.549   2.229  0.5215 -0.4907 -0.5989
  834MOL0     C 9965  11.226   6.669   2.197 -0.3680 -0.3221  0.6009
  834MOL0     C 9966  11.357   6.622   2.246 -0.2920  0.0124 -0.0015
  834MOL0     C 9967  11.457   6.729   2.211  0.7439  0.7724 -0.3197
  834MOL0     C 9968  11.606   6.675   2.232  0.5423 -0.2487 -0.2809
  834MOL0     C 9969  11.633   6.620   2.382  1.0285 -0.7537 -0.2988
  834MOL0     C 9970  11.781   6.574   2.418  0.1382  1.4866 -0.2133
  834MOL0     C 9971  11.800   6.537   2.571  0.5632 -0.3499 -0.3863
  834MOL0     C 9972  11.807   6.661   2.657 -0.0767 -0.1060  0.2930
  834MOL0     N 9973  11.816   6.612   2.798  1.0657 -0.3202 -0.0999
  834MOL0     C 9974  11.714   6.622   2.887  0.7751 -0.3055 -0.5646
  834MOL0     C 9975  11.759   6.586   3.008  0.4676 -0.0098 -0.3372
  834MOL0     C 9976  11.697   6.589   3.145 -0.1881 -0.3449  0.1516
  834MOL0     C 9977  11.622   6.454   3.170 -0.1023 -0.9435  0.4195
  834MOL0     C 9978  11.508   6.441   3.066 -0.7377 -0.5916  0.1085
  834MOL0     C 9979  11.426   6.317   3.095  0.2762  0.2333 -0.6129
  834MOL0     O 9980  11.335   6.326   3.207 -0.0371 -0.1095  0.6376
  834MOL0     C 9981  11.188   6.317   3.187  0.1259 -0.0514 -0.6076
  834MOL0     C 9982  11.116   6.328   3.065 -0.4049 -0.5217 -0.3023
  834MOL0     C 9983  10.983   6.298   3.057  0.2619 -0.6315 -0.6049
  834MOL0     C 9984  10.914   6.241   3.170  0.7229  0.0042 -1.2201
  834MOL0     C 9985  10.783   6.178   3.170 -0.7644  0.1780  0.5036
  834MOL0     O 9986  10.745   6.110   3.286  0.1566 -0.5395  0.1738
  834MOL0     C 9987  10.650   6.003   3.288  0.1128  0.1895  0.6752
  834MOL0     C 9988  10.628   5.923   3.180  0.9678 -0.5514  0.3566
  834MOL0     C 9989  10.537   5.824   3.176  0.3035 -0.2235  0.8435
  834MOL0     C 9990  10.470   5.801   3.302 -0.0033 -0.1039 -0.3465
  834MOL0     O 9991  10.378   5.698   3.296 -0.6912  0.3534 -0.7474
  834MOL0     C 9992  10.408   5.588   3.385 -0.1288  0.2831  0.5946
  834MOL0     C 9993  10.367   5.451   3.330 -0.6338 -0.4424 -0.1637
  834MOL0     C 9994  10.449   5.411   3.217  0.2492  0.1982  0.0318
  834MOL0     C 9995  10.410   5.271   3.174  0.2721 -0.2511  1.0308
  834MOL0     C 9996  10.470   5.224   3.052 -1.5403  1.0146 -0.1945
  834MOL0     C 9997  10.625   5.255   3.041 -0.0196 -0.2817 -0.2132
  834MOL0     C 9998  10.687   5.164   2.947 -0.2640  0.9756 -0.2484
  834MOL0     C 9999  10.815   5.227   2.909 -0.5256  0.3703 -0.2855
  834MOL0    Cl10000  10.934   5.213   3.046 -0.3438 -0.0372 -0.0395
  834MOL0     C10001  10.496   5.877   3.413 -0.0458  0.9449 -0.2923
  834MOL0     C10002  10.592   5.979   3.408 -0.6806  0.6262  0.3069
  834MOL0     O10003  10.717   6.191   3.062 -0.1920  0.6115  0.0294
  834MOL0     C10004  10.981   6.248   3.294  0.5336  0.6744 -0.0924
  834MOL0     C10005  11.115   6.295   3.303  0.0079  0.1584 -1.2551
  834MOL0     N10006  11.897   6.550   2.981 -0.0815  0.1772  0.1358
  834MOL0     N10007  11.928   6.565   2.860  0.3542  0.4100  0.4143
  834MOL0     C10008  11.065   6.393   2.074 -0.2518  0.2547  1.5009
  834MOL0     C10009  10.960   6.356   1.998 -0.4929 -0.1699 -1.8345
  834MOL0     C10010  10.526   6.347   1.818 -0.1408 -0.6673  1.3237
  834MOL0     C10011  10.397   6.296   1.840 -0.3238  0.1813 -0.2305
  834MOL0     C10012  10.308   6.288   1.726 -0.1384  0.3404  0.0501
  834MOL0     C10013  10.342   6.331   1.596 -0.2256  0.0666  0.2001
  834MOL0     O10014  10.253   6.298   1.497 -0.3696  0.6343  0.4241
  834MOL0     C10015  10.279   6.358   1.373 -1.4370 -0.6336  0.5123
  834MOL0     C10016  10.145   6.374   1.292 -0.4274 -0.2770 -0.1321
  834MOL0     C10017  10.168   6.410   1.148 -1.1271 -0.3819 -0.1491
  834MOL0     C10018  10.062   6.515   1.106 -0.2404  0.4424  0.7007
  834MOL0     C10019  10.105   6.640   1.171 -0.4049 -0.0943  0.4058
  834MOL0     C10020  10.148   6.734   1.220 -0.1307 -0.0207 -0.0714
  834MOL0     C10021  10.469   6.395   1.580  0.5490 -0.6152 -0.1142
  834MOL0     C10022  10.561   6.400   1.685  0.3247 -0.1956  0.3758
  834MOL0     H10023  10.738   6.606   2.059 -0.2106  0.2685  0.1022
  834MOL0     H10024  10.937   6.677   2.207 -0.0389  1.9402 -1.0055
  834MOL0     H10025  11.206   6.762   2.250  0.7249  0.1342  0.2422
  834MOL0     H10026  11.217   6.689   2.090  0.4202  0.8579  0.7335
  834MOL0     H10027  11.387   6.533   2.191 -1.4788  1.3868 -3.0730
  834MOL0     H10028  11.366   6.622   2.355 -1.5441  2.3674  0.1715
  834MOL0     H10029  11.435   6.804   2.288 -1.6752 -0.7486  0.6045
  834MOL0     H10030  11.455   6.779   2.114  0.3787 -1.3974 -1.4862
  834MOL0     H10031  11.634   6.600   2.158 -0.6337 -1.3312  0.3460
  834MOL0     H10032  11.665   6.765   2.209 -2.1401  1.2168 -1.9493
  834MOL0     H10033  11.562   6.540   2.407 -0.6797  0.7611 -0.0687
  834MOL0     H10034  11.597   6.699   2.448 -0.5366 -2.1026  0.5550
  834MOL0     H10035  11.854   6.647   2.381  2.9195 -1.4854 -1.0727
  834MOL0     H10036  11.819   6.493   2.355 -0.6450  1.7758 -1.0768
  834MOL0     H10037  11.714   6.476   2.602  2.9935 -3.6851  0.3458
  834MOL0     H10038  11.890   6.478   2.588  0.6128  0.4133  2.6389
  834MOL0     H10039  11.721   6.728   2.647  2.5163  3.3321 -1.2174
  834MOL0     H10040  11.897   6.716   2.626 -0.5325 -1.2138 -3.5565
  834MOL0     H10041  11.613   6.656   2.866 -0.1852  0.1613  3.7331
  834MOL0     H10042  11.629   6.673   3.165 -2.7896 -2.7313  2.0523
  834MOL0     H10043  11.778   6.594   3.219 -0.3356  3.9578  0.2681
  834MOL0     H10044  11.581   6.453   3.271 -0.5317  0.0188  0.2668
  834MOL0     H10045  11.686   6.368   3.152 -0.2930 -1.3266  1.5316
  834MOL0     H10046  11.442   6.526   3.052 -3.3593 -2.6077 -0.6213
  834MOL0     H10047  11.563   6.416   2.975 -1.5370  1.7876 -1.0963
  834MOL0     H10048  11.498   6.234   3.097  0.4948  0.4129  1.8781
  834MOL0     H10049  11.364   6.300   3.007 -0.9971 -1.0393  0.4757
  834MOL0     H10050  11.162   6.366   2.974  1.2882 -0.6674  0.4523
  834MOL0     H10051  10.924   6.307   2.966  2.6079  1.8939 -2.0253
  834MOL0     H10052  10.688   5.941   3.091 -0.8038  3.4486 -0.2424
  834MOL0     H10053  10.527   5.784   3.076 -2.8091  1.4860  0.3553
  834MOL0     H10054  10.352   5.609   3.477 -2.0828 -1.6091 -0.0846
  834MOL0     H10055  10.513   5.588   3.415 -0.3954  0.4954  1.5678
  834MOL0     H10056  10.259   5.447   3.317 -0.6345  0.2603 -0.4157
  834MOL0     H10057  10.388   5.369   3.400  1.7285 -1.3599 -1.8159
  834MOL0     H10058  10.549   5.412   3.260 -0.0072 -0.5786  0.6789
  834MOL0     H10059  10.445   5.478   3.131  4.6961 -1.5739 -1.8378
  834MOL0     H10060  10.438   5.205   3.257  0.6986  0.1337  1.1949
  834MOL0     H10061  10.301   5.266   3.168  0.3287 -0.2939 -0.1739
  834MOL0     H10062  10.445   5.284   2.964  0.7794  0.3514 -1.3879
  834MOL0     H10063  10.454   5.117   3.038 -3.0517  1.1364  0.3733
  834MOL0     H10064  10.669   5.261   3.141  0.3990  0.6539 -0.4440
  834MOL0     H10065  10.632   5.358   3.008  0.0459 -0.4597 -0.7614
  834MOL0     H10066  10.718   5.070   2.992 -2.0111 -0.4860 -1.9059
  834MOL0     H10067  10.623   5.138   2.862  1.0305 -0.4880 -0.8212
  834MOL0     H10068  10.806   5.331   2.877  0.8957 -0.4175 -3.6056
  834MOL0     H10069  10.861   5.161   2.835  1.2367 -0.3933  1.4072
  834MOL0     H10070  10.441   5.841   3.500 -0.7318  0.7624 -0.7939
  834MOL0     H10071  10.633   6.028   3.496  1.5432 -0.1930 -0.2077
  834MOL0     H10072  10.946   6.223   3.394  1.1284 -4.2365 -0.8942
  834MOL0     H10073  11.167   6.281   3.398  0.3852  2.0583 -1.1477
  834MOL0     H10074  11.158   6.340   2.089  1.1301  2.2407  0.3504
  834MOL0     H10075  10.971   6.266   1.937 -2.6202 -2.8317  1.3489
  834MOL0     H10076  10.372   6.273   1.943 -0.1635 -0.4940 -0.3378
  834MOL0     H10077  10.220   6.227   1.743  0.5620 -0.0864  2.5609
  834MOL0     H10078  10.328   6.290   1.303 -3.4575  0.6718 -2.3916
  834MOL0     H10079  10.331   6.455   1.374  0.5456 -1.5932 -1.2307
  834MOL0     H10080  10.091   6.279   1.293 -0.8253 -0.0533  0.0481
  834MOL0     H10081  10.067   6.438   1.335 -0.8453 -0.2965 -0.8452
  834MOL0     H10082  10.156   6.319   1.089  0.1590 -0.1607 -0.7856
  834MOL0     H10083  10.268   6.450   1.127 -1.1160 -0.9614 -1.2338
  834MOL0     H10084  10.059   6.530   0.998  1.5944 -2.0101  0.2111
  834MOL0     H10085   9.960   6.485   1.130 -1.0912  1.4325 -1.4652
  834MOL0     H10086  10.181   6.822   1.273  1.3912 -0.1418 -0.7767
  834MOL0     H10087  10.501   6.431   1.483  1.6418 -0.3270  0.3370
  834MOL0     H10088  10.654   6.455   1.673  0.0584  0.1494 -0.1968
  835MOL0     O10089  10.883   5.465   8.325 -0.0642  0.4920 -0.5621
  835MOL0     C10090  10.913   5.348   8.316 -0.2724 -0.2166  0.7092
  835MOL0     O10091  10.934   5.263   8.425  0.3718 -1.0848 -0.5001
  835MOL0     C10092  10.896   5.317   8.546 -0.7956  1.2982  0.5416
  835MOL0     C10093  10.771   5.304   8.585  0.6328 -0.7366 -1.2054
  835MOL0     C10094  10.720   5.348   8.710 -0.4393  0.3372  0.8054
  835MOL0     C10095  10.813   5.398   8.802  0.4677 -0.1998 -0.6405
  835MOL0     O10096  10.788   5.428   8.939  0.5170 -0.7191 -0.3022
  835MOL0     C10097  10.675   5.371   9.006  0.3964  0.3015  0.2346
  835MOL0     C10098  10.693   5.215   9.026  0.2691  0.2889  0.6178
  835MOL0     C10099  10.810   5.195   9.123 -0.1768 -0.3240 -0.8866
  835MOL0     C10100  10.760   5.212   9.277  0.1884  0.1698  1.1589
  835MOL0     C10101  10.870   5.202   9.382 -0.6806 -0.0279  0.1835
  835MOL0     C10102  10.813   5.240   9.512 -0.0641  0.5233  0.2083
  835MOL0     C10103  10.909   5.215   9.631  0.5917 -0.1956  0.7461
  835MOL0     C10104  10.865   5.279   9.767 -0.3889  0.1285 -0.0876
  835MOL0     N10105  10.837   5.423   9.746 -1.3749  0.7603  0.4511
  835MOL0     C10106  10.916   5.533   9.726 -0.4721  0.0772  0.5602
  835MOL0     C10107  10.832   5.639   9.720 -0.2395 -0.1562  0.8071
  835MOL0     C10108  10.868   5.784   9.722  0.3557  0.1410  0.5491
  835MOL0     C10109  10.826   5.849   9.852  0.6400 -0.1436 -0.0294
  835MOL0     C10110  10.909   5.799   9.962 -0.3219 -0.6166  0.0229
  835MOL0     C10111  10.893   5.874  10.098 -1.0002  0.0076  0.0623
  835MOL0     O10112  10.946   6.013  10.083  0.1217 -0.2181 -0.2430
  835MOL0     C10113  11.006   6.087  10.190 -0.2277 -0.3638  0.6023
  835MOL0     C10114  11.017   6.040  10.314 -0.3261  0.3046 -0.0942
  835MOL0     C10115  11.095   6.103  10.417  1.3015  0.6816  0.5084
  835MOL0     C10116  11.153   6.227  10.396  1.3811  0.2597  0.7680
  835MOL0     C10117  11.210   6.306  10.508 -0.3663 -0.1666  0.6831
  835MOL0     O10118  11.169   6.278  10.633 -0.6573  0.4435 -1.3625
  835MOL0     C10119  11.194   6.351  10.752 -0.2256 -0.1029  1.1777
  835MOL0     C10120  11.253   6.480  10.750  0.5612 -0.6978 -0.0437
  835MOL0     C10121  11.284   6.540  10.868 -0.0984 -0.2392 -0.1265
  835MOL0     C10122  11.289   6.465  10.988  0.1919 -0.8892  0.4246
  835MOL0     O10123  11.342   6.523  11.092 -0.0597 -0.1869 -0.0901
  835MOL0     C10124  11.324   6.477  11.225 -0.5234 -0.2865 -1.0566
  835MOL0     C10125  11.423   6.369  11.272 -1.1806 -0.8048 -0.3991
  835MOL0     C10126  11.552   6.433  11.333  0.5227  0.1838  0.4690
  835MOL0     C10127  11.657   6.324  11.374 -0.3898 -0.3031 -0.3976
  835MOL0     C10128  11.606   6.226  11.489  1.0629  0.1101  0.0412
  835MOL0     C10129  11.570   6.283  11.627 -0.4582  0.3399  0.1594
  835MOL0     C10130  11.685   6.363  11.694  0.2107 -0.5274 -0.9028
  835MOL0     C10131  11.812   6.283  11.731 -0.2397  0.2580 -0.2468
  835MOL0    Cl10132  11.919   6.402  11.825 -0.1211  0.6494 -0.3341
  835MOL0     C10133  11.242   6.328  10.988 -0.0997 -0.2647  0.4319
  835MOL0     C10134  11.189   6.273  10.868  0.0070  0.0234  0.7881
  835MOL0     O10135  11.280   6.399  10.475 -0.2150 -0.7399 -0.2862
  835MOL0     C10136  11.155   6.269  10.264 -0.5490  0.7057  0.5091
  835MOL0     C10137  11.079   6.205  10.164 -0.0319 -0.1983 -0.4123
  835MOL0     N10138  10.699   5.597   9.717  0.6508 -0.1595  0.4978
  835MOL0     N10139  10.714   5.466   9.733  0.7408  0.1947  0.5984
  835MOL0     C10140  10.952   5.404   8.761 -0.1813 -0.1425  0.9720
  835MOL0     C10141  10.989   5.363   8.633 -0.6226  0.9389  0.0177
  835MOL0     C10142  10.929   5.292   8.178 -0.7163 -0.0456  0.3721
  835MOL0     C10143  10.954   5.154   8.170  0.5466  0.8186  0.2735
  835MOL0     C10144  10.990   5.095   8.046  0.5802 -0.0560  0.3186
  835MOL0     C10145  11.006   5.178   7.928  0.3297  1.0379  0.9214
  835MOL0     O10146  11.048   5.119   7.810  0.0993  0.4790 -0.5354
  835MOL0     C10147  11.162   5.175   7.756 -0.3428 -0.2985  0.8122
  835MOL0     C10148  11.220   5.058   7.673  0.2258  1.6800 -0.0841
  835MOL0     C10149  11.242   4.921   7.739 -0.7143  0.2940  0.2145
  835MOL0     C10150  11.223   4.790   7.663 -0.2615 -0.6775 -0.2611
  835MOL0     C10151  11.259   4.690   7.764 -0.6944 -0.2391 -0.3530
  835MOL0     C10152  11.277   4.612   7.855 -0.1049 -0.4255  0.3325
  835MOL0     C10153  10.981   5.310   7.941 -1.5689 -0.4967 -0.0504
  835MOL0     C10154  10.950   5.364   8.058  0.8625 -0.4502  0.3749
  835MOL0     H10155  10.711   5.252   8.511  0.4354 -3.3083  0.6360
  835MOL0     H10156  10.614   5.338   8.732 -0.5238  0.1007  0.2937
  835MOL0     H10157  10.581   5.402   8.959 -0.3506 -1.9775  0.1113
  835MOL0     H10158  10.664   5.411   9.107  1.7572 -1.0550  0.9650
  835MOL0     H10159  10.714   5.168   8.930  0.8113 -0.7834  1.2404
  835MOL0     H10160  10.601   5.175   9.070  0.3743  2.5503  3.1909
  835MOL0     H10161  10.895   5.256   9.093 -1.2465  1.7163  0.0101
  835MOL0     H10162  10.841   5.091   9.112  1.6729  0.0090  0.6739
  835MOL0     H10163  10.691   5.295   9.293 -2.2611 -1.4278 -0.5196
  835MOL0     H10164  10.692   5.130   9.300  0.8336 -1.2510 -1.4915
  835MOL0     H10165  10.959   5.263   9.364 -0.3408  0.8660  4.0202
  835MOL0     H10166  10.901   5.097   9.378  1.4435  0.5473 -0.0742
  835MOL0     H10167  10.734   5.167   9.530  0.9063 -0.2545  1.4848
  835MOL0     H10168  10.791   5.347   9.508  2.6267  1.1307 -0.3305
  835MOL0     H10169  10.912   5.107   9.648  2.6508 -0.4223 -0.6481
  835MOL0     H10170  11.009   5.253   9.607 -1.1209  2.4834 -3.3180
  835MOL0     H10171  10.925   5.266   9.857  4.2724  1.0839 -2.7183
  835MOL0     H10172  10.776   5.221   9.795  0.9143 -3.5911 -2.7373
  835MOL0     H10173  11.023   5.532   9.711 -0.2492 -1.4958  1.9663
  835MOL0     H10174  10.839   5.843   9.635 -0.4331  0.2736  0.8906
  835MOL0     H10175  10.977   5.776   9.714  0.0916 -2.4876 -2.3386
  835MOL0     H10176  10.718   5.832   9.861  0.6799  0.1733  1.1943
  835MOL0     H10177  10.836   5.956   9.838  1.2378  0.0596  1.6467
  835MOL0     H10178  10.889   5.693   9.979 -2.7353 -0.6771 -2.4859
  835MOL0     H10179  11.014   5.804   9.930 -1.1912 -3.8242 -4.2208
  835MOL0     H10180  10.946   5.818  10.175  3.2578  1.1881 -1.7079
  835MOL0     H10181  10.787   5.870  10.126 -1.1618  4.6050  1.0143
  835MOL0     H10182  10.964   5.949  10.344 -0.2486  0.2999  0.0305
  835MOL0     H10183  11.097   6.066  10.519 -0.1431  0.2918  0.4182
  835MOL0     H10184  11.262   6.541  10.662  0.0554  0.5808  0.7697
  835MOL0     H10185  11.323   6.641  10.866  2.5089 -1.0294 -4.9236
  835MOL0     H10186  11.233   6.423  11.251  0.5681 -1.0307  1.5958
  835MOL0     H10187  11.318   6.573  11.278  1.2036  1.4180 -3.6582
  835MOL0     H10188  11.461   6.317  11.183  1.9706  3.9647 -2.2723
  835MOL0     H10189  11.376   6.309  11.350 -0.1326  0.5357  1.3201
  835MOL0     H10190  11.519   6.490  11.420 -1.5367 -0.6665  0.2895
  835MOL0     H10191  11.578   6.494  11.247 -0.6280 -0.5062 -0.4008
  835MOL0     H10192  11.693   6.270  11.286  1.3460  1.2737 -0.7338
  835MOL0     H10193  11.749   6.376  11.403  1.2178 -2.9111 -0.5342
  835MOL0     H10194  11.693   6.167  11.518 -0.9678 -1.3033  4.0278
  835MOL0     H10195  11.545   6.143  11.451  1.4730 -1.1783  2.0315
  835MOL0     H10196  11.559   6.198  11.695  0.8226 -0.1961 -0.2624
  835MOL0     H10197  11.473   6.332  11.614 -1.2335 -1.3242 -0.6961
  835MOL0     H10198  11.707   6.457  11.643  1.4073  1.0639  2.3102
  835MOL0     H10199  11.639   6.397  11.787  1.8343 -2.2942  0.6385
  835MOL0     H10200  11.869   6.254  11.642 -0.4816  1.2111 -0.7198
  835MOL0     H10201  11.797   6.196  11.796  2.3770  0.8327  1.2635
  835MOL0     H10202  11.236   6.276  11.084  0.2377 -0.8709  0.1299
  835MOL0     H10203  11.141   6.176  10.862  0.1150 -0.1480  2.3008
  835MOL0     H10204  11.209   6.358  10.233  0.8483  0.1782  1.3222
  835MOL0     H10205  11.088   6.230  10.059 -3.7165 -1.6698 -1.2290
  835MOL0     H10206  11.025   5.432   8.836  0.1609 -1.2634  1.0859
  835MOL0     H10207  11.091   5.365   8.596 -0.9756  2.8699 -1.0284
  835MOL0     H10208  10.925   5.087   8.251 -1.6545  1.1863 -0.1504
  835MOL0     H10209  11.016   4.990   8.034  0.7798  0.2521 -2.7120
  835MOL0     H10210  11.232   5.218   7.827 -0.5663  2.3751 -0.4814
  835MOL0     H10211  11.127   5.254   7.690 -0.8334 -0.6315  0.6628
  835MOL0     H10212  11.153   5.048   7.587  0.5501  1.7658 -0.3473
  835MOL0     H10213  11.320   5.081   7.638  1.9543 -1.9770  1.8816
  835MOL0     H10214  11.173   4.908   7.823 -0.7617  0.0654  0.1425
  835MOL0     H10215  11.346   4.926   7.774  0.2161 -3.3578 -1.4741
  835MOL0     H10216  11.118   4.781   7.633 -0.7632 -0.6687  1.3999
  835MOL0     H10217  11.291   4.785   7.577 -1.7067 -1.1329 -1.4197
  835MOL0     H10218  11.293   4.536   7.929 -0.5194 -0.8201  0.0221
  835MOL0     H10219  10.990   5.376   7.856 -2.4579  1.6333  1.4231
  835MOL0     H10220  10.951   5.471   8.073 -3.5466 -0.1886 -0.1273
  836MOL0     O10221   4.526   8.221   7.439  0.3373 -0.8071  0.5918
  836MOL0     C10222   4.550   8.331   7.382 -0.3935 -0.0363 -0.8658
  836MOL0     O10223   4.463   8.392   7.290  0.6351 -0.0279 -0.7007
  836MOL0     C10224   4.354   8.334   7.231 -0.0632  0.2778 -0.5254
  836MOL0     C10225   4.364   8.213   7.164  0.1999  0.5565  0.1091
  836MOL0     C10226   4.256   8.149   7.112 -0.1910  0.4122  0.3252
  836MOL0     C10227   4.131   8.220   7.111  0.6012 -0.1533 -0.8671
  836MOL0     O10228   4.034   8.151   7.045  0.5025  0.0416 -0.8322
  836MOL0     C10229   3.892   8.158   7.083  0.3716 -0.0542  0.1885
  836MOL0     C10230   3.803   8.064   7.014  0.4510  0.0194 -0.5381
  836MOL0     C10231   3.851   7.917   7.033 -0.6453  0.3419 -1.2865
  836MOL0     C10232   3.745   7.820   6.972  0.7718  0.6458  0.5142
  836MOL0     C10233   3.754   7.814   6.816  0.9336 -0.4267  0.0761
  836MOL0     C10234   3.678   7.701   6.755  0.1110  0.4311 -0.1750
  836MOL0     C10235   3.695   7.694   6.600  0.7739  0.0532 -0.1686
  836MOL0     C10236   3.623   7.577   6.541 -0.3729 -0.0884  0.1112
  836MOL0     N10237   3.655   7.587   6.399 -0.2130 -0.0443  0.6181
  836MOL0     C10238   3.769   7.547   6.334 -0.3516 -0.4537 -0.7513
  836MOL0     C10239   3.760   7.593   6.212  0.0168  1.0883 -0.3438
  836MOL0     C10240   3.843   7.536   6.101  0.0521 -1.0338 -0.7078
  836MOL0     C10241   3.827   7.378   6.097 -0.3228 -0.8913 -1.1213
  836MOL0     C10242   3.694   7.312   6.085  0.2459 -0.2791  0.4246
  836MOL0     C10243   3.710   7.160   6.106  0.5937  1.1977  0.1459
  836MOL0     O10244   3.582   7.106   6.067 -0.1665  0.5196 -0.0579
  836MOL0     C10245   3.534   6.987   6.116 -0.6054 -1.0342  0.2668
  836MOL0     C10246   3.409   6.953   6.069  0.4509 -1.1515 -0.7838
  836MOL0     C10247   3.343   6.849   6.123 -0.7005  0.4650  0.2906
  836MOL0     C10248   3.404   6.764   6.213 -0.2131 -0.2253 -0.0598
  836MOL0     C10249   3.333   6.633   6.235 -0.5663  0.4221  0.9602
  836MOL0     O10250   3.415   6.538   6.293  0.4537  0.4609  0.1284
  836MOL0     C10251   3.345   6.421   6.323 -0.2726 -0.3235  0.4926
  836MOL0     C10252   3.281   6.405   6.452 -0.0656 -0.4564  0.6951
  836MOL0     C10253   3.192   6.298   6.466  0.1963 -0.1509  1.0103
  836MOL0     C10254   3.149   6.226   6.354 -0.1410 -0.5943  0.6851
  836MOL0     O10255   3.042   6.150   6.376 -0.2568  1.0882 -0.6990
  836MOL0     C10256   2.927   6.209   6.325 -0.0515  0.2191  0.1824
  836MOL0     C10257   2.858   6.312   6.431  0.5857  0.2282  0.1266
  836MOL0     C10258   2.839   6.239   6.567 -0.6246  0.0494  0.9794
  836MOL0     C10259   2.784   6.323   6.683  0.4455 -0.4511  0.7299
  836MOL0     C10260   2.776   6.236   6.806 -0.3825  0.2037 -0.0854
  836MOL0     C10261   2.677   6.289   6.919 -0.3501  0.5416 -1.0627
  836MOL0     C10262   2.635   6.161   7.013 -0.0309 -0.1066  0.4823
  836MOL0     C10263   2.756   6.153   7.108 -0.0289 -0.3885 -0.7084
  836MOL0    Cl10264   2.737   6.048   7.254 -0.2389  0.2205  0.7472
  836MOL0     C10265   3.225   6.224   6.242 -1.2534 -1.2921  0.2217
  836MOL0     C10266   3.317   6.336   6.217  0.3800 -0.2655  0.0952
  836MOL0     O10267   3.223   6.614   6.187 -0.0605  0.8973 -0.3594
  836MOL0     C10268   3.537   6.782   6.239  0.2090  0.2753  0.8913
  836MOL0     C10269   3.606   6.895   6.200  0.4151 -1.2384 -0.0528
  836MOL0     N10270   3.652   7.673   6.199 -0.1605 -0.6149  0.0971
  836MOL0     N10271   3.598   7.673   6.311  0.3360  0.3726 -1.0378
  836MOL0     C10272   4.117   8.339   7.166 -0.3357  0.0106  0.6927
  836MOL0     C10273   4.227   8.389   7.241  0.7286  1.0416 -0.5881
  836MOL0     C10274   4.676   8.408   7.422  0.1480  1.0790  0.3079
  836MOL0     C10275   4.769   8.352   7.513  0.2734 -0.0303 -0.1670
  836MOL0     C10276   4.867   8.429   7.567  0.3314  0.1617  0.7458
  836MOL0     C10277   4.894   8.557   7.517  0.5084 -0.0139 -0.1167
  836MOL0     O10278   4.986   8.630   7.584 -0.4867 -0.6911  0.0764
  836MOL0     C10279   4.987   8.771   7.577  0.5014  0.2119  0.1515
  836MOL0     C10280   5.065   8.829   7.702  0.2475  0.2244  0.4011
  836MOL0     C10281   5.114   8.973   7.670  1.1439 -0.2575 -0.4250
  836MOL0     C10282   5.153   9.049   7.790  1.1356 -0.3745 -0.6474
  836MOL0     C10283   5.253   8.971   7.857  0.1037  0.3505  0.1996
  836MOL0     C10284   5.344   8.928   7.926  0.5319 -0.3111 -0.1092
  836MOL0     C10285   4.806   8.607   7.418  1.4584 -0.4281 -0.0823
  836MOL0     C10286   4.698   8.536   7.377 -0.2819 -0.5895 -0.3098
  836MOL0     H10287   4.462   8.169   7.149  0.0004 -2.1031  4.7172
  836MOL0     H10288   4.281   8.056   7.061  0.1147 -0.6901  2.3523
  836MOL0     H10289   3.858   8.260   7.062 -1.2335 -0.7244 -0.7070
  836MOL0     H10290   3.878   8.143   7.190  3.3047 -0.8640  0.5332
  836MOL0     H10291   3.787   8.101   6.912 -1.9224  1.2062  0.1895
  836MOL0     H10292   3.705   8.077   7.062  0.0657  1.2079 -1.5920
  836MOL0     H10293   3.847   7.884   7.138 -1.5366  3.3233 -0.2804
  836MOL0     H10294   3.953   7.913   6.995  0.1859  1.3597  0.6846
  836MOL0     H10295   3.740   7.719   7.014 -2.2836  0.7133  0.5607
  836MOL0     H10296   3.642   7.849   6.998 -0.5168 -0.7894 -2.4576
  836MOL0     H10297   3.857   7.806   6.778  1.2233  0.0070  0.7542
  836MOL0     H10298   3.715   7.908   6.776 -1.0731 -0.4533  1.8230
  836MOL0     H10299   3.574   7.697   6.791  1.0385 -3.1147  2.7543
  836MOL0     H10300   3.722   7.608   6.793 -4.3352 -1.4015  1.2388
  836MOL0     H10301   3.658   7.791   6.564  2.7419  1.0141  0.2615
  836MOL0     H10302   3.801   7.678   6.584  0.0653 -4.1861 -1.9017
  836MOL0     H10303   3.514   7.566   6.543 -0.2366 -1.4818  0.7561
  836MOL0     H10304   3.668   7.486   6.581 -1.3453  0.4389  2.5758
  836MOL0     H10305   3.848   7.476   6.356  2.0653  1.6229 -2.1897
  836MOL0     H10306   3.945   7.574   6.114 -0.5566  0.3681  0.3325
  836MOL0     H10307   3.790   7.576   6.014 -2.3509  1.5883  1.7174
  836MOL0     H10308   3.881   7.348   6.188  0.5661  1.5679 -0.7656
  836MOL0     H10309   3.881   7.356   6.004  0.0357 -1.0757 -0.8725
  836MOL0     H10310   3.635   7.359   6.165  0.4263  1.2688 -0.3139
  836MOL0     H10311   3.644   7.341   5.992  4.5399 -0.1794 -2.1190
  836MOL0     H10312   3.719   7.129   6.211 -2.5765 -1.2932 -0.1579
  836MOL0     H10313   3.793   7.125   6.044  1.0245  1.8860  0.3300
  836MOL0     H10314   3.366   7.031   6.008  1.9972  4.2284  4.0647
  836MOL0     H10315   3.240   6.825   6.099 -1.8550  0.6995  4.3435
  836MOL0     H10316   3.301   6.474   6.533 -0.2516  0.0525  0.3161
  836MOL0     H10317   3.140   6.278   6.559  3.6008 -0.2027  3.0729
  836MOL0     H10318   2.846   6.139   6.300  0.4686 -1.1822  2.1864
  836MOL0     H10319   2.948   6.250   6.226 -1.3429  1.4617  0.3925
  836MOL0     H10320   2.766   6.351   6.387 -0.1797 -1.3022  0.3096
  836MOL0     H10321   2.932   6.390   6.449  2.2915 -1.5613  1.3896
  836MOL0     H10322   2.933   6.190   6.591  0.6175 -1.0085 -4.5770
  836MOL0     H10323   2.770   6.155   6.557 -2.5686  1.6383  0.3398
  836MOL0     H10324   2.848   6.409   6.702 -1.8657  1.6009 -0.2550
  836MOL0     H10325   2.686   6.355   6.648  1.7693 -0.5830 -3.7361
  836MOL0     H10326   2.873   6.235   6.856  1.6574  0.5573 -3.6957
  836MOL0     H10327   2.736   6.139   6.775  0.4439  0.3214 -1.6465
  836MOL0     H10328   2.579   6.311   6.875 -0.2292 -0.9273 -2.1504
  836MOL0     H10329   2.725   6.374   6.968 -1.7216 -0.2772  1.8898
  836MOL0     H10330   2.543   6.180   7.069 -0.5573 -1.6642  0.1859
  836MOL0     H10331   2.629   6.066   6.961 -0.5190 -0.3684  1.0086
  836MOL0     H10332   2.780   6.251   7.149 -0.5897 -0.5275 -0.0268
  836MOL0     H10333   2.846   6.113   7.061  1.7300 -0.3322  2.3314
  836MOL0     H10334   3.198   6.152   6.166 -0.4463  2.4273 -4.0608
  836MOL0     H10335   3.373   6.355   6.126  0.6930  0.0514  0.3531
  836MOL0     H10336   3.601   6.722   6.302  0.3141  1.1604  1.6399
  836MOL0     H10337   3.711   6.892   6.228  0.7737  3.9845  0.1361
  836MOL0     H10338   4.018   8.376   7.140 -0.8715 -1.8995 -0.1279
  836MOL0     H10339   4.227   8.481   7.299  2.8059 -0.8889  2.7623
  836MOL0     H10340   4.761   8.249   7.547 -1.8213  0.0836 -0.2051
  836MOL0     H10341   4.937   8.381   7.636 -0.8487 -3.1907 -0.1874
  836MOL0     H10342   4.882   8.800   7.575 -0.4557 -2.7704 -2.9782
  836MOL0     H10343   5.030   8.801   7.481 -2.3270  0.8417 -1.0279
  836MOL0     H10344   4.995   8.827   7.786  2.1143  2.7820  2.1569
  836MOL0     H10345   5.143   8.757   7.731  0.5487  0.7893  1.0180
  836MOL0     H10346   5.023   9.019   7.630 -0.3947 -2.4875  0.3196
  836MOL0     H10347   5.199   8.982   7.602  1.6207  0.6944  0.2626
  836MOL0     H10348   5.169   9.155   7.771 -2.2845  0.3898  0.0655
  836MOL0     H10349   5.069   9.054   7.860 -0.1514 -2.1254 -1.9651
  836MOL0     H10350   5.427   8.908   7.990  0.3226  0.3697  0.3921
  836MOL0     H10351   4.809   8.706   7.374 -0.9553 -1.7953 -3.7179
  836MOL0     H10352   4.626   8.592   7.317 -0.7406 -0.4837  0.3318
  837MOL0     O10353   6.011   6.542   1.344 -0.1459  0.8833  0.2222
  837MOL0     C10354   5.982   6.601   1.240  0.5187 -0.1971 -0.3274
  837MOL0     O10355   6.069   6.659   1.153  0.8093 -0.8081 -0.5421
  837MOL0     C10356   6.189   6.701   1.192 -0.0872 -0.6409  0.1163
  837MOL0     C10357   6.219   6.840   1.210 -0.3202 -0.2837 -0.7588
  837MOL0     C10358   6.359   6.874   1.219 -0.7045  0.8519  0.3196
  837MOL0     C10359   6.461   6.775   1.226  0.4194  0.6405  0.4666
  837MOL0     O10360   6.583   6.831   1.246 -0.0898  0.0748 -0.2622
  837MOL0     C10361   6.688   6.757   1.297  0.5758  0.1697  0.8412
  837MOL0     C10362   6.823   6.832   1.300  0.0080 -0.3825  0.3621
  837MOL0     C10363   6.865   6.891   1.159 -0.7895 -0.4375 -0.2696
  837MOL0     C10364   6.805   6.827   1.040  1.2479  0.7315  0.3071
  837MOL0     C10365   6.880   6.858   0.913  0.1036 -0.1402  0.3108
  837MOL0     C10366   6.992   6.759   0.909 -0.3932  0.4847 -0.6801
  837MOL0     C10367   7.058   6.759   0.765 -0.5676 -0.7177  0.9961
  837MOL0     C10368   7.147   6.887   0.736  0.9712  0.7198 -0.7620
  837MOL0     N10369   7.176   6.887   0.597  0.5631  0.2050 -0.5316
  837MOL0     C10370   7.289   6.836   0.543 -0.7093  0.1851  1.3396
  837MOL0     C10371   7.277   6.857   0.407  0.0486  0.0506  0.2183
  837MOL0     C10372   7.373   6.814   0.300  0.0715  0.4668  0.3060
  837MOL0     C10373   7.334   6.693   0.210  0.3106 -0.4646 -0.5421
  837MOL0     C10374   7.199   6.729   0.139  0.1198 -0.6667 -0.1691
  837MOL0     C10375   7.207   6.859   0.056  0.8448  0.1941  0.1795
  837MOL0     O10376   7.096   6.878  -0.031 -0.2604  0.5876  0.4977
  837MOL0     C10377   6.966   6.892   0.021  0.3151  0.2702  0.3309
  837MOL0     C10378   6.932   6.984   0.124  0.4816 -0.7897 -0.0049
  837MOL0     C10379   6.798   6.985   0.164  0.2522  0.6049  0.6071
  837MOL0     C10380   6.697   6.906   0.108 -0.0242  0.6187 -0.7061
  837MOL0     C10381   6.561   6.928   0.152  0.9206 -0.4116 -0.1956
  837MOL0     O10382   6.539   7.009   0.262  0.3833 -0.6115 -0.3520
  837MOL0     C10383   6.404   7.023   0.299 -0.1850 -0.7109 -0.4410
  837MOL0     C10384   6.377   6.982   0.431  0.4466 -0.5677  0.6533
  837MOL0     C10385   6.258   7.015   0.495 -0.7081  0.0673 -0.8515
  837MOL0     C10386   6.159   7.076   0.417  0.0894 -0.8252  0.0154
  837MOL0     O10387   6.035   7.111   0.478  0.0310 -0.2008 -0.2747
  837MOL0     C10388   5.926   7.062   0.410 -0.6175 -0.0675 -0.2400
  837MOL0     C10389   5.790   7.088   0.477 -0.1933  0.3025 -0.4398
  837MOL0     C10390   5.775   7.031   0.616 -0.2771  0.0675 -0.1879
  837MOL0     C10391   5.815   7.139   0.724  0.7129 -0.6516 -1.2197
  837MOL0     C10392   5.805   7.094   0.872  0.4611 -0.0989  0.4852
  837MOL0     C10393   5.777   7.217   0.965 -0.2309  0.4558 -0.4107
  837MOL0     C10394   5.749   7.164   1.110 -0.3325  0.2069 -0.1446
  837MOL0     C10395   5.679   7.252   1.206 -0.1500  0.1904 -0.2704
  837MOL0    Cl10396   5.512   7.286   1.147  0.1486  0.0291  0.1578
  837MOL0     C10397   6.189   7.127   0.291  0.0006  1.1088 -0.3040
  837MOL0     C10398   6.308   7.097   0.229  0.8031  0.4185  0.3978
  837MOL0     O10399   6.472   6.883   0.083  0.6612  0.2629  0.4279
  837MOL0     C10400   6.733   6.814   0.007  0.0017 -1.0774  0.7946
  837MOL0     C10401   6.867   6.802  -0.033 -0.7519 -1.0340  0.1505
  837MOL0     N10402   7.163   6.930   0.390  0.2023 -0.5714  0.4034
  837MOL0     N10403   7.092   6.938   0.503  0.0370  0.4084  0.2235
  837MOL0     C10404   6.420   6.648   1.216  0.2131 -0.3070  0.1569
  837MOL0     C10405   6.292   6.609   1.202  0.8133  0.0967  0.2076
  837MOL0     C10406   5.838   6.614   1.204 -0.6165  0.1912  0.4393
  837MOL0     C10407   5.745   6.529   1.259 -0.0242 -0.9122  0.0642
  837MOL0     C10408   5.609   6.547   1.237 -0.9356  0.4359 -0.0584
  837MOL0     C10409   5.566   6.648   1.156 -0.4671  0.5513 -0.6991
  837MOL0     O10410   5.440   6.663   1.106 -0.5861 -0.6438 -0.3883
  837MOL0     C10411   5.349   6.559   1.109  0.1192 -0.1180 -0.3029
  837MOL0     C10412   5.224   6.615   1.042  0.3508  0.4756  0.2908
  837MOL0     C10413   5.117   6.504   1.008 -0.2710 -0.3227  0.2903
  837MOL0     C10414   5.033   6.517   0.891 -0.0574 -0.1522  0.0795
  837MOL0     C10415   4.961   6.648   0.907  0.1173  0.2879  0.3215
  837MOL0     C10416   4.896   6.748   0.932 -0.1066 -0.1167 -0.0012
  837MOL0     C10417   5.656   6.728   1.093  0.1783  0.7994 -0.1383
  837MOL0     C10418   5.794   6.715   1.115 -0.1569  0.1680  1.2702
  837MOL0     H10419   6.142   6.913   1.190  0.6347  0.4074 -2.0660
  837MOL0     H10420   6.392   6.976   1.231 -1.5610  1.3887 -1.5590
  837MOL0     H10421   6.699   6.667   1.235  1.7591  1.7161 -1.3685
  837MOL0     H10422   6.657   6.721   1.395 -1.9730  0.8817  0.3793
  837MOL0     H10423   6.894   6.756   1.331 -0.3443 -1.0848 -0.5149
  837MOL0     H10424   6.815   6.916   1.370 -1.0578 -0.6316  0.5583
  837MOL0     H10425   6.973   6.907   1.158 -1.0620  3.0825  3.4086
  837MOL0     H10426   6.824   6.992   1.164  0.5193  0.0404  1.8330
  837MOL0     H10427   6.806   6.718   1.052  5.5343  0.4375 -1.1233
  837MOL0     H10428   6.700   6.855   1.030  0.6076 -1.6079 -0.1153
  837MOL0     H10429   6.925   6.957   0.920  0.4945 -0.3503  0.8765
  837MOL0     H10430   6.808   6.854   0.830  1.7213 -0.0841 -1.1533
  837MOL0     H10431   6.955   6.658   0.926  0.4466  0.5263  1.7359
  837MOL0     H10432   7.066   6.772   0.988 -0.8168 -0.1731 -0.1727
  837MOL0     H10433   7.132   6.678   0.761 -0.4119 -0.6035  1.5093
  837MOL0     H10434   6.985   6.743   0.685  2.4504  0.7743 -2.3520
  837MOL0     H10435   7.242   6.878   0.790  0.9012 -0.7100 -0.8283
  837MOL0     H10436   7.094   6.979   0.762  1.4276  0.8029 -0.1034
  837MOL0     H10437   7.357   6.780   0.607 -1.9162 -0.5245  2.0265
  837MOL0     H10438   7.470   6.782   0.340  0.0933 -0.6571 -0.6205
  837MOL0     H10439   7.390   6.907   0.244  0.0385  1.7086  2.2649
  837MOL0     H10440   7.325   6.596   0.260  3.2131  1.2939  3.9986
  837MOL0     H10441   7.402   6.677   0.125  4.4490  3.0424  1.7267
  837MOL0     H10442   7.182   6.645   0.072 -1.1207 -0.5466 -0.0230
  837MOL0     H10443   7.114   6.731   0.208 -1.3858  0.3444 -1.9615
  837MOL0     H10444   7.293   6.849  -0.011  0.7747  0.1490  0.0965
  837MOL0     H10445   7.217   6.947   0.120  1.4834  1.4167 -1.5219
  837MOL0     H10446   7.013   7.040   0.170  0.2874 -0.4329 -0.0970
  837MOL0     H10447   6.774   7.055   0.244 -1.1709 -1.1962  1.8718
  837MOL0     H10448   6.459   6.934   0.483  2.0236  0.7105 -0.5428
  837MOL0     H10449   6.234   6.995   0.599  4.0093 -1.2967  0.2122
  837MOL0     H10450   5.923   6.953   0.403 -3.6670 -0.0070 -1.3323
  837MOL0     H10451   5.929   7.084   0.303 -2.1899 -2.4058 -0.8433
  837MOL0     H10452   5.722   7.038   0.408 -2.1554  0.3674  1.3328
  837MOL0     H10453   5.766   7.193   0.493 -2.8947 -0.5791  2.2857
  837MOL0     H10454   5.844   6.947   0.629  0.8624  1.0358  0.1757
  837MOL0     H10455   5.673   6.997   0.634 -1.4470  2.1016 -2.4934
  837MOL0     H10456   5.919   7.170   0.710  0.3889  1.7958  1.0047
  837MOL0     H10457   5.753   7.227   0.704  1.6940 -0.1567 -2.2000
  837MOL0     H10458   5.895   7.047   0.912  0.2096 -0.1103  1.0479
  837MOL0     H10459   5.721   7.027   0.887 -1.2799  1.5465 -1.2753
  837MOL0     H10460   5.690   7.274   0.929 -1.3726 -2.0144 -1.8414
  837MOL0     H10461   5.858   7.289   0.977 -1.6498  2.3442 -1.6206
  837MOL0     H10462   5.685   7.076   1.104 -0.0835  0.1098 -5.0965
  837MOL0     H10463   5.841   7.127   1.156 -1.9063 -1.5676  1.7908
  837MOL0     H10464   5.732   7.345   1.226  1.0924  0.3614 -3.6537
  837MOL0     H10465   5.674   7.190   1.296  0.9895 -0.2883 -0.5141
  837MOL0     H10466   6.123   7.185   0.228  0.9759  1.3518 -1.1265
  837MOL0     H10467   6.334   7.132   0.130  0.5874  3.3821  1.2918
  837MOL0     H10468   6.659   6.749  -0.039 -1.0527 -0.7810  2.0221
  837MOL0     H10469   6.887   6.734  -0.115 -1.3290 -0.7557 -0.2319
  837MOL0     H10470   6.495   6.569   1.220  0.3323 -0.1650  1.0716
  837MOL0     H10471   6.267   6.505   1.180  0.1424 -0.2312  2.2989
  837MOL0     H10472   5.783   6.449   1.322  2.2168 -0.1769 -0.2577
  837MOL0     H10473   5.538   6.495   1.301  0.2692 -1.1520  0.0493
  837MOL0     H10474   5.332   6.530   1.213 -0.3899 -3.4986 -1.2236
  837MOL0     H10475   5.392   6.473   1.056 -1.0104 -0.7591 -0.2064
  837MOL0     H10476   5.176   6.684   1.113 -0.5711 -0.3591  0.5074
  837MOL0     H10477   5.255   6.664   0.950  2.8508 -4.4786 -1.8939
  837MOL0     H10478   5.056   6.490   1.098  1.0711  0.3941  1.3585
  837MOL0     H10479   5.171   6.411   0.991  0.7000  0.3419 -0.4066
  837MOL0     H10480   5.089   6.510   0.798  0.3966 -1.0212  0.4020
  837MOL0     H10481   4.955   6.441   0.902 -0.1921  0.2649  2.6057
  837MOL0     H10482   4.837   6.833   0.958 -2.5510 -2.5940  3.5507
  837MOL0     H10483   5.621   6.806   1.026 -0.6037  0.8270  0.2957
  837MOL0     H10484   5.860   6.785   1.066  2.7067 -0.4753  3.8708
  838MOL0     O10485   4.761  11.427   7.338  0.5717 -0.0112 -0.4421
  838MOL0     C10486   4.684  11.508   7.392  0.3183 -0.6000  0.3286
  838MOL0     O10487   4.550  11.489   7.418 -0.2468 -0.7770 -0.0752
  838MOL0     C10488   4.500  11.363   7.445 -0.5820 -0.8290  0.1302
  838MOL0     C10489   4.445  11.299   7.333 -0.2508  0.1451 -0.0730
  838MOL0     C10490   4.397  11.167   7.360  0.3434 -0.7014  0.0891
  838MOL0     C10491   4.377  11.107   7.486  0.4369  0.2981  1.0016
  838MOL0     O10492   4.314  10.981   7.493 -0.4732 -0.4839 -0.6628
  838MOL0     C10493   4.265  10.941   7.615 -0.1379  0.1702 -0.7000
  838MOL0     C10494   4.170  10.818   7.598 -0.7256  0.2726  0.1223
  838MOL0     C10495   4.064  10.840   7.492 -0.1250 -0.0038  0.5100
  838MOL0     C10496   3.991  10.713   7.450 -0.7491 -0.0256  0.0591
  838MOL0     C10497   3.942  10.624   7.568 -0.2164 -0.5313  0.5085
  838MOL0     C10498   3.852  10.506   7.515 -0.4742  0.4653 -0.7266
  838MOL0     C10499   3.730  10.543   7.439  0.2096 -0.0153 -0.7098
  838MOL0     C10500   3.628  10.436   7.397 -0.2383  0.4639  0.3448
  838MOL0     N10501   3.685  10.335   7.304  1.0649 -0.2951 -0.2564
  838MOL0     C10502   3.700  10.346   7.168 -1.2270  0.9176 -0.4063
  838MOL0     C10503   3.763  10.231   7.125  0.1885  0.4545 -0.4200
  838MOL0     C10504   3.799  10.196   6.982 -0.1688  0.3714 -0.5023
  838MOL0     C10505   3.841  10.323   6.904  0.2005 -0.1250 -0.4129
  838MOL0     C10506   3.906  10.286   6.766 -0.4769 -0.9028 -1.2101
  838MOL0     C10507   3.990  10.404   6.717  0.2008  0.6322 -0.0852
  838MOL0     O10508   3.903  10.502   6.656  0.9037 -0.7407 -0.4654
  838MOL0     C10509   3.921  10.627   6.697  0.3897 -0.2121 -0.0099
  838MOL0     C10510   3.812  10.694   6.756 -1.3399  0.4732 -0.0495
  838MOL0     C10511   3.830  10.821   6.796  1.0941 -1.2639 -0.9969
  838MOL0     C10512   3.952  10.889   6.794 -0.9483  0.7204  0.6439
  838MOL0     C10513   3.978  11.020   6.855  1.1317  0.2561 -1.1243
  838MOL0     O10514   4.103  11.067   6.875 -0.8882  0.5356 -1.1160
  838MOL0     C10515   4.134  11.186   6.936 -1.7002 -0.1410  0.0716
  838MOL0     C10516   4.256  11.251   6.892 -0.0611  0.1543  0.2454
  838MOL0     C10517   4.292  11.375   6.946 -0.0271 -0.1528  0.1247
  838MOL0     C10518   4.214  11.442   7.046  0.9658  0.2594  1.0716
  838MOL0     O10519   4.225  11.567   7.098 -0.6215 -0.2489 -0.5187
  838MOL0     C10520   4.359  11.614   7.110 -0.4485 -0.7877  0.8604
  838MOL0     C10521   4.355  11.762   7.146  1.5461  1.1177 -0.9588
  838MOL0     C10522   4.500  11.806   7.142  0.9151  0.0078 -0.0177
  838MOL0     C10523   4.499  11.948   7.203  0.0254 -0.0270 -0.2148
  838MOL0     C10524   4.640  12.000   7.201  0.0597 -0.7359 -0.1266
  838MOL0     C10525   4.631  12.145   7.226  1.1013 -1.3216  0.6027
  838MOL0     C10526   4.762  12.230   7.216 -0.8088 -0.6865  0.0734
  838MOL0     C10527   4.867  12.181   7.319  0.9707 -0.3087  0.0231
  838MOL0    Cl10528   5.020  12.275   7.325  0.4903  0.3244 -0.2808
  838MOL0     C10529   4.096  11.375   7.089 -0.5163  0.4962  1.3058
  838MOL0     C10530   4.056  11.254   7.029  0.2541 -0.4257 -0.5234
  838MOL0     O10531   3.872  11.082   6.889  0.6718 -0.2276 -0.1796
  838MOL0     C10532   4.062  10.819   6.738  0.1376 -0.7198 -0.2213
  838MOL0     C10533   4.048  10.689   6.690 -0.2703 -0.2531  0.2033
  838MOL0     N10534   3.777  10.156   7.245 -0.0431 -0.7954 -0.9342
  838MOL0     N10535   3.726  10.212   7.351 -0.1229  0.0506 -0.1207
  838MOL0     C10536   4.409  11.187   7.595  1.0231  0.7230  0.2277
  838MOL0     C10537   4.471  11.313   7.575 -0.5049 -0.7636 -0.5870
  838MOL0     C10538   4.733  11.641   7.448  0.0711  0.6077  0.1612
  838MOL0     C10539   4.649  11.738   7.508  0.4172  0.5432  1.2578
  838MOL0     C10540   4.695  11.858   7.560 -0.4494 -0.0175  0.1381
  838MOL0     C10541   4.835  11.880   7.561 -0.7778 -0.3638  0.3340
  838MOL0     O10542   4.884  11.990   7.630 -0.1638  0.1923  0.3400
  838MOL0     C10543   5.015  12.046   7.610  0.4844 -0.8927  0.5409
  838MOL0     C10544   5.135  11.989   7.691  1.5227  0.0264 -0.4358
  838MOL0     C10545   5.272  12.047   7.660 -0.3579 -0.3277  0.5819
  838MOL0     C10546   5.283  12.181   7.725 -0.1530 -0.2277 -0.0536
  838MOL0     C10547   5.289  12.149   7.862 -0.7122  0.7443  0.2431
  838MOL0     C10548   5.285  12.119   7.984 -0.8687 -0.9827  0.2012
  838MOL0     C10549   4.919  11.791   7.493 -0.8543 -0.0725  0.9643
  838MOL0     C10550   4.872  11.671   7.439  0.6469  0.0861 -0.0226
  838MOL0     H10551   4.454  11.328   7.228  0.1441 -3.0530 -1.0401
  838MOL0     H10552   4.359  11.106   7.279 -0.2008 -1.7103  1.0697
  838MOL0     H10553   4.204  11.020   7.659 -3.2073 -2.4040  0.0300
  838MOL0     H10554   4.347  10.903   7.677 -0.2934  2.2498  0.8743
  838MOL0     H10555   4.128  10.781   7.692  1.3260 -1.9631  0.2501
  838MOL0     H10556   4.244  10.745   7.564 -0.4300  0.5180  0.2299
  838MOL0     H10557   4.109  10.884   7.402 -1.5583  1.9039  0.6452
  838MOL0     H10558   3.997  10.918   7.529  1.2834  1.0799  0.8707
  838MOL0     H10559   3.907  10.750   7.390 -0.5534  3.9728  1.9008
  838MOL0     H10560   4.066  10.650   7.402  0.1396 -0.1298  1.5127
  838MOL0     H10561   3.882  10.683   7.637  0.0775 -1.7577  1.8779
  838MOL0     H10562   4.024  10.583   7.628 -0.5191 -1.1687  0.4948
  838MOL0     H10563   3.813  10.460   7.607  3.1444 -3.3571 -0.8314
  838MOL0     H10564   3.911  10.436   7.456  2.1162  3.8979 -2.6401
  838MOL0     H10565   3.682  10.615   7.505  1.0251 -1.2344  1.3337
  838MOL0     H10566   3.768  10.589   7.348  2.5220  0.6742  0.5257
  838MOL0     H10567   3.548  10.500   7.358 -0.4781  0.8624  1.4447
  838MOL0     H10568   3.580  10.378   7.476 -2.1898  1.0837 -0.3209
  838MOL0     H10569   3.661  10.429   7.109 -3.8219  1.1646  1.4875
  838MOL0     H10570   3.721  10.147   6.922  2.4623 -0.8334 -3.1579
  838MOL0     H10571   3.882  10.126   6.989 -0.1161  0.6210  2.9627
  838MOL0     H10572   3.913  10.375   6.967  2.0401  1.1360 -3.3210
  838MOL0     H10573   3.749  10.377   6.883 -2.8763 -4.3297  0.9733
  838MOL0     H10574   3.972  10.201   6.784  0.7416  0.5489  1.9439
  838MOL0     H10575   3.838  10.259   6.685 -1.8336 -0.7249 -0.1774
  838MOL0     H10576   4.069  10.366   6.652 -0.0616 -0.2296  0.0832
  838MOL0     H10577   4.043  10.441   6.805 -0.3316  0.2971  0.3829
  838MOL0     H10578   3.723  10.632   6.759 -0.4468 -0.9439 -1.5695
  838MOL0     H10579   3.744  10.864   6.848  0.0512 -1.1271 -2.7496
  838MOL0     H10580   4.330  11.204   6.828  0.3381  2.0817 -0.7634
  838MOL0     H10581   4.381  11.431   6.920  0.8590  0.1395  3.3437
  838MOL0     H10582   4.403  11.622   7.010 -1.5019  0.1654  0.4489
  838MOL0     H10583   4.426  11.553   7.171 -1.8357 -1.3492  1.8605
  838MOL0     H10584   4.321  11.770   7.250  1.2527 -0.6729 -0.8855
  838MOL0     H10585   4.283  11.824   7.092 -0.6221  1.9039  2.5093
  838MOL0     H10586   4.541  11.811   7.041 -1.8784  0.3216 -1.2321
  838MOL0     H10587   4.561  11.732   7.195 -0.1062 -1.8309 -1.3183
  838MOL0     H10588   4.422  12.007   7.153 -3.6880 -2.8941  1.5536
  838MOL0     H10589   4.461  11.941   7.305  2.7982 -1.9662  0.7926
  838MOL0     H10590   4.691  11.986   7.106 -0.8073  0.8840 -0.8750
  838MOL0     H10591   4.695  11.961   7.287  3.0314  0.1083 -1.5189
  838MOL0     H10592   4.572  12.173   7.314  1.6257  2.4984 -0.0911
  838MOL0     H10593   4.581  12.189   7.139  1.3308  2.0518  2.0397
  838MOL0     H10594   4.808  12.218   7.118  1.8357  1.1234  0.9913
  838MOL0     H10595   4.738  12.332   7.250 -3.4296 -2.4003  4.0599
  838MOL0     H10596   4.892  12.076   7.301  1.0672 -0.7299  2.2913
  838MOL0     H10597   4.807  12.188   7.410 -1.5644  1.3719 -1.6483
  838MOL0     H10598   4.025  11.421   7.157 -0.7109 -1.0172  2.1827
  838MOL0     H10599   3.966  11.218   7.076  1.3707  1.3776  3.3803
  838MOL0     H10600   4.160  10.862   6.718  0.1795 -0.2973  0.8283
  838MOL0     H10601   4.135  10.633   6.657  2.0135  2.2466  1.6350
  838MOL0     H10602   4.378  11.155   7.694  1.2479  0.0317  0.0800
  838MOL0     H10603   4.501  11.368   7.664  0.6682 -3.2513  0.6501
  838MOL0     H10604   4.546  11.714   7.533  1.3284 -5.1478  0.7936
  838MOL0     H10605   4.626  11.916   7.621 -1.9487 -1.2441 -0.3138
  838MOL0     H10606   5.001  12.154   7.607  2.9843 -0.5122  0.1908
  838MOL0     H10607   5.041  12.015   7.509  0.8680  0.3565  0.2426
  838MOL0     H10608   5.114  11.994   7.798  2.7586 -0.5359 -0.1519
  838MOL0     H10609   5.134  11.883   7.662  2.2964 -0.2393  0.4909
  838MOL0     H10610   5.279  12.067   7.553 -2.3957 -0.1652  0.4274
  838MOL0     H10611   5.349  11.974   7.687  2.4052  2.2216  0.0591
  838MOL0     H10612   5.376  12.225   7.688 -0.4791 -0.0034 -0.6296
  838MOL0     H10613   5.197  12.246   7.711  1.1797  1.5447 -0.3371
  838MOL0     H10614   5.290  12.087   8.086  0.1826 -1.2973  0.0530
  838MOL0     H10615   5.026  11.792   7.476 -0.6045 -1.0040  2.2746
  838MOL0     H10616   4.936  11.610   7.376  0.5861 -0.3737  0.3545
  839MOL0     O10617   0.288  10.946  11.434 -0.9974 -0.0878 -0.3826
  839MOL0     C10618   0.254  10.940  11.554 -0.7323 -0.0942  0.1107
  839MOL0     O10619   0.142  10.997  11.607 -0.1786  0.0623  0.1654
  839MOL0     C10620   0.054  11.057  11.521  0.6003 -0.5779 -0.2409
  839MOL0     C10621   0.059  11.193  11.502  0.4459 -0.5586 -0.4784
  839MOL0     C10622  -0.049  11.256  11.419  0.1780 -1.5532 -0.5502
  839MOL0     C10623  -0.166  11.182  11.389 -0.6245 -0.5380 -0.6590
  839MOL0     O10624  -0.270  11.244  11.328 -0.2318 -0.0865 -0.2168
  839MOL0     C10625  -0.405  11.205  11.361  0.8193  0.1188  0.0633
  839MOL0     C10626  -0.515  11.264  11.266 -0.5674 -0.6214 -1.1050
  839MOL0     C10627  -0.482  11.247  11.113 -0.0184 -0.0993 -1.7445
  839MOL0     C10628  -0.485  11.102  11.056  0.2097 -0.6066  0.1099
  839MOL0     C10629  -0.449  11.088  10.903  0.1432 -0.2854  0.2225
  839MOL0     C10630  -0.504  10.957  10.850  0.0005  0.0610  0.1173
  839MOL0     C10631  -0.424  10.937  10.719  0.3452 -0.4232 -0.0585
  839MOL0     C10632  -0.408  11.044  10.609  0.1319 -0.0248  0.5222
  839MOL0     N10633  -0.534  11.077  10.544 -0.3770 -0.4654 -0.1670
  839MOL0     C10634  -0.644  11.165  10.579 -0.8935 -0.3663 -1.0112
  839MOL0     C10635  -0.748  11.127  10.505  0.9396  0.4297 -0.1401
  839MOL0     C10636  -0.896  11.164  10.521 -0.5033 -0.3446 -0.3465
  839MOL0     C10637  -0.950  11.106  10.655 -0.8601  0.7631  0.1566
  839MOL0     C10638  -1.085  11.180  10.691  0.4951  0.2742  0.4603
  839MOL0     C10639  -1.181  11.183  10.581  0.4054  0.0165  0.1987
  839MOL0     O10640  -1.292  11.250  10.636 -0.0603 -0.5529 -0.1228
  839MOL0     C10641  -1.400  11.287  10.563  1.6670  0.5007  0.1184
  839MOL0     C10642  -1.382  11.353  10.448 -0.2596  0.3283 -1.1081
  839MOL0     C10643  -1.499  11.364  10.364  0.0382  0.0913 -0.7265
  839MOL0     C10644  -1.629  11.316  10.403  0.5514  0.8036 -0.9873
  839MOL0     C10645  -1.744  11.320  10.316  0.4494  0.1979 -0.2419
  839MOL0     O10646  -1.742  11.383  10.191 -0.2818  0.1892 -0.4813
  839MOL0     C10647  -1.828  11.354  10.091 -0.0800  0.2102 -0.2839
  839MOL0     C10648  -1.890  11.238  10.063  0.3138  1.0785 -0.0952
  839MOL0     C10649  -1.981  11.228   9.955 -0.0787 -1.1543 -1.4894
  839MOL0     C10650  -2.014  11.335   9.878  0.6445 -0.7196  0.0891
  839MOL0     O10651  -2.100  11.321   9.777  0.8180  0.3762 -0.5667
  839MOL0     C10652  -2.203  11.420   9.765 -0.7113  0.4946  0.3778
  839MOL0     C10653  -2.333  11.355   9.745  0.7347  0.6043  0.5658
  839MOL0     C10654  -2.364  11.239   9.649  0.7305 -0.3663  0.1346
  839MOL0     C10655  -2.476  11.141   9.695  0.0490 -0.1918  0.6396
  839MOL0     C10656  -2.515  11.033   9.596 -0.8667  0.7046 -0.3111
  839MOL0     C10657  -2.390  10.943   9.556 -1.2386  0.6206 -0.2836
  839MOL0     C10658  -2.432  10.853   9.434 -0.8548 -0.1517  0.0445
  839MOL0     C10659  -2.550  10.755   9.461 -0.5228 -0.2871  0.6337
  839MOL0    Cl10660  -2.703  10.833   9.406  0.3856 -0.2130 -0.1565
  839MOL0     C10661  -1.944  11.454   9.900  0.0928  0.5672  0.0968
  839MOL0     C10662  -1.863  11.461  10.013  1.1340  0.9097 -0.8145
  839MOL0     O10663  -1.835  11.245  10.354 -0.2214  0.3128 -0.5330
  839MOL0     C10664  -1.635  11.253  10.531  0.4251 -0.4598 -0.6019
  839MOL0     C10665  -1.526  11.250  10.612  0.5393  0.2378  0.5432
  839MOL0     N10666  -0.700  11.032  10.409  0.6594  0.1155 -0.0524
  839MOL0     N10667  -0.579  11.001  10.436 -0.5366 -0.4564 -0.0260
  839MOL0     C10668  -0.164  11.046  11.407  0.6830  0.0277 -0.5568
  839MOL0     C10669  -0.054  10.980  11.470  0.7744  0.7826  0.5082
  839MOL0     C10670   0.331  10.850  11.634 -0.6405  0.2835 -0.0040
  839MOL0     C10671   0.280  10.797  11.756  1.0682  0.2249 -0.3890
  839MOL0     C10672   0.354  10.701  11.831 -0.5705 -0.4741 -0.2739
  839MOL0     C10673   0.487  10.676  11.794  0.2441 -1.2427 -1.2012
  839MOL0     O10674   0.562  10.608  11.890 -0.0346 -0.2236 -0.9373
  839MOL0     C10675   0.701  10.572  11.857 -0.6845  0.1367  0.0290
  839MOL0     C10676   0.797  10.686  11.878 -0.3658  0.6670  0.8649
  839MOL0     C10677   0.816  10.714  12.021 -0.3303  0.3180 -0.0839
  839MOL0     C10678   0.965  10.757  12.060  0.3776 -1.0088 -0.1941
  839MOL0     C10679   0.965  10.794  12.198 -0.2326 -1.0171 -0.0589
  839MOL0     C10680   0.965  10.824  12.314  0.4569 -0.2562 -0.5163
  839MOL0     C10681   0.539  10.733  11.676 -0.2145  0.0676  0.9526
  839MOL0     C10682   0.464  10.807  11.584  0.6562  0.7318 -0.8291
  839MOL0     H10683   0.139  11.255  11.540 -2.2934  2.4095  0.9451
  839MOL0     H10684  -0.037  11.362  11.401  0.1799 -1.8580 -2.6408
  839MOL0     H10685  -0.427  11.246  11.461  0.0085 -2.6402  1.1049
  839MOL0     H10686  -0.425  11.098  11.367  0.6987  0.0324 -1.5501
  839MOL0     H10687  -0.532  11.370  11.289  0.3433 -0.7992  0.5614
  839MOL0     H10688  -0.612  11.217  11.284 -2.0735  3.1531  2.0088
  839MOL0     H10689  -0.382  11.288  11.096  1.0776  0.1685  3.5951
  839MOL0     H10690  -0.564  11.302  11.066 -0.9829 -1.8864 -2.2554
  839MOL0     H10691  -0.428  11.035  11.120 -0.3023 -0.2155  1.0062
  839MOL0     H10692  -0.589  11.069  11.049  0.6514 -1.7665 -1.3958
  839MOL0     H10693  -0.345  11.107  10.876 -0.5245  2.5718 -0.7232
  839MOL0     H10694  -0.505  11.165  10.850 -1.5264 -0.3295  1.8090
  839MOL0     H10695  -0.612  10.947  10.837 -0.4141 -0.7819  3.4133
  839MOL0     H10696  -0.486  10.868  10.911 -1.7874  0.5769  1.4583
  839MOL0     H10697  -0.319  10.909  10.731  0.2184 -2.7070 -2.9272
  839MOL0     H10698  -0.468  10.846  10.678 -0.5129 -0.4285  0.8496
  839MOL0     H10699  -0.351  10.995  10.530 -0.0066 -2.2379  1.7388
  839MOL0     H10700  -0.358  11.135  10.645 -0.0445 -0.6685  2.5242
  839MOL0     H10701  -0.650  11.247  10.649  0.9871 -0.3335 -0.8454
  839MOL0     H10702  -0.950  11.130  10.432  0.4124  1.0736 -1.4913
  839MOL0     H10703  -0.906  11.273  10.518 -1.2576 -0.4226 -1.2771
  839MOL0     H10704  -0.880  11.125  10.736  2.6141 -0.3032 -2.3450
  839MOL0     H10705  -0.960  10.997  10.649 -2.0871  0.8477  0.4560
  839MOL0     H10706  -1.134  11.123  10.770  1.8151 -0.3829  0.8361
  839MOL0     H10707  -1.073  11.283  10.728  1.5231 -0.7868  3.3909
  839MOL0     H10708  -1.211  11.079  10.564  0.4673 -0.1643  1.1322
  839MOL0     H10709  -1.147  11.223  10.485 -0.3972  0.7397  0.2016
  839MOL0     H10710  -1.292  11.410  10.426  1.4126  0.2286  4.0979
  839MOL0     H10711  -1.495  11.430  10.278 -1.7315 -0.1465 -1.0344
  839MOL0     H10712  -1.868  11.142  10.109 -2.3717  0.1714 -0.5313
  839MOL0     H10713  -2.026  11.131   9.940 -0.1186 -1.5220  0.6359
  839MOL0     H10714  -2.192  11.488   9.680 -1.0303 -2.2233 -2.0040
  839MOL0     H10715  -2.195  11.486   9.852 -1.8013  2.3484 -0.8362
  839MOL0     H10716  -2.407  11.435   9.733 -0.5480 -0.4782  0.9469
  839MOL0     H10717  -2.350  11.314   9.845 -1.9584 -1.6732 -0.6879
  839MOL0     H10718  -2.267  11.190   9.655  1.4438  0.6101 -2.2068
  839MOL0     H10719  -2.378  11.279   9.548  0.4156 -0.1120  0.2778
  839MOL0     H10720  -2.443  11.106   9.794 -2.1928 -1.2382  1.0907
  839MOL0     H10721  -2.573  11.188   9.715  0.1812 -0.2432  1.4674
  839MOL0     H10722  -2.556  11.073   9.503 -0.8061 -1.2867 -1.2595
  839MOL0     H10723  -2.592  10.970   9.641 -1.5338  2.6780  1.4864
  839MOL0     H10724  -2.363  10.884   9.644 -0.8264 -0.1563 -0.9109
  839MOL0     H10725  -2.310  11.014   9.531 -2.3862  1.4026 -1.9237
  839MOL0     H10726  -2.456  10.913   9.346 -0.6711  2.4170  1.6400
  839MOL0     H10727  -2.339  10.804   9.405 -1.7869 -2.8311  1.2727
  839MOL0     H10728  -2.547  10.731   9.568  0.9112  6.6670  2.6628
  839MOL0     H10729  -2.529  10.670   9.396 -0.4158  1.2628 -1.4430
  839MOL0     H10730  -1.953  11.530   9.824 -2.8492  0.2470  0.0357
  839MOL0     H10731  -1.804  11.550  10.035 -0.8139  2.1852 -0.3988
  839MOL0     H10732  -1.732  11.224  10.570  0.7948 -2.4537 -1.0911
  839MOL0     H10733  -1.549  11.215  10.712 -1.9226  0.8856  0.2730
  839MOL0     H10734  -0.250  10.988  11.373 -0.1697  1.6816 -1.3873
  839MOL0     H10735  -0.062  10.873  11.489 -2.8684  0.9146  0.2647
  839MOL0     H10736   0.189  10.833  11.804 -0.4940 -4.4163  0.5645
  839MOL0     H10737   0.305  10.656  11.917 -4.3144  1.0566 -1.3911
  839MOL0     H10738   0.698  10.536  11.753  0.7176  1.5454 -0.5447
  839MOL0     H10739   0.739  10.500  11.929  3.1278  1.1747 -0.7103
  839MOL0     H10740   0.896  10.651  11.847 -0.8043  0.8117 -0.7643
  839MOL0     H10741   0.781  10.781  11.827 -1.0114 -0.5085 -1.2532
  839MOL0     H10742   0.772  10.628  12.074 -2.3956  1.6029  0.3829
  839MOL0     H10743   0.753  10.797  12.054  1.1686  1.0482  1.0986
  839MOL0     H10744   1.035  10.676  12.042 -0.2212 -1.9540  1.5623
  839MOL0     H10745   0.991  10.846  12.001 -1.2090  0.7811  1.6643
  839MOL0     H10746   0.959  10.853  12.417  1.4348 -1.3609 -0.1332
  839MOL0     H10747   0.639  10.719  11.637 -1.5560  0.0783 -2.9288
  839MOL0     H10748   0.516  10.831  11.492  1.9260 -1.4286 -0.7497
  840MOL0     O10749   6.755   0.663   7.246  0.1743  0.5794  0.2710
  840MOL0     C10750   6.876   0.653   7.222  0.5410  0.3438 -0.0040
  840MOL0     O10751   6.920   0.625   7.098 -0.5906 -0.2882  0.1151
  840MOL0     C10752   6.821   0.616   6.999  0.2541 -0.3983  0.9732
  840MOL0     C10753   6.812   0.493   6.936  0.0048 -0.0897  0.1387
  840MOL0     C10754   6.721   0.492   6.822 -0.9405  0.3724 -0.2410
  840MOL0     C10755   6.662   0.597   6.764  0.4200  0.1821 -0.4268
  840MOL0     O10756   6.607   0.595   6.642 -0.0076 -1.0812  0.7571
  840MOL0     C10757   6.659   0.517   6.530  0.7813 -0.7344  0.6903
  840MOL0     C10758   6.577   0.404   6.507  0.0257 -0.2080  0.3510
  840MOL0     C10759   6.458   0.430   6.421  0.4345 -0.7753 -0.2896
  840MOL0     C10760   6.356   0.313   6.420 -0.4096  0.4540  0.2448
  840MOL0     C10761   6.234   0.361   6.341 -0.7179  0.5631 -0.6049
  840MOL0     C10762   6.148   0.239   6.334  0.7869  0.1768 -0.4718
  840MOL0     C10763   6.006   0.251   6.269  0.4093 -0.5719 -0.0910
  840MOL0     C10764   6.017   0.339   6.140  1.0273 -0.6506 -0.0067
  840MOL0     N10765   5.884   0.363   6.075 -0.1012  0.5147 -0.7929
  840MOL0     C10766   5.794   0.262   6.050  1.1427 -0.7853  0.3560
  840MOL0     C10767   5.680   0.336   6.026  0.2532 -0.8270  0.1839
  840MOL0     C10768   5.553   0.276   5.977 -0.8485 -0.1836 -0.3851
  840MOL0     C10769   5.539   0.289   5.831 -0.2127 -0.4919  0.5074
  840MOL0     C10770   5.420   0.223   5.771 -0.4878 -0.3954  1.1446
  840MOL0     C10771   5.285   0.309   5.803 -0.3077  0.2013 -0.3812
  840MOL0     O10772   5.166   0.287   5.726 -0.0418 -0.5901  0.4234
  840MOL0     C10773   5.112   0.164   5.729  0.3694  0.0585  0.8966
  840MOL0     C10774   5.086   0.089   5.612  0.6712 -0.8091 -0.5965
  840MOL0     C10775   5.035  -0.035   5.618  0.1910  0.6406 -0.5620
  840MOL0     C10776   5.001  -0.092   5.744  0.3428  0.0669 -0.1981
  840MOL0     C10777   4.940  -0.224   5.744  0.4600 -0.1455  0.8885
  840MOL0     O10778   4.884  -0.269   5.632  0.2086 -0.7722  0.2282
  840MOL0     C10779   4.839  -0.399   5.606 -0.6029  0.7989 -0.1856
  840MOL0     C10780   4.884  -0.519   5.679  0.5144  0.3031 -0.6403
  840MOL0     C10781   4.814  -0.631   5.658 -0.8141  0.2079  0.5288
  840MOL0     C10782   4.712  -0.650   5.570  0.5993 -0.8667  1.2229
  840MOL0     O10783   4.654  -0.772   5.574  0.2824  0.0908  0.2839
  840MOL0     C10784   4.539  -0.809   5.496 -0.4289  0.5531 -1.0101
  840MOL0     C10785   4.521  -0.961   5.467 -0.4738 -1.3170 -0.5825
  840MOL0     C10786   4.446  -1.038   5.573 -0.2670  0.3472 -0.3412
  840MOL0     C10787   4.369  -1.160   5.518  0.7905 -0.2605  0.8149
  840MOL0     C10788   4.360  -1.269   5.624  0.2526 -0.1237  0.4375
  840MOL0     C10789   4.280  -1.386   5.577  0.3805  0.1318  0.2449
  840MOL0     C10790   4.264  -1.494   5.686  0.3266  0.2096  0.3563
  840MOL0     C10791   4.269  -1.637   5.623 -1.0130 -0.6651  0.0332
  840MOL0    Cl10792   4.206  -1.749   5.744  0.0932  0.1564 -0.2548
  840MOL0     C10793   4.664  -0.535   5.507 -1.0081  0.4407  0.2699
  840MOL0     C10794   4.720  -0.407   5.528  0.3543  0.9958 -0.6363
  840MOL0     O10795   4.930  -0.278   5.854  0.8928 -0.0330  0.2198
  840MOL0     C10796   5.017  -0.013   5.863 -0.3976  0.3586  0.3164
  840MOL0     C10797   5.074   0.115   5.852  0.1938 -0.3710 -1.1490
  840MOL0     N10798   5.708   0.478   6.032 -0.1034  0.6917  0.9845
  840MOL0     N10799   5.828   0.489   6.066 -0.8667 -0.2378 -0.1481
  840MOL0     C10800   6.683   0.718   6.820  0.3977  0.8344  0.6067
  840MOL0     C10801   6.770   0.730   6.930 -0.2806 -0.9871  0.3755
  840MOL0     C10802   6.962   0.662   7.339  0.6507  1.2434 -1.3481
  840MOL0     C10803   7.104   0.621   7.334 -0.3608  0.7655 -0.3692
  840MOL0     C10804   7.183   0.622   7.449  0.3896  0.5470  0.3459
  840MOL0     C10805   7.130   0.650   7.571 -0.2263 -0.2809  0.7717
  840MOL0     O10806   7.216   0.636   7.675  0.0498 -0.0606 -0.3456
  840MOL0     C10807   7.149   0.625   7.813 -0.2181  0.3835  0.5890
  840MOL0     C10808   7.082   0.481   7.826  0.8438 -0.5549  0.7311
  840MOL0     C10809   7.036   0.464   7.968  0.1946  0.2397  0.2098
  840MOL0     C10810   6.973   0.327   7.993 -0.2109 -0.8246  0.1357
  840MOL0     C10811   7.050   0.199   7.965  0.4405 -0.7011 -0.0530
  840MOL0     C10812   7.129   0.111   7.948 -0.1750  0.7072  0.5795
  840MOL0     C10813   6.991   0.682   7.578 -0.0565 -1.0535 -0.0151
  840MOL0     C10814   6.910   0.693   7.467  1.3672  0.5896  0.2503
  840MOL0     H10815   6.873   0.416   6.982  0.4069 -1.1525 -2.0421
  840MOL0     H10816   6.713   0.394   6.775  3.6818  0.2515 -1.3465
  840MOL0     H10817   6.764   0.486   6.541  0.9189  0.3742  3.1037
  840MOL0     H10818   6.655   0.579   6.440 -0.6317 -2.7969 -0.7766
  840MOL0     H10819   6.554   0.352   6.601 -2.2530  1.2537  0.6774
  840MOL0     H10820   6.639   0.332   6.453 -0.4831 -0.3230 -0.0982
  840MOL0     H10821   6.501   0.445   6.322  1.0672 -1.7514 -0.1775
  840MOL0     H10822   6.404   0.520   6.453  0.8032 -0.7854  0.3930
  840MOL0     H10823   6.409   0.227   6.378  0.7786  0.9355  0.6907
  840MOL0     H10824   6.333   0.281   6.522  0.8496  1.1883  0.7932
  840MOL0     H10825   6.265   0.405   6.246 -3.1899  0.3670 -1.5666
  840MOL0     H10826   6.176   0.437   6.394  1.2766  1.6291  0.1956
  840MOL0     H10827   6.122   0.215   6.438  1.8575 -2.9936 -0.8387
  840MOL0     H10828   6.201   0.166   6.272 -2.4897 -1.0349 -2.0634
  840MOL0     H10829   5.977   0.148   6.250  0.7833 -0.7334  0.2146
  840MOL0     H10830   5.930   0.297   6.333 -0.4335 -2.9837  0.7345
  840MOL0     H10831   6.080   0.292   6.064 -2.7157  0.9480 -4.5363
  840MOL0     H10832   6.051   0.436   6.178 -0.9589  0.0761  0.0182
  840MOL0     H10833   5.810   0.155   6.048  0.1975 -0.9289 -0.7722
  840MOL0     H10834   5.470   0.328   6.026  0.4241  1.5852 -0.0235
  840MOL0     H10835   5.554   0.167   5.994  0.7313 -0.6343 -2.8638
  840MOL0     H10836   5.626   0.243   5.784  0.5797  0.8098  0.6588
  840MOL0     H10837   5.547   0.396   5.811  3.2068 -0.2179  2.4703
  840MOL0     H10838   5.433   0.218   5.662  0.2128 -2.1330  1.2777
  840MOL0     H10839   5.406   0.119   5.801 -1.3353 -1.2160 -1.7321
  840MOL0     H10840   5.318   0.413   5.800 -0.9319  0.5200  1.8247
  840MOL0     H10841   5.268   0.304   5.911  0.6163  3.9477  0.0713
  840MOL0     H10842   5.114   0.139   5.520 -0.9377  1.2980 -0.0178
  840MOL0     H10843   5.033  -0.100   5.531 -0.4031  1.2642 -1.0230
  840MOL0     H10844   4.958  -0.503   5.757 -0.7955 -0.7540  0.8760
  840MOL0     H10845   4.840  -0.707   5.731  0.0150 -0.3938 -0.3771
  840MOL0     H10846   4.532  -0.760   5.398  4.0497 -3.1811 -3.6311
  840MOL0     H10847   4.450  -0.777   5.551 -0.2628  1.4344 -1.2387
  840MOL0     H10848   4.619  -1.002   5.441  1.2488  0.4466  2.5796
  840MOL0     H10849   4.440  -0.957   5.392 -0.7878 -0.3995 -0.2117
  840MOL0     H10850   4.385  -0.969   5.631 -0.0473 -1.8914  2.8122
  840MOL0     H10851   4.518  -1.068   5.650 -2.2760  1.3790  2.0868
  840MOL0     H10852   4.277  -1.118   5.474  0.4453  1.2116  2.8086
  840MOL0     H10853   4.425  -1.207   5.437  1.1342  1.5181 -0.0416
  840MOL0     H10854   4.306  -1.239   5.714 -0.8297 -1.4688  0.2742
  840MOL0     H10855   4.459  -1.306   5.651 -0.4404 -3.1494 -0.7487
  840MOL0     H10856   4.327  -1.428   5.487  0.3599  1.5724 -0.4670
  840MOL0     H10857   4.179  -1.348   5.559 -0.2238 -0.4035  2.2571
  840MOL0     H10858   4.341  -1.484   5.762  1.9909 -2.8185 -0.7423
  840MOL0     H10859   4.167  -1.469   5.731 -0.1333 -0.0531 -0.4498
  840MOL0     H10860   4.371  -1.658   5.591 -0.4650  3.4547 -1.5760
  840MOL0     H10861   4.204  -1.646   5.535 -0.8711 -1.9519  0.0530
  840MOL0     H10862   4.572  -0.540   5.449 -0.9136  1.2813  0.0289
  840MOL0     H10863   4.670  -0.318   5.491 -1.2844  0.7141  0.7825
  840MOL0     H10864   4.995  -0.061   5.958  1.1893  3.3130  2.3228
  840MOL0     H10865   5.081   0.161   5.950  2.2549 -3.6473  0.4236
  840MOL0     H10866   6.645   0.808   6.771 -1.7997  0.0081  0.6899
  840MOL0     H10867   6.788   0.825   6.979  1.3059 -0.5472 -0.9476
  840MOL0     H10868   7.149   0.597   7.238 -2.4842 -0.7166 -1.0742
  840MOL0     H10869   7.288   0.608   7.425  0.8236 -0.8636  2.6744
  840MOL0     H10870   7.085   0.711   7.834  0.0716  2.1160 -4.3626
  840MOL0     H10871   7.226   0.631   7.890 -0.6715 -0.1496  1.0903
  840MOL0     H10872   6.994   0.479   7.760 -0.0837 -2.5226  1.9203
  840MOL0     H10873   7.142   0.395   7.795  1.7890  0.7840 -1.4378
  840MOL0     H10874   6.959   0.540   7.982  1.6195  1.9322 -0.7727
  840MOL0     H10875   7.120   0.478   8.037  1.9125 -0.3510 -1.6775
  840MOL0     H10876   6.960   0.325   8.102  3.1048 -3.1714  0.6531
  840MOL0     H10877   6.876   0.336   7.944 -0.2725  3.2797  0.6578
  840MOL0     H10878   7.196   0.028   7.933 -0.8422  0.4228 -1.0758
  840MOL0     H10879   6.929   0.707   7.663  0.7222  0.5517  0.1309
  840MOL0     H10880   6.807   0.721   7.484  1.4706  0.5014  1.0760
  841MOL0     O10881   6.255   2.888   6.539  0.4888 -0.5518 -0.3231
  841MOL0     C10882   6.329   2.985   6.558 -0.6992 -0.3115  0.1012
  841MOL0     O10883   6.459   2.993   6.516 -0.4626 -0.5607  0.5397
  841MOL0     C10884   6.524   2.885   6.468 -0.2315 -0.0547  0.1148
  841MOL0     C10885   6.663   2.909   6.467  0.5300 -0.4769 -0.2136
  841MOL0     C10886   6.746   2.807   6.425 -0.7568 -0.3153  0.0007
  841MOL0     C10887   6.705   2.683   6.382 -0.5566  0.6677  0.1218
  841MOL0     O10888   6.804   2.612   6.312  0.6749  0.0576 -0.1084
  841MOL0     C10889   6.764   2.479   6.274  0.2916 -0.0975  0.2376
  841MOL0     C10890   6.856   2.425   6.167 -0.1762 -0.3960  0.3033
  841MOL0     C10891   6.808   2.473   6.023 -0.5294 -0.3224  0.2694
  841MOL0     C10892   6.690   2.383   5.980 -0.3362 -0.1099  0.6185
  841MOL0     C10893   6.691   2.372   5.824 -0.2126  0.0869  0.2165
  841MOL0     C10894   6.668   2.492   5.739  0.1887  0.1206 -0.0487
  841MOL0     C10895   6.538   2.553   5.785 -0.4999  0.9455  0.2618
  841MOL0     C10896   6.473   2.638   5.680  0.4744 -0.3238 -1.1088
  841MOL0     N10897   6.560   2.729   5.623 -0.1042 -0.5785  1.3220
  841MOL0     C10898   6.624   2.832   5.686 -1.4582 -0.1864  1.1011
  841MOL0     C10899   6.694   2.889   5.580 -0.5504  0.7870 -0.8240
  841MOL0     C10900   6.751   3.026   5.569  0.1378  0.5865  0.5078
  841MOL0     C10901   6.680   3.113   5.465  0.3292 -0.2006 -0.8391
  841MOL0     C10902   6.533   3.153   5.507  1.0168  0.6394  0.0209
  841MOL0     C10903   6.508   3.278   5.594 -0.4516  0.2640 -0.3857
  841MOL0     O10904   6.373   3.287   5.648  0.5095 -0.0115  0.0278
  841MOL0     C10905   6.260   3.320   5.573 -0.2242  0.3586 -0.2076
  841MOL0     C10906   6.256   3.336   5.431 -0.5032  0.4803  0.0744
  841MOL0     C10907   6.145   3.375   5.357 -0.0592 -0.3134  0.2654
  841MOL0     C10908   6.024   3.395   5.423  0.3163  0.1158 -0.8076
  841MOL0     C10909   5.896   3.414   5.359  0.8522  0.0936  0.0184
  841MOL0     O10910   5.778   3.387   5.433  0.0498  0.0542 -0.2922
  841MOL0     C10911   5.651   3.407   5.393  0.7231  0.3071  0.3992
  841MOL0     C10912   5.550   3.428   5.481 -0.1468 -0.0825 -0.3066
  841MOL0     C10913   5.419   3.439   5.441  0.0383 -0.8195 -0.4896
  841MOL0     C10914   5.376   3.419   5.312 -1.0093 -1.2285  0.4684
  841MOL0     O10915   5.240   3.429   5.275  0.1536  0.1240 -0.5297
  841MOL0     C10916   5.193   3.455   5.143  1.1571 -0.4650  0.8258
  841MOL0     C10917   5.032   3.422   5.144 -0.3259 -0.6085  0.7190
  841MOL0     C10918   4.968   3.474   5.017  0.1166 -0.3283 -1.7938
  841MOL0     C10919   4.969   3.635   5.003  0.7060  0.5656 -0.2543
  841MOL0     C10920   4.843   3.664   4.924 -0.5845  0.6054 -0.7058
  841MOL0     C10921   4.835   3.816   4.898 -0.3539  0.8839 -0.6067
  841MOL0     C10922   4.748   3.862   4.784 -0.7747  0.0982 -0.7530
  841MOL0     C10923   4.740   4.021   4.780 -0.7591  0.0011 -0.0191
  841MOL0    Cl10924   4.888   4.101   4.829 -0.1408 -0.0359  0.1334
  841MOL0     C10925   5.472   3.382   5.220 -1.3148 -0.0142 -0.3139
  841MOL0     C10926   5.608   3.384   5.257 -0.0521  0.7389  0.4427
  841MOL0     O10927   5.895   3.470   5.247  0.1318  0.5196 -0.6056
  841MOL0     C10928   6.023   3.374   5.564 -0.5398  0.2565  0.9655
  841MOL0     C10929   6.143   3.348   5.638  0.1188  0.2998 -0.4167
  841MOL0     N10930   6.683   2.811   5.470 -0.1854  0.0335  0.0071
  841MOL0     N10931   6.581   2.725   5.485 -0.9061 -0.0947 -0.1745
  841MOL0     C10932   6.574   2.657   6.389  0.8449 -0.2211  0.0968
  841MOL0     C10933   6.480   2.752   6.435 -0.8228 -0.6171 -0.5828
  841MOL0     C10934   6.271   3.103   6.619 -0.7836  1.0570 -0.8183
  841MOL0     C10935   6.161   3.084   6.700 -0.0598  0.0622 -0.4558
  841MOL0     C10936   6.079   3.194   6.747 -0.2499 -0.3491 -1.2204
  841MOL0     C10937   6.129   3.326   6.735  0.4610 -1.1488  0.7444
  841MOL0     O10938   6.047   3.426   6.794 -0.0838  0.5241  0.7517
  841MOL0     C10939   6.097   3.557   6.800  0.6898  0.0811 -0.5621
  841MOL0     C10940   5.996   3.642   6.886  0.8357  0.0199  0.1986
  841MOL0     C10941   5.975   3.605   7.037  0.3408 -0.1368  0.3284
  841MOL0     C10942   5.851   3.676   7.096 -0.5769 -0.4686 -0.1624
  841MOL0     C10943   5.809   3.595   7.215  0.8178 -0.5850  0.3090
  841MOL0     C10944   5.774   3.532   7.310  0.8230  0.1863 -0.7309
  841MOL0     C10945   6.253   3.345   6.667 -0.1048  0.7248  0.0020
  841MOL0     C10946   6.321   3.236   6.609 -0.1735 -0.5803  0.8396
  841MOL0     H10947   6.702   3.009   6.481 -3.6508  1.2527  0.3155
  841MOL0     H10948   6.850   2.836   6.412 -0.4051 -0.2362  2.5366
  841MOL0     H10949   6.660   2.470   6.241  0.4643  1.8479 -0.9875
  841MOL0     H10950   6.768   2.409   6.358 -1.3572 -2.5844 -1.5907
  841MOL0     H10951   6.866   2.317   6.176  1.0730 -0.5053 -1.7339
  841MOL0     H10952   6.954   2.466   6.195 -0.0522 -2.2829  2.9640
  841MOL0     H10953   6.890   2.467   5.951 -0.0188 -0.1415  0.8250
  841MOL0     H10954   6.783   2.579   6.026  1.9648  0.3638 -0.7692
  841MOL0     H10955   6.701   2.284   6.025 -0.0327  0.6198  2.2298
  841MOL0     H10956   6.598   2.424   6.023 -0.3660 -0.5003  0.9326
  841MOL0     H10957   6.620   2.294   5.794 -1.6451  1.5955 -0.4620
  841MOL0     H10958   6.783   2.339   5.773 -0.0365 -1.8899  1.7000
  841MOL0     H10959   6.665   2.462   5.634 -1.1134 -0.3460  0.1036
  841MOL0     H10960   6.744   2.567   5.760 -3.0471  2.7532  4.1104
  841MOL0     H10961   6.465   2.475   5.811 -0.3740  0.4272 -0.8865
  841MOL0     H10962   6.552   2.606   5.880  0.3200  1.2620 -0.0330
  841MOL0     H10963   6.392   2.696   5.726  1.5047  0.0506  0.3171
  841MOL0     H10964   6.429   2.568   5.608 -3.4642 -0.2127  0.8640
  841MOL0     H10965   6.607   2.857   5.790  3.3000  1.0183  1.8274
  841MOL0     H10966   6.859   3.033   5.552  0.1173 -1.1341 -0.6388
  841MOL0     H10967   6.746   3.077   5.666  0.2000  1.5721  0.0030
  841MOL0     H10968   6.662   3.057   5.373 -1.3755 -0.7197 -0.2322
  841MOL0     H10969   6.745   3.200   5.452  1.5528 -0.7872  0.9723
  841MOL0     H10970   6.459   3.143   5.427  1.6162 -2.0518 -0.2849
  841MOL0     H10971   6.492   3.073   5.569 -2.1812  1.8741 -0.3401
  841MOL0     H10972   6.528   3.367   5.534  0.8615  0.7541  0.7335
  841MOL0     H10973   6.571   3.270   5.683  1.0648  1.8566 -1.2586
  841MOL0     H10974   6.352   3.314   5.386 -0.5746 -1.2864  0.6848
  841MOL0     H10975   6.146   3.370   5.249  4.4826  0.7683  0.0430
  841MOL0     H10976   5.574   3.433   5.587 -0.6518 -3.1860  0.0640
  841MOL0     H10977   5.341   3.463   5.513 -0.6550  0.8581 -1.7445
  841MOL0     H10978   5.241   3.403   5.060 -0.6369 -0.5957 -0.1781
  841MOL0     H10979   5.213   3.559   5.114 -0.2324 -0.7089 -1.2273
  841MOL0     H10980   4.986   3.471   5.231 -3.5025 -0.8228 -0.7183
  841MOL0     H10981   5.028   3.314   5.155 -1.0299 -1.2817 -4.1716
  841MOL0     H10982   4.864   3.442   5.023 -0.0612  0.5118  0.7458
  841MOL0     H10983   5.020   3.428   4.932 -1.1462 -5.5706 -0.1555
  841MOL0     H10984   4.953   3.675   5.104 -1.1058  0.8902 -0.6353
  841MOL0     H10985   5.062   3.671   4.959  2.1849  1.4417  3.2962
  841MOL0     H10986   4.749   3.634   4.972  1.6908 -1.6741  2.7824
  841MOL0     H10987   4.857   3.604   4.834  1.8093 -1.8923  1.1711
  841MOL0     H10988   4.935   3.855   4.878 -0.3693  1.6156  0.5744
  841MOL0     H10989   4.792   3.872   4.982 -1.1444  0.6382 -0.8386
  841MOL0     H10990   4.781   3.824   4.686 -0.4423 -1.4418 -0.0682
  841MOL0     H10991   4.659   3.808   4.817  2.6682 -3.4188  4.3777
  841MOL0     H10992   4.662   4.054   4.849  1.2240  0.1385  2.2924
  841MOL0     H10993   4.705   4.055   4.682 -3.4995 -0.1714  0.8360
  841MOL0     H10994   5.445   3.364   5.117  3.8264 -0.8632 -1.8234
  841MOL0     H10995   5.682   3.365   5.180  0.9674  1.2097  1.2732
  841MOL0     H10996   5.928   3.370   5.617  0.5658 -0.9362  2.9889
  841MOL0     H10997   6.141   3.342   5.746 -1.0985  1.7711 -0.3250
  841MOL0     H10998   6.517   2.567   6.370 -1.8754  1.6822 -1.2994
  841MOL0     H10999   6.376   2.722   6.436 -0.6397 -1.3750 -1.7540
  841MOL0     H11000   6.128   2.982   6.720  3.9633 -2.1495 -3.5916
  841MOL0     H11001   5.995   3.184   6.815  0.8038  1.9472  0.5342
  841MOL0     H11002   6.102   3.601   6.700  2.1605  1.8157  0.2261
  841MOL0     H11003   6.196   3.551   6.845 -0.1808 -0.4298  1.3865
  841MOL0     H11004   6.000   3.751   6.881 -1.0820  0.1129 -0.5254
  841MOL0     H11005   5.906   3.632   6.824 -1.4140 -3.2263  3.5904
  841MOL0     H11006   6.071   3.618   7.088 -0.5664  1.2949  1.7389
  841MOL0     H11007   5.945   3.500   7.042  0.0427 -0.0619  5.5710
  841MOL0     H11008   5.877   3.781   7.110  3.2298 -1.4366  1.2802
  841MOL0     H11009   5.762   3.671   7.033 -0.0749  0.3987 -0.9648
  841MOL0     H11010   5.737   3.477   7.394 -0.0700 -0.2464 -1.3937
  841MOL0     H11011   6.292   3.446   6.655 -2.7620  1.8810  0.3819
  841MOL0     H11012   6.409   3.270   6.555 -0.6643 -0.0397  0.3570
  842MOL0     O11013   1.384   7.893   4.899  0.0412  0.6269 -0.4392
  842MOL0     C11014   1.301   7.913   4.991  0.1197 -0.0783 -0.0828
  842MOL0     O11015   1.283   8.033   5.054  0.3444 -0.5198 -0.1170
  842MOL0     C11016   1.369   8.143   5.017 -1.0033 -1.2230  0.1965
  842MOL0     C11017   1.514   8.127   5.035 -0.2608 -0.8364 -1.3348
  842MOL0     C11018   1.595   8.239   5.017  0.7297 -0.1768  0.0203
  842MOL0     C11019   1.534   8.360   4.980  0.7174 -0.9382  0.3074
  842MOL0     O11020   1.619   8.464   4.969  0.2600 -0.4991 -0.4078
  842MOL0     C11021   1.640   8.475   4.823  0.7979 -0.4998 -0.6657
  842MOL0     C11022   1.771   8.546   4.796 -0.2470 -0.8234 -0.2903
  842MOL0     C11023   1.898   8.475   4.869 -0.0317 -0.1536  0.2404
  842MOL0     C11024   2.035   8.515   4.816 -0.4027 -0.3703 -1.3438
  842MOL0     C11025   2.148   8.476   4.919 -0.1336  0.8919  1.4646
  842MOL0     C11026   2.283   8.508   4.862 -0.1478  0.9249 -0.8122
  842MOL0     C11027   2.334   8.656   4.843  0.0439  0.0744  0.0128
  842MOL0     C11028   2.472   8.660   4.789  0.0012  0.7628  0.6013
  842MOL0     N11029   2.511   8.794   4.759  0.7999 -0.5804  0.0009
  842MOL0     C11030   2.642   8.839   4.767 -0.2805  0.4803  1.1874
  842MOL0     C11031   2.637   8.975   4.741  0.7870 -1.3814  0.2744
  842MOL0     C11032   2.761   9.048   4.749  1.0798 -0.2272 -0.5569
  842MOL0     C11033   2.815   9.044   4.892 -0.3783 -0.5569  0.1612
  842MOL0     C11034   2.940   9.137   4.915 -0.1490  0.7116 -0.1261
  842MOL0     C11035   3.006   9.125   5.048  0.5763  0.6601 -0.7050
  842MOL0     O11036   3.047   8.982   5.061 -0.4392 -0.1919 -0.3981
  842MOL0     C11037   3.026   8.909   5.179 -0.1187 -0.5555  0.6071
  842MOL0     C11038   2.910   8.929   5.259  0.3306  0.5227 -0.2516
  842MOL0     C11039   2.888   8.838   5.359  0.6543  0.6565  0.1766
  842MOL0     C11040   2.970   8.724   5.377  0.0500 -0.9721 -0.0123
  842MOL0     C11041   2.940   8.623   5.481  0.2583  2.2887 -0.1238
  842MOL0     O11042   2.845   8.656   5.578  0.0767 -1.0328 -0.0008
  842MOL0     C11043   2.744   8.563   5.611 -0.1384 -0.7594  0.7564
  842MOL0     C11044   2.720   8.540   5.747 -0.0278 -0.1360  0.0562
  842MOL0     C11045   2.626   8.441   5.785 -0.1087 -0.3813 -0.4873
  842MOL0     C11046   2.558   8.363   5.676  1.1520 -0.7855  0.1734
  842MOL0     O11047   2.479   8.255   5.720 -0.0965  0.1217 -0.1237
  842MOL0     C11048   2.403   8.269   5.843  0.9153  0.3633 -0.4278
  842MOL0     C11049   2.313   8.146   5.873  0.7614 -0.5395 -0.3032
  842MOL0     C11050   2.236   8.162   6.013  0.8701  0.6535 -0.3457
  842MOL0     C11051   2.141   8.046   6.061 -0.5096 -1.3276 -0.2381
  842MOL0     C11052   2.219   7.918   6.054  1.7596  0.6967  0.1119
  842MOL0     C11053   2.121   7.799   6.071  0.8728 -0.2870  0.0640
  842MOL0     C11054   2.037   7.796   6.202  0.4758  0.6601  0.3384
  842MOL0     C11055   2.103   7.750   6.322  0.4491 -0.3302  1.3383
  842MOL0    Cl11056   2.145   7.576   6.295 -0.1412 -0.4365  0.0361
  842MOL0     C11057   2.584   8.394   5.542  0.8713 -0.2301 -0.3649
  842MOL0     C11058   2.672   8.492   5.507  0.0807  0.0108  0.3230
  842MOL0     O11059   3.007   8.516   5.479  0.4226 -0.0592 -0.2819
  842MOL0     C11060   3.072   8.694   5.290 -0.7816 -1.0460 -0.7604
  842MOL0     C11061   3.096   8.786   5.182 -0.2042  0.0591  0.3535
  842MOL0     N11062   2.501   9.016   4.731 -1.1198  0.3322  0.4239
  842MOL0     N11063   2.426   8.907   4.745  0.2464  0.3403  1.1249
  842MOL0     C11064   1.396   8.369   4.953 -0.1423 -0.2851 -0.5144
  842MOL0     C11065   1.319   8.266   4.987 -0.0289 -0.0486 -1.1951
  842MOL0     C11066   1.197   7.804   5.013  0.3673  0.1251 -0.2851
  842MOL0     C11067   1.191   7.678   4.947 -0.1754  0.0222 -0.0439
  842MOL0     C11068   1.093   7.579   4.979 -1.1584 -0.6105  0.8968
  842MOL0     C11069   1.011   7.599   5.085 -0.3706 -0.0720 -0.4800
  842MOL0     O11070   0.917   7.514   5.126  0.5221  1.0148  1.2264
  842MOL0     C11071   0.824   7.459   5.040  1.0327  0.0762  0.1400
  842MOL0     C11072   0.686   7.447   5.117  0.3254  0.1961 -0.0620
  842MOL0     C11073   0.632   7.585   5.161 -0.0290 -0.5342  0.0195
  842MOL0     C11074   0.484   7.565   5.184  0.6704  0.8092 -0.5384
  842MOL0     C11075   0.405   7.683   5.201 -0.6476  0.2974 -0.1926
  842MOL0     C11076   0.324   7.764   5.248 -0.4617 -0.2631  0.4119
  842MOL0     C11077   1.014   7.721   5.155 -0.3169 -0.3386  0.0769
  842MOL0     C11078   1.106   7.813   5.110 -0.4969  0.2010  0.1893
  842MOL0     H11079   1.561   8.037   5.071 -0.2848 -0.0452  0.8284
  842MOL0     H11080   1.701   8.235   5.039  0.4306 -1.8703  1.4139
  842MOL0     H11081   1.554   8.524   4.778 -0.3090 -3.1708 -1.6742
  842MOL0     H11082   1.649   8.380   4.769 -3.1125  0.0751 -2.6394
  842MOL0     H11083   1.768   8.651   4.827 -2.0860 -1.1108  0.6431
  842MOL0     H11084   1.774   8.527   4.689 -1.0332  2.8695 -1.0988
  842MOL0     H11085   1.893   8.366   4.858  4.5017 -0.3540 -2.1125
  842MOL0     H11086   1.897   8.505   4.974 -0.7382  0.7313 -0.0040
  842MOL0     H11087   2.045   8.456   4.725 -0.8390 -2.9178  0.1506
  842MOL0     H11088   2.043   8.621   4.790  1.6502 -0.0244  0.3671
  842MOL0     H11089   2.156   8.367   4.924 -0.5582  0.7597 -0.0861
  842MOL0     H11090   2.139   8.508   5.023 -0.8792  1.6750  1.1725
  842MOL0     H11091   2.278   8.457   4.765 -2.3788 -0.7322  0.0654
  842MOL0     H11092   2.347   8.463   4.939 -1.3513  0.2916 -0.1477
  842MOL0     H11093   2.262   8.704   4.777 -1.0968  2.3839  2.7078
  842MOL0     H11094   2.329   8.705   4.941  0.4464  0.1793 -0.0214
  842MOL0     H11095   2.472   8.609   4.693  0.1627 -0.7618  1.3770
  842MOL0     H11096   2.545   8.606   4.851 -2.2629 -0.9412  1.9785
  842MOL0     H11097   2.726   8.774   4.787 -1.2494 -0.5973  1.8565
  842MOL0     H11098   2.748   9.153   4.722  0.0244  0.1714  1.3129
  842MOL0     H11099   2.831   9.004   4.677 -0.5655 -0.4774 -2.0645
  842MOL0     H11100   2.846   8.941   4.910  1.5035 -0.1973 -0.7633
  842MOL0     H11101   2.747   9.089   4.966  2.8256  1.9413  1.8902
  842MOL0     H11102   3.018   9.117   4.841  2.5553  3.0793  1.8323
  842MOL0     H11103   2.914   9.241   4.893  2.1265  1.4157  0.2115
  842MOL0     H11104   2.934   9.146   5.128 -0.3062 -0.3658 -1.2054
  842MOL0     H11105   3.090   9.195   5.056  3.4210 -2.5458 -0.1063
  842MOL0     H11106   2.837   9.008   5.253 -0.7208 -0.4572 -0.7385
  842MOL0     H11107   2.792   8.848   5.408  0.5660 -2.4092  0.8311
  842MOL0     H11108   2.778   8.589   5.824  0.0706 -0.6887  0.3386
  842MOL0     H11109   2.631   8.412   5.889  1.7883 -1.0760 -0.7273
  842MOL0     H11110   2.341   8.356   5.822  1.2127  0.0777 -2.7859
  842MOL0     H11111   2.462   8.280   5.935 -0.7658  2.3534  0.4980
  842MOL0     H11112   2.386   8.065   5.875  1.7497  0.2452 -1.9885
  842MOL0     H11113   2.246   8.131   5.788  2.6809  2.2090 -2.5136
  842MOL0     H11114   2.179   8.255   6.021 -1.4323 -0.2387 -4.0243
  842MOL0     H11115   2.312   8.182   6.089 -0.2344 -1.2026  1.3342
  842MOL0     H11116   2.128   8.056   6.169 -0.0797  1.8968 -0.3862
  842MOL0     H11117   2.047   8.041   6.007 -0.6962  1.3869 -0.3288
  842MOL0     H11118   2.294   7.914   6.134  1.7149 -1.3210  0.1192
  842MOL0     H11119   2.267   7.900   5.958  2.3460  2.9790 -0.0839
  842MOL0     H11120   2.177   7.705   6.065 -0.9714 -1.4411 -0.1589
  842MOL0     H11121   2.056   7.811   5.983 -0.0249 -1.5274  0.5194
  842MOL0     H11122   2.002   7.898   6.222  0.5135  1.4229 -2.8924
  842MOL0     H11123   1.942   7.743   6.190  0.2257  1.1991 -0.0987
  842MOL0     H11124   2.016   7.753   6.388 -1.4966 -1.5219 -1.0218
  842MOL0     H11125   2.184   7.818   6.349  0.1221 -0.5838  3.0503
  842MOL0     H11126   2.524   8.345   5.467 -1.2185  0.2121  0.9266
  842MOL0     H11127   2.686   8.536   5.408  2.9750  2.0954  1.5250
  842MOL0     H11128   3.126   8.600   5.290 -0.2269 -0.7582  1.0304
  842MOL0     H11129   3.171   8.763   5.106 -1.2738 -3.0619  0.0847
  842MOL0     H11130   1.368   8.466   4.913  2.8878  0.9507  0.0849
  842MOL0     H11131   1.211   8.273   4.978 -0.1357  1.5310  0.6252
  842MOL0     H11132   1.267   7.655   4.873  2.2864  0.5937  2.1455
  842MOL0     H11133   1.085   7.486   4.924  0.9789  0.5179 -1.5224
  842MOL0     H11134   0.856   7.365   4.995  0.6270 -0.3008  0.6285
  842MOL0     H11135   0.818   7.536   4.962 -0.1669  1.2672  1.3444
  842MOL0     H11136   0.617   7.408   5.042 -2.3040  2.4138  1.0248
  842MOL0     H11137   0.700   7.374   5.197  0.5410 -0.3444 -0.5931
  842MOL0     H11138   0.633   7.663   5.085 -2.6377  0.1730  0.6291
  842MOL0     H11139   0.690   7.620   5.246 -2.1689  1.4257  0.7669
  842MOL0     H11140   0.433   7.510   5.105  2.6811 -2.1307  0.0435
  842MOL0     H11141   0.479   7.492   5.266  1.1189 -1.6768 -2.6018
  842MOL0     H11142   0.258   7.846   5.267 -0.2604  0.5696 -2.1272
  842MOL0     H11143   0.957   7.739   5.245  0.0378 -4.0051  1.2127
  842MOL0     H11144   1.106   7.905   5.168  1.4690  0.6329 -0.4198
  843MOL0     O11145   0.168   0.610   8.871  0.4194 -0.5416 -0.4465
  843MOL0     C11146   0.043   0.623   8.862  0.3504  0.3315  0.1241
  843MOL0     O11147  -0.039   0.673   8.957  0.2490  0.2141 -0.0962
  843MOL0     C11148   0.006   0.735   9.063 -0.2684  0.1625  0.2979
  843MOL0     C11149   0.000   0.877   9.061  0.1968 -0.7067  0.9441
  843MOL0     C11150   0.062   0.953   9.165 -0.0919 -0.7190  0.1042
  843MOL0     C11151   0.131   0.886   9.268  0.9959  0.2884  0.2893
  843MOL0     O11152   0.181   0.943   9.386  0.8000  0.4630  0.7475
  843MOL0     C11153   0.249   1.069   9.367 -0.2523 -0.8120 -0.0103
  843MOL0     C11154   0.365   1.078   9.473  0.4294  0.2855 -1.1093
  843MOL0     C11155   0.307   1.054   9.618  0.2343  0.1292  0.5979
  843MOL0     C11156   0.422   1.067   9.722 -1.3324 -0.5730 -0.3374
  843MOL0     C11157   0.429   0.987   9.847  0.3139  0.5205  0.0417
  843MOL0     C11158   0.300   1.030   9.932 -0.0809  0.1234  0.1160
  843MOL0     C11159   0.280   0.933  10.052  0.2431 -0.5477  0.3523
  843MOL0     C11160   0.151   0.968  10.124 -0.2649  0.3172  0.6098
  843MOL0     N11161   0.127   1.113  10.120  0.3122 -0.4177 -0.3358
  843MOL0     C11162   0.043   1.169  10.028 -0.0888 -0.3676  0.7035
  843MOL0     C11163   0.017   1.297  10.070  0.2623  0.4756  0.1673
  843MOL0     C11164  -0.073   1.396  10.000  0.2758  0.6804  0.4928
  843MOL0     C11165  -0.219   1.352   9.969 -0.8051  0.9086  0.3059
  843MOL0     C11166  -0.295   1.436   9.868  0.6336  0.7392  0.3000
  843MOL0     C11167  -0.266   1.380   9.727 -0.0946 -0.6279 -0.2487
  843MOL0     O11168  -0.306   1.245   9.720 -0.1917 -0.0011 -0.2476
  843MOL0     C11169  -0.292   1.187   9.592  0.3761 -0.1886  0.0052
  843MOL0     C11170  -0.391   1.096   9.554  0.7031 -0.3822 -0.1032
  843MOL0     C11171  -0.399   1.051   9.419  0.2746 -0.5834  0.1306
  843MOL0     C11172  -0.306   1.106   9.321  0.6914  0.0204  0.6379
  843MOL0     C11173  -0.332   1.090   9.174  0.4011  0.1831 -0.4837
  843MOL0     O11174  -0.240   1.135   9.080 -0.1840  0.1952  0.5536
  843MOL0     C11175  -0.280   1.122   8.943 -0.7623  0.0458  0.5668
  843MOL0     C11176  -0.304   0.997   8.888  0.3540  0.4251 -0.1249
  843MOL0     C11177  -0.355   0.978   8.758 -0.4509 -1.1862 -1.3085
  843MOL0     C11178  -0.381   1.086   8.669 -0.0450  0.6570 -0.8522
  843MOL0     O11179  -0.420   1.073   8.541  0.2834 -0.7700 -0.3957
  843MOL0     C11180  -0.532   0.986   8.511 -0.9144 -0.9337  0.2060
  843MOL0     C11181  -0.630   1.069   8.410 -0.6434  0.3068  0.1915
  843MOL0     C11182  -0.754   1.004   8.374  0.1342 -0.7131  0.0374
  843MOL0     C11183  -0.711   0.889   8.269  0.4274 -0.2297 -0.2662
  843MOL0     C11184  -0.827   0.792   8.226  0.1410  0.7420 -0.7893
  843MOL0     C11185  -0.838   0.676   8.321 -0.4146  0.7662  0.4741
  843MOL0     C11186  -0.958   0.582   8.331 -0.1235 -0.1795 -0.0429
  843MOL0     C11187  -0.948   0.484   8.214  0.1687 -0.2914 -0.2086
  843MOL0    Cl11188  -0.810   0.375   8.228 -0.0942 -0.0071  0.2843
  843MOL0     C11189  -0.328   1.211   8.720  0.8505 -0.0365  0.1959
  843MOL0     C11190  -0.288   1.235   8.857  0.9057  0.0597  0.1140
  843MOL0     O11191  -0.446   1.049   9.151 -0.2817  0.2629 -0.4258
  843MOL0     C11192  -0.197   1.178   9.364 -0.0703  1.0204 -0.5761
  843MOL0     C11193  -0.200   1.234   9.491 -0.4703  1.0302 -0.2622
  843MOL0     N11194   0.089   1.321  10.192 -0.7336  0.0653  0.4711
  843MOL0     N11195   0.149   1.206  10.214  0.9232 -0.4834  0.6029
  843MOL0     C11196   0.128   0.749   9.262 -0.0878  0.8172 -0.5656
  843MOL0     C11197   0.074   0.667   9.165 -0.4573  0.0307 -0.3083
  843MOL0     C11198  -0.023   0.565   8.740  0.6709  0.0272  0.3315
  843MOL0     C11199   0.048   0.492   8.643 -0.8415  0.1398  0.4571
  843MOL0     C11200  -0.023   0.420   8.549  0.0520 -0.3682 -0.8901
  843MOL0     C11201  -0.156   0.428   8.535  0.1293 -0.0293 -0.1626
  843MOL0     O11202  -0.220   0.371   8.429  0.6876  0.0999  0.0033
  843MOL0     C11203  -0.337   0.447   8.392  0.4103 -0.2220  0.7085
  843MOL0     C11204  -0.358   0.438   8.242 -0.2245 -0.7825  0.7670
  843MOL0     C11205  -0.411   0.303   8.193 -0.1504 -0.8134 -0.0444
  843MOL0     C11206  -0.492   0.311   8.059  0.7314  0.8571 -0.4013
  843MOL0     C11207  -0.547   0.176   8.024  0.0533  0.4471  0.6039
  843MOL0     C11208  -0.597   0.068   7.991 -0.2763 -0.6744 -0.2038
  843MOL0     C11209  -0.218   0.512   8.632 -0.1880  1.3734 -0.5916
  843MOL0     C11210  -0.159   0.565   8.737  0.4205  0.5086  0.0993
  843MOL0     H11211  -0.051   0.920   8.976  3.6268  0.6420 -0.5993
  843MOL0     H11212   0.043   1.060   9.170 -2.2053 -1.0948  1.3595
  843MOL0     H11213   0.181   1.154   9.363 -0.3688 -0.9263 -0.4897
  843MOL0     H11214   0.296   1.067   9.269  1.0950 -0.2042  0.5950
  843MOL0     H11215   0.419   1.172   9.464  0.7525  0.3906  1.3796
  843MOL0     H11216   0.445   1.006   9.449  2.2610  0.8304  2.6558
  843MOL0     H11217   0.260   0.955   9.619 -2.2007  1.1911 -0.4487
  843MOL0     H11218   0.231   1.127   9.643 -1.2320 -1.5346  1.2275
  843MOL0     H11219   0.514   1.038   9.671 -0.0430 -3.5355  3.2423
  843MOL0     H11220   0.428   1.174   9.747 -4.0013 -0.7242  1.4237
  843MOL0     H11221   0.524   0.987   9.900 -1.0206  1.0908  2.5910
  843MOL0     H11222   0.428   0.880   9.824 -0.4181  0.5640 -0.1577
  843MOL0     H11223   0.211   1.026   9.870  1.9566 -1.1302 -2.9788
  843MOL0     H11224   0.318   1.135   9.958 -0.3662  0.3652 -0.6395
  843MOL0     H11225   0.284   0.833  10.008 -1.1525  0.0179 -1.1701
  843MOL0     H11226   0.351   0.968  10.128  1.3602  3.1740 -2.0940
  843MOL0     H11227   0.159   0.934  10.228  1.1347 -1.0882  0.0821
  843MOL0     H11228   0.063   0.927  10.075 -2.9841  0.5559  4.7398
  843MOL0     H11229   0.009   1.125   9.935 -0.8534  2.0787 -0.2504
  843MOL0     H11230  -0.012   1.440   9.922  1.0647  1.0563  1.3068
  843MOL0     H11231  -0.083   1.480  10.070 -2.3785 -0.9923  2.3505
  843MOL0     H11232  -0.280   1.340  10.059 -0.4593 -0.2365  0.4163
  843MOL0     H11233  -0.211   1.252   9.924 -1.6558  1.5247 -1.2957
  843MOL0     H11234  -0.402   1.417   9.884  0.8975 -1.2799 -0.0220
  843MOL0     H11235  -0.277   1.544   9.876  2.2318  0.3398  3.4123
  843MOL0     H11236  -0.158   1.388   9.707 -0.3298  2.6219 -0.7530
  843MOL0     H11237  -0.309   1.451   9.655 -2.8925  0.7414  2.5514
  843MOL0     H11238  -0.474   1.077   9.620 -1.2447  2.5144 -1.5212
  843MOL0     H11239  -0.485   1.004   9.372 -0.1666 -0.8413  1.1835
  843MOL0     H11240  -0.308   0.909   8.952 -2.6237  0.5513  0.0232
  843MOL0     H11241  -0.410   0.886   8.738 -3.1988  0.6515 -2.8493
  843MOL0     H11242  -0.587   0.969   8.604 -0.2062 -3.4148  0.2478
  843MOL0     H11243  -0.507   0.889   8.466 -0.2993 -0.2964 -0.8861
  843MOL0     H11244  -0.572   1.085   8.319 -1.8219 -2.9810 -1.2872
  843MOL0     H11245  -0.637   1.169   8.454  0.5588  0.7630 -0.5985
  843MOL0     H11246  -0.820   1.081   8.333  1.4614 -0.8947 -2.6475
  843MOL0     H11247  -0.801   0.966   8.465  0.0079  0.3576  0.4346
  843MOL0     H11248  -0.667   0.927   8.176  0.1160 -1.0454 -0.7638
  843MOL0     H11249  -0.627   0.832   8.310  1.1083  0.7307 -0.3071
  843MOL0     H11250  -0.831   0.756   8.123 -3.0189  0.9609 -0.8496
  843MOL0     H11251  -0.918   0.848   8.249  1.7680  2.2214  3.0343
  843MOL0     H11252  -0.839   0.723   8.420  1.0067 -1.4981  1.6583
  843MOL0     H11253  -0.742   0.625   8.313 -0.6438  0.5007 -0.8641
  843MOL0     H11254  -0.943   0.523   8.422 -2.9017 -0.6480  0.1970
  843MOL0     H11255  -1.052   0.636   8.342  1.7091  2.9645  1.6325
  843MOL0     H11256  -0.942   0.541   8.120  0.4919 -1.9476 -1.2288
  843MOL0     H11257  -1.038   0.422   8.203  0.7379 -1.1730  0.0185
  843MOL0     H11258  -0.325   1.303   8.662 -0.6263 -1.0019 -1.5283
  843MOL0     H11259  -0.277   1.338   8.889 -3.9378  1.5111 -1.9210
  843MOL0     H11260  -0.118   1.205   9.295 -0.5991  0.8762 -1.2466
  843MOL0     H11261  -0.107   1.285   9.513  1.3340 -1.9394 -0.3529
  843MOL0     H11262   0.194   0.702   9.334  1.1850  1.4108 -1.3233
  843MOL0     H11263   0.080   0.559   9.156  1.7761 -0.2118  2.6208
  843MOL0     H11264   0.155   0.483   8.631 -0.0873  1.8227  4.4254
  843MOL0     H11265   0.021   0.346   8.483 -0.0223  0.3599 -1.7794
  843MOL0     H11266  -0.322   0.555   8.402  4.0022 -0.6367  0.9588
  843MOL0     H11267  -0.420   0.414   8.456  2.7390  0.0467  4.1772
  843MOL0     H11268  -0.429   0.513   8.202  2.5643  1.2062 -0.8376
  843MOL0     H11269  -0.270   0.483   8.195  0.4487 -3.0633 -0.2731
  843MOL0     H11270  -0.482   0.257   8.263 -0.1753  0.1434  0.5718
  843MOL0     H11271  -0.322   0.243   8.173 -0.2348 -0.3461 -1.9905
  843MOL0     H11272  -0.573   0.375   8.094  1.8251  1.0608  1.9437
  843MOL0     H11273  -0.437   0.353   7.974  0.2500  0.1740 -1.0744
  843MOL0     H11274  -0.656  -0.019   7.973 -0.3349 -0.9114  1.0833
  843MOL0     H11275  -0.326   0.521   8.635 -0.6976 -2.9066  1.5917
  843MOL0     H11276  -0.221   0.622   8.805 -0.5131  2.0734 -1.9699
  844MOL0     O11277   4.787   6.270   6.637  0.3985 -0.7485  0.1055
  844MOL0     C11278   4.861   6.340   6.564  0.6737 -0.6617  0.5753
  844MOL0     O11279   4.969   6.416   6.605  0.0420 -0.1333 -0.2363
  844MOL0     C11280   5.012   6.408   6.736  0.1031  0.1491 -0.0733
  844MOL0     C11281   5.012   6.304   6.823 -0.4894  1.1366 -0.2337
  844MOL0     C11282   5.050   6.318   6.955 -0.7769 -1.2153  0.2752
  844MOL0     C11283   5.087   6.433   7.005 -0.6396 -0.1105 -0.0069
  844MOL0     O11284   5.115   6.445   7.144 -0.5645  0.1063 -0.4750
  844MOL0     C11285   5.029   6.506   7.244  0.1653  0.4522 -0.1004
  844MOL0     C11286   4.973   6.389   7.328 -0.5009  0.1801 -0.9265
  844MOL0     C11287   5.083   6.290   7.389 -0.5877 -0.8094  0.3848
  844MOL0     C11288   5.016   6.182   7.474  0.9446  0.2142  0.0154
  844MOL0     C11289   5.126   6.120   7.562  0.7591  0.4012  0.7037
  844MOL0     C11290   5.067   6.067   7.688 -0.0900  0.6064 -0.3620
  844MOL0     C11291   5.160   5.958   7.748 -1.0604  1.6949  0.2459
  844MOL0     C11292   5.109   5.920   7.890 -0.4698  0.4989  1.0093
  844MOL0     N11293   5.163   6.015   7.981  0.1567 -0.3003 -0.2581
  844MOL0     C11294   5.255   5.991   8.078  0.3405  0.4886 -0.8216
  844MOL0     C11295   5.250   6.099   8.167 -0.3027 -0.0222  1.2795
  844MOL0     C11296   5.348   6.143   8.277 -0.2605  0.5700  0.2403
  844MOL0     C11297   5.333   6.054   8.391  0.0368  0.2986  0.1933
  844MOL0     C11298   5.359   6.128   8.517 -0.2665  0.6320 -0.2167
  844MOL0     C11299   5.497   6.180   8.539  0.0114 -0.1374  0.3907
  844MOL0     O11300   5.514   6.290   8.455  0.6447  0.3099  0.0195
  844MOL0     C11301   5.625   6.367   8.465  0.3739  0.3620  0.3091
  844MOL0     C11302   5.746   6.331   8.528 -0.3839  0.4832  0.6820
  844MOL0     C11303   5.854   6.418   8.541 -0.1891 -0.3574  0.2148
  844MOL0     C11304   5.838   6.556   8.497  0.5744 -0.3644 -0.5110
  844MOL0     C11305   5.953   6.644   8.502  0.1430 -0.3821 -0.0573
  844MOL0     O11306   6.055   6.599   8.571 -0.4047  0.0763 -1.5217
  844MOL0     C11307   6.179   6.654   8.565  0.4097 -0.9378 -1.1461
  844MOL0     C11308   6.193   6.782   8.614 -0.3501 -1.1645 -0.2318
  844MOL0     C11309   6.320   6.846   8.590 -1.0938 -1.4751  0.8236
  844MOL0     C11310   6.432   6.783   8.532 -0.5606 -0.9000 -0.3171
  844MOL0     O11311   6.555   6.853   8.511  0.1859  0.3576  0.3396
  844MOL0     C11312   6.576   6.983   8.574  0.0066 -0.4326 -0.6375
  844MOL0     C11313   6.584   6.975   8.729 -0.0313 -0.4969 -0.2820
  844MOL0     C11314   6.558   7.118   8.791  0.2419  0.3159 -0.0428
  844MOL0     C11315   6.518   7.102   8.943 -0.9978 -0.0465  0.5221
  844MOL0     C11316   6.525   7.221   9.041 -0.9622  0.2561  0.2656
  844MOL0     C11317   6.666   7.255   9.079 -0.0069 -0.6339  0.7166
  844MOL0     C11318   6.699   7.234   9.229 -0.6641  0.6632  0.6899
  844MOL0     C11319   6.817   7.135   9.257  0.3865  0.1368 -0.2400
  844MOL0    Cl11320   6.967   7.210   9.179 -0.4486  0.5414 -0.0520
  844MOL0     C11321   6.418   6.648   8.507 -0.1069 -0.4450 -0.5281
  844MOL0     C11322   6.296   6.583   8.537  0.5132 -1.3840 -0.0827
  844MOL0     O11323   5.937   6.757   8.462  0.1975 -0.0433 -0.6293
  844MOL0     C11324   5.717   6.589   8.428  0.0648  0.1316  0.5864
  844MOL0     C11325   5.616   6.499   8.420 -0.4138  0.7169 -0.1318
  844MOL0     N11326   5.151   6.190   8.123 -0.0516  0.2548  0.0849
  844MOL0     N11327   5.105   6.138   8.012  0.0812 -0.2832  0.3966
  844MOL0     C11328   5.081   6.542   6.925 -1.0016  0.1974 -0.1606
  844MOL0     C11329   5.058   6.536   6.786 -0.4585 -0.3669 -0.3853
  844MOL0     C11330   4.836   6.335   6.413  0.6221 -0.1289 -0.1928
  844MOL0     C11331   4.897   6.438   6.336  0.9908 -0.2430  0.6478
  844MOL0     C11332   4.895   6.433   6.198  1.1062 -0.3128 -0.1445
  844MOL0     C11333   4.830   6.323   6.135 -0.3653  0.6686  0.5724
  844MOL0     O11334   4.845   6.285   5.999  0.3073  0.0698 -0.3142
  844MOL0     C11335   4.877   6.394   5.906  0.4453 -0.0688  0.2509
  844MOL0     C11336   4.870   6.331   5.764 -0.2939 -0.3729 -0.6056
  844MOL0     C11337   4.848   6.432   5.654 -0.8455 -0.7816  0.8656
  844MOL0     C11338   4.835   6.370   5.516  0.3397  0.7804 -0.5257
  844MOL0     C11339   4.950   6.291   5.462  0.2739 -0.7003 -0.5674
  844MOL0     C11340   5.040   6.236   5.410  0.6001 -0.0833  0.6773
  844MOL0     C11341   4.753   6.230   6.213 -0.5348  0.3781 -0.4088
  844MOL0     C11342   4.747   6.246   6.351 -0.1835 -0.2937  0.3148
  844MOL0     H11343   4.963   6.210   6.797 -1.0676  1.8162 -1.7240
  844MOL0     H11344   5.061   6.231   7.020  0.1116  1.6233  4.3003
  844MOL0     H11345   4.945   6.566   7.209 -1.0150  1.8279  4.4383
  844MOL0     H11346   5.103   6.567   7.297  1.6307  1.7988 -3.4632
  844MOL0     H11347   4.907   6.338   7.258 -1.6085 -1.3790  1.1465
  844MOL0     H11348   4.899   6.427   7.400  0.9221  1.9715 -0.3100
  844MOL0     H11349   5.142   6.356   7.454 -1.8180  0.1946  0.5268
  844MOL0     H11350   5.151   6.251   7.314  0.8730  2.7912 -0.3635
  844MOL0     H11351   4.934   6.207   7.541  1.9442 -0.9283  1.7364
  844MOL0     H11352   4.977   6.111   7.400 -0.8016 -0.2130  1.2994
  844MOL0     H11353   5.214   6.181   7.583  1.7999 -1.4121  1.8528
  844MOL0     H11354   5.170   6.034   7.511  0.5785 -0.8226  2.5242
  844MOL0     H11355   4.969   6.021   7.668 -0.0628  0.2651  0.2519
  844MOL0     H11356   5.056   6.153   7.754  1.8309 -0.5229  1.5591
  844MOL0     H11357   5.145   5.865   7.692 -4.0786  2.1338  0.1930
  844MOL0     H11358   5.266   5.986   7.750 -0.5494 -0.1016  0.1392
  844MOL0     H11359   5.157   5.822   7.900  0.9312  1.1258  0.6810
  844MOL0     H11360   5.000   5.911   7.900 -0.4126  0.4516  1.6687
  844MOL0     H11361   5.321   5.905   8.085  1.3680  1.3349  0.3904
  844MOL0     H11362   5.325   6.246   8.306  0.3925  0.3760  1.5023
  844MOL0     H11363   5.446   6.129   8.232 -0.8718 -3.0720 -0.2245
  844MOL0     H11364   5.402   5.969   8.379 -1.1015 -0.7448  0.8269
  844MOL0     H11365   5.231   6.016   8.400  0.7252 -1.2715  2.0360
  844MOL0     H11366   5.282   6.206   8.516  0.2554  1.1540 -1.3688
  844MOL0     H11367   5.332   6.080   8.611  2.4097  3.0040  1.9676
  844MOL0     H11368   5.575   6.112   8.506 -0.0995  0.3249 -0.8560
  844MOL0     H11369   5.513   6.214   8.642  1.8633  0.9862 -0.2248
  844MOL0     H11370   5.756   6.235   8.578 -0.4632 -0.4854 -1.0904
  844MOL0     H11371   5.939   6.381   8.598 -0.4455 -0.3806  0.5822
  844MOL0     H11372   6.099   6.821   8.651 -0.6997 -1.7221 -0.5260
  844MOL0     H11373   6.326   6.951   8.619  0.6763 -2.1156  3.1102
  844MOL0     H11374   6.499   7.053   8.541  0.1883  2.2399  3.7817
  844MOL0     H11375   6.672   7.018   8.534  0.2159  0.9109  0.9414
  844MOL0     H11376   6.682   6.943   8.764  0.4210  2.6283  1.6609
  844MOL0     H11377   6.508   6.904   8.763 -1.1746 -0.4795 -2.6548
  844MOL0     H11378   6.470   7.163   8.745 -0.4980  2.7504  3.3300
  844MOL0     H11379   6.634   7.196   8.783 -2.8269  3.4759 -0.9140
  844MOL0     H11380   6.418   7.059   8.955 -0.2489 -1.7124  1.3004
  844MOL0     H11381   6.597   7.034   8.977  2.1229  1.9292 -2.1253
  844MOL0     H11382   6.477   7.188   9.133  0.2862 -0.0049  0.8435
  844MOL0     H11383   6.467   7.301   8.995  0.9078  1.2170 -0.5136
  844MOL0     H11384   6.671   7.363   9.066 -0.4612 -0.7936 -1.1739
  844MOL0     H11385   6.745   7.212   9.017  1.5747  1.0826  1.4481
  844MOL0     H11386   6.716   7.336   9.264 -2.1519  1.3658 -0.5485
  844MOL0     H11387   6.607   7.203   9.280  1.0987 -2.8168  2.1241
  844MOL0     H11388   6.786   7.035   9.224 -1.5679  0.3832  0.7795
  844MOL0     H11389   6.840   7.128   9.363  3.8532 -2.3734 -0.9392
  844MOL0     H11390   6.501   6.587   8.473 -1.7134 -2.6849 -0.7403
  844MOL0     H11391   6.293   6.474   8.536 -0.5644 -1.3612 -1.2951
  844MOL0     H11392   5.709   6.688   8.385  0.5104 -0.1010 -0.0427
  844MOL0     H11393   5.518   6.512   8.375  1.6693  1.4568 -5.0670
  844MOL0     H11394   5.095   6.645   6.957  1.3064 -0.0229 -0.3208
  844MOL0     H11395   5.052   6.630   6.731  0.9341  1.0682  1.7811
  844MOL0     H11396   4.969   6.506   6.381  1.8685  0.0994 -1.1523
  844MOL0     H11397   4.956   6.498   6.136  1.6988 -1.1175 -0.4216
  844MOL0     H11398   4.982   6.421   5.918  0.9235 -1.9746  0.7112
  844MOL0     H11399   4.804   6.475   5.914 -1.3250 -1.6919  1.7515
  844MOL0     H11400   4.954   6.266   5.737  0.2392  0.1721 -0.2864
  844MOL0     H11401   4.777   6.274   5.771  0.5158 -1.6013  0.4994
  844MOL0     H11402   4.944   6.484   5.649 -0.5608 -1.4072 -0.2644
  844MOL0     H11403   4.763   6.497   5.677  0.0092  0.5091  0.4981
  844MOL0     H11404   4.752   6.299   5.526  1.5405 -0.4766  1.1328
  844MOL0     H11405   4.800   6.450   5.450  0.2236  1.6207  0.5152
  844MOL0     H11406   5.117   6.189   5.351 -2.4966 -1.1368 -2.9435
  844MOL0     H11407   4.720   6.134   6.177 -0.0372 -0.8626  2.1798
  844MOL0     H11408   4.699   6.173   6.415  0.9248  0.0692  1.5962
  845MOL0     O11409   1.203   6.488   2.904 -0.3084  0.2765  0.4146
  845MOL0     C11410   1.158   6.488   2.795 -0.1520  1.6405 -0.1136
  845MOL0     O11411   1.055   6.568   2.748  0.6026 -0.3195 -0.3674
  845MOL0     C11412   0.988   6.666   2.825 -0.4381 -0.3199  0.0034
  845MOL0     C11413   0.848   6.671   2.828 -0.2691 -0.3567 -0.5125
  845MOL0     C11414   0.782   6.763   2.913 -1.0468  0.2314 -0.3050
  845MOL0     C11415   0.857   6.837   3.012 -0.4317  0.3515 -1.0097
  845MOL0     O11416   0.802   6.926   3.106  0.4507  0.2830 -0.2777
  845MOL0     C11417   0.660   6.940   3.099  0.0983  1.0487  0.3136
  845MOL0     C11418   0.611   7.060   3.177 -1.2611  0.3804 -0.0071
  845MOL0     C11419   0.458   7.085   3.170  0.3341 -0.5511 -0.2284
  845MOL0     C11420   0.368   6.954   3.187 -0.0339  1.1085  0.8298
  845MOL0     C11421   0.218   6.981   3.173 -0.9238  0.4996 -0.6560
  845MOL0     C11422   0.182   7.056   3.038 -1.3711  0.2739 -1.5814
  845MOL0     C11423   0.217   6.973   2.917  0.4143  1.0828  0.8990
  845MOL0     C11424   0.181   7.070   2.803 -2.4716 -0.1648  0.7201
  845MOL0     N11425   0.267   7.032   2.694  0.9125  0.1508 -1.5167
  845MOL0     C11426   0.401   7.043   2.699  0.1637  0.4984  0.5453
  845MOL0     C11427   0.447   6.996   2.581 -0.5745  0.2107 -0.0250
  845MOL0     C11428   0.587   6.999   2.522  0.5842  0.8073 -0.2104
  845MOL0     C11429   0.638   6.864   2.461  0.7289  0.9557 -0.2626
  845MOL0     C11430   0.770   6.875   2.400 -0.0779  0.4218  0.1920
  845MOL0     C11431   0.896   6.853   2.493  0.5914 -0.1069  0.6441
  845MOL0     O11432   0.990   6.804   2.406 -0.7378 -0.3131  0.4049
  845MOL0     C11433   1.127   6.817   2.423  0.4264  0.3821  0.3755
  845MOL0     C11434   1.205   6.762   2.320  0.3110 -0.1334 -1.1165
  845MOL0     C11435   1.341   6.733   2.354  0.3152 -0.2499 -0.1400
  845MOL0     C11436   1.396   6.773   2.483  0.0985  0.1556  0.9219
  845MOL0     C11437   1.539   6.737   2.505  1.5657  0.3266 -0.1679
  845MOL0     O11438   1.629   6.708   2.403  0.2800  0.6597 -0.1926
  845MOL0     C11439   1.749   6.653   2.444 -0.6725  0.0989  0.5274
  845MOL0     C11440   1.756   6.528   2.515  0.2817  0.5094 -0.0313
  845MOL0     C11441   1.875   6.460   2.556 -0.6157 -0.3158  0.8307
  845MOL0     C11442   1.994   6.517   2.504  0.0084  0.0714  0.3874
  845MOL0     O11443   2.097   6.438   2.522 -0.8871 -0.5602 -0.6953
  845MOL0     C11444   2.222   6.447   2.445  0.7242 -0.5816  0.2027
  845MOL0     C11445   2.314   6.327   2.474  0.0238  0.2047  0.8211
  845MOL0     C11446   2.426   6.309   2.375  0.4908 -0.0475  0.0978
  845MOL0     C11447   2.477   6.168   2.395 -0.5455 -0.2736  0.2032
  845MOL0     C11448   2.604   6.141   2.303 -1.0185 -0.6578  0.7538
  845MOL0     C11449   2.673   6.027   2.380 -0.5730  0.8031  0.5386
  845MOL0     C11450   2.807   5.990   2.315  1.3058 -1.2490 -0.6661
  845MOL0     C11451   2.790   5.900   2.190 -0.0986  0.0864  0.8817
  845MOL0    Cl11452   2.628   5.870   2.125  0.4664  0.1266  0.3462
  845MOL0     C11453   1.992   6.637   2.431 -0.7280  0.3782 -0.5090
  845MOL0     C11454   1.873   6.708   2.404 -0.5118 -0.4220  0.0940
  845MOL0     O11455   1.573   6.751   2.624 -0.3913 -0.0482  0.2561
  845MOL0     C11456   1.311   6.838   2.581  0.4581 -0.1834  0.7088
  845MOL0     C11457   1.179   6.854   2.550  0.0634 -0.7168  0.0534
  845MOL0     N11458   0.334   6.962   2.507 -0.3701 -0.4671 -0.6821
  845MOL0     N11459   0.225   6.975   2.575 -0.1084  0.1878  0.3922
  845MOL0     C11460   1.000   6.831   3.004 -0.0808  0.9761 -0.1322
  845MOL0     C11461   1.066   6.748   2.900  0.1090 -1.0693  0.7901
  845MOL0     C11462   1.228   6.395   2.693  0.3476  0.1276  0.8648
  845MOL0     C11463   1.181   6.376   2.562  0.1378 -0.5646 -0.3226
  845MOL0     C11464   1.234   6.291   2.472 -0.4750 -0.1201 -0.1881
  845MOL0     C11465   1.344   6.208   2.508  1.0477 -0.3734  0.1444
  845MOL0     O11466   1.396   6.125   2.413  0.5370 -0.8396 -0.6613
  845MOL0     C11467   1.525   6.160   2.357 -0.1195  0.7109  0.1448
  845MOL0     C11468   1.611   6.046   2.369 -0.0706 -0.1229  0.8892
  845MOL0     C11469   1.744   6.059   2.295 -0.4870 -0.1906 -0.7112
  845MOL0     C11470   1.821   6.194   2.314 -0.4471  0.6358 -0.2090
  845MOL0     C11471   1.966   6.170   2.280  0.9016  1.3136  0.7789
  845MOL0     C11472   2.081   6.148   2.257 -0.9142  0.3933  0.4609
  845MOL0     C11473   1.400   6.224   2.642  0.6231  0.0374  1.2813
  845MOL0     C11474   1.337   6.317   2.733 -0.1825  0.8581 -0.1249
  845MOL0     H11475   0.787   6.602   2.771  0.2859 -0.0009 -1.5643
  845MOL0     H11476   0.674   6.764   2.912 -1.0471  1.1953 -1.4719
  845MOL0     H11477   0.615   6.853   3.148  3.9267 -0.3431  1.6597
  845MOL0     H11478   0.625   6.954   2.996  0.7957 -2.3861 -0.5312
  845MOL0     H11479   0.670   7.149   3.152 -0.9199  0.4828  1.1025
  845MOL0     H11480   0.636   7.034   3.281  0.5072  1.1516 -0.2027
  845MOL0     H11481   0.450   7.131   3.071  0.3779 -0.9330 -0.4134
  845MOL0     H11482   0.430   7.158   3.246  3.4209  0.3273  0.2004
  845MOL0     H11483   0.401   6.874   3.121  3.7492  2.3821  0.9505
  845MOL0     H11484   0.373   6.906   3.286 -0.9543  0.9058  0.7890
  845MOL0     H11485   0.188   7.031   3.265  2.0306 -1.4016  1.5184
  845MOL0     H11486   0.169   6.883   3.173 -0.1573  0.0968 -1.7928
  845MOL0     H11487   0.237   7.150   3.041  2.8746 -1.9970 -0.5159
  845MOL0     H11488   0.074   7.070   3.029 -1.6749 -0.4631  0.3230
  845MOL0     H11489   0.318   6.931   2.911 -1.0202 -2.6164 -0.3520
  845MOL0     H11490   0.155   6.883   2.920  0.9966  0.6520  0.2858
  845MOL0     H11491   0.215   7.170   2.831  1.6414 -2.2072  4.2661
  845MOL0     H11492   0.075   7.057   2.779 -2.1030 -2.9967  0.3174
  845MOL0     H11493   0.461   7.072   2.785  0.8138  0.0061  0.2703
  845MOL0     H11494   0.657   7.048   2.590 -1.9541  3.1019  0.9332
  845MOL0     H11495   0.579   7.072   2.441 -0.3721 -2.0529 -2.9342
  845MOL0     H11496   0.566   6.842   2.382  1.3578 -2.2224 -0.0880
  845MOL0     H11497   0.635   6.783   2.534 -0.0295 -0.2822 -1.6015
  845MOL0     H11498   0.772   6.792   2.328  0.7736 -0.7117  1.4712
  845MOL0     H11499   0.774   6.974   2.353  0.4651 -0.9644 -2.9680
  845MOL0     H11500   0.864   6.777   2.566 -0.9737 -1.3061 -1.1992
  845MOL0     H11501   0.926   6.947   2.541 -0.7835  0.2070  0.9218
  845MOL0     H11502   1.152   6.741   2.227 -2.2043  1.8305 -0.2375
  845MOL0     H11503   1.407   6.682   2.285 -1.0294 -1.3250 -0.6814
  845MOL0     H11504   1.658   6.486   2.538 -1.4914  2.9580 -2.3993
  845MOL0     H11505   1.879   6.361   2.599 -2.2329  0.0521  1.9151
  845MOL0     H11506   2.265   6.537   2.490 -2.1359  1.8183 -1.5182
  845MOL0     H11507   2.201   6.462   2.339  0.2134  0.4692  0.4437
  845MOL0     H11508   2.248   6.239   2.481 -0.7238  0.9088  4.9761
  845MOL0     H11509   2.349   6.318   2.577  0.6435 -0.9206  0.5295
  845MOL0     H11510   2.507   6.378   2.399  0.3125  0.5129 -0.8645
  845MOL0     H11511   2.391   6.322   2.272  0.7044  3.2292  0.3380
  845MOL0     H11512   2.485   6.137   2.500 -1.5397  0.5856  0.5480
  845MOL0     H11513   2.396   6.099   2.370 -2.2955  1.5454  0.6107
  845MOL0     H11514   2.671   6.227   2.293  0.3541 -1.9723 -2.4622
  845MOL0     H11515   2.574   6.111   2.203 -2.2230 -0.0211  0.9043
  845MOL0     H11516   2.604   5.942   2.387 -2.4857  2.1194 -1.3700
  845MOL0     H11517   2.702   6.055   2.482  4.2825  1.6009 -0.7988
  845MOL0     H11518   2.857   6.084   2.290 -1.7096  1.3016  1.9465
  845MOL0     H11519   2.862   5.928   2.387  2.7722 -0.9876 -1.5221
  845MOL0     H11520   2.840   5.805   2.212  3.0670  2.0397  2.9688
  845MOL0     H11521   2.851   5.951   2.115  0.8042  2.0318  2.8297
  845MOL0     H11522   2.083   6.679   2.389 -1.0143  0.1227 -1.4197
  845MOL0     H11523   1.883   6.792   2.336 -6.6130  0.7592  0.1486
  845MOL0     H11524   1.354   6.871   2.676  2.3961 -0.0949 -0.1463
  845MOL0     H11525   1.120   6.898   2.630  0.9174 -2.2958  1.6458
  845MOL0     H11526   1.054   6.882   3.082  3.1796 -3.0124  0.5193
  845MOL0     H11527   1.173   6.742   2.881 -0.0553  0.4840 -0.9334
  845MOL0     H11528   1.102   6.443   2.530 -1.2980 -1.9300  0.2892
  845MOL0     H11529   1.187   6.273   2.375 -0.6103 -0.4186 -0.0698
  845MOL0     H11530   1.570   6.240   2.417  0.3202 -1.8895  3.6013
  845MOL0     H11531   1.514   6.188   2.252  1.2030  0.6843 -0.0223
  845MOL0     H11532   1.631   6.047   2.477 -2.0472  1.5351  1.3140
  845MOL0     H11533   1.567   5.953   2.333  0.1244 -0.4719  1.5332
  845MOL0     H11534   1.725   6.049   2.188  0.3110  1.4332 -1.0330
  845MOL0     H11535   1.805   5.977   2.334  0.7303  1.2556  0.5656
  845MOL0     H11536   1.789   6.279   2.253  1.7187  3.0237  1.8217
  845MOL0     H11537   1.818   6.222   2.419 -1.3207 -1.3699  0.3538
  845MOL0     H11538   2.180   6.108   2.247 -0.7948  0.6080  0.7668
  845MOL0     H11539   1.489   6.166   2.664  0.2793 -1.9817 -1.9707
  845MOL0     H11540   1.363   6.315   2.838 -2.9539 -3.3132  0.7392
  846MOL0     O11541   8.000   3.769   4.012  0.2648 -0.0737  0.3388
  846MOL0     C11542   7.945   3.851   3.935 -0.2655 -0.3524  0.0476
  846MOL0     O11543   8.001   3.892   3.816 -0.8093  0.2772 -0.5260
  846MOL0     C11544   8.092   3.819   3.749 -0.0028  1.3589 -0.0230
  846MOL0     C11545   8.093   3.677   3.759  0.3111  0.9544  0.5495
  846MOL0     C11546   8.177   3.596   3.686  0.4777 -0.3093  0.2193
  846MOL0     C11547   8.262   3.657   3.600 -0.4604  0.3570 -0.0083
  846MOL0     O11548   8.326   3.572   3.511  0.7033  0.0954  0.0520
  846MOL0     C11549   8.465   3.551   3.535  0.2498  0.3215  0.4873
  846MOL0     C11550   8.513   3.423   3.473 -0.5347  0.0543 -0.9477
  846MOL0     C11551   8.420   3.298   3.502 -0.3430  0.2788  1.3796
  846MOL0     C11552   8.394   3.271   3.656 -0.5497  0.4948 -0.3167
  846MOL0     C11553   8.301   3.151   3.676 -0.4713 -0.0654 -0.2458
  846MOL0     C11554   8.151   3.180   3.661 -0.1883  0.0651 -0.2147
  846MOL0     C11555   8.068   3.058   3.692 -0.0354 -1.0018 -0.2035
  846MOL0     C11556   8.105   2.924   3.637 -0.6119 -0.7155  0.6406
  846MOL0     N11557   8.082   2.902   3.498  0.3855  0.7750 -0.6701
  846MOL0     C11558   8.015   2.791   3.440 -0.1417 -0.5613  1.0671
  846MOL0     C11559   8.039   2.806   3.304  1.0713  0.8427  0.2935
  846MOL0     C11560   8.003   2.719   3.191 -0.1926 -0.0575  0.7832
  846MOL0     C11561   8.088   2.585   3.197 -0.0208 -0.6092  0.3031
  846MOL0     C11562   8.071   2.515   3.063 -0.2630  1.2614  0.4196
  846MOL0     C11563   8.140   2.380   3.054  0.7144 -0.1967  0.3692
  846MOL0     O11564   8.209   2.338   3.170 -0.1386  0.0422 -0.7260
  846MOL0     C11565   8.282   2.224   3.153  0.9124 -0.2899  0.7911
  846MOL0     C11566   8.368   2.197   3.041  0.4158 -1.0802 -0.7176
  846MOL0     C11567   8.426   2.068   3.015  0.6641 -0.2852  1.1846
  846MOL0     C11568   8.378   1.958   3.083 -0.6727 -0.4060 -0.7335
  846MOL0     C11569   8.428   1.823   3.032 -0.4054 -0.0618 -0.0746
  846MOL0     O11570   8.376   1.718   3.105 -0.7457 -0.0718 -0.0752
  846MOL0     C11571   8.443   1.596   3.104 -0.5190 -0.3132  0.3042
  846MOL0     C11572   8.542   1.546   3.015  0.0304 -2.1233  0.6832
  846MOL0     C11573   8.589   1.418   3.035 -0.6959 -0.3174 -0.4697
  846MOL0     C11574   8.546   1.332   3.134  0.1142 -0.5373  0.0534
  846MOL0     O11575   8.590   1.200   3.156  0.0862  0.7532  0.0919
  846MOL0     C11576   8.733   1.189   3.165 -0.3049  0.0388 -0.1491
  846MOL0     C11577   8.761   1.115   3.292  0.1207 -0.2298  0.5369
  846MOL0     C11578   8.756   0.956   3.261 -0.1931 -0.0115  0.8534
  846MOL0     C11579   8.763   0.873   3.384  0.3088  0.3807 -0.1225
  846MOL0     C11580   8.899   0.891   3.465 -0.4849  0.1915 -0.6397
  846MOL0     C11581   8.899   0.798   3.589 -0.5186 -0.3793  0.1827
  846MOL0     C11582   9.023   0.821   3.680  0.2280 -0.2221 -0.3005
  846MOL0     C11583   9.033   0.707   3.780  0.0459  0.2567 -0.7984
  846MOL0    Cl11584   8.876   0.667   3.869 -0.1710  0.0460  0.3451
  846MOL0     C11585   8.451   1.373   3.222 -0.8691 -0.3095  0.4773
  846MOL0     C11586   8.396   1.504   3.208 -0.2476  0.2070 -0.6291
  846MOL0     O11587   8.485   1.821   2.928 -0.2092 -0.3369 -0.5936
  846MOL0     C11588   8.309   1.983   3.203  0.3935 -0.5993  0.1610
  846MOL0     C11589   8.259   2.114   3.244  0.3824  0.2481 -0.5396
  846MOL0     N11590   8.116   2.922   3.294 -0.0259  0.0710 -0.2171
  846MOL0     N11591   8.137   2.981   3.405  0.2635  0.1281 -0.6045
  846MOL0     C11592   8.278   3.790   3.585 -0.9648 -0.8773 -1.1704
  846MOL0     C11593   8.191   3.872   3.664  0.4685 -0.4948  0.4506
  846MOL0     C11594   7.835   3.935   3.989 -0.2412 -0.1068 -0.0856
  846MOL0     C11595   7.774   3.901   4.114  0.2060  0.3363  1.2105
  846MOL0     C11596   7.668   3.980   4.162 -0.3789 -0.4101 -0.2460
  846MOL0     C11597   7.630   4.097   4.090 -0.0422 -0.2337  0.6122
  846MOL0     O11598   7.521   4.175   4.117 -0.6241  0.6223  0.0291
  846MOL0     C11599   7.498   4.186   4.261  1.0680  0.2877  0.3154
  846MOL0     C11600   7.460   4.324   4.296 -0.4853  0.4671 -0.3838
  846MOL0     C11601   7.320   4.369   4.263 -0.0502 -0.6420  0.0414
  846MOL0     C11602   7.263   4.475   4.355  1.2562  0.5972  0.3746
  846MOL0     C11603   7.358   4.585   4.362  0.8231 -0.4344  0.0932
  846MOL0     C11604   7.445   4.674   4.369 -0.4044 -0.3076  0.7892
  846MOL0     C11605   7.685   4.120   3.966 -0.1511  1.0712 -0.1231
  846MOL0     C11606   7.791   4.046   3.918 -0.3517 -0.2554 -0.1199
  846MOL0     H11607   8.015   3.634   3.822 -1.1010  4.3299  1.3861
  846MOL0     H11608   8.158   3.489   3.689 -1.7005  0.0580  1.6339
  846MOL0     H11609   8.493   3.539   3.640 -0.9299 -0.6751  0.7098
  846MOL0     H11610   8.518   3.634   3.488 -1.9129  1.8822  0.6541
  846MOL0     H11611   8.607   3.402   3.524 -1.6419 -3.4281 -0.0645
  846MOL0     H11612   8.528   3.421   3.364 -4.2963 -0.8241 -1.5885
  846MOL0     H11613   8.479   3.214   3.464 -0.4835 -0.0078  1.7891
  846MOL0     H11614   8.333   3.302   3.436  2.0120  1.6662 -1.9078
  846MOL0     H11615   8.492   3.248   3.699 -1.8976  1.7909  3.9047
  846MOL0     H11616   8.367   3.368   3.697  2.6779  0.8283  1.4143
  846MOL0     H11617   8.313   3.111   3.777 -0.1247  0.6092 -0.0100
  846MOL0     H11618   8.334   3.073   3.607  1.0012  0.1193  0.2029
  846MOL0     H11619   8.134   3.212   3.558 -1.8238 -0.1097 -0.0189
  846MOL0     H11620   8.125   3.257   3.735 -0.9449 -0.3639 -0.0244
  846MOL0     H11621   8.057   3.032   3.797  0.1635 -1.3359 -0.2644
  846MOL0     H11622   7.964   3.084   3.669  0.3264  2.6458  1.6054
  846MOL0     H11623   8.056   2.844   3.693  0.1465 -1.5099  0.1894
  846MOL0     H11624   8.212   2.911   3.654 -0.4738  1.7579  2.1203
  846MOL0     H11625   7.960   2.713   3.492 -0.5144  0.0566  1.6240
  846MOL0     H11626   8.005   2.767   3.092  0.1005 -1.6950 -0.0318
  846MOL0     H11627   7.901   2.682   3.206  0.2995 -0.6782  2.7795
  846MOL0     H11628   8.035   2.523   3.270 -3.2228 -0.6399 -1.8727
  846MOL0     H11629   8.189   2.617   3.222 -1.1794  3.0225  0.9640
  846MOL0     H11630   7.966   2.501   3.035  0.1609 -4.1374  0.6701
  846MOL0     H11631   8.110   2.585   2.988  2.4914 -1.3460 -0.8037
  846MOL0     H11632   8.209   2.406   2.973  0.0750 -1.6979 -0.7057
  846MOL0     H11633   8.057   2.319   3.017 -1.7172  2.7602  0.6253
  846MOL0     H11634   8.402   2.284   2.986  0.5328  1.1601  2.6042
  846MOL0     H11635   8.482   2.063   2.922 -0.2288 -0.0522  0.6095
  846MOL0     H11636   8.582   1.608   2.935 -0.1188 -1.7058  0.9282
  846MOL0     H11637   8.667   1.382   2.969 -0.7979  0.5357 -1.0711
  846MOL0     H11638   8.782   1.287   3.166 -2.5408  1.2161  1.3361
  846MOL0     H11639   8.774   1.130   3.082  0.8244  1.9181 -0.9973
  846MOL0     H11640   8.692   1.145   3.372  2.0035  1.9447  1.4852
  846MOL0     H11641   8.867   1.139   3.309  0.3785  2.7062 -3.6048
  846MOL0     H11642   8.834   0.929   3.189 -0.5003  1.9182 -0.2668
  846MOL0     H11643   8.658   0.922   3.224  0.5848 -3.7089  1.7244
  846MOL0     H11644   8.672   0.885   3.444 -2.0354 -1.9972 -2.8795
  846MOL0     H11645   8.763   0.765   3.365 -1.3941  0.0956  1.1600
  846MOL0     H11646   8.929   0.993   3.492  3.4711 -0.3024 -2.4754
  846MOL0     H11647   8.981   0.857   3.401  1.0052 -0.8750  1.6774
  846MOL0     H11648   8.904   0.696   3.549  1.0086 -0.4013  0.3578
  846MOL0     H11649   8.799   0.806   3.633 -2.1233  0.0547 -3.1910
  846MOL0     H11650   9.122   0.820   3.633  0.3878 -2.6218 -0.0384
  846MOL0     H11651   9.004   0.909   3.742 -0.3271 -1.7881  1.8386
  846MOL0     H11652   9.112   0.729   3.852 -1.5058  1.6435  0.5660
  846MOL0     H11653   9.064   0.618   3.724  2.7159  1.1290 -0.8535
  846MOL0     H11654   8.414   1.304   3.298 -0.2442 -2.3677 -1.0023
  846MOL0     H11655   8.332   1.557   3.277 -0.0846  0.7486 -0.8897
  846MOL0     H11656   8.275   1.897   3.260 -1.7607 -0.3024 -0.5727
  846MOL0     H11657   8.191   2.128   3.328 -1.2101  1.2022 -1.9254
  846MOL0     H11658   8.360   3.822   3.522 -2.3716 -0.7186 -3.0129
  846MOL0     H11659   8.207   3.978   3.678  3.3237 -0.4394 -2.0299
  846MOL0     H11660   7.797   3.805   4.159 -1.3207 -2.1231 -2.7895
  846MOL0     H11661   7.615   3.968   4.256  1.5941  0.4615  1.0765
  846MOL0     H11662   7.589   4.161   4.316  0.8055 -0.5308  0.3992
  846MOL0     H11663   7.411   4.125   4.288  1.2485 -0.9077 -1.6083
  846MOL0     H11664   7.484   4.335   4.402  2.4188 -0.8393 -0.8032
  846MOL0     H11665   7.525   4.393   4.242  3.6272 -3.6076 -1.3222
  846MOL0     H11666   7.251   4.285   4.254 -1.7395  0.8408 -1.8456
  846MOL0     H11667   7.337   4.406   4.161  2.1956 -0.9428  0.2536
  846MOL0     H11668   7.168   4.504   4.311  1.7737 -3.4951 -4.2338
  846MOL0     H11669   7.250   4.428   4.454  4.6321 -1.3561  0.0595
  846MOL0     H11670   7.520   4.750   4.360 -0.6542 -0.2649 -2.1912
  846MOL0     H11671   7.653   4.203   3.903  2.3167  0.9016 -1.7565
  846MOL0     H11672   7.822   4.070   3.816  0.0676  1.4394  0.3616
  847MOL0     O11673   8.260   1.627   5.694 -0.7131  0.4561 -0.5846
  847MOL0     C11674   8.192   1.558   5.774 -1.3296  0.6778 -0.2117
  847MOL0     O11675   8.067   1.511   5.763  0.4646 -0.4409  0.8105
  847MOL0     C11676   7.985   1.563   5.666 -0.0925 -0.9372  0.4349
  847MOL0     C11677   7.971   1.496   5.542 -0.3563  0.4234  0.0749
  847MOL0     C11678   7.892   1.559   5.438  0.2211  0.1429 -0.8722
  847MOL0     C11679   7.831   1.681   5.458  0.2707 -0.8697 -0.5032
  847MOL0     O11680   7.768   1.735   5.349  0.8772  0.0222 -0.5169
  847MOL0     C11681   7.674   1.848   5.363 -1.1101 -0.1816  0.4899
  847MOL0     C11682   7.626   1.907   5.226  0.1388  0.2490  0.7031
  847MOL0     C11683   7.566   1.796   5.141  0.2408 -0.2691 -1.1613
  847MOL0     C11684   7.453   1.703   5.199 -0.5228  0.0472 -0.3742
  847MOL0     C11685   7.407   1.602   5.096 -0.7204  0.2255  0.9968
  847MOL0     C11686   7.297   1.664   5.016  0.2288 -0.8312 -0.6838
  847MOL0     C11687   7.241   1.598   4.891 -0.8366 -0.2164  0.7060
  847MOL0     C11688   7.172   1.472   4.912 -0.2951  0.9544 -0.6094
  847MOL0     N11689   7.049   1.477   4.992 -0.0668 -0.3294  1.4371
  847MOL0     C11690   7.006   1.389   5.092 -0.3451 -0.4492 -0.5844
  847MOL0     C11691   6.890   1.440   5.140  0.6935 -0.9217  0.8565
  847MOL0     C11692   6.806   1.386   5.253  0.1700 -0.6888 -0.2659
  847MOL0     C11693   6.734   1.259   5.230  0.1639  0.7984  0.3523
  847MOL0     C11694   6.610   1.276   5.143 -0.0220  0.1838  0.2740
  847MOL0     C11695   6.489   1.215   5.214  0.2361  0.1203  0.7708
  847MOL0     O11696   6.385   1.190   5.126 -0.2302 -0.1067 -0.6056
  847MOL0     C11697   6.271   1.133   5.177  0.2645  0.8552  0.2175
  847MOL0     C11698   6.180   1.088   5.082  0.2448 -0.2311  0.4639
  847MOL0     C11699   6.063   1.018   5.122  0.7605 -0.4011  1.2343
  847MOL0     C11700   6.026   0.995   5.252 -0.7918  0.0990  0.5181
  847MOL0     C11701   5.897   0.953   5.294  0.2989 -0.3090  0.6093
  847MOL0     O11702   5.804   0.958   5.193  0.0179 -0.9822 -1.0269
  847MOL0     C11703   5.673   0.930   5.234  0.0382 -0.5280  0.2737
  847MOL0     C11704   5.622   0.803   5.190 -1.4399 -0.6247 -0.2089
  847MOL0     C11705   5.491   0.764   5.215  0.0211  0.0528 -1.3429
  847MOL0     C11706   5.415   0.850   5.294 -0.1697  0.0821 -0.9360
  847MOL0     O11707   5.292   0.792   5.331  0.3592  0.2625 -0.0060
  847MOL0     C11708   5.247   0.801   5.464 -0.5824 -0.5769 -0.3532
  847MOL0     C11709   5.149   0.684   5.483  0.9808 -0.3032 -0.2051
  847MOL0     C11710   5.087   0.690   5.620  0.1930  0.6508  2.1987
  847MOL0     C11711   4.996   0.578   5.646 -0.2169  0.6388 -0.2833
  847MOL0     C11712   4.924   0.588   5.783 -0.2568 -0.4839 -0.2090
  847MOL0     C11713   5.013   0.571   5.908  0.3041  0.5599 -1.2427
  847MOL0     C11714   4.929   0.579   6.031  0.5809  0.9885  0.3377
  847MOL0     C11715   5.013   0.602   6.146  0.1426 -0.6252 -0.4136
  847MOL0    Cl11716   5.081   0.431   6.184  0.1809  0.0090  0.1644
  847MOL0     C11717   5.461   0.983   5.336 -0.1534  0.3276 -1.5494
  847MOL0     C11718   5.587   1.023   5.294 -0.0517 -0.1503  0.3322
  847MOL0     O11719   5.881   0.940   5.413 -0.0393  0.8538  0.4810
  847MOL0     C11720   6.123   1.022   5.348  0.1749 -0.4839 -0.4562
  847MOL0     C11721   6.242   1.088   5.310 -0.4579 -0.9375  0.1397
  847MOL0     N11722   6.863   1.564   5.079  0.4674  0.4547 -0.1939
  847MOL0     N11723   6.957   1.580   4.988 -0.7058 -0.9659 -1.1305
  847MOL0     C11724   7.842   1.743   5.585 -0.5596 -1.1519  0.3493
  847MOL0     C11725   7.926   1.691   5.680 -0.3586  0.6282  0.2835
  847MOL0     C11726   8.267   1.505   5.884 -0.6029 -0.4283  0.5796
  847MOL0     C11727   8.222   1.397   5.964 -0.2342  0.1039  0.1390
  847MOL0     C11728   8.303   1.346   6.068  0.0333  0.7859 -0.4557
  847MOL0     C11729   8.431   1.401   6.082 -0.8264  0.2910 -1.2386
  847MOL0     O11730   8.508   1.353   6.181 -0.5707  0.3656  0.1101
  847MOL0     C11731   8.592   1.431   6.263 -0.4145 -0.2410  0.0517
  847MOL0     C11732   8.573   1.397   6.411  0.0574  1.0637  0.1906
  847MOL0     C11733   8.689   1.459   6.492  0.1871 -0.3887  0.3445
  847MOL0     C11734   8.825   1.382   6.480  0.7867 -0.2678 -0.4219
  847MOL0     C11735   8.922   1.465   6.414 -0.1176  0.2674 -0.0396
  847MOL0     C11736   8.997   1.524   6.333  0.0871  0.9212 -0.6910
  847MOL0     C11737   8.484   1.490   5.991  1.2843 -1.2971 -0.1034
  847MOL0     C11738   8.404   1.547   5.895  0.1429 -0.4275  0.2508
  847MOL0     H11739   8.015   1.400   5.518  0.1268  1.2653 -2.7750
  847MOL0     H11740   7.889   1.500   5.347  0.1759 -1.1288 -0.0664
  847MOL0     H11741   7.723   1.937   5.402  0.0263 -2.2172  4.1980
  847MOL0     H11742   7.586   1.814   5.419 -1.6420 -0.4176 -0.4727
  847MOL0     H11743   7.716   1.937   5.172  1.3398  1.5628  3.2719
  847MOL0     H11744   7.559   1.993   5.232 -0.7442 -0.3622 -0.0451
  847MOL0     H11745   7.638   1.721   5.107  0.3546 -1.2096  0.9994
  847MOL0     H11746   7.516   1.847   5.058  1.0595  2.4072 -0.1164
  847MOL0     H11747   7.496   1.662   5.290 -1.0080  1.5264  0.5530
  847MOL0     H11748   7.368   1.756   5.243 -0.6849 -0.9676  0.5788
  847MOL0     H11749   7.376   1.503   5.131 -0.7493  0.3932  1.4509
  847MOL0     H11750   7.484   1.576   5.023 -0.3943 -0.2548  1.5095
  847MOL0     H11751   7.341   1.758   4.981 -0.6126 -0.8159 -1.7259
  847MOL0     H11752   7.215   1.666   5.089  0.8074 -0.4839 -0.0251
  847MOL0     H11753   7.174   1.665   4.835  1.1428 -0.5279 -2.2954
  847MOL0     H11754   7.331   1.591   4.828 -1.4734  2.1319 -0.6035
  847MOL0     H11755   7.230   1.399   4.970 -1.0590  0.8837  0.0768
  847MOL0     H11756   7.161   1.426   4.813  1.7314  1.3559 -1.0770
  847MOL0     H11757   7.044   1.293   5.123  2.3949  0.5628 -0.5686
  847MOL0     H11758   6.735   1.463   5.285 -1.3096 -2.4577  0.8952
  847MOL0     H11759   6.876   1.381   5.337 -0.2098  2.0463  0.3302
  847MOL0     H11760   6.717   1.207   5.324 -0.8347 -1.8403 -1.1754
  847MOL0     H11761   6.810   1.195   5.184  1.7480  3.2134 -0.6461
  847MOL0     H11762   6.588   1.379   5.113 -0.8685 -0.5136 -1.6873
  847MOL0     H11763   6.630   1.206   5.061  1.1297 -1.6756  2.0432
  847MOL0     H11764   6.469   1.285   5.296  3.3640  4.2518 -1.6060
  847MOL0     H11765   6.511   1.118   5.259 -1.8978  0.1491  2.0061
  847MOL0     H11766   6.188   1.104   4.975 -2.7591 -1.5198 -0.0604
  847MOL0     H11767   5.996   1.007   5.038  5.6050  0.2157 -3.1911
  847MOL0     H11768   5.707   0.754   5.143  0.1414  1.9992 -0.2921
  847MOL0     H11769   5.446   0.681   5.160 -0.0198 -0.1158 -1.0560
  847MOL0     H11770   5.191   0.891   5.490 -2.1870 -1.7717  0.4878
  847MOL0     H11771   5.334   0.784   5.529 -2.5518 -1.5749  2.1698
  847MOL0     H11772   5.199   0.588   5.468 -1.2953 -1.4803 -0.7901
  847MOL0     H11773   5.072   0.686   5.405  1.1941 -0.9013 -0.4392
  847MOL0     H11774   5.022   0.777   5.625  1.2673  1.5988  0.5940
  847MOL0     H11775   5.169   0.703   5.691  0.1137  3.6051  1.8351
  847MOL0     H11776   4.924   0.565   5.565  0.5171 -4.4896 -0.4921
  847MOL0     H11777   5.051   0.483   5.651 -2.4266 -0.6517  2.1472
  847MOL0     H11778   4.847   0.511   5.798 -1.8648  1.3064  1.3188
  847MOL0     H11779   4.870   0.683   5.788  1.2217  0.7079 -3.8827
  847MOL0     H11780   5.108   0.625   5.911  1.3702 -1.1375 -2.3120
  847MOL0     H11781   5.054   0.469   5.911  0.6424  0.6967  1.4978
  847MOL0     H11782   4.852   0.656   6.021  0.8026  1.1106 -0.5518
  847MOL0     H11783   4.873   0.485   6.038 -2.0509  2.5271  1.3523
  847MOL0     H11784   4.959   0.647   6.230 -1.0369  1.0294 -1.9964
  847MOL0     H11785   5.092   0.674   6.120 -0.1462 -0.7554 -1.6760
  847MOL0     H11786   5.402   1.026   5.417  2.4265 -0.0953  0.6753
  847MOL0     H11787   5.617   1.125   5.317 -1.3166 -0.1051  1.9636
  847MOL0     H11788   6.100   1.003   5.452  2.0598  2.3664  0.6008
  847MOL0     H11789   6.311   1.108   5.392 -0.5290 -1.4737  0.3339
  847MOL0     H11790   7.781   1.831   5.606  0.1847 -0.2032 -1.1924
  847MOL0     H11791   7.948   1.755   5.765  0.0704 -1.7805  2.0770
  847MOL0     H11792   8.119   1.367   5.946 -0.2389  0.5716 -0.6578
  847MOL0     H11793   8.254   1.278   6.138 -1.3802  2.2188  0.0037
  847MOL0     H11794   8.563   1.536   6.251 -0.3989 -0.2200  0.2031
  847MOL0     H11795   8.696   1.431   6.227 -0.3710  2.1968  0.0331
  847MOL0     H11796   8.475   1.434   6.445 -1.6576 -2.5833 -0.3560
  847MOL0     H11797   8.580   1.288   6.416  1.8866  1.1723  0.4157
  847MOL0     H11798   8.650   1.454   6.594  1.9457 -1.0112  1.0203
  847MOL0     H11799   8.705   1.564   6.465  1.5395  0.1190  2.8527
  847MOL0     H11800   8.850   1.364   6.585 -1.4916 -3.1614 -0.2701
  847MOL0     H11801   8.824   1.279   6.443  2.9880 -0.0296 -1.3352
  847MOL0     H11802   9.071   1.562   6.265  2.5697 -2.2017  0.0453
  847MOL0     H11803   8.587   1.521   5.977  1.6113 -1.4991  1.6963
  847MOL0     H11804   8.444   1.623   5.828  2.6834  1.1158  3.2773
  848MOL0     O11805   0.259   9.999   6.581  0.3412  0.2023 -0.2971
  848MOL0     C11806   0.250   9.998   6.700 -0.8622 -0.2400  0.0622
  848MOL0     O11807   0.269  10.108   6.778 -0.7510 -0.0646  0.3977
  848MOL0     C11808   0.262  10.232   6.717 -0.0380 -0.5421 -0.5667
  848MOL0     C11809   0.142  10.273   6.667  0.1600 -0.2358 -1.3993
  848MOL0     C11810   0.139  10.396   6.587  0.6127  1.0713  0.0297
  848MOL0     C11811   0.250  10.471   6.562 -0.7630  1.0333 -0.5821
  848MOL0     O11812   0.248  10.580   6.482  0.1959  0.3522  0.3451
  848MOL0     C11813   0.176  10.697   6.519 -0.0682 -0.8815 -0.5488
  848MOL0     C11814   0.078  10.760   6.411  0.7480  0.5081 -0.5429
  848MOL0     C11815  -0.018  10.658   6.354  1.1762  0.4163 -0.6562
  848MOL0     C11816  -0.046  10.688   6.203  0.1249 -0.1210  1.0323
  848MOL0     C11817  -0.133  10.813   6.185 -1.2979  0.4996  0.3042
  848MOL0     C11818  -0.272  10.770   6.196  0.4904 -0.1848 -0.3131
  848MOL0     C11819  -0.346  10.909   6.201  0.4590 -0.1829  0.4174
  848MOL0     C11820  -0.471  10.905   6.285  0.6595 -0.4121 -0.6792
  848MOL0     N11821  -0.603  10.914   6.212  0.1333 -0.9687 -1.6473
  848MOL0     C11822  -0.618  10.911   6.075 -1.0028  0.4937 -0.2360
  848MOL0     C11823  -0.752  10.918   6.061 -0.0871  0.0733  0.3343
  848MOL0     C11824  -0.831  10.928   5.930 -0.3793 -0.5680  0.0956
  848MOL0     C11825  -0.891  10.788   5.908  0.9047  0.1853  0.2621
  848MOL0     C11826  -0.788  10.693   5.848 -0.2586  1.0243 -0.4835
  848MOL0     C11827  -0.849  10.553   5.807  0.0081  0.6554  0.9163
  848MOL0     O11828  -0.741  10.456   5.797  1.1036  1.1507 -0.8544
  848MOL0     C11829  -0.709  10.410   5.671 -0.4581 -0.3192 -0.4855
  848MOL0     C11830  -0.717  10.279   5.645 -0.5845  0.1750  0.0182
  848MOL0     C11831  -0.684  10.231   5.519 -0.3496  0.6231  0.6655
  848MOL0     C11832  -0.627  10.317   5.416  0.3281  0.7944 -0.2444
  848MOL0     C11833  -0.562  10.244   5.305 -0.2245 -1.0426 -0.0008
  848MOL0     O11834  -0.443  10.298   5.265  0.8175  0.1058 -0.5031
  848MOL0     C11835  -0.371  10.212   5.184 -0.4379 -0.3164 -0.7272
  848MOL0     C11836  -0.357  10.241   5.043  0.5257 -0.3419  0.6796
  848MOL0     C11837  -0.270  10.167   4.971  0.1452  0.9551  1.8021
  848MOL0     C11838  -0.200  10.056   5.028  0.4629 -0.4009 -0.4955
  848MOL0     O11839  -0.097   9.988   4.965  0.0810  0.2114 -0.1598
  848MOL0     C11840  -0.084  10.009   4.825 -0.9752 -0.0689 -0.7416
  848MOL0     C11841   0.040   9.934   4.785  0.2283  0.6230 -0.7809
  848MOL0     C11842   0.090   9.976   4.649  0.5884  0.0928  0.9326
  848MOL0     C11843   0.218   9.897   4.614  0.6658  0.4901 -0.7885
  848MOL0     C11844   0.254   9.908   4.471 -0.1147  0.5730  1.1824
  848MOL0     C11845   0.346  10.029   4.450  0.8592 -0.0437  0.6729
  848MOL0     C11846   0.398  10.002   4.307 -0.5531 -0.3725 -0.4495
  848MOL0     C11847   0.524  10.078   4.284  0.3376  0.2525 -0.6335
  848MOL0    Cl11848   0.657  10.039   4.403  0.0521 -0.5941  0.2165
  848MOL0     C11849  -0.214  10.026   5.166 -0.7865 -0.5162  0.1874
  848MOL0     C11850  -0.303  10.100   5.243 -0.0789 -0.7784  0.2098
  848MOL0     O11851  -0.624  10.154   5.246  0.7194  1.1753  0.2861
  848MOL0     C11852  -0.614  10.458   5.446  0.0273  1.0225  0.1861
  848MOL0     C11853  -0.654  10.495   5.573 -0.0173 -0.3286  0.3370
  848MOL0     N11854  -0.811  10.928   6.185  0.0358  0.0087 -0.2730
  848MOL0     N11855  -0.724  10.924   6.278 -0.9289 -0.4647  0.8781
  848MOL0     C11856   0.370  10.422   6.623  0.6128 -0.4270  0.5041
  848MOL0     C11857   0.376  10.309   6.699  0.5184 -0.8327  0.0869
  848MOL0     C11858   0.218   9.861   6.779 -0.8972  0.1390  0.6484
  848MOL0     C11859   0.240   9.743   6.712 -0.1785  0.4875  0.3629
  848MOL0     C11860   0.217   9.621   6.777  0.0734 -0.1134  0.8801
  848MOL0     C11861   0.205   9.616   6.917 -0.3414  0.8283 -0.1115
  848MOL0     O11862   0.198   9.487   6.970 -0.5096  0.8319 -0.7299
  848MOL0     C11863   0.198   9.489   7.109  0.1899 -0.2857  0.2653
  848MOL0     C11864   0.174   9.353   7.178 -0.2051 -0.7184 -0.3132
  848MOL0     C11865   0.101   9.240   7.097  0.1226  0.3010 -0.7182
  848MOL0     C11866   0.046   9.134   7.194 -0.3001 -0.7041  0.4717
  848MOL0     C11867  -0.028   9.032   7.119 -0.7343  0.3310 -1.1235
  848MOL0     C11868  -0.097   8.950   7.066 -0.3760  0.8802 -0.3553
  848MOL0     C11869   0.171   9.739   6.983 -0.0905  0.2341 -0.3221
  848MOL0     C11870   0.179   9.864   6.917  0.7549  0.3893 -0.1520
  848MOL0     H11871   0.051  10.216   6.687 -1.9895  2.2786 -3.2701
  848MOL0     H11872   0.043  10.413   6.539 -1.1383  2.1240  3.4941
  848MOL0     H11873   0.245  10.775   6.549 -2.7437  0.5077  2.6512
  848MOL0     H11874   0.114  10.681   6.608  0.8984 -0.9370  0.1239
  848MOL0     H11875   0.140  10.803   6.331  2.0926  2.8055  1.6101
  848MOL0     H11876   0.038  10.847   6.463 -0.4290 -0.0659 -0.4494
  848MOL0     H11877  -0.106  10.651   6.419  2.3798  0.2165  1.0031
  848MOL0     H11878   0.016  10.554   6.356 -1.5489 -0.5740  2.4423
  848MOL0     H11879   0.053  10.714   6.167 -0.6159  2.7866  0.8650
  848MOL0     H11880  -0.061  10.596   6.145  2.7997 -1.0917  1.7136
  848MOL0     H11881  -0.114  10.863   6.089 -1.4005  2.1198  1.0938
  848MOL0     H11882  -0.098  10.882   6.263  0.8756 -1.9717  1.6719
  848MOL0     H11883  -0.294  10.718   6.290 -1.3973  4.3774  2.0993
  848MOL0     H11884  -0.318  10.711   6.117 -4.2779  1.9569  0.4942
  848MOL0     H11885  -0.287  10.987   6.250 -2.2670  3.3162 -1.4135
  848MOL0     H11886  -0.366  10.948   6.101 -0.4332  0.4154  0.8170
  848MOL0     H11887  -0.464  11.004   6.331  1.2640  1.0440 -3.6907
  848MOL0     H11888  -0.466  10.826   6.360  0.0750 -0.3321 -0.5545
  848MOL0     H11889  -0.550  10.902   5.990  2.2036  0.4609  2.1666
  848MOL0     H11890  -0.769  10.955   5.844 -1.0832 -0.9501 -0.5469
  848MOL0     H11891  -0.908  11.003   5.948 -0.0679 -0.4863  1.1085
  848MOL0     H11892  -0.981  10.790   5.846 -0.0287  2.7424  1.5484
  848MOL0     H11893  -0.919  10.739   6.002  1.3662 -0.7101 -0.0570
  848MOL0     H11894  -0.739  10.728   5.757 -0.6161  0.9336 -0.7133
  848MOL0     H11895  -0.719  10.672   5.930 -1.8669  0.2869  0.7506
  848MOL0     H11896  -0.905  10.558   5.714 -1.8380 -0.5963  1.9137
  848MOL0     H11897  -0.925  10.527   5.882 -3.0352  0.3955 -2.0566
  848MOL0     H11898  -0.752  10.220   5.729 -0.3864  0.8176  0.5656
  848MOL0     H11899  -0.707  10.126   5.508 -0.3194  0.5238  1.5302
  848MOL0     H11900  -0.419  10.322   5.004  1.6825  0.2841  0.1056
  848MOL0     H11901  -0.262  10.185   4.865  2.9805 -1.2020  1.5072
  848MOL0     H11902  -0.065  10.113   4.796  1.0278 -0.6072 -1.5450
  848MOL0     H11903  -0.168   9.980   4.761 -0.2818  0.1472 -1.7736
  848MOL0     H11904   0.010   9.830   4.768  1.4029  0.3790 -1.4789
  848MOL0     H11905   0.121   9.950   4.857 -0.8121  2.9394 -0.0404
  848MOL0     H11906   0.112  10.082   4.637  0.4749  0.1135  0.9075
  848MOL0     H11907   0.025   9.941   4.568  3.0634  1.0981 -1.6359
  848MOL0     H11908   0.304   9.917   4.678  0.0217  1.4704 -0.2125
  848MOL0     H11909   0.192   9.791   4.629  0.7432 -0.0901 -4.0417
  848MOL0     H11910   0.173   9.899   4.397  2.8893 -1.2959 -2.1952
  848MOL0     H11911   0.301   9.812   4.445 -0.7949  0.2334  1.1672
  848MOL0     H11912   0.431  10.023   4.519  1.3860  2.0421  0.2520
  848MOL0     H11913   0.293  10.124   4.448 -0.2057 -0.6140  0.5533
  848MOL0     H11914   0.437   9.901   4.291  1.4775  0.2526  0.2083
  848MOL0     H11915   0.322  10.005   4.228 -1.8019 -1.2595  0.6946
  848MOL0     H11916   0.497  10.183   4.298 -2.2783 -0.4180 -0.1201
  848MOL0     H11917   0.565  10.057   4.185 -0.6824 -0.1059 -0.9953
  848MOL0     H11918  -0.174   9.935   5.210  0.9362  1.2396  2.4875
  848MOL0     H11919  -0.321  10.084   5.349 -1.5763 -2.3705 -0.2296
  848MOL0     H11920  -0.567  10.529   5.379  1.9741 -1.8651 -1.7204
  848MOL0     H11921  -0.631  10.599   5.593 -0.9682  0.0759 -0.5706
  848MOL0     H11922   0.450  10.489   6.593 -0.1616  0.5994  0.6747
  848MOL0     H11923   0.472  10.282   6.740  0.3217  3.3950  4.1545
  848MOL0     H11924   0.249   9.746   6.604 -3.0549  0.2854  0.0336
  848MOL0     H11925   0.248   9.531   6.725  0.3963 -0.4070  1.5784
  848MOL0     H11926   0.107   9.547   7.126  0.2754  0.6762 -2.1409
  848MOL0     H11927   0.278   9.546   7.157  1.0546  0.9230 -2.4374
  848MOL0     H11928   0.276   9.315   7.182 -0.4488 -1.2946  2.9642
  848MOL0     H11929   0.126   9.380   7.272 -2.0376  1.5298 -1.7798
  848MOL0     H11930   0.168   9.209   7.016  1.1265  2.8637 -0.9690
  848MOL0     H11931   0.019   9.289   7.043 -0.0811  2.2579  1.2225
  848MOL0     H11932   0.126   9.091   7.255 -0.5969 -1.2538  0.4764
  848MOL0     H11933  -0.010   9.182   7.275  1.3473 -0.8884  1.7811
  848MOL0     H11934  -0.160   8.873   7.027  1.9606 -1.9846  1.0884
  848MOL0     H11935   0.160   9.733   7.091  0.6793 -1.7243 -0.3136
  848MOL0     H11936   0.155   9.953   6.974  2.2442 -0.1059  1.3130
  849MOL0     O11937   9.208   5.216   8.473 -0.2559 -0.4013 -0.3826
  849MOL0     C11938   9.112   5.284   8.426 -0.4529  0.0792  0.4109
  849MOL0     O11939   9.023   5.239   8.330  0.0861  0.3694  0.4002
  849MOL0     C11940   9.067   5.133   8.253 -0.1282  0.4260  0.6108
  849MOL0     C11941   9.173   5.153   8.156 -0.0691 -0.2717  0.5625
  849MOL0     C11942   9.234   5.053   8.090 -1.1509  0.3028 -0.0725
  849MOL0     C11943   9.164   4.933   8.078  1.1491 -0.2771  0.0111
  849MOL0     O11944   9.227   4.838   7.992  0.3348  0.2084 -0.5045
  849MOL0     C11945   9.140   4.754   7.922 -0.8617  0.2419 -1.0189
  849MOL0     C11946   9.125   4.622   7.992  0.3549  0.9384  0.2136
  849MOL0     C11947   9.248   4.532   7.980  0.4732 -0.3239  0.8901
  849MOL0     C11948   9.202   4.383   8.010 -0.0705  0.2627 -0.1322
  849MOL0     C11949   9.306   4.274   7.978 -0.3611  0.6796  0.3313
  849MOL0     C11950   9.427   4.285   8.066 -0.0506  1.1474 -0.4364
  849MOL0     C11951   9.396   4.225   8.203 -0.1032  0.1707 -0.8004
  849MOL0     C11952   9.520   4.210   8.289 -0.8750 -0.1062  0.6719
  849MOL0     N11953   9.579   4.335   8.356 -0.2298  0.0090  0.4655
  849MOL0     C11954   9.631   4.439   8.278  0.6510 -0.2533  0.7205
  849MOL0     C11955   9.693   4.515   8.363  0.2697  0.5405  0.5770
  849MOL0     C11956   9.775   4.631   8.320  0.7403 -0.6062 -0.2874
  849MOL0     C11957   9.916   4.584   8.272  0.5910 -0.3427 -0.0380
  849MOL0     C11958  10.014   4.533   8.390  0.5779  0.1747  0.7629
  849MOL0     C11959  10.066   4.648   8.477  0.0089  0.2879  0.2019
  849MOL0     O11960  10.053   4.612   8.618  0.0840 -0.3797 -1.1082
  849MOL0     C11961  10.115   4.497   8.645 -0.0923  0.2426  0.1995
  849MOL0     C11962  10.241   4.450   8.605  0.1201  0.8536  0.7708
  849MOL0     C11963  10.271   4.305   8.626  0.1607  0.3822  0.3455
  849MOL0     C11964  10.179   4.216   8.701 -0.2465 -0.3885  0.2903
  849MOL0     C11965  10.218   4.073   8.735  0.3518  0.3683  0.7498
  849MOL0     O11966  10.336   4.027   8.678  0.4025  0.4421 -0.4285
  849MOL0     C11967  10.394   3.907   8.709 -0.3562  0.5827  0.1969
  849MOL0     C11968  10.389   3.811   8.612 -0.1236  0.3378 -0.0041
  849MOL0     C11969  10.435   3.685   8.641  0.0921  1.6813 -0.6833
  849MOL0     C11970  10.471   3.648   8.772  0.5237 -0.4871  0.2572
  849MOL0     O11971  10.508   3.519   8.787 -0.4875  0.5947  0.5455
  849MOL0     C11972  10.463   3.457   8.912 -0.7783 -0.8022  0.6638
  849MOL0     C11973  10.458   3.306   8.870 -0.0264 -1.0109 -0.2197
  849MOL0     C11974  10.325   3.273   8.798 -0.3431  0.3217 -0.5663
  849MOL0     C11975  10.306   3.325   8.659  0.3207  0.0570 -0.8734
  849MOL0     C11976  10.180   3.254   8.586  0.1763 -0.0108  0.2526
  849MOL0     C11977  10.180   3.097   8.587  0.8130 -0.3175 -0.2108
  849MOL0     C11978  10.060   3.053   8.489 -0.5852  0.2321 -0.7538
  849MOL0     C11979  10.050   2.903   8.506  0.6059  0.5715 -0.4762
  849MOL0    Cl11980   9.874   2.870   8.523  0.1201  0.3612 -0.1683
  849MOL0     C11981  10.464   3.749   8.878 -0.2685 -0.1350 -0.4465
  849MOL0     C11982  10.426   3.877   8.846  0.0480 -0.2605  0.6242
  849MOL0     O11983  10.139   4.009   8.797  1.2191 -0.1044  0.1165
  849MOL0     C11984  10.059   4.274   8.736  0.7914 -0.2271 -0.2531
  849MOL0     C11985  10.030   4.408   8.714  0.3280 -0.9964  0.0096
  849MOL0     N11986   9.666   4.462   8.494 -0.4347 -1.3159  0.0554
  849MOL0     N11987   9.606   4.352   8.490 -0.5310 -0.0112 -0.3168
  849MOL0     C11988   9.054   4.914   8.164  0.4002 -0.0384  0.5105
  849MOL0     C11989   9.002   5.013   8.244  1.4385  0.5112  0.4554
  849MOL0     C11990   9.086   5.423   8.465  0.1364 -0.0066  0.3964
  849MOL0     C11991   8.989   5.507   8.392 -0.2043 -0.0238 -1.1210
  849MOL0     C11992   8.973   5.639   8.435 -0.6179 -0.3785  0.2658
  849MOL0     C11993   9.027   5.685   8.563 -0.2873  0.7081  0.6113
  849MOL0     O11994   8.995   5.804   8.616 -0.0498 -0.3311 -0.2655
  849MOL0     C11995   8.851   5.830   8.644 -0.4499 -0.7631 -0.5593
  849MOL0     C11996   8.789   5.927   8.546 -1.4049  0.3554 -0.3362
  849MOL0     C11997   8.645   5.965   8.575  0.2818 -0.5061  0.6973
  849MOL0     C11998   8.653   6.107   8.650 -0.1316 -1.1210 -0.3798
  849MOL0     C11999   8.528   6.122   8.734 -1.0537  0.3757 -0.8035
  849MOL0     C12000   8.423   6.136   8.793 -0.0553  0.4553 -0.0905
  849MOL0     C12001   9.130   5.610   8.619 -1.0016  0.1049  0.0287
  849MOL0     C12002   9.155   5.481   8.572  0.3003 -0.3549 -0.2095
  849MOL0     H12003   9.214   5.253   8.157 -3.7560  1.4181  0.0233
  849MOL0     H12004   9.329   5.066   8.039 -0.0345 -1.9503  1.2276
  849MOL0     H12005   9.191   4.727   7.829  1.7563 -4.2447  1.3785
  849MOL0     H12006   9.045   4.801   7.895  0.0124  1.2254 -2.5396
  849MOL0     H12007   9.033   4.573   7.958  0.6235 -0.6315  1.6586
  849MOL0     H12008   9.113   4.639   8.099  2.9248 -0.7340  0.8336
  849MOL0     H12009   9.322   4.564   8.054 -0.3307 -2.5376  2.7564
  849MOL0     H12010   9.295   4.539   7.881 -1.9296  1.0247 -0.2648
  849MOL0     H12011   9.161   4.361   8.109 -2.4763 -0.8145 -1.2910
  849MOL0     H12012   9.113   4.362   7.950 -0.6113 -4.8730  1.9743
  849MOL0     H12013   9.339   4.275   7.874 -2.6038 -3.1803 -0.6029
  849MOL0     H12014   9.265   4.173   7.987 -1.0055  0.6138 -2.4297
  849MOL0     H12015   9.457   4.391   8.065  0.3781  1.0413  0.5644
  849MOL0     H12016   9.509   4.228   8.022 -0.8146  0.0565 -0.4773
  849MOL0     H12017   9.327   4.296   8.250  0.2286  0.8792 -1.3665
  849MOL0     H12018   9.360   4.122   8.193  0.1558  0.0446 -0.4618
  849MOL0     H12019   9.599   4.160   8.232 -0.3257  2.1751 -0.7229
  849MOL0     H12020   9.496   4.141   8.371  0.2652 -1.6618 -0.2472
  849MOL0     H12021   9.626   4.454   8.171 -1.3827 -1.0925  0.6418
  849MOL0     H12022   9.775   4.709   8.397 -2.8161 -2.6918  2.1745
  849MOL0     H12023   9.732   4.672   8.228  1.4237 -1.5555 -1.0430
  849MOL0     H12024   9.963   4.667   8.218  0.4290 -0.1438  0.1249
  849MOL0     H12025   9.908   4.499   8.203  0.0637  0.7635 -1.3842
  849MOL0     H12026   9.983   4.441   8.441  1.0051 -0.2581  0.2459
  849MOL0     H12027  10.098   4.487   8.338 -0.4053  0.5158 -1.2303
  849MOL0     H12028  10.006   4.737   8.460  1.9804  1.3424 -1.6622
  849MOL0     H12029  10.165   4.685   8.448  0.2103  1.1044  1.8121
  849MOL0     H12030  10.313   4.514   8.554 -0.2746 -0.4857 -1.6433
  849MOL0     H12031  10.367   4.259   8.606  0.1334  0.1930  0.6466
  849MOL0     H12032  10.358   3.839   8.512 -0.2536 -0.0793 -0.0824
  849MOL0     H12033  10.414   3.604   8.573  0.4283 -1.1632  2.3380
  849MOL0     H12034  10.365   3.494   8.945 -0.5789  0.6628 -0.2652
  849MOL0     H12035  10.541   3.482   8.984  0.3718 -2.0406 -0.1317
  849MOL0     H12036  10.473   3.251   8.963 -0.8742 -0.6912  0.1114
  849MOL0     H12037  10.545   3.280   8.809  1.0589  3.6170 -1.0414
  849MOL0     H12038  10.241   3.309   8.858  2.5915  0.8883  3.5999
  849MOL0     H12039  10.320   3.164   8.783  2.3879  0.1336 -0.6525
  849MOL0     H12040  10.295   3.434   8.655  3.5622  0.5047 -0.9154
  849MOL0     H12041  10.396   3.297   8.603  1.0692  0.1712  0.2271
  849MOL0     H12042  10.173   3.299   8.487  2.0283  0.9312  0.5067
  849MOL0     H12043  10.102   3.301   8.646  1.9492  0.4182  2.3530
  849MOL0     H12044  10.160   3.060   8.688  2.2550  0.7632  0.4943
  849MOL0     H12045  10.281   3.069   8.556  0.3304 -3.2216  0.4895
  849MOL0     H12046   9.966   3.105   8.512 -0.7205 -0.8818  1.5406
  849MOL0     H12047  10.087   3.082   8.388  0.3587  3.5138  0.3094
  849MOL0     H12048  10.101   2.862   8.593 -1.4955  0.4737  0.7688
  849MOL0     H12049  10.091   2.868   8.411  0.6029 -0.6080 -0.0596
  849MOL0     H12050  10.491   3.720   8.980 -0.6492 -2.9667 -1.0629
  849MOL0     H12051  10.403   3.961   8.911 -0.3469  1.6928 -1.8696
  849MOL0     H12052   9.986   4.211   8.786  0.3429 -0.8570 -1.6594
  849MOL0     H12053   9.928   4.445   8.724  0.6067 -0.6473  2.1014
  849MOL0     H12054   9.001   4.820   8.173  0.2334 -0.1131 -1.0382
  849MOL0     H12055   8.918   5.010   8.312 -0.0486  2.1370 -1.2095
  849MOL0     H12056   8.944   5.471   8.300 -0.3237 -1.0704 -0.6660
  849MOL0     H12057   8.903   5.703   8.383 -3.4613 -3.4892  0.0152
  849MOL0     H12058   8.846   5.865   8.747  2.2044  1.3048 -1.0409
  849MOL0     H12059   8.793   5.737   8.653 -0.2168 -0.7272  1.9393
  849MOL0     H12060   8.854   6.014   8.532 -2.0718  0.4437 -3.4678
  849MOL0     H12061   8.811   5.877   8.452  0.9507  0.2986  0.1802
  849MOL0     H12062   8.597   5.889   8.636  0.9882 -2.2439 -0.8215
  849MOL0     H12063   8.588   5.972   8.482  0.5467 -2.6733  0.3333
  849MOL0     H12064   8.736   6.110   8.721  0.2845 -3.1833 -0.6988
  849MOL0     H12065   8.665   6.186   8.576 -1.1538 -0.5258  0.0675
  849MOL0     H12066   8.326   6.156   8.835 -0.3245  0.1974 -0.5884
  849MOL0     H12067   9.191   5.643   8.703 -2.4950 -0.8101  1.5167
  849MOL0     H12068   9.226   5.411   8.614  0.3435 -1.9390 -2.6849
  850MOL0     O12069   0.297   9.737   9.179 -0.0070 -0.0368  0.4025
  850MOL0     C12070   0.303   9.850   9.132 -0.2933 -0.3809 -0.2717
  850MOL0     O12071   0.395   9.951   9.169 -0.4546  0.0263  1.2084
  850MOL0     C12072   0.488   9.942   9.255  0.0884  0.1100 -0.6225
  850MOL0     C12073   0.491   9.834   9.347  0.2586  0.6131  0.0749
  850MOL0     C12074   0.607   9.818   9.417  0.1423 -1.2687 -0.6940
  850MOL0     C12075   0.719   9.907   9.416 -0.4242  0.9742  0.2351
  850MOL0     O12076   0.825   9.879   9.500 -0.0591  0.2452  0.0688
  850MOL0     C12077   0.959   9.923   9.475 -0.2155  0.0291  0.0817
  850MOL0     C12078   1.043   9.823   9.387 -0.0600  0.6093  0.3103
  850MOL0     C12079   1.162   9.904   9.344 -0.0890 -0.2691  0.1995
  850MOL0     C12080   1.152   9.980   9.211  0.2142 -0.4966 -0.2795
  850MOL0     C12081   1.181   9.877   9.103 -0.1474  0.1630 -0.2893
  850MOL0     C12082   1.084   9.890   8.984 -0.0957 -0.7515  0.6003
  850MOL0     C12083   1.086  10.027   8.919 -0.6248  0.3532 -0.8077
  850MOL0     C12084   0.978  10.037   8.809  0.4297 -0.3082 -0.2548
  850MOL0     N12085   0.840  10.013   8.849 -0.2230  0.6096  0.5986
  850MOL0     C12086   0.779   9.887   8.839  0.0547 -0.9543  0.7064
  850MOL0     C12087   0.647   9.914   8.873  0.6696 -0.8060  0.3745
  850MOL0     C12088   0.528   9.820   8.886 -1.0239  0.1482 -0.9356
  850MOL0     C12089   0.488   9.787   8.742  0.1167  0.4337  0.5386
  850MOL0     C12090   0.561   9.662   8.700 -0.1796 -0.2363 -0.0872
  850MOL0     C12091   0.525   9.637   8.561  0.5124 -0.2131 -0.7217
  850MOL0     O12092   0.537   9.764   8.479  0.3532 -0.6144  0.1243
  850MOL0     C12093   0.462   9.769   8.356 -0.1307  0.2684 -0.3045
  850MOL0     C12094   0.453   9.891   8.283  0.7619 -0.1232 -0.4883
  850MOL0     C12095   0.389   9.897   8.154 -0.4983 -0.5454 -0.5490
  850MOL0     C12096   0.328   9.779   8.099  0.2685 -0.1237 -0.5788
  850MOL0     C12097   0.240   9.787   7.977  0.5237 -0.3095  0.7914
  850MOL0     O12098   0.169   9.688   7.938  0.2830  1.6951  0.4299
  850MOL0     C12099   0.048   9.718   7.868  0.2443  0.3953 -0.2763
  850MOL0     C12100   0.035   9.779   7.741 -0.5993 -0.3646 -0.2136
  850MOL0     C12101  -0.088   9.799   7.687 -0.0882  0.6043  0.5271
  850MOL0     C12102  -0.205   9.763   7.756  0.4926  0.3341  0.4943
  850MOL0     O12103  -0.333   9.796   7.708  0.2577  0.5860 -0.1808
  850MOL0     C12104  -0.361   9.701   7.601 -1.1638 -0.3615 -0.4334
  850MOL0     C12105  -0.515   9.694   7.597 -0.0826  0.9991  0.0599
  850MOL0     C12106  -0.552   9.562   7.518 -0.9777 -0.5305 -0.2316
  850MOL0     C12107  -0.655   9.602   7.410 -0.5477  0.0158 -0.5950
  850MOL0     C12108  -0.654   9.502   7.296 -0.2242  0.4012 -0.0311
  850MOL0     C12109  -0.751   9.541   7.188 -0.6935 -0.1861  0.2472
  850MOL0     C12110  -0.761   9.422   7.092  0.1659 -0.3429 -0.1836
  850MOL0     C12111  -0.892   9.428   7.014 -0.9455  0.7617 -0.6440
  850MOL0    Cl12112  -0.890   9.294   6.907  0.2869  0.1817  0.1713
  850MOL0     C12113  -0.190   9.694   7.876 -0.2942 -0.9296 -0.5573
  850MOL0     C12114  -0.064   9.672   7.938 -0.6964  0.6359  0.0078
  850MOL0     O12115   0.242   9.896   7.916 -0.1636  0.3457  0.3079
  850MOL0     C12116   0.347   9.658   8.164 -1.3205 -0.7003  0.5781
  850MOL0     C12117   0.406   9.648   8.291  0.4386 -0.2836 -0.1855
  850MOL0     N12118   0.634  10.047   8.895  0.1243 -0.3718  0.0210
  850MOL0     N12119   0.755  10.104   8.898 -0.0583 -0.4226 -0.0300
  850MOL0     C12120   0.712  10.013   9.326 -0.2189  0.6370 -0.0436
  850MOL0     C12121   0.600  10.026   9.242 -0.1819 -0.2456  0.1716
  850MOL0     C12122   0.196   9.895   9.036  0.0952  0.0446 -1.3674
  850MOL0     C12123   0.119   9.799   8.973 -0.8769 -0.2337  0.2066
  850MOL0     C12124   0.017   9.849   8.896 -0.6016  0.2264  0.4995
  850MOL0     C12125  -0.016   9.985   8.881 -0.5794 -0.6511  0.2743
  850MOL0     O12126  -0.123  10.023   8.805  0.1030  0.2144 -0.2621
  850MOL0     C12127  -0.227  10.096   8.871 -0.3419 -0.5378 -0.9247
  850MOL0     C12128  -0.278  10.042   9.009  0.4262 -1.1092 -0.1183
  850MOL0     C12129  -0.322   9.900   9.014 -0.3583 -0.8693  0.1094
  850MOL0     C12130  -0.434   9.873   8.900 -1.4251  0.0585 -0.0520
  850MOL0     C12131  -0.511   9.755   8.934  0.5658  0.1753  0.8033
  850MOL0     C12132  -0.583   9.668   8.964 -0.3836 -0.1648 -0.0024
  850MOL0     C12133   0.065  10.081   8.945  1.0175  1.1189 -0.5631
  850MOL0     C12134   0.172  10.033   9.021  0.1949 -0.3645  1.0504
  850MOL0     H12135   0.409   9.768   9.372  0.0229  1.1534  0.7719
  850MOL0     H12136   0.610   9.739   9.492 -1.9640  3.5705  5.3276
  850MOL0     H12137   1.011   9.933   9.570  0.1947 -0.5070 -0.0780
  850MOL0     H12138   0.975  10.021   9.429 -2.7710  0.8375  0.7728
  850MOL0     H12139   0.990   9.790   9.297  3.0581  1.6587 -2.1373
  850MOL0     H12140   1.060   9.736   9.451  1.0927 -0.7786 -1.7238
  850MOL0     H12141   1.241   9.828   9.348 -2.4328 -2.9912 -1.3851
  850MOL0     H12142   1.184   9.981   9.419 -0.6763 -0.8295  0.9578
  850MOL0     H12143   1.059  10.037   9.197 -0.0993 -0.6083  1.1923
  850MOL0     H12144   1.233  10.052   9.204 -2.0906  2.4149  0.6905
  850MOL0     H12145   1.180   9.775   9.141 -0.6054 -2.4372 -6.2692
  850MOL0     H12146   1.281   9.900   9.064 -1.1493  2.6352 -1.6324
  850MOL0     H12147   0.980   9.873   9.015 -0.1667  1.2701  1.6487
  850MOL0     H12148   1.117   9.812   8.916  2.4842  0.0428  0.8300
  850MOL0     H12149   1.060  10.109   8.986  0.9589  1.8523 -1.9472
  850MOL0     H12150   1.186  10.046   8.879 -0.0759  0.2651  0.4894
  850MOL0     H12151   0.993   9.956   8.737 -2.1173  0.2321 -1.5364
  850MOL0     H12152   0.998  10.130   8.755  1.9811  0.3578  1.3804
  850MOL0     H12153   0.816   9.787   8.822 -1.0353 -1.1829 -0.5139
  850MOL0     H12154   0.432   9.864   8.915 -2.5787 -2.0538 -2.3942
  850MOL0     H12155   0.559   9.735   8.949  0.4923  2.3953  1.5650
  850MOL0     H12156   0.521   9.876   8.688  1.4660  1.6231  3.0851
  850MOL0     H12157   0.380   9.782   8.728  0.4173 -0.3508 -1.8897
  850MOL0     H12158   0.669   9.678   8.689  0.1397 -1.7965  0.4002
  850MOL0     H12159   0.537   9.594   8.782 -1.6318  1.4648  0.9467
  850MOL0     H12160   0.418   9.617   8.547 -0.5648  2.7731  1.8553
  850MOL0     H12161   0.587   9.563   8.510  0.2023 -1.3018  0.4328
  850MOL0     H12162   0.486   9.980   8.337 -0.2718  0.5817 -0.9650
  850MOL0     H12163   0.369   9.991   8.102 -4.5616 -1.7452 -1.5349
  850MOL0     H12164   0.132   9.803   7.700 -0.0678 -1.5867  0.2594
  850MOL0     H12165  -0.089   9.839   7.587 -0.4268 -5.4360 -2.3525
  850MOL0     H12166  -0.315   9.604   7.620  1.7702  0.7078 -1.5407
  850MOL0     H12167  -0.332   9.736   7.502 -6.7369  1.9081 -1.6719
  850MOL0     H12168  -0.547   9.777   7.533 -2.4612  2.5890  3.0521
  850MOL0     H12169  -0.562   9.703   7.696 -0.5661 -3.2074  0.3873
  850MOL0     H12170  -0.595   9.489   7.588  0.4463  0.0858  1.3510
  850MOL0     H12171  -0.463   9.511   7.482  1.3324  1.7211  1.8833
  850MOL0     H12172  -0.750   9.615   7.463  2.1379  2.2041  4.2454
  850MOL0     H12173  -0.628   9.700   7.370  0.4273 -0.3888 -0.9515
  850MOL0     H12174  -0.673   9.401   7.333 -2.4859  0.7231 -0.1780
  850MOL0     H12175  -0.553   9.508   7.255  0.6819 -1.8562  1.6886
  850MOL0     H12176  -0.728   9.638   7.143  1.4194  0.3173  2.2557
  850MOL0     H12177  -0.844   9.567   7.239  0.4128  1.7635  1.4233
  850MOL0     H12178  -0.684   9.420   7.014  2.0252 -1.2490  1.5810
  850MOL0     H12179  -0.761   9.327   7.146  2.2892 -1.8215 -2.5164
  850MOL0     H12180  -0.882   9.526   6.965  6.2143  1.2934  0.8512
  850MOL0     H12181  -0.974   9.412   7.085 -2.4615 -0.7342 -2.6337
  850MOL0     H12182  -0.283   9.665   7.924 -0.3589 -1.3919 -0.9625
  850MOL0     H12183  -0.044   9.612   8.026 -0.8941 -1.7421 -1.4796
  850MOL0     H12184   0.317   9.561   8.126 -1.3757 -1.5556  2.6876
  850MOL0     H12185   0.405   9.546   8.328  0.2033 -0.2929 -0.2156
  850MOL0     H12186   0.789  10.089   9.324 -2.9101  3.5411 -1.2201
  850MOL0     H12187   0.598  10.097   9.159  0.2668  2.2860  2.2021
  850MOL0     H12188   0.141   9.693   8.979 -0.5562 -0.1521  0.4620
  850MOL0     H12189  -0.054   9.790   8.838  0.4915  0.8370 -1.5508
  850MOL0     H12190  -0.309  10.103   8.798 -0.9114 -1.2470 -0.3717
  850MOL0     H12191  -0.192  10.196   8.896 -1.0849 -0.6305  0.5943
  850MOL0     H12192  -0.208  10.068   9.089 -0.4892  1.8417 -0.1562
  850MOL0     H12193  -0.369  10.100   9.024  0.8721 -0.6334  0.8161
  850MOL0     H12194  -0.361   9.883   9.115 -1.7729  0.7516 -0.1050
  850MOL0     H12195  -0.233   9.839   8.997  0.2222 -0.1196  0.3706
  850MOL0     H12196  -0.496   9.962   8.887 -0.1719  0.6831 -2.3608
  850MOL0     H12197  -0.388   9.854   8.803 -3.5781  1.5575 -1.4604
  850MOL0     H12198  -0.654   9.592   8.988  0.7006 -1.8412 -1.8712
  850MOL0     H12199   0.029  10.183   8.945 -1.3787  0.3394 -1.7265
  850MOL0     H12200   0.237  10.102   9.074  1.7759  0.3735 -1.6090
  851MOL0     O12201   7.338   0.544   1.422 -0.0539  0.0562  0.5752
  851MOL0     C12202   7.281   0.435   1.418 -1.0666 -1.4925 -0.8736
  851MOL0     O12203   7.267   0.368   1.309 -0.1409  0.5372 -1.0232
  851MOL0     C12204   7.303   0.428   1.187  0.4231 -0.2047 -0.1197
  851MOL0     C12205   7.254   0.545   1.140 -0.6481 -0.6708 -0.3871
  851MOL0     C12206   7.292   0.600   1.016 -0.0177  0.5463 -0.5906
  851MOL0     C12207   7.387   0.539   0.942  0.1446  1.2720 -0.2755
  851MOL0     O12208   7.422   0.577   0.816 -0.5708 -0.0028  0.5792
  851MOL0     C12209   7.408   0.707   0.772  1.0831 -0.2549  0.4424
  851MOL0     C12210   7.513   0.801   0.845  0.0307 -0.4828 -0.2880
  851MOL0     C12211   7.533   0.933   0.772  0.6893  0.3483  0.1006
  851MOL0     C12212   7.392   1.001   0.771  0.9571 -0.4809  0.4965
  851MOL0     C12213   7.393   1.156   0.773 -0.8421 -0.0470 -0.0783
  851MOL0     C12214   7.275   1.226   0.705 -0.1646  0.2871  0.5644
  851MOL0     C12215   7.293   1.374   0.727  0.0696  0.7952 -0.5440
  851MOL0     C12216   7.162   1.455   0.701  0.3121  0.2407 -0.6503
  851MOL0     N12217   7.180   1.597   0.725 -0.1398 -0.1168  0.3958
  851MOL0     C12218   7.212   1.691   0.626  0.6920 -0.3346 -0.7050
  851MOL0     C12219   7.224   1.809   0.698 -0.1621  0.0109  1.5460
  851MOL0     C12220   7.239   1.948   0.634 -0.3841 -0.2200 -0.5977
  851MOL0     C12221   7.228   2.052   0.742  0.9294  0.1278 -0.0687
  851MOL0     C12222   7.259   2.191   0.687 -0.0250 -1.0348 -0.0018
  851MOL0     C12223   7.127   2.244   0.620  0.3942  0.2935  0.4940
  851MOL0     O12224   7.028   2.282   0.714 -0.8304 -0.6019 -0.0892
  851MOL0     C12225   7.017   2.417   0.753  0.3840 -0.0843 -1.5088
  851MOL0     C12226   6.891   2.456   0.801  0.2574 -0.3616 -0.9072
  851MOL0     C12227   6.869   2.591   0.831 -0.6026  0.3242  0.4001
  851MOL0     C12228   6.983   2.675   0.833  0.0186  0.1151 -0.9156
  851MOL0     C12229   6.978   2.814   0.880  0.4936 -0.1596 -0.4288
  851MOL0     O12230   7.093   2.889   0.877  0.2165 -0.0822  0.0782
  851MOL0     C12231   7.109   3.017   0.926 -0.7110  0.4644  0.6782
  851MOL0     C12232   7.014   3.129   0.923 -0.5661  0.8016 -0.1566
  851MOL0     C12233   7.057   3.255   0.978  0.3893 -0.0853  0.8852
  851MOL0     C12234   7.187   3.265   1.030 -1.1998  0.2609 -0.3444
  851MOL0     O12235   7.247   3.374   1.081  1.1058  0.4807  0.2099
  851MOL0     C12236   7.178   3.504   1.099  0.4104  0.2953  1.0031
  851MOL0     C12237   7.296   3.593   1.136  0.1950  0.0795  0.5776
  851MOL0     C12238   7.257   3.740   1.124 -0.1250  0.1544  0.1713
  851MOL0     C12239   7.165   3.792   1.229  0.0484 -0.5651 -0.4233
  851MOL0     C12240   7.243   3.789   1.365 -0.1609  0.2682 -0.0797
  851MOL0     C12241   7.156   3.849   1.479  0.2376  0.5066 -1.4471
  851MOL0     C12242   7.219   3.818   1.614 -0.2799  0.5746  1.0952
  851MOL0     C12243   7.333   3.914   1.643 -0.2449 -0.5287 -0.0544
  851MOL0    Cl12244   7.295   4.084   1.662  0.1476  0.0059  0.2088
  851MOL0     C12245   7.278   3.158   1.027  0.0255  1.2956  0.4028
  851MOL0     C12246   7.230   3.027   0.985 -0.8871 -0.3767 -0.3098
  851MOL0     O12247   6.867   2.855   0.921  0.2700 -0.3194 -0.4787
  851MOL0     C12248   7.109   2.628   0.780 -1.1552  0.6191 -0.2355
  851MOL0     C12249   7.121   2.498   0.747 -0.3089 -0.9212  0.8711
  851MOL0     N12250   7.208   1.777   0.831  0.3660 -0.0160  0.4878
  851MOL0     N12251   7.175   1.655   0.848 -1.0752  0.4497 -0.0961
  851MOL0     C12252   7.442   0.415   0.992  0.3315  0.2447  0.9581
  851MOL0     C12253   7.394   0.362   1.112  0.2353 -0.4574  0.8427
  851MOL0     C12254   7.238   0.378   1.552 -0.7630 -0.1582 -0.0706
  851MOL0     C12255   7.243   0.243   1.570 -0.6114 -0.2993 -0.3103
  851MOL0     C12256   7.197   0.181   1.684  0.0117  0.0722 -0.2854
  851MOL0     C12257   7.173   0.261   1.796  0.1648 -0.6242 -0.6778
  851MOL0     O12258   7.124   0.199   1.906  0.3485 -0.1114  0.1571
  851MOL0     C12259   7.078   0.265   2.027  0.0482  0.3334 -0.1235
  851MOL0     C12260   7.013   0.171   2.123 -0.8306  0.3421  0.1708
  851MOL0     C12261   6.868   0.156   2.084  0.1962  0.5467 -0.5855
  851MOL0     C12262   6.783   0.070   2.179 -0.3194  0.1206  0.3510
  851MOL0     C12263   6.822  -0.073   2.176 -0.1456  0.3025  0.1002
  851MOL0     C12264   6.850  -0.191   2.189  0.2442 -0.8669  0.2753
  851MOL0     C12265   7.181   0.405   1.789  0.9077  0.1537 -0.2661
  851MOL0     C12266   7.208   0.460   1.667  0.0855 -0.1417  0.4137
  851MOL0     H12267   7.173   0.591   1.196 -0.4344 -2.0326  1.1130
  851MOL0     H12268   7.230   0.682   0.981 -1.0865 -0.9147 -2.3188
  851MOL0     H12269   7.310   0.747   0.800  0.8324 -1.3732  1.2633
  851MOL0     H12270   7.413   0.716   0.663 -1.5363  0.0706  0.2875
  851MOL0     H12271   7.608   0.750   0.864  1.3693  1.3241 -1.7972
  851MOL0     H12272   7.469   0.825   0.943 -1.1491  1.4719 -1.2443
  851MOL0     H12273   7.575   0.919   0.671  0.7638  2.5964 -0.2411
  851MOL0     H12274   7.604   0.994   0.828  2.7752 -0.7629 -1.1710
  851MOL0     H12275   7.352   0.983   0.671  0.0641  1.6117  0.4325
  851MOL0     H12276   7.327   0.972   0.854  1.5765  3.3900  2.5676
  851MOL0     H12277   7.486   1.194   0.730 -0.6737 -1.8459 -1.4050
  851MOL0     H12278   7.392   1.181   0.880  2.3344  1.6027 -0.3162
  851MOL0     H12279   7.183   1.188   0.750  1.0671 -0.2319  2.7703
  851MOL0     H12280   7.259   1.206   0.599 -3.4305  2.9260  0.3638
  851MOL0     H12281   7.331   1.382   0.829 -0.5645  1.3712 -0.3449
  851MOL0     H12282   7.373   1.413   0.663 -1.5850  0.7243 -2.7703
  851MOL0     H12283   7.070   1.442   0.759  1.4445 -0.0491  1.1506
  851MOL0     H12284   7.139   1.442   0.594 -0.7091  0.1721 -0.4334
  851MOL0     H12285   7.210   1.673   0.519 -3.1370 -0.9511 -0.6519
  851MOL0     H12286   7.146   1.967   0.580 -0.7262 -0.1453  0.0053
  851MOL0     H12287   7.332   1.953   0.576 -1.6804  0.5165 -2.7273
  851MOL0     H12288   7.301   2.027   0.819  1.0673 -2.8961 -1.0542
  851MOL0     H12289   7.133   2.047   0.795  1.4863 -1.2686  0.8266
  851MOL0     H12290   7.272   2.271   0.761 -1.2872 -3.4701  3.0709
  851MOL0     H12291   7.346   2.197   0.620 -1.3694  2.0776 -1.6622
  851MOL0     H12292   7.086   2.170   0.550  2.0718 -1.5659  1.3764
  851MOL0     H12293   7.141   2.329   0.553 -0.5261  1.4763  1.7398
  851MOL0     H12294   6.809   2.385   0.800  0.8645 -1.2164  1.8284
  851MOL0     H12295   6.768   2.618   0.860 -1.4097 -3.5292  1.7689
  851MOL0     H12296   6.910   3.111   0.897 -0.5912 -2.6868  1.7454
  851MOL0     H12297   6.986   3.337   0.978 -1.4126 -1.5186  3.2006
  851MOL0     H12298   7.090   3.500   1.163 -2.7205 -0.1714 -2.9831
  851MOL0     H12299   7.134   3.539   1.006  1.2340  0.3014  0.6054
  851MOL0     H12300   7.372   3.574   1.060  0.8811  1.2051  0.9606
  851MOL0     H12301   7.339   3.562   1.232  4.3674 -0.8658 -1.3666
  851MOL0     H12302   7.200   3.747   1.032 -0.4733  3.0663  0.5209
  851MOL0     H12303   7.349   3.798   1.109 -0.6630  0.9257 -0.1734
  851MOL0     H12304   7.141   3.896   1.205 -1.8679 -1.3866 -2.4608
  851MOL0     H12305   7.069   3.741   1.241 -0.8967  0.8667 -1.5885
  851MOL0     H12306   7.345   3.827   1.367 -0.7472  1.9631  1.6645
  851MOL0     H12307   7.252   3.691   1.412  0.2082 -0.1050 -0.9189
  851MOL0     H12308   7.060   3.797   1.467  1.3177 -1.5927 -1.4113
  851MOL0     H12309   7.120   3.952   1.477  2.2263  1.3937  1.5721
  851MOL0     H12310   7.149   3.847   1.693 -1.4448  4.2115 -1.0001
  851MOL0     H12311   7.247   3.713   1.625 -1.3241  0.2775  1.0663
  851MOL0     H12312   7.416   3.912   1.572  1.9086 -0.5670  2.2882
  851MOL0     H12313   7.374   3.884   1.740  0.9460 -1.5741 -0.8557
  851MOL0     H12314   7.381   3.178   1.054 -0.5250  4.3323  0.6136
  851MOL0     H12315   7.300   2.944   0.990 -0.2993  0.1523  3.2391
  851MOL0     H12316   7.189   2.702   0.782 -2.0796  1.9890 -4.0056
  851MOL0     H12317   7.212   2.467   0.697 -0.2277 -0.0889  0.4765
  851MOL0     H12318   7.500   0.341   0.937  0.4298 -0.3317  1.8109
  851MOL0     H12319   7.427   0.261   1.132  2.8984 -0.3632 -2.1343
  851MOL0     H12320   7.290   0.188   1.489  2.1375 -0.2650  1.1377
  851MOL0     H12321   7.203   0.075   1.707 -0.5371  0.6385  3.0439
  851MOL0     H12322   7.018   0.349   1.990 -1.2704  0.3641  1.9523
  851MOL0     H12323   7.164   0.296   2.088  1.3318 -0.7493 -1.3089
  851MOL0     H12324   7.068   0.076   2.126 -1.6855 -0.3319 -2.5807
  851MOL0     H12325   7.028   0.213   2.223  2.5110  0.7770 -0.3878
  851MOL0     H12326   6.858   0.127   1.979 -1.8487  1.4544 -0.6876
  851MOL0     H12327   6.818   0.253   2.084  0.4939  0.7114  0.4363
  851MOL0     H12328   6.780   0.101   2.285 -2.9346 -1.9817  1.0108
  851MOL0     H12329   6.681   0.082   2.141 -0.0559  1.5070  0.0006
  851MOL0     H12330   6.843  -0.295   2.216 -0.7633 -1.0846 -0.7162
  851MOL0     H12331   7.148   0.460   1.877  0.3598 -1.6376  0.6991
  851MOL0     H12332   7.203   0.568   1.655  1.7801  0.1676  1.9685
  852MOL0     O12333   9.434   6.665   1.636  0.6198 -0.0508  0.1704
  852MOL0     C12334   9.475   6.759   1.568  0.0303 -0.0889 -0.6673
  852MOL0     O12335   9.604   6.779   1.528  0.5640 -0.4016 -0.7044
  852MOL0     C12336   9.691   6.673   1.537  0.4127 -0.8323 -1.0190
  852MOL0     C12337   9.771   6.642   1.653 -0.3977 -0.7955 -0.6224
  852MOL0     C12338   9.830   6.514   1.658 -0.8767  0.0580  0.0331
  852MOL0     C12339   9.834   6.429   1.540  0.3427 -0.6110  0.6229
  852MOL0     O12340   9.882   6.301   1.542  0.3973 -0.2891  0.4742
  852MOL0     C12341   9.791   6.204   1.580  0.2596  0.1177 -1.0034
  852MOL0     C12342   9.747   6.194   1.733  0.4682 -0.8566  0.3494
  852MOL0     C12343   9.661   6.071   1.752  0.5120  0.0512  0.5620
  852MOL0     C12344   9.636   6.056   1.904 -1.2217  0.2267  0.6352
  852MOL0     C12345   9.514   5.958   1.918  0.2585 -0.4014  0.5064
  852MOL0     C12346   9.562   5.815   1.870  0.9308 -0.0077 -0.2152
  852MOL0     C12347   9.436   5.726   1.883  0.7126 -0.3904  0.3487
  852MOL0     C12348   9.471   5.573   1.876  0.1430  0.2640  0.4549
  852MOL0     N12349   9.355   5.493   1.871  0.7528 -0.2939 -0.5313
  852MOL0     C12350   9.290   5.422   1.768  0.6605  0.2099  0.0608
  852MOL0     C12351   9.190   5.363   1.823 -0.4864 -0.0784 -0.0324
  852MOL0     C12352   9.079   5.297   1.747 -0.9363  0.3366 -0.4972
  852MOL0     C12353   8.964   5.233   1.835 -1.1848  0.0308  0.3913
  852MOL0     C12354   8.864   5.158   1.741 -0.2498 -0.3937 -0.4268
  852MOL0     C12355   8.770   5.047   1.809 -0.2898  1.0434 -0.3106
  852MOL0     O12356   8.628   5.055   1.788  0.8557 -0.5575 -0.4086
  852MOL0     C12357   8.563   5.180   1.775 -0.9270 -0.8648 -0.1681
  852MOL0     C12358   8.567   5.281   1.874  0.0637 -0.1033 -1.3319
  852MOL0     C12359   8.510   5.410   1.867 -0.0030  0.2131  1.5017
  852MOL0     C12360   8.434   5.438   1.753  0.3044 -0.2124 -0.0727
  852MOL0     C12361   8.361   5.566   1.748 -1.3486  0.6333 -0.9379
  852MOL0     O12362   8.394   5.654   1.847 -0.1316 -0.9934  0.0341
  852MOL0     C12363   8.357   5.785   1.852  0.6427  0.3494 -0.0671
  852MOL0     C12364   8.259   5.844   1.773  0.2669  0.5465  0.0395
  852MOL0     C12365   8.213   5.968   1.797  0.2721 -0.5125 -0.0476
  852MOL0     C12366   8.274   6.055   1.893  0.2217 -0.4025  0.1764
  852MOL0     O12367   8.223   6.167   1.951 -0.1450  0.3388  0.1645
  852MOL0     C12368   8.082   6.193   1.944 -0.3596 -0.3508  0.0573
  852MOL0     C12369   7.980   6.106   2.030 -0.3440  1.1592 -0.1368
  852MOL0     C12370   7.835   6.148   2.021  0.2267  0.1286  0.2211
  852MOL0     C12371   7.747   6.046   2.086  0.5825 -0.5616  0.1362
  852MOL0     C12372   7.596   6.088   2.088 -0.4133 -1.0114 -0.7444
  852MOL0     C12373   7.533   6.021   2.213 -0.4097  0.3064 -0.3704
  852MOL0     C12374   7.387   6.052   2.250  0.6131 -0.7334  0.3654
  852MOL0     C12375   7.324   5.949   2.345  0.2497 -0.9490  0.3123
  852MOL0    Cl12376   7.153   5.984   2.401 -0.1478 -0.0838  0.3374
  852MOL0     C12377   8.389   6.003   1.960 -0.6782  0.2357  1.0437
  852MOL0     C12378   8.425   5.869   1.936 -1.0394 -0.4776  0.5600
  852MOL0     O12379   8.298   5.593   1.649  0.5669  0.4598  0.2656
  852MOL0     C12380   8.428   5.341   1.649  0.1491  0.9652  0.1878
  852MOL0     C12381   8.479   5.214   1.663  0.0675  0.5549  0.2483
  852MOL0     N12382   9.186   5.390   1.957  0.2914 -0.3711  0.0835
  852MOL0     N12383   9.289   5.469   1.987  0.3926  0.5368 -0.2526
  852MOL0     C12384   9.779   6.483   1.422 -1.1927  0.5295  0.4464
  852MOL0     C12385   9.700   6.599   1.420 -0.3856 -0.0929  0.1566
  852MOL0     C12386   9.375   6.868   1.551  0.2847 -0.2632 -0.5604
  852MOL0     C12387   9.413   6.991   1.485  0.0218 -0.5621 -0.3972
  852MOL0     C12388   9.327   7.105   1.475  0.1744  0.1465  0.4540
  852MOL0     C12389   9.191   7.090   1.508  0.9924  1.0569 -0.5513
  852MOL0     O12390   9.099   7.190   1.502  0.7635 -0.5201 -0.3817
  852MOL0     C12391   9.105   7.317   1.430  0.1062  0.2549  0.5517
  852MOL0     C12392   8.959   7.338   1.398  0.7717 -1.1926  0.6900
  852MOL0     C12393   8.917   7.447   1.286 -0.0451  0.4810  0.3836
  852MOL0     C12394   8.975   7.590   1.305  0.1142 -0.2847 -0.0749
  852MOL0     C12395   8.905   7.660   1.416 -0.8108  0.8177 -0.6244
  852MOL0     C12396   8.821   7.711   1.483  0.1013  0.1417 -0.4540
  852MOL0     C12397   9.143   6.965   1.565 -0.8749  0.2634 -0.3104
  852MOL0     C12398   9.239   6.859   1.585  1.1417  0.5518  0.6664
  852MOL0     H12399   9.752   6.704   1.741 -0.7988 -0.6800 -0.7870
  852MOL0     H12400   9.878   6.483   1.750 -1.0784  2.9309  1.2112
  852MOL0     H12401   9.843   6.112   1.554  1.6166  0.9158 -1.2406
  852MOL0     H12402   9.707   6.208   1.511 -0.8025 -1.9534  0.1015
  852MOL0     H12403   9.693   6.282   1.769  2.1561 -0.3014  1.6604
  852MOL0     H12404   9.840   6.192   1.792  0.9116 -1.8956 -0.3441
  852MOL0     H12405   9.712   5.986   1.704  0.7709  0.7136 -0.3762
  852MOL0     H12406   9.578   6.102   1.688  2.1615 -1.5939 -2.6326
  852MOL0     H12407   9.719   6.014   1.961 -1.8692 -1.5275  0.3286
  852MOL0     H12408   9.604   6.157   1.934 -0.9358  0.7532 -0.7663
  852MOL0     H12409   9.430   5.990   1.857  0.7182 -0.1159  0.0192
  852MOL0     H12410   9.499   5.955   2.027  3.9728 -3.2461  1.1681
  852MOL0     H12411   9.631   5.763   1.938  2.5291 -0.6842 -2.2478
  852MOL0     H12412   9.594   5.815   1.766 -1.0939  2.7634 -0.9506
  852MOL0     H12413   9.369   5.746   1.967 -3.6998 -2.1369 -2.4229
  852MOL0     H12414   9.373   5.746   1.796  0.0208  0.6341  1.0695
  852MOL0     H12415   9.526   5.543   1.966  0.2916  1.1355  0.6582
  852MOL0     H12416   9.523   5.553   1.782 -0.2950 -1.5562  0.5617
  852MOL0     H12417   9.306   5.429   1.661  1.0027  0.8387  0.1474
  852MOL0     H12418   9.137   5.216   1.702  0.7879  1.1107  0.2483
  852MOL0     H12419   9.053   5.366   1.665  0.8048 -1.3850 -2.6522
  852MOL0     H12420   8.909   5.294   1.907 -2.0780 -1.6387  1.2069
  852MOL0     H12421   9.020   5.166   1.901 -0.4291  0.6317  0.3629
  852MOL0     H12422   8.796   5.235   1.702 -3.1653 -1.3097  2.3661
  852MOL0     H12423   8.914   5.111   1.656  0.8022  0.8887 -0.5438
  852MOL0     H12424   8.785   5.054   1.917 -2.1564 -1.0841  0.1655
  852MOL0     H12425   8.796   4.944   1.782 -2.8014 -0.4455  2.3197
  852MOL0     H12426   8.619   5.259   1.967 -1.3817  2.7497  0.3010
  852MOL0     H12427   8.538   5.478   1.946 -0.6721  0.7284  1.3023
  852MOL0     H12428   8.195   5.776   1.716  0.9551 -2.9277  3.0014
  852MOL0     H12429   8.119   6.001   1.754  1.1656  4.0524  1.0199
  852MOL0     H12430   8.060   6.195   1.836 -0.6243 -1.8139  0.0608
  852MOL0     H12431   8.074   6.297   1.976  3.9274  0.1624  0.0642
  852MOL0     H12432   8.011   6.103   2.135  0.0828  1.5446 -0.2473
  852MOL0     H12433   7.985   6.004   1.992  0.0677  2.0107 -2.5902
  852MOL0     H12434   7.803   6.157   1.917 -1.5043  2.1317  0.8497
  852MOL0     H12435   7.841   6.248   2.065  2.8254 -0.2990  1.0153
  852MOL0     H12436   7.747   5.951   2.033  2.2570 -0.2279 -0.4981
  852MOL0     H12437   7.788   6.029   2.186 -2.0380 -1.6152  1.1393
  852MOL0     H12438   7.534   6.066   2.001 -0.4458  1.2455 -1.3660
  852MOL0     H12439   7.606   6.197   2.085  1.8785 -0.9237  3.4544
  852MOL0     H12440   7.598   6.048   2.297 -2.3249  3.3154  0.3019
  852MOL0     H12441   7.542   5.913   2.197 -4.0626 -0.0168 -1.0241
  852MOL0     H12442   7.379   6.150   2.298  2.0697  0.2712 -1.3196
  852MOL0     H12443   7.322   6.056   2.162  0.3564 -2.9481  0.3949
  852MOL0     H12444   7.393   5.956   2.429 -1.1423  4.1631  1.3885
  852MOL0     H12445   7.335   5.851   2.297  0.5424 -0.9987  0.4825
  852MOL0     H12446   8.441   6.057   2.038 -1.8564  0.5098  1.6611
  852MOL0     H12447   8.514   5.823   1.978 -0.3162  0.0363 -0.3651
  852MOL0     H12448   8.372   5.371   1.562  2.0784  1.4108 -0.9413
  852MOL0     H12449   8.488   5.150   1.576 -0.9346  1.4860 -0.5575
  852MOL0     H12450   9.763   6.435   1.326 -0.0610  1.4112 -0.2039
  852MOL0     H12451   9.638   6.618   1.332  1.0357  0.5615 -0.7400
  852MOL0     H12452   9.514   7.001   1.448  0.4592  0.9224  1.0437
  852MOL0     H12453   9.360   7.204   1.446 -3.1761  0.8412 -1.4804
  852MOL0     H12454   9.173   7.319   1.345  0.2928  0.2576  0.7001
  852MOL0     H12455   9.147   7.389   1.502  1.6295  0.7800 -0.8075
  852MOL0     H12456   8.908   7.247   1.365 -1.6067 -0.4674  2.1500
  852MOL0     H12457   8.904   7.362   1.489 -1.6490 -0.5342 -0.8422
  852MOL0     H12458   8.808   7.453   1.277 -0.0808  0.2859  0.6782
  852MOL0     H12459   8.952   7.409   1.190 -1.1996  1.8704 -0.6398
  852MOL0     H12460   9.080   7.588   1.334 -0.0868  4.1620  1.6948
  852MOL0     H12461   8.960   7.643   1.210 -0.9218 -0.8556 -0.2490
  852MOL0     H12462   8.747   7.757   1.545  1.5345  1.3377  0.4237
  852MOL0     H12463   9.042   6.952   1.604 -0.8421  1.0675  0.0675
  852MOL0     H12464   9.219   6.767   1.639  4.8530 -1.2857 -0.7782
  853MOL0     O12465   2.045   8.669   6.023 -0.7711  0.3513  1.0774
  853MOL0     C12466   2.129   8.625   6.110 -0.8547  0.3667 -0.6070
  853MOL0     O12467   2.095   8.566   6.219  0.3744 -0.5283 -0.0281
  853MOL0     C12468   1.974   8.510   6.234  0.2201 -0.0046 -0.0159
  853MOL0     C12469   1.908   8.548   6.355 -0.5973  0.3658 -0.6787
  853MOL0     C12470   1.797   8.487   6.408  0.3041  0.2586 -0.1765
  853MOL0     C12471   1.741   8.385   6.324 -0.0418  0.0324  0.3866
  853MOL0     O12472   1.637   8.317   6.363  1.7767  0.2630  0.1839
  853MOL0     C12473   1.516   8.400   6.363 -0.7452  0.2016  0.3715
  853MOL0     C12474   1.381   8.328   6.376 -0.3463 -0.1685  0.5206
  853MOL0     C12475   1.380   8.221   6.497 -0.9596  0.1550  0.2133
  853MOL0     C12476   1.422   8.270   6.633  0.0982 -0.3587  0.2068
  853MOL0     C12477   1.425   8.151   6.729  0.0599  0.8391 -0.3381
  853MOL0     C12478   1.290   8.128   6.794  0.3321 -0.5442  1.6369
  853MOL0     C12479   1.290   8.149   6.944 -0.3224  0.0182 -0.3496
  853MOL0     C12480   1.230   8.275   6.998 -0.0377 -0.6737  0.8990
  853MOL0     N12481   1.203   8.275   7.142 -0.0089  0.2276 -1.0280
  853MOL0     C12482   1.287   8.317   7.244 -0.1898 -0.0908  0.1969
  853MOL0     C12483   1.222   8.293   7.357 -0.2262 -0.3156 -0.6181
  853MOL0     C12484   1.277   8.341   7.483 -0.7853  0.2786 -1.0101
  853MOL0     C12485   1.371   8.242   7.561 -0.4721 -0.4157  0.7677
  853MOL0     C12486   1.459   8.307   7.672  0.5528  0.6098 -0.3750
  853MOL0     C12487   1.594   8.240   7.698  0.8451 -0.1090 -0.6793
  853MOL0     O12488   1.673   8.332   7.773  0.0164 -0.6462 -0.3685
  853MOL0     C12489   1.804   8.307   7.755  0.1251 -0.8231 -0.5060
  853MOL0     C12490   1.878   8.225   7.840 -0.6004 -0.3702  0.3058
  853MOL0     C12491   2.007   8.187   7.814  0.6968  0.0226 -0.7409
  853MOL0     C12492   2.069   8.232   7.696  0.5998 -0.5810  0.4659
  853MOL0     C12493   2.207   8.191   7.676  0.4659  1.1101 -0.1302
  853MOL0     O12494   2.244   8.173   7.546  0.6592 -0.1344  0.6168
  853MOL0     C12495   2.383   8.163   7.525  0.5667  0.1066  0.0668
  853MOL0     C12496   2.452   8.049   7.506  0.0039  0.4351 -0.3624
  853MOL0     C12497   2.592   8.042   7.492  0.6391 -0.4538 -0.0480
  853MOL0     C12498   2.666   8.156   7.507  0.6066  0.0648 -0.1200
  853MOL0     O12499   2.805   8.153   7.509  1.3208  0.2968  0.2367
  853MOL0     C12500   2.859   8.136   7.649  0.2855  0.5978  0.9449
  853MOL0     C12501   3.015   8.156   7.646  0.1055 -0.5922 -0.2559
  853MOL0     C12502   3.096   8.172   7.775 -0.6583  0.5108  0.9818
  853MOL0     C12503   3.218   8.241   7.732 -1.4558 -0.2056 -0.2183
  853MOL0     C12504   3.299   8.289   7.852 -0.4196 -0.8038 -0.8157
  853MOL0     C12505   3.240   8.406   7.931  0.2035  0.5820 -0.1755
  853MOL0     C12506   3.349   8.496   7.993 -0.1232 -0.0354  0.0656
  853MOL0     C12507   3.289   8.602   8.083  0.5972 -0.3316 -0.0680
  853MOL0    Cl12508   3.190   8.509   8.205  0.0709  0.2318 -0.1416
  853MOL0     C12509   2.595   8.276   7.525  0.0633  1.2607 -0.1768
  853MOL0     C12510   2.457   8.279   7.543  0.3299  0.1930  0.0227
  853MOL0     O12511   2.278   8.184   7.781  0.7856 -0.3069  0.2211
  853MOL0     C12512   1.995   8.311   7.600 -0.5126 -0.2046  1.2995
  853MOL0     C12513   1.854   8.351   7.636 -0.1885 -0.0164  0.3808
  853MOL0     N12514   1.106   8.226   7.333 -0.5274  0.0980 -0.5947
  853MOL0     N12515   1.088   8.218   7.204 -0.1832  0.1887  0.5260
  853MOL0     C12516   1.806   8.343   6.201 -0.2551  0.0021 -0.6716
  853MOL0     C12517   1.926   8.403   6.157 -0.0436 -0.4313 -0.3766
  853MOL0     C12518   2.272   8.660   6.092  0.2841  0.9201 -0.5940
  853MOL0     C12519   2.304   8.743   5.980  0.2012  0.0837  0.0317
  853MOL0     C12520   2.441   8.764   5.953  0.2299 -0.4611  1.1244
  853MOL0     C12521   2.541   8.711   6.044  0.5207  1.0439 -0.4930
  853MOL0     O12522   2.669   8.741   6.002  0.5091 -0.7008 -0.1403
  853MOL0     C12523   2.777   8.721   6.088 -0.1311  0.2106  0.2618
  853MOL0     C12524   2.908   8.727   6.005 -0.7788 -0.0634 -0.3609
  853MOL0     C12525   3.023   8.793   6.083  0.2020  0.9963  0.5017
  853MOL0     C12526   3.152   8.792   5.996  0.2359  0.2013  0.1131
  853MOL0     C12527   3.131   8.841   5.860 -0.2415 -0.8221 -0.2842
  853MOL0     C12528   3.123   8.869   5.737 -0.5149 -0.4723 -0.4822
  853MOL0     C12529   2.498   8.654   6.157  0.4669  0.4237  0.6026
  853MOL0     C12530   2.362   8.619   6.184  0.1833  0.2561  0.1857
  853MOL0     H12531   1.962   8.630   6.401  3.9946 -2.3405 -0.7101
  853MOL0     H12532   1.745   8.526   6.495  1.5292  0.8513  0.3179
  853MOL0     H12533   1.505   8.453   6.268  0.5184 -0.1371  0.0138
  853MOL0     H12534   1.527   8.477   6.440 -2.3687  0.0770  0.7545
  853MOL0     H12535   1.348   8.274   6.287 -1.6032  1.2505  0.0966
  853MOL0     H12536   1.304   8.402   6.399  0.4830  0.1970  2.3778
  853MOL0     H12537   1.437   8.133   6.467 -0.0098  1.0181 -0.6047
  853MOL0     H12538   1.275   8.192   6.506 -1.0727 -0.7382 -2.6766
  853MOL0     H12539   1.522   8.311   6.616 -0.0954 -0.7569 -2.4570
  853MOL0     H12540   1.358   8.346   6.677 -1.9725 -1.5338 -0.6197
  853MOL0     H12541   1.502   8.155   6.807 -2.4149 -0.7429  2.4015
  853MOL0     H12542   1.430   8.062   6.667 -2.0879  0.5343 -0.1621
  853MOL0     H12543   1.261   8.026   6.764  4.1610 -1.7416  1.4023
  853MOL0     H12544   1.211   8.187   6.748  2.5686  0.5647 -1.1021
  853MOL0     H12545   1.253   8.063   7.001  1.5112  1.2380  2.9989
  853MOL0     H12546   1.390   8.154   6.989  1.1396  0.5157 -3.4110
  853MOL0     H12547   1.129   8.283   6.957  1.0702 -0.7567 -2.0780
  853MOL0     H12548   1.293   8.361   6.977  1.6276 -2.6823 -3.7915
  853MOL0     H12549   1.384   8.366   7.242 -0.6337  1.0663  2.9348
  853MOL0     H12550   1.190   8.367   7.544 -1.4289  0.1021 -1.8273
  853MOL0     H12551   1.327   8.437   7.467  2.1099 -0.2311  3.4657
  853MOL0     H12552   1.440   8.200   7.488  0.5290 -2.7599  2.9149
  853MOL0     H12553   1.314   8.161   7.609 -1.1476  0.1805  0.9961
  853MOL0     H12554   1.481   8.411   7.646  2.3537  0.4777  0.4369
  853MOL0     H12555   1.402   8.312   7.765  0.0049 -1.8630 -0.5170
  853MOL0     H12556   1.633   8.225   7.597 -0.1976  0.5660 -1.2118
  853MOL0     H12557   1.577   8.137   7.730  1.5244  0.0053  0.0559
  853MOL0     H12558   1.837   8.190   7.934 -1.4290 -1.9788 -0.6062
  853MOL0     H12559   2.055   8.124   7.887 -2.0693 -0.4426  0.7756
  853MOL0     H12560   2.402   7.952   7.504 -1.4951  1.1811 -1.6638
  853MOL0     H12561   2.652   7.952   7.482 -0.1888 -0.8782 -1.4665
  853MOL0     H12562   2.840   8.030   7.669  0.9684  0.2869 -0.0117
  853MOL0     H12563   2.812   8.193   7.730 -0.2209 -3.1364  3.5429
  853MOL0     H12564   3.023   8.250   7.591 -1.7459  2.7061  4.3985
  853MOL0     H12565   3.064   8.083   7.582  1.3726 -0.2287  0.2789
  853MOL0     H12566   3.132   8.079   7.819  1.6959 -0.6988 -2.9921
  853MOL0     H12567   3.034   8.221   7.851 -1.6916  0.3750  0.2535
  853MOL0     H12568   3.273   8.169   7.671 -2.9715 -0.6876 -1.0834
  853MOL0     H12569   3.193   8.317   7.657 -0.4790 -0.6305 -0.9958
  853MOL0     H12570   3.395   8.324   7.812  0.1117 -1.7944 -0.4318
  853MOL0     H12571   3.314   8.208   7.923 -2.5592  3.3826  5.2271
  853MOL0     H12572   3.183   8.357   8.011 -3.2087  0.0232 -2.7167
  853MOL0     H12573   3.174   8.474   7.877 -3.0221  1.2324  4.0526
  853MOL0     H12574   3.402   8.440   8.071 -5.3982 -3.4532  1.8170
  853MOL0     H12575   3.421   8.527   7.917  1.2893  2.1895  2.1623
  853MOL0     H12576   3.224   8.673   8.031 -0.4685 -2.1353 -1.3280
  853MOL0     H12577   3.366   8.658   8.137 -1.1462 -1.8801  4.4182
  853MOL0     H12578   2.648   8.370   7.539  0.1009  1.1442  0.4967
  853MOL0     H12579   2.426   8.382   7.557  1.6575  0.4663  1.2131
  853MOL0     H12580   2.034   8.334   7.501 -0.2957 -0.3233  1.3586
  853MOL0     H12581   1.778   8.404   7.580 -1.4904  0.8661  2.8326
  853MOL0     H12582   1.764   8.256   6.152 -3.3719  0.5665  0.7138
  853MOL0     H12583   1.976   8.373   6.065  0.2177 -0.1988 -0.3148
  853MOL0     H12584   2.224   8.789   5.922  1.5213  1.2299 -0.9212
  853MOL0     H12585   2.466   8.817   5.862 -3.0927 -0.7436 -0.0923
  853MOL0     H12586   2.761   8.621   6.129 -0.6425  0.0813 -0.2433
  853MOL0     H12587   2.773   8.796   6.168  0.6896  4.3418 -3.1792
  853MOL0     H12588   2.939   8.628   5.971  2.2845  0.6766 -0.0419
  853MOL0     H12589   2.897   8.781   5.911  1.1662  0.4969 -0.3173
  853MOL0     H12590   3.048   8.734   6.171  0.4252  0.6883  0.2356
  853MOL0     H12591   3.004   8.898   6.107 -4.4858 -0.3909  4.5743
  853MOL0     H12592   3.247   8.835   6.028  1.5927 -0.7227 -2.3874
  853MOL0     H12593   3.208   8.699   5.987  3.0266  1.9727 -4.7296
  853MOL0     H12594   3.127   8.891   5.632 -4.4149 -1.9674 -1.0717
  853MOL0     H12595   2.563   8.602   6.227  0.5561 -1.8229 -1.0333
  853MOL0     H12596   2.326   8.582   6.279 -2.3599  2.7381  0.3254
  854MOL0     O12597   5.084   8.077   2.336  0.0297 -0.6970 -0.1466
  854MOL0     C12598   5.177   8.012   2.303 -0.8034  0.5512  0.6253
  854MOL0     O12599   5.290   8.063   2.240  0.2278  0.8129  0.5618
  854MOL0     C12600   5.327   7.996   2.125 -0.7931 -0.4350 -0.4844
  854MOL0     C12601   5.238   7.989   2.019 -0.0733 -0.0463 -0.0622
  854MOL0     C12602   5.280   7.946   1.896 -0.8237  0.4139  0.5568
  854MOL0     C12603   5.401   7.880   1.877  0.0887 -0.1702 -0.9791
  854MOL0     O12604   5.440   7.814   1.754  1.0591  0.2402  0.3993
  854MOL0     C12605   5.374   7.808   1.628 -0.1859  0.2101 -0.0840
  854MOL0     C12606   5.353   7.663   1.595 -0.3782  0.8677 -0.4832
  854MOL0     C12607   5.308   7.626   1.452  0.1565 -0.3814 -1.2628
  854MOL0     C12608   5.433   7.641   1.364 -0.1979 -0.1131 -0.0857
  854MOL0     C12609   5.409   7.613   1.219  0.3676 -0.1616 -0.6940
  854MOL0     C12610   5.293   7.694   1.152 -0.3149 -0.6754 -0.2977
  854MOL0     C12611   5.302   7.710   1.001 -0.9823 -0.4639 -0.2471
  854MOL0     C12612   5.191   7.778   0.929  0.5555 -0.0545 -0.3485
  854MOL0     N12613   5.216   7.769   0.784 -0.2729  0.2225  0.1687
  854MOL0     C12614   5.302   7.853   0.719 -0.6257 -0.3294  0.9545
  854MOL0     C12615   5.314   7.808   0.596 -0.0868  0.2499  0.1368
  854MOL0     C12616   5.393   7.872   0.493 -0.5712 -0.0454 -0.2391
  854MOL0     C12617   5.486   7.782   0.418  0.0102  1.1299 -0.3987
  854MOL0     C12618   5.540   7.827   0.289  0.3338 -0.6850  0.9342
  854MOL0     C12619   5.635   7.728   0.220  0.0270  0.1323 -0.3867
  854MOL0     O12620   5.692   7.792   0.099 -1.0535  1.1104 -0.0491
  854MOL0     C12621   5.819   7.837   0.105 -0.4718 -1.1849 -0.3818
  854MOL0     C12622   5.861   7.948   0.184  0.4766 -0.0215  0.6517
  854MOL0     C12623   5.996   7.987   0.173 -0.1928  0.3717 -0.4166
  854MOL0     C12624   6.084   7.917   0.084 -0.6004 -0.6217 -0.4253
  854MOL0     C12625   6.226   7.963   0.083  0.2678  0.9847 -0.6055
  854MOL0     O12626   6.319   7.907  -0.008  0.7765  0.0120 -0.1563
  854MOL0     C12627   6.452   7.913  -0.004 -0.5929 -0.6862 -0.0379
  854MOL0     C12628   6.530   7.792   0.000  1.0780 -0.4112 -0.0825
  854MOL0     C12629   6.667   7.798   0.011 -0.6583  0.0980 -0.6255
  854MOL0     C12630   6.733   7.922   0.010 -0.0599 -1.0231 -0.3569
  854MOL0     O12631   6.869   7.909   0.020  0.7915  0.2308 -0.9940
  854MOL0     C12632   6.928   8.005   0.113  0.3954  0.3037 -0.3690
  854MOL0     C12633   7.074   7.994   0.083 -0.5095 -0.1600 -0.7938
  854MOL0     C12634   7.128   7.860   0.141  1.0797 -0.8949 -0.7645
  854MOL0     C12635   7.275   7.855   0.094 -0.3277 -0.7359  0.9343
  854MOL0     C12636   7.366   7.763   0.167 -0.0426  0.4487 -1.0443
  854MOL0     C12637   7.525   7.771   0.146 -0.7348 -0.2060  0.6415
  854MOL0     C12638   7.616   7.679   0.230 -0.2089  0.2318  0.6070
  854MOL0     C12639   7.764   7.694   0.161  0.3747  1.5122 -0.1430
  854MOL0    Cl12640   7.820   7.859   0.176 -0.1113  0.1326 -0.3552
  854MOL0     C12641   6.658   8.050   0.003 -0.9606  0.7824  0.9161
  854MOL0     C12642   6.516   8.039  -0.001 -1.0637  0.4432  0.7558
  854MOL0     O12643   6.269   8.031   0.175 -0.2647  0.2208 -0.5166
  854MOL0     C12644   6.034   7.809   0.009  0.0702 -0.8896  0.7803
  854MOL0     C12645   5.903   7.765   0.026 -0.0465 -0.0505 -0.4023
  854MOL0     N12646   5.233   7.695   0.586  0.8575 -0.3264 -0.3749
  854MOL0     N12647   5.168   7.674   0.702 -0.5098 -0.2745  0.2869
  854MOL0     C12648   5.497   7.893   1.971 -0.1556  0.0361 -0.8393
  854MOL0     C12649   5.465   7.946   2.100  0.9441 -0.8505 -0.3715
  854MOL0     C12650   5.172   7.869   2.339  1.0945  0.1191  0.2272
  854MOL0     C12651   5.048   7.794   2.334  0.4678 -0.0402  0.1124
  854MOL0     C12652   5.032   7.662   2.382  0.5188  0.6975 -0.8833
  854MOL0     C12653   5.146   7.594   2.431  0.4552 -0.2241 -0.7815
  854MOL0     O12654   5.147   7.455   2.461 -0.2953 -0.6498 -0.8141
  854MOL0     C12655   5.267   7.386   2.457 -0.2317 -0.2191  1.1675
  854MOL0     C12656   5.233   7.236   2.457 -0.9035 -0.8025 -0.2561
  854MOL0     C12657   5.361   7.151   2.510  0.5595  0.5890 -0.1995
  854MOL0     C12658   5.341   7.124   2.658 -0.0801 -0.2243 -0.3639
  854MOL0     C12659   5.452   7.053   2.721 -0.3309 -0.3079  0.0713
  854MOL0     C12660   5.542   6.997   2.776  0.6421 -0.0681 -0.4902
  854MOL0     C12661   5.266   7.675   2.440 -0.2794  0.8553 -0.4537
  854MOL0     C12662   5.280   7.808   2.392 -0.3301 -0.0769 -0.4758
  854MOL0     H12663   5.135   8.020   2.035  0.5784  2.3096 -0.1549
  854MOL0     H12664   5.214   7.947   1.810  1.1567 -3.3236 -1.2752
  854MOL0     H12665   5.443   7.849   1.553  2.7710  0.2717  2.4790
  854MOL0     H12666   5.277   7.858   1.633  0.0252  0.5381  1.0846
  854MOL0     H12667   5.278   7.619   1.662 -1.0688  3.6305  0.6609
  854MOL0     H12668   5.445   7.607   1.615 -2.5668 -2.7132  0.6502
  854MOL0     H12669   5.217   7.684   1.432  0.4196  0.1130 -1.0638
  854MOL0     H12670   5.270   7.524   1.443 -0.9243  0.0216 -1.4167
  854MOL0     H12671   5.464   7.746   1.366 -2.7657  0.7340 -1.3333
  854MOL0     H12672   5.517   7.575   1.389 -0.6710 -0.3941  0.7972
  854MOL0     H12673   5.394   7.506   1.202  2.7076 -1.0437  1.9245
  854MOL0     H12674   5.508   7.641   1.181  1.3013  0.1232  1.7534
  854MOL0     H12675   5.304   7.791   1.201  0.9856  1.4749 -4.3736
  854MOL0     H12676   5.199   7.643   1.177 -1.3034  0.9975 -0.4971
  854MOL0     H12677   5.396   7.763   0.984 -0.8868  0.0964  1.7004
  854MOL0     H12678   5.315   7.607   0.967  3.2233 -0.1403 -0.2014
  854MOL0     H12679   5.174   7.880   0.964 -1.2657 -1.5031  3.5821
  854MOL0     H12680   5.102   7.719   0.952 -0.3719 -0.0794 -3.5545
  854MOL0     H12681   5.355   7.945   0.743 -1.7084  1.5293 -3.0113
  854MOL0     H12682   5.456   7.947   0.542  0.4942 -1.5753  0.8246
  854MOL0     H12683   5.326   7.912   0.417 -1.8185  1.0904  1.3991
  854MOL0     H12684   5.443   7.682   0.403 -1.4583  1.9589 -2.1282
  854MOL0     H12685   5.573   7.778   0.483  0.3539  1.0361 -0.8622
  854MOL0     H12686   5.459   7.845   0.218 -0.5331 -0.0892  2.0452
  854MOL0     H12687   5.595   7.918   0.311  1.7633  0.2546 -4.8791
  854MOL0     H12688   5.576   7.637   0.215 -0.4814  0.2612  1.8970
  854MOL0     H12689   5.716   7.708   0.292  0.1157  2.8216  0.4013
  854MOL0     H12690   5.790   7.994   0.251  2.4807  0.9204  2.2298
  854MOL0     H12691   6.032   8.086   0.202  0.8256  0.1293 -0.7975
  854MOL0     H12692   6.486   7.693  -0.002  1.0323 -0.5268  2.7027
  854MOL0     H12693   6.717   7.702   0.014 -1.9852 -0.6433  2.9326
  854MOL0     H12694   6.903   7.997   0.219  2.9625  1.5933  0.4092
  854MOL0     H12695   6.893   8.104   0.081 -0.5263 -0.4697 -1.8675
  854MOL0     H12696   7.120   8.074   0.141 -0.8698 -0.4503 -0.0877
  854MOL0     H12697   7.094   8.002  -0.024 -0.0375  1.9014 -0.5776
  854MOL0     H12698   7.090   7.766   0.100  1.8714 -0.9020 -1.5112
  854MOL0     H12699   7.126   7.860   0.250  1.8698 -1.1705 -0.7451
  854MOL0     H12700   7.274   7.824  -0.011  0.3298  0.1675  0.6535
  854MOL0     H12701   7.318   7.954   0.112 -3.4690  0.7121  1.1385
  854MOL0     H12702   7.333   7.663   0.137 -0.2254 -0.3104  1.5253
  854MOL0     H12703   7.341   7.767   0.273  2.7618  3.4420 -0.3081
  854MOL0     H12704   7.551   7.876   0.160  0.8596 -0.6381  1.1287
  854MOL0     H12705   7.532   7.738   0.042 -0.7251  3.0666 -0.5192
  854MOL0     H12706   7.611   7.704   0.336  1.7702  2.4223  0.2777
  854MOL0     H12707   7.583   7.575   0.221  0.0075  0.1990  0.1434
  854MOL0     H12708   7.771   7.668   0.055  0.9462 -1.2988  0.4886
  854MOL0     H12709   7.832   7.629   0.218 -1.0161 -1.0322 -1.2157
  854MOL0     H12710   6.706   8.148   0.006  2.0769 -0.6093  3.0645
  854MOL0     H12711   6.457   8.129  -0.015 -1.4509 -0.2286 -3.0668
  854MOL0     H12712   6.112   7.754  -0.043  0.4037  0.1129  0.1962
  854MOL0     H12713   5.878   7.674  -0.028 -3.7938  0.3798  0.3512
  854MOL0     H12714   5.598   7.881   1.933  0.0529  1.7983 -0.9454
  854MOL0     H12715   5.544   7.959   2.173  1.3702 -0.9112 -0.8180
  854MOL0     H12716   4.964   7.846   2.288  0.4481 -1.5106 -1.6331
  854MOL0     H12717   4.941   7.606   2.362 -0.3118  1.2734  1.0001
  854MOL0     H12718   5.342   7.401   2.535  2.3242 -1.4706 -0.9044
  854MOL0     H12719   5.319   7.412   2.365  0.6734 -1.3946  1.3207
  854MOL0     H12720   5.133   7.228   2.500 -1.3368  1.7899 -0.5829
  854MOL0     H12721   5.222   7.187   2.360  1.1007 -5.8447  1.7038
  854MOL0     H12722   5.462   7.193   2.507  1.5426 -1.5925 -0.0544
  854MOL0     H12723   5.377   7.058   2.454 -2.4303  0.9847 -1.9075
  854MOL0     H12724   5.336   7.226   2.698 -0.9628  0.8314 -2.9140
  854MOL0     H12725   5.255   7.057   2.670 -2.2663  2.8099  2.9124
  854MOL0     H12726   5.613   6.942   2.835 -0.0450 -2.9675 -2.1554
  854MOL0     H12727   5.353   7.634   2.490 -0.6420  0.8541  0.1838
  854MOL0     H12728   5.362   7.879   2.399  0.0415 -0.4017 -1.4314
  855MOL0     O12729  10.576  10.038   7.620  0.0833  0.0238  0.6860
  855MOL0     C12730  10.652   9.956   7.674  0.0137 -0.6383  0.7434
  855MOL0     O12731  10.775   9.984   7.712 -0.8813 -0.7896 -0.2233
  855MOL0     C12732  10.831  10.108   7.732  0.1970 -0.6828  0.4283
  855MOL0     C12733  10.971  10.101   7.744 -0.4948 -0.0731  0.4542
  855MOL0     C12734  11.045  10.216   7.764 -0.5552  0.0734 -0.9612
  855MOL0     C12735  10.976  10.335   7.790 -0.6258 -0.6235  0.2468
  855MOL0     O12736  11.039  10.448   7.834 -0.1557 -0.4204  0.3451
  855MOL0     C12737  11.021  10.446   7.972 -0.2810 -0.8679 -1.5447
  855MOL0     C12738  11.110  10.559   8.038 -0.0109  0.4354 -0.5730
  855MOL0     C12739  11.086  10.572   8.187  0.2519  1.5905  0.3991
  855MOL0     C12740  11.182  10.664   8.268  0.4667 -0.6569 -0.7582
  855MOL0     C12741  11.161  10.818   8.252 -0.0974 -0.9358 -0.3712
  855MOL0     C12742  11.044  10.871   8.322  0.1606 -0.8542 -0.2072
  855MOL0     C12743  11.065  11.016   8.370 -0.0991 -0.8706 -0.4893
  855MOL0     C12744  11.054  11.109   8.244 -0.0342 -0.0656 -0.6356
  855MOL0     N12745  10.930  11.091   8.164 -0.1163  0.1355  0.2117
  855MOL0     C12746  10.801  11.113   8.204 -0.0149 -0.0120  0.2609
  855MOL0     C12747  10.727  11.061   8.102 -0.1919 -0.6777 -0.2386
  855MOL0     C12748  10.585  11.059   8.091  0.4111  0.8950  0.6097
  855MOL0     C12749  10.527  10.955   8.191  0.1250  0.2233  1.4746
  855MOL0     C12750  10.370  10.997   8.206  0.4457 -0.5802  0.8120
  855MOL0     C12751  10.271  10.902   8.255  0.5138  0.1964 -0.0996
  855MOL0     O12752  10.273  10.776   8.173  0.6409  0.1556 -0.0742
  855MOL0     C12753  10.185  10.672   8.209 -0.6091  0.0519 -0.6061
  855MOL0     C12754  10.169  10.630   8.347 -0.0661  0.0595 -0.7004
  855MOL0     C12755  10.078  10.536   8.372 -0.2159  0.8918  0.1527
  855MOL0     C12756   9.998  10.474   8.275  0.0778 -0.1297 -0.1391
  855MOL0     C12757   9.896  10.375   8.306 -0.0859 -0.2768 -0.3541
  855MOL0     O12758   9.811  10.347   8.203  0.3430 -0.4538 -0.6087
  855MOL0     C12759   9.711  10.261   8.233  0.3618  0.3000  0.9046
  855MOL0     C12760   9.683  10.163   8.137  0.5011 -0.5607  0.3134
  855MOL0     C12761   9.573  10.086   8.150  0.1604  1.0752  0.2875
  855MOL0     C12762   9.491  10.105   8.250  0.1685 -1.2492 -0.0039
  855MOL0     O12763   9.372  10.044   8.227  0.0460  0.1859 -0.0148
  855MOL0     C12764   9.291  10.013   8.347 -0.0807 -0.1212  0.6154
  855MOL0     C12765   9.192   9.900   8.309  0.7758 -0.1539 -0.1973
  855MOL0     C12766   9.124   9.835   8.427 -0.1898  0.7391  0.1873
  855MOL0     C12767   9.218   9.738   8.503 -0.7201  0.1451  0.4604
  855MOL0     C12768   9.146   9.612   8.540  0.3777  0.3949 -0.2954
  855MOL0     C12769   9.248   9.525   8.617  0.5209  0.8464  0.2187
  855MOL0     C12770   9.195   9.392   8.668  0.3838 -0.0556 -0.2769
  855MOL0     C12771   9.181   9.284   8.558  0.0949 -0.6410  0.0858
  855MOL0    Cl12772   9.345   9.211   8.520  0.4004 -0.6677  0.2978
  855MOL0     C12773   9.517  10.201   8.349 -0.0708  0.3344 -0.5842
  855MOL0     C12774   9.629  10.281   8.343 -0.2091 -0.1529  0.6450
  855MOL0     O12775   9.907  10.317   8.413 -0.2653 -0.4150 -0.5441
  855MOL0     C12776  10.022  10.506   8.137 -0.3481  0.2998 -0.4431
  855MOL0     C12777  10.119  10.605   8.107  0.7042 -0.5383  0.5204
  855MOL0     N12778  10.812  11.031   7.996  0.6806  0.3568 -0.2435
  855MOL0     N12779  10.931  11.060   8.036  0.4566  0.0334 -0.6643
  855MOL0     C12780  10.834  10.341   7.788 -0.8514 -0.1881  0.1878
  855MOL0     C12781  10.767  10.229   7.749 -0.0700 -0.7212  0.8804
  855MOL0     C12782  10.603   9.824   7.689 -0.4473  0.3654  0.6248
  855MOL0     C12783  10.523   9.774   7.586  0.8256 -0.7396 -0.2813
  855MOL0     C12784  10.481   9.641   7.583 -0.3327  0.7360 -0.5672
  855MOL0     C12785  10.525   9.549   7.684  0.8945  0.2456  0.5692
  855MOL0     O12786  10.478   9.425   7.693  0.1876  0.5880 -0.0768
  855MOL0     C12787  10.348   9.394   7.632  0.9436 -0.2665 -0.6914
  855MOL0     C12788  10.356   9.337   7.489 -0.1075  0.2005 -0.8708
  855MOL0     C12789  10.243   9.375   7.404 -1.0399  0.2403 -0.3026
  855MOL0     C12790  10.174   9.257   7.324 -0.0837  0.3361 -0.0696
  855MOL0     C12791  10.266   9.201   7.216  0.0086  0.0079 -0.0531
  855MOL0     C12792  10.327   9.175   7.112  0.3631  0.3799 -0.6981
  855MOL0     C12793  10.606   9.601   7.782  0.1062  0.2494 -0.2259
  855MOL0     C12794  10.643   9.734   7.786  0.1405 -0.7114  0.5106
  855MOL0     H12795  11.017  10.006   7.720 -1.4350 -0.2410 -0.8229
  855MOL0     H12796  11.152  10.227   7.774 -0.3797 -1.5902 -0.7255
  855MOL0     H12797  11.039  10.352   8.026  0.2690  1.7509  3.4098
  855MOL0     H12798  10.920  10.474   8.001  0.6778  1.2979  0.0037
  855MOL0     H12799  11.099  10.656   7.988 -2.5943  0.4801 -0.0521
  855MOL0     H12800  11.215  10.536   8.019  0.5517  0.3841  2.1948
  855MOL0     H12801  11.093  10.470   8.227  2.4771  0.5242 -2.3469
  855MOL0     H12802  10.982  10.604   8.193 -0.7175  0.0799 -4.5228
  855MOL0     H12803  11.184  10.640   8.375  0.4975  1.7564 -0.1739
  855MOL0     H12804  11.285  10.641   8.237  0.1760  0.0502 -2.3105
  855MOL0     H12805  11.171  10.834   8.144 -1.4856  4.5401  0.0329
  855MOL0     H12806  11.242  10.878   8.296 -1.5009  1.0324 -0.3680
  855MOL0     H12807  11.024  10.808   8.408 -2.3144 -2.5818 -1.9310
  855MOL0     H12808  10.951  10.856   8.267 -1.2817  1.1287  1.5159
  855MOL0     H12809  10.990  11.046   8.444  1.2305  0.2702  0.4338
  855MOL0     H12810  11.163  11.019   8.418  0.1627  0.7439 -1.0491
  855MOL0     H12811  11.134  11.070   8.180  1.8541 -0.7871  2.0035
  855MOL0     H12812  11.090  11.212   8.252 -0.1436  0.1149 -2.1483
  855MOL0     H12813  10.777  11.149   8.304  0.2936  1.2374 -0.1005
  855MOL0     H12814  10.555  11.023   7.991  0.3033  1.6172  0.3794
  855MOL0     H12815  10.542  11.157   8.112 -0.3031  0.5039  1.0005
  855MOL0     H12816  10.560  10.955   8.295 -1.5733  2.1615  2.0750
  855MOL0     H12817  10.540  10.853   8.154  3.0567  0.8066  0.6638
  855MOL0     H12818  10.373  11.082   8.274  2.4210 -2.0923  2.7314
  855MOL0     H12819  10.323  11.042   8.118 -0.8337 -2.5936  0.3955
  855MOL0     H12820  10.169  10.940   8.243 -0.1442 -0.3830  2.9282
  855MOL0     H12821  10.292  10.872   8.358  2.6184  0.5480 -0.3662
  855MOL0     H12822  10.228  10.691   8.415  0.3725 -1.4292  0.3066
  855MOL0     H12823  10.063  10.517   8.478  0.8541 -1.8026 -0.1076
  855MOL0     H12824   9.754  10.154   8.055  0.7809 -3.1978  0.7578
  855MOL0     H12825   9.555  10.009   8.077 -0.8442  0.0763  1.5290
  855MOL0     H12826   9.245  10.107   8.381  2.7735  2.2712 -1.5101
  855MOL0     H12827   9.359   9.972   8.423  1.4672 -0.6870 -0.9962
  855MOL0     H12828   9.242   9.825   8.247  2.8624  0.6057  0.4629
  855MOL0     H12829   9.114   9.947   8.249  1.7610  0.4103 -1.0688
  855MOL0     H12830   9.045   9.772   8.386  1.5822 -4.1921  3.4715
  855MOL0     H12831   9.082   9.904   8.501  2.0175 -0.4639  2.7416
  855MOL0     H12832   9.306   9.713   8.443  0.8159  0.5150  2.4585
  855MOL0     H12833   9.256   9.798   8.585  1.2634  3.1071 -2.3998
  855MOL0     H12834   9.121   9.559   8.448  2.2431 -0.1929 -0.5035
  855MOL0     H12835   9.057   9.629   8.602  3.8708  0.3463  5.5111
  855MOL0     H12836   9.262   9.579   8.711  0.9284 -0.6847  1.0605
  855MOL0     H12837   9.342   9.505   8.565 -0.2165 -2.3346 -0.1025
  855MOL0     H12838   9.264   9.359   8.746 -2.1852 -4.6309  0.3880
  855MOL0     H12839   9.095   9.399   8.711 -0.2626 -3.7095 -0.9352
  855MOL0     H12840   9.144   9.332   8.468  0.2379 -1.4917 -0.4389
  855MOL0     H12841   9.112   9.206   8.593 -2.9154  1.6331 -0.3491
  855MOL0     H12842   9.451  10.227   8.431 -0.8294 -0.7160 -0.8469
  855MOL0     H12843   9.665  10.343   8.424 -1.2147  1.9425 -0.4487
  855MOL0     H12844   9.973  10.444   8.063  1.2092 -0.6931 -0.6923
  855MOL0     H12845  10.146  10.632   8.006  1.7991  0.0270  0.9446
  855MOL0     H12846  10.780  10.427   7.827  1.2246  0.4129  1.9010
  855MOL0     H12847  10.659  10.239   7.737 -0.2602  1.0295  3.2076
  855MOL0     H12848  10.481   9.843   7.514 -2.0499  0.4365  2.3126
  855MOL0     H12849  10.406   9.633   7.505 -2.2519  1.5234  1.1093
  855MOL0     H12850  10.289   9.486   7.639  0.9883 -0.2945  0.1589
  855MOL0     H12851  10.306   9.309   7.686  1.5902 -3.4579 -4.7399
  855MOL0     H12852  10.451   9.369   7.444  0.6609 -1.1112 -0.2340
  855MOL0     H12853  10.364   9.228   7.484 -2.9795 -0.1063 -0.2658
  855MOL0     H12854  10.266   9.449   7.327 -2.2757 -0.3849 -1.3093
  855MOL0     H12855  10.161   9.412   7.466 -2.7775 -3.9825  0.2419
  855MOL0     H12856  10.170   9.171   7.392  1.4646 -1.1563 -1.7501
  855MOL0     H12857  10.069   9.280   7.305 -0.1418 -1.3194 -2.1176
  855MOL0     H12858  10.393   9.131   7.040  2.6995  4.7655 -1.6273
  855MOL0     H12859  10.615   9.519   7.854 -2.5251 -0.6270 -0.7713
  855MOL0     H12860  10.704   9.782   7.862  1.0359  4.0137 -2.7310
  856MOL0     O12861   0.110   2.929   6.345 -0.6279 -0.5606  0.6392
  856MOL0     C12862   0.146   2.998   6.250 -0.7427 -0.1593  1.3306
  856MOL0     O12863   0.280   3.024   6.202 -0.0635  0.4379  0.1203
  856MOL0     C12864   0.389   2.973   6.264  0.0700 -0.6980 -0.1170
  856MOL0     C12865   0.497   2.960   6.173  0.6480 -0.2574 -0.9735
  856MOL0     C12866   0.622   2.902   6.217  0.2272 -0.7420  0.3084
  856MOL0     C12867   0.639   2.881   6.359  0.2614  0.1129 -1.0554
  856MOL0     O12868   0.765   2.854   6.413 -0.2622 -1.1574 -0.6658
  856MOL0     C12869   0.779   2.728   6.478 -0.3765 -0.0188  0.7191
  856MOL0     C12870   0.802   2.608   6.385 -0.3790  0.0829 -0.4445
  856MOL0     C12871   0.904   2.625   6.276 -0.1780 -0.6031 -1.0459
  856MOL0     C12872   1.042   2.650   6.331 -0.1973  0.0294 -0.7590
  856MOL0     C12873   1.142   2.599   6.222  0.0335 -0.3573  0.6648
  856MOL0     C12874   1.281   2.614   6.288  0.0644 -0.4148  0.4415
  856MOL0     C12875   1.381   2.554   6.199 -0.1059 -0.7672  0.8350
  856MOL0     C12876   1.523   2.555   6.252  0.2250  0.3995 -0.8053
  856MOL0     N12877   1.606   2.454   6.193  0.2154  0.3096  0.5254
  856MOL0     C12878   1.588   2.397   6.061  0.2295  0.4450 -0.2731
  856MOL0     C12879   1.692   2.309   6.048 -0.0781 -0.2087  0.1904
  856MOL0     C12880   1.743   2.203   5.951 -0.4194 -0.5991 -0.7869
  856MOL0     C12881   1.629   2.102   5.912 -0.7765  0.8348  0.6660
  856MOL0     C12882   1.703   1.985   5.843  0.7420 -0.9562  0.2726
  856MOL0     C12883   1.594   1.909   5.781 -0.3926  0.7288 -0.5062
  856MOL0     O12884   1.527   1.954   5.664  1.0418 -0.3270 -0.7248
  856MOL0     C12885   1.439   2.068   5.672 -0.4615 -0.3016  0.8800
  856MOL0     C12886   1.306   2.065   5.730  0.3015  0.9687 -0.7744
  856MOL0     C12887   1.218   2.164   5.730  0.2701 -0.2934  0.4709
  856MOL0     C12888   1.250   2.281   5.659  0.3037 -0.4751 -0.1111
  856MOL0     C12889   1.146   2.394   5.664 -0.1329 -0.7883 -0.3626
  856MOL0     O12890   1.024   2.360   5.725 -0.2552 -0.3551 -0.1674
  856MOL0     C12891   0.944   2.465   5.761  0.6069  0.7561  0.1936
  856MOL0     C12892   0.813   2.451   5.725  0.2703  0.6503  0.4407
  856MOL0     C12893   0.709   2.530   5.778  0.2646 -0.3225 -0.6645
  856MOL0     C12894   0.746   2.650   5.852  0.0210 -0.0752  0.0668
  856MOL0     O12895   0.662   2.751   5.888  0.5826  0.0715  0.3487
  856MOL0     C12896   0.550   2.788   5.806 -0.3524 -0.2052  0.1606
  856MOL0     C12897   0.422   2.745   5.884  0.8430 -0.6336  0.2357
  856MOL0     C12898   0.299   2.720   5.799  0.2754  0.5115  0.1734
  856MOL0     C12899   0.175   2.656   5.870 -0.2924 -0.3412 -0.1191
  856MOL0     C12900   0.082   2.768   5.899  0.0407  0.2767 -0.5672
  856MOL0     C12901  -0.045   2.705   5.959 -0.2688 -0.3068  1.0684
  856MOL0     C12902  -0.155   2.708   5.856  0.3945 -0.7644 -0.0884
  856MOL0     C12903  -0.241   2.584   5.844 -0.6466  0.0284  0.3869
  856MOL0    Cl12904  -0.152   2.430   5.821  0.1900  0.1375 -0.3424
  856MOL0     C12905   0.885   2.651   5.902 -0.7148 -0.3100 -0.5511
  856MOL0     C12906   0.975   2.554   5.860  0.4927  0.5303  0.1536
  856MOL0     O12907   1.182   2.504   5.635 -0.0780 -0.2273  0.2502
  856MOL0     C12908   1.376   2.287   5.593 -0.8944  0.2633 -0.7409
  856MOL0     C12909   1.468   2.183   5.606 -0.9063  1.1005 -0.2419
  856MOL0     N12910   1.757   2.308   6.167 -0.4626  0.4111 -1.0215
  856MOL0     N12911   1.704   2.387   6.256  0.3302 -0.7838 -0.2441
  856MOL0     C12912   0.531   2.900   6.450  0.4665  1.1778  0.7305
  856MOL0     C12913   0.406   2.950   6.396 -0.9904 -0.5474 -0.2685
  856MOL0     C12914   0.032   3.055   6.173  0.1726 -0.6656  0.4614
  856MOL0     C12915  -0.097   3.009   6.182  0.5313 -0.9322 -0.3852
  856MOL0     C12916  -0.203   3.061   6.104 -0.2084 -0.2882  1.7117
  856MOL0     C12917  -0.173   3.166   6.009 -0.5132 -0.3134 -0.4461
  856MOL0     O12918  -0.241   3.245   5.923  0.2711 -0.0614 -0.6257
  856MOL0     C12919  -0.385   3.224   5.915  0.7054 -0.0661 -0.1691
  856MOL0     C12920  -0.408   3.104   5.816 -0.3323  0.4505  0.3921
  856MOL0     C12921  -0.540   3.119   5.744 -0.5389  0.0110  0.6576
  856MOL0     C12922  -0.656   3.119   5.846  0.3403 -0.2823  0.0415
  856MOL0     C12923  -0.664   2.991   5.918  0.2226 -1.0275  0.0915
  856MOL0     C12924  -0.653   2.887   5.976  0.8556  1.5593  0.5502
  856MOL0     C12925  -0.038   3.213   6.001 -1.2319  0.3223  0.2372
  856MOL0     C12926   0.055   3.166   6.092 -0.0229  0.8199  0.6064
  856MOL0     H12927   0.487   2.981   6.067  0.0018  1.0366 -0.6796
  856MOL0     H12928   0.691   2.891   6.134  0.1331 -2.4431  0.4082
  856MOL0     H12929   0.695   2.713   6.546  0.1508 -4.1830  0.7244
  856MOL0     H12930   0.869   2.722   6.541 -0.8539  1.4013  1.5843
  856MOL0     H12931   0.710   2.570   6.339 -2.6378  1.5993  2.4626
  856MOL0     H12932   0.835   2.520   6.441 -2.0989 -1.0352 -1.0976
  856MOL0     H12933   0.862   2.714   6.227 -1.5978 -0.3893  0.4815
  856MOL0     H12934   0.907   2.531   6.221  2.5448 -2.4340  1.9370
  856MOL0     H12935   1.057   2.756   6.355  0.1354  0.1110 -1.2829
  856MOL0     H12936   1.066   2.601   6.425  2.8194 -1.5488 -2.1943
  856MOL0     H12937   1.141   2.666   6.135 -2.2733 -3.2082 -1.7390
  856MOL0     H12938   1.109   2.502   6.185 -0.8116 -0.4211  1.5599
  856MOL0     H12939   1.277   2.583   6.393  1.2363 -1.4653  0.2073
  856MOL0     H12940   1.319   2.716   6.279  1.9712 -1.2474 -4.5243
  856MOL0     H12941   1.343   2.452   6.200 -1.7741 -0.2442 -1.8694
  856MOL0     H12942   1.367   2.596   6.099 -0.7294  0.0497  1.2493
  856MOL0     H12943   1.523   2.545   6.361 -0.2882 -0.9898 -0.9055
  856MOL0     H12944   1.579   2.644   6.223  0.8925  0.2879  0.0748
  856MOL0     H12945   1.501   2.397   5.996 -1.0926  1.9483  1.3955
  856MOL0     H12946   1.831   2.152   5.991 -1.4789 -0.8767  1.2909
  856MOL0     H12947   1.788   2.251   5.863  1.5822  1.4475  1.2279
  856MOL0     H12948   1.554   2.166   5.866  0.6350  1.6936 -0.5408
  856MOL0     H12949   1.596   2.057   6.006  0.1542 -0.6029  0.3349
  856MOL0     H12950   1.775   2.027   5.773  2.5168  2.7558  3.8789
  856MOL0     H12951   1.749   1.911   5.909 -1.6451 -4.1526 -1.3676
  856MOL0     H12952   1.517   1.895   5.857  0.9023 -0.0457  0.7019
  856MOL0     H12953   1.639   1.814   5.751 -0.4357 -0.1976  2.0816
  856MOL0     H12954   1.278   1.964   5.761  0.0113  1.3581  0.2792
  856MOL0     H12955   1.121   2.137   5.770 -0.5323 -2.6227 -2.5963
  856MOL0     H12956   0.789   2.369   5.658 -1.2311  0.0320  1.6769
  856MOL0     H12957   0.605   2.514   5.755 -0.4671  0.3422  1.9115
  856MOL0     H12958   0.566   2.738   5.710  0.7465  0.1545  0.1520
  856MOL0     H12959   0.556   2.896   5.788  1.9772 -0.1298  1.0531
  856MOL0     H12960   0.394   2.826   5.952  2.0210 -0.4029  0.4801
  856MOL0     H12961   0.442   2.654   5.941 -3.0095 -0.5767  1.9751
  856MOL0     H12962   0.325   2.642   5.727 -1.8142  0.0003 -0.1044
  856MOL0     H12963   0.254   2.811   5.757 -2.3059 -0.9829 -0.5659
  856MOL0     H12964   0.122   2.589   5.801  1.1746 -1.0831 -0.5695
  856MOL0     H12965   0.197   2.596   5.959 -2.4617  1.4773  1.7927
  856MOL0     H12966   0.056   2.819   5.806 -3.0812 -1.4017 -0.7513
  856MOL0     H12967   0.131   2.836   5.968  1.4310 -0.9083 -0.3479
  856MOL0     H12968  -0.080   2.753   6.051 -1.0136  1.2461  0.0249
  856MOL0     H12969  -0.024   2.602   5.989  0.1793 -0.6912 -0.4744
  856MOL0     H12970  -0.220   2.791   5.886 -0.6681 -0.5313 -2.7497
  856MOL0     H12971  -0.122   2.739   5.757  0.1047  0.1694  0.0946
  856MOL0     H12972  -0.325   2.609   5.779  0.1867  2.9186  0.2696
  856MOL0     H12973  -0.286   2.585   5.944 -0.9278  3.5618  0.3542
  856MOL0     H12974   0.930   2.718   5.975 -0.6276 -1.1781  0.2191
  856MOL0     H12975   1.075   2.531   5.896  0.3743  0.3832  0.3840
  856MOL0     H12976   1.395   2.378   5.537 -3.0800  0.8869 -0.5348
  856MOL0     H12977   1.557   2.175   5.545 -0.9590 -0.5259 -0.1439
  856MOL0     H12978   0.530   2.887   6.558 -2.5366  3.4917  1.1300
  856MOL0     H12979   0.323   2.938   6.465  0.4933 -1.8795  1.3840
  856MOL0     H12980  -0.108   2.917   6.238  1.1209 -0.7856 -0.0141
  856MOL0     H12981  -0.307   3.039   6.126 -1.5162  2.0203 -1.4377
  856MOL0     H12982  -0.419   3.321   5.877  2.9614  1.0923  0.6158
  856MOL0     H12983  -0.438   3.207   6.009  1.0409 -1.6514 -0.2445
  856MOL0     H12984  -0.333   3.099   5.737  1.3095 -0.8219  1.9367
  856MOL0     H12985  -0.416   3.003   5.859 -1.2508 -0.4750 -1.8167
  856MOL0     H12986  -0.558   3.043   5.668  2.3672  0.8794 -1.0710
  856MOL0     H12987  -0.542   3.213   5.687 -0.3640 -0.0350  0.5764
  856MOL0     H12988  -0.647   3.202   5.916 -0.5694  1.0034 -1.3074
  856MOL0     H12989  -0.749   3.142   5.792 -0.4345 -0.1872  1.3622
  856MOL0     H12990  -0.649   2.788   6.017 -2.4754  0.8440 -0.6007
  856MOL0     H12991  -0.015   3.293   5.931  0.8971 -0.3889  0.0486
  856MOL0     H12992   0.149   3.221   6.087 -2.3348  5.2201  0.5237
  857MOL0     O12993   1.590   3.168   9.948  0.5608  0.7105 -0.0372
  857MOL0     C12994   1.694   3.107   9.979  0.2187  0.9360 -0.5642
  857MOL0     O12995   1.713   3.038  10.095  0.5341 -0.0026  0.2012
  857MOL0     C12996   1.626   3.059  10.207 -0.2674 -0.4249  0.2647
  857MOL0     C12997   1.630   2.944  10.293  0.8025  0.4876  2.3329
  857MOL0     C12998   1.562   2.951  10.410  0.1592 -0.4812 -0.4351
  857MOL0     C12999   1.502   3.066  10.454 -0.2942 -1.3250 -0.6285
  857MOL0     O13000   1.430   3.084  10.570  0.0549 -0.2179  0.1764
  857MOL0     C13001   1.447   2.988  10.680  0.0724 -0.5388  0.3858
  857MOL0     C13002   1.391   3.050  10.814  0.4736 -0.9893 -0.0478
  857MOL0     C13003   1.241   3.095  10.822 -0.8705 -0.0567  0.2112
  857MOL0     C13004   1.201   3.173  10.947 -0.2227 -1.6659 -0.8286
  857MOL0     C13005   1.081   3.273  10.908  0.0748  0.6747 -0.0611
  857MOL0     C13006   0.952   3.202  10.879  0.4654  0.3743 -0.3427
  857MOL0     C13007   0.922   3.089  10.975 -0.7436  0.3942  0.9976
  857MOL0     C13008   0.771   3.059  10.979  1.1055  0.6308  0.7066
  857MOL0     N13009   0.719   2.939  11.048  0.5152  0.1618 -0.4438
  857MOL0     C13010   0.717   2.916  11.184  0.5867  0.7940 -0.0854
  857MOL0     C13011   0.674   2.791  11.195 -0.5892 -0.7474  0.1057
  857MOL0     C13012   0.630   2.749  11.337 -0.3674 -1.0903 -0.2486
  857MOL0     C13013   0.497   2.818  11.394 -0.0002  0.0535  0.6863
  857MOL0     C13014   0.442   2.786  11.537  0.2325 -0.1685  0.0386
  857MOL0     C13015   0.294   2.840  11.533 -0.6140  0.5685 -1.3177
  857MOL0     O13016   0.216   2.726  11.502  0.1073  0.2375 -0.5320
  857MOL0     C13017   0.171   2.634  11.597 -0.1312 -0.4632 -0.0875
  857MOL0     C13018   0.150   2.679  11.735  0.4989  0.3982 -0.2178
  857MOL0     C13019   0.114   2.586  11.822 -0.3390 -0.5651  0.5420
  857MOL0     C13020   0.077   2.457  11.782 -0.5659 -0.4450 -0.1128
  857MOL0     C13021   0.017   2.359  11.873 -0.1912 -0.9358 -0.9301
  857MOL0     O13022   0.003   2.403  12.003 -0.2420 -1.1011 -0.1113
  857MOL0     C13023  -0.025   2.308  12.099  0.6593 -0.8788  0.3464
  857MOL0     C13024  -0.155   2.252  12.091 -0.7429  0.2587  0.1092
  857MOL0     C13025  -0.202   2.187  12.204  0.5799  0.3368 -0.8455
  857MOL0     C13026  -0.129   2.172  12.318  0.0998  0.3559 -0.4809
  857MOL0     O13027  -0.171   2.122  12.442  0.8098  0.1772  0.4930
  857MOL0     C13028  -0.307   2.115  12.470 -0.8862  0.6466  0.1614
  857MOL0     C13029  -0.330   2.116  12.622 -0.5222 -0.3338  0.4771
  857MOL0     C13030  -0.486   2.105  12.645 -0.4320  0.4215  0.8193
  857MOL0     C13031  -0.512   2.107  12.795  0.2834 -0.1391 -0.9586
  857MOL0     C13032  -0.654   2.121  12.813  0.3537  0.2488  0.2089
  857MOL0     C13033  -0.713   2.168  12.945  0.0801  0.8538  0.5523
  857MOL0     C13034  -0.750   2.325  12.947 -0.2614  0.6795 -0.8125
  857MOL0     C13035  -0.858   2.354  13.046 -0.4089  0.4188 -0.4827
  857MOL0    Cl13036  -1.019   2.271  13.027 -0.0062 -0.5907 -0.0427
  857MOL0     C13037   0.007   2.223  12.317 -0.4179  0.5752  0.1038
  857MOL0     C13038   0.063   2.283  12.208 -0.2247  0.3980 -0.9025
  857MOL0     O13039   0.006   2.246  11.841 -0.2817  0.0099  0.6724
  857MOL0     C13040   0.099   2.423  11.648 -0.6194 -0.2929  0.0468
  857MOL0     C13041   0.144   2.507  11.559 -0.0485  0.6833  0.3202
  857MOL0     N13042   0.655   2.726  11.074 -0.5866 -0.0960 -0.2616
  857MOL0     N13043   0.668   2.829  10.989 -0.1251 -0.3043  0.8811
  857MOL0     C13044   1.512   3.182  10.374 -0.3110  0.0969 -0.0274
  857MOL0     C13045   1.564   3.179  10.245 -0.4253 -0.4145  0.1910
  857MOL0     C13046   1.797   3.089   9.884 -0.1738 -0.5814 -0.1162
  857MOL0     C13047   1.772   3.110   9.750  0.2820 -0.1721  0.3668
  857MOL0     C13048   1.877   3.078   9.660  0.2644 -0.3730  0.2693
  857MOL0     C13049   2.004   3.046   9.700  0.1722  0.3279  0.5331
  857MOL0     O13050   2.088   3.026   9.593 -0.0944  0.4528 -0.4646
  857MOL0     C13051   2.213   2.959   9.623  0.1572  0.9253  0.6351
  857MOL0     C13052   2.303   2.928   9.496 -1.0212  0.3475 -0.1844
  857MOL0     C13053   2.234   2.828   9.400  0.5921  0.4045  0.5903
  857MOL0     C13054   2.318   2.770   9.274 -0.3480 -0.4827 -0.3193
  857MOL0     C13055   2.446   2.718   9.328  0.2055  0.1771 -0.6104
  857MOL0     C13056   2.552   2.670   9.359 -0.4234 -0.0888  1.0774
  857MOL0     C13057   2.026   3.021   9.832 -0.1049  0.2899  0.4997
  857MOL0     C13058   1.920   3.037   9.927 -0.6082  0.3401 -0.6913
  857MOL0     H13059   1.689   2.854  10.274  0.4766  0.8194 -0.7578
  857MOL0     H13060   1.564   2.869  10.482  0.6611 -0.2291 -0.1573
  857MOL0     H13061   1.551   2.961  10.700  0.4285  1.3989  1.3576
  857MOL0     H13062   1.389   2.898  10.657  1.5901 -1.9796  1.9668
  857MOL0     H13063   1.454   3.138  10.828 -0.3443 -0.6193  1.5616
  857MOL0     H13064   1.400   2.977  10.895 -3.4191 -1.5577  0.0949
  857MOL0     H13065   1.188   2.999  10.823  0.3554 -0.7670 -0.0314
  857MOL0     H13066   1.221   3.146  10.728  3.7308  1.5855 -0.1474
  857MOL0     H13067   1.172   3.113  11.034 -1.7518 -0.6576 -0.6058
  857MOL0     H13068   1.287   3.237  10.967 -0.7147 -0.2611 -2.8895
  857MOL0     H13069   1.105   3.321  10.813  0.9979 -0.6567 -0.5376
  857MOL0     H13070   1.062   3.352  10.981 -0.4484 -0.1551  0.7138
  857MOL0     H13071   0.960   3.153  10.782 -0.3960  0.6596 -0.5644
  857MOL0     H13072   0.871   3.276  10.881  1.4058  1.4846  2.6454
  857MOL0     H13073   0.960   2.998  10.926 -0.2026  0.4954  1.2294
  857MOL0     H13074   0.948   3.106  11.080  0.2047  1.0237  0.6784
  857MOL0     H13075   0.752   3.041  10.873  1.0182 -3.9056  1.2863
  857MOL0     H13076   0.729   3.155  11.012  2.2027  1.2113  0.4703
  857MOL0     H13077   0.721   2.991  11.263  1.5607 -0.2631  0.9197
  857MOL0     H13078   0.715   2.765  11.403 -0.2075 -0.3431 -0.6167
  857MOL0     H13079   0.610   2.642  11.337 -4.6921 -0.5102  2.1934
  857MOL0     H13080   0.431   2.788  11.313  1.1522  0.1222 -0.3151
  857MOL0     H13081   0.514   2.926  11.400  1.7616 -0.2183  1.4172
  857MOL0     H13082   0.446   2.679  11.559  2.5723  0.0720  0.9862
  857MOL0     H13083   0.518   2.841  11.592  0.9219 -0.9576 -0.0880
  857MOL0     H13084   0.283   2.926  11.467  2.4652  0.8183 -1.6481
  857MOL0     H13085   0.263   2.881  11.629 -2.5236 -0.3536 -1.4848
  857MOL0     H13086   0.168   2.781  11.770  2.2029  0.6993 -1.8356
  857MOL0     H13087   0.113   2.611  11.928  4.1146 -0.6787  0.7965
  857MOL0     H13088  -0.239   2.278  12.028 -3.4091 -2.8590  2.0360
  857MOL0     H13089  -0.308   2.167  12.213  1.1351 -2.9742 -0.4465
  857MOL0     H13090  -0.350   2.024  12.425 -2.0443  1.4139 -0.3417
  857MOL0     H13091  -0.366   2.199  12.432  1.9535  3.7559  2.0823
  857MOL0     H13092  -0.301   2.214  12.662  1.5271 -1.0153  0.8067
  857MOL0     H13093  -0.278   2.036  12.677 -0.9350 -1.3071 -0.5144
  857MOL0     H13094  -0.527   2.016  12.597  1.9048  0.5202 -1.6176
  857MOL0     H13095  -0.531   2.194  12.602 -0.2557  0.2520  0.2788
  857MOL0     H13096  -0.475   2.017  12.844  1.1840  1.6968  1.9590
  857MOL0     H13097  -0.465   2.192  12.845  2.1014 -0.1734 -2.4850
  857MOL0     H13098  -0.693   2.019  12.802  1.0922 -0.3551  2.6631
  857MOL0     H13099  -0.711   2.178  12.739 -1.8155  2.2500  3.2056
  857MOL0     H13100  -0.648   2.136  13.027  0.4300 -2.2696 -0.7857
  857MOL0     H13101  -0.805   2.110  12.954 -0.1192  0.7430 -1.5539
  857MOL0     H13102  -0.655   2.378  12.960  1.7879 -2.6740 -1.0308
  857MOL0     H13103  -0.803   2.361  12.859 -2.3881  2.3194  1.0117
  857MOL0     H13104  -0.872   2.462  13.060 -1.2321  0.2985 -0.3550
  857MOL0     H13105  -0.813   2.314  13.137  2.4467  0.7772 -1.6314
  857MOL0     H13106   0.073   2.231  12.403 -0.8048  4.8491  0.1938
  857MOL0     H13107   0.160   2.333  12.212  1.2469 -1.8516 -3.9679
  857MOL0     H13108   0.055   2.331  11.612 -2.5701  0.8166 -0.5561
  857MOL0     H13109   0.162   2.475  11.457 -0.0688 -1.9274  1.0841
  857MOL0     H13110   1.476   3.267  10.431  0.2224  0.1649  0.2187
  857MOL0     H13111   1.592   3.270  10.193 -2.4879 -0.4615 -1.1033
  857MOL0     H13112   1.671   3.123   9.712 -0.2926 -2.5112  0.9586
  857MOL0     H13113   1.853   3.106   9.557  0.3084  0.7069  0.5407
  857MOL0     H13114   2.187   2.868   9.678 -0.7567  1.0811  0.4902
  857MOL0     H13115   2.277   3.015   9.692 -1.7980  3.9061  0.2432
  857MOL0     H13116   2.323   3.020   9.440  1.3957 -2.3357 -4.3638
  857MOL0     H13117   2.393   2.880   9.535 -2.0354 -2.1898 -0.7369
  857MOL0     H13118   2.141   2.871   9.361  0.0593 -2.4185 -1.6023
  857MOL0     H13119   2.204   2.748   9.469  0.1496 -0.8729 -1.0054
  857MOL0     H13120   2.275   2.693   9.208  3.4858 -3.2002  0.0341
  857MOL0     H13121   2.341   2.851   9.205  1.3447 -0.4904  0.1961
  857MOL0     H13122   2.650   2.632   9.376 -1.0365 -0.9743  2.9851
  857MOL0     H13123   2.127   2.992   9.858  0.2495 -0.5881 -1.6103
  857MOL0     H13124   1.937   3.023  10.033  0.4095  2.0744 -0.5856
  858MOL0     O13125   5.457   2.318   5.165 -0.4469 -0.2916 -0.5838
  858MOL0     C13126   5.379   2.406   5.174 -0.6305 -0.4335 -0.0317
  858MOL0     O13127   5.369   2.491   5.284 -0.0134 -0.5805  0.2278
  858MOL0     C13128   5.468   2.456   5.376  0.6303 -0.5413  0.4397
  858MOL0     C13129   5.605   2.498   5.352  0.6529 -0.2095  0.0321
  858MOL0     C13130   5.700   2.466   5.448 -0.4862 -0.8512  0.3012
  858MOL0     C13131   5.658   2.388   5.560  0.1450 -0.6448 -0.5989
  858MOL0     O13132   5.742   2.376   5.670  0.5833  0.3184 -0.9784
  858MOL0     C13133   5.881   2.358   5.639 -0.4031 -0.2857 -0.9362
  858MOL0     C13134   5.969   2.474   5.685 -0.1700 -0.2016 -0.4768
  858MOL0     C13135   5.955   2.599   5.596 -0.5384 -0.5002 -0.0238
  858MOL0     C13136   6.047   2.697   5.650 -1.2245  0.0638  0.0488
  858MOL0     C13137   6.049   2.824   5.572 -0.9671 -1.5395  0.4276
  858MOL0     C13138   6.100   2.821   5.430 -0.6119 -1.0881 -0.2658
  858MOL0     C13139   6.261   2.833   5.422 -0.5959 -0.1698  0.4686
  858MOL0     C13140   6.314   2.827   5.276 -0.6122 -0.4341 -0.1485
  858MOL0     N13141   6.279   2.945   5.205  0.1615 -0.9189 -0.4392
  858MOL0     C13142   6.196   2.955   5.102  0.7974  0.2481 -0.3544
  858MOL0     C13143   6.187   3.088   5.074  0.7190  0.6351  0.7785
  858MOL0     C13144   6.091   3.140   4.967 -0.7144  0.2609 -0.3762
  858MOL0     C13145   6.077   3.295   4.959 -0.3186 -0.1537 -0.4805
  858MOL0     C13146   6.211   3.358   4.906 -0.4620  0.6206  0.0421
  858MOL0     C13147   6.190   3.509   4.910  0.4227  0.7086  0.8819
  858MOL0     O13148   6.316   3.573   4.922  0.3173  0.3489 -0.0440
  858MOL0     C13149   6.319   3.703   4.962 -0.2608 -0.2180  0.3838
  858MOL0     C13150   6.448   3.762   4.983  0.0104  1.0659 -0.0756
  858MOL0     C13151   6.457   3.888   5.034 -0.6022  0.3914 -0.5764
  858MOL0     C13152   6.345   3.965   5.046 -0.5533  0.9924 -0.4745
  858MOL0     C13153   6.358   4.106   5.094 -0.8738 -0.2886 -0.1226
  858MOL0     O13154   6.241   4.179   5.094  0.3860  0.0058  0.4590
  858MOL0     C13155   6.225   4.317   5.087 -1.0448  0.6289  0.9981
  858MOL0     C13156   6.323   4.413   5.057 -0.8367  0.5780 -0.5623
  858MOL0     C13157   6.297   4.550   5.075 -0.2503 -0.9262  0.6652
  858MOL0     C13158   6.169   4.595   5.112 -0.4598 -0.2529 -0.7938
  858MOL0     O13159   6.138   4.729   5.134 -0.8239 -0.1952 -0.3863
  858MOL0     C13160   6.186   4.794   5.249 -0.5289 -0.7076  0.0393
  858MOL0     C13161   6.259   4.919   5.216  0.4970  0.4722  0.8126
  858MOL0     C13162   6.301   4.996   5.340  0.7494  1.2786  0.9238
  858MOL0     C13163   6.412   5.087   5.302 -0.6127 -0.3487 -0.3257
  858MOL0     C13164   6.425   5.198   5.409 -0.2930  0.0164  0.5791
  858MOL0     C13165   6.552   5.290   5.380  0.0712 -0.9718 -0.2959
  858MOL0     C13166   6.585   5.376   5.510 -0.7628  0.0282  0.3522
  858MOL0     C13167   6.727   5.434   5.506 -0.2693 -0.7050  0.2711
  858MOL0    Cl13168   6.789   5.465   5.670  0.4193  0.1172  0.1956
  858MOL0     C13169   6.064   4.495   5.140 -0.6789 -1.6243 -0.5785
  858MOL0     C13170   6.096   4.358   5.124 -0.3929 -0.7962 -0.0729
  858MOL0     O13171   6.473   4.158   5.110 -0.9663  0.0732 -0.8625
  858MOL0     C13172   6.220   3.914   5.017  0.8503 -0.1185 -0.4222
  858MOL0     C13173   6.210   3.784   4.975  0.6793 -0.0123 -0.3687
  858MOL0     N13174   6.266   3.153   5.158  0.5375  0.3579 -0.5187
  858MOL0     N13175   6.330   3.068   5.232  0.3175 -0.2436 -0.2452
  858MOL0     C13176   5.523   2.357   5.586 -0.9227  0.5284  0.2094
  858MOL0     C13177   5.427   2.384   5.491 -0.0455  0.0630  0.6940
  858MOL0     C13178   5.302   2.444   5.059 -0.7628  0.2324  0.0275
  858MOL0     C13179   5.166   2.486   5.066  0.4214  0.7401 -0.0950
  858MOL0     C13180   5.087   2.507   4.957  0.2661  0.2461 -0.0765
  858MOL0     C13181   5.142   2.499   4.827  0.0090  0.0970 -0.3975
  858MOL0     O13182   5.078   2.495   4.705 -0.3932  0.2367 -0.3256
  858MOL0     C13183   4.938   2.523   4.707 -0.1759 -0.3249  0.6296
  858MOL0     C13184   4.900   2.651   4.636  0.0417  0.9398  0.9005
  858MOL0     C13185   4.754   2.655   4.606  0.9954  0.0755  0.6467
  858MOL0     C13186   4.701   2.799   4.568  0.8753  0.4684  0.5674
  858MOL0     C13187   4.767   2.861   4.456  0.0742  0.5881  0.4022
  858MOL0     C13188   4.814   2.896   4.350 -0.2208  0.8617  0.8573
  858MOL0     C13189   5.280   2.471   4.822  0.7704  0.0226  0.4828
  858MOL0     C13190   5.357   2.437   4.928  0.4362  0.2991 -1.1161
  858MOL0     H13191   5.632   2.546   5.258 -0.1467 -1.5330 -0.9050
  858MOL0     H13192   5.796   2.500   5.412 -1.0957 -0.3519 -0.9488
  858MOL0     H13193   5.907   2.346   5.533  0.6416 -3.3769 -0.4425
  858MOL0     H13194   5.929   2.273   5.689 -0.8657 -1.7706 -2.8475
  858MOL0     H13195   6.071   2.438   5.669  0.2198  1.7788 -3.1544
  858MOL0     H13196   5.941   2.502   5.787  1.8692  0.7474 -0.1283
  858MOL0     H13197   5.853   2.635   5.609 -1.0829 -2.7118  2.6886
  858MOL0     H13198   5.989   2.570   5.496  1.0682  2.4008 -0.4296
  858MOL0     H13199   6.009   2.724   5.749  0.8841  3.9877  0.0168
  858MOL0     H13200   6.152   2.668   5.649  1.1117  6.6520 -1.3797
  858MOL0     H13201   6.105   2.904   5.622  0.6174 -1.5452 -1.2065
  858MOL0     H13202   5.945   2.855   5.564 -0.9324 -0.5246  2.8387
  858MOL0     H13203   6.058   2.911   5.385 -1.1101  0.9169  3.8185
  858MOL0     H13204   6.081   2.729   5.373 -3.3965 -1.9424  1.8089
  858MOL0     H13205   6.289   2.929   5.466 -1.4090  1.0115 -1.4889
  858MOL0     H13206   6.309   2.760   5.489  0.1913  0.0912  0.1989
  858MOL0     H13207   6.280   2.734   5.229 -0.6279 -1.1664  1.2267
  858MOL0     H13208   6.423   2.825   5.281 -0.5347  0.2177 -1.4032
  858MOL0     H13209   6.139   2.875   5.055 -2.5179  2.2454 -0.0253
  858MOL0     H13210   5.989   3.108   4.987  0.4454 -2.1375  2.5154
  858MOL0     H13211   6.125   3.112   4.867  1.7552  0.9584  0.1924
  858MOL0     H13212   6.052   3.335   5.058 -0.8694  0.3232 -0.8013
  858MOL0     H13213   5.994   3.316   4.891 -1.7435 -2.8918  0.2805
  858MOL0     H13214   6.299   3.342   4.969  3.0960 -0.0910 -4.4969
  858MOL0     H13215   6.239   3.330   4.803  0.7738  4.4389 -0.8276
  858MOL0     H13216   6.131   3.537   4.998 -2.9756 -3.2664  0.1995
  858MOL0     H13217   6.145   3.547   4.817 -0.4212 -4.9612 -1.4812
  858MOL0     H13218   6.533   3.697   4.965 -0.9270 -0.2113 -0.0918
  858MOL0     H13219   6.555   3.930   5.054 -0.1024 -0.6864 -0.6970
  858MOL0     H13220   6.427   4.401   5.027 -0.7544  5.1451 -3.0720
  858MOL0     H13221   6.386   4.610   5.059  1.6926 -3.8538 -0.4419
  858MOL0     H13222   6.249   4.727   5.309 -0.4039  0.0025  0.7123
  858MOL0     H13223   6.100   4.819   5.313 -0.1871  1.6363 -0.3392
  858MOL0     H13224   6.199   4.976   5.144 -2.4196 -0.3096  2.4659
  858MOL0     H13225   6.343   4.877   5.159 -1.5180  0.8018 -2.7433
  858MOL0     H13226   6.333   4.924   5.416 -1.8993 -1.7648 -0.6175
  858MOL0     H13227   6.212   5.038   5.388 -1.0334 -0.4805 -0.6802
  858MOL0     H13228   6.506   5.035   5.281  0.1654  1.0508 -0.4398
  858MOL0     H13229   6.377   5.147   5.217 -1.8680  2.9011  2.2725
  858MOL0     H13230   6.442   5.140   5.500  0.1482 -1.5509 -0.4483
  858MOL0     H13231   6.343   5.270   5.410  1.5963  2.4524 -2.3553
  858MOL0     H13232   6.556   5.359   5.296  0.1492  2.7023  2.4536
  858MOL0     H13233   6.639   5.229   5.356  0.6726 -1.5476  2.8738
  858MOL0     H13234   6.521   5.464   5.520  1.9383  2.1190  0.5583
  858MOL0     H13235   6.571   5.314   5.599 -0.1228  2.0359  1.9019
  858MOL0     H13236   6.725   5.525   5.446  0.7329 -1.3681 -0.8160
  858MOL0     H13237   6.784   5.360   5.449 -0.7186  0.3140 -1.5656
  858MOL0     H13238   5.980   4.535   5.195  1.6960 -1.0260  2.9452
  858MOL0     H13239   6.017   4.287   5.145  0.3858 -2.6316 -2.8774
  858MOL0     H13240   6.134   3.980   5.021  0.0676 -1.0950 -0.8203
  858MOL0     H13241   6.108   3.753   4.953  0.1639  0.4914  1.1691
  858MOL0     H13242   5.494   2.300   5.674 -1.6602 -0.9675 -0.9442
  858MOL0     H13243   5.328   2.350   5.518  0.9551 -4.6802 -0.7611
  858MOL0     H13244   5.113   2.483   5.160 -2.4544  1.5175 -1.5852
  858MOL0     H13245   4.984   2.524   4.985  0.5352 -0.0887  1.1550
  858MOL0     H13246   4.895   2.529   4.807 -1.0835  2.0068  0.1539
  858MOL0     H13247   4.882   2.446   4.653 -0.5043 -1.9113  3.0921
  858MOL0     H13248   4.921   2.739   4.696 -3.1149  0.6733  2.5938
  858MOL0     H13249   4.951   2.655   4.539 -3.3872  1.2305 -1.0363
  858MOL0     H13250   4.703   2.631   4.700 -1.4499  0.3948 -0.5091
  858MOL0     H13251   4.730   2.591   4.520  1.3170  0.9765 -0.1369
  858MOL0     H13252   4.596   2.786   4.539  0.8797 -1.4196  1.2195
  858MOL0     H13253   4.716   2.867   4.652 -0.7679  2.9173 -0.9912
  858MOL0     H13254   4.849   2.910   4.250  0.3330  1.1817  1.0924
  858MOL0     H13255   5.314   2.453   4.720  1.8487 -1.9621  1.1337
  858MOL0     H13256   5.456   2.393   4.917 -0.5769 -1.9672 -2.0348
  859MOL0     O13257   2.959   4.676   2.963  0.4699 -0.0833 -0.6996
  859MOL0     C13258   2.866   4.757   2.984  1.1370 -0.2560 -0.3463
  859MOL0     O13259   2.875   4.883   3.003  0.3116 -0.1799 -0.6474
  859MOL0     C13260   3.004   4.929   2.991  0.3444  0.0467 -0.2826
  859MOL0     C13261   3.053   4.966   2.873  0.6689  0.7460  0.8998
  859MOL0     C13262   3.178   5.015   2.860 -0.2384  0.2437 -0.8233
  859MOL0     C13263   3.257   5.019   2.974 -0.5365  0.6753 -0.7071
  859MOL0     O13264   3.400   5.051   2.984  0.7194  0.5158  0.4675
  859MOL0     C13265   3.482   5.010   2.875  0.1453 -0.2714 -0.1300
  859MOL0     C13266   3.484   4.849   2.859  0.0197 -0.5455 -0.3160
  859MOL0     C13267   3.594   4.805   2.761 -0.0982 -0.3854 -0.4436
  859MOL0     C13268   3.583   4.860   2.616  0.3328  0.0162  0.5221
  859MOL0     C13269   3.689   4.783   2.543 -0.5175  0.5995 -0.1032
  859MOL0     C13270   3.678   4.804   2.395  0.8248  0.8396 -0.3203
  859MOL0     C13271   3.802   4.755   2.308  0.8758 -0.1318  0.2154
  859MOL0     C13272   3.852   4.616   2.330 -0.7264 -0.4278 -0.0807
  859MOL0     N13273   3.964   4.590   2.243 -0.7047  0.1366  0.0038
  859MOL0     C13274   3.941   4.571   2.105 -0.0560  0.6788 -0.1161
  859MOL0     C13275   4.070   4.566   2.060  0.2011  0.3056 -0.3810
  859MOL0     C13276   4.107   4.547   1.912 -0.1813 -0.0397 -0.6465
  859MOL0     C13277   4.124   4.686   1.837 -0.3034 -0.6557 -0.1775
  859MOL0     C13278   4.240   4.765   1.901  0.3676 -0.1082 -0.4012
  859MOL0     C13279   4.375   4.694   1.890  0.3515  0.1996  1.4626
  859MOL0     O13280   4.488   4.777   1.894 -0.2485  0.2024 -0.0321
  859MOL0     C13281   4.552   4.805   2.017  0.2389  0.7925  0.1666
  859MOL0     C13282   4.664   4.884   2.005 -0.4509 -0.0426  1.6673
  859MOL0     C13283   4.743   4.914   2.111  0.6635  0.8510  0.1164
  859MOL0     C13284   4.699   4.894   2.244  0.0202 -0.7810 -0.4677
  859MOL0     C13285   4.771   4.951   2.360 -0.9217 -0.3325 -0.2232
  859MOL0     O13286   4.896   4.994   2.336  1.3299  0.1985 -0.0911
  859MOL0     C13287   4.966   5.074   2.424  0.4620 -0.5874  0.3456
  859MOL0     C13288   4.927   5.141   2.543  0.9062  0.0054 -0.1487
  859MOL0     C13289   4.997   5.237   2.611 -0.5127  0.1858 -0.1894
  859MOL0     C13290   5.115   5.289   2.552 -0.4423  0.9149 -0.7897
  859MOL0     O13291   5.191   5.381   2.618 -0.9528  0.1005 -0.6897
  859MOL0     C13292   5.196   5.388   2.765 -0.0714  0.4418  0.0184
  859MOL0     C13293   5.332   5.445   2.811 -0.6533  0.3677  0.4954
  859MOL0     C13294   5.437   5.345   2.846 -0.3052 -0.9204 -0.3120
  859MOL0     C13295   5.568   5.394   2.900  0.6327  0.0652  0.2192
  859MOL0     C13296   5.648   5.296   2.992 -0.6801  0.9815 -0.2530
  859MOL0     C13297   5.687   5.168   2.919  0.0939  0.3638 -0.3222
  859MOL0     C13298   5.701   5.059   3.017 -0.7778 -0.0039  0.8159
  859MOL0     C13299   5.700   4.914   2.958 -0.1729  0.2280 -0.2698
  859MOL0    Cl13300   5.743   4.792   3.081 -0.2115  0.3924 -0.2684
  859MOL0     C13301   5.157   5.240   2.424  0.0355  0.1835 -0.5809
  859MOL0     C13302   5.088   5.131   2.360 -0.0300  0.3038 -0.6495
  859MOL0     O13303   4.697   4.974   2.458 -0.2787 -0.2135  0.5123
  859MOL0     C13304   4.584   4.808   2.258  0.4878 -0.4028  0.0867
  859MOL0     C13305   4.514   4.761   2.145  0.2186 -1.1835  0.3743
  859MOL0     N13306   4.156   4.576   2.163  0.0016 -0.2624 -0.5625
  859MOL0     N13307   4.094   4.594   2.273 -0.0458 -0.0593 -0.6576
  859MOL0     C13308   3.205   4.993   3.099  1.1453 -0.0781  0.1588
  859MOL0     C13309   3.071   4.941   3.104 -1.3145  0.0843 -0.4581
  859MOL0     C13310   2.730   4.705   3.001  1.1396  0.4748  0.3166
  859MOL0     C13311   2.711   4.571   3.003  0.2943  0.4609 -1.9126
  859MOL0     C13312   2.586   4.510   3.025  0.4239 -0.1303  0.1033
  859MOL0     C13313   2.469   4.582   3.021  0.0873 -0.2197  1.4741
  859MOL0     O13314   2.348   4.522   3.031 -0.6894 -0.4311  0.5415
  859MOL0     C13315   2.232   4.603   3.037  0.2703  0.1465  0.0788
  859MOL0     C13316   2.107   4.506   3.049 -1.5940  0.2638  0.5825
  859MOL0     C13317   1.969   4.583   3.079 -0.8938  0.1661 -0.7686
  859MOL0     C13318   1.835   4.508   3.068 -0.3772  1.0880 -0.5556
  859MOL0     C13319   1.813   4.446   2.940  0.1709  0.5329 -0.5789
  859MOL0     C13320   1.786   4.403   2.828  0.2993 -0.0021 -0.1045
  859MOL0     C13321   2.487   4.722   3.024 -0.3940  0.0132 -0.5520
  859MOL0     C13322   2.611   4.783   3.010  0.4066  1.0230  0.0297
  859MOL0     H13323   2.995   4.960   2.782  0.8706  0.7750  0.7676
  859MOL0     H13324   3.225   5.053   2.770 -0.4154 -1.3290 -1.6175
  859MOL0     H13325   3.584   5.043   2.898 -0.3691  0.9535  0.4700
  859MOL0     H13326   3.447   5.054   2.781 -2.7870 -2.1550 -0.0594
  859MOL0     H13327   3.390   4.812   2.818 -2.4675  0.1402  4.1648
  859MOL0     H13328   3.492   4.801   2.957 -3.6349  3.1859  2.0843
  859MOL0     H13329   3.590   4.696   2.756  0.4897 -0.5198  1.3742
  859MOL0     H13330   3.692   4.836   2.798  0.6244 -3.0970  0.1257
  859MOL0     H13331   3.479   4.846   2.586  0.5849  1.4136 -1.1108
  859MOL0     H13332   3.609   4.964   2.597  2.5310 -0.9539 -2.7234
  859MOL0     H13333   3.680   4.676   2.561  0.7439  0.6531  1.0753
  859MOL0     H13334   3.788   4.820   2.574 -0.9782  4.0431 -2.1915
  859MOL0     H13335   3.664   4.909   2.370  1.5740  0.5428 -2.1657
  859MOL0     H13336   3.594   4.744   2.359 -0.3531  1.5340  1.1760
  859MOL0     H13337   3.782   4.766   2.202 -0.1108 -1.0132  0.2944
  859MOL0     H13338   3.879   4.831   2.322 -1.1073  1.7171  1.7375
  859MOL0     H13339   3.775   4.541   2.311 -0.9168 -0.3283  0.3014
  859MOL0     H13340   3.892   4.599   2.431  2.1886  5.1068  0.1192
  859MOL0     H13341   3.850   4.560   2.047  0.7119  0.8955 -1.4190
  859MOL0     H13342   4.031   4.484   1.863 -0.4652  1.1049 -1.7598
  859MOL0     H13343   4.193   4.481   1.898 -3.0554 -4.7354  1.1056
  859MOL0     H13344   4.029   4.737   1.854 -0.1202 -0.8771  1.6702
  859MOL0     H13345   4.156   4.674   1.733  3.5348 -1.7214  0.9424
  859MOL0     H13346   4.236   4.865   1.856  0.3975 -1.0788 -2.6682
  859MOL0     H13347   4.221   4.779   2.008  2.3089  0.7712 -0.1146
  859MOL0     H13348   4.380   4.655   1.788 -0.5072  0.6462  1.2401
  859MOL0     H13349   4.380   4.616   1.966 -0.5399  1.2077  2.5925
  859MOL0     H13350   4.695   4.911   1.905  0.3548 -0.8585  1.6825
  859MOL0     H13351   4.835   4.963   2.082  1.5409 -0.4107  0.6479
  859MOL0     H13352   4.834   5.125   2.597  2.3558  1.0682  2.9013
  859MOL0     H13353   4.962   5.279   2.705 -0.7977  1.8882 -1.0189
  859MOL0     H13354   5.173   5.288   2.803  0.0452  0.5651  0.4216
  859MOL0     H13355   5.108   5.444   2.798 -2.6057 -1.8302 -2.3693
  859MOL0     H13356   5.322   5.526   2.884  2.9498  1.0938  0.3904
  859MOL0     H13357   5.361   5.502   2.722 -2.3010 -0.3510 -0.5587
  859MOL0     H13358   5.451   5.292   2.751 -3.0866 -1.0521 -0.7395
  859MOL0     H13359   5.387   5.274   2.913  1.1846 -1.4614  0.2582
  859MOL0     H13360   5.632   5.437   2.822  0.6386  3.5649  1.9439
  859MOL0     H13361   5.545   5.471   2.975 -0.3850 -3.0452  3.3892
  859MOL0     H13362   5.576   5.274   3.071 -1.0516  2.8958 -0.0229
  859MOL0     H13363   5.729   5.342   3.050 -0.9217  1.0633  0.0190
  859MOL0     H13364   5.783   5.199   2.876  0.7830  0.5091  1.2635
  859MOL0     H13365   5.631   5.127   2.835  0.3179  0.2883 -0.4358
  859MOL0     H13366   5.795   5.073   3.071 -1.1946  3.2187  0.8779
  859MOL0     H13367   5.624   5.053   3.095 -3.1921 -0.2881 -1.4656
  859MOL0     H13368   5.754   4.918   2.863 -0.7067  1.2501 -0.5455
  859MOL0     H13369   5.601   4.885   2.920  0.1633  2.2383 -3.0060
  859MOL0     H13370   5.252   5.272   2.382 -0.3009 -0.8757 -2.2590
  859MOL0     H13371   5.113   5.088   2.263 -2.1671  1.2272 -1.6874
  859MOL0     H13372   4.546   4.781   2.356  1.9352 -2.8641  0.0400
  859MOL0     H13373   4.419   4.711   2.165 -1.5593  2.6125  2.7006
  859MOL0     H13374   3.268   5.003   3.186  1.7713  2.9445 -0.5211
  859MOL0     H13375   3.029   4.907   3.198  0.9976 -1.9061 -0.0070
  859MOL0     H13376   2.803   4.513   3.007  0.7592  1.2238 -1.1596
  859MOL0     H13377   2.557   4.408   3.051 -2.5242  0.2472 -1.3224
  859MOL0     H13378   2.239   4.672   2.952  0.1753  0.6958  0.5109
  859MOL0     H13379   2.238   4.655   3.133  1.0443 -0.6981  0.5084
  859MOL0     H13380   2.093   4.465   2.948 -1.7030  3.5857 -0.8773
  859MOL0     H13381   2.117   4.423   3.119 -2.7008 -1.1593 -0.8557
  859MOL0     H13382   1.954   4.682   3.034  0.3491  2.0954  2.6585
  859MOL0     H13383   1.973   4.605   3.186 -1.3920 -0.5061 -0.6087
  859MOL0     H13384   1.839   4.428   3.143 -1.4845  1.0256 -0.5532
  859MOL0     H13385   1.746   4.566   3.093 -1.7397 -0.2096 -2.2142
  859MOL0     H13386   1.772   4.345   2.739  3.8408  0.5291 -1.1789
  859MOL0     H13387   2.410   4.799   3.023  0.8474  1.2949 -0.5674
  859MOL0     H13388   2.615   4.891   3.016  3.9967  0.9832  0.6945
  860MOL0     O13389   4.320   8.926   3.618 -0.6137  0.8025  0.1321
  860MOL0     C13390   4.421   8.996   3.611 -0.3887 -0.3606 -0.0984
  860MOL0     O13391   4.553   8.957   3.591  0.5444  0.8272 -0.0056
  860MOL0     C13392   4.581   8.820   3.591 -0.0846 -0.8954  0.0878
  860MOL0     C13393   4.531   8.729   3.684 -0.2772  0.6301  0.7863
  860MOL0     C13394   4.573   8.594   3.677 -0.9118 -0.4678  0.9729
  860MOL0     C13395   4.665   8.559   3.579  0.0123 -0.1012  0.3858
  860MOL0     O13396   4.699   8.432   3.588  0.0591  0.4288 -0.3542
  860MOL0     C13397   4.789   8.373   3.497 -0.6437  0.0964  0.5429
  860MOL0     C13398   4.803   8.227   3.518 -1.0571 -0.7650 -0.3389
  860MOL0     C13399   4.669   8.148   3.503 -0.5805  0.2621  0.0500
  860MOL0     C13400   4.655   8.085   3.358 -0.1846  0.7109 -0.3690
  860MOL0     C13401   4.554   7.965   3.356 -0.1688 -0.7435  1.0179
  860MOL0     C13402   4.406   8.027   3.373 -0.3849 -0.7524 -0.4547
  860MOL0     C13403   4.306   7.914   3.377 -0.2688  0.6608 -0.1192
  860MOL0     C13404   4.165   7.964   3.391  0.0108 -0.2672 -1.5730
  860MOL0     N13405   4.056   7.870   3.356  0.3029 -0.0436 -0.3897
  860MOL0     C13406   3.962   7.835   3.455 -0.4954  0.6458  0.5919
  860MOL0     C13407   3.875   7.752   3.387  0.8806 -0.2454 -0.2690
  860MOL0     C13408   3.743   7.688   3.439 -0.3688  0.1399  0.4098
  860MOL0     C13409   3.622   7.772   3.420  0.1227  0.4149 -0.1679
  860MOL0     C13410   3.575   7.783   3.285  0.4388  0.1734  1.2613
  860MOL0     C13411   3.427   7.843   3.294  0.4899 -1.2321 -0.0569
  860MOL0     O13412   3.415   7.974   3.350 -0.1851  0.1612  0.0229
  860MOL0     C13413   3.446   8.079   3.268 -0.1881  0.3599  0.4381
  860MOL0     C13414   3.446   8.197   3.337 -0.3116 -0.7302  0.3796
  860MOL0     C13415   3.481   8.317   3.267  0.5422 -0.6364  0.1156
  860MOL0     C13416   3.541   8.312   3.142 -0.9729  0.4249  0.4094
  860MOL0     C13417   3.585   8.431   3.065 -0.2403  0.7157 -0.0042
  860MOL0     O13418   3.563   8.557   3.127 -0.4521  0.0903  0.1353
  860MOL0     C13419   3.586   8.681   3.063  0.1945  0.5024  0.1780
  860MOL0     C13420   3.680   8.704   2.958  0.6766  0.1118  0.6300
  860MOL0     C13421   3.687   8.825   2.893 -0.6973  0.4703 -0.2052
  860MOL0     C13422   3.625   8.940   2.930 -0.7324 -0.5437 -0.6947
  860MOL0     O13423   3.643   9.063   2.877 -0.2979  0.0370 -0.2305
  860MOL0     C13424   3.644   9.171   2.966 -0.3160 -0.3851  0.5535
  860MOL0     C13425   3.513   9.264   2.968 -0.6548 -0.3946  0.6449
  860MOL0     C13426   3.526   9.357   3.090  0.4944 -0.3499  0.2115
  860MOL0     C13427   3.383   9.369   3.159  0.0815  0.3634 -0.8669
  860MOL0     C13428   3.279   9.422   3.064 -0.6668 -0.0180  0.2373
  860MOL0     C13429   3.142   9.377   3.108 -0.1633  0.6336  1.4183
  860MOL0     C13430   3.115   9.224   3.088 -1.3914  0.0435  0.2294
  860MOL0     C13431   2.967   9.196   3.113  0.0843 -1.0170  1.2396
  860MOL0    Cl13432   2.877   9.276   2.985  0.9694 -0.0121  0.2173
  860MOL0     C13433   3.533   8.920   3.036 -0.2415  0.1935  0.3140
  860MOL0     C13434   3.519   8.801   3.106 -0.5265  0.8031  0.1303
  860MOL0     O13435   3.624   8.419   2.942  0.0340 -0.5722  0.7891
  860MOL0     C13436   3.557   8.189   3.085  0.1430  0.9543  0.1234
  860MOL0     C13437   3.506   8.074   3.137  1.5828  0.3313 -0.3539
  860MOL0     N13438   3.919   7.746   3.258 -0.6673  0.5454  0.0488
  860MOL0     N13439   4.023   7.815   3.239  0.5041  0.0947 -0.3384
  860MOL0     C13440   4.710   8.645   3.473  0.3148  0.5333  0.8326
  860MOL0     C13441   4.663   8.772   3.486 -0.7795  0.1083  0.1947
  860MOL0     C13442   4.392   9.144   3.623  0.1911 -0.5581 -0.8927
  860MOL0     C13443   4.491   9.247   3.602  0.1576  0.6318  0.1072
  860MOL0     C13444   4.457   9.379   3.630 -1.0458  0.6424  0.3244
  860MOL0     C13445   4.332   9.423   3.674  1.1088  0.0602  0.7594
  860MOL0     O13446   4.308   9.558   3.690 -0.6717 -0.5336  0.1684
  860MOL0     C13447   4.187   9.616   3.730  0.4338  0.0567 -0.3464
  860MOL0     C13448   4.189   9.594   3.887  0.5630 -0.4446  0.1566
  860MOL0     C13449   4.041   9.580   3.942  1.0646  0.6584  0.3509
  860MOL0     C13450   3.973   9.720   3.941 -0.2788 -0.3343 -1.0810
  860MOL0     C13451   3.927   9.761   3.808  0.2560 -0.8458 -0.1903
  860MOL0     C13452   3.894   9.785   3.694 -0.5061  0.1029  0.0993
  860MOL0     C13453   4.236   9.330   3.682  0.0402  0.1851 -0.1768
  860MOL0     C13454   4.263   9.187   3.654  0.5602  0.0316  0.4748
  860MOL0     H13455   4.471   8.766   3.766 -1.6217  0.0948  0.0809
  860MOL0     H13456   4.559   8.522   3.757 -1.5800 -0.7084  0.6468
  860MOL0     H13457   4.891   8.409   3.512 -0.4958 -0.5200  1.0848
  860MOL0     H13458   4.756   8.387   3.394  0.3504 -0.9388  0.0582
  860MOL0     H13459   4.860   8.207   3.609  1.2484  0.8442 -1.3372
  860MOL0     H13460   4.878   8.200   3.443 -1.3367 -0.8307 -0.5958
  860MOL0     H13461   4.582   8.212   3.517  1.4882  2.7450  2.6931
  860MOL0     H13462   4.674   8.059   3.567  2.4935 -0.1824 -0.6637
  860MOL0     H13463   4.621   8.169   3.297 -0.4193  1.2599  0.4866
  860MOL0     H13464   4.745   8.041   3.314 -1.6636 -0.5284 -2.3283
  860MOL0     H13465   4.573   7.908   3.447 -1.4706  1.4867  2.7823
  860MOL0     H13466   4.570   7.905   3.266 -0.8445  2.2299 -1.2440
  860MOL0     H13467   4.389   8.102   3.295  0.1930  2.2169  2.0266
  860MOL0     H13468   4.420   8.077   3.470  0.2126  0.2874 -1.0503
  860MOL0     H13469   4.312   7.852   3.287  1.4712 -2.2804  1.8530
  860MOL0     H13470   4.330   7.854   3.465 -1.5963 -0.4875 -0.4974
  860MOL0     H13471   4.161   8.046   3.318 -1.6886 -0.8563 -2.1908
  860MOL0     H13472   4.154   8.002   3.493  4.1797 -1.8190 -0.3547
  860MOL0     H13473   3.958   7.844   3.563 -0.9216  1.6596  0.5028
  860MOL0     H13474   3.754   7.679   3.548 -2.0070 -0.7410  0.5456
  860MOL0     H13475   3.736   7.585   3.403 -0.6603 -1.1394  3.6932
  860MOL0     H13476   3.637   7.868   3.469 -0.3014 -0.0930  1.0020
  860MOL0     H13477   3.542   7.714   3.467  1.1572 -1.4183 -0.5589
  860MOL0     H13478   3.643   7.836   3.218  0.5023 -0.4611  0.8204
  860MOL0     H13479   3.576   7.683   3.242 -0.2968  0.2571  1.0267
  860MOL0     H13480   3.377   7.781   3.370 -0.2909 -0.7690 -0.1855
  860MOL0     H13481   3.368   7.842   3.202  1.7264  0.3286 -0.9100
  860MOL0     H13482   3.433   8.182   3.444  1.7808 -1.3446  0.6068
  860MOL0     H13483   3.461   8.413   3.314 -1.5934 -1.2871  0.6712
  860MOL0     H13484   3.744   8.631   2.909 -0.8632 -2.4209  2.1342
  860MOL0     H13485   3.767   8.833   2.820  1.1061 -0.3473  1.5880
  860MOL0     H13486   3.724   9.238   2.933 -0.3530 -1.2264 -1.3827
  860MOL0     H13487   3.677   9.130   3.062  3.5933 -1.7440 -1.1591
  860MOL0     H13488   3.428   9.196   2.969  0.3856 -1.7375  1.5500
  860MOL0     H13489   3.523   9.320   2.875  1.9134  0.5497  1.3842
  860MOL0     H13490   3.558   9.451   3.045 -0.6685 -0.8766 -1.8879
  860MOL0     H13491   3.602   9.332   3.165  0.5167 -0.3042  0.2040
  860MOL0     H13492   3.360   9.264   3.175  0.4594  0.2075 -1.3191
  860MOL0     H13493   3.384   9.426   3.252  2.1046  3.2771 -2.4622
  860MOL0     H13494   3.303   9.390   2.963 -0.7303  2.1238 -0.5038
  860MOL0     H13495   3.293   9.530   3.055  0.8164 -0.2069  0.0012
  860MOL0     H13496   3.077   9.438   3.045  0.0129 -1.4624 -0.9614
  860MOL0     H13497   3.114   9.412   3.208 -1.3999  1.3225  0.8536
  860MOL0     H13498   3.141   9.186   2.988 -0.2157  0.3634  0.4047
  860MOL0     H13499   3.161   9.173   3.173 -1.3491  2.7171  1.9151
  860MOL0     H13500   2.930   9.241   3.205  2.6761  4.0811  0.0979
  860MOL0     H13501   2.961   9.087   3.104  2.1024 -1.0007 -2.7700
  860MOL0     H13502   3.479   9.008   3.071 -1.2141  0.3878 -1.5301
  860MOL0     H13503   3.441   8.794   3.181  0.1034 -1.7262  0.6691
  860MOL0     H13504   3.617   8.181   2.995  3.2987  1.8865  2.0008
  860MOL0     H13505   3.504   7.983   3.078 -2.2846  0.6560 -0.9733
  860MOL0     H13506   4.766   8.612   3.387  0.3300  1.2950  0.5434
  860MOL0     H13507   4.690   8.847   3.412 -2.5848  2.1646  1.4831
  860MOL0     H13508   4.589   9.222   3.560  0.1242 -0.3361  0.5892
  860MOL0     H13509   4.533   9.453   3.606  0.2238 -1.5385 -3.0181
  860MOL0     H13510   4.102   9.573   3.677  0.4753  0.7720 -1.0069
  860MOL0     H13511   4.181   9.724   3.713  1.0901  0.1375 -0.1302
  860MOL0     H13512   4.236   9.498   3.908  0.1174 -0.6307  0.3142
  860MOL0     H13513   4.250   9.674   3.929  2.0539 -0.8744 -1.0758
  860MOL0     H13514   4.049   9.552   4.047 -1.8360  4.5535  1.8660
  860MOL0     H13515   3.969   9.515   3.891 -1.8737  2.1757  2.2634
  860MOL0     H13516   3.879   9.708   3.997 -0.6117 -0.2756 -1.6144
  860MOL0     H13517   4.034   9.800   3.983  0.9247 -0.1130 -3.1367
  860MOL0     H13518   3.890   9.811   3.590  1.8566 -0.7831 -0.2665
  860MOL0     H13519   4.136   9.344   3.720 -0.8298 -5.1729  0.3174
  860MOL0     H13520   4.195   9.111   3.691  0.4199  0.3627  0.9141
  861MOL0     O13521   3.439   5.207   3.500 -0.0707  0.5257 -0.7381
  861MOL0     C13522   3.350   5.130   3.464  0.1990 -0.7549  0.3061
  861MOL0     O13523   3.374   5.006   3.393 -0.1068 -0.6443  0.8824
  861MOL0     C13524   3.496   4.987   3.341  0.5558 -1.1534 -0.2318
  861MOL0     C13525   3.566   4.876   3.381 -0.5381 -0.5554  0.6066
  861MOL0     C13526   3.691   4.838   3.327  0.2460  0.3666 -0.0520
  861MOL0     C13527   3.763   4.927   3.246  0.4009  0.8333 -0.0155
  861MOL0     O13528   3.892   4.899   3.211 -0.5441 -1.0198  0.3474
  861MOL0     C13529   3.974   4.999   3.139 -0.5316  0.1798  0.1320
  861MOL0     C13530   4.090   4.915   3.087 -0.4314  0.4072  0.2203
  861MOL0     C13531   4.162   4.832   3.194  0.0924  0.8166 -0.5977
  861MOL0     C13532   4.266   4.747   3.127 -0.2030 -0.4876  0.1512
  861MOL0     C13533   4.332   4.654   3.235 -0.3646 -0.3384  0.7248
  861MOL0     C13534   4.465   4.613   3.169 -0.9871 -0.2459  0.3616
  861MOL0     C13535   4.557   4.537   3.269  0.1171 -1.3849  0.3282
  861MOL0     C13536   4.484   4.421   3.345  0.9775 -0.5902 -0.2331
  861MOL0     N13537   4.558   4.369   3.455 -0.9757  0.3604 -0.2763
  861MOL0     C13538   4.530   4.380   3.596  0.1176 -0.0111  0.6438
  861MOL0     C13539   4.596   4.284   3.656 -0.1440  0.4331 -0.6051
  861MOL0     C13540   4.586   4.259   3.809 -0.8293  0.4827 -0.0498
  861MOL0     C13541   4.691   4.341   3.879 -0.4165  0.2858  0.0062
  861MOL0     C13542   4.715   4.293   4.018  0.0646  0.0077 -0.6575
  861MOL0     C13543   4.770   4.159   4.045 -0.6399  0.2240  1.0372
  861MOL0     O13544   4.777   4.158   4.190 -0.8877 -1.1009  0.7217
  861MOL0     C13545   4.846   4.056   4.249  0.2452  0.3731 -0.6795
  861MOL0     C13546   4.872   3.934   4.182 -0.1468 -0.1450 -0.5423
  861MOL0     C13547   4.952   3.830   4.247  0.2453 -0.2588 -0.6437
  861MOL0     C13548   4.989   3.847   4.384 -0.5275  0.5711  0.6194
  861MOL0     C13549   5.071   3.746   4.453 -0.1986 -0.0994 -0.1291
  861MOL0     O13550   5.061   3.734   4.586 -0.6297  0.2873 -0.1440
  861MOL0     C13551   5.152   3.654   4.638  0.0838  0.3844  0.2675
  861MOL0     C13552   5.133   3.515   4.639  0.2154  1.0615  0.4281
  861MOL0     C13553   5.231   3.433   4.699  0.2677  0.4124  0.6596
  861MOL0     C13554   5.337   3.490   4.766  0.6202  0.0975  0.8344
  861MOL0     O13555   5.428   3.406   4.828  0.4435 -0.5240 -0.2410
  861MOL0     C13556   5.530   3.363   4.745 -0.1413  0.1652  0.6259
  861MOL0     C13557   5.616   3.236   4.772  0.1735 -1.5035  0.1831
  861MOL0     C13558   5.588   3.146   4.879 -0.0307  0.3091  0.0569
  861MOL0     C13559   5.653   3.008   4.877 -0.3771 -0.1129 -0.5301
  861MOL0     C13560   5.669   2.952   5.016 -0.2202 -0.0552 -0.1884
  861MOL0     C13561   5.776   2.838   5.028  0.3702 -0.5258 -0.2601
  861MOL0     C13562   5.742   2.697   4.979 -0.3324 -0.0393 -0.0714
  861MOL0     C13563   5.866   2.613   4.964  0.1915 -0.0718 -0.4305
  861MOL0    Cl13564   5.867   2.536   5.128  0.3671  0.3108  0.0419
  861MOL0     C13565   5.340   3.625   4.789  1.0497 -0.5978  0.8055
  861MOL0     C13566   5.245   3.707   4.729 -0.8466  0.2891  0.8073
  861MOL0     O13567   5.144   3.676   4.383 -0.1642  0.3431  0.0586
  861MOL0     C13568   4.960   3.967   4.453  0.0804  0.5198  0.5592
  861MOL0     C13569   4.893   4.073   4.379 -0.1129 -0.3208 -0.2030
  861MOL0     N13570   4.665   4.215   3.556 -0.0987 -0.2683 -0.1343
  861MOL0     N13571   4.648   4.269   3.439 -1.0620 -0.1240  0.8736
  861MOL0     C13572   3.682   5.031   3.195  0.3184 -0.3199 -0.0079
  861MOL0     C13573   3.550   5.065   3.244 -0.5936  0.0337  0.6256
  861MOL0     C13574   3.206   5.175   3.476  0.6651 -0.7643 -0.6754
  861MOL0     C13575   3.165   5.307   3.470  0.5424 -0.4858 -0.4123
  861MOL0     C13576   3.024   5.336   3.496  0.0238 -0.4922 -0.4646
  861MOL0     C13577   2.932   5.230   3.519 -0.5188  0.0630  0.1000
  861MOL0     O13578   2.800   5.252   3.531  0.9125 -0.5982  0.3839
  861MOL0     C13579   2.725   5.342   3.440 -0.2641 -0.2906 -0.7587
  861MOL0     C13580   2.722   5.285   3.294 -0.2789 -1.4466  0.2438
  861MOL0     C13581   2.673   5.134   3.292  0.3835 -0.2997  0.1880
  861MOL0     C13582   2.513   5.121   3.308  0.0144 -0.8011 -0.0633
  861MOL0     C13583   2.484   4.989   3.287  0.0277  0.4620 -0.9703
  861MOL0     C13584   2.448   4.878   3.281  0.1641  0.4263  0.8581
  861MOL0     C13585   2.982   5.102   3.531  1.0615  0.2888 -0.5919
  861MOL0     C13586   3.118   5.076   3.504  0.4136  0.2614 -0.5007
  861MOL0     H13587   3.512   4.809   3.446  0.2900 -2.4780 -0.5743
  861MOL0     H13588   3.750   4.751   3.355  3.5348  1.2872 -3.3359
  861MOL0     H13589   4.028   5.072   3.200  0.0165 -0.8094  0.8677
  861MOL0     H13590   3.929   5.055   3.057  2.9819  3.2924  0.0637
  861MOL0     H13591   4.147   4.992   3.034 -0.6759 -0.6202 -1.5749
  861MOL0     H13592   4.058   4.843   3.012  1.8611 -0.8165  0.3147
  861MOL0     H13593   4.096   4.753   3.232  1.8503 -0.6982 -0.5785
  861MOL0     H13594   4.198   4.894   3.277 -0.5891 -1.7380  1.7439
  861MOL0     H13595   4.219   4.671   3.065 -0.8640 -2.0210  2.4243
  861MOL0     H13596   4.336   4.798   3.059 -0.4583 -1.6403 -1.0092
  861MOL0     H13597   4.265   4.570   3.258  0.6502 -0.3265  4.4762
  861MOL0     H13598   4.350   4.713   3.325 -1.6879  0.9894  0.1546
  861MOL0     H13599   4.520   4.697   3.125  0.3698 -2.0264 -1.5242
  861MOL0     H13600   4.437   4.550   3.084  0.5075 -0.6800  0.1737
  861MOL0     H13601   4.643   4.499   3.213 -0.1319  0.9895 -1.8365
  861MOL0     H13602   4.595   4.619   3.332  2.6832  1.0481 -3.9088
  861MOL0     H13603   4.458   4.345   3.270  0.6817 -0.6218 -0.1020
  861MOL0     H13604   4.389   4.460   3.382  1.0444  2.5355 -2.9129
  861MOL0     H13605   4.459   4.449   3.642  0.2643  1.9253 -1.8215
  861MOL0     H13606   4.599   4.151   3.817  0.1758  0.3515 -2.4620
  861MOL0     H13607   4.486   4.290   3.841 -0.7376  0.8211 -0.0892
  861MOL0     H13608   4.662   4.446   3.876 -1.1319  0.1624  1.4818
  861MOL0     H13609   4.783   4.323   3.824 -1.0285 -1.2387 -0.5677
  861MOL0     H13610   4.794   4.356   4.062  0.2225  0.9605 -2.2292
  861MOL0     H13611   4.623   4.314   4.072  0.3914 -1.8086  0.7099
  861MOL0     H13612   4.867   4.149   3.995 -1.6071 -3.7511 -0.3582
  861MOL0     H13613   4.696   4.087   4.010 -3.7488  2.5044  2.4775
  861MOL0     H13614   4.835   3.906   4.084  0.9849  1.8483 -1.6005
  861MOL0     H13615   4.961   3.736   4.195  0.8113 -0.2452 -0.5703
  861MOL0     H13616   5.046   3.480   4.584 -0.7348  4.2836 -0.3547
  861MOL0     H13617   5.219   3.325   4.698 -1.5614  0.5738  0.8739
  861MOL0     H13618   5.602   3.446   4.744 -0.3661  0.3605 -0.7504
  861MOL0     H13619   5.496   3.362   4.642 -0.8884 -0.6529  0.8678
  861MOL0     H13620   5.720   3.269   4.782 -0.2386  0.7569 -1.8850
  861MOL0     H13621   5.617   3.174   4.681  3.9215 -0.6209 -0.5483
  861MOL0     H13622   5.480   3.133   4.867 -0.1115  0.6242  0.3936
  861MOL0     H13623   5.595   3.212   4.966  2.4179  3.9840 -2.6389
  861MOL0     H13624   5.603   2.937   4.810  0.1207  1.5780 -2.7989
  861MOL0     H13625   5.747   3.026   4.824  0.3450  0.6951  0.9523
  861MOL0     H13626   5.572   2.944   5.066 -1.1548  1.7351 -1.5693
  861MOL0     H13627   5.719   3.025   5.080 -1.8694  0.8025  0.1809
  861MOL0     H13628   5.817   2.838   5.130  3.0502  2.7239 -1.1697
  861MOL0     H13629   5.859   2.878   4.969 -0.5309 -0.3127 -1.4246
  861MOL0     H13630   5.660   2.647   5.030 -0.3596  2.3172  2.4706
  861MOL0     H13631   5.704   2.714   4.878 -0.0645  1.0525 -0.0034
  861MOL0     H13632   5.958   2.662   4.930 -0.4727  2.2125  0.8494
  861MOL0     H13633   5.851   2.537   4.887 -1.1711  1.1324 -1.4217
  861MOL0     H13634   5.419   3.678   4.842  0.7262 -0.6486  1.3459
  861MOL0     H13635   5.236   3.815   4.728  1.3018  0.5150 -0.1981
  861MOL0     H13636   5.000   3.997   4.549 -0.0957  3.1910 -0.1169
  861MOL0     H13637   4.882   4.165   4.435  4.0780  0.4179 -0.2243
  861MOL0     H13638   3.729   5.111   3.139  0.7745  0.4735  1.4541
  861MOL0     H13639   3.502   5.150   3.196  2.5131  1.3022 -0.4871
  861MOL0     H13640   3.228   5.395   3.459  0.2901  0.0903  2.0359
  861MOL0     H13641   2.998   5.441   3.499  4.2196  0.7170  1.5065
  861MOL0     H13642   2.773   5.441   3.444 -2.4872  0.8107  0.3426
  861MOL0     H13643   2.620   5.360   3.462 -0.6170  1.3520 -3.3038
  861MOL0     H13644   2.661   5.350   3.231 -0.7211 -1.7176  0.3891
  861MOL0     H13645   2.825   5.294   3.260 -0.3683  3.3341  0.5763
  861MOL0     H13646   2.715   5.082   3.379  0.6531 -2.1896 -1.0299
  861MOL0     H13647   2.710   5.091   3.199 -0.5279  0.4691 -0.5532
  861MOL0     H13648   2.481   5.149   3.409  0.6228  0.3709 -0.1825
  861MOL0     H13649   2.468   5.178   3.227 -0.0026  1.1451  1.2558
  861MOL0     H13650   2.415   4.775   3.280  1.3759 -0.0308 -1.7088
  861MOL0     H13651   2.910   5.026   3.560  1.8499 -0.5355 -0.7334
  861MOL0     H13652   3.144   4.971   3.497 -1.8764 -0.5548  1.9467
  862MOL0     O13653   3.892   8.393   5.818  0.5838 -0.3898  0.5382
  862MOL0     C13654   3.968   8.482   5.778  0.0141 -0.8438  0.4826
  862MOL0     O13655   3.938   8.618   5.777  0.0855 -0.8942 -0.1125
  862MOL0     C13656   3.831   8.657   5.850  0.5997 -0.6619 -0.4281
  862MOL0     C13657   3.851   8.694   5.992 -0.6789  0.5881  0.3847
  862MOL0     C13658   3.739   8.738   6.065 -0.2457  0.5110 -0.3431
  862MOL0     C13659   3.605   8.736   6.008  0.5489 -0.0047 -0.7627
  862MOL0     O13660   3.487   8.777   6.067 -0.2111 -0.5374  0.0277
  862MOL0     C13661   3.495   8.796   6.209  0.5374 -0.7027  0.8275
  862MOL0     C13662   3.524   8.937   6.260  0.3918  0.0664  0.6176
  862MOL0     C13663   3.459   9.040   6.173 -0.2978 -0.1955  0.6955
  862MOL0     C13664   3.460   9.180   6.225  0.1699 -0.8374 -0.5339
  862MOL0     C13665   3.594   9.245   6.206 -0.6439  0.8267 -0.3182
  862MOL0     C13666   3.611   9.369   6.284  0.0397 -0.9427  0.3185
  862MOL0     C13667   3.521   9.490   6.241 -0.2767  0.3145  0.2504
  862MOL0     C13668   3.582   9.626   6.267 -0.8356 -0.1753 -1.0060
  862MOL0     N13669   3.714   9.667   6.205  0.1245 -0.2328  0.5999
  862MOL0     C13670   3.724   9.692   6.072 -0.8230 -0.2446 -0.0432
  862MOL0     C13671   3.850   9.748   6.060 -0.3667  0.3797  0.0416
  862MOL0     C13672   3.898   9.825   5.942  0.3743 -0.0004 -0.2039
  862MOL0     C13673   3.909   9.971   5.960 -0.5331 -0.0118  0.4688
  862MOL0     C13674   4.046  10.023   6.012  0.7344  0.0997 -0.1825
  862MOL0     C13675   4.055  10.165   6.036 -0.2930 -0.5484 -0.4620
  862MOL0     O13676   4.047  10.226   5.906  0.1425  0.1366  0.3869
  862MOL0     C13677   4.059  10.362   5.904 -0.3232  0.1136  1.0797
  862MOL0     C13678   4.185  10.406   5.904 -2.0595  0.1447  0.4150
  862MOL0     C13679   4.225  10.542   5.891 -1.5186  0.3656 -0.7734
  862MOL0     C13680   4.120  10.631   5.867  0.5509 -0.2228 -0.5345
  862MOL0     C13681   4.160  10.778   5.864  0.2114 -0.0590  0.3469
  862MOL0     O13682   4.286  10.809   5.900 -1.0252  0.0495 -0.5370
  862MOL0     C13683   4.321  10.945   5.892 -0.9845  0.0355 -0.1536
  862MOL0     C13684   4.251  11.044   5.953  0.4034 -0.3647  0.0676
  862MOL0     C13685   4.309  11.175   5.941  0.3851  0.1603 -0.8241
  862MOL0     C13686   4.417  11.209   5.881 -0.8195 -0.0093  0.6906
  862MOL0     O13687   4.468  11.336   5.886  0.0765  0.4146 -0.2241
  862MOL0     C13688   4.609  11.361   5.852 -0.6223 -0.5850  0.1775
  862MOL0     C13689   4.652  11.502   5.877  0.5982 -0.3058  0.5394
  862MOL0     C13690   4.648  11.542   6.027 -0.1326  0.3828  1.3382
  862MOL0     C13691   4.707  11.675   6.055 -0.1444 -0.0002 -0.2415
  862MOL0     C13692   4.697  11.722   6.200  1.0132  0.5603 -0.2038
  862MOL0     C13693   4.778  11.641   6.314 -0.0968  0.0869 -1.1140
  862MOL0     C13694   4.742  11.692   6.462  0.1204  0.1514 -0.5231
  862MOL0     C13695   4.857  11.768   6.527 -0.0824  0.0582  0.5532
  862MOL0    Cl13696   4.980  11.654   6.584 -0.5996  0.1386 -0.0513
  862MOL0     C13697   4.490  11.101   5.813  0.1123 -0.9026 -0.1079
  862MOL0     C13698   4.442  10.970   5.818 -0.6235 -0.2153  0.1068
  862MOL0     O13699   4.080  10.867   5.831  0.1227  0.2055  0.1231
  862MOL0     C13700   3.984  10.585   5.839  0.6205 -1.2714 -0.5183
  862MOL0     C13701   3.954  10.450   5.866 -0.0074  0.0923  0.2181
  862MOL0     N13702   3.916   9.750   6.185  0.3860 -0.0514 -0.5094
  862MOL0     N13703   3.832   9.698   6.268  0.1656  0.6185 -1.3896
  862MOL0     C13704   3.590   8.695   5.875 -0.0677 -0.6700 -0.7305
  862MOL0     C13705   3.695   8.659   5.795  0.1887 -0.8225  0.3740
  862MOL0     C13706   4.098   8.437   5.716 -0.6091  0.6011 -0.3032
  862MOL0     C13707   4.161   8.315   5.750  0.3963  0.1076  0.4735
  862MOL0     C13708   4.276   8.287   5.687  0.4752  0.4014 -0.3110
  862MOL0     C13709   4.341   8.360   5.592  0.0248 -0.8966  0.5300
  862MOL0     O13710   4.450   8.322   5.515  0.8723  0.0761 -0.6565
  862MOL0     C13711   4.425   8.201   5.442 -0.2308 -0.2436 -0.6015
  862MOL0     C13712   4.527   8.186   5.329 -0.0548 -0.0797 -0.8879
  862MOL0     C13713   4.498   8.282   5.199  0.0814  0.0502 -0.1535
  862MOL0     C13714   4.444   8.215   5.072 -0.2061 -0.5857 -0.1964
  862MOL0     C13715   4.343   8.121   5.109 -0.4362  0.3231  0.5245
  862MOL0     C13716   4.273   8.029   5.141  0.6232  0.4031  0.3510
  862MOL0     C13717   4.281   8.482   5.561  0.1487  0.5442  0.3990
  862MOL0     C13718   4.158   8.520   5.619 -0.1527 -0.1467 -0.8496
  862MOL0     H13719   3.946   8.689   6.043 -1.6615  0.1084  2.2614
  862MOL0     H13720   3.731   8.763   6.170 -2.3156  1.6899 -0.7235
  862MOL0     H13721   3.564   8.729   6.260  1.6130 -1.3361 -1.3395
  862MOL0     H13722   3.395   8.776   6.246 -0.0655 -2.0910 -1.3257
  862MOL0     H13723   3.632   8.954   6.271  0.0729  1.8593  1.1875
  862MOL0     H13724   3.471   8.930   6.355 -0.0454  0.0429  0.3774
  862MOL0     H13725   3.352   9.026   6.153 -0.0777  1.0547 -1.7965
  862MOL0     H13726   3.501   9.039   6.072  0.0102  0.9222  0.7962
  862MOL0     H13727   3.386   9.238   6.169 -0.0195 -0.3029  0.2480
  862MOL0     H13728   3.423   9.172   6.327  0.1117 -4.1073 -0.7029
  862MOL0     H13729   3.603   9.249   6.097 -2.4093  2.5626 -0.4690
  862MOL0     H13730   3.665   9.179   6.255 -1.5326 -1.2210 -1.6674
  862MOL0     H13731   3.714   9.404   6.272  0.3581 -0.8943  2.6203
  862MOL0     H13732   3.587   9.341   6.387 -2.0138  1.3590  0.5343
  862MOL0     H13733   3.500   9.481   6.134  2.0401  1.7274 -0.3842
  862MOL0     H13734   3.433   9.478   6.305 -0.6081 -1.8967 -0.5425
  862MOL0     H13735   3.586   9.630   6.377  1.1818 -2.2548 -0.9158
  862MOL0     H13736   3.520   9.713   6.246  0.9751  0.6875 -3.1508
  862MOL0     H13737   3.646   9.677   5.998 -1.2019 -0.3213  0.3678
  862MOL0     H13738   3.840   9.803   5.852  3.7611  2.5317 -3.3131
  862MOL0     H13739   3.994   9.787   5.907 -0.5065  1.2526 -4.5790
  862MOL0     H13740   3.837   9.994   6.040 -2.1371  1.2687 -1.2484
  862MOL0     H13741   3.878  10.013   5.864 -1.4182 -0.1132  0.7003
  862MOL0     H13742   4.065   9.967   6.104  0.2956 -0.4130 -0.3973
  862MOL0     H13743   4.127   9.992   5.944 -0.2251 -0.6652 -1.0106
  862MOL0     H13744   4.149  10.197   6.083 -0.7923 -0.3968  0.4470
  862MOL0     H13745   3.972  10.205   6.096 -1.8857 -3.7974 -0.3002
  862MOL0     H13746   4.275  10.347   5.921 -0.8292  2.0729  0.9191
  862MOL0     H13747   4.326  10.577   5.910 -2.2084  0.3310  4.1751
  862MOL0     H13748   4.161  11.032   6.012 -0.4382 -0.4774 -1.1823
  862MOL0     H13749   4.253  11.256   5.986 -1.6912 -1.1462 -0.9321
  862MOL0     H13750   4.631  11.328   5.750  2.5826 -2.4842  1.3038
  862MOL0     H13751   4.681  11.291   5.897 -0.1795 -3.0229 -3.7995
  862MOL0     H13752   4.575  11.569   5.838 -1.0999 -2.1707  0.5880
  862MOL0     H13753   4.749  11.524   5.831  0.5904 -1.4174 -0.0349
  862MOL0     H13754   4.705  11.471   6.088  2.5642 -0.1402 -1.5121
  862MOL0     H13755   4.545  11.529   6.060 -1.1115 -2.8936 -2.3705
  862MOL0     H13756   4.812  11.666   6.024 -0.5443 -2.5640 -1.0462
  862MOL0     H13757   4.657  11.748   5.991 -1.0160  0.0927  0.5357
  862MOL0     H13758   4.595  11.740   6.234  0.6273  2.6857 -2.2114
  862MOL0     H13759   4.746  11.819   6.198  0.2908  0.9318 -1.3553
  862MOL0     H13760   4.884  11.626   6.291 -0.0717 -0.5272 -0.6346
  862MOL0     H13761   4.743  11.537   6.318  2.1141 -0.6678  1.2728
  862MOL0     H13762   4.661  11.765   6.448  0.3814  0.6790  0.6150
  862MOL0     H13763   4.705  11.617   6.532  1.2847  1.7357  1.9318
  862MOL0     H13764   4.810  11.822   6.610 -0.5399  0.8580 -0.1974
  862MOL0     H13765   4.898  11.844   6.459 -1.0868  1.2503  1.2345
  862MOL0     H13766   4.581  11.124   5.760 -0.4596  2.1263  0.0190
  862MOL0     H13767   4.497  10.885   5.779 -0.6039  1.1652 -3.2942
  862MOL0     H13768   3.905  10.658   5.825 -1.2985 -3.0649  0.4130
  862MOL0     H13769   3.860  10.396   5.864  1.0615 -2.0045  2.1804
  862MOL0     H13770   3.491   8.701   5.831 -1.7264  2.1805  2.8367
  862MOL0     H13771   3.682   8.625   5.693  4.8369 -1.1245 -0.3708
  862MOL0     H13772   4.104   8.252   5.817 -1.2992 -0.8945 -1.7664
  862MOL0     H13773   4.346   8.204   5.690  1.9585  1.4259 -3.0091
  862MOL0     H13774   4.322   8.213   5.406  0.0191  3.8543 -0.4962
  862MOL0     H13775   4.426   8.112   5.505 -5.0866 -0.0348  0.1808
  862MOL0     H13776   4.623   8.216   5.371  0.1981  0.7845 -2.0450
  862MOL0     H13777   4.517   8.079   5.306 -1.8120 -0.2455  0.4299
  862MOL0     H13778   4.595   8.322   5.169 -0.6218 -0.2598 -3.0842
  862MOL0     H13779   4.427   8.360   5.227 -0.9885 -1.7738  2.7798
  862MOL0     H13780   4.403   8.284   4.998  1.5366 -1.0518 -1.6854
  862MOL0     H13781   4.527   8.165   5.021 -1.7740 -2.8080 -0.7242
  862MOL0     H13782   4.212   7.949   5.176  1.8005 -1.2609 -1.2244
  862MOL0     H13783   4.334   8.536   5.484  1.5095 -0.1693  0.8052
  862MOL0     H13784   4.096   8.604   5.593 -1.1621  0.9718  4.0854
  863MOL0     O13785   8.164   2.226  10.148 -0.1136  0.0646  0.2259
  863MOL0     C13786   8.141   2.243  10.033 -1.1076  0.1675  1.0272
  863MOL0     O13787   8.211   2.323   9.943  0.0947 -0.5714  0.5158
  863MOL0     C13788   8.331   2.388   9.977  0.4765 -0.3150  0.8322
  863MOL0     C13789   8.368   2.419  10.107 -1.0352 -0.2982  0.9341
  863MOL0     C13790   8.495   2.480  10.135 -0.0064 -0.0077  0.2559
  863MOL0     C13791   8.592   2.495  10.032 -1.0855  0.6191  0.4517
  863MOL0     O13792   8.722   2.540  10.069 -0.3252  0.3431  0.0476
  863MOL0     C13793   8.829   2.560   9.966  1.2849 -0.2953 -1.1805
  863MOL0     C13794   8.949   2.626  10.038 -0.3964  0.0157 -0.0317
  863MOL0     C13795   8.924   2.776  10.052 -0.2507 -0.6469 -0.4124
  863MOL0     C13796   9.044   2.834  10.116  0.3800  0.4195 -0.7207
  863MOL0     C13797   9.026   2.981  10.161 -0.2060 -0.5320  0.5112
  863MOL0     C13798   8.917   3.015  10.274 -1.2018 -0.1963 -0.4099
  863MOL0     C13799   8.937   2.910  10.396 -0.8183  1.3795 -1.1783
  863MOL0     C13800   8.854   2.959  10.511  0.7423 -0.4526  0.0480
  863MOL0     N13801   8.710   2.988  10.487  0.3424  0.3146 -0.2221
  863MOL0     C13802   8.606   2.897  10.497 -0.0020 -0.0318 -0.6423
  863MOL0     C13803   8.489   2.963  10.474  0.1762  0.9835  0.2487
  863MOL0     C13804   8.351   2.916  10.495  0.5856  1.1084  0.8961
  863MOL0     C13805   8.317   2.807  10.387  0.3630  0.0429  0.7037
  863MOL0     C13806   8.302   2.882  10.247 -0.7258  0.0668 -0.4590
  863MOL0     C13807   8.255   2.801  10.133  0.6605  0.0855  0.8265
  863MOL0     O13808   8.119   2.763  10.161  0.1606 -0.1721  0.4422
  863MOL0     C13809   8.043   2.708  10.059  0.8495 -0.7631 -0.4809
  863MOL0     C13810   8.083   2.699   9.921  0.2836  0.1735 -0.1965
  863MOL0     C13811   7.998   2.627   9.833 -0.7401 -1.1156 -0.5668
  863MOL0     C13812   7.871   2.581   9.866  0.0082  0.4762  0.3743
  863MOL0     C13813   7.777   2.538   9.757  0.3843  0.5922  0.4061
  863MOL0     O13814   7.661   2.478   9.803  0.4858  0.1612  0.1352
  863MOL0     C13815   7.545   2.470   9.736 -0.3706  0.0410  0.1997
  863MOL0     C13816   7.540   2.415   9.606 -0.5232  0.6638  0.4528
  863MOL0     C13817   7.425   2.406   9.526  0.0920  0.1295 -0.4321
  863MOL0     C13818   7.302   2.430   9.600 -1.3801 -0.1088  0.9695
  863MOL0     O13819   7.186   2.421   9.530  0.9207  0.6140 -0.1528
  863MOL0     C13820   7.178   2.391   9.388  0.4576  0.1901  0.8288
  863MOL0     C13821   7.028   2.365   9.335 -0.1180 -0.0110  0.5375
  863MOL0     C13822   6.931   2.470   9.383  0.0970  0.0233 -0.2711
  863MOL0     C13823   6.797   2.434   9.312  0.3696  0.5676 -0.2912
  863MOL0     C13824   6.695   2.542   9.326  0.2111 -0.1370  0.2049
  863MOL0     C13825   6.554   2.493   9.304 -0.5044 -0.5867 -0.9502
  863MOL0     C13826   6.437   2.555   9.376 -0.2350 -0.0832  0.0336
  863MOL0     C13827   6.408   2.484   9.512  0.1139  0.5971  0.5551
  863MOL0    Cl13828   6.522   2.547   9.632 -0.4849 -0.6439 -0.1932
  863MOL0     C13829   7.308   2.470   9.737  0.6581 -0.2575  0.3426
  863MOL0     C13830   7.426   2.503   9.795 -0.5175  0.1613 -0.1588
  863MOL0     O13831   7.816   2.552   9.639 -0.4067  0.9464 -0.1842
  863MOL0     C13832   7.835   2.577   9.999  0.2601 -0.3077 -0.3613
  863MOL0     C13833   7.919   2.652  10.098  0.7120  0.2104  0.3211
  863MOL0     N13834   8.531   3.096  10.446  0.5554 -1.0143  0.3130
  863MOL0     N13835   8.661   3.108  10.455  0.7049 -0.9536 -0.6289
  863MOL0     C13836   8.547   2.464   9.893 -0.0598 -0.7455  0.3158
  863MOL0     C13837   8.423   2.405   9.871  0.2932 -0.2524  1.1008
  863MOL0     C13838   8.011   2.190   9.986 -0.5527 -0.2092 -0.1065
  863MOL0     C13839   7.939   2.092  10.057  0.5556  1.1150 -0.3402
  863MOL0     C13840   7.811   2.063  10.018 -0.1002 -0.8149 -0.3498
  863MOL0     C13841   7.761   2.105   9.896  0.7942 -0.1498  0.4136
  863MOL0     O13842   7.637   2.051   9.859  0.2901  0.4178  0.3261
  863MOL0     C13843   7.579   2.103   9.740 -0.8832 -0.4773  0.3514
  863MOL0     C13844   7.461   2.007   9.702 -0.6759 -0.8064  0.9393
  863MOL0     C13845   7.501   1.858   9.714  0.2085 -0.1944 -0.2766
  863MOL0     C13846   7.398   1.777   9.804  0.1192  0.2249  0.7459
  863MOL0     C13847   7.398   1.817   9.948  1.1435 -0.5755 -1.1401
  863MOL0     C13848   7.396   1.868  10.059  0.5735 -0.2017  0.7184
  863MOL0     C13849   7.834   2.202   9.830 -0.4432 -0.4772  0.0764
  863MOL0     C13850   7.955   2.243   9.877 -0.1516 -0.3492 -0.1925
  863MOL0     H13851   8.297   2.411  10.189 -2.4759  3.3126  0.1976
  863MOL0     H13852   8.515   2.501  10.240  0.1751  0.3925  0.1430
  863MOL0     H13853   8.794   2.618   9.880  2.7841 -0.6835 -2.0851
  863MOL0     H13854   8.855   2.459   9.935 -1.7030 -1.6075  0.1836
  863MOL0     H13855   9.039   2.609   9.979  0.5728 -1.6040  1.7917
  863MOL0     H13856   8.959   2.576  10.135 -1.6591 -0.7014 -0.2518
  863MOL0     H13857   8.841   2.793  10.121 -0.6102  2.2345 -1.4083
  863MOL0     H13858   8.899   2.818   9.954 -1.1252  0.1503  0.1365
  863MOL0     H13859   9.067   2.769  10.201 -0.8484  2.6410  1.4406
  863MOL0     H13860   9.129   2.833  10.048  1.4597  3.3049  0.3837
  863MOL0     H13861   8.992   3.034  10.072  1.5277  0.9607  0.6808
  863MOL0     H13862   9.125   3.016  10.193  0.5444 -1.1402 -1.0227
  863MOL0     H13863   8.814   3.006  10.240 -0.0965 -1.6355 -3.8968
  863MOL0     H13864   8.938   3.106  10.331  0.0515  0.3700 -1.7168
  863MOL0     H13865   8.909   2.805  10.384  1.5572  0.2927  1.5882
  863MOL0     H13866   9.039   2.918  10.434 -1.4678 -0.0332  1.0871
  863MOL0     H13867   8.902   3.051  10.545 -2.3767  0.9048  1.1029
  863MOL0     H13868   8.867   2.888  10.593  3.0875  1.8902  1.8878
  863MOL0     H13869   8.614   2.792  10.520  3.5439 -0.1433 -1.8354
  863MOL0     H13870   8.280   3.000  10.488  1.5947  2.0070  1.1939
  863MOL0     H13871   8.347   2.877  10.597  2.4869  0.8841  0.9158
  863MOL0     H13872   8.222   2.760  10.412 -0.5788 -2.4762 -5.5890
  863MOL0     H13873   8.396   2.732  10.391  1.5277  1.2582  1.5163
  863MOL0     H13874   8.232   2.966  10.244  0.2237  0.8498 -1.7245
  863MOL0     H13875   8.402   2.918  10.219  0.3757 -2.4256  0.0374
  863MOL0     H13876   8.323   2.716  10.121 -1.4674 -1.4893 -1.0413
  863MOL0     H13877   8.260   2.852  10.036  0.8468 -1.3642  0.0360
  863MOL0     H13878   8.186   2.714   9.891 -0.3241  1.1301 -1.9210
  863MOL0     H13879   8.033   2.635   9.730  1.9976 -1.8159  0.2267
  863MOL0     H13880   7.632   2.382   9.560 -1.5673 -1.3685 -0.3155
  863MOL0     H13881   7.432   2.378   9.422  0.3512  1.6497 -0.8553
  863MOL0     H13882   7.225   2.293   9.383 -1.0170 -0.5463  0.7021
  863MOL0     H13883   7.219   2.462   9.316  0.2133  0.3712  0.8629
  863MOL0     H13884   6.989   2.264   9.351 -2.1615  0.7904  0.9017
  863MOL0     H13885   7.046   2.357   9.228 -1.6179  0.3427  0.2470
  863MOL0     H13886   6.966   2.572   9.364  4.4011 -0.8369  1.7789
  863MOL0     H13887   6.903   2.470   9.489 -2.5805 -0.8501 -0.8916
  863MOL0     H13888   6.812   2.424   9.204 -2.7836  2.3923 -1.0500
  863MOL0     H13889   6.764   2.338   9.352  1.1029  0.0923 -0.8031
  863MOL0     H13890   6.720   2.621   9.253  0.7227 -1.7631 -1.4648
  863MOL0     H13891   6.700   2.577   9.429  1.9021 -1.6691  0.6886
  863MOL0     H13892   6.548   2.384   9.311 -3.4738 -0.5224 -1.3625
  863MOL0     H13893   6.532   2.511   9.198 -1.5714 -0.8579 -0.7801
  863MOL0     H13894   6.458   2.657   9.412  0.3888 -0.5796  1.1264
  863MOL0     H13895   6.342   2.552   9.321 -0.4033 -0.1826  0.3224
  863MOL0     H13896   6.409   2.375   9.524  2.0075  0.7107  1.6416
  863MOL0     H13897   6.318   2.518   9.563 -0.4682  1.2497 -0.8358
  863MOL0     H13898   7.213   2.467   9.790  2.1685  0.2710  3.2557
  863MOL0     H13899   7.443   2.534   9.898  0.4482 -1.6398  0.2859
  863MOL0     H13900   7.737   2.552  10.038  0.4899  1.0122  1.1560
  863MOL0     H13901   7.887   2.632  10.200  0.7625 -5.7416 -0.4625
  863MOL0     H13902   8.620   2.465   9.812  0.1944 -1.3416  0.5310
  863MOL0     H13903   8.402   2.374   9.769  3.8767 -2.4727  0.8841
  863MOL0     H13904   7.967   2.048  10.152  1.8129 -1.5155 -1.8287
  863MOL0     H13905   7.748   1.994  10.073 -1.8017  1.7810  1.1273
  863MOL0     H13906   7.654   2.107   9.661 -0.7269 -0.3071  0.5096
  863MOL0     H13907   7.523   2.195   9.756 -1.3886 -0.2039 -2.4787
  863MOL0     H13908   7.374   2.031   9.763 -0.9554 -2.0730  1.0644
  863MOL0     H13909   7.441   2.028   9.597  0.9827 -2.0941  0.3300
  863MOL0     H13910   7.602   1.837   9.749 -0.3873 -3.0764 -0.0189
  863MOL0     H13911   7.504   1.821   9.611 -0.9388  2.2244 -1.2516
  863MOL0     H13912   7.295   1.795   9.773  0.7509  2.6117 -0.2096
  863MOL0     H13913   7.420   1.670   9.797  0.5496  0.3258  0.5026
  863MOL0     H13914   7.400   1.923  10.151 -0.3337  1.0724  0.0463
  863MOL0     H13915   7.795   2.256   9.744 -0.6025 -1.2499 -0.3447
  863MOL0     H13916   8.002   2.331   9.834  2.7467 -1.1223  1.1440
  864MOL0     O13917   7.965   1.805   9.861 -0.4149 -0.2980 -0.5321
  864MOL0     C13918   8.083   1.781   9.888 -0.5964  1.1002 -0.9718
  864MOL0     O13919   8.122   1.717  10.015  0.1770 -0.5523 -1.1114
  864MOL0     C13920   8.025   1.693  10.107 -0.1427  0.1603 -0.1490
  864MOL0     C13921   7.924   1.594  10.089 -0.0579 -0.0045 -0.0168
  864MOL0     C13922   7.823   1.560  10.182 -0.2932 -0.3857 -0.6425
  864MOL0     C13923   7.802   1.651  10.288 -0.2358 -0.0531  0.0804
  864MOL0     O13924   7.696   1.641  10.382 -0.3933  0.4808  0.2716
  864MOL0     C13925   7.569   1.576  10.351  0.6527 -1.2074  0.2248
  864MOL0     C13926   7.479   1.594  10.485  0.4323  0.1752  0.4406
  864MOL0     C13927   7.331   1.557  10.468 -0.4789  0.5399 -0.0696
  864MOL0     C13928   7.244   1.650  10.378 -0.1617  0.2048  0.5696
  864MOL0     C13929   7.205   1.786  10.438 -0.3951 -0.0658 -0.6483
  864MOL0     C13930   7.107   1.871  10.354  0.1928 -0.1968  0.0863
  864MOL0     C13931   6.968   1.801  10.351  0.9588  0.2216 -0.0112
  864MOL0     C13932   6.858   1.867  10.262  0.0537  0.0900 -0.3981
  864MOL0     N13933   6.824   1.782  10.146 -0.0386  0.5327  0.1517
  864MOL0     C13934   6.912   1.738  10.059  0.6453  1.2684  0.2867
  864MOL0     C13935   6.839   1.676   9.970 -0.1177  0.4163  0.7535
  864MOL0     C13936   6.885   1.621   9.850 -0.1156  1.2733  0.7492
  864MOL0     C13937   6.866   1.736   9.750  0.5217  0.1574 -0.1516
  864MOL0     C13938   6.953   1.745   9.623 -0.5252  0.3607 -0.6794
  864MOL0     C13939   6.906   1.843   9.521 -0.1471 -0.3067  0.6415
  864MOL0     O13940   6.808   1.783   9.438 -0.2907 -0.0497  0.6045
  864MOL0     C13941   6.836   1.667   9.361 -0.0412  0.2271  0.6165
  864MOL0     C13942   6.966   1.624   9.325  0.3355 -0.7414  0.3473
  864MOL0     C13943   6.974   1.509   9.249  0.3866  0.6108 -0.1853
  864MOL0     C13944   6.866   1.433   9.207 -0.5046  0.1845  1.0775
  864MOL0     C13945   6.890   1.316   9.118  0.5928  0.1675 -0.3384
  864MOL0     O13946   6.775   1.237   9.089 -0.0655 -0.9606 -0.1645
  864MOL0     C13947   6.774   1.111   9.039  0.4371 -0.7504  0.0762
  864MOL0     C13948   6.651   1.048   9.050 -0.4054  0.4145 -0.1941
  864MOL0     C13949   6.631   0.913   9.020 -0.5263  0.5053 -0.6538
  864MOL0     C13950   6.739   0.834   8.967  0.5966 -0.2545  1.0697
  864MOL0     O13951   6.744   0.697   8.955  0.5181  0.2273  0.1639
  864MOL0     C13952   6.633   0.607   8.997  1.0094  0.0063  0.2316
  864MOL0     C13953   6.653   0.472   8.934 -0.9155  0.3560 -0.1183
  864MOL0     C13954   6.742   0.380   9.021  0.4669  0.5153  0.3327
  864MOL0     C13955   6.786   0.245   8.969 -0.3361  1.0216  0.1671
  864MOL0     C13956   6.900   0.189   9.055  0.1680 -0.2107  0.2034
  864MOL0     C13957   7.042   0.233   8.990 -0.2416 -0.6516  0.6553
  864MOL0     C13958   7.150   0.206   9.098  0.5017 -0.2329  0.2693
  864MOL0     C13959   7.285   0.241   9.038  0.1488  0.6188  0.2216
  864MOL0    Cl13960   7.414   0.246   9.169 -0.5873 -0.1741  0.0816
  864MOL0     C13961   6.858   0.905   8.943 -0.4196  0.4306 -0.4237
  864MOL0     C13962   6.880   1.040   8.976  0.6838 -0.8038  0.2493
  864MOL0     O13963   6.999   1.291   9.088 -0.5657 -1.3219  0.6091
  864MOL0     C13964   6.744   1.468   9.250  0.5195  0.0588 -0.3511
  864MOL0     C13965   6.730   1.589   9.322  0.1254  0.8681  0.0882
  864MOL0     N13966   6.701   1.672  10.004 -0.2951  0.1150 -0.1033
  864MOL0     N13967   6.695   1.742  10.111 -1.2979 -0.2053  0.6943
  864MOL0     C13968   7.901   1.748  10.313 -0.2787  0.7552  1.1297
  864MOL0     C13969   8.010   1.767  10.220 -0.1702  0.0984 -0.6846
  864MOL0     C13970   8.190   1.823   9.795 -1.0539  0.0974  0.1940
  864MOL0     C13971   8.159   1.867   9.669 -0.5024  0.6715  0.4931
  864MOL0     C13972   8.260   1.906   9.576  0.4532  1.1145 -0.3659
  864MOL0     C13973   8.383   1.923   9.622  0.0848 -0.0182  0.6638
  864MOL0     O13974   8.471   1.971   9.524  0.4353  0.4611  0.1510
  864MOL0     C13975   8.613   1.960   9.555  0.7194  0.6046  0.5883
  864MOL0     C13976   8.686   2.040   9.453 -0.1984 -0.9667 -0.1373
  864MOL0     C13977   8.636   2.185   9.424 -0.4634  0.0384  0.0982
  864MOL0     C13978   8.713   2.250   9.317  0.3794  0.7819  0.0454
  864MOL0     C13979   8.646   2.382   9.282  0.4420  0.0977  0.1175
  864MOL0     C13980   8.586   2.482   9.273 -0.3097  0.2815 -0.2291
  864MOL0     C13981   8.418   1.895   9.754  0.0034  0.1703 -0.2197
  864MOL0     C13982   8.327   1.821   9.833 -0.8562 -0.3060 -0.4578
  864MOL0     H13983   7.953   1.526  10.009 -0.9339 -0.8761  0.3796
  864MOL0     H13984   7.757   1.479  10.155  0.9661 -0.1982 -5.0672
  864MOL0     H13985   7.581   1.471  10.322 -0.2988 -1.3179  0.1961
  864MOL0     H13986   7.527   1.634  10.269  4.1545  3.6719  1.4542
  864MOL0     H13987   7.486   1.701  10.508 -1.3785  0.7183 -1.1874
  864MOL0     H13988   7.532   1.540  10.563  1.8379  0.1175 -0.5086
  864MOL0     H13989   7.278   1.543  10.563 -2.2070  3.8571 -0.3663
  864MOL0     H13990   7.330   1.461  10.416  0.4355  0.8866 -0.7511
  864MOL0     H13991   7.291   1.667  10.281  0.8222 -2.5426  0.4723
  864MOL0     H13992   7.156   1.589  10.356  0.2053  0.6912 -2.7861
  864MOL0     H13993   7.300   1.841  10.442 -0.4109 -0.0822  1.9740
  864MOL0     H13994   7.165   1.768  10.538  1.0225  0.7361  0.1013
  864MOL0     H13995   7.146   1.896  10.255  0.6411  1.8744  0.7218
  864MOL0     H13996   7.083   1.969  10.397 -1.3932  0.5373 -2.2919
  864MOL0     H13997   6.974   1.699  10.312  0.1297 -1.2285  3.3585
  864MOL0     H13998   6.931   1.792  10.453 -0.5593 -0.3658 -0.5992
  864MOL0     H13999   6.894   1.965  10.231  0.0558 -0.9171 -3.9980
  864MOL0     H14000   6.775   1.868  10.334  1.5452 -2.5153  1.5701
  864MOL0     H14001   7.020   1.749  10.061  0.7876  0.0212  0.4191
  864MOL0     H14002   6.826   1.536   9.815  0.2437  2.2906 -2.6944
  864MOL0     H14003   6.990   1.592   9.858  0.2763  2.1515 -0.6946
  864MOL0     H14004   6.893   1.831   9.796  1.0963  0.8958 -1.9251
  864MOL0     H14005   6.758   1.737   9.735  0.1662  0.7262  2.1150
  864MOL0     H14006   7.057   1.769   9.648 -0.1981  0.4700 -2.0535
  864MOL0     H14007   6.962   1.641   9.590 -0.4917 -0.6817  2.3107
  864MOL0     H14008   6.983   1.898   9.466 -2.5902  0.6771 -2.0430
  864MOL0     H14009   6.864   1.915   9.592 -0.0577 -0.1854  0.5707
  864MOL0     H14010   7.053   1.686   9.349 -0.5422  0.0304  1.7027
  864MOL0     H14011   7.068   1.491   9.198 -0.1334 -0.4912 -0.7836
  864MOL0     H14012   6.570   1.103   9.096  0.2052  1.4515 -0.3088
  864MOL0     H14013   6.537   0.863   9.040 -0.0379 -0.6729 -1.1476
  864MOL0     H14014   6.529   0.622   8.967  1.6116 -0.5575 -2.4208
  864MOL0     H14015   6.620   0.611   9.105  0.2334  0.2798  0.1294
  864MOL0     H14016   6.695   0.476   8.834  0.5713  1.5118  0.5239
  864MOL0     H14017   6.561   0.413   8.928  0.0201 -1.4224  1.6726
  864MOL0     H14018   6.678   0.353   9.105 -2.3111 -1.2408 -2.1278
  864MOL0     H14019   6.831   0.436   9.051  2.5275 -1.5108 -1.6198
  864MOL0     H14020   6.698   0.181   8.970  0.6775 -0.4468  2.0420
  864MOL0     H14021   6.818   0.262   8.865  0.2651  1.7480  0.4600
  864MOL0     H14022   6.892   0.080   9.052 -0.3987 -0.1557 -1.0276
  864MOL0     H14023   6.886   0.234   9.154  0.5891  0.7772 -0.1649
  864MOL0     H14024   7.046   0.338   8.961 -2.8474 -0.3828  1.0799
  864MOL0     H14025   7.067   0.174   8.901 -0.8956 -1.4015  0.9538
  864MOL0     H14026   7.122   0.258   9.190 -4.0214 -2.0749  0.2140
  864MOL0     H14027   7.154   0.099   9.124 -0.1566 -0.4298 -0.4090
  864MOL0     H14028   7.296   0.343   8.999 -2.8548  0.0402 -2.6309
  864MOL0     H14029   7.312   0.171   8.959  2.0729 -0.7136  1.9750
  864MOL0     H14030   6.940   0.844   8.906 -0.5965 -1.6281  2.3066
  864MOL0     H14031   6.980   1.073   8.953  1.5831 -2.9383  0.9175
  864MOL0     H14032   6.655   1.409   9.232  2.1232 -2.4067 -0.6764
  864MOL0     H14033   6.627   1.612   9.350 -0.4663 -3.3771  2.3663
  864MOL0     H14034   7.890   1.816  10.397  2.5109  3.1521 -0.2453
  864MOL0     H14035   8.079   1.849  10.232  0.7993 -0.5542 -1.6597
  864MOL0     H14036   8.055   1.873   9.637  0.0116 -0.0047 -1.4293
  864MOL0     H14037   8.224   1.935   9.477 -0.7905 -1.7495 -0.8406
  864MOL0     H14038   8.622   1.851   9.563  1.2968  0.6052  0.0775
  864MOL0     H14039   8.632   1.996   9.656 -1.6563  0.6733  1.0645
  864MOL0     H14040   8.793   2.050   9.476 -0.2488 -0.5517 -0.0860
  864MOL0     H14041   8.688   1.987   9.357 -1.5525 -0.3669 -0.5117
  864MOL0     H14042   8.653   2.251   9.509  1.7529  1.3364 -1.2664
  864MOL0     H14043   8.534   2.176   9.385 -1.1434 -1.3880  2.0635
  864MOL0     H14044   8.813   2.271   9.355 -0.2174 -0.0807  2.2372
  864MOL0     H14045   8.713   2.190   9.225 -1.9265 -1.7018  1.5230
  864MOL0     H14046   8.535   2.576   9.272 -1.1797 -0.1606 -2.6049
  864MOL0     H14047   8.516   1.922   9.793  0.1537  0.1642 -0.5844
  864MOL0     H14048   8.359   1.785   9.930 -0.9428  0.0530 -0.2917
  865MOL0     O14049   6.007   1.529  11.206 -1.2320  0.5250 -0.6376
  865MOL0     C14050   6.081   1.441  11.243  0.7824  1.1032 -1.2845
  865MOL0     O14051   6.210   1.414  11.202 -0.2590 -0.5088 -0.2598
  865MOL0     C14052   6.301   1.513  11.152  0.3271  0.0217  0.2737
  865MOL0     C14053   6.357   1.509  11.022 -0.2031 -0.9124 -1.1412
  865MOL0     C14054   6.450   1.601  10.991 -0.4943 -1.0529  0.7574
  865MOL0     C14055   6.492   1.707  11.079  1.1970  0.3448 -0.6132
  865MOL0     O14056   6.594   1.798  11.062  0.7425  0.4324  1.1226
  865MOL0     C14057   6.668   1.818  10.935  0.4837  0.8658 -0.3246
  865MOL0     C14058   6.730   1.956  10.913 -0.0926 -0.5049 -0.7447
  865MOL0     C14059   6.793   1.977  10.775 -0.2035 -0.2505  0.3159
  865MOL0     C14060   6.707   1.944  10.653  0.9824 -0.0864 -0.4613
  865MOL0     C14061   6.605   2.054  10.635 -0.0442 -0.2150 -0.1083
  865MOL0     C14062   6.529   2.045  10.507  0.7326  0.6391  0.6241
  865MOL0     C14063   6.443   2.178  10.492  0.0491  0.0556  0.7493
  865MOL0     C14064   6.380   2.186  10.353  1.4813 -0.7120  0.7510
  865MOL0     N14065   6.376   2.326  10.312 -0.7257  0.6209 -0.7928
  865MOL0     C14066   6.287   2.428  10.347 -0.9834  0.9390  0.3125
  865MOL0     C14067   6.330   2.530  10.271 -0.4414  0.2336 -0.6646
  865MOL0     C14068   6.246   2.660  10.258  0.4507 -0.5043  0.6007
  865MOL0     C14069   6.089   2.648  10.242  0.2538 -0.5547 -0.0974
  865MOL0     C14070   6.024   2.785  10.275 -1.0610 -0.2231  0.5099
  865MOL0     C14071   6.039   2.884  10.157 -0.2697 -0.9600 -0.3345
  865MOL0     O14072   5.962   2.999  10.198  0.7054 -0.5212 -0.1016
  865MOL0     C14073   5.919   3.083  10.108 -0.2659  1.0364 -1.2619
  865MOL0     C14074   5.826   3.038  10.010  0.5678 -1.0253  1.0582
  865MOL0     C14075   5.769   3.120   9.918 -0.3092 -1.4315  0.5602
  865MOL0     C14076   5.839   3.244   9.895 -0.5642 -0.6810  0.1152
  865MOL0     C14077   5.799   3.343   9.789 -0.2331 -0.3013 -0.4864
  865MOL0     O14078   5.690   3.305   9.710 -0.3398  0.8291 -0.3153
  865MOL0     C14079   5.613   3.393   9.646 -0.2058  0.1058 -0.2382
  865MOL0     C14080   5.473   3.391   9.659  1.0758 -0.2926 -1.3712
  865MOL0     C14081   5.391   3.466   9.582  0.6016 -0.9758 -0.7266
  865MOL0     C14082   5.440   3.553   9.479 -1.2336 -0.0709 -0.4526
  865MOL0     O14083   5.366   3.638   9.400 -0.0663 -0.2394 -0.5709
  865MOL0     C14084   5.267   3.704   9.472  0.1141  0.5883 -0.5285
  865MOL0     C14085   5.132   3.702   9.400  1.0931  0.1266 -0.4128
  865MOL0     C14086   5.071   3.562   9.422  0.0791  0.2068 -0.5194
  865MOL0     C14087   4.922   3.547   9.378  0.4566  0.1676  0.4676
  865MOL0     C14088   4.851   3.415   9.425 -0.2951  0.1108  0.2178
  865MOL0     C14089   4.703   3.426   9.440  0.6961 -0.5562 -0.4505
  865MOL0     C14090   4.664   3.300   9.520 -0.3978 -0.1963  0.4617
  865MOL0     C14091   4.509   3.282   9.518 -0.5574  0.6468  0.0619
  865MOL0    Cl14092   4.440   3.255   9.365 -0.0375 -0.4321 -0.2055
  865MOL0     C14093   5.574   3.574   9.477 -1.3112  0.1949  1.0155
  865MOL0     C14094   5.655   3.489   9.550 -0.6073 -0.0892  0.1508
  865MOL0     O14095   5.855   3.458   9.790 -0.0679  0.1919 -0.3948
  865MOL0     C14096   5.936   3.288   9.991 -0.6458 -0.6727 -0.9907
  865MOL0     C14097   5.970   3.210  10.103 -0.0672 -0.0074  0.7283
  865MOL0     N14098   6.440   2.491  10.196 -0.1903  0.0365 -0.3103
  865MOL0     N14099   6.468   2.370  10.221  0.2231  0.4096 -0.6366
  865MOL0     C14100   6.437   1.707  11.203  0.6800  0.2056  0.5997
  865MOL0     C14101   6.343   1.612  11.244 -0.1882 -0.4414  1.8162
  865MOL0     C14102   6.026   1.355  11.349 -0.3383  0.5956  0.3805
  865MOL0     C14103   5.888   1.336  11.360  0.4246  0.0649  0.1471
  865MOL0     C14104   5.833   1.256  11.454 -0.1566  0.0980 -0.2717
  865MOL0     C14105   5.915   1.191  11.550  0.0245  0.6537 -0.4220
  865MOL0     O14106   5.842   1.113  11.638  0.6673  0.2778 -0.2145
  865MOL0     C14107   5.906   0.997  11.701 -1.1601  1.1987 -0.2758
  865MOL0     C14108   5.859   0.882  11.613  0.0691 -0.2573  0.7159
  865MOL0     C14109   5.911   0.748  11.676  0.0419 -0.3055  1.6737
  865MOL0     C14110   5.817   0.669  11.768  0.1481 -0.0167  0.0885
  865MOL0     C14111   5.859   0.547  11.838  0.2944  1.3374 -0.1501
  865MOL0     C14112   5.891   0.443  11.894  0.2825 -0.6290  0.1783
  865MOL0     C14113   6.054   1.205  11.545  0.6961 -0.9824  0.1069
  865MOL0     C14114   6.110   1.291  11.446  0.4396 -0.6342 -0.4952
  865MOL0     H14115   6.329   1.429  10.954  1.2733 -1.3595 -1.2529
  865MOL0     H14116   6.498   1.608  10.894  0.3736 -0.1579  1.2299
  865MOL0     H14117   6.594   1.820  10.855 -0.2179  2.2884  0.3270
  865MOL0     H14118   6.751   1.746  10.927  0.1045  0.5746 -2.0896
  865MOL0     H14119   6.802   1.976  10.994 -2.6231 -1.7513  1.9917
  865MOL0     H14120   6.645   2.024  10.924  0.7918  0.2694  2.3447
  865MOL0     H14121   6.884   1.917  10.777  2.6778  3.5952 -2.1995
  865MOL0     H14122   6.832   2.078  10.763 -1.1262 -0.0031 -0.6924
  865MOL0     H14123   6.767   1.932  10.562 -1.7790 -2.2460 -2.1566
  865MOL0     H14124   6.650   1.851  10.651  2.1677 -0.9700  1.9675
  865MOL0     H14125   6.652   2.153  10.635 -0.9687  0.2607 -1.7036
  865MOL0     H14126   6.541   2.043  10.723  0.7514  2.5826  0.9276
  865MOL0     H14127   6.471   1.952  10.509 -0.3592  1.2204  4.9146
  865MOL0     H14128   6.600   2.045  10.423 -1.3023  1.1023 -1.1949
  865MOL0     H14129   6.372   2.194  10.573 -0.7500  2.1075 -0.2662
  865MOL0     H14130   6.511   2.261  10.512  1.8886 -1.8418  2.9445
  865MOL0     H14131   6.281   2.142  10.365  1.2692  0.0721  2.1379
  865MOL0     H14132   6.432   2.142  10.267 -1.6098  1.4618 -2.4843
  865MOL0     H14133   6.197   2.429  10.408 -0.1249 -1.6992  1.7735
  865MOL0     H14134   6.266   2.725  10.172 -0.8531  2.2448  2.2715
  865MOL0     H14135   6.277   2.711  10.349  1.2737  1.5112 -0.7294
  865MOL0     H14136   6.048   2.574  10.311  1.2643  2.3128  3.9314
  865MOL0     H14137   6.066   2.618  10.139 -2.1152 -2.6424  0.9459
  865MOL0     H14138   5.920   2.764  10.301 -1.1302  0.4596  0.7932
  865MOL0     H14139   6.071   2.828  10.364  1.9688 -2.5479  0.2001
  865MOL0     H14140   6.009   2.843  10.060 -0.4438  1.1228 -1.2067
  865MOL0     H14141   6.148   2.896  10.156 -0.2927 -0.6061  0.7746
  865MOL0     H14142   5.772   2.945  10.028 -0.7380 -0.4390  0.3559
  865MOL0     H14143   5.684   3.085   9.860 -1.9883  3.6758 -0.6226
  865MOL0     H14144   5.423   3.323   9.729  0.8475  0.1421 -1.1065
  865MOL0     H14145   5.284   3.460   9.601 -0.1575  2.2818 -3.0820
  865MOL0     H14146   5.297   3.806   9.495 -0.4719  0.0021  3.8820
  865MOL0     H14147   5.254   3.661   9.572 -0.0016  1.0229 -0.3569
  865MOL0     H14148   5.137   3.729   9.294  2.0274  2.3572  0.1480
  865MOL0     H14149   5.065   3.775   9.448  2.7239  1.7973 -0.5623
  865MOL0     H14150   5.074   3.534   9.527 -0.7769 -1.2735 -0.8565
  865MOL0     H14151   5.131   3.487   9.370  0.7343  0.8420 -0.7044
  865MOL0     H14152   4.872   3.638   9.412  1.7751  0.1985  2.5150
  865MOL0     H14153   4.914   3.551   9.269 -2.5210  1.8413  0.6346
  865MOL0     H14154   4.904   3.395   9.518  1.8230  4.8106  0.2651
  865MOL0     H14155   4.873   3.326   9.364 -0.8384 -0.2352  0.5229
  865MOL0     H14156   4.649   3.425   9.345  1.2111 -4.0189 -0.8512
  865MOL0     H14157   4.668   3.505   9.508 -0.1139 -2.7549  1.8807
  865MOL0     H14158   4.718   3.215   9.476  1.4919  0.5630  1.1844
  865MOL0     H14159   4.688   3.310   9.626  0.7859  0.2006  0.1741
  865MOL0     H14160   4.453   3.357   9.576 -2.3701  0.2964 -1.1607
  865MOL0     H14161   4.479   3.193   9.575  1.1756 -1.6559 -2.4086
  865MOL0     H14162   5.616   3.650   9.411 -2.2634 -1.4861 -1.6735
  865MOL0     H14163   5.763   3.497   9.536 -0.5254 -3.2537 -2.0882
  865MOL0     H14164   5.982   3.386   9.979 -0.0782 -0.7140  0.6029
  865MOL0     H14165   6.033   3.254  10.180 -1.8012  1.5527  1.3272
  865MOL0     H14166   6.454   1.790  11.272  0.8437  1.3869 -0.8186
  865MOL0     H14167   6.294   1.625  11.340 -0.9726  3.1017  1.0826
  865MOL0     H14168   5.814   1.389  11.301 -1.8929 -1.2092  1.7207
  865MOL0     H14169   5.728   1.236  11.475 -0.4694  1.0579 -0.8362
  865MOL0     H14170   5.868   0.990  11.803 -0.3753  4.9143  0.4012
  865MOL0     H14171   6.012   1.018  11.714 -0.3765 -1.0324 -2.3392
  865MOL0     H14172   5.750   0.893  11.613 -0.0064 -0.8983  1.6846
  865MOL0     H14173   5.909   0.899  11.517  0.7860 -3.2273  0.4667
  865MOL0     H14174   6.007   0.755  11.727  1.7914 -0.6025 -1.3484
  865MOL0     H14175   5.932   0.679  11.594  0.9570  1.1292  0.6562
  865MOL0     H14176   5.783   0.742  11.842  1.0883 -1.1171  1.6725
  865MOL0     H14177   5.729   0.649  11.707  1.2299  2.1146 -2.3870
  865MOL0     H14178   5.922   0.353  11.943 -1.7109 -0.2856  2.2061
  865MOL0     H14179   6.111   1.158  11.624  1.4630  1.4237  1.0566
  865MOL0     H14180   6.216   1.311  11.434 -0.1857  3.6824 -0.6647
  866MOL0     O14181   7.504   2.436   0.876 -0.0945 -0.8910  0.1383
  866MOL0     C14182   7.550   2.550   0.861  0.2791  0.0280 -0.2566
  866MOL0     O14183   7.616   2.608   0.755 -0.3213  0.6862 -0.1911
  866MOL0     C14184   7.633   2.513   0.661 -1.3215 -0.0474  0.0681
  866MOL0     C14185   7.750   2.437   0.657  0.0173 -0.4026 -0.1944
  866MOL0     C14186   7.779   2.340   0.557 -0.5785 -0.3567 -0.6743
  866MOL0     C14187   7.676   2.316   0.465  0.1441  0.9608  0.1994
  866MOL0     O14188   7.675   2.216   0.375 -0.6289 -0.4600  0.0378
  866MOL0     C14189   7.793   2.150   0.342 -0.2241 -0.0507  0.8634
  866MOL0     C14190   7.827   2.030   0.432  0.8654 -0.3928 -0.0501
  866MOL0     C14191   7.770   1.897   0.391 -0.5022  1.6810  1.0227
  866MOL0     C14192   7.627   1.880   0.460  0.8322 -0.2286  0.6559
  866MOL0     C14193   7.598   1.724   0.462  0.1784 -0.5992 -0.1325
  866MOL0     C14194   7.592   1.659   0.329  0.3432 -0.1533  0.4413
  866MOL0     C14195   7.546   1.520   0.332  0.1739  0.4446  0.0939
  866MOL0     C14196   7.561   1.440   0.203 -0.1107  0.9847  0.1654
  866MOL0     N14197   7.547   1.302   0.234 -0.2892 -0.4996 -1.1333
  866MOL0     C14198   7.650   1.221   0.261 -0.4217  0.1386 -0.1306
  866MOL0     C14199   7.599   1.110   0.327  0.2417  0.7170 -0.5105
  866MOL0     C14200   7.662   0.984   0.373  0.0128 -0.4754  0.2087
  866MOL0     C14201   7.651   0.875   0.270  1.4659 -0.6857 -0.0771
  866MOL0     C14202   7.736   0.745   0.297  1.4105  0.3657 -0.0621
  866MOL0     C14203   7.668   0.639   0.384 -0.6379  0.0275  0.3950
  866MOL0     O14204   7.770   0.549   0.392  0.2714 -0.1255 -0.6494
  866MOL0     C14205   7.741   0.437   0.461  0.8578 -0.7600  0.1873
  866MOL0     C14206   7.621   0.391   0.512 -0.4433 -0.2970  0.8238
  866MOL0     C14207   7.611   0.277   0.589 -0.0129  0.1827  0.4834
  866MOL0     C14208   7.730   0.206   0.631 -0.4437  0.3026  0.0365
  866MOL0     C14209   7.718   0.092   0.720  0.9361  0.6151 -0.6271
  866MOL0     O14210   7.608   0.106   0.799  0.1066 -0.1937  0.0046
  866MOL0     C14211   7.598   0.040   0.923 -0.4402 -0.0456 -0.8106
  866MOL0     C14212   7.651   0.084   1.044  1.2665  0.0904  0.9122
  866MOL0     C14213   7.628   0.010   1.164  0.2425 -0.1146  0.0330
  866MOL0     C14214   7.555  -0.108   1.157 -0.6021 -1.0480  0.2786
  866MOL0     O14215   7.547  -0.179   1.264 -0.5275 -0.0468 -0.3320
  866MOL0     C14216   7.429  -0.261   1.285  0.2486  0.1817  0.0261
  866MOL0     C14217   7.421  -0.324   1.415 -0.1742 -0.5947 -0.2645
  866MOL0     C14218   7.415  -0.221   1.533  0.2873 -0.4023  0.4687
  866MOL0     C14219   7.415  -0.305   1.650  0.4584  0.3538 -0.1907
  866MOL0     C14220   7.409  -0.230   1.776 -0.7724 -0.2816 -0.0001
  866MOL0     C14221   7.320  -0.292   1.876 -0.9415  1.8266  0.5086
  866MOL0     C14222   7.307  -0.227   2.014 -0.1522 -0.9837 -0.3332
  866MOL0     C14223   7.303  -0.065   2.017 -0.2251  0.4918  0.2322
  866MOL0    Cl14224   7.463  -0.017   2.067 -0.1065  0.1655  0.5174
  866MOL0     C14225   7.503  -0.153   1.031 -0.0764 -0.0901 -0.1177
  866MOL0     C14226   7.532  -0.081   0.921  0.4127 -0.3822  0.4104
  866MOL0     O14227   7.805   0.009   0.734 -0.5357 -0.0468  0.6836
  866MOL0     C14228   7.850   0.247   0.568 -0.2006 -0.6557 -0.5104
  866MOL0     C14229   7.852   0.359   0.488 -0.9321  0.0619  0.8269
  866MOL0     N14230   7.460   1.126   0.322  0.3498  0.4866  0.5701
  866MOL0     N14231   7.430   1.237   0.271 -0.6545  0.4440  0.1450
  866MOL0     C14232   7.565   2.400   0.468  0.2749  0.3543  0.1799
  866MOL0     C14233   7.555   2.509   0.550  0.4641 -1.1368  0.5754
  866MOL0     C14234   7.540   2.639   0.978  0.6771  0.8964  0.4915
  866MOL0     C14235   7.450   2.598   1.084 -0.4728 -0.2103  0.0427
  866MOL0     C14236   7.442   2.683   1.193 -0.2082 -0.0153 -0.4439
  866MOL0     C14237   7.527   2.795   1.214  0.7796  0.0249 -0.8128
  866MOL0     O14238   7.502   2.864   1.329  0.4709  0.2076 -0.2319
  866MOL0     C14239   7.534   3.004   1.347 -0.3563 -0.8477  0.3631
  866MOL0     C14240   7.450   3.052   1.463 -0.3841  0.0954 -0.7561
  866MOL0     C14241   7.298   3.088   1.444  1.0161  0.7695  1.0606
  866MOL0     C14242   7.228   3.121   1.580  0.1113 -0.7755  0.8296
  866MOL0     C14243   7.289   3.241   1.643 -1.1961  0.2725  0.3694
  866MOL0     C14244   7.344   3.335   1.695 -0.2119  0.1418 -0.3137
  866MOL0     C14245   7.609   2.826   1.113 -0.2626  0.9282  0.3829
  866MOL0     C14246   7.612   2.752   0.995 -0.2231 -0.7012  0.0159
  866MOL0     H14247   7.823   2.444   0.737 -1.1851  2.0928  0.7728
  866MOL0     H14248   7.880   2.300   0.557 -0.2634  0.0497 -4.4065
  866MOL0     H14249   7.885   2.209   0.336 -0.3400  0.0938  0.4877
  866MOL0     H14250   7.769   2.111   0.242  3.6987  1.2402 -0.8135
  866MOL0     H14251   7.790   2.063   0.530  3.5958  1.4290  0.4670
  866MOL0     H14252   7.934   2.010   0.436  0.8997 -0.4373 -0.8920
  866MOL0     H14253   7.830   1.813   0.426 -0.0366  1.1323 -0.9488
  866MOL0     H14254   7.764   1.895   0.282 -0.8476  2.2398  1.0304
  866MOL0     H14255   7.620   1.920   0.561  1.4430  1.6540 -0.0030
  866MOL0     H14256   7.552   1.936   0.404  2.0667 -0.8386 -1.7667
  866MOL0     H14257   7.504   1.713   0.518  0.4963  2.5961  1.2622
  866MOL0     H14258   7.684   1.674   0.508  0.9145 -0.9375 -1.8242
  866MOL0     H14259   7.684   1.672   0.270  1.3783  1.1123  2.2448
  866MOL0     H14260   7.524   1.719   0.267  3.4046  2.8103 -0.3892
  866MOL0     H14261   7.605   1.456   0.398 -2.8681 -1.7626  0.9095
  866MOL0     H14262   7.442   1.514   0.366 -0.7532  0.1382 -2.5376
  866MOL0     H14263   7.657   1.450   0.153  1.2184 -1.7771  1.8935
  866MOL0     H14264   7.472   1.466   0.145 -1.3484  0.7674  1.8850
  866MOL0     H14265   7.755   1.239   0.239 -0.2672 -0.0878  0.4020
  866MOL0     H14266   7.623   0.951   0.470  1.3450 -0.2879  0.8299
  866MOL0     H14267   7.767   0.996   0.400  0.1465 -3.1577  1.1635
  866MOL0     H14268   7.684   0.931   0.182  6.3171  0.1039  1.9225
  866MOL0     H14269   7.544   0.856   0.255  1.0901  0.9540  0.3353
  866MOL0     H14270   7.762   0.699   0.202  2.8020 -1.5976  1.1925
  866MOL0     H14271   7.833   0.769   0.341  0.4550  0.5902  2.0773
  866MOL0     H14272   7.587   0.598   0.323  0.4804  1.5893 -2.3311
  866MOL0     H14273   7.635   0.685   0.478 -2.0109  1.0650 -0.5574
  866MOL0     H14274   7.526   0.438   0.484 -0.6974 -1.4429 -0.3160
  866MOL0     H14275   7.513   0.249   0.625  0.0206  1.3278  1.5309
  866MOL0     H14276   7.704   0.178   1.048 -1.2435  1.6045  0.6802
  866MOL0     H14277   7.684   0.034   1.254  0.9832 -0.9955 -0.1736
  866MOL0     H14278   7.431  -0.345   1.215  0.6469 -0.8774  1.2616
  866MOL0     H14279   7.332  -0.212   1.270 -0.0659 -0.5943 -0.5734
  866MOL0     H14280   7.503  -0.397   1.421 -0.9071 -1.3743  0.4317
  866MOL0     H14281   7.326  -0.377   1.420 -0.5917  0.2230  3.6917
  866MOL0     H14282   7.331  -0.153   1.523  0.0691 -0.4573  1.7368
  866MOL0     H14283   7.506  -0.160   1.537  0.7563 -1.1378  1.4385
  866MOL0     H14284   7.327  -0.370   1.648 -0.6826  1.1114  5.5309
  866MOL0     H14285   7.500  -0.373   1.652  0.4879  0.3787 -0.6623
  866MOL0     H14286   7.378  -0.126   1.767  2.5447  0.8777  0.6778
  866MOL0     H14287   7.511  -0.215   1.814 -1.1115  2.4917  0.0220
  866MOL0     H14288   7.364  -0.387   1.907 -1.5163  1.4032  0.0203
  866MOL0     H14289   7.222  -0.319   1.837 -1.3662 -0.1477  2.7014
  866MOL0     H14290   7.205  -0.262   2.036 -0.4452 -3.1931 -4.2605
  866MOL0     H14291   7.365  -0.268   2.097 -2.5713 -0.2129  1.8769
  866MOL0     H14292   7.233  -0.025   2.091 -1.0967 -1.4100  0.4933
  866MOL0     H14293   7.295  -0.018   1.919  0.5505  0.6535  0.2378
  866MOL0     H14294   7.452  -0.249   1.025 -1.9604  0.9397 -2.5424
  866MOL0     H14295   7.505  -0.107   0.819  2.5943 -0.5208 -0.1703
  866MOL0     H14296   7.946   0.205   0.598 -0.8839 -3.4854 -1.9316
  866MOL0     H14297   7.942   0.396   0.440  0.3660 -0.5694  2.6609
  866MOL0     H14298   7.489   2.381   0.393  1.8401 -0.4553 -1.2853
  866MOL0     H14299   7.462   2.566   0.550 -0.1643 -2.0118 -2.2215
  866MOL0     H14300   7.387   2.512   1.066 -0.7364  0.1170 -0.6349
  866MOL0     H14301   7.367   2.657   1.267  0.7185  0.3189  0.6657
  866MOL0     H14302   7.506   3.069   1.264 -2.6042  1.6336  2.8425
  866MOL0     H14303   7.637   3.019   1.379 -0.3215  1.5098 -0.6924
  866MOL0     H14304   7.454   2.987   1.551 -3.1387  0.6954 -0.0980
  866MOL0     H14305   7.488   3.152   1.486 -0.0669 -0.2155  0.1140
  866MOL0     H14306   7.250   2.997   1.408  2.0886 -0.5068  2.7008
  866MOL0     H14307   7.279   3.170   1.374 -1.5159 -0.6497 -0.0605
  866MOL0     H14308   7.125   3.147   1.552 -0.0195 -1.3985  0.7265
  866MOL0     H14309   7.233   3.034   1.646  1.4080 -1.0535  0.3847
  866MOL0     H14310   7.404   3.418   1.724  0.2080 -1.1047  2.7359
  866MOL0     H14311   7.682   2.906   1.120 -3.1604  3.9006 -0.6557
  866MOL0     H14312   7.675   2.791   0.916  0.4452 -3.2273 -0.7701
  867MOL0     O14313   9.676   4.502   0.771  0.1250  0.2011 -0.2833
  867MOL0     C14314   9.653   4.500   0.651 -0.9088 -0.3692 -0.4396
  867MOL0     O14315   9.744   4.444   0.563 -0.0838 -0.6933  0.1882
  867MOL0     C14316   9.873   4.429   0.592 -0.3562  0.5072 -0.2955
  867MOL0     C14317   9.933   4.297   0.572 -0.0266 -0.2129 -0.0893
  867MOL0     C14318  10.069   4.293   0.604  0.2327  0.4902  0.4152
  867MOL0     C14319  10.149   4.399   0.643 -0.8668  0.2354 -0.3977
  867MOL0     O14320  10.285   4.368   0.642  1.1524  1.0652 -0.0236
  867MOL0     C14321  10.377   4.446   0.728 -0.9891 -0.2906  0.3464
  867MOL0     C14322  10.519   4.392   0.685  0.5175  0.6859  0.4980
  867MOL0     C14323  10.630   4.458   0.767 -0.1065  0.6835 -0.6835
  867MOL0     C14324  10.773   4.463   0.708  0.9974  0.2575  0.2503
  867MOL0     C14325  10.863   4.544   0.812 -0.2432  0.4443  1.4702
  867MOL0     C14326  11.005   4.524   0.787 -0.5754 -0.1352  0.3127
  867MOL0     C14327  11.043   4.387   0.821  0.2749 -0.5864 -0.8017
  867MOL0     C14328  11.186   4.365   0.870 -0.0005 -0.5831 -0.2476
  867MOL0     N14329  11.243   4.240   0.852  0.3942  0.4221 -0.6707
  867MOL0     C14330  11.206   4.128   0.922  0.6295 -0.4004 -1.0195
  867MOL0     C14331  11.246   4.015   0.847  0.4496 -0.6674 -0.7680
  867MOL0     C14332  11.209   3.879   0.891  0.9802 -0.2099  0.3907
  867MOL0     C14333  11.322   3.783   0.880  0.5763 -0.5287  0.8283
  867MOL0     C14334  11.394   3.781   1.016  0.0683 -1.0713  0.9798
  867MOL0     C14335  11.513   3.669   1.028 -0.2388 -0.9549 -0.0657
  867MOL0     O14336  11.536   3.651   1.167 -0.2592  0.5271  0.5834
  867MOL0     C14337  11.577   3.762   1.250  0.1735 -0.1260  0.6212
  867MOL0     C14338  11.525   3.758   1.378 -0.4754 -0.7087  0.6528
  867MOL0     C14339  11.531   3.878   1.453 -0.4545 -0.2205 -0.1106
  867MOL0     C14340  11.605   3.994   1.403  1.2131 -0.6104 -1.1048
  867MOL0     C14341  11.606   4.116   1.493  0.2186 -0.1452  1.0371
  867MOL0     O14342  11.531   4.109   1.605 -0.5224  0.3136 -1.1774
  867MOL0     C14343  11.533   4.200   1.709 -0.2215 -0.7030  0.2926
  867MOL0     C14344  11.631   4.203   1.810 -0.3351 -1.0440 -0.1601
  867MOL0     C14345  11.606   4.300   1.914 -1.2458 -0.2316 -0.1858
  867MOL0     C14346  11.504   4.394   1.916 -0.8971 -1.0615  0.1039
  867MOL0     O14347  11.492   4.489   2.016 -0.0725  0.1996  0.4836
  867MOL0     C14348  11.467   4.619   1.980 -0.7351 -1.2968  0.2507
  867MOL0     C14349  11.341   4.670   2.039 -0.2461 -0.1512 -0.2200
  867MOL0     C14350  11.293   4.806   1.989  0.8103  0.5358 -0.5693
  867MOL0     C14351  11.149   4.831   2.041  1.5880 -1.1411  1.0289
  867MOL0     C14352  11.124   4.984   2.028  0.0587 -0.3607  0.3060
  867MOL0     C14353  10.971   5.004   2.038  0.3891  0.8621  0.5356
  867MOL0     C14354  10.940   5.147   2.019 -0.1997 -0.5282 -0.9246
  867MOL0     C14355  10.797   5.168   2.025  0.4717 -0.0182 -0.1397
  867MOL0    Cl14356  10.725   5.126   2.186 -0.2747 -0.2356 -0.4728
  867MOL0     C14357  11.413   4.374   1.817  0.5394  0.5015 -0.5465
  867MOL0     C14358  11.432   4.285   1.716  0.0369  0.0055 -0.3887
  867MOL0     O14359  11.675   4.211   1.459 -0.1654 -0.5263  0.7311
  867MOL0     C14360  11.660   3.981   1.278 -1.1514 -1.2451  0.2298
  867MOL0     C14361  11.647   3.872   1.202 -0.7703 -0.0355  1.5722
  867MOL0     N14362  11.307   4.061   0.738 -0.4899 -0.9154  1.0641
  867MOL0     N14363  11.312   4.195   0.740  0.9103 -0.0719 -0.0103
  867MOL0     C14364  10.090   4.522   0.665 -0.1802 -0.0101  0.1593
  867MOL0     C14365   9.951   4.533   0.641 -0.8324  0.3626  0.5812
  867MOL0     C14366   9.526   4.563   0.608  0.7731  0.7063  0.6852
  867MOL0     C14367   9.436   4.631   0.693 -0.2045  0.0975 -0.3924
  867MOL0     C14368   9.308   4.677   0.647 -0.3141 -0.4292  0.1276
  867MOL0     C14369   9.267   4.645   0.514  0.3535  0.1818 -0.0000
  867MOL0     O14370   9.138   4.684   0.474 -0.4635  0.6838 -0.2367
  867MOL0     C14371   9.038   4.743   0.562 -0.5040 -0.1038 -0.2330
  867MOL0     C14372   8.926   4.783   0.478  0.0197 -0.1641  0.4844
  867MOL0     C14373   8.959   4.879   0.358 -0.0513  0.0435 -0.7352
  867MOL0     C14374   9.022   5.018   0.405 -0.0833 -0.0667 -0.1441
  867MOL0     C14375   8.973   5.117   0.309  0.0749  0.4347 -0.0810
  867MOL0     C14376   8.947   5.214   0.234  0.4694 -0.2632 -0.6774
  867MOL0     C14377   9.350   4.562   0.434  0.3358 -0.3945 -1.3380
  867MOL0     C14378   9.480   4.535   0.480 -0.2496 -0.8204 -0.3756
  867MOL0     H14379   9.878   4.211   0.535 -4.3571  0.7731  3.1605
  867MOL0     H14380  10.121   4.197   0.603  1.6410  1.2260 -1.0003
  867MOL0     H14381  10.344   4.435   0.832  0.2125  1.9864  1.0310
  867MOL0     H14382  10.373   4.552   0.703  1.2629 -0.1624  0.3523
  867MOL0     H14383  10.547   4.417   0.582 -0.5997 -0.6947 -0.1815
  867MOL0     H14384  10.510   4.285   0.703  1.6523  0.5457  0.3021
  867MOL0     H14385  10.644   4.395   0.856  0.6454  0.5910 -0.8612
  867MOL0     H14386  10.604   4.560   0.794 -1.1042  0.4360 -0.6881
  867MOL0     H14387  10.802   4.365   0.670 -1.9459 -0.4043 -0.5480
  867MOL0     H14388  10.771   4.525   0.618 -1.2371  1.9999  1.4102
  867MOL0     H14389  10.832   4.515   0.912 -0.3208 -1.6684  0.8815
  867MOL0     H14390  10.838   4.648   0.786 -0.1031  0.0943 -0.1868
  867MOL0     H14391  11.053   4.596   0.854 -2.2533  0.5123  0.8890
  867MOL0     H14392  11.025   4.541   0.681 -2.3268 -2.0555 -0.3908
  867MOL0     H14393  10.974   4.345   0.895  4.5394  0.5234  4.4124
  867MOL0     H14394  11.037   4.330   0.728  2.2489 -0.6439 -0.9300
  867MOL0     H14395  11.193   4.395   0.975 -0.6562  2.0901 -0.8796
  867MOL0     H14396  11.244   4.440   0.815 -0.3737  0.9329  1.3178
  867MOL0     H14397  11.137   4.127   1.006  0.7237 -2.6718 -0.9044
  867MOL0     H14398  11.122   3.851   0.831  0.7954  2.1671 -0.5737
  867MOL0     H14399  11.176   3.889   0.995 -4.4402  1.6296 -1.1515
  867MOL0     H14400  11.381   3.814   0.793 -2.8777  1.4900 -1.0291
  867MOL0     H14401  11.279   3.687   0.850 -0.7311  0.6770 -1.4311
  867MOL0     H14402  11.448   3.876   1.015 -0.0547 -1.0021  0.7205
  867MOL0     H14403  11.331   3.775   1.105 -0.4992  3.0850  1.0192
  867MOL0     H14404  11.594   3.693   0.957 -1.9337 -0.1858 -1.8361
  867MOL0     H14405  11.488   3.567   0.996  1.3715 -1.1961 -0.6803
  867MOL0     H14406  11.472   3.678   1.428  1.6192 -0.8710  2.7672
  867MOL0     H14407  11.479   3.878   1.548 -0.3853 -0.8645 -0.0705
  867MOL0     H14408  11.711   4.131   1.803  1.5209  0.7551  1.3511
  867MOL0     H14409  11.677   4.315   1.995 -3.0290  1.2337  1.2132
  867MOL0     H14410  11.457   4.634   1.872  1.0616  2.4871  0.4399
  867MOL0     H14411  11.545   4.690   2.008  1.2687 -2.9366 -0.8558
  867MOL0     H14412  11.361   4.668   2.147 -3.0181 -4.8307  0.4804
  867MOL0     H14413  11.261   4.596   2.028  0.3170 -0.7450 -0.3717
  867MOL0     H14414  11.298   4.801   1.880  3.9042 -3.3032 -0.4702
  867MOL0     H14415  11.360   4.889   2.013  0.4901  2.0801 -4.3457
  867MOL0     H14416  11.078   4.772   1.981 -1.1146  0.0915  2.8420
  867MOL0     H14417  11.149   4.803   2.146 -2.6993  0.3039  1.5955
  867MOL0     H14418  11.136   5.015   1.924  2.3231 -3.5602 -0.5331
  867MOL0     H14419  11.182   5.039   2.104 -2.0767 -1.5456  2.9755
  867MOL0     H14420  10.952   4.978   2.143  1.3205 -2.4712 -0.0094
  867MOL0     H14421  10.932   4.940   1.959 -1.4511 -0.8136  2.6844
  867MOL0     H14422  10.986   5.209   2.096  0.2760  1.0272 -2.4024
  867MOL0     H14423  10.970   5.171   1.916 -0.9673  1.3993 -0.7396
  867MOL0     H14424  10.739   5.137   1.938 -0.8402 -1.5710  1.2161
  867MOL0     H14425  10.791   5.277   2.031  2.1712  0.0437  1.4487
  867MOL0     H14426  11.332   4.447   1.818 -0.0107 -0.0782  1.9445
  867MOL0     H14427  11.360   4.277   1.635 -1.5456 -0.1109  0.9698
  867MOL0     H14428  11.703   4.072   1.236  1.9355 -1.5580  2.3617
  867MOL0     H14429  11.700   3.880   1.108  2.4418 -2.2441  3.0177
  867MOL0     H14430  10.156   4.606   0.685 -0.2849  0.9427 -2.9398
  867MOL0     H14431   9.912   4.632   0.662 -1.8983 -0.5111  3.1391
  867MOL0     H14432   9.461   4.643   0.797 -0.9393 -2.3215  0.1245
  867MOL0     H14433   9.240   4.728   0.716  1.3991 -0.4580  1.9287
  867MOL0     H14434   9.074   4.833   0.612 -2.6573  0.6935 -0.0157
  867MOL0     H14435   9.013   4.683   0.649  2.3501 -0.6101  0.3538
  867MOL0     H14436   8.873   4.698   0.434 -1.2357  0.4276  0.8002
  867MOL0     H14437   8.848   4.831   0.539 -0.4089 -0.8000  0.4425
  867MOL0     H14438   8.874   4.887   0.289  1.1376 -3.4190 -2.8895
  867MOL0     H14439   9.031   4.823   0.298  1.1314 -1.6723  2.0525
  867MOL0     H14440   8.987   5.044   0.505  1.3368  0.0525  0.3437
  867MOL0     H14441   9.131   5.023   0.402 -0.1212  3.8081  0.0199
  867MOL0     H14442   8.921   5.296   0.170  0.2915  0.4825  0.3259
  867MOL0     H14443   9.305   4.517   0.346 -0.5497 -0.2656 -0.9607
  867MOL0     H14444   9.538   4.487   0.402 -0.7335  1.0092 -1.9357
  868MOL0     O14445   6.755   1.422   3.181 -0.2956 -0.3173 -0.4950
  868MOL0     C14446   6.780   1.323   3.251 -0.0894 -1.0605 -0.6481
  868MOL0     O14447   6.692   1.230   3.289  0.0205  0.3665  0.9406
  868MOL0     C14448   6.557   1.239   3.267  1.0142 -0.0025  0.4843
  868MOL0     C14449   6.483   1.340   3.196  0.0385  0.5273  0.6568
  868MOL0     C14450   6.343   1.332   3.180 -0.9138 -0.1349  0.5026
  868MOL0     C14451   6.273   1.227   3.235  0.3803 -0.1591 -0.8397
  868MOL0     O14452   6.139   1.235   3.205  0.7216 -0.0572  0.2890
  868MOL0     C14453   6.036   1.150   3.274 -0.5127 -0.5345  0.2216
  868MOL0     C14454   6.031   1.191   3.422  0.5665 -0.3610 -0.1003
  868MOL0     C14455   5.981   1.341   3.429 -0.6157  0.4516 -0.6316
  868MOL0     C14456   5.902   1.368   3.562  0.8278 -0.2270  0.2669
  868MOL0     C14457   5.763   1.407   3.533  0.4988  0.2341 -0.4983
  868MOL0     C14458   5.673   1.291   3.484  0.5327 -0.1387  0.7289
  868MOL0     C14459   5.524   1.326   3.482  0.2488 -1.4154  0.0165
  868MOL0     C14460   5.447   1.233   3.398  0.7060 -0.0153  1.3040
  868MOL0     N14461   5.460   1.095   3.447 -0.4082 -0.3974 -1.1442
  868MOL0     C14462   5.431   1.064   3.575 -0.1228 -0.1002 -0.4820
  868MOL0     C14463   5.442   0.935   3.572  0.2259 -0.4216  0.2528
  868MOL0     C14464   5.427   0.839   3.682  0.0298 -0.5352 -0.9186
  868MOL0     C14465   5.486   0.700   3.649 -0.6394  1.0702 -0.4977
  868MOL0     C14466   5.445   0.605   3.758  0.7283  0.4446  0.4945
  868MOL0     C14467   5.510   0.471   3.750  0.0936  1.0704 -0.6272
  868MOL0     O14468   5.405   0.388   3.683 -0.4731 -0.2823 -0.6591
  868MOL0     C14469   5.411   0.260   3.713  0.8159  1.3551 -0.0194
  868MOL0     C14470   5.294   0.177   3.684 -0.6424  1.1047 -1.3168
  868MOL0     C14471   5.278   0.045   3.702 -0.4539 -0.5399  0.1152
  868MOL0     C14472   5.395  -0.021   3.760 -0.2465 -1.0075  0.2183
  868MOL0     C14473   5.389  -0.160   3.796  1.0122  0.1582 -0.2249
  868MOL0     O14474   5.481  -0.208   3.889  0.4410  0.3273  0.8881
  868MOL0     C14475   5.458  -0.338   3.947 -1.2436 -0.3393  0.0766
  868MOL0     C14476   5.472  -0.450   3.861 -0.2122 -0.4960  0.0297
  868MOL0     C14477   5.437  -0.581   3.899  0.2855  0.1525 -0.4595
  868MOL0     C14478   5.398  -0.603   4.037  0.5175  0.2397  0.7337
  868MOL0     O14479   5.381  -0.727   4.097 -0.4303  0.8121 -0.3027
  868MOL0     C14480   5.507  -0.795   4.104 -0.4684  0.7818  0.5319
  868MOL0     C14481   5.526  -0.864   4.239 -0.4325  0.5176  0.2691
  868MOL0     C14482   5.443  -0.990   4.237 -0.5937 -0.3844  0.0261
  868MOL0     C14483   5.424  -1.047   4.377 -0.3788 -0.7749 -0.2050
  868MOL0     C14484   5.366  -1.191   4.357 -0.9888 -0.6203  0.1057
  868MOL0     C14485   5.300  -1.248   4.483  0.1220 -0.6376  0.0826
  868MOL0     C14486   5.158  -1.188   4.508  0.5511 -0.3263 -0.4852
  868MOL0     C14487   5.114  -1.228   4.646  0.3595 -0.4218 -0.0663
  868MOL0    Cl14488   5.083  -1.402   4.666 -0.3150  0.6269 -0.3887
  868MOL0     C14489   5.388  -0.491   4.123  0.3355  0.6793  0.1916
  868MOL0     C14490   5.410  -0.359   4.081  0.4108  1.0669  0.0646
  868MOL0     O14491   5.292  -0.226   3.759 -0.4701  0.2317  1.1533
  868MOL0     C14492   5.511   0.053   3.794  0.0371 -0.9058  0.8436
  868MOL0     C14493   5.520   0.183   3.761 -0.5512 -0.5784 -0.5200
  868MOL0     N14494   5.496   0.889   3.450 -0.0836  0.0339 -0.0105
  868MOL0     N14495   5.496   0.994   3.370  0.0456 -0.2978  0.1610
  868MOL0     C14496   6.341   1.121   3.294 -0.2067  0.3015 -0.3339
  868MOL0     C14497   6.482   1.132   3.322 -0.0542 -0.6171  0.8229
  868MOL0     C14498   6.922   1.307   3.293  1.0797  0.2045  1.1894
  868MOL0     C14499   6.949   1.225   3.402  0.9622 -0.5017 -0.1997
  868MOL0     C14500   7.082   1.189   3.436  0.4248 -0.8758  1.1450
  868MOL0     C14501   7.189   1.235   3.363 -0.1577 -0.3558  0.3815
  868MOL0     O14502   7.321   1.199   3.394 -0.3078 -0.8341 -0.6439
  868MOL0     C14503   7.342   1.062   3.453  0.0611  0.8152 -0.3801
  868MOL0     C14504   7.321   0.949   3.353 -0.3865  0.4660  0.3654
  868MOL0     C14505   7.400   0.982   3.223  0.5022  0.2635  1.8706
  868MOL0     C14506   7.372   0.873   3.113  0.0003 -1.0451 -0.1894
  868MOL0     C14507   7.404   0.735   3.163  0.3463 -0.9727  0.0335
  868MOL0     C14508   7.447   0.634   3.198 -0.0320  0.8062 -0.0285
  868MOL0     C14509   7.162   1.329   3.263  0.2970  0.3636  0.5279
  868MOL0     C14510   7.035   1.363   3.217  0.5107 -0.7426  1.2203
  868MOL0     H14511   6.522   1.429   3.147  0.5452  0.1882  0.4266
  868MOL0     H14512   6.285   1.397   3.115  0.6265 -0.7422 -1.5850
  868MOL0     H14513   6.047   1.041   3.268  1.6046 -0.4219  1.2342
  868MOL0     H14514   5.945   1.169   3.216 -0.9529 -4.1573 -0.5151
  868MOL0     H14515   6.127   1.189   3.476 -0.0661 -0.4629  1.0584
  868MOL0     H14516   5.956   1.131   3.475 -0.4566  3.4656  3.3313
  868MOL0     H14517   5.927   1.357   3.335  2.6783  0.3204 -2.7171
  868MOL0     H14518   6.068   1.408   3.426 -2.6661  3.4219  0.9156
  868MOL0     H14519   5.902   1.276   3.621  0.7607 -1.6524 -1.8237
  868MOL0     H14520   5.942   1.448   3.624 -1.2733  2.1373 -1.2193
  868MOL0     H14521   5.772   1.491   3.464  2.5038  1.5969  1.2758
  868MOL0     H14522   5.720   1.450   3.624  3.5442  0.2831  1.0376
  868MOL0     H14523   5.700   1.196   3.532  2.8509 -0.2504 -0.6312
  868MOL0     H14524   5.690   1.278   3.377 -2.1938  1.2102  0.0480
  868MOL0     H14525   5.489   1.329   3.586  0.3337 -0.2377  0.0159
  868MOL0     H14526   5.504   1.427   3.446 -1.2737 -1.1811  1.4187
  868MOL0     H14527   5.492   1.238   3.298 -0.2524 -0.4096  0.8500
  868MOL0     H14528   5.343   1.261   3.383  1.5482  1.1724 -5.6888
  868MOL0     H14529   5.397   1.121   3.660  4.1707 -1.6001  2.6320
  868MOL0     H14530   5.322   0.836   3.712  1.0403 -1.2191  3.2857
  868MOL0     H14531   5.478   0.880   3.770  1.8733 -3.4420 -0.4932
  868MOL0     H14532   5.595   0.710   3.653 -0.3610 -1.4755  0.0667
  868MOL0     H14533   5.452   0.654   3.556 -0.7058  0.9063 -0.3915
  868MOL0     H14534   5.476   0.652   3.852 -0.6094 -3.1031  2.9047
  868MOL0     H14535   5.336   0.595   3.759  0.6745  0.5302 -1.1535
  868MOL0     H14536   5.526   0.429   3.850  3.4185  0.2327 -1.4047
  868MOL0     H14537   5.607   0.471   3.700  0.1480 -1.4544 -0.6367
  868MOL0     H14538   5.212   0.237   3.645  0.4118  2.7422 -1.1243
  868MOL0     H14539   5.188  -0.008   3.673 -0.3788 -0.0705 -1.0040
  868MOL0     H14540   5.489  -0.430   3.755 -0.4375  2.0663  0.4248
  868MOL0     H14541   5.457  -0.663   3.831  0.5617  1.3943 -1.9508
  868MOL0     H14542   5.587  -0.721   4.102 -0.1401  0.4694 -2.3407
  868MOL0     H14543   5.527  -0.865   4.022  0.1440 -1.7821  2.7567
  868MOL0     H14544   5.500  -0.802   4.325  0.2625  0.9891  0.1452
  868MOL0     H14545   5.630  -0.899   4.237  0.2826  2.5265 -2.0209
  868MOL0     H14546   5.501  -1.057   4.173  0.3320  2.5367 -2.4196
  868MOL0     H14547   5.345  -0.972   4.191 -0.0149  4.4578  0.1703
  868MOL0     H14548   5.521  -1.060   4.425 -0.9802 -2.4681  0.6350
  868MOL0     H14549   5.353  -0.991   4.439 -0.4490 -0.8447 -0.2216
  868MOL0     H14550   5.453  -1.251   4.327 -0.6302 -0.8448  1.5365
  868MOL0     H14551   5.297  -1.197   4.272  0.5874  1.0689 -1.3994
  868MOL0     H14552   5.348  -1.242   4.581  1.0900 -0.3744 -0.3899
  868MOL0     H14553   5.283  -1.353   4.455 -1.8704 -0.2874 -0.1382
  868MOL0     H14554   5.158  -1.079   4.503 -0.8822 -0.3591 -3.2833
  868MOL0     H14555   5.088  -1.226   4.432 -1.9087  0.3686  1.2946
  868MOL0     H14556   5.023  -1.173   4.670  0.9045  0.7481 -0.5977
  868MOL0     H14557   5.192  -1.195   4.715 -0.4216  3.5807 -0.8657
  868MOL0     H14558   5.347  -0.512   4.221 -0.5715  0.3338 -0.2616
  868MOL0     H14559   5.403  -0.270   4.143  2.7553  3.2649 -2.5472
  868MOL0     H14560   5.584  -0.005   3.850  0.9183 -1.1035 -0.4581
  868MOL0     H14561   5.617   0.230   3.773 -0.4407 -0.4167 -1.8809
  868MOL0     H14562   6.293   1.028   3.322  3.7465 -1.3887  1.6339
  868MOL0     H14563   6.536   1.045   3.358 -1.0915 -0.8212  1.9355
  868MOL0     H14564   6.865   1.198   3.465  0.0986  0.4482 -0.9129
  868MOL0     H14565   7.109   1.125   3.519 -0.0402  0.2903  2.2150
  868MOL0     H14566   7.300   1.035   3.550  0.2233 -0.9072 -0.7695
  868MOL0     H14567   7.452   1.063   3.456  0.1038 -0.5033  2.5714
  868MOL0     H14568   7.361   0.853   3.386  0.4302 -0.1357 -2.1749
  868MOL0     H14569   7.213   0.932   3.346  0.1676 -3.7366 -0.6642
  868MOL0     H14570   7.508   0.985   3.241  1.5246 -0.6215 -2.8589
  868MOL0     H14571   7.369   1.077   3.180  4.1021 -0.4024 -2.9921
  868MOL0     H14572   7.265   0.886   3.093  0.1112  4.0515  1.0783
  868MOL0     H14573   7.435   0.889   3.025  0.9004 -3.1060  0.0301
  868MOL0     H14574   7.499   0.556   3.250  0.3064  2.5689  2.5194
  868MOL0     H14575   7.244   1.355   3.197 -0.2743 -1.4905 -0.9905
  868MOL0     H14576   7.021   1.430   3.133 -2.4343  0.5749  2.6123
  869MOL0     O14577   6.809   7.731   8.194  0.2075 -0.6621  0.0883
  869MOL0     C14578   6.861   7.691   8.096  0.4265  0.4554 -0.0431
  869MOL0     O14579   6.792   7.647   7.986  0.4691 -0.5794  0.6825
  869MOL0     C14580   6.658   7.641   7.982  0.1794 -1.1968  0.0714
  869MOL0     C14581   6.581   7.543   8.055 -0.1499  0.3381  0.3209
  869MOL0     C14582   6.439   7.537   8.036  0.2735 -0.0698  0.9782
  869MOL0     C14583   6.377   7.626   7.948 -0.8593  0.3514 -0.4603
  869MOL0     O14584   6.241   7.614   7.944 -0.1097  0.1809  0.3077
  869MOL0     C14585   6.164   7.707   7.875 -0.1723  0.4845  0.0631
  869MOL0     C14586   6.129   7.832   7.954 -0.7905 -0.3556  0.4994
  869MOL0     C14587   6.049   7.810   8.084 -1.0665  1.5267  0.8004
  869MOL0     C14588   5.996   7.950   8.138  0.2308 -0.5219  0.0056
  869MOL0     C14589   5.835   7.959   8.172 -0.6102  0.4235  0.0424
  869MOL0     C14590   5.805   8.100   8.233  0.2589 -0.2042  0.0275
  869MOL0     C14591   5.850   8.121   8.378 -0.7735 -0.2574  0.0540
  869MOL0     C14592   5.823   8.274   8.409 -0.3763  0.8949 -0.4395
  869MOL0     N14593   5.934   8.365   8.387 -0.8564 -0.0725 -0.1872
  869MOL0     C14594   5.929   8.493   8.321 -0.4792 -0.0471 -0.3505
  869MOL0     C14595   6.049   8.553   8.360  0.5325  0.8498  0.2465
  869MOL0     C14596   6.101   8.684   8.317 -0.4710  0.0126 -0.1004
  869MOL0     C14597   6.062   8.798   8.413  0.1021 -0.0113 -0.7253
  869MOL0     C14598   6.129   8.810   8.551  0.4439  0.1129  1.1279
  869MOL0     C14599   6.271   8.862   8.544  0.2220 -0.0055  0.8865
  869MOL0     O14600   6.319   8.907   8.675  0.4415  0.8359  0.5602
  869MOL0     C14601   6.336   8.815   8.780  1.0824 -0.1937 -0.6175
  869MOL0     C14602   6.335   8.867   8.907 -0.2346 -0.4191 -1.0364
  869MOL0     C14603   6.362   8.784   9.015  0.9506  0.6334 -0.3538
  869MOL0     C14604   6.373   8.644   9.010  0.1245  0.3616  0.0021
  869MOL0     C14605   6.398   8.555   9.128 -0.0790 -0.0740 -0.2395
  869MOL0     O14606   6.372   8.424   9.110 -0.3260 -0.2073 -0.6040
  869MOL0     C14607   6.390   8.344   9.222  0.8615 -0.1514  0.2008
  869MOL0     C14608   6.468   8.230   9.213  0.0071 -0.8718 -0.3451
  869MOL0     C14609   6.481   8.142   9.321 -0.0409 -0.2063  0.1320
  869MOL0     C14610   6.431   8.176   9.441  0.3710  0.2086 -0.4916
  869MOL0     O14611   6.432   8.086   9.545  1.1909  0.2756 -0.2700
  869MOL0     C14612   6.304   8.038   9.596 -0.3611  0.3493  0.0790
  869MOL0     C14613   6.323   7.962   9.728 -0.0871  0.0258 -0.6397
  869MOL0     C14614   6.185   7.944   9.809 -0.5580  0.6474  0.8405
  869MOL0     C14615   6.196   7.877   9.932  0.2244  0.2966 -0.4907
  869MOL0     C14616   6.234   7.729   9.916 -0.0986 -0.5185  0.3964
  869MOL0     C14617   6.226   7.653  10.050 -0.5447 -0.2263  0.1225
  869MOL0     C14618   6.260   7.498  10.030  0.6180 -0.0885  0.8220
  869MOL0     C14619   6.230   7.418  10.156  0.8231 -0.3598 -0.7036
  869MOL0    Cl14620   6.253   7.242  10.135 -0.4500 -0.1575  0.5016
  869MOL0     C14621   6.363   8.302   9.457  0.4017  0.4845 -0.8641
  869MOL0     C14622   6.329   8.378   9.342  0.3656  0.6908 -1.2181
  869MOL0     O14623   6.435   8.612   9.230 -0.2566  0.0421 -0.6693
  869MOL0     C14624   6.357   8.591   8.877  0.3142  0.2273 -1.6764
  869MOL0     C14625   6.344   8.674   8.767 -1.6306 -0.1958 -0.0153
  869MOL0     N14626   6.109   8.469   8.464  0.5295  0.2558  0.9485
  869MOL0     N14627   6.038   8.363   8.479 -0.9633  0.8716  0.0418
  869MOL0     C14628   6.456   7.723   7.875  0.1805  0.3606  0.8507
  869MOL0     C14629   6.594   7.725   7.888 -0.2587  0.3283  0.5072
  869MOL0     C14630   7.007   7.657   8.096  0.1993 -0.4388 -0.1881
  869MOL0     C14631   7.080   7.704   8.210  1.3611  0.3046  0.1918
  869MOL0     C14632   7.218   7.690   8.216 -0.4866 -0.2234  1.8969
  869MOL0     C14633   7.291   7.637   8.115 -0.0577 -0.6362  0.3991
  869MOL0     O14634   7.426   7.628   8.126 -0.7607  0.1234 -0.4139
  869MOL0     C14635   7.502   7.580   8.008 -0.0734  0.1043 -0.2263
  869MOL0     C14636   7.655   7.544   8.011  0.4719 -0.2936 -0.4793
  869MOL0     C14637   7.730   7.517   7.884 -0.0678 -0.0349 -0.1580
  869MOL0     C14638   7.821   7.390   7.881  0.5184 -0.2047 -0.5043
  869MOL0     C14639   7.863   7.375   7.744 -0.3984 -0.2362 -1.1320
  869MOL0     C14640   7.918   7.363   7.635  0.1080 -0.3664 -1.1049
  869MOL0     C14641   7.219   7.589   7.999  1.1208 -0.5396 -0.8363
  869MOL0     C14642   7.081   7.596   7.998  1.5366 -1.1081 -0.2942
  869MOL0     H14643   6.634   7.494   8.136  1.8590 -0.5192 -1.3873
  869MOL0     H14644   6.362   7.478   8.084 -2.8966  1.8943 -1.2610
  869MOL0     H14645   6.070   7.658   7.847  0.7246 -0.4651 -1.3842
  869MOL0     H14646   6.218   7.735   7.784  3.3285  1.9045  2.3466
  869MOL0     H14647   6.058   7.888   7.892 -0.3778 -0.1031  0.2527
  869MOL0     H14648   6.218   7.893   7.972 -0.9885 -0.4544  2.0225
  869MOL0     H14649   6.124   7.771   8.154 -4.9391 -1.9616  3.4792
  869MOL0     H14650   5.971   7.735   8.076  1.2301 -0.9416  0.0540
  869MOL0     H14651   6.042   7.964   8.236 -1.1065 -0.2709  0.6209
  869MOL0     H14652   6.019   8.034   8.073 -2.0254  0.3903  0.2690
  869MOL0     H14653   5.821   7.876   8.242  0.3416 -0.6551 -1.0083
  869MOL0     H14654   5.786   7.953   8.075  0.6670 -2.2025 -0.5104
  869MOL0     H14655   5.698   8.119   8.220  0.4699 -0.0542 -1.8799
  869MOL0     H14656   5.846   8.183   8.175 -0.6803  3.7876  4.5029
  869MOL0     H14657   5.801   8.056   8.451 -0.0944 -1.4144 -0.4828
  869MOL0     H14658   5.958   8.125   8.395 -1.0928  2.0432  1.8892
  869MOL0     H14659   5.802   8.281   8.516  0.7434 -0.8684 -0.0745
  869MOL0     H14660   5.738   8.316   8.353  1.1228  3.8080 -0.7068
  869MOL0     H14661   5.856   8.538   8.254  1.1790  1.9710 -0.9320
  869MOL0     H14662   6.055   8.704   8.220 -2.3748 -0.4047  0.6740
  869MOL0     H14663   6.210   8.678   8.307 -0.3241  3.5769 -2.0733
  869MOL0     H14664   5.954   8.797   8.425 -0.1045 -1.7137 -2.3504
  869MOL0     H14665   6.099   8.887   8.360  0.3007 -0.3322 -1.1339
  869MOL0     H14666   6.080   8.882   8.618  0.3214  3.2151 -2.0250
  869MOL0     H14667   6.122   8.713   8.600 -2.0633 -0.5671 -0.4036
  869MOL0     H14668   6.287   8.950   8.480  1.3604 -1.5533 -1.0959
  869MOL0     H14669   6.336   8.781   8.511 -1.6263 -1.2469  0.0903
  869MOL0     H14670   6.320   8.972   8.931  3.0153 -0.5592  2.5984
  869MOL0     H14671   6.372   8.823   9.116 -2.1256 -1.6125  0.9663
  869MOL0     H14672   6.495   8.196   9.114 -1.4383 -1.0739 -0.6888
  869MOL0     H14673   6.534   8.049   9.303  0.5579  0.1942 -0.1847
  869MOL0     H14674   6.263   7.966   9.524  2.1810 -1.5207  0.3376
  869MOL0     H14675   6.242   8.128   9.599  0.2340  0.7860 -0.3841
  869MOL0     H14676   6.384   8.023   9.795 -0.4133 -2.4514  2.1184
  869MOL0     H14677   6.369   7.864   9.712 -0.0961  0.0109 -0.5695
  869MOL0     H14678   6.108   7.899   9.744  0.3037  0.6517 -0.2112
  869MOL0     H14679   6.140   8.038   9.840  0.5220  1.4185  0.1184
  869MOL0     H14680   6.259   7.929  10.005 -1.7709 -0.8506  2.2068
  869MOL0     H14681   6.096   7.882   9.975 -1.3804  2.2062 -4.0065
  869MOL0     H14682   6.335   7.717   9.875 -0.3267  0.8443 -0.6274
  869MOL0     H14683   6.169   7.680   9.843  2.6871 -1.2661 -1.7407
  869MOL0     H14684   6.129   7.660  10.101 -0.8450 -0.1300 -0.4583
  869MOL0     H14685   6.292   7.702  10.123  0.3923  0.6638 -1.2629
  869MOL0     H14686   6.187   7.450   9.964  2.4693 -4.0181  1.3267
  869MOL0     H14687   6.363   7.481   9.998  0.4515 -0.1661  0.3120
  869MOL0     H14688   6.132   7.454  10.188  1.0705 -2.3846  2.7128
  869MOL0     H14689   6.307   7.449  10.227 -0.0979 -0.1955  0.2347
  869MOL0     H14690   6.315   8.326   9.552  4.0302 -0.6744  1.4707
  869MOL0     H14691   6.264   8.464   9.355  0.6811  0.4719  2.7476
  869MOL0     H14692   6.379   8.485   8.869  1.9105  0.4340 -0.5069
  869MOL0     H14693   6.345   8.626   8.670 -1.0220  0.6706 -0.4391
  869MOL0     H14694   6.411   7.793   7.805 -0.6569 -2.5213 -1.7437
  869MOL0     H14695   6.652   7.802   7.837  0.3578  1.3496  2.6288
  869MOL0     H14696   7.031   7.737   8.302  1.2038 -0.3814  0.3594
  869MOL0     H14697   7.273   7.710   8.308  1.5770  3.3330  0.1064
  869MOL0     H14698   7.474   7.651   7.929 -0.6933 -0.7265 -0.7679
  869MOL0     H14699   7.454   7.489   7.971  0.2862 -0.1881  0.0176
  869MOL0     H14700   7.699   7.638   8.046 -1.6037  0.7486 -0.5019
  869MOL0     H14701   7.680   7.456   8.072 -2.1369 -2.4015 -2.2504
  869MOL0     H14702   7.801   7.597   7.862 -0.4002 -0.4655 -3.3134
  869MOL0     H14703   7.664   7.521   7.797  0.2335 -0.5823 -0.4245
  869MOL0     H14704   7.912   7.382   7.941  1.9615 -1.2343 -2.7172
  869MOL0     H14705   7.747   7.314   7.908 -1.6447  2.0194  0.2009
  869MOL0     H14706   7.970   7.355   7.542  1.8385  0.8776 -0.2934
  869MOL0     H14707   7.260   7.542   7.910  1.7108  4.1705 -3.3432
  869MOL0     H14708   7.035   7.566   7.904  0.7320  2.3590 -1.1381
  870MOL0     O14709   3.683  10.772  11.063 -0.3053  0.1944  0.0997
  870MOL0     C14710   3.752  10.677  11.018  0.9125 -0.0214 -0.7431
  870MOL0     O14711   3.818  10.576  11.087  0.2682  0.2397 -0.6191
  870MOL0     C14712   3.847  10.578  11.228  0.2839 -1.1757  0.4964
  870MOL0     C14713   3.929  10.481  11.279 -0.5151  0.6689 -0.3077
  870MOL0     C14714   3.970  10.486  11.407 -1.0139  0.1063 -0.5981
  870MOL0     C14715   3.928  10.583  11.497 -0.0696  0.0522 -0.2287
  870MOL0     O14716   3.977  10.606  11.626 -0.5788 -0.2727  0.0012
  870MOL0     C14717   4.107  10.549  11.669  0.3682  0.1575  0.2210
  870MOL0     C14718   4.183  10.668  11.733 -0.1933 -0.4164 -0.1746
  870MOL0     C14719   4.317  10.620  11.777 -0.2062 -0.5990  0.2167
  870MOL0     C14720   4.404  10.734  11.824  0.4688 -0.3512 -0.9839
  870MOL0     C14721   4.536  10.671  11.880 -0.2142 -0.4135 -0.5474
  870MOL0     C14722   4.640  10.779  11.916  0.6088 -0.0391  0.4668
  870MOL0     C14723   4.761  10.724  11.996  0.9840  0.9896 -0.7993
  870MOL0     C14724   4.823  10.810  12.115 -0.9860 -1.2877  0.3580
  870MOL0     N14725   4.892  10.927  12.055 -0.2866  0.2757  0.2528
  870MOL0     C14726   4.980  10.932  11.955  0.4139  0.2981 -0.0058
  870MOL0     C14727   5.008  11.057  11.945 -0.4525 -0.5201  0.4595
  870MOL0     C14728   5.110  11.110  11.848  0.1348 -0.3889  0.0766
  870MOL0     C14729   5.040  11.199  11.752  0.0559 -0.1997 -0.5002
  870MOL0     C14730   5.150  11.258  11.668  1.1474  0.3087 -1.0307
  870MOL0     C14731   5.097  11.344  11.550  0.2429  0.5918 -0.7574
  870MOL0     O14732   5.124  11.273  11.428 -0.9573  0.4364  0.0869
  870MOL0     C14733   5.086  11.334  11.303 -0.6622 -0.9286 -0.5161
  870MOL0     C14734   5.159  11.289  11.192  0.3889  0.8132 -0.9366
  870MOL0     C14735   5.149  11.357  11.070  0.5950 -0.8469 -0.1681
  870MOL0     C14736   5.072  11.471  11.054 -0.7685 -0.6003  1.1192
  870MOL0     C14737   5.055  11.545  10.922 -0.3371  0.2025 -0.5639
  870MOL0     O14738   5.114  11.499  10.812  0.0702 -0.1661  0.0222
  870MOL0     C14739   5.122  11.579  10.697  0.0004  0.3938 -0.2165
  870MOL0     C14740   5.077  11.525  10.576 -0.0433  0.0401 -0.1851
  870MOL0     C14741   5.092  11.599  10.458 -0.1589 -0.4073 -0.0697
  870MOL0     C14742   5.147  11.722  10.458 -0.5271  0.5134 -0.0868
  870MOL0     O14743   5.142  11.795  10.347 -0.4414 -0.0577  0.5409
  870MOL0     C14744   5.042  11.889  10.314 -1.2587  0.1709  0.1246
  870MOL0     C14745   5.095  12.032  10.335 -0.3102  0.1459  0.3422
  870MOL0     C14746   4.983  12.139  10.313 -0.7531 -0.1916 -1.1109
  870MOL0     C14747   5.022  12.266  10.390 -0.2370  0.0860  0.3120
  870MOL0     C14748   4.905  12.365  10.378 -0.1227  0.3035 -0.6204
  870MOL0     C14749   4.925  12.476  10.491  0.4334  0.0402  0.0765
  870MOL0     C14750   4.817  12.595  10.472 -0.4718 -0.6365 -0.7661
  870MOL0     C14751   4.681  12.531  10.436 -0.6733 -0.1464  0.6244
  870MOL0    Cl14752   4.546  12.658  10.410 -0.4407 -0.1268 -0.7199
  870MOL0     C14753   5.205  11.771  10.578  0.5724  0.1397 -0.2485
  870MOL0     C14754   5.196  11.696  10.695  1.3740  0.7024 -0.2929
  870MOL0     O14755   4.989  11.649  10.930  0.0583  0.5451  0.2975
  870MOL0     C14756   5.007  11.525  11.169 -0.0922  0.3605  0.3414
  870MOL0     C14757   5.008  11.453  11.294  0.2360 -1.7826  0.0890
  870MOL0     N14758   4.944  11.130  12.042 -0.4943 -0.8850 -0.0282
  870MOL0     N14759   4.878  11.042  12.110  0.0330  1.0217 -0.2055
  870MOL0     C14760   3.853  10.682  11.447 -0.5789 -0.2440  0.0602
  870MOL0     C14761   3.805  10.679  11.315 -0.7981  0.2529 -0.0836
  870MOL0     C14762   3.738  10.657  10.870  0.3439  0.9432 -0.7387
  870MOL0     C14763   3.823  10.562  10.805  1.1344  0.4721 -0.5697
  870MOL0     C14764   3.815  10.540  10.678  0.4291  0.2603  0.6507
  870MOL0     C14765   3.718  10.610  10.606  1.2121 -0.0951  0.0662
  870MOL0     O14766   3.694  10.577  10.475 -0.2514 -0.2148  0.0810
  870MOL0     C14767   3.790  10.605  10.375 -1.0748 -0.3416  0.3258
  870MOL0     C14768   3.755  10.537  10.252  0.4900 -0.6463  0.4483
  870MOL0     C14769   3.623  10.580  10.183  0.1432  0.7024  0.4988
  870MOL0     C14770   3.634  10.547  10.034 -0.0541 -0.6063  0.0516
  870MOL0     C14771   3.509  10.567   9.946  0.4459 -0.0243 -0.1332
  870MOL0     C14772   3.425  10.583   9.864 -0.0603  0.2103  0.1231
  870MOL0     C14773   3.628  10.699  10.655  0.8004 -0.2061  0.1333
  870MOL0     C14774   3.633  10.724  10.797 -0.3763  1.1783 -0.0792
  870MOL0     H14775   3.965  10.398  11.219 -1.5589  0.2711 -0.4137
  870MOL0     H14776   4.027  10.401  11.445 -2.9480 -0.6452  0.7550
  870MOL0     H14777   4.174  10.512  11.590  0.7952 -1.3071  1.2267
  870MOL0     H14778   4.097  10.478  11.752  0.3575 -2.5295 -1.9378
  870MOL0     H14779   4.107  10.695  11.807 -1.0720  0.3979 -1.3250
  870MOL0     H14780   4.191  10.762  11.678  1.5473 -0.2295  0.3493
  870MOL0     H14781   4.374  10.578  11.693 -1.3907  0.0900 -0.9615
  870MOL0     H14782   4.311  10.542  11.854  0.8617  0.2826  1.2250
  870MOL0     H14783   4.424  10.803  11.742 -0.8201  0.5867 -0.5425
  870MOL0     H14784   4.351  10.791  11.901  0.4285  1.3152 -2.1957
  870MOL0     H14785   4.584  10.603  11.809  2.6967  0.1616  0.7141
  870MOL0     H14786   4.510  10.602  11.961 -1.2168 -0.9937 -1.3425
  870MOL0     H14787   4.595  10.861  11.972 -2.5392 -0.0247 -1.8043
  870MOL0     H14788   4.674  10.826  11.823  0.0068 -1.0805 -0.2942
  870MOL0     H14789   4.731  10.639  12.057  0.3918  0.4970 -1.7554
  870MOL0     H14790   4.830  10.690  11.919 -0.9871  0.9151 -2.6264
  870MOL0     H14791   4.904  10.761  12.169  0.9429 -0.4934 -1.6699
  870MOL0     H14792   4.753  10.837  12.194 -0.8707 -1.0629  0.3836
  870MOL0     H14793   5.006  10.848  11.891  1.3746  0.3962  0.2518
  870MOL0     H14794   5.165  11.026  11.804  0.8353 -0.8626  1.7846
  870MOL0     H14795   5.187  11.150  11.913  2.4110 -5.0389  0.7106
  870MOL0     H14796   4.990  11.284  11.800 -0.5387  1.4231 -3.7583
  870MOL0     H14797   4.965  11.147  11.693  1.7977 -1.6929 -1.5224
  870MOL0     H14798   5.198  11.324  11.741  1.0282 -0.0126 -0.6573
  870MOL0     H14799   5.223  11.183  11.636  3.5482  1.8534  0.5366
  870MOL0     H14800   5.139  11.445  11.557  1.1370  0.1829  0.0855
  870MOL0     H14801   4.989  11.358  11.547  0.3356  2.3321  1.3105
  870MOL0     H14802   5.218  11.197  11.195  0.5811  0.9581  0.1604
  870MOL0     H14803   5.184  11.305  10.981  1.8844  0.8633 -0.7093
  870MOL0     H14804   5.019  11.433  10.572 -0.5174  0.3086  0.3336
  870MOL0     H14805   5.030  11.569  10.374 -1.3234  2.8512 -0.5183
  870MOL0     H14806   4.959  11.876  10.384 -0.1944  0.9477  1.5777
  870MOL0     H14807   5.005  11.868  10.213  3.2596 -0.3158 -1.6543
  870MOL0     H14808   5.165  12.061  10.257 -0.8337  3.6913  0.9851
  870MOL0     H14809   5.127  12.040  10.439 -0.7717  1.5739  0.3949
  870MOL0     H14810   4.889  12.099  10.352 -0.6894  0.9888  0.3515
  870MOL0     H14811   4.966  12.175  10.212 -1.0917  4.2678  0.3315
  870MOL0     H14812   5.035  12.247  10.497  0.2658 -0.2893  0.1830
  870MOL0     H14813   5.116  12.305  10.350  0.9566 -1.1761  1.7785
  870MOL0     H14814   4.812  12.312  10.400  0.5062 -0.2814  0.8010
  870MOL0     H14815   4.906  12.410  10.278  1.1851 -2.9085 -2.2193
  870MOL0     H14816   5.023  12.525  10.487  0.5334  0.1686  2.5577
  870MOL0     H14817   4.912  12.442  10.594 -4.0212  2.8838  0.7113
  870MOL0     H14818   4.810  12.643  10.570  1.9304  1.6438 -1.5973
  870MOL0     H14819   4.855  12.671  10.403 -1.4691 -1.4600 -2.2891
  870MOL0     H14820   4.652  12.457  10.511  0.0326 -1.4538 -0.3350
  870MOL0     H14821   4.690  12.487  10.336 -1.6819 -0.5549  0.7029
  870MOL0     H14822   5.266  11.860  10.563 -0.8029  1.1612 -0.0555
  870MOL0     H14823   5.254  11.730  10.781 -0.4753  0.3581  1.1423
  870MOL0     H14824   4.934  11.605  11.166 -3.4940 -2.4224  2.0224
  870MOL0     H14825   4.961  11.509  11.374  2.5256  3.2698 -1.6367
  870MOL0     H14826   3.813  10.745  11.526  3.2964  0.3486  1.8346
  870MOL0     H14827   3.736  10.756  11.282  0.6057  1.1514 -1.0254
  870MOL0     H14828   3.902  10.515  10.861 -0.5234 -0.7863  0.8063
  870MOL0     H14829   3.876  10.461  10.635 -0.9170 -0.2845 -0.3586
  870MOL0     H14830   3.884  10.568  10.417 -2.9587 -3.7972  1.9001
  870MOL0     H14831   3.803  10.712  10.355  2.8835 -0.5864  0.6859
  870MOL0     H14832   3.842  10.559  10.190 -0.0472 -0.0468 -0.1028
  870MOL0     H14833   3.767  10.430  10.271 -0.7994 -0.6690  1.2566
  870MOL0     H14834   3.611  10.687  10.203  0.4929  1.0175 -0.8390
  870MOL0     H14835   3.541  10.522  10.226  1.8541 -0.5415  2.2145
  870MOL0     H14836   3.713  10.607   9.987  2.4114 -2.8115  1.0674
  870MOL0     H14837   3.655  10.440  10.047  4.5479  0.3437  2.8871
  870MOL0     H14838   3.358  10.578   9.781 -2.9851 -3.8912  2.3374
  870MOL0     H14839   3.542  10.737  10.602 -0.6317 -2.1922  0.9058
  870MOL0     H14840   3.562  10.785  10.853  0.8874  1.5369  1.1961
  871MOL0     O14841   7.170   1.770   4.286  0.1885  0.1927 -0.6666
  871MOL0     C14842   7.138   1.874   4.342  0.8823 -0.6624 -0.1151
  871MOL0     O14843   7.024   1.895   4.403 -0.8857 -0.5584 -0.6050
  871MOL0     C14844   6.928   1.800   4.429 -0.1479  0.4634 -0.8701
  871MOL0     C14845   6.806   1.865   4.432 -0.0134  0.2821  0.0495
  871MOL0     C14846   6.684   1.788   4.462 -0.4385  0.4398 -0.2858
  871MOL0     C14847   6.697   1.646   4.491 -0.1145 -0.7428  1.6617
  871MOL0     O14848   6.583   1.578   4.511 -0.9492 -0.3332 -0.2905
  871MOL0     C14849   6.588   1.444   4.464  0.0405 -0.3094 -0.5726
  871MOL0     C14850   6.451   1.382   4.473  0.4376 -0.6115  0.5760
  871MOL0     C14851   6.359   1.455   4.374 -0.7664  0.6531 -0.4060
  871MOL0     C14852   6.227   1.380   4.353  0.4401  1.2525  0.5968
  871MOL0     C14853   6.131   1.383   4.484 -0.4060  0.2178  1.4682
  871MOL0     C14854   5.987   1.329   4.478  0.4756  1.0416 -0.1694
  871MOL0     C14855   5.884   1.428   4.413 -1.2204 -0.0369 -0.4733
  871MOL0     C14856   5.737   1.387   4.414 -0.2082  1.2472 -0.7167
  871MOL0     N14857   5.651   1.487   4.348 -0.6025  0.8878 -0.5565
  871MOL0     C14858   5.529   1.467   4.292  1.1727 -0.0479  0.0046
  871MOL0     C14859   5.489   1.588   4.239 -0.7367  0.2502 -0.1102
  871MOL0     C14860   5.361   1.606   4.173 -0.5487  0.0110 -0.8293
  871MOL0     C14861   5.316   1.751   4.174 -0.0030 -0.0100  0.5720
  871MOL0     C14862   5.172   1.769   4.127 -0.2517 -0.2508  0.6292
  871MOL0     C14863   5.135   1.716   3.993  0.5464 -0.2247  1.1230
  871MOL0     O14864   4.994   1.738   3.949 -0.5000  0.0777 -0.6177
  871MOL0     C14865   4.905   1.690   4.037  0.6013 -0.2198  0.5277
  871MOL0     C14866   4.801   1.772   4.058  0.5091  0.1399  0.7683
  871MOL0     C14867   4.698   1.740   4.146  0.2530 -0.1186  0.1359
  871MOL0     C14868   4.691   1.613   4.211 -0.4159 -0.0957  0.4742
  871MOL0     C14869   4.576   1.552   4.282 -0.1636  0.1118  0.3807
  871MOL0     O14870   4.472   1.645   4.299  0.0104  0.0211  0.9558
  871MOL0     C14871   4.395   1.621   4.413 -0.2205  1.1376  0.7826
  871MOL0     C14872   4.281   1.542   4.414 -0.3909 -0.3231  0.7523
  871MOL0     C14873   4.215   1.511   4.524  0.1399  0.7285 -0.1670
  871MOL0     C14874   4.264   1.556   4.645 -0.4955  1.1950  0.0465
  871MOL0     O14875   4.210   1.515   4.765  0.6383  0.3721  0.4568
  871MOL0     C14876   4.191   1.628   4.854  0.7060  0.0989  0.5665
  871MOL0     C14877   4.111   1.591   4.982  1.0750  0.1424  0.4733
  871MOL0     C14878   4.073   1.726   5.043  0.3145  0.3447  0.0323
  871MOL0     C14879   3.970   1.723   5.156 -1.1457 -0.3600 -0.3661
  871MOL0     C14880   3.940   1.873   5.188  0.6866  0.3215  0.4932
  871MOL0     C14881   3.832   1.893   5.286 -0.3299 -0.0535 -0.5368
  871MOL0     C14882   3.833   1.803   5.408  0.3647  0.2020  0.1736
  871MOL0     C14883   3.783   1.877   5.529 -0.2243 -0.5610  0.3502
  871MOL0    Cl14884   3.801   1.765   5.669 -0.0982  0.1319  0.5925
  871MOL0     C14885   4.380   1.633   4.649  0.6702 -0.3258  0.7708
  871MOL0     C14886   4.440   1.666   4.532 -0.4282 -0.0613  0.2909
  871MOL0     O14887   4.584   1.439   4.331  0.2514  0.6116  0.0187
  871MOL0     C14888   4.805   1.533   4.184 -0.1473  0.1292  0.2118
  871MOL0     C14889   4.910   1.564   4.095 -0.2886 -0.6689 -0.6983
  871MOL0     N14890   5.601   1.673   4.239  0.2224 -1.3107  0.5117
  871MOL0     N14891   5.690   1.608   4.300  0.1144  0.1742 -0.2957
  871MOL0     C14892   6.830   1.584   4.479  0.0706 -0.2283 -0.2682
  871MOL0     C14893   6.936   1.661   4.446 -0.9601  0.3091 -0.6582
  871MOL0     C14894   7.232   1.996   4.327 -0.3177  0.2033  0.0511
  871MOL0     C14895   7.338   1.993   4.232  0.4220 -1.0368  0.1675
  871MOL0     C14896   7.427   2.103   4.202  0.8231  0.4594 -0.2324
  871MOL0     C14897   7.420   2.217   4.291  0.0005 -0.1824 -1.0274
  871MOL0     O14898   7.492   2.334   4.281  0.0109 -0.0460  0.2050
  871MOL0     C14899   7.589   2.343   4.173 -0.2690 -0.7488  0.6269
  871MOL0     C14900   7.718   2.268   4.177 -0.5340 -0.2282 -0.7524
  871MOL0     C14901   7.806   2.335   4.282  0.4734  0.2598 -0.2785
  871MOL0     C14902   7.865   2.480   4.238  0.2659 -0.1987 -0.7058
  871MOL0     C14903   7.963   2.473   4.134 -1.1236 -1.0202 -0.3733
  871MOL0     C14904   8.057   2.476   4.057 -0.0454 -0.7217 -0.4244
  871MOL0     C14905   7.323   2.214   4.395  0.1938  0.2412  0.2013
  871MOL0     C14906   7.227   2.113   4.410  1.1997 -0.6025 -0.3074
  871MOL0     H14907   6.803   1.972   4.413  3.2769  1.1960  3.3845
  871MOL0     H14908   6.586   1.833   4.459 -1.7571 -2.2507 -3.8911
  871MOL0     H14909   6.650   1.376   4.522 -1.7401 -2.4490 -1.0517
  871MOL0     H14910   6.617   1.451   4.359 -0.2093  0.8150 -0.5833
  871MOL0     H14911   6.406   1.392   4.573  0.2339  3.1991  0.2412
  871MOL0     H14912   6.460   1.275   4.450  1.0310 -0.7393  1.3494
  871MOL0     H14913   6.414   1.451   4.280 -0.8926  3.2617 -0.6740
  871MOL0     H14914   6.349   1.558   4.410  1.2420 -0.2648  3.3322
  871MOL0     H14915   6.159   1.426   4.281 -0.4377  0.0259  0.6181
  871MOL0     H14916   6.249   1.277   4.325 -1.5508  0.4924  1.5926
  871MOL0     H14917   6.125   1.490   4.507 -2.0250  0.2555  0.9490
  871MOL0     H14918   6.187   1.326   4.559  1.2314 -1.0156 -0.5752
  871MOL0     H14919   5.960   1.318   4.583  1.6813  3.9678  0.5567
  871MOL0     H14920   5.985   1.233   4.425 -0.8322 -0.3399  2.2047
  871MOL0     H14921   5.902   1.522   4.466  0.1257 -1.1902  1.2452
  871MOL0     H14922   5.910   1.451   4.310 -1.6916  2.5035 -0.0905
  871MOL0     H14923   5.710   1.365   4.518  0.7861 -0.5783 -0.7872
  871MOL0     H14924   5.736   1.286   4.372 -2.0363 -0.8649  3.7386
  871MOL0     H14925   5.460   1.385   4.309 -0.6307  1.7867  2.1640
  871MOL0     H14926   5.295   1.536   4.226  0.5165 -0.1163  0.3666
  871MOL0     H14927   5.355   1.570   4.070 -1.6432 -1.0336 -0.4300
  871MOL0     H14928   5.376   1.807   4.101 -1.7267  3.6933  1.7683
  871MOL0     H14929   5.313   1.808   4.268 -0.8882  0.3224  0.3514
  871MOL0     H14930   5.112   1.728   4.209  0.9008  0.0269  1.6486
  871MOL0     H14931   5.165   1.878   4.136  3.6667  0.1963 -0.0881
  871MOL0     H14932   5.162   1.611   3.982 -2.0794 -0.8640 -0.1775
  871MOL0     H14933   5.188   1.765   3.911 -0.1193  3.5450  2.7669
  871MOL0     H14934   4.788   1.865   4.003  0.4973 -0.4455 -0.2287
  871MOL0     H14935   4.616   1.811   4.145 -0.0281 -0.4424 -0.5147
  871MOL0     H14936   4.231   1.520   4.320 -1.1952  0.6118  0.9437
  871MOL0     H14937   4.131   1.443   4.508 -1.5039  2.8112 -0.9029
  871MOL0     H14938   4.142   1.713   4.807  0.0320 -0.0101  1.0552
  871MOL0     H14939   4.279   1.675   4.899  1.1035  1.1993 -1.2632
  871MOL0     H14940   4.167   1.533   5.055 -0.3406 -1.2203  0.5286
  871MOL0     H14941   4.025   1.527   4.960  1.2083 -0.1472  0.7823
  871MOL0     H14942   4.037   1.797   4.968 -0.8059 -0.9124 -0.6605
  871MOL0     H14943   4.166   1.774   5.075  2.1936 -0.4991 -3.6664
  871MOL0     H14944   3.879   1.674   5.121 -0.1826 -2.0971 -0.5552
  871MOL0     H14945   4.009   1.654   5.232  1.8353  0.1092 -1.3318
  871MOL0     H14946   3.900   1.930   5.103 -0.5177  1.1687  1.5882
  871MOL0     H14947   4.028   1.917   5.235  0.5574 -1.1314  2.2080
  871MOL0     H14948   3.738   1.871   5.235  0.4070 -1.4061 -1.3713
  871MOL0     H14949   3.830   1.999   5.314 -2.9441 -0.4742  1.2890
  871MOL0     H14950   3.759   1.722   5.401 -0.8684  1.3819 -0.9316
  871MOL0     H14951   3.929   1.758   5.435 -0.7446 -3.0199 -0.8490
  871MOL0     H14952   3.681   1.912   5.513 -0.7955 -2.6345 -0.9918
  871MOL0     H14953   3.850   1.962   5.543  0.8816 -1.2780 -0.4129
  871MOL0     H14954   4.420   1.680   4.738 -0.5748  2.1871  0.1224
  871MOL0     H14955   4.527   1.730   4.543  0.8586 -1.7568  0.5508
  871MOL0     H14956   4.821   1.438   4.234 -0.7940 -0.5370 -0.7966
  871MOL0     H14957   4.988   1.494   4.066  0.2487  0.1832 -1.3656
  871MOL0     H14958   6.839   1.479   4.503 -3.9491 -0.6160  0.2831
  871MOL0     H14959   7.021   1.594   4.438 -1.1151  0.1907 -1.4497
  871MOL0     H14960   7.339   1.908   4.165 -1.9946  1.9871 -4.2034
  871MOL0     H14961   7.494   2.094   4.116  2.8425  1.6787  1.1098
  871MOL0     H14962   7.594   2.448   4.141  0.5923 -1.3456 -1.3241
  871MOL0     H14963   7.540   2.308   4.082  1.0727  2.3324 -1.4605
  871MOL0     H14964   7.711   2.162   4.202  0.4971 -0.6099 -1.9618
  871MOL0     H14965   7.766   2.277   4.079  1.3870  0.2698  0.1697
  871MOL0     H14966   7.892   2.272   4.303 -0.7508 -1.5562 -0.5137
  871MOL0     H14967   7.750   2.346   4.376  0.8162  1.2852 -0.1711
  871MOL0     H14968   7.790   2.552   4.201  0.6570  0.6041  0.0413
  871MOL0     H14969   7.925   2.522   4.319 -0.7548 -0.2888  0.1165
  871MOL0     H14970   8.148   2.493   4.003  1.0531  2.1798  2.0458
  871MOL0     H14971   7.319   2.292   4.471 -5.2043  1.3452 -0.8059
  871MOL0     H14972   7.157   2.120   4.492  0.2720  1.5953 -1.2191
  872MOL0     O14973   0.594   0.505   1.011 -1.2000  0.5147 -0.2077
  872MOL0     C14974   0.488   0.570   1.009  0.4746  0.0839  0.5864
  872MOL0     O14975   0.394   0.571   1.106 -0.8471  0.6376 -0.0735
  872MOL0     C14976   0.426   0.529   1.228  0.0180 -0.0546 -0.4455
  872MOL0     C14977   0.490   0.414   1.282 -0.7175 -0.1556 -0.4564
  872MOL0     C14978   0.495   0.393   1.422 -1.4080  0.1080  0.6345
  872MOL0     C14979   0.445   0.490   1.502 -0.8779 -1.0449  0.0327
  872MOL0     O14980   0.459   0.503   1.642  0.6237 -0.1441  0.8540
  872MOL0     C14981   0.537   0.408   1.715  0.4666 -0.2561 -0.0998
  872MOL0     C14982   0.431   0.318   1.786 -1.2728  0.0542 -0.7139
  872MOL0     C14983   0.492   0.182   1.825 -0.8275 -0.3981 -0.6240
  872MOL0     C14984   0.616   0.197   1.907 -0.8448  0.4436 -0.3441
  872MOL0     C14985   0.651   0.067   1.969 -0.7760  1.1895  0.0318
  872MOL0     C14986   0.675  -0.046   1.856 -0.0473 -0.7377  0.1348
  872MOL0     C14987   0.730  -0.176   1.928 -0.4835  0.1645 -0.0641
  872MOL0     C14988   0.711  -0.295   1.833 -0.7334  0.8358 -0.5521
  872MOL0     N14989   0.753  -0.266   1.698 -0.5203  0.6639  0.4318
  872MOL0     C14990   0.882  -0.254   1.652 -0.2380  0.1543 -0.2185
  872MOL0     C14991   0.885  -0.288   1.524 -0.7177 -0.5077 -0.0830
  872MOL0     C14992   0.999  -0.253   1.430 -0.2735 -0.7188  0.3566
  872MOL0     C14993   0.990  -0.311   1.292  0.6749  0.1869  0.4390
  872MOL0     C14994   1.071  -0.218   1.192  0.1654 -0.1425 -0.4861
  872MOL0     C14995   1.054  -0.243   1.041 -0.5936  0.6226 -0.2374
  872MOL0     O14996   0.913  -0.228   1.009  0.3751  0.7591  0.3972
  872MOL0     C14997   0.859  -0.260   0.885 -0.0084  0.1589 -0.0269
  872MOL0     C14998   0.938  -0.314   0.785 -0.5052  0.6186 -0.3208
  872MOL0     C14999   0.885  -0.345   0.660  0.2441 -0.1556 -0.4457
  872MOL0     C15000   0.742  -0.319   0.633 -0.3920 -0.0472  1.6119
  872MOL0     C15001   0.683  -0.353   0.499  0.9238 -0.2850  0.7400
  872MOL0     O15002   0.559  -0.297   0.479 -0.1015  0.4944  0.3907
  872MOL0     C15003   0.536  -0.254   0.352  0.3107  1.2714  0.4836
  872MOL0     C15004   0.485  -0.132   0.339  0.4054  0.4252 -0.2670
  872MOL0     C15005   0.476  -0.077   0.213  0.6739 -0.3232 -0.1957
  872MOL0     C15006   0.482  -0.158   0.099  0.4233 -0.4724  0.3848
  872MOL0     O15007   0.472  -0.100  -0.025  1.1335 -0.3244  0.0701
  872MOL0     C15008   0.528  -0.180  -0.130  0.8124  0.4668  1.1229
  872MOL0     C15009   0.546  -0.098  -0.257 -0.0778  1.1759 -0.2767
  872MOL0     C15010   0.419  -0.030  -0.315 -0.0582 -0.4909 -0.5890
  872MOL0     C15011   0.290  -0.114  -0.341 -0.6827 -0.2752  0.3248
  872MOL0     C15012   0.308  -0.220  -0.444  0.0327  0.2697  0.1207
  872MOL0     C15013   0.195  -0.304  -0.513  0.3407 -0.6273 -0.9611
  872MOL0     C15014   0.157  -0.423  -0.425 -0.3920  0.4334 -0.6121
  872MOL0     C15015   0.016  -0.476  -0.432  0.3564  0.7616 -0.5333
  872MOL0    Cl15016  -0.025  -0.494  -0.606 -0.8275  0.0534  0.5733
  872MOL0     C15017   0.532  -0.288   0.112  0.3062 -0.1026 -0.3928
  872MOL0     C15018   0.560  -0.338   0.236  0.4074  0.1481 -0.5539
  872MOL0     O15019   0.748  -0.421   0.421  0.3166  0.7059  0.5177
  872MOL0     C15020   0.674  -0.260   0.743 -0.2589  0.5149  0.1763
  872MOL0     C15021   0.728  -0.241   0.865  0.2798 -0.6388  0.7753
  872MOL0     N15022   0.764  -0.335   1.495  0.1089 -0.7124 -0.3478
  872MOL0     N15023   0.686  -0.324   1.601 -0.7108  0.2628  0.9983
  872MOL0     C15024   0.382   0.606   1.454  0.5187  0.3873  0.1402
  872MOL0     C15025   0.367   0.620   1.317 -0.7817 -0.1056  0.4262
  872MOL0     C15026   0.471   0.657   0.890  0.8402 -0.8166 -1.0837
  872MOL0     C15027   0.563   0.664   0.788 -0.6110 -0.3175 -0.5819
  872MOL0     C15028   0.568   0.757   0.693 -0.2501  0.3225 -0.3505
  872MOL0     C15029   0.461   0.845   0.688  0.5053  0.2859  0.8762
  872MOL0     O15030   0.444   0.943   0.594  0.1160 -0.7686  0.0217
  872MOL0     C15031   0.477   0.909   0.454  0.1826  0.7213  0.0878
  872MOL0     C15032   0.364   0.840   0.368  0.0297 -0.1623 -0.5020
  872MOL0     C15033   0.307   0.924   0.258 -0.2667  0.4103 -0.9070
  872MOL0     C15034   0.177   1.007   0.297 -0.8176 -0.3843  0.5340
  872MOL0     C15035   0.142   1.108   0.193  0.5529  0.0034 -0.0617
  872MOL0     C15036   0.103   1.182   0.105 -0.9264  0.3201  0.5843
  872MOL0     C15037   0.347   0.827   0.768 -0.6106  0.1415 -1.0152
  872MOL0     C15038   0.355   0.740   0.880  0.3180  0.0749  0.0232
  872MOL0     H15039   0.532   0.337   1.218  5.4986  1.7595  0.6268
  872MOL0     H15040   0.538   0.301   1.460  0.4082  1.7017  2.6833
  872MOL0     H15041   0.617   0.453   1.775 -1.7098 -0.0286  2.8110
  872MOL0     H15042   0.591   0.337   1.652 -0.6562 -0.3223 -1.0181
  872MOL0     H15043   0.345   0.300   1.721 -1.4620  0.3098 -0.5330
  872MOL0     H15044   0.400   0.367   1.878  0.4197  1.8068 -1.0021
  872MOL0     H15045   0.517   0.138   1.728  0.4201 -1.3520  0.0896
  872MOL0     H15046   0.423   0.116   1.878  3.0715 -3.7090  0.9799
  872MOL0     H15047   0.695   0.219   1.834  0.1480 -0.1170  0.5306
  872MOL0     H15048   0.604   0.276   1.981  1.7254  3.1552 -2.5576
  872MOL0     H15049   0.569   0.031   2.032 -0.4846  4.2069  2.3597
  872MOL0     H15050   0.738   0.080   2.034 -0.0603 -1.2398 -0.3048
  872MOL0     H15051   0.756   0.005   1.801 -3.2611  3.5274 -1.1845
  872MOL0     H15052   0.598  -0.061   1.781  0.3506 -0.7214 -0.2848
  872MOL0     H15053   0.836  -0.156   1.950 -0.7183  0.1301  1.1765
  872MOL0     H15054   0.683  -0.195   2.025 -0.3583 -2.3504 -0.4296
  872MOL0     H15055   0.606  -0.326   1.834 -0.0724 -1.6355  0.2774
  872MOL0     H15056   0.780  -0.374   1.866 -1.3913  0.5136  0.0843
  872MOL0     H15057   0.973  -0.219   1.698  0.8328 -0.9984 -1.3844
  872MOL0     H15058   1.090  -0.291   1.478  0.5907 -2.1841 -2.2314
  872MOL0     H15059   1.003  -0.145   1.414  0.1265 -0.4606  1.9924
  872MOL0     H15060   0.888  -0.300   1.254  1.1447 -1.9184 -1.6856
  872MOL0     H15061   1.032  -0.411   1.282  4.1251  1.5489 -0.0281
  872MOL0     H15062   1.040  -0.113   1.203 -2.8016 -0.6037 -3.0389
  872MOL0     H15063   1.177  -0.234   1.212  0.2739  0.7006 -0.3261
  872MOL0     H15064   1.104  -0.336   1.011  0.9662  2.1893 -2.8814
  872MOL0     H15065   1.127  -0.177   0.993  4.2452 -2.0790  2.4885
  872MOL0     H15066   1.040  -0.346   0.802 -1.0776 -1.1192  0.0609
  872MOL0     H15067   0.950  -0.380   0.581  2.5955  1.0080  0.8493
  872MOL0     H15068   0.483  -0.078   0.433 -1.6310  0.1536 -0.0991
  872MOL0     H15069   0.453   0.029   0.199  0.1533 -0.5129 -0.7802
  872MOL0     H15070   0.460  -0.262  -0.156  1.3413  0.9042 -2.0344
  872MOL0     H15071   0.627  -0.217  -0.101  1.0224  1.5696  1.8685
  872MOL0     H15072   0.597  -0.157  -0.334  0.9754  2.3598 -0.5295
  872MOL0     H15073   0.625  -0.025  -0.236  1.9374 -0.9526 -0.0737
  872MOL0     H15074   0.439   0.033  -0.401  0.3243 -1.9835 -1.6430
  872MOL0     H15075   0.386   0.045  -0.243  0.0890 -0.0300 -1.0020
  872MOL0     H15076   0.271  -0.163  -0.245  2.0099 -2.5619 -0.1847
  872MOL0     H15077   0.208  -0.047  -0.368  0.4700  0.2668 -2.1410
  872MOL0     H15078   0.379  -0.286  -0.393 -1.2772 -0.9454  0.4131
  872MOL0     H15079   0.359  -0.172  -0.529  1.9476  1.3456  1.7937
  872MOL0     H15080   0.227  -0.338  -0.612 -1.0445  2.6115 -2.6838
  872MOL0     H15081   0.110  -0.236  -0.529  0.7846 -0.0555 -0.9061
  872MOL0     H15082   0.221  -0.508  -0.452 -1.4952 -0.3492 -0.8262
  872MOL0     H15083   0.178  -0.392  -0.323 -1.2788  0.7296 -0.5096
  872MOL0     H15084  -0.044  -0.395  -0.391 -0.8434  1.1830 -2.9485
  872MOL0     H15085   0.001  -0.568  -0.375 -2.9753  0.8248 -1.1214
  872MOL0     H15086   0.542  -0.363   0.034 -1.3611 -2.2450  1.3211
  872MOL0     H15087   0.594  -0.440   0.247 -0.1769 -0.1814 -1.6357
  872MOL0     H15088   0.570  -0.234   0.722  0.3042  0.9865 -2.3262
  872MOL0     H15089   0.680  -0.193   0.949  0.5427  0.2143  0.4558
  872MOL0     H15090   0.334   0.682   1.514  2.8886  4.0587 -2.2124
  872MOL0     H15091   0.316   0.707   1.277  0.5514 -0.2385 -1.7207
  872MOL0     H15092   0.652   0.603   0.800 -1.7801 -1.7319  1.3139
  872MOL0     H15093   0.651   0.774   0.626 -0.6463 -1.0807 -1.2402
  872MOL0     H15094   0.561   0.846   0.426 -2.5111 -0.9719 -5.7724
  872MOL0     H15095   0.503   1.008   0.414  1.7423  0.0438 -0.6705
  872MOL0     H15096   0.409   0.745   0.338  1.8798  0.7341 -0.7110
  872MOL0     H15097   0.279   0.817   0.434  0.6611  0.4020  0.5425
  872MOL0     H15098   0.276   0.856   0.179 -1.0461 -0.0888 -0.1811
  872MOL0     H15099   0.385   0.997   0.231 -0.3981  1.0364  0.3295
  872MOL0     H15100   0.097   0.933   0.303 -0.4547 -0.8429 -0.0583
  872MOL0     H15101   0.178   1.055   0.394  1.3990 -1.1970  0.9684
  872MOL0     H15102   0.083   1.260   0.034  3.2495  0.9747 -0.1327
  872MOL0     H15103   0.260   0.892   0.757  0.1186  1.2159 -0.6723
  872MOL0     H15104   0.272   0.739   0.950  1.5548  0.6661  1.5859
  873MOL0     O15105   1.048   4.003   2.543 -0.4872  0.8037 -0.2231
  873MOL0     C15106   1.018   3.964   2.658 -0.2237  0.1752  0.2845
  873MOL0     O15107   0.999   4.051   2.761  0.6675 -0.4705  0.1237
  873MOL0     C15108   1.026   4.183   2.738  0.4430  0.5882 -0.0808
  873MOL0     C15109   1.161   4.219   2.732  1.0069 -0.0685  0.5958
  873MOL0     C15110   1.208   4.352   2.720 -0.0410  0.3124  0.6904
  873MOL0     C15111   1.103   4.448   2.723 -0.2909  0.1170 -0.1677
  873MOL0     O15112   1.147   4.577   2.716  0.5977 -0.7392  0.1217
  873MOL0     C15113   1.059   4.682   2.676  0.2598  0.8117  0.1334
  873MOL0     C15114   1.041   4.688   2.523  0.5291  0.2798  0.3975
  873MOL0     C15115   0.998   4.834   2.480  0.3816 -0.3790  0.1279
  873MOL0     C15116   1.095   4.952   2.514 -0.6259  0.8407 -0.8678
  873MOL0     C15117   1.108   5.062   2.406 -0.1701  0.8617  0.1759
  873MOL0     C15118   1.097   5.043   2.242  0.3014  0.9166 -0.3138
  873MOL0     C15119   0.956   5.054   2.203  0.4415 -1.1388  0.9017
  873MOL0     C15120   0.949   5.011   2.051 -0.3032  0.4389  0.8233
  873MOL0     N15121   0.814   5.025   1.987 -0.1993 -0.6871 -0.3959
  873MOL0     C15122   0.701   4.975   2.053 -0.2489 -0.2104 -0.1348
  873MOL0     C15123   0.598   5.000   1.968  0.2311 -0.3672  0.6159
  873MOL0     C15124   0.449   4.960   1.975  0.4323 -0.5298  0.2936
  873MOL0     C15125   0.374   5.013   2.098 -0.6872 -0.4860 -0.8538
  873MOL0     C15126   0.354   5.167   2.120 -0.4996 -0.0592 -0.5282
  873MOL0     C15127   0.305   5.232   1.999  0.4495 -0.5151  1.2205
  873MOL0     O15128   0.166   5.195   1.983 -0.8946 -0.2385  0.0269
  873MOL0     C15129   0.077   5.283   1.934  0.0914 -0.1598 -0.4187
  873MOL0     C15130   0.098   5.390   1.854  0.8797  0.1525  0.0552
  873MOL0     C15131  -0.007   5.461   1.784  0.8430 -0.2568 -0.2363
  873MOL0     C15132  -0.137   5.438   1.829  0.6130 -0.4806  0.1928
  873MOL0     C15133  -0.248   5.506   1.759 -0.4029  0.1729 -0.4103
  873MOL0     O15134  -0.375   5.462   1.790 -0.0405  0.3794  0.2449
  873MOL0     C15135  -0.487   5.513   1.736  0.0296  0.2430 -1.0599
  873MOL0     C15136  -0.580   5.572   1.820  0.0448  0.7245  0.6201
  873MOL0     C15137  -0.704   5.614   1.762 -0.6611  0.2753 -0.6532
  873MOL0     C15138  -0.737   5.591   1.625  0.5734  0.1611 -0.2611
  873MOL0     O15139  -0.857   5.642   1.571  0.0966 -0.0201 -0.2235
  873MOL0     C15140  -0.912   5.609   1.448  1.0077 -0.2135  0.5523
  873MOL0     C15141  -0.849   5.701   1.338  0.5284  0.4407 -0.2548
  873MOL0     C15142  -0.931   5.838   1.322 -0.7869  1.1409  0.0212
  873MOL0     C15143  -0.843   5.957   1.295  0.8095  0.9235 -0.4618
  873MOL0     C15144  -0.754   5.999   1.422  1.4161  0.1152 -0.0060
  873MOL0     C15145  -0.794   6.108   1.513 -0.2507 -1.3270 -0.0680
  873MOL0     C15146  -0.706   6.117   1.638  0.0019  0.0468 -0.6672
  873MOL0     C15147  -0.741   6.013   1.747  0.8345  0.0757 -0.2407
  873MOL0    Cl15148  -0.624   6.007   1.881  0.3056 -0.4513 -0.0737
  873MOL0     C15149  -0.641   5.539   1.546  0.3739  0.3399  1.0338
  873MOL0     C15150  -0.515   5.500   1.601  0.2570 -0.3695  0.1346
  873MOL0     O15151  -0.219   5.599   1.679 -0.4306  0.3028 -0.1369
  873MOL0     C15152  -0.163   5.333   1.919 -0.9676 -0.7812 -0.0707
  873MOL0     C15153  -0.058   5.262   1.970 -0.4690  0.1718  0.9945
  873MOL0     N15154   0.637   5.093   1.877 -0.8794  0.0062 -1.0368
  873MOL0     N15155   0.765   5.106   1.885  0.5853  0.1752  0.2712
  873MOL0     C15156   0.964   4.415   2.740 -0.5027  0.3356  0.8739
  873MOL0     C15157   0.930   4.278   2.734  0.0464  0.2805  0.2712
  873MOL0     C15158   0.995   3.832   2.687  0.1512  0.0784 -0.1811
  873MOL0     C15159   1.044   3.728   2.594  1.1525  0.1378 -0.5998
  873MOL0     C15160   1.031   3.594   2.634  0.9864  0.0824  0.5297
  873MOL0     C15161   0.974   3.557   2.750  1.1059  1.8388 -0.9415
  873MOL0     O15162   0.951   3.430   2.806 -0.6599  0.5228 -0.0154
  873MOL0     C15163   0.965   3.307   2.739 -0.1976  0.4703 -0.0485
  873MOL0     C15164   0.848   3.280   2.644  0.0333 -0.2627 -0.0936
  873MOL0     C15165   0.712   3.283   2.726 -0.2207  1.7672  0.7001
  873MOL0     C15166   0.593   3.216   2.648  0.7838 -0.3163  0.3108
  873MOL0     C15167   0.501   3.166   2.748 -0.7187  0.6928 -0.8612
  873MOL0     C15168   0.414   3.150   2.826 -0.3425 -0.6074  0.1689
  873MOL0     C15169   0.918   3.646   2.835  0.1546 -1.0385  0.7861
  873MOL0     C15170   0.926   3.782   2.801 -0.4115 -0.6396  0.1233
  873MOL0     H15171   1.233   4.138   2.746 -0.5933 -1.4941  0.8996
  873MOL0     H15172   1.312   4.378   2.701 -0.8302  0.7619 -4.3812
  873MOL0     H15173   1.102   4.778   2.705 -0.3771  2.1366 -2.8938
  873MOL0     H15174   0.959   4.668   2.717 -0.4165 -0.7574 -1.8538
  873MOL0     H15175   0.977   4.609   2.482  3.9988 -2.2520 -0.6250
  873MOL0     H15176   1.140   4.665   2.483  0.3753  0.1923  0.0689
  873MOL0     H15177   0.903   4.838   2.535  1.3711 -0.3701  1.9141
  873MOL0     H15178   0.983   4.826   2.372 -3.3296  0.3094  0.4535
  873MOL0     H15179   1.058   5.009   2.600 -3.7642  2.3198 -2.9993
  873MOL0     H15180   1.197   4.918   2.531 -0.8926  0.3222 -0.2916
  873MOL0     H15181   1.204   5.112   2.421  0.1160  1.9374 -3.9256
  873MOL0     H15182   1.034   5.129   2.451 -0.1100 -0.3193  2.1371
  873MOL0     H15183   1.139   4.948   2.209  1.7037  1.6950 -0.8148
  873MOL0     H15184   1.152   5.120   2.188 -0.1766  2.3830  1.1990
  873MOL0     H15185   0.884   4.994   2.260  0.9718 -1.4871  1.2108
  873MOL0     H15186   0.929   5.159   2.216  0.0823 -1.6116  5.7710
  873MOL0     H15187   0.964   4.903   2.055 -1.7419  0.1690 -0.0981
  873MOL0     H15188   1.035   5.045   1.994 -1.0447 -1.1491 -1.3876
  873MOL0     H15189   0.701   4.917   2.144  2.0002  3.9484  2.8364
  873MOL0     H15190   0.430   4.853   1.986 -6.4820  0.4670  3.0271
  873MOL0     H15191   0.405   4.990   1.880  0.1926 -2.2340 -0.1659
  873MOL0     H15192   0.418   4.972   2.189 -1.9852 -0.7127 -0.2990
  873MOL0     H15193   0.277   4.963   2.096 -0.9775 -0.1584  1.9058
  873MOL0     H15194   0.282   5.179   2.201 -1.6786 -0.8706 -1.4172
  873MOL0     H15195   0.444   5.217   2.156 -0.4722 -0.6855  0.2971
  873MOL0     H15196   0.368   5.206   1.913 -0.6873 -2.5690  0.9328
  873MOL0     H15197   0.315   5.339   2.016  0.5481 -0.0140 -1.4790
  873MOL0     H15198   0.197   5.389   1.809  2.9318 -1.9784  4.0283
  873MOL0     H15199   0.000   5.540   1.710 -4.3484  1.7040  0.9129
  873MOL0     H15200  -0.571   5.585   1.928  2.8030  1.3815  0.3698
  873MOL0     H15201  -0.769   5.648   1.843 -1.1528  0.6737 -1.2000
  873MOL0     H15202  -1.021   5.619   1.447  0.6876 -2.5506 -2.5449
  873MOL0     H15203  -0.918   5.503   1.423 -0.5986  0.3926 -2.0255
  873MOL0     H15204  -0.841   5.637   1.249 -1.2208 -0.4569  0.1868
  873MOL0     H15205  -0.749   5.726   1.374  0.6528 -2.4837  1.7224
  873MOL0     H15206  -0.988   5.870   1.409  0.7183 -2.3814  2.5360
  873MOL0     H15207  -0.996   5.823   1.235 -0.4860 -1.1711  0.1356
  873MOL0     H15208  -0.778   5.915   1.217  0.6364  0.9940 -0.6419
  873MOL0     H15209  -0.897   6.046   1.261 -1.8207 -1.8397 -4.4363
  873MOL0     H15210  -0.657   6.015   1.373  1.0998 -3.8719 -2.3801
  873MOL0     H15211  -0.731   5.904   1.471  2.0705  0.2407 -0.0550
  873MOL0     H15212  -0.901   6.094   1.531 -0.4207 -2.4122 -1.6645
  873MOL0     H15213  -0.792   6.198   1.453 -0.0297 -1.4430 -0.2356
  873MOL0     H15214  -0.604   6.090   1.609 -0.0004 -0.1079 -0.5283
  873MOL0     H15215  -0.709   6.217   1.682 -2.0761 -0.4822  0.5290
  873MOL0     H15216  -0.744   5.917   1.696 -0.8927  0.7762 -1.5611
  873MOL0     H15217  -0.842   6.030   1.786  1.2674 -0.2985  1.1315
  873MOL0     H15218  -0.661   5.523   1.441  2.2663  0.6190  0.5962
  873MOL0     H15219  -0.440   5.451   1.539 -2.2766 -4.3005 -0.1340
  873MOL0     H15220  -0.262   5.307   1.957 -1.5297 -1.3557 -1.8681
  873MOL0     H15221  -0.065   5.181   2.042  2.6347  1.5239  3.0668
  873MOL0     H15222   0.883   4.487   2.726 -0.3161  0.0989 -1.8507
  873MOL0     H15223   0.825   4.250   2.738  0.0465  0.4295  1.9525
  873MOL0     H15224   1.087   3.755   2.498  3.0491  0.6311  0.3358
  873MOL0     H15225   1.045   3.515   2.561  0.4875 -0.6256  1.1941
  873MOL0     H15226   0.979   3.231   2.816  0.5490  2.6184  2.0344
  873MOL0     H15227   1.057   3.295   2.681 -1.5183 -1.8324 -1.8552
  873MOL0     H15228   0.841   3.364   2.574 -0.4249  1.3523  1.7681
  873MOL0     H15229   0.871   3.199   2.575 -1.7548 -1.1939  0.3158
  873MOL0     H15230   0.678   3.380   2.761  0.6010  1.6929  1.7430
  873MOL0     H15231   0.730   3.243   2.826 -2.8325  1.5646  1.1767
  873MOL0     H15232   0.548   3.296   2.587  0.3918 -1.1379 -0.5084
  873MOL0     H15233   0.622   3.130   2.587 -4.7919 -0.9742 -2.1068
  873MOL0     H15234   0.326   3.146   2.888 -1.4913 -1.0770 -1.4266
  873MOL0     H15235   0.848   3.624   2.915 -2.6060 -1.5292 -1.5774
  873MOL0     H15236   0.875   3.848   2.869 -0.5215  1.3756 -1.8096
  874MOL0     O15237   5.209   6.960   2.249 -0.1473  0.1938  0.0387
  874MOL0     C15238   5.181   6.878   2.159 -0.7665 -0.4060  0.0475
  874MOL0     O15239   5.264   6.853   2.056  0.3113 -0.0353  0.2982
  874MOL0     C15240   5.368   6.939   2.020  0.1546  0.0453  1.0231
  874MOL0     C15241   5.416   6.915   1.892 -0.3959 -0.1785  0.8349
  874MOL0     C15242   5.513   6.992   1.826  0.1582  0.0034  0.3451
  874MOL0     C15243   5.566   7.098   1.889  0.9252 -0.4189  0.0399
  874MOL0     O15244   5.655   7.194   1.840 -0.4529  0.3109 -0.1281
  874MOL0     C15245   5.634   7.237   1.706 -0.5065 -0.1267  0.4335
  874MOL0     C15246   5.750   7.322   1.666 -0.1965 -0.2930  0.1220
  874MOL0     C15247   5.738   7.468   1.711  0.1113 -0.6283  0.2263
  874MOL0     C15248   5.873   7.541   1.707 -0.6063  1.3371 -0.2979
  874MOL0     C15249   5.973   7.498   1.813  1.1465 -0.4832  0.1488
  874MOL0     C15250   5.927   7.510   1.957  0.0438  0.6265  0.8526
  874MOL0     C15251   6.047   7.525   2.045 -0.5380  0.0472 -0.8597
  874MOL0     C15252   6.000   7.560   2.190  0.2677 -0.2571 -0.5632
  874MOL0     N15253   5.934   7.692   2.200  0.0450 -1.0588 -0.1069
  874MOL0     C15254   5.877   7.725   2.319  0.3885 -0.5668 -0.1445
  874MOL0     C15255   5.845   7.856   2.307  0.3904 -0.3738 -0.7402
  874MOL0     C15256   5.787   7.953   2.418  0.2920 -0.3099  0.7550
  874MOL0     C15257   5.902   8.044   2.465 -0.2492 -0.1300  0.4095
  874MOL0     C15258   6.023   7.965   2.518 -1.1080 -0.4343  0.7388
  874MOL0     C15259   6.119   8.054   2.597 -0.4471  1.0098  0.2294
  874MOL0     O15260   6.071   8.118   2.719 -0.5036  0.5361 -0.4487
  874MOL0     C15261   6.110   8.240   2.744 -0.3841  0.2267 -0.0351
  874MOL0     C15262   6.134   8.277   2.881 -1.5768  0.1062 -0.0923
  874MOL0     C15263   6.150   8.413   2.919  0.6976  0.1365  0.2635
  874MOL0     C15264   6.147   8.515   2.818 -0.1984 -0.1189  0.0378
  874MOL0     C15265   6.163   8.662   2.847  0.6200  0.1695 -0.2996
  874MOL0     O15266   6.167   8.755   2.743 -0.7309  0.1134 -0.6096
  874MOL0     C15267   6.184   8.887   2.753  0.3870 -0.4853  0.3954
  874MOL0     C15268   6.177   8.944   2.628 -0.1674  0.7741  0.5029
  874MOL0     C15269   6.200   9.082   2.615  0.7091  0.9282 -0.3729
  874MOL0     C15270   6.235   9.161   2.726 -0.0306 -0.4284 -0.2477
  874MOL0     O15271   6.284   9.284   2.698 -0.4697 -0.3430 -0.7710
  874MOL0     C15272   6.361   9.366   2.798 -0.3356 -1.1095 -0.7587
  874MOL0     C15273   6.348   9.503   2.738  0.7562 -0.4578 -0.3310
  874MOL0     C15274   6.205   9.558   2.754 -0.0089  0.3972  0.0501
  874MOL0     C15275   6.177   9.701   2.697 -0.2568 -0.2759 -0.5779
  874MOL0     C15276   6.186   9.715   2.545 -0.5339  0.9676  1.2645
  874MOL0     C15277   6.065   9.658   2.470 -0.7535 -0.8229 -0.2828
  874MOL0     C15278   5.928   9.671   2.545  0.1969 -0.2191  0.0364
  874MOL0     C15279   5.807   9.624   2.462  0.7730  0.0479 -0.6808
  874MOL0    Cl15280   5.744   9.757   2.353  0.2910 -0.0218 -0.8249
  874MOL0     C15281   6.240   9.102   2.856  0.1050  0.6001  0.3584
  874MOL0     C15282   6.208   8.966   2.871 -0.6186 -0.5706  0.5134
  874MOL0     O15283   6.152   8.687   2.968 -0.1880  0.1900 -0.0548
  874MOL0     C15284   6.122   8.481   2.682  0.2507 -0.6288 -0.0177
  874MOL0     C15285   6.102   8.343   2.647 -0.7755  0.2987  0.2031
  874MOL0     N15286   5.891   7.904   2.184 -0.3998  0.0451  0.3315
  874MOL0     N15287   5.939   7.802   2.122 -0.3535  0.4279  0.7992
  874MOL0     C15288   5.525   7.122   2.017  0.2463 -0.7937 -0.3405
  874MOL0     C15289   5.424   7.050   2.087  0.3704  0.9361 -0.0187
  874MOL0     C15290   5.061   6.794   2.173 -0.3282  0.6764 -0.3491
  874MOL0     C15291   5.009   6.721   2.062 -0.2152  0.7551  1.1808
  874MOL0     C15292   4.898   6.626   2.076 -0.5447  0.3694  0.3620
  874MOL0     C15293   4.835   6.627   2.199  0.5017 -1.0009  0.1624
  874MOL0     O15294   4.722   6.545   2.225  0.2672 -0.7109 -0.2798
  874MOL0     C15295   4.684   6.435   2.144 -0.4542  0.0633 -0.2183
  874MOL0     C15296   4.590   6.485   2.037  0.3369 -0.5032 -0.5211
  874MOL0     C15297   4.535   6.364   1.947 -0.2592  0.2866 -0.8720
  874MOL0     C15298   4.652   6.305   1.861  0.2958  0.9390 -0.3578
  874MOL0     C15299   4.667   6.157   1.864  0.2204  0.5662 -0.7923
  874MOL0     C15300   4.661   6.037   1.882  0.3063  0.7496 -0.3128
  874MOL0     C15301   4.881   6.704   2.307 -0.0025  0.4947 -0.2933
  874MOL0     C15302   4.995   6.788   2.292 -0.6707 -0.8126 -0.4825
  874MOL0     H15303   5.375   6.825   1.849  3.5779 -0.6802 -2.4987
  874MOL0     H15304   5.540   6.972   1.723 -1.1064 -0.7514  0.1450
  874MOL0     H15305   5.536   7.285   1.712 -1.7495 -2.3975 -0.3812
  874MOL0     H15306   5.632   7.153   1.635 -2.0373 -2.4635  3.0363
  874MOL0     H15307   5.749   7.316   1.557 -1.2912  0.0083  0.1080
  874MOL0     H15308   5.848   7.282   1.694  1.5502  1.9358 -2.3577
  874MOL0     H15309   5.701   7.473   1.814  0.9862 -0.6208  0.5426
  874MOL0     H15310   5.659   7.524   1.659 -1.0563  3.3734  5.4356
  874MOL0     H15311   5.927   7.534   1.612 -0.1887  2.6985 -0.1837
  874MOL0     H15312   5.862   7.650   1.707 -0.7951  1.4076  2.8274
  874MOL0     H15313   6.065   7.556   1.801 -0.6480  2.0018 -3.0195
  874MOL0     H15314   6.006   7.394   1.804  1.6352 -0.5921  2.4748
  874MOL0     H15315   5.866   7.428   1.997  0.0245  0.1922 -0.0456
  874MOL0     H15316   5.867   7.601   1.959 -3.0805 -1.2352 -0.3491
  874MOL0     H15317   6.104   7.432   2.030  3.1452  2.4515 -3.3599
  874MOL0     H15318   6.118   7.603   2.017 -0.0061 -0.7432 -1.7993
  874MOL0     H15319   6.090   7.571   2.251  1.0207  1.1949 -1.8609
  874MOL0     H15320   5.938   7.483   2.236 -0.7265  0.8751  0.0650
  874MOL0     H15321   5.865   7.662   2.406 -4.5386 -0.6743 -0.6185
  874MOL0     H15322   5.761   7.893   2.506 -0.8557  1.6739  1.8382
  874MOL0     H15323   5.699   8.000   2.374  2.1270  0.3371 -2.5614
  874MOL0     H15324   5.861   8.104   2.547 -0.6838 -2.0122  1.6468
  874MOL0     H15325   5.947   8.106   2.387  2.9552  0.9867  2.9232
  874MOL0     H15326   5.973   7.902   2.593  2.1952 -0.5930  3.0194
  874MOL0     H15327   6.078   7.904   2.446  3.0576  0.1316  3.1267
  874MOL0     H15328   6.162   8.122   2.523 -1.1883  1.3676  0.1216
  874MOL0     H15329   6.203   7.985   2.609 -1.6222 -0.3487  1.0286
  874MOL0     H15330   6.147   8.201   2.957 -1.2859  0.6000  0.3593
  874MOL0     H15331   6.188   8.438   3.017  1.2620 -0.7687  0.2874
  874MOL0     H15332   6.155   8.881   2.542  3.1641 -2.0961  1.5479
  874MOL0     H15333   6.179   9.131   2.520  0.6529  0.6102 -0.5263
  874MOL0     H15334   6.468   9.345   2.800 -0.3529 -1.3294 -1.6621
  874MOL0     H15335   6.322   9.359   2.900  1.0748  2.1769  0.1402
  874MOL0     H15336   6.380   9.509   2.634 -1.2713 -1.0230 -1.0431
  874MOL0     H15337   6.417   9.564   2.797  1.2366  0.5454 -1.8876
  874MOL0     H15338   6.183   9.548   2.861  0.8655 -0.6221  0.1473
  874MOL0     H15339   6.138   9.483   2.710 -0.3154  0.9665 -0.4585
  874MOL0     H15340   6.089   9.752   2.737 -0.2770 -0.1513 -0.7780
  874MOL0     H15341   6.268   9.751   2.732 -0.4976  0.4125 -0.9203
  874MOL0     H15342   6.267   9.655   2.502 -1.1232  1.2593 -0.3272
  874MOL0     H15343   6.215   9.816   2.517 -0.0599  0.7786  1.0659
  874MOL0     H15344   6.075   9.550   2.456 -3.0913 -1.2015  0.4559
  874MOL0     H15345   6.068   9.713   2.376  1.4446  3.2419  1.8677
  874MOL0     H15346   5.928   9.602   2.630 -2.5079 -1.7704 -1.1243
  874MOL0     H15347   5.911   9.777   2.567  0.3503 -0.2051  0.0852
  874MOL0     H15348   5.733   9.579   2.528  1.1509 -0.5308 -0.6415
  874MOL0     H15349   5.857   9.544   2.407  2.8601  0.7618  0.0740
  874MOL0     H15350   6.274   9.151   2.947  0.8046  2.5265 -0.8616
  874MOL0     H15351   6.227   8.920   2.967 -0.5365 -2.6197 -0.4383
  874MOL0     H15352   6.105   8.567   2.619 -0.4613  1.7659  3.1542
  874MOL0     H15353   6.065   8.322   2.547  1.9645  0.5607 -0.9634
  874MOL0     H15354   5.576   7.199   2.074 -1.1191  1.1393 -1.6187
  874MOL0     H15355   5.409   7.082   2.190 -0.3870 -1.6329  0.7502
  874MOL0     H15356   5.053   6.733   1.964 -1.6907  2.1242  0.6643
  874MOL0     H15357   4.848   6.576   1.993 -2.1108  1.5230  0.5459
  874MOL0     H15358   4.634   6.355   2.200 -1.1571  1.0591  0.6178
  874MOL0     H15359   4.763   6.392   2.081 -1.7107  0.0631 -1.8566
  874MOL0     H15360   4.502   6.531   2.082  0.5000 -1.8876  1.3101
  874MOL0     H15361   4.633   6.568   1.979  1.6576 -0.1404  0.9116
  874MOL0     H15362   4.462   6.399   1.874 -0.1461 -0.5366 -1.3830
  874MOL0     H15363   4.482   6.294   2.013 -1.9290  1.0010 -1.3895
  874MOL0     H15364   4.616   6.334   1.762 -0.3668  1.4139  0.0088
  874MOL0     H15365   4.749   6.350   1.881  0.5711 -1.0063  3.8497
  874MOL0     H15366   4.638   5.933   1.886  0.6799  0.5931 -1.8711
  874MOL0     H15367   4.829   6.713   2.402  2.1177 -0.6621  1.0556
  874MOL0     H15368   5.031   6.846   2.376 -2.0527 -0.4467 -0.1059
  875MOL0     O15369   5.143   3.164   2.049 -0.1922  0.3029  0.3125
  875MOL0     C15370   5.039   3.180   2.112  0.1888  0.3826  1.1658
  875MOL0     O15371   4.986   3.300   2.156  0.0173  0.7584 -0.1931
  875MOL0     C15372   5.054   3.413   2.110 -1.2878  0.2528 -2.1368
  875MOL0     C15373   5.187   3.422   2.139 -0.7716 -0.6185 -0.2875
  875MOL0     C15374   5.263   3.537   2.107  0.5025  0.3350 -0.1456
  875MOL0     C15375   5.199   3.645   2.048  0.3504 -0.0740  0.2322
  875MOL0     O15376   5.260   3.757   2.020 -0.0063 -0.7315  0.3098
  875MOL0     C15377   5.340   3.828   2.117 -0.5703  0.0358 -0.1513
  875MOL0     C15378   5.430   3.927   2.054  0.4843 -0.1417  0.4405
  875MOL0     C15379   5.514   3.858   1.945  0.1058  0.9605 -0.6027
  875MOL0     C15380   5.600   3.954   1.878  0.9753 -0.3888 -0.1096
  875MOL0     C15381   5.524   4.027   1.772  0.1613 -0.0305  0.4648
  875MOL0     C15382   5.621   4.127   1.720 -0.0919 -1.7137  0.4279
  875MOL0     C15383   5.578   4.237   1.615  0.6611 -0.3807  0.8155
  875MOL0     C15384   5.536   4.168   1.485  0.2013  0.2496  1.1382
  875MOL0     N15385   5.646   4.104   1.406  0.9711  0.0440 -1.5988
  875MOL0     C15386   5.777   4.122   1.426  0.1323 -0.9313 -0.4687
  875MOL0     C15387   5.839   4.070   1.328 -0.6887  0.5123  0.2620
  875MOL0     C15388   5.990   4.068   1.319  0.5246  0.8157  1.3422
  875MOL0     C15389   6.057   4.189   1.368  0.7129 -1.6141 -0.1739
  875MOL0     C15390   6.195   4.198   1.315 -0.7608 -0.1071 -1.1828
  875MOL0     C15391   6.285   4.290   1.401  0.1258 -0.6209  1.1965
  875MOL0     O15392   6.304   4.243   1.534  0.4870 -0.2444  0.4244
  875MOL0     C15393   6.383   4.317   1.619 -0.1994  0.3779 -0.6292
  875MOL0     C15394   6.427   4.253   1.737  0.0775  0.2551 -0.1044
  875MOL0     C15395   6.492   4.331   1.834  0.0001  0.9046 -0.4787
  875MOL0     C15396   6.490   4.469   1.831  0.5255 -0.1391  0.3936
  875MOL0     C15397   6.569   4.542   1.927  0.8869 -0.4741  1.0815
  875MOL0     O15398   6.584   4.671   1.892 -0.0571  0.0585  0.0882
  875MOL0     C15399   6.681   4.735   1.955 -0.2324 -0.0478  0.8341
  875MOL0     C15400   6.643   4.840   2.045 -0.6576 -1.2712  0.2997
  875MOL0     C15401   6.743   4.916   2.112  0.1285  0.5880 -0.0786
  875MOL0     C15402   6.878   4.876   2.092  0.2965 -0.3080  0.3936
  875MOL0     O15403   6.973   4.951   2.153  0.2445 -0.2510  0.6939
  875MOL0     C15404   7.112   4.911   2.148  0.5813 -0.1380  0.4000
  875MOL0     C15405   7.197   5.015   2.235  0.0388  0.0734 -0.2116
  875MOL0     C15406   7.204   5.163   2.201 -0.2730  0.1444 -0.7877
  875MOL0     C15407   7.277   5.251   2.305  0.5400  0.0880  0.5940
  875MOL0     C15408   7.302   5.400   2.257  0.8137  0.2937 -0.4525
  875MOL0     C15409   7.178   5.484   2.244  0.7012 -0.4861 -0.1771
  875MOL0     C15410   7.219   5.616   2.181 -0.0911 -0.2671  0.1551
  875MOL0     C15411   7.090   5.691   2.126  0.3027  0.4901  0.2444
  875MOL0    Cl15412   7.135   5.848   2.053  0.3147  0.3095  0.0158
  875MOL0     C15413   6.907   4.768   2.000 -0.4574 -0.5252  0.1405
  875MOL0     C15414   6.810   4.705   1.928  0.1643  0.4048 -0.4937
  875MOL0     O15415   6.619   4.487   2.024  0.0905  0.4070  0.2295
  875MOL0     C15416   6.432   4.530   1.718 -0.5602  0.2124  0.6683
  875MOL0     C15417   6.394   4.454   1.611  0.2785 -0.8288 -0.3190
  875MOL0     N15418   5.747   4.009   1.249  0.4433  0.1681  0.9946
  875MOL0     N15419   5.626   4.036   1.294  0.1075 -0.3591  0.0997
  875MOL0     C15420   5.057   3.638   2.021  0.3449 -0.7371 -0.0768
  875MOL0     C15421   4.987   3.522   2.049  0.9588 -0.7279 -1.1984
  875MOL0     C15422   4.966   3.050   2.139  0.1575 -0.5881 -0.2611
  875MOL0     C15423   4.826   3.059   2.163 -0.7419  0.4462 -0.1841
  875MOL0     C15424   4.746   2.947   2.169  0.5408 -0.7669 -0.6247
  875MOL0     C15425   4.810   2.820   2.193  0.6998 -0.7015  0.2324
  875MOL0     O15426   4.728   2.714   2.234 -0.2802  0.9935 -0.2870
  875MOL0     C15427   4.593   2.698   2.199 -0.0476 -1.1445  0.3731
  875MOL0     C15428   4.579   2.606   2.087  0.9828 -0.0588  0.3186
  875MOL0     C15429   4.632   2.680   1.955  0.7871  0.2375 -0.5554
  875MOL0     C15430   4.611   2.606   1.822  0.0203  0.5060  0.4239
  875MOL0     C15431   4.639   2.464   1.833  0.2605  0.3912 -1.8140
  875MOL0     C15432   4.679   2.346   1.857  0.8993 -0.4498  0.7899
  875MOL0     C15433   4.948   2.813   2.182  0.3748  1.5541 -0.7670
  875MOL0     C15434   5.026   2.921   2.141 -0.3287  0.0419 -0.9941
  875MOL0     H15435   5.250   3.342   2.177  0.2173 -1.4536 -3.3671
  875MOL0     H15436   5.369   3.546   2.128  0.0342  0.0989  2.6768
  875MOL0     H15437   5.403   3.757   2.171 -0.2619 -0.5978 -1.3032
  875MOL0     H15438   5.290   3.872   2.203 -1.4083 -1.8917  0.4101
  875MOL0     H15439   5.488   3.981   2.130  0.1490  0.2155  0.4494
  875MOL0     H15440   5.365   4.006   2.016 -0.1782 -0.0837  1.6345
  875MOL0     H15441   5.469   3.786   1.876 -0.8210  1.3221 -0.3990
  875MOL0     H15442   5.585   3.794   1.998  0.8588 -0.4130 -3.1097
  875MOL0     H15443   5.649   4.022   1.948 -1.1552 -0.2475  1.3207
  875MOL0     H15444   5.677   3.904   1.817 -1.2593 -1.6339 -2.0756
  875MOL0     H15445   5.441   4.079   1.820  1.5905  0.9856  1.9394
  875MOL0     H15446   5.484   3.965   1.691 -0.0419  0.9774 -0.2318
  875MOL0     H15447   5.698   4.063   1.675 -0.5317 -0.4987 -2.2508
  875MOL0     H15448   5.668   4.183   1.802 -1.6366 -0.2468  0.3645
  875MOL0     H15449   5.500   4.299   1.661  2.2585  1.1369  1.5678
  875MOL0     H15450   5.666   4.300   1.597  0.7737 -0.4779  1.0330
  875MOL0     H15451   5.491   4.246   1.423 -1.5922  0.2790  2.3921
  875MOL0     H15452   5.465   4.085   1.495  0.6224 -0.2777 -0.0512
  875MOL0     H15453   5.828   4.168   1.510  0.0200 -2.4261  0.4532
  875MOL0     H15454   6.023   4.047   1.217 -2.2296  2.1304  0.0615
  875MOL0     H15455   6.031   3.984   1.376  1.4238 -1.8060 -2.7681
  875MOL0     H15456   6.055   4.199   1.477  1.4559  1.7712 -0.3711
  875MOL0     H15457   6.015   4.281   1.328  2.0874 -0.4469  0.9565
  875MOL0     H15458   6.245   4.100   1.306  0.3711  0.3013  0.2617
  875MOL0     H15459   6.188   4.242   1.215 -0.2766  2.0308 -0.3205
  875MOL0     H15460   6.229   4.384   1.404  0.8601 -0.1906  1.8509
  875MOL0     H15461   6.377   4.299   1.342 -0.1179 -1.6221  0.6557
  875MOL0     H15462   6.418   4.145   1.742 -1.2900  0.4069  1.5698
  875MOL0     H15463   6.564   4.288   1.902  3.0988  3.0889 -2.1221
  875MOL0     H15464   6.537   4.857   2.062 -0.6084  0.7974 -1.0974
  875MOL0     H15465   6.710   4.994   2.180  0.2202  0.1155  0.5115
  875MOL0     H15466   7.147   4.915   2.044 -1.3250  1.0879 -0.2541
  875MOL0     H15467   7.135   4.815   2.194  1.7091 -0.3005 -0.4597
  875MOL0     H15468   7.301   4.982   2.234  1.2877  3.4182 -3.5182
  875MOL0     H15469   7.144   5.007   2.330 -2.2280 -2.4749 -1.5643
  875MOL0     H15470   7.107   5.212   2.189 -0.2721  0.4368  0.3483
  875MOL0     H15471   7.257   5.167   2.105  1.7137 -1.7342  0.1255
  875MOL0     H15472   7.228   5.262   2.402  1.4804  1.0706  0.9703
  875MOL0     H15473   7.373   5.199   2.313  0.4194 -0.7279 -2.0773
  875MOL0     H15474   7.366   5.400   2.168 -1.3107  2.0165 -2.0899
  875MOL0     H15475   7.376   5.442   2.326  0.3905  1.2457 -0.5594
  875MOL0     H15476   7.134   5.483   2.344  0.0410  1.0663 -0.4119
  875MOL0     H15477   7.104   5.447   2.173  0.3644  1.4727 -0.9284
  875MOL0     H15478   7.262   5.674   2.263 -1.0958 -2.2423  2.1889
  875MOL0     H15479   7.296   5.607   2.104 -2.7746 -0.4624 -2.6833
  875MOL0     H15480   7.016   5.706   2.205  3.5077 -1.3627  3.9615
  875MOL0     H15481   7.035   5.623   2.061 -3.1190  1.8780  1.4958
  875MOL0     H15482   7.009   4.745   1.971 -0.0077  1.1539  0.2714
  875MOL0     H15483   6.832   4.627   1.856  0.3377  0.5971 -0.6517
  875MOL0     H15484   6.412   4.637   1.710  1.9738  0.6281 -3.7735
  875MOL0     H15485   6.358   4.501   1.521 -1.3514 -5.0784 -2.1332
  875MOL0     H15486   5.008   3.721   1.973  3.0775  0.3261 -1.2051
  875MOL0     H15487   4.880   3.522   2.029  0.7701  1.5549 -0.4968
  875MOL0     H15488   4.781   3.156   2.183 -0.9677  0.5237 -1.0630
  875MOL0     H15489   4.638   2.958   2.165  0.8606  4.7656 -2.0155
  875MOL0     H15490   4.540   2.793   2.186  0.8094 -0.8395 -1.1295
  875MOL0     H15491   4.562   2.643   2.288  1.0946 -4.0159 -0.8749
  875MOL0     H15492   4.650   2.526   2.108  4.6683  2.1558 -2.3495
  875MOL0     H15493   4.475   2.577   2.068 -0.0458  0.8178  3.7825
  875MOL0     H15494   4.736   2.712   1.962  0.9127  0.0047 -1.2748
  875MOL0     H15495   4.565   2.765   1.949  0.5125 -0.0883 -3.5184
  875MOL0     H15496   4.509   2.631   1.791  0.0823  0.3900  0.1213
  875MOL0     H15497   4.675   2.652   1.746 -0.5993  0.2351 -0.2736
  875MOL0     H15498   4.694   2.243   1.882 -0.7508 -0.4342  2.0658
  875MOL0     H15499   4.985   2.712   2.194  1.0178  1.8521 -0.1796
  875MOL0     H15500   5.132   2.907   2.123 -0.5448 -1.1138 -1.4433
  876MOL0     O15501   0.663   7.555   2.115  0.0305  0.2567 -0.4817
  876MOL0     C15502   0.740   7.619   2.058 -0.0568 -0.3404  0.7577
  876MOL0     O15503   0.783   7.745   2.094 -0.2202 -0.6288  0.3805
  876MOL0     C15504   0.743   7.807   2.212  1.0488  0.8006 -0.9026
  876MOL0     C15505   0.824   7.919   2.250  0.6228  0.5267  0.7942
  876MOL0     C15506   0.780   8.000   2.354  0.2106 -0.5329 -0.4454
  876MOL0     C15507   0.655   7.982   2.414  0.1594 -0.1014 -1.1901
  876MOL0     O15508   0.631   8.075   2.513 -0.4056  0.5212  0.8715
  876MOL0     C15509   0.507   8.109   2.557  0.8626 -0.4811 -0.3840
  876MOL0     C15510   0.508   8.257   2.588 -0.2045  0.1847 -0.1462
  876MOL0     C15511   0.495   8.358   2.474 -1.0517  0.3199 -0.0853
  876MOL0     C15512   0.353   8.414   2.469  0.3951 -0.2429  0.1871
  876MOL0     C15513   0.311   8.473   2.338  0.0209  0.0728  0.4708
  876MOL0     C15514   0.413   8.586   2.306  0.2274  0.2176 -0.0052
  876MOL0     C15515   0.388   8.658   2.176 -0.7309 -0.6255  0.3772
  876MOL0     C15516   0.498   8.761   2.138  0.3786 -0.5500 -0.8131
  876MOL0     N15517   0.536   8.758   2.001  0.2698 -0.8574 -0.2687
  876MOL0     C15518   0.461   8.816   1.905  1.2683 -0.0046  0.1501
  876MOL0     C15519   0.515   8.777   1.783  0.1861 -0.0390 -0.1921
  876MOL0     C15520   0.472   8.818   1.647 -0.4924  0.6458  0.1951
  876MOL0     C15521   0.446   8.699   1.541 -0.0936 -0.9622  1.1172
  876MOL0     C15522   0.316   8.621   1.564 -0.2393 -0.1053  0.7897
  876MOL0     C15523   0.189   8.713   1.541  0.1310  0.4270 -0.3137
  876MOL0     O15524   0.148   8.789   1.659 -0.0777 -0.2247 -0.2675
  876MOL0     C15525   0.104   8.720   1.775  0.6110  1.3580 -0.0509
  876MOL0     C15526   0.081   8.576   1.791  1.2152  0.6627 -0.3765
  876MOL0     C15527   0.025   8.527   1.909 -0.6409 -0.3148  0.8888
  876MOL0     C15528   0.006   8.612   2.025  0.4274 -0.2915  0.2166
  876MOL0     C15529  -0.057   8.537   2.136 -0.3643 -0.5305 -0.4531
  876MOL0     O15530  -0.107   8.620   2.240  0.4053 -0.1507 -0.4540
  876MOL0     C15531  -0.127   8.559   2.363  0.6266  0.4643 -0.4730
  876MOL0     C15532  -0.207   8.441   2.392 -0.3831 -0.0636  0.7627
  876MOL0     C15533  -0.210   8.389   2.521  0.5431 -0.7110 -0.0288
  876MOL0     C15534  -0.135   8.449   2.620  0.0323  0.2529  0.4778
  876MOL0     O15535  -0.112   8.401   2.749  0.1687  0.0670  0.4191
  876MOL0     C15536  -0.082   8.259   2.756 -0.0461 -0.5939  0.8367
  876MOL0     C15537  -0.033   8.231   2.894 -0.1995  0.2240 -0.1969
  876MOL0     C15538   0.016   8.087   2.919 -0.1786 -0.3487  0.8031
  876MOL0     C15539   0.165   8.067   2.870  0.0241  0.7606 -0.7678
  876MOL0     C15540   0.215   7.931   2.932 -0.4480 -0.9725 -0.0286
  876MOL0     C15541   0.358   7.899   2.875 -1.2477  0.4367  0.2489
  876MOL0     C15542   0.413   7.752   2.901  0.5108 -1.4859  0.7366
  876MOL0     C15543   0.319   7.642   2.831  0.2023  0.8484  0.4898
  876MOL0    Cl15544   0.403   7.483   2.825 -0.2140 -0.1523 -0.1001
  876MOL0     C15545  -0.067   8.566   2.593 -0.4380 -0.2100 -0.0482
  876MOL0     C15546  -0.053   8.622   2.465 -0.0260  0.4976  0.3679
  876MOL0     O15547  -0.042   8.414   2.134  0.9138 -0.3456  0.4895
  876MOL0     C15548   0.036   8.749   2.020 -0.2989 -0.5237 -0.1256
  876MOL0     C15549   0.083   8.801   1.897 -0.1782  0.2907 -0.1049
  876MOL0     N15550   0.622   8.704   1.811  0.3049 -0.0410  0.2949
  876MOL0     N15551   0.634   8.686   1.944 -0.1922  0.3366 -0.4349
  876MOL0     C15552   0.572   7.878   2.367 -0.3083 -0.4698  0.0577
  876MOL0     C15553   0.617   7.792   2.268 -0.6368  1.0091 -0.6313
  876MOL0     C15554   0.800   7.564   1.935  0.8671  0.1954 -1.0367
  876MOL0     C15555   0.894   7.643   1.867  0.2728 -0.0120  0.6812
  876MOL0     C15556   0.945   7.600   1.748 -0.8316  0.8488  0.1396
  876MOL0     C15557   0.897   7.480   1.693 -0.1709 -0.1218  0.6636
  876MOL0     O15558   0.942   7.431   1.576 -0.3867 -0.3305  0.0290
  876MOL0     C15559   1.059   7.353   1.599 -0.8021 -0.1111  0.2943
  876MOL0     C15560   1.066   7.234   1.502  0.0575  0.5772  0.2691
  876MOL0     C15561   1.129   7.252   1.360  1.1027  0.3245 -0.5738
  876MOL0     C15562   1.270   7.314   1.351  0.4111  0.1482 -0.3405
  876MOL0     C15563   1.361   7.208   1.405  0.4701 -0.7489 -0.5419
  876MOL0     C15564   1.413   7.112   1.462 -0.6859 -0.3414 -0.0207
  876MOL0     C15565   0.801   7.406   1.757  0.0671 -0.4295 -0.1607
  876MOL0     C15566   0.748   7.449   1.878 -0.0067  0.0336  1.0064
  876MOL0     H15567   0.925   7.924   2.209  0.0542 -0.9004 -0.8826
  876MOL0     H15568   0.845   8.073   2.402 -0.8792  0.2659 -0.1636
  876MOL0     H15569   0.489   8.051   2.648 -2.1251  0.0826 -0.5083
  876MOL0     H15570   0.426   8.093   2.485 -0.5037 -1.7724  1.3110
  876MOL0     H15571   0.599   8.262   2.649 -0.5957 -2.2237  0.7601
  876MOL0     H15572   0.431   8.273   2.663  0.8240 -2.5537  1.6594
  876MOL0     H15573   0.523   8.313   2.378 -0.5918  2.5694 -1.0708
  876MOL0     H15574   0.567   8.439   2.478  1.3067 -1.6198 -0.9402
  876MOL0     H15575   0.278   8.335   2.484  0.7464 -0.7682 -0.7238
  876MOL0     H15576   0.336   8.485   2.550 -1.1014 -0.5614  0.1850
  876MOL0     H15577   0.209   8.512   2.343  0.5964  1.6700  5.5110
  876MOL0     H15578   0.320   8.404   2.253  1.5496 -0.0125  0.6714
  876MOL0     H15579   0.515   8.548   2.300 -1.0973 -3.4574 -1.7732
  876MOL0     H15580   0.397   8.665   2.381 -3.5169  1.0435 -1.4328
  876MOL0     H15581   0.367   8.592   2.091  2.7208  0.6123 -1.6568
  876MOL0     H15582   0.298   8.719   2.187  0.5624  1.5140 -0.2457
  876MOL0     H15583   0.594   8.748   2.189  1.7275  1.2807 -2.7193
  876MOL0     H15584   0.468   8.863   2.165  0.2384 -1.3724  2.6910
  876MOL0     H15585   0.381   8.887   1.925  1.5446  1.0203 -2.0378
  876MOL0     H15586   0.555   8.878   1.607 -1.2284  1.0443 -0.7899
  876MOL0     H15587   0.380   8.877   1.654  0.7064  2.7721 -0.8277
  876MOL0     H15588   0.527   8.626   1.536  2.0753  1.2869  0.9663
  876MOL0     H15589   0.449   8.739   1.439 -2.2772  0.2466  1.4681
  876MOL0     H15590   0.314   8.534   1.498  2.1340  0.7495 -0.5069
  876MOL0     H15591   0.312   8.573   1.663 -2.7128 -3.0519 -0.5394
  876MOL0     H15592   0.102   8.655   1.509 -2.5856  2.3604  2.8428
  876MOL0     H15593   0.205   8.786   1.461  1.3742 -1.6607 -2.0626
  876MOL0     H15594   0.098   8.498   1.717 -0.5747 -1.9245  1.7304
  876MOL0     H15595   0.009   8.420   1.914  1.2511 -0.5839  3.6250
  876MOL0     H15596  -0.279   8.424   2.313  1.0436  0.9409 -0.8374
  876MOL0     H15597  -0.260   8.297   2.548  1.1179 -0.2690  2.7951
  876MOL0     H15598  -0.003   8.238   2.684  3.6158  2.9267  3.3750
  876MOL0     H15599  -0.172   8.202   2.732 -1.7874  2.7093 -1.2233
  876MOL0     H15600  -0.109   8.259   2.967  2.6633  2.0693  2.3348
  876MOL0     H15601   0.049   8.299   2.922 -3.1959  3.6478  1.0904
  876MOL0     H15602  -0.043   8.021   2.855  1.0197  0.5265 -1.3411
  876MOL0     H15603   0.006   8.064   3.025  1.5890  1.1615  1.3451
  876MOL0     H15604   0.161   8.077   2.761 -0.3819  0.8445 -0.7467
  876MOL0     H15605   0.234   8.144   2.906  2.1300 -1.0585 -0.7206
  876MOL0     H15606   0.136   7.857   2.912 -1.3084 -0.3585  0.9809
  876MOL0     H15607   0.228   7.950   3.039 -0.7060 -0.6450 -0.0560
  876MOL0     H15608   0.424   7.980   2.909 -2.3402  1.4617  0.0024
  876MOL0     H15609   0.349   7.909   2.766  1.6028 -0.9249 -0.2067
  876MOL0     H15610   0.506   7.757   2.843 -0.5202 -1.1027 -0.9478
  876MOL0     H15611   0.428   7.734   3.008 -1.2497  1.2998  1.5535
  876MOL0     H15612   0.298   7.668   2.726 -1.7936 -0.6799  0.4507
  876MOL0     H15613   0.225   7.628   2.886  1.9925 -2.2358  3.0873
  876MOL0     H15614  -0.015   8.610   2.677 -3.2636  3.0310  0.2230
  876MOL0     H15615   0.020   8.699   2.443  1.5333 -1.0248  0.0060
  876MOL0     H15616   0.010   8.805   2.109  0.9759 -1.7779  1.0861
  876MOL0     H15617   0.113   8.903   1.877  1.0572 -0.0654 -0.1870
  876MOL0     H15618   0.481   7.859   2.424 -1.0111  1.2928 -0.4150
  876MOL0     H15619   0.559   7.703   2.247  0.4306  0.7280 -2.5760
  876MOL0     H15620   0.941   7.731   1.910  2.5178 -0.6938 -0.1964
  876MOL0     H15621   1.019   7.653   1.690  0.2139 -0.4965  0.2133
  876MOL0     H15622   1.084   7.329   1.703  0.7828  2.7967  0.6832
  876MOL0     H15623   1.152   7.407   1.578  0.7356 -2.7942 -0.2490
  876MOL0     H15624   1.120   7.154   1.555 -1.5280 -1.0805 -0.5034
  876MOL0     H15625   0.959   7.211   1.496  0.1136  0.3970 -0.0502
  876MOL0     H15626   1.066   7.311   1.292  1.1388  2.1091  0.8513
  876MOL0     H15627   1.141   7.147   1.332 -1.9582 -1.3528  3.4859
  876MOL0     H15628   1.286   7.323   1.243 -1.0713 -2.8045 -0.9009
  876MOL0     H15629   1.273   7.411   1.402 -0.6189 -0.1621  0.3292
  876MOL0     H15630   1.456   7.020   1.497 -2.2178 -1.2012 -0.3331
  876MOL0     H15631   0.768   7.309   1.722  0.9732 -0.0613 -2.1649
  876MOL0     H15632   0.662   7.397   1.918 -2.5857  3.3091  0.2217
  877MOL0     O15633   7.417  10.967   8.368  0.4927 -0.1176  0.0733
  877MOL0     C15634   7.400  10.904   8.477  0.4004  0.1699 -0.1521
  877MOL0     O15635   7.306  10.806   8.495 -0.0651  0.6802 -0.2635
  877MOL0     C15636   7.209  10.796   8.399  0.0589  1.5087  0.1633
  877MOL0     C15637   7.077  10.770   8.447  0.3892 -0.0844  0.2111
  877MOL0     C15638   6.973  10.760   8.359  0.2320  0.6234  0.1549
  877MOL0     C15639   6.994  10.739   8.222  0.2372  0.0559  0.5131
  877MOL0     O15640   6.892  10.711   8.135  0.8272 -0.4074 -0.1797
  877MOL0     C15641   6.918  10.682   7.992  0.1024 -1.1024  0.0143
  877MOL0     C15642   6.785  10.646   7.925 -0.4500 -0.9487  0.6104
  877MOL0     C15643   6.741  10.518   7.989  0.6227  0.7368  0.3201
  877MOL0     C15644   6.634  10.457   7.901 -0.4060 -0.6076  1.2088
  877MOL0     C15645   6.536  10.372   7.978  0.4407  0.6580 -0.2240
  877MOL0     C15646   6.601  10.261   8.059 -0.9650  0.5901 -1.4818
  877MOL0     C15647   6.667  10.161   7.970 -0.5248 -0.2646 -1.3174
  877MOL0     C15648   6.745  10.054   8.064  0.3446  0.2498  0.1240
  877MOL0     N15649   6.762   9.922   8.001 -0.6952  0.2441 -0.5029
  877MOL0     C15650   6.787   9.902   7.868  0.3183  0.7655 -0.1955
  877MOL0     C15651   6.773   9.765   7.845  0.1746  0.2650  0.0317
  877MOL0     C15652   6.768   9.694   7.717 -0.2778  0.7045 -0.1828
  877MOL0     C15653   6.619   9.680   7.686  0.6177 -0.8458  0.0388
  877MOL0     C15654   6.600   9.615   7.543 -0.0382 -0.6378 -0.2814
  877MOL0     C15655   6.457   9.596   7.524 -1.0184 -0.5891 -0.0090
  877MOL0     O15656   6.410   9.490   7.603  0.4846  0.1892  0.3181
  877MOL0     C15657   6.278   9.470   7.604  0.2631 -0.4771  0.1265
  877MOL0     C15658   6.225   9.384   7.701  0.2237 -0.0237  0.9484
  877MOL0     C15659   6.088   9.350   7.705  1.0072  0.3749 -0.4937
  877MOL0     C15660   5.999   9.390   7.604 -1.1754 -0.1214  0.6874
  877MOL0     C15661   5.865   9.348   7.613 -0.2506  0.2409 -0.5012
  877MOL0     O15662   5.790   9.383   7.510 -0.1377  0.4595 -0.7709
  877MOL0     C15663   5.651   9.365   7.503  0.5749 -0.3292 -0.8437
  877MOL0     C15664   5.585   9.287   7.401 -0.2802 -0.3789  0.4484
  877MOL0     C15665   5.449   9.264   7.403  0.5021  0.0896 -0.1078
  877MOL0     C15666   5.370   9.316   7.507 -0.3249 -0.4357  0.3528
  877MOL0     O15667   5.233   9.300   7.526  0.2641 -0.3897  0.1848
  877MOL0     C15668   5.142   9.270   7.415 -0.0632 -0.5883 -0.2906
  877MOL0     C15669   5.112   9.372   7.308  0.4583 -0.9166 -0.0779
  877MOL0     C15670   5.046   9.494   7.366 -0.4061 -0.3377  0.7053
  877MOL0     C15671   5.030   9.594   7.271 -0.2267 -0.1524  0.3337
  877MOL0     C15672   4.906   9.690   7.297  0.2703  0.2981  0.0617
  877MOL0     C15673   4.751   9.624   7.302 -0.2979  0.6516  0.8815
  877MOL0     C15674   4.664   9.703   7.399 -0.0709 -0.0496 -0.6433
  877MOL0     C15675   4.647   9.851   7.361 -0.0667 -0.2246 -0.1028
  877MOL0    Cl15676   4.567   9.944   7.480 -0.4476 -0.3815  0.2312
  877MOL0     C15677   5.433   9.386   7.611 -0.7416 -0.5691  0.7752
  877MOL0     C15678   5.569   9.406   7.614 -0.2506  0.2592 -0.3481
  877MOL0     O15679   5.827   9.295   7.720  0.2915 -0.4886 -0.1958
  877MOL0     C15680   6.056   9.474   7.501 -0.0763 -0.7195 -0.2655
  877MOL0     C15681   6.190   9.513   7.501  0.1669 -0.0678  0.3902
  877MOL0     N15682   6.754   9.707   7.973  0.0158  0.2924  0.0645
  877MOL0     N15683   6.750   9.802   8.062 -0.1212 -0.4775  0.2783
  877MOL0     C15684   7.125  10.755   8.179 -1.1771 -0.1298  0.5380
  877MOL0     C15685   7.236  10.781   8.268 -0.8156 -0.8367  0.6304
  877MOL0     C15686   7.504  10.917   8.595  0.3988 -0.3602  1.1680
  877MOL0     C15687   7.523  10.803   8.680  0.1726  0.2401  0.3965
  877MOL0     C15688   7.621  10.809   8.775  0.4874 -0.4200 -0.7496
  877MOL0     C15689   7.699  10.920   8.796 -0.2291 -0.4906  0.5073
  877MOL0     O15690   7.797  10.930   8.894 -0.6181  0.3043  0.5404
  877MOL0     C15691   7.812  10.809   8.975 -0.1562  0.3602 -0.1918
  877MOL0     C15692   7.912  10.819   9.079  0.0109  0.1201 -0.6734
  877MOL0     C15693   7.902  10.929   9.182 -0.3686  0.0295  0.4891
  877MOL0     C15694   7.766  10.947   9.268  0.0005 -0.5567  1.1230
  877MOL0     C15695   7.751  10.825   9.331  0.0147  0.6220  0.8949
  877MOL0     C15696   7.742  10.716   9.394  0.4440 -0.2906  0.3767
  877MOL0     C15697   7.682  11.036   8.718 -0.7841 -0.6518 -0.8283
  877MOL0     C15698   7.591  11.031   8.613 -0.4336  0.4009  0.4579
  877MOL0     H15699   7.046  10.773   8.551  0.5635  1.3110  0.2437
  877MOL0     H15700   6.870  10.749   8.392  0.2823 -3.0135 -0.5764
  877MOL0     H15701   6.992  10.603   7.972  3.1259  0.7891  2.6838
  877MOL0     H15702   6.951  10.782   7.962 -1.2782 -0.2822  1.1236
  877MOL0     H15703   6.791  10.649   7.816  1.4942  1.0486  0.6977
  877MOL0     H15704   6.711  10.724   7.946 -0.4006 -0.4103 -1.0929
  877MOL0     H15705   6.699  10.530   8.089 -0.5062  0.4928 -0.1095
  877MOL0     H15706   6.818  10.443   8.007  0.0554  0.6322  2.5116
  877MOL0     H15707   6.574  10.538   7.859  0.9179 -0.5460 -0.6898
  877MOL0     H15708   6.675  10.398   7.819  2.8965  0.3644  2.0312
  877MOL0     H15709   6.463  10.326   7.910  1.7857  0.8872 -1.9165
  877MOL0     H15710   6.481  10.439   8.045 -1.7765 -1.7633  0.5389
  877MOL0     H15711   6.533  10.208   8.126 -1.1931 -2.0723 -3.6685
  877MOL0     H15712   6.680  10.306   8.120 -3.1627  2.4814  0.1594
  877MOL0     H15713   6.595  10.098   7.917 -1.1760 -1.1416  0.4941
  877MOL0     H15714   6.737  10.202   7.897  0.8257  1.5738  0.8538
  877MOL0     H15715   6.675  10.026   8.143  1.3595 -2.2525  0.2299
  877MOL0     H15716   6.836  10.095   8.109  0.0332  2.3089 -0.9999
  877MOL0     H15717   6.817   9.967   7.787 -2.6449  3.4310  0.6338
  877MOL0     H15718   6.817   9.598   7.739 -1.2753  0.7060  2.4762
  877MOL0     H15719   6.818   9.744   7.634  0.2827 -0.8143 -0.8044
  877MOL0     H15720   6.569   9.777   7.692  1.6510 -0.2725 -0.3852
  877MOL0     H15721   6.578   9.611   7.759 -0.5435  1.2619  1.4790
  877MOL0     H15722   6.637   9.674   7.459 -2.2445 -1.1910 -1.7396
  877MOL0     H15723   6.643   9.515   7.548 -1.2996 -1.1278  2.4083
  877MOL0     H15724   6.447   9.575   7.417  3.1446  2.9817 -1.4096
  877MOL0     H15725   6.402   9.690   7.529 -0.4245 -0.3038  1.8958
  877MOL0     H15726   6.288   9.342   7.779  0.6728  3.3061  2.5136
  877MOL0     H15727   6.054   9.279   7.780 -0.3164  2.8056  1.3225
  877MOL0     H15728   5.645   9.257   7.316  2.0528  2.3347  0.9820
  877MOL0     H15729   5.404   9.205   7.324 -0.1800  0.7754 -0.2442
  877MOL0     H15730   5.052   9.241   7.470  0.0759  1.6463  1.2421
  877MOL0     H15731   5.170   9.174   7.369  1.0455 -0.0916 -0.6705
  877MOL0     H15732   5.052   9.322   7.231 -1.7217 -1.3134  1.7887
  877MOL0     H15733   5.203   9.398   7.254 -0.5869 -3.0330 -3.1929
  877MOL0     H15734   5.095   9.539   7.453  1.0260  0.7563 -0.6187
  877MOL0     H15735   4.951   9.469   7.414 -0.0218  0.5314  1.9764
  877MOL0     H15736   5.121   9.655   7.279  1.8641 -3.2394  3.0664
  877MOL0     H15737   5.026   9.558   7.168  3.5083  0.3256 -0.1444
  877MOL0     H15738   4.897   9.764   7.217 -2.4819  0.4595  0.4223
  877MOL0     H15739   4.944   9.739   7.387 -0.1171 -0.4837  0.6590
  877MOL0     H15740   4.746   9.520   7.335 -1.7239 -0.6157 -2.7458
  877MOL0     H15741   4.718   9.623   7.198  1.7240 -0.7847  0.1871
  877MOL0     H15742   4.564   9.660   7.414 -2.0150  4.8576  3.7608
  877MOL0     H15743   4.707   9.705   7.500  0.6987  3.4095 -0.9229
  877MOL0     H15744   4.589   9.847   7.269  1.4916 -0.3933 -1.1142
  877MOL0     H15745   4.741   9.904   7.346 -1.0455  1.0409 -2.1083
  877MOL0     H15746   5.368   9.417   7.692 -1.0787  1.1590 -0.1183
  877MOL0     H15747   5.621   9.435   7.705  0.9733 -3.4414  0.2774
  877MOL0     H15748   5.987   9.523   7.432 -3.2712 -2.0056  1.7682
  877MOL0     H15749   6.221   9.559   7.408  0.2587 -1.1840 -0.1398
  877MOL0     H15750   7.143  10.734   8.074  0.1032 -5.7870  1.5457
  877MOL0     H15751   7.338  10.790   8.232 -0.6199  2.4015  1.6574
  877MOL0     H15752   7.458  10.718   8.665 -2.1453  1.3942  3.0917
  877MOL0     H15753   7.640  10.716   8.828 -0.1222 -1.5157 -2.3841
  877MOL0     H15754   7.834  10.725   8.907 -2.3697 -0.2050 -0.2984
  877MOL0     H15755   7.721  10.777   9.028 -0.3386  1.6953  0.3248
  877MOL0     H15756   7.926  10.726   9.135 -0.8473  1.4928  1.9981
  877MOL0     H15757   8.010  10.839   9.035  1.1404  0.4737  1.8252
  877MOL0     H15758   7.906  11.022   9.124 -1.2208 -1.8541 -2.7952
  877MOL0     H15759   7.989  10.922   9.249  0.1486  3.6108  0.4147
  877MOL0     H15760   7.769  11.034   9.334  2.2763  0.8755 -0.7188
  877MOL0     H15761   7.685  10.965   9.197  1.4284  0.4834 -0.3060
  877MOL0     H15762   7.736  10.632   9.460 -2.0820 -0.3999  0.0941
  877MOL0     H15763   7.739  11.128   8.727 -1.3267 -0.4573  1.3692
  877MOL0     H15764   7.578  11.109   8.538 -3.6916 -0.1392  0.2969
  878MOL0     O15765   1.268   8.948   9.242 -0.6521  0.3205 -1.1022
  878MOL0     C15766   1.155   8.975   9.202 -0.1893  0.2035 -0.6546
  878MOL0     O15767   1.129   9.082   9.125 -0.2897 -0.5223  0.3976
  878MOL0     C15768   1.222   9.175   9.102  0.4072 -0.2364 -0.7407
  878MOL0     C15769   1.181   9.307   9.121 -0.3914  0.6703 -0.3671
  878MOL0     C15770   1.266   9.410   9.071  0.7061 -0.2772 -0.4454
  878MOL0     C15771   1.384   9.378   9.009  0.0805  0.4212 -0.1718
  878MOL0     O15772   1.469   9.468   8.945  0.3158 -0.3150 -0.0018
  878MOL0     C15773   1.479   9.616   8.965  0.5358  0.5517 -0.0797
  878MOL0     C15774   1.512   9.699   8.842 -0.6007 -0.3435 -0.2677
  878MOL0     C15775   1.417   9.661   8.728  0.7539 -0.1313  0.2167
  878MOL0     C15776   1.435   9.754   8.607  0.5800  0.2382 -0.2407
  878MOL0     C15777   1.312   9.738   8.515 -0.0243  0.0581  0.1228
  878MOL0     C15778   1.288   9.592   8.455 -0.6010  1.4268  0.1161
  878MOL0     C15779   1.422   9.535   8.408  1.4381  0.8330  0.2698
  878MOL0     C15780   1.398   9.410   8.331 -0.0736 -0.4084 -0.0740
  878MOL0     N15781   1.518   9.339   8.280  1.1588 -0.5257 -0.3147
  878MOL0     C15782   1.587   9.365   8.160  0.2549  0.4277  0.8486
  878MOL0     C15783   1.699   9.295   8.173 -0.1418  0.0379  0.3337
  878MOL0     C15784   1.811   9.289   8.069  0.0488 -0.0103 -0.2769
  878MOL0     C15785   1.782   9.171   7.978  1.4077 -0.6544 -0.5933
  878MOL0     C15786   1.892   9.163   7.867 -0.2790  0.1377  0.5096
  878MOL0     C15787   1.918   9.015   7.823 -0.1708 -0.9503 -0.0004
  878MOL0     O15788   1.802   8.955   7.756 -0.8430 -0.1916 -0.1733
  878MOL0     C15789   1.759   9.013   7.643  0.1627 -0.5219  0.9673
  878MOL0     C15790   1.845   9.055   7.538  0.7725  1.1164 -0.9764
  878MOL0     C15791   1.782   9.104   7.425  0.1858 -0.3645 -0.4071
  878MOL0     C15792   1.644   9.121   7.400 -0.6863  0.2311  1.2252
  878MOL0     C15793   1.584   9.182   7.278 -1.1293  0.4592 -0.3451
  878MOL0     O15794   1.448   9.171   7.265 -0.3367 -0.1595 -0.8452
  878MOL0     C15795   1.375   9.245   7.182  0.1713 -0.2462 -0.5332
  878MOL0     C15796   1.265   9.185   7.126  0.3085  0.2685 -0.2603
  878MOL0     C15797   1.178   9.253   7.036  0.2018 -0.5743  0.1553
  878MOL0     C15798   1.205   9.383   6.996  0.0191  1.0996 -0.5439
  878MOL0     O15799   1.130   9.435   6.899  0.3169  0.0758 -0.4325
  878MOL0     C15800   1.123   9.571   6.878 -0.1014 -0.9389 -0.0809
  878MOL0     C15801   0.979   9.584   6.838  0.2100 -0.2108 -0.3243
  878MOL0     C15802   0.937   9.731   6.857 -0.6760 -0.2621  0.5999
  878MOL0     C15803   0.894   9.764   7.001  0.1878 -0.5676 -0.5317
  878MOL0     C15804   0.843   9.912   7.032 -0.3807  0.1920  0.5870
  878MOL0     C15805   0.961  10.004   7.074 -0.2534  0.4714  0.7876
  878MOL0     C15806   0.938  10.151   7.099 -0.3932  0.0045  0.4007
  878MOL0     C15807   0.824  10.164   7.201 -1.0778  0.0896  0.1041
  878MOL0    Cl15808   0.841  10.077   7.359  0.4639 -0.2048  0.1564
  878MOL0     C15809   1.310   9.443   7.067 -0.0146  0.4371  0.9127
  878MOL0     C15810   1.405   9.377   7.142  0.1152  0.5403 -0.0247
  878MOL0     O15811   1.665   9.247   7.200 -0.4353 -0.1755  0.3264
  878MOL0     C15812   1.566   9.081   7.508  0.2245 -0.0227 -0.3587
  878MOL0     C15813   1.618   9.024   7.626 -0.5068  0.9326 -0.3996
  878MOL0     N15814   1.698   9.220   8.295 -0.7788 -0.1059  0.4172
  878MOL0     N15815   1.588   9.263   8.352 -1.3369  0.3369  0.0005
  878MOL0     C15816   1.415   9.247   8.986 -0.1110  0.1165 -0.2752
  878MOL0     C15817   1.334   9.147   9.033 -0.4641 -0.9475  1.0551
  878MOL0     C15818   1.058   8.875   9.233 -0.0472  0.3117  0.8482
  878MOL0     C15819   0.958   8.846   9.141 -0.0989 -0.1484  0.1537
  878MOL0     C15820   0.851   8.768   9.171  0.1819 -0.4600 -0.6571
  878MOL0     C15821   0.846   8.705   9.300  1.4625 -0.5102  0.1239
  878MOL0     O15822   0.729   8.636   9.331 -0.5585 -0.2782 -0.2654
  878MOL0     C15823   0.665   8.653   9.458  0.6315  0.3367  0.0372
  878MOL0     C15824   0.661   8.511   9.522 -0.2513  0.2970 -0.4852
  878MOL0     C15825   0.580   8.501   9.654  0.0352 -0.4810  1.1759
  878MOL0     C15826   0.439   8.534   9.626 -0.1656  0.3505 -1.6227
  878MOL0     C15827   0.357   8.500   9.747 -0.6831 -0.1557 -0.4473
  878MOL0     C15828   0.275   8.464   9.829  0.4814  0.2694 -0.6127
  878MOL0     C15829   0.950   8.723   9.394  1.5449  0.1255 -0.3216
  878MOL0     C15830   1.054   8.817   9.357 -0.4515  0.5501  0.0905
  878MOL0     H15831   1.087   9.324   9.171 -1.0740  0.4333 -1.5417
  878MOL0     H15832   1.252   9.514   9.100  1.9158 -0.0476 -0.6601
  878MOL0     H15833   1.569   9.623   9.027  1.6141  1.7868 -1.6685
  878MOL0     H15834   1.398   9.660   9.023  0.8523 -1.0800  1.6781
  878MOL0     H15835   1.617   9.686   8.814 -0.0637  1.9902  0.4382
  878MOL0     H15836   1.508   9.806   8.865  0.1294 -0.7261  1.8408
  878MOL0     H15837   1.313   9.653   8.760  1.1076 -0.7940  1.2346
  878MOL0     H15838   1.443   9.558   8.705  1.5275  0.2284 -0.5866
  878MOL0     H15839   1.431   9.858   8.644 -0.6684  0.5782 -1.2687
  878MOL0     H15840   1.526   9.739   8.549 -1.1408  1.7139 -3.5968
  878MOL0     H15841   1.322   9.808   8.431 -1.0716 -0.1512 -0.1898
  878MOL0     H15842   1.227   9.764   8.578  0.3789 -1.3061  1.2876
  878MOL0     H15843   1.222   9.595   8.368 -0.8422 -0.4450  0.1933
  878MOL0     H15844   1.256   9.521   8.532  3.2351 -2.8808 -1.7675
  878MOL0     H15845   1.470   9.612   8.347 -1.6356  0.8518 -2.4207
  878MOL0     H15846   1.485   9.510   8.494  0.0025 -0.5644  0.9773
  878MOL0     H15847   1.335   9.435   8.245  2.1693  2.8389 -0.9937
  878MOL0     H15848   1.345   9.346   8.402  0.4697  2.4742  3.2043
  878MOL0     H15849   1.547   9.399   8.065 -0.6475 -2.5323  0.0586
  878MOL0     H15850   1.901   9.262   8.125 -0.2252 -0.4943 -0.0688
  878MOL0     H15851   1.828   9.388   8.025 -1.7438  1.4439  2.0269
  878MOL0     H15852   1.686   9.190   7.929  1.1925 -1.1737 -0.3857
  878MOL0     H15853   1.776   9.077   8.035  0.0852  1.3018  2.7618
  878MOL0     H15854   1.871   9.231   7.784  3.6849  1.8253  0.6264
  878MOL0     H15855   1.988   9.191   7.911 -0.8320  2.1118  0.5578
  878MOL0     H15856   1.947   8.955   7.910  3.9213 -1.7524 -1.6933
  878MOL0     H15857   2.000   9.012   7.751  0.8723  0.0280  1.0969
  878MOL0     H15858   1.950   9.029   7.539  0.7260  0.8409  1.1893
  878MOL0     H15859   1.846   9.144   7.346 -1.2033  1.0087 -0.9091
  878MOL0     H15860   1.228   9.085   7.145  0.3847  0.5390  1.4286
  878MOL0     H15861   1.091   9.207   6.991  0.9617  1.5099 -3.8784
  878MOL0     H15862   1.177   9.614   6.792 -2.7039  0.4447 -1.1641
  878MOL0     H15863   1.144   9.634   6.965  0.6662  0.1622 -1.0212
  878MOL0     H15864   0.917   9.534   6.914 -1.0528  3.4313  1.2697
  878MOL0     H15865   0.971   9.539   6.739  4.4000 -3.7152  0.5992
  878MOL0     H15866   0.857   9.755   6.787  0.6480 -0.0115 -0.8853
  878MOL0     H15867   1.019   9.794   6.819 -2.0227  1.8959  1.1230
  878MOL0     H15868   0.818   9.690   7.026  0.8603 -1.6075 -1.4860
  878MOL0     H15869   0.974   9.748   7.075  0.3270  2.0096 -0.0210
  878MOL0     H15870   0.763   9.906   7.107 -0.3553 -1.4641  0.5267
  878MOL0     H15871   0.782   9.946   6.948 -3.1369 -0.2729  2.2731
  878MOL0     H15872   1.045   9.987   7.005 -0.3452  2.2644  0.1732
  878MOL0     H15873   0.990   9.978   7.176 -1.5644  2.0550  1.6073
  878MOL0     H15874   1.035  10.191   7.132 -0.0464 -1.4261  1.2244
  878MOL0     H15875   0.898  10.199   7.010 -0.5759  2.0435  1.5134
  878MOL0     H15876   0.733  10.142   7.144 -0.1376 -0.0607 -1.4031
  878MOL0     H15877   0.807  10.268   7.230 -1.9011 -0.6224  2.4054
  878MOL0     H15878   1.333   9.548   7.049 -1.1846  0.2065 -2.9041
  878MOL0     H15879   1.489   9.426   7.191  0.5857 -0.6662  0.4187
  878MOL0     H15880   1.469   9.126   7.524  1.9560  3.9099  0.1569
  878MOL0     H15881   1.552   8.988   7.704  0.6149 -0.4924 -0.0456
  878MOL0     H15882   1.500   9.214   8.926  0.1621 -2.7148  1.4625
  878MOL0     H15883   1.348   9.041   9.016 -0.5865 -0.6662 -1.0823
  878MOL0     H15884   0.966   8.894   9.044 -2.1573  0.9190  0.4443
  878MOL0     H15885   0.775   8.739   9.100  0.0676 -2.6679  0.2932
  878MOL0     H15886   0.563   8.685   9.437  0.8704 -0.0843 -2.0332
  878MOL0     H15887   0.701   8.729   9.528  0.8933 -0.0114  0.2875
  878MOL0     H15888   0.611   8.429   9.469 -0.3063  0.0379 -0.0454
  878MOL0     H15889   0.766   8.484   9.530 -0.4942 -0.9982 -1.3408
  878MOL0     H15890   0.623   8.574   9.723 -0.1266 -1.6192  2.5257
  878MOL0     H15891   0.579   8.402   9.700 -0.1264 -0.9482  0.1828
  878MOL0     H15892   0.430   8.641   9.603  1.7430  1.7305  2.8814
  878MOL0     H15893   0.392   8.480   9.544  0.0135 -3.0074  0.2977
  878MOL0     H15894   0.203   8.435   9.904  1.7419 -0.4668  0.3620
  878MOL0     H15895   0.935   8.681   9.493 -0.1823  0.5719 -0.3592
  878MOL0     H15896   1.116   8.854   9.438  0.4566 -0.2724 -0.2162
  879MOL0     O15897   0.800   3.790   1.875  0.2549  0.7246  0.0743
  879MOL0     C15898   0.866   3.812   1.772  0.4267  0.6106 -0.4748
  879MOL0     O15899   0.954   3.912   1.749 -0.0494  0.4378 -0.3648
  879MOL0     C15900   1.014   3.974   1.854 -0.1963  0.4372 -0.7216
  879MOL0     C15901   1.045   4.101   1.826 -0.1268 -0.6127  0.1931
  879MOL0     C15902   1.092   4.193   1.925 -0.2880  0.3428 -0.0234
  879MOL0     C15903   1.101   4.153   2.055 -0.0081  0.7283  0.1271
  879MOL0     O15904   1.149   4.252   2.135 -0.4848 -0.9051  0.3128
  879MOL0     C15905   1.169   4.224   2.269  1.0368  0.0943 -0.6837
  879MOL0     C15906   1.206   4.356   2.338 -0.9091  0.1991  0.2397
  879MOL0     C15907   1.362   4.383   2.312  0.6226  0.4216 -0.1350
  879MOL0     C15908   1.398   4.435   2.167 -0.4146  0.5244 -0.4010
  879MOL0     C15909   1.367   4.576   2.132 -1.1005  0.1144 -0.2647
  879MOL0     C15910   1.218   4.608   2.092  0.9488 -0.0104  0.0939
  879MOL0     C15911   1.207   4.604   1.941 -0.4730 -0.3052  0.6484
  879MOL0     C15912   1.083   4.681   1.875  0.5028 -0.1697 -1.0460
  879MOL0     N15913   0.947   4.623   1.918  0.2844  0.2151  0.1783
  879MOL0     C15914   0.891   4.514   1.860 -0.4081  0.2326  0.5160
  879MOL0     C15915   0.768   4.522   1.909 -0.3075  1.3402  0.1865
  879MOL0     C15916   0.661   4.426   1.876 -0.0910 -0.8154 -0.2881
  879MOL0     C15917   0.520   4.477   1.864 -0.5944  0.5862 -0.8019
  879MOL0     C15918   0.508   4.538   1.727 -0.3448  0.4665  0.7822
  879MOL0     C15919   0.403   4.640   1.730 -0.9441 -0.3875 -0.6808
  879MOL0     O15920   0.269   4.582   1.719 -0.4058  0.2073  0.5012
  879MOL0     C15921   0.172   4.671   1.690 -0.3472 -0.5342 -0.2475
  879MOL0     C15922   0.180   4.809   1.726 -0.4896  1.2501 -0.2160
  879MOL0     C15923   0.070   4.889   1.719 -0.0672  0.5247 -0.1099
  879MOL0     C15924  -0.046   4.850   1.647  0.2278 -0.1535 -0.3586
  879MOL0     C15925  -0.163   4.930   1.622  0.3106 -0.3702 -0.4655
  879MOL0     O15926  -0.241   4.901   1.511 -0.8136  0.1437  0.2039
  879MOL0     C15927  -0.364   4.958   1.513 -0.1630 -0.7936 -0.3658
  879MOL0     C15928  -0.465   4.927   1.602  0.7515  0.4141  0.6201
  879MOL0     C15929  -0.587   4.995   1.609 -0.8146 -0.4005  0.5871
  879MOL0     C15930  -0.608   5.111   1.525 -0.0580  0.3808 -0.2573
  879MOL0     O15931  -0.723   5.192   1.536 -0.4106  0.0016 -0.1258
  879MOL0     C15932  -0.784   5.217   1.659 -0.4621  0.1636  0.2208
  879MOL0     C15933  -0.936   5.253   1.650 -0.1083  0.4935 -0.3763
  879MOL0     C15934  -0.993   5.261   1.788  1.0065 -0.6677  0.6426
  879MOL0     C15935  -1.143   5.316   1.776  0.2365  1.0449 -0.3318
  879MOL0     C15936  -1.246   5.201   1.738  0.3008  0.4532 -0.3095
  879MOL0     C15937  -1.378   5.257   1.679 -1.2261  0.2666  0.3969
  879MOL0     C15938  -1.458   5.348   1.773  0.5028 -0.1529  0.0772
  879MOL0     C15939  -1.569   5.420   1.694 -0.2186 -0.6625  0.0232
  879MOL0    Cl15940  -1.666   5.301   1.607  0.0123 -0.1838 -0.3950
  879MOL0     C15941  -0.505   5.147   1.433  0.1110 -0.4510 -0.6694
  879MOL0     C15942  -0.389   5.068   1.432 -0.0524 -0.9716  0.4477
  879MOL0     O15943  -0.171   5.027   1.696 -0.3763 -0.0514  0.0841
  879MOL0     C15944  -0.045   4.708   1.608  0.3889 -0.5879  0.3147
  879MOL0     C15945   0.056   4.626   1.639  0.7746  1.1615 -0.4034
  879MOL0     N15946   0.764   4.620   1.994 -0.6983 -0.4710 -0.3969
  879MOL0     N15947   0.872   4.691   2.003  0.3318 -0.2577 -1.1081
  879MOL0     C15948   1.074   4.013   2.081  0.4890 -0.5945 -1.3213
  879MOL0     C15949   1.037   3.926   1.981 -0.8505 -0.1311  0.0893
  879MOL0     C15950   0.837   3.720   1.660  0.2056  0.5382  0.4418
  879MOL0     C15951   0.725   3.627   1.675 -0.7363 -0.2899 -0.7486
  879MOL0     C15952   0.696   3.540   1.566 -0.0265  0.0142 -0.5069
  879MOL0     C15953   0.771   3.550   1.443 -0.9613 -0.8493  0.8866
  879MOL0     O15954   0.745   3.476   1.331 -0.0251  0.4803 -0.3536
  879MOL0     C15955   0.650   3.371   1.364 -0.0445 -0.2619 -1.0483
  879MOL0     C15956   0.626   3.299   1.225  0.5259  0.2002 -0.3648
  879MOL0     C15957   0.533   3.383   1.130 -0.2122 -0.3987 -0.4015
  879MOL0     C15958   0.515   3.312   0.998  0.3867  1.0246  0.2906
  879MOL0     C15959   0.385   3.342   0.923 -0.3488  0.3968 -0.2927
  879MOL0     C15960   0.290   3.347   0.860 -0.3393  0.3469 -0.2902
  879MOL0     C15961   0.877   3.642   1.434 -0.0532 -0.7855  0.3455
  879MOL0     C15962   0.914   3.723   1.540  0.8700 -0.7181 -0.0254
  879MOL0     H15963   1.042   4.145   1.727 -2.6923  2.6967  1.5300
  879MOL0     H15964   1.122   4.289   1.884 -1.4867 -0.1405 -2.1643
  879MOL0     H15965   1.245   4.151   2.299 -3.0409 -3.1349  3.4342
  879MOL0     H15966   1.075   4.187   2.313  1.9299 -1.6539 -0.1239
  879MOL0     H15967   1.199   4.337   2.445  1.6185  0.5707  0.5481
  879MOL0     H15968   1.153   4.452   2.338  1.2499  1.4671  0.6279
  879MOL0     H15969   1.425   4.301   2.347  1.1763  0.5335 -0.8528
  879MOL0     H15970   1.393   4.461   2.381 -0.5429  2.3399 -1.6497
  879MOL0     H15971   1.506   4.422   2.176 -0.5770 -0.1011  1.0976
  879MOL0     H15972   1.368   4.365   2.089 -4.2433 -0.3246  1.5624
  879MOL0     H15973   1.440   4.611   2.057  1.0053 -2.5101  0.3943
  879MOL0     H15974   1.386   4.638   2.220 -2.3778  0.2308 -0.0559
  879MOL0     H15975   1.181   4.706   2.124 -1.4567 -1.4296  1.9877
  879MOL0     H15976   1.149   4.538   2.141  1.9026 -0.6677  0.5357
  879MOL0     H15977   1.302   4.641   1.901  0.2532 -0.9808  1.6998
  879MOL0     H15978   1.201   4.500   1.905 -1.5617  1.1307 -3.9847
  879MOL0     H15979   1.093   4.687   1.767 -1.7999 -0.0782 -1.2994
  879MOL0     H15980   1.102   4.784   1.906  0.5265  0.9493 -4.4336
  879MOL0     H15981   0.926   4.441   1.787 -1.3357  1.1324 -0.8957
  879MOL0     H15982   0.655   4.356   1.960 -2.6800  0.7398  0.9427
  879MOL0     H15983   0.689   4.377   1.782  0.5917  1.0398 -1.1099
  879MOL0     H15984   0.516   4.552   1.944 -0.6715  0.3028 -0.5375
  879MOL0     H15985   0.446   4.397   1.870 -0.4418  0.3477 -1.8757
  879MOL0     H15986   0.603   4.583   1.699 -1.4779  1.6890 -1.3372
  879MOL0     H15987   0.479   4.475   1.643  0.1733  0.4895  0.5833
  879MOL0     H15988   0.424   4.689   1.634 -0.3438  1.9962  0.5763
  879MOL0     H15989   0.422   4.701   1.819  1.0028 -1.0639 -0.5818
  879MOL0     H15990   0.272   4.861   1.749 -0.0527  1.1027 -1.5191
  879MOL0     H15991   0.070   4.992   1.755 -6.1447  1.3873 -1.4782
  879MOL0     H15992  -0.434   4.854   1.677  1.6960  1.5588  1.3932
  879MOL0     H15993  -0.653   4.975   1.693  0.7078  2.6658  2.7283
  879MOL0     H15994  -0.733   5.302   1.704  1.6671 -0.5455 -0.7150
  879MOL0     H15995  -0.771   5.136   1.733  1.3984  2.1897  2.2818
  879MOL0     H15996  -0.990   5.181   1.588  0.4049 -1.3757  1.2371
  879MOL0     H15997  -0.942   5.344   1.589 -2.4324  1.8181  1.6570
  879MOL0     H15998  -0.927   5.334   1.835  1.3101 -0.2598 -0.3955
  879MOL0     H15999  -0.995   5.161   1.833 -2.3276 -0.2546  1.6796
  879MOL0     H16000  -1.180   5.364   1.868 -1.5800 -0.5785 -0.1605
  879MOL0     H16001  -1.135   5.403   1.710  1.8025 -0.2883 -1.9856
  879MOL0     H16002  -1.279   5.152   1.830 -7.0078  1.9871 -1.4727
  879MOL0     H16003  -1.210   5.138   1.656 -0.0018  0.0722 -0.1460
  879MOL0     H16004  -1.441   5.173   1.649 -2.9595  1.1889  1.2862
  879MOL0     H16005  -1.343   5.320   1.597  0.2769 -1.4974 -0.3815
  879MOL0     H16006  -1.505   5.288   1.851  2.0739  1.9062  2.7795
  879MOL0     H16007  -1.395   5.418   1.829 -1.4527  2.1495 -0.4183
  879MOL0     H16008  -1.514   5.487   1.627 -1.5681  0.4981  0.0328
  879MOL0     H16009  -1.621   5.487   1.762 -1.0547 -0.0977 -1.1391
  879MOL0     H16010  -0.524   5.234   1.370  1.2298  0.0577 -0.3306
  879MOL0     H16011  -0.310   5.105   1.367 -1.4046 -1.2562 -1.4430
  879MOL0     H16012  -0.140   4.665   1.578  0.0665  0.6963 -0.5858
  879MOL0     H16013   0.054   4.519   1.623  3.4287  1.3149 -2.4658
  879MOL0     H16014   1.080   3.988   2.187 -1.7649 -0.2399 -1.0739
  879MOL0     H16015   1.022   3.825   2.018  1.2513  0.4255  2.7149
  879MOL0     H16016   0.665   3.632   1.765  2.3565 -0.4914  1.4549
  879MOL0     H16017   0.612   3.474   1.583  2.0502 -2.4622  0.7524
  879MOL0     H16018   0.546   3.401   1.382 -0.4320  0.0602 -3.4762
  879MOL0     H16019   0.694   3.294   1.428 -0.1679  0.2045 -0.3881
  879MOL0     H16020   0.722   3.265   1.184 -0.9378 -1.7714 -2.4220
  879MOL0     H16021   0.563   3.215   1.256  1.3004  0.2703  1.5296
  879MOL0     H16022   0.565   3.485   1.109 -2.5438  0.0543 -2.0705
  879MOL0     H16023   0.435   3.383   1.179 -1.3499  1.4982 -2.4830
  879MOL0     H16024   0.591   3.316   0.920 -2.6377 -1.5125 -3.1323
  879MOL0     H16025   0.507   3.206   1.026  4.6656  0.6346  0.6371
  879MOL0     H16026   0.199   3.346   0.804 -1.2401  0.4418  1.1222
  879MOL0     H16027   0.933   3.647   1.341 -0.8960 -2.1363 -0.2715
  879MOL0     H16028   1.005   3.781   1.540 -0.9465  2.3855  0.8642
  880MOL0     O16029   9.439   5.779   5.251  1.0094  0.3100  0.0541
  880MOL0     C16030   9.324   5.817   5.240  0.7644 -0.6270  0.3716
  880MOL0     O16031   9.254   5.875   5.349 -0.0315 -0.1469  0.3528
  880MOL0     C16032   9.320   5.882   5.473  0.8529  1.2158 -0.1353
  880MOL0     C16033   9.325   6.004   5.533 -0.8439  0.6342 -0.3114
  880MOL0     C16034   9.379   6.012   5.664 -0.0500  0.0239 -0.2714
  880MOL0     C16035   9.433   5.903   5.721 -0.7006 -0.0751  0.2723
  880MOL0     O16036   9.498   5.905   5.842 -1.0989  0.0423  0.3820
  880MOL0     C16037   9.641   5.936   5.822  0.2941  0.2499  0.6819
  880MOL0     C16038   9.717   5.926   5.961 -0.7128  0.0514 -0.4284
  880MOL0     C16039   9.651   5.999   6.084 -0.0957  0.7826 -0.0574
  880MOL0     C16040   9.541   5.922   6.156  0.4025  0.2243 -0.1080
  880MOL0     C16041   9.495   5.980   6.292 -0.2983  0.2916  0.1216
  880MOL0     C16042   9.611   5.981   6.393 -0.2661  0.4950  0.2533
  880MOL0     C16043   9.566   5.995   6.531 -0.0396 -0.6561  0.6673
  880MOL0     C16044   9.481   6.130   6.551 -0.2989 -1.0803  0.9106
  880MOL0     N16045   9.449   6.139   6.697 -0.8152  0.5494 -0.4150
  880MOL0     C16046   9.490   6.233   6.788 -0.3086  0.0844  0.8822
  880MOL0     C16047   9.401   6.232   6.887 -1.2042 -0.3397  0.6536
  880MOL0     C16048   9.390   6.328   7.006 -0.0377  0.0063 -0.2235
  880MOL0     C16049   9.368   6.248   7.131  0.1574  0.0948 -0.5261
  880MOL0     C16050   9.378   6.347   7.244 -0.1034  0.1322 -0.6379
  880MOL0     C16051   9.297   6.294   7.370 -0.4519 -0.3345 -0.1989
  880MOL0     O16052   9.366   6.175   7.415 -0.3252 -0.0841  0.3665
  880MOL0     C16053   9.455   6.171   7.515 -0.7056 -0.7821  0.8373
  880MOL0     C16054   9.443   6.246   7.626 -0.1962 -1.1062 -0.4652
  880MOL0     C16055   9.512   6.214   7.742 -0.1737  0.2321 -0.6390
  880MOL0     C16056   9.612   6.110   7.747  0.9087 -0.0458  0.7156
  880MOL0     C16057   9.705   6.083   7.861 -0.0392  0.1500 -0.2283
  880MOL0     O16058   9.709   6.170   7.970  0.0692 -0.4017  0.5430
  880MOL0     C16059   9.813   6.164   8.064 -0.3495 -0.0617  0.4067
  880MOL0     C16060   9.850   6.291   8.110  0.6930  0.5051 -0.3598
  880MOL0     C16061   9.959   6.301   8.195  0.2485  0.6788 -0.9291
  880MOL0     C16062  10.032   6.200   8.241 -0.3679  0.3170 -0.1558
  880MOL0     O16063  10.134   6.233   8.324 -0.1119 -0.2560 -0.2113
  880MOL0     C16064  10.266   6.166   8.303 -0.2565  0.8466  0.4514
  880MOL0     C16065  10.385   6.253   8.370 -0.2953  0.1586 -0.0035
  880MOL0     C16066  10.524   6.191   8.373 -0.3736 -0.0158  0.3067
  880MOL0     C16067  10.633   6.276   8.437  0.4102 -0.4117 -0.9580
  880MOL0     C16068  10.764   6.190   8.436 -0.5365  0.3191  0.2036
  880MOL0     C16069  10.879   6.276   8.487 -0.6452 -0.3962 -0.3053
  880MOL0     C16070  11.013   6.196   8.510 -0.7714 -0.3566 -0.5085
  880MOL0     C16071  11.125   6.278   8.566  0.0710  0.8039 -0.5766
  880MOL0    Cl16072  11.168   6.220   8.737 -0.0204  0.2021  0.2223
  880MOL0     C16073   9.986   6.071   8.209 -0.5732  0.0913 -1.0337
  880MOL0     C16074   9.876   6.054   8.109 -1.4831  0.4252 -0.7671
  880MOL0     O16075   9.789   5.999   7.843 -0.4304 -0.7748 -0.0301
  880MOL0     C16076   9.622   6.042   7.629  0.2964 -0.1201  0.6728
  880MOL0     C16077   9.554   6.069   7.513 -0.2965  0.2506 -0.3781
  880MOL0     N16078   9.307   6.131   6.857  0.2643 -0.9259 -0.2080
  880MOL0     N16079   9.336   6.085   6.740  0.2645  0.1046  0.2450
  880MOL0     C16080   9.430   5.777   5.659 -0.2841 -0.3150 -0.0467
  880MOL0     C16081   9.374   5.770   5.534  0.2919  1.0695 -0.8453
  880MOL0     C16082   9.255   5.832   5.116  1.0291 -0.7782  0.0881
  880MOL0     C16083   9.320   5.812   4.989  0.3627  0.2627 -0.1767
  880MOL0     C16084   9.255   5.847   4.866 -0.6635  0.3076 -0.3377
  880MOL0     C16085   9.129   5.892   4.870  0.5939  0.3544 -0.7714
  880MOL0     O16086   9.075   5.928   4.746 -0.1423 -0.7487 -0.4897
  880MOL0     C16087   8.959   6.005   4.725  0.1643 -0.6001  0.0408
  880MOL0     C16088   8.970   6.146   4.786  0.0255  0.2210 -0.6391
  880MOL0     C16089   9.077   6.241   4.717 -0.1107 -0.7778  0.2769
  880MOL0     C16090   9.057   6.259   4.561 -0.0230  0.0925 -0.6707
  880MOL0     C16091   8.922   6.310   4.528  0.7236  0.7059 -0.5548
  880MOL0     C16092   8.810   6.350   4.517 -0.7220  0.8636  0.0605
  880MOL0     C16093   9.059   5.905   4.983 -0.6196  0.4287 -1.4141
  880MOL0     C16094   9.124   5.877   5.105 -0.1678  0.2663  0.6957
  880MOL0     H16095   9.282   6.093   5.490 -0.7548  1.3964  1.1045
  880MOL0     H16096   9.390   6.107   5.715 -0.0578 -0.3952  0.5170
  880MOL0     H16097   9.649   6.042   5.797 -1.7557  1.2669  3.8228
  880MOL0     H16098   9.679   5.857   5.756 -3.4062  1.1005 -2.8562
  880MOL0     H16099   9.816   5.972   5.957 -0.9944  0.6179 -0.9580
  880MOL0     H16100   9.734   5.818   5.964 -1.1666 -0.0146 -0.0945
  880MOL0     H16101   9.614   6.100   6.062  0.9474  1.2089  0.0744
  880MOL0     H16102   9.730   6.022   6.157 -1.3857 -1.8718  2.3396
  880MOL0     H16103   9.453   5.916   6.091  0.9460 -0.0999 -0.8197
  880MOL0     H16104   9.567   5.819   6.181  1.2160  0.4462 -0.0278
  880MOL0     H16105   9.410   5.917   6.319 -0.5615  0.1216 -1.0256
  880MOL0     H16106   9.457   6.083   6.286  0.0028  0.3502 -1.2907
  880MOL0     H16107   9.690   6.054   6.373  0.3112 -0.2334 -0.1422
  880MOL0     H16108   9.653   5.880   6.387 -0.2102  0.4420  1.2618
  880MOL0     H16109   9.520   5.904   6.570 -1.4326  0.2263  1.1952
  880MOL0     H16110   9.654   5.998   6.596 -0.3368  1.2872  1.0513
  880MOL0     H16111   9.395   6.143   6.485  3.0729 -1.6230 -4.1165
  880MOL0     H16112   9.542   6.216   6.524 -0.7155 -0.4222  2.0077
  880MOL0     H16113   9.581   6.290   6.777  0.0765 -0.6615  0.0910
  880MOL0     H16114   9.312   6.400   6.983  0.9844  1.2069 -0.0189
  880MOL0     H16115   9.486   6.379   6.995 -0.6086  0.5322 -4.3013
  880MOL0     H16116   9.447   6.176   7.151 -0.7652 -0.7006  0.3500
  880MOL0     H16117   9.278   6.186   7.129  1.6626 -2.2037  0.2145
  880MOL0     H16118   9.484   6.348   7.270 -0.6984 -1.8401  2.4773
  880MOL0     H16119   9.336   6.444   7.219  0.0671  0.4083  0.1271
  880MOL0     H16120   9.196   6.259   7.347 -0.3357 -2.9663  2.6155
  880MOL0     H16121   9.295   6.374   7.444  0.0426 -0.5601  0.0656
  880MOL0     H16122   9.385   6.338   7.627  0.4339 -0.6178  2.4512
  880MOL0     H16123   9.515   6.269   7.836 -1.3666 -1.6739  0.5833
  880MOL0     H16124   9.795   6.382   8.088  1.5660  1.7875  2.3271
  880MOL0     H16125   9.973   6.399   8.240 -0.9247  1.8204 -2.8614
  880MOL0     H16126  10.284   6.149   8.196  0.3610  0.3407  0.6291
  880MOL0     H16127  10.275   6.064   8.343  1.0927 -1.0166 -3.9478
  880MOL0     H16128  10.367   6.276   8.475 -4.0128  0.1305 -0.5187
  880MOL0     H16129  10.398   6.346   8.313  0.9585 -1.5719 -2.7644
  880MOL0     H16130  10.548   6.160   8.270 -0.5930 -1.4245  0.6518
  880MOL0     H16131  10.518   6.104   8.438 -0.2009  0.3729  0.8466
  880MOL0     H16132  10.635   6.369   8.379  1.2836  1.0417  1.2319
  880MOL0     H16133  10.597   6.299   8.538 -1.6192 -0.2452 -1.6708
  880MOL0     H16134  10.783   6.160   8.333  0.0640 -0.4917  0.5337
  880MOL0     H16135  10.758   6.097   8.493  1.4378  0.1746  0.2448
  880MOL0     H16136  10.844   6.318   8.581 -0.9709 -5.6917  2.3232
  880MOL0     H16137  10.898   6.356   8.415 -1.3777  0.8821  0.8930
  880MOL0     H16138  10.997   6.111   8.578  0.4120 -0.0821  0.1340
  880MOL0     H16139  11.041   6.161   8.411 -2.0795  4.4741 -2.9115
  880MOL0     H16140  11.098   6.385   8.567 -2.8207  0.1544 -0.0160
  880MOL0     H16141  11.218   6.284   8.508  1.4292  0.6877  1.5198
  880MOL0     H16142  10.056   6.007   8.260  3.9913  7.3266  3.6627
  880MOL0     H16143   9.856   5.953   8.076  1.3301 -0.4796 -0.0070
  880MOL0     H16144   9.695   5.962   7.629  0.6495  0.1917  1.4050
  880MOL0     H16145   9.574   6.010   7.424  1.0045 -1.1147  0.7618
  880MOL0     H16146   9.491   5.697   5.699 -0.1660 -0.0503  0.3098
  880MOL0     H16147   9.374   5.677   5.479  1.1964  1.4704 -1.5447
  880MOL0     H16148   9.420   5.770   4.991  0.4218  0.4222  0.9298
  880MOL0     H16149   9.301   5.838   4.768  1.2304  4.2402  0.0087
  880MOL0     H16150   8.867   5.952   4.753 -1.4613  1.1263 -1.7630
  880MOL0     H16151   8.948   6.016   4.617 -1.6314  2.1667  0.4271
  880MOL0     H16152   8.871   6.190   4.772  0.1045 -0.2239 -2.9018
  880MOL0     H16153   8.999   6.156   4.891 -1.1355 -1.4440 -0.1328
  880MOL0     H16154   9.178   6.209   4.742 -0.6385 -1.9873  0.9355
  880MOL0     H16155   9.068   6.339   4.764 -1.5786 -1.4340  1.4128
  880MOL0     H16156   9.132   6.331   4.526 -1.8412  2.2730 -0.3459
  880MOL0     H16157   9.087   6.168   4.509 -1.2376 -0.9850  0.4409
  880MOL0     H16158   8.711   6.392   4.522  0.3472  3.5824  0.2965
  880MOL0     H16159   8.954   5.931   4.973  0.2727  5.5416 -0.4346
  880MOL0     H16160   9.074   5.889   5.200  3.4443 -2.0497  3.1053
  881MOL0     O16161   5.919   0.863   3.720  0.2874 -0.7885  0.1350
  881MOL0     C16162   5.877   0.745   3.735  0.6352 -0.7533  0.1490
  881MOL0     O16163   5.882   0.644   3.642  0.8622 -0.0706  0.2954
  881MOL0     C16164   5.944   0.672   3.526 -0.0164  0.5539  1.4641
  881MOL0     C16165   5.865   0.731   3.422  0.8037 -1.2553  0.8101
  881MOL0     C16166   5.928   0.780   3.311  0.5943 -0.4715  0.6192
  881MOL0     C16167   6.066   0.767   3.295 -0.4545  0.8266 -0.5364
  881MOL0     O16168   6.139   0.823   3.200 -0.9132 -0.4060 -0.1212
  881MOL0     C16169   6.067   0.870   3.088  0.3266  0.0472 -1.0634
  881MOL0     C16170   6.159   0.943   2.994 -0.9528 -0.1625  0.3597
  881MOL0     C16171   6.083   0.982   2.859 -0.0072  0.2238 -0.2175
  881MOL0     C16172   6.018   0.863   2.779  0.6600  0.2134 -0.8985
  881MOL0     C16173   5.987   0.897   2.632  0.4511 -0.5904 -0.3212
  881MOL0     C16174   6.114   0.889   2.551  0.3224 -1.0392 -0.3792
  881MOL0     C16175   6.100   0.912   2.394 -0.0563  0.0830 -0.2245
  881MOL0     C16176   6.067   1.054   2.359 -0.2201  0.6919 -0.5341
  881MOL0     N16177   6.191   1.110   2.310  0.4577 -0.9231 -0.2994
  881MOL0     C16178   6.251   1.109   2.185  0.2898  0.0181  0.3978
  881MOL0     C16179   6.353   1.188   2.200 -0.5910  0.1398 -0.8247
  881MOL0     C16180   6.446   1.223   2.088 -0.2289 -0.7718 -0.2135
  881MOL0     C16181   6.387   1.306   1.975  0.7370  0.0334  1.1827
  881MOL0     C16182   6.489   1.330   1.861  0.0432  0.4090  0.2349
  881MOL0     C16183   6.618   1.402   1.905  1.0168 -0.2148  1.1460
  881MOL0     O16184   6.597   1.508   2.009  0.7688 -0.5395  0.6595
  881MOL0     C16185   6.709   1.575   2.016 -0.5693 -0.3705 -0.3985
  881MOL0     C16186   6.712   1.705   1.981  0.8037 -0.2022 -0.7779
  881MOL0     C16187   6.834   1.776   1.978 -0.1085  0.3398  0.5022
  881MOL0     C16188   6.943   1.704   2.019  0.1377  0.0750 -0.6848
  881MOL0     C16189   7.073   1.772   2.009  1.6899  1.2193  0.2128
  881MOL0     O16190   7.068   1.888   1.945 -0.9769 -0.0955  0.1003
  881MOL0     C16191   7.190   1.940   1.899  0.5270  0.5395 -0.3154
  881MOL0     C16192   7.227   1.915   1.768  0.1068  0.1244 -0.0627
  881MOL0     C16193   7.345   1.962   1.719 -0.5633 -0.2625 -0.4770
  881MOL0     C16194   7.419   2.059   1.789 -0.1105 -0.1782 -0.0854
  881MOL0     O16195   7.537   2.112   1.742  0.3715 -0.2020  0.2568
  881MOL0     C16196   7.558   2.127   1.594  0.3082 -0.2131 -0.3284
  881MOL0     C16197   7.678   2.215   1.571 -0.6463  0.1932 -0.8663
  881MOL0     C16198   7.677   2.349   1.627 -0.3060  0.2500  0.2266
  881MOL0     C16199   7.806   2.429   1.604  0.2774 -0.4136 -0.9871
  881MOL0     C16200   7.838   2.534   1.710 -0.5744 -1.4719  0.5055
  881MOL0     C16201   7.860   2.472   1.849 -1.3329  0.1215 -0.5531
  881MOL0     C16202   7.911   2.573   1.956 -0.0729  0.5569  0.1544
  881MOL0     C16203   8.020   2.663   1.916  0.5776 -0.0406  0.0048
  881MOL0    Cl16204   8.024   2.794   2.035 -0.2584 -0.2811 -0.1876
  881MOL0     C16205   7.373   2.086   1.927 -0.6349  0.0365 -0.3822
  881MOL0     C16206   7.265   2.026   1.980 -0.1303  0.7316  0.1072
  881MOL0     O16207   7.173   1.707   2.038  0.3876 -0.1451 -0.7600
  881MOL0     C16208   6.933   1.575   2.078 -0.4335  0.4888 -0.1944
  881MOL0     C16209   6.811   1.509   2.068 -0.5012 -2.0454  0.5414
  881MOL0     N16210   6.364   1.232   2.325  0.3769 -0.6038 -0.3824
  881MOL0     N16211   6.263   1.185   2.398 -0.4555  0.1591  0.0172
  881MOL0     C16212   6.138   0.678   3.389  0.4274 -0.0473  0.8886
  881MOL0     C16213   6.078   0.643   3.508 -0.0038 -0.6360  0.2579
  881MOL0     C16214   5.825   0.725   3.865 -0.0687 -0.2422 -0.5674
  881MOL0     C16215   5.779   0.838   3.953  0.2730  0.1251  0.9677
  881MOL0     C16216   5.729   0.802   4.084  0.4806 -0.6045  0.4624
  881MOL0     C16217   5.697   0.681   4.124 -0.3124  0.5183 -0.0604
  881MOL0     O16218   5.644   0.672   4.248  0.8542 -0.2350  0.2811
  881MOL0     C16219   5.674   0.560   4.339  0.0293 -0.2469  0.8770
  881MOL0     C16220   5.610   0.584   4.472 -0.1580  0.8287 -0.2167
  881MOL0     C16221   5.457   0.599   4.487 -0.8424  1.0823  0.6890
  881MOL0     C16222   5.350   0.492   4.450 -0.9402  0.7271  0.7557
  881MOL0     C16223   5.358   0.362   4.516  0.5901 -0.0986 -0.5506
  881MOL0     C16224   5.344   0.254   4.561 -0.1556 -0.7464 -0.0162
  881MOL0     C16225   5.726   0.571   4.040  0.0574  0.2909 -0.3151
  881MOL0     C16226   5.785   0.600   3.919  0.1353  0.6578  0.3221
  881MOL0     H16227   5.759   0.754   3.427  0.3964 -1.3243 -3.7552
  881MOL0     H16228   5.867   0.827   3.234  1.7437  2.3476  1.3181
  881MOL0     H16229   5.984   0.936   3.113  0.3341  0.0674 -1.0917
  881MOL0     H16230   6.026   0.787   3.031 -0.3780 -0.8921  0.7501
  881MOL0     H16231   6.240   0.876   2.964 -0.8251  0.2678 -0.2716
  881MOL0     H16232   6.200   1.026   3.052 -3.6125 -0.3824  2.7985
  881MOL0     H16233   6.149   1.030   2.786 -0.6737  2.3860  0.5172
  881MOL0     H16234   6.019   1.066   2.886 -1.1380 -0.4516 -0.7315
  881MOL0     H16235   6.076   0.773   2.799 -2.8997 -1.6860  1.9983
  881MOL0     H16236   5.923   0.836   2.826 -0.2977  1.2257 -2.1490
  881MOL0     H16237   5.934   0.992   2.624  2.0795  0.2916 -1.0367
  881MOL0     H16238   5.919   0.821   2.593  2.4086 -2.4184 -0.3817
  881MOL0     H16239   6.149   0.787   2.572 -1.5345 -1.4753  0.8025
  881MOL0     H16240   6.180   0.966   2.593 -1.4080  0.9488 -1.1203
  881MOL0     H16241   6.189   0.871   2.346 -0.4456 -0.8994 -0.1244
  881MOL0     H16242   6.021   0.841   2.369 -0.1595  0.4210 -0.8943
  881MOL0     H16243   6.026   1.101   2.448 -1.0301 -1.4850  0.3106
  881MOL0     H16244   5.991   1.045   2.280 -0.5939  1.6432 -0.2981
  881MOL0     H16245   6.222   1.065   2.091  0.9746  0.5559 -0.0722
  881MOL0     H16246   6.478   1.127   2.045  0.2097 -1.6540  1.9341
  881MOL0     H16247   6.528   1.276   2.136 -0.4188  1.1418 -1.8765
  881MOL0     H16248   6.350   1.399   2.018 -1.4822 -0.8727  1.3846
  881MOL0     H16249   6.307   1.238   1.943 -0.8760  1.2578  2.4715
  881MOL0     H16250   6.521   1.233   1.821  2.0459  0.2111  2.1029
  881MOL0     H16251   6.443   1.377   1.774  1.7268 -1.5909 -1.8511
  881MOL0     H16252   6.667   1.437   1.813 -0.9089 -0.8324 -0.1999
  881MOL0     H16253   6.676   1.314   1.933  3.9930  1.7709  1.5603
  881MOL0     H16254   6.619   1.750   1.946  0.8241  0.3440 -0.1654
  881MOL0     H16255   6.841   1.879   1.944 -2.4810  0.5916  0.5862
  881MOL0     H16256   7.176   1.845   1.703 -0.7866  0.6115  0.0823
  881MOL0     H16257   7.375   1.925   1.622 -2.4027  0.4823 -1.3590
  881MOL0     H16258   7.471   2.163   1.537  2.1047  0.3843 -2.8835
  881MOL0     H16259   7.581   2.028   1.553  2.9414 -0.1831  0.8778
  881MOL0     H16260   7.709   2.205   1.466  0.7714 -3.8617 -0.2324
  881MOL0     H16261   7.756   2.168   1.632 -1.2287  2.5474  1.9028
  881MOL0     H16262   7.630   2.358   1.726 -0.5716  2.1293 -0.0265
  881MOL0     H16263   7.600   2.397   1.567  1.3869  0.7098 -1.6902
  881MOL0     H16264   7.897   2.369   1.612  2.5690  2.9598  0.3931
  881MOL0     H16265   7.814   2.486   1.512  4.8693  3.0601  1.1566
  881MOL0     H16266   7.766   2.617   1.711  1.3143  0.2540 -0.6413
  881MOL0     H16267   7.927   2.587   1.676 -2.7495  1.5078 -1.0815
  881MOL0     H16268   7.938   2.397   1.838  2.7765  3.9633 -0.4768
  881MOL0     H16269   7.767   2.430   1.888 -1.2155  0.9499  0.6683
  881MOL0     H16270   7.828   2.636   1.987 -0.5999  1.2110 -2.3540
  881MOL0     H16271   7.958   2.517   2.037 -0.5273  2.5295  1.8554
  881MOL0     H16272   8.014   2.697   1.812 -0.8309 -2.1363 -0.6534
  881MOL0     H16273   8.116   2.611   1.912  2.4949  3.2332 -1.1213
  881MOL0     H16274   7.427   2.154   1.992 -1.3651 -0.4366  0.7319
  881MOL0     H16275   7.243   2.050   2.084 -1.4611  0.7426 -0.1567
  881MOL0     H16276   7.026   1.527   2.109 -0.8279 -1.3975 -1.7021
  881MOL0     H16277   6.799   1.408   2.108 -0.1933 -1.0086  3.4813
  881MOL0     H16278   6.244   0.663   3.368  0.5888  0.5533  1.2666
  881MOL0     H16279   6.142   0.592   3.579  1.1735 -1.7993 -1.5337
  881MOL0     H16280   5.788   0.937   3.910  0.6070  0.0609  0.8845
  881MOL0     H16281   5.720   0.889   4.148  2.5108  1.3789 -1.7500
  881MOL0     H16282   5.781   0.545   4.360 -0.0147  1.4939  2.6679
  881MOL0     H16283   5.643   0.465   4.294  1.5904 -0.1053 -0.6308
  881MOL0     H16284   5.638   0.504   4.542 -0.2367  1.7189  0.8608
  881MOL0     H16285   5.643   0.678   4.516 -0.3388  2.5272 -3.4580
  881MOL0     H16286   5.420   0.684   4.429 -1.7720 -0.1279 -0.5565
  881MOL0     H16287   5.434   0.625   4.591  1.5274  2.3548  0.9537
  881MOL0     H16288   5.253   0.532   4.478 -1.6262 -1.2561  1.3850
  881MOL0     H16289   5.366   0.490   4.342  1.4355 -0.7729  1.0470
  881MOL0     H16290   5.337   0.155   4.604 -3.5209 -1.1883 -1.2709
  881MOL0     H16291   5.702   0.468   4.062 -0.8840  0.8538  1.5893
  881MOL0     H16292   5.799   0.509   3.862 -2.2225 -3.1268  5.0850
  882MOL0     O16293   2.639   2.006   4.604 -0.6263  0.0095  0.5517
  882MOL0     C16294   2.534   2.049   4.643 -0.5680  0.0137 -0.3471
  882MOL0     O16295   2.514   2.174   4.675  0.0184 -0.6056  0.4124
  882MOL0     C16296   2.603   2.259   4.736  0.4041 -0.3212  0.2639
  882MOL0     C16297   2.560   2.391   4.750  0.1254 -0.0525 -0.2499
  882MOL0     C16298   2.634   2.488   4.804 -0.7101 -0.1005 -0.5811
  882MOL0     C16299   2.773   2.464   4.838  0.4430 -0.2236  0.1522
  882MOL0     O16300   2.860   2.568   4.879 -0.1224 -0.0266  0.5059
  882MOL0     C16301   2.868   2.590   5.022 -0.8814 -0.8322 -0.1093
  882MOL0     C16302   2.745   2.658   5.062  0.5663 -0.4590  0.1891
  882MOL0     C16303   2.751   2.729   5.195 -0.4122 -0.3297  0.4209
  882MOL0     C16304   2.611   2.775   5.231 -0.4132  0.1248  0.3523
  882MOL0     C16305   2.613   2.821   5.389  0.7389  0.2304  1.1919
  882MOL0     C16306   2.662   2.968   5.389 -0.1636  0.6703 -0.2104
  882MOL0     C16307   2.630   3.034   5.522  0.1794  0.0701 -0.2849
  882MOL0     C16308   2.718   3.145   5.571 -0.3828 -0.0504  0.7137
  882MOL0     N16309   2.709   3.271   5.498  0.0706  0.8243  0.5526
  882MOL0     C16310   2.792   3.384   5.500 -0.5517  0.4900 -0.3367
  882MOL0     C16311   2.742   3.481   5.413  0.0871  0.8144 -0.7062
  882MOL0     C16312   2.792   3.613   5.375 -0.4723  0.5554  0.6231
  882MOL0     C16313   2.941   3.639   5.391  0.3689  0.3787  0.7908
  882MOL0     C16314   3.009   3.561   5.281 -0.5501 -0.9769 -0.0056
  882MOL0     C16315   3.153   3.531   5.326  0.7213 -0.1565 -0.1290
  882MOL0     O16316   3.223   3.653   5.309 -0.1325  0.3921 -0.6329
  882MOL0     C16317   3.357   3.646   5.309  0.0948  0.0887  0.0786
  882MOL0     C16318   3.441   3.706   5.215  0.6823 -0.6044 -0.4069
  882MOL0     C16319   3.581   3.682   5.219 -0.0697  1.0922  0.1177
  882MOL0     C16320   3.643   3.622   5.328  0.2566  0.1441 -1.4202
  882MOL0     C16321   3.790   3.610   5.331 -0.4025 -0.4317  0.9898
  882MOL0     O16322   3.835   3.580   5.457  0.0107  0.1420  0.3895
  882MOL0     C16323   3.968   3.571   5.495 -0.0031 -0.3481 -0.1075
  882MOL0     C16324   3.985   3.586   5.634 -0.3228  0.7978  0.0344
  882MOL0     C16325   4.116   3.563   5.684  1.2423 -0.5783 -0.0195
  882MOL0     C16326   4.228   3.551   5.603  0.8277  0.4977  0.7511
  882MOL0     O16327   4.349   3.535   5.660 -0.6221  0.3717 -0.0470
  882MOL0     C16328   4.406   3.400   5.671  0.2444 -0.0182 -0.6605
  882MOL0     C16329   4.546   3.417   5.718 -0.5593 -0.1239 -1.1780
  882MOL0     C16330   4.565   3.493   5.854 -0.1888  0.5797 -0.5239
  882MOL0     C16331   4.698   3.451   5.907 -0.2596  0.4762  0.2285
  882MOL0     C16332   4.728   3.513   6.048  0.4634  1.1365  0.0372
  882MOL0     C16333   4.735   3.659   6.043  0.5360 -0.2896 -0.0412
  882MOL0     C16334   4.791   3.731   6.167 -0.0098  0.2594  0.5706
  882MOL0     C16335   4.688   3.815   6.228  1.0336  0.6334  0.2248
  882MOL0    Cl16336   4.761   3.868   6.379 -0.2911  0.4310 -0.3622
  882MOL0     C16337   4.205   3.542   5.465 -0.2049  0.2132  0.2483
  882MOL0     C16338   4.078   3.546   5.409 -0.7949  1.0374 -0.4183
  882MOL0     O16339   3.856   3.633   5.231 -0.2675 -0.5388 -0.4856
  882MOL0     C16340   3.555   3.570   5.433  0.0106 -0.4524 -0.2791
  882MOL0     C16341   3.419   3.579   5.418  0.1204 -0.0851 -0.2932
  882MOL0     N16342   2.616   3.431   5.373 -0.2808  0.1787 -0.7496
  882MOL0     N16343   2.602   3.303   5.413 -1.1830 -0.2292 -0.6398
  882MOL0     C16344   2.824   2.332   4.830  0.9716  0.4529 -1.5213
  882MOL0     C16345   2.732   2.230   4.780  0.5461  0.1384 -0.8562
  882MOL0     C16346   2.415   1.962   4.628  0.4679  0.3920  0.1601
  882MOL0     C16347   2.433   1.822   4.603  0.9770  0.0322 -0.2739
  882MOL0     C16348   2.323   1.749   4.560  0.0166  0.0811  0.3594
  882MOL0     C16349   2.194   1.797   4.556 -0.2932  0.0100 -0.9217
  882MOL0     O16350   2.093   1.714   4.502 -0.1524 -0.5529 -1.1314
  882MOL0     C16351   1.976   1.784   4.454  0.6512 -0.3467  0.7526
  882MOL0     C16352   1.870   1.675   4.439  0.0931 -1.8035 -0.1794
  882MOL0     C16353   1.874   1.625   4.293  0.2197  0.0059 -0.0686
  882MOL0     C16354   1.804   1.490   4.289 -0.3577 -0.5192  0.2617
  882MOL0     C16355   1.660   1.504   4.278  0.5944 -0.1309 -0.2883
  882MOL0     C16356   1.543   1.524   4.268  0.0140  1.0980  0.9791
  882MOL0     C16357   2.178   1.931   4.579 -0.6966 -0.0652 -0.3525
  882MOL0     C16358   2.285   2.013   4.623 -0.3292 -1.4055 -0.0477
  882MOL0     H16359   2.459   2.425   4.731 -0.0739 -0.3565  0.2614
  882MOL0     H16360   2.602   2.590   4.820  3.9632  1.4549  0.6015
  882MOL0     H16361   2.958   2.642   5.056 -0.6260 -1.4372  0.1511
  882MOL0     H16362   2.880   2.492   5.068  0.1035 -0.3617  0.6583
  882MOL0     H16363   2.660   2.589   5.065 -0.4833  0.6887 -1.5375
  882MOL0     H16364   2.733   2.736   4.986  0.7830 -2.2950 -1.8091
  882MOL0     H16365   2.831   2.804   5.200  1.0598 -1.8599  1.0372
  882MOL0     H16366   2.787   2.656   5.269  1.1385  0.7616  0.7927
  882MOL0     H16367   2.593   2.864   5.169 -2.2808 -1.8748 -2.1961
  882MOL0     H16368   2.533   2.702   5.207  0.1446 -1.0455  1.9393
  882MOL0     H16369   2.667   2.755   5.457  1.2118 -0.7082 -0.0517
  882MOL0     H16370   2.513   2.827   5.432  0.7777  3.1341  1.0810
  882MOL0     H16371   2.637   3.031   5.303 -0.1514 -1.7151 -2.0730
  882MOL0     H16372   2.772   2.966   5.391 -0.1487 -1.6534 -0.6265
  882MOL0     H16373   2.526   3.063   5.535 -0.4023 -2.2301  0.7798
  882MOL0     H16374   2.638   2.954   5.596  1.6833 -1.9689 -2.4688
  882MOL0     H16375   2.818   3.103   5.553  0.4116  2.6989 -2.2513
  882MOL0     H16376   2.700   3.172   5.675  0.0323  0.0843  0.7540
  882MOL0     H16377   2.891   3.381   5.545 -0.3534 -1.5316 -0.8214
  882MOL0     H16378   2.741   3.682   5.444  0.0987  0.5139  1.0977
  882MOL0     H16379   2.749   3.646   5.280 -1.2520  1.4735  1.2763
  882MOL0     H16380   2.971   3.626   5.496 -2.5166  0.5319  1.7322
  882MOL0     H16381   2.977   3.742   5.380 -3.2305  1.7585  0.5532
  882MOL0     H16382   2.967   3.463   5.256 -2.3623  0.0394 -1.1408
  882MOL0     H16383   2.998   3.598   5.179 -1.0419 -4.6535 -1.4491
  882MOL0     H16384   3.203   3.457   5.263  1.7836  1.0726 -0.7880
  882MOL0     H16385   3.158   3.479   5.422 -0.9244  0.1042  0.1167
  882MOL0     H16386   3.403   3.768   5.134  2.7809  3.5890  1.5036
  882MOL0     H16387   3.641   3.727   5.140  2.6681  1.7260  2.4163
  882MOL0     H16388   3.895   3.594   5.695 -2.0753 -0.6171 -2.1693
  882MOL0     H16389   4.133   3.577   5.790  0.6729  1.6925 -0.1781
  882MOL0     H16390   4.393   3.341   5.579 -3.4342  1.6701 -1.4476
  882MOL0     H16391   4.351   3.342   5.745  1.3103  0.2534  0.3553
  882MOL0     H16392   4.600   3.473   5.641  0.2749  2.9896  1.4220
  882MOL0     H16393   4.597   3.321   5.725 -0.3344  0.1116  3.1068
  882MOL0     H16394   4.482   3.456   5.915 -1.4861 -1.0386 -3.0653
  882MOL0     H16395   4.560   3.601   5.835 -1.0729  0.9819  1.7089
  882MOL0     H16396   4.683   3.343   5.912 -1.6493  0.4226 -2.9347
  882MOL0     H16397   4.784   3.451   5.840  0.2059  0.2380  0.8232
  882MOL0     H16398   4.824   3.475   6.083 -0.5909 -1.4412  0.3934
  882MOL0     H16399   4.657   3.470   6.119 -0.7139  0.1186 -1.6518
  882MOL0     H16400   4.636   3.701   6.025 -1.5600 -2.9292  3.8309
  882MOL0     H16401   4.789   3.684   5.951  0.8198 -2.7759 -0.6141
  882MOL0     H16402   4.846   3.673   6.241 -3.3148 -0.2325  2.8648
  882MOL0     H16403   4.870   3.794   6.125 -0.9824  0.2058 -1.4600
  882MOL0     H16404   4.598   3.758   6.251  0.8530  1.6151  2.2152
  882MOL0     H16405   4.673   3.894   6.154 -3.4201  0.2540  0.4437
  882MOL0     H16406   4.293   3.533   5.402 -0.5479 -2.4398  0.0225
  882MOL0     H16407   4.068   3.541   5.302 -1.2686  1.5725 -0.4050
  882MOL0     H16408   3.585   3.507   5.517 -0.6600 -4.0563 -2.5033
  882MOL0     H16409   3.354   3.530   5.490 -0.2045 -2.0040 -1.8129
  882MOL0     H16410   2.928   2.321   4.858  0.9670  1.0408 -1.2695
  882MOL0     H16411   2.761   2.125   4.783  0.9265  0.1778  3.3823
  882MOL0     H16412   2.534   1.784   4.611  1.1384  0.6166  0.5246
  882MOL0     H16413   2.348   1.646   4.535 -4.3153 -0.6281 -1.9635
  882MOL0     H16414   2.000   1.834   4.359  1.3046 -0.8419  0.6476
  882MOL0     H16415   1.932   1.860   4.519 -0.4128 -0.0234 -0.2969
  882MOL0     H16416   1.895   1.591   4.506  1.4392 -0.3095  1.2863
  882MOL0     H16417   1.769   1.709   4.461 -0.4535 -2.4085 -1.6440
  882MOL0     H16418   1.977   1.615   4.258  0.1377 -0.3581 -0.2140
  882MOL0     H16419   1.829   1.692   4.220  1.9520  0.0735 -1.1351
  882MOL0     H16420   1.839   1.430   4.205  1.6920  1.8022 -0.6761
  882MOL0     H16421   1.819   1.437   4.384 -1.5234  1.8227  1.8757
  882MOL0     H16422   1.443   1.560   4.259  0.0351  0.6087 -2.0537
  882MOL0     H16423   2.079   1.974   4.588  0.0338  2.1890 -2.0306
  882MOL0     H16424   2.276   2.117   4.654  0.6998 -1.3725  0.1729
  883MOL0     O16425  11.315   0.540   7.161 -0.6903  0.4918 -0.7507
  883MOL0     C16426  11.233   0.615   7.213  0.0636  0.6309  0.4784
  883MOL0     O16427  11.101   0.583   7.227 -0.2104 -0.0564 -0.0340
  883MOL0     C16428  11.059   0.462   7.172  0.7027 -0.0077  0.6263
  883MOL0     C16429  11.112   0.336   7.203 -0.2238  0.9620 -0.0183
  883MOL0     C16430  11.064   0.215   7.154  0.9267 -0.6263 -0.4947
  883MOL0     C16431  10.946   0.212   7.077  0.5925  0.1208 -1.3379
  883MOL0     O16432  10.895   0.113   7.000 -0.1449 -0.3040  0.1442
  883MOL0     C16433  10.963  -0.013   6.983  0.8539  0.5020  0.6634
  883MOL0     C16434  10.874  -0.095   6.892 -0.4008  0.3084  0.0258
  883MOL0     C16435  10.724  -0.111   6.929 -0.3019 -0.7729  1.1080
  883MOL0     C16436  10.653  -0.005   6.866  0.4851  0.0095  0.8462
  883MOL0     C16437  10.508  -0.029   6.901 -0.0033  0.7193 -0.6526
  883MOL0     C16438  10.412   0.065   6.840  0.5155  0.5404 -0.1100
  883MOL0     C16439  10.429   0.204   6.894 -0.0584 -0.1365  0.8300
  883MOL0     C16440  10.301   0.295   6.869 -0.5118 -0.4441  0.4881
  883MOL0     N16441  10.319   0.429   6.936  0.2578  0.2985 -0.9650
  883MOL0     C16442  10.294   0.463   7.061 -0.2420 -0.6015  0.0371
  883MOL0     C16443  10.322   0.597   7.071  0.4767 -1.5975 -0.2309
  883MOL0     C16444  10.305   0.674   7.198  0.1069  0.3680  0.0706
  883MOL0     C16445  10.396   0.627   7.304 -0.1713 -0.0441 -0.4780
  883MOL0     C16446  10.547   0.651   7.262  0.1974  0.7374  0.4843
  883MOL0     C16447  10.649   0.575   7.354  0.6878  0.1236  1.0191
  883MOL0     O16448  10.633   0.633   7.486 -0.1611 -0.0660  0.0159
  883MOL0     C16449  10.756   0.647   7.565 -0.1818 -0.4399  0.4269
  883MOL0     C16450  10.836   0.758   7.540 -0.7584 -0.0489 -0.5629
  883MOL0     C16451  10.963   0.784   7.611  0.6950 -0.5019 -0.7969
  883MOL0     C16452  11.028   0.687   7.687 -0.4834 -0.2981 -0.0596
  883MOL0     C16453  11.152   0.702   7.761  0.1856 -1.1679  0.4997
  883MOL0     O16454  11.225   0.809   7.709 -0.0871  0.1429  0.7300
  883MOL0     C16455  11.353   0.837   7.756 -0.1906  0.1193 -0.1479
  883MOL0     C16456  11.455   0.741   7.785  0.2588  0.4044  0.4362
  883MOL0     C16457  11.579   0.780   7.832 -0.6022 -0.4158 -1.1460
  883MOL0     C16458  11.605   0.923   7.819 -0.8492 -1.5692  0.3218
  883MOL0     O16459  11.727   0.970   7.861 -0.0627  1.0962  0.0007
  883MOL0     C16460  11.734   1.107   7.901 -0.1089  0.0282  0.0485
  883MOL0     C16461  11.851   1.121   7.999  0.5868 -0.0744 -0.4904
  883MOL0     C16462  11.986   1.087   7.929  1.0670 -0.4493 -0.1493
  883MOL0     C16463  12.092   1.089   8.034 -0.4060  1.0175 -1.7111
  883MOL0     C16464  12.235   1.070   7.986  0.0787  1.6627  0.4858
  883MOL0     C16465  12.341   1.079   8.102  0.5185  0.5122 -0.5399
  883MOL0     C16466  12.477   1.057   8.051 -0.6434  0.5971 -0.0240
  883MOL0     C16467  12.575   1.075   8.163 -1.0597  0.1987 -0.5895
  883MOL0    Cl16468  12.606   1.251   8.202  0.3092  0.8306 -0.0718
  883MOL0     C16469  11.513   1.013   7.775  0.5758 -0.1143  0.1066
  883MOL0     C16470  11.379   0.976   7.760  0.0816  1.0794  0.2257
  883MOL0     O16471  11.184   0.637   7.856 -0.0507 -0.4151  0.4523
  883MOL0     C16472  10.945   0.572   7.711  0.0020 -0.9151  0.5171
  883MOL0     C16473  10.813   0.557   7.665  0.2903  0.1344 -0.2491
  883MOL0     N16474  10.385   0.637   6.957 -0.4877 -0.0397  0.3031
  883MOL0     N16475  10.366   0.539   6.866  0.2386  0.3560 -0.2943
  883MOL0     C16476  10.896   0.342   7.046  1.7268 -0.1046  0.0226
  883MOL0     C16477  10.944   0.464   7.095  0.4562 -0.8800 -0.4439
  883MOL0     C16478  11.277   0.742   7.252  0.8992 -1.0161  0.1192
  883MOL0     C16479  11.223   0.812   7.365 -0.2757 -0.3897  0.7354
  883MOL0     C16480  11.304   0.918   7.420 -0.0493  0.2450  0.1053
  883MOL0     C16481  11.419   0.961   7.356 -0.0151 -0.3994  0.5156
  883MOL0     O16482  11.490   1.058   7.419  0.5169 -0.1604  0.8535
  883MOL0     C16483  11.583   1.136   7.352 -0.6638 -1.2653  0.1908
  883MOL0     C16484  11.721   1.088   7.360 -0.1092 -0.1808  0.1381
  883MOL0     C16485  11.744   1.089   7.512 -0.6858  0.0389 -0.9162
  883MOL0     C16486  11.886   1.027   7.545 -0.6235  0.1308  0.5551
  883MOL0     C16487  11.995   1.101   7.484  0.3145 -0.3456  0.8812
  883MOL0     C16488  12.074   1.168   7.434 -0.2719 -0.4260  0.1444
  883MOL0     C16489  11.455   0.899   7.230 -0.7311 -0.7284  0.1033
  883MOL0     C16490  11.382   0.792   7.181  0.1961 -0.3898 -0.0775
  883MOL0     H16491  11.200   0.314   7.263 -1.2118 -2.8134  0.3180
  883MOL0     H16492  11.120   0.128   7.185  1.1914 -0.2105  0.2060
  883MOL0     H16493  10.977  -0.060   7.080 -0.1046  2.5857  1.8702
  883MOL0     H16494  11.063   0.008   6.944  1.0836  1.7975  1.8815
  883MOL0     H16495  10.917  -0.195   6.898 -1.1361  0.0704  2.6984
  883MOL0     H16496  10.901  -0.048   6.797  3.3850  1.3389  1.4181
  883MOL0     H16497  10.709  -0.115   7.038 -1.1525 -0.4664  1.0064
  883MOL0     H16498  10.692  -0.205   6.883  0.8814  0.4236 -2.4298
  883MOL0     H16499  10.682   0.095   6.900  0.7005 -0.2884  1.5538
  883MOL0     H16500  10.670  -0.007   6.758  3.5923  0.6276  1.2479
  883MOL0     H16501  10.491  -0.037   7.009 -5.9472 -6.0757 -1.2976
  883MOL0     H16502  10.484  -0.125   6.854 -0.8892  1.8427 -2.6326
  883MOL0     H16503  10.310   0.036   6.866  0.8785 -0.3798  0.3274
  883MOL0     H16504  10.411   0.055   6.731  0.0428 -1.1904  0.0255
  883MOL0     H16505  10.456   0.203   7.000  1.9910  2.0003  0.4234
  883MOL0     H16506  10.513   0.259   6.849  0.4944  0.4608  2.5110
  883MOL0     H16507  10.216   0.242   6.914  0.7197  0.6852  4.6861
  883MOL0     H16508  10.281   0.299   6.762 -1.8850  1.4927  0.7520
  883MOL0     H16509  10.263   0.406   7.148  2.1747  1.1182  2.2088
  883MOL0     H16510  10.204   0.639   7.220  0.3767 -0.5003 -0.0609
  883MOL0     H16511  10.302   0.783   7.188  0.5369  0.3797  0.0698
  883MOL0     H16512  10.387   0.519   7.321  0.8418 -0.0468  0.1515
  883MOL0     H16513  10.369   0.683   7.394 -2.5904  0.0662 -1.2135
  883MOL0     H16514  10.563   0.609   7.163 -0.8101  5.2479 -1.8717
  883MOL0     H16515  10.575   0.757   7.273 -1.6075  1.3059 -0.1256
  883MOL0     H16516  10.755   0.587   7.328  0.6760 -0.9921  0.4273
  883MOL0     H16517  10.637   0.467   7.344 -0.6683  0.4268 -1.2089
  883MOL0     H16518  10.806   0.839   7.475  0.0043 -0.3654 -1.3364
  883MOL0     H16519  11.005   0.883   7.591 -2.2772  0.7105 -1.5891
  883MOL0     H16520  11.439   0.634   7.786 -0.0094  0.4482  0.9961
  883MOL0     H16521  11.655   0.712   7.870  1.0514  0.8136 -2.0888
  883MOL0     H16522  11.641   1.146   7.944 -1.3454 -0.8754 -1.7131
  883MOL0     H16523  11.758   1.175   7.819  0.3825 -1.7094 -1.3117
  883MOL0     H16524  11.829   1.051   8.080 -1.3689 -3.2901 -3.5641
  883MOL0     H16525  11.835   1.219   8.045 -2.5560 -0.8406  0.3204
  883MOL0     H16526  12.006   1.161   7.851  4.4381 -0.7649  0.2829
  883MOL0     H16527  11.982   0.989   7.881  0.6559 -1.2116  1.3783
  883MOL0     H16528  12.091   1.178   8.097  1.3737 -0.0224 -0.1056
  883MOL0     H16529  12.065   1.014   8.109  0.3802  0.3171 -2.1202
  883MOL0     H16530  12.264   1.138   7.905 -0.9608 -0.2738 -1.5980
  883MOL0     H16531  12.249   0.973   7.938 -0.2530  0.3356  2.9101
  883MOL0     H16532  12.315   1.014   8.186 -0.0844 -1.3006 -2.0660
  883MOL0     H16533  12.347   1.183   8.136 -0.8175 -0.0513  1.6057
  883MOL0     H16534  12.498   0.971   7.988  2.9377  0.3630  1.2921
  883MOL0     H16535  12.498   1.145   7.990  0.2329 -0.1407 -0.8156
  883MOL0     H16536  12.671   1.032   8.134 -0.2940  0.8565  0.8730
  883MOL0     H16537  12.544   1.022   8.253  0.2516  0.4252  0.0237
  883MOL0     H16538  11.542   1.118   7.770  0.1206  0.0892  1.5486
  883MOL0     H16539  11.299   1.044   7.731  1.7397  3.1697  0.3376
  883MOL0     H16540  10.979   0.489   7.772 -1.7102 -0.4786  2.1837
  883MOL0     H16541  10.752   0.473   7.697  0.4165 -0.3567 -1.2684
  883MOL0     H16542  10.808   0.338   6.983  4.5919  4.2117 -5.0673
  883MOL0     H16543  10.918   0.567   7.074  2.8216 -0.5399 -2.1223
  883MOL0     H16544  11.127   0.789   7.410 -2.4872  1.2973 -2.7162
  883MOL0     H16545  11.276   0.982   7.503  0.9249  3.3888 -1.7864
  883MOL0     H16546  11.570   1.232   7.401 -0.2241 -0.5636 -1.0241
  883MOL0     H16547  11.560   1.157   7.247  1.1228  2.3761  0.4009
  883MOL0     H16548  11.724   0.988   7.316  0.5312 -0.1633  0.1320
  883MOL0     H16549  11.790   1.156   7.308  0.2089  0.0823  0.8926
  883MOL0     H16550  11.677   1.012   7.550  2.5659 -2.3631  0.4628
  883MOL0     H16551  11.736   1.194   7.543  4.3364  1.2983 -2.8036
  883MOL0     H16552  11.889   1.021   7.654  2.8935  0.7880  0.6029
  883MOL0     H16553  11.896   0.925   7.506  3.5365  0.7253 -0.3737
  883MOL0     H16554  12.142   1.226   7.374  4.1380 -3.0081  2.0975
  883MOL0     H16555  11.545   0.928   7.177 -0.4101  1.0776  1.5468
  883MOL0     H16556  11.406   0.747   7.085  0.3906  1.2415 -0.8161
  884MOL0     O16557  10.662   7.979   8.238  0.5047  0.4530  0.5207
  884MOL0     C16558  10.718   8.055   8.153  0.8134 -1.2480  0.9672
  884MOL0     O16559  10.704   8.188   8.139  0.2163 -0.4188 -0.2497
  884MOL0     C16560  10.637   8.246   8.243 -0.3378 -0.0760 -0.2628
  884MOL0     C16561  10.708   8.312   8.338  0.7744 -0.0492 -0.2116
  884MOL0     C16562  10.642   8.367   8.447  0.4331  0.1272  0.5663
  884MOL0     C16563  10.496   8.356   8.462  0.4401 -0.5069  0.0302
  884MOL0     O16564  10.448   8.406   8.577  0.9061 -0.3927  0.0411
  884MOL0     C16565  10.303   8.391   8.600 -0.3925 -0.8572  0.2618
  884MOL0     C16566  10.261   8.443   8.742  0.6885 -0.9195  0.1658
  884MOL0     C16567  10.333   8.361   8.844 -0.6123 -0.3388 -0.4505
  884MOL0     C16568  10.294   8.412   8.979  0.1081  0.1592  0.0374
  884MOL0     C16569  10.351   8.336   9.094 -1.0234  0.2975  0.5715
  884MOL0     C16570  10.250   8.307   9.208 -0.3291 -0.1642  0.2334
  884MOL0     C16571  10.228   8.446   9.283  0.1788  0.0631  0.5285
  884MOL0     C16572  10.118   8.429   9.387  0.1371 -0.7900 -0.4382
  884MOL0     N16573   9.986   8.413   9.332  0.4052 -0.1351  0.3816
  884MOL0     C16574   9.918   8.495   9.243  0.3248  0.0158 -0.2466
  884MOL0     C16575   9.803   8.438   9.213  0.4526 -0.5230  0.5344
  884MOL0     C16576   9.694   8.494   9.110 -0.8072  0.1510 -0.7510
  884MOL0     C16577   9.755   8.601   9.014  0.7826 -0.2208 -0.3876
  884MOL0     C16578   9.876   8.561   8.926  0.3684 -0.1810  0.5519
  884MOL0     C16579   9.915   8.671   8.837 -0.5568 -0.2885 -0.0674
  884MOL0     O16580   9.953   8.786   8.915  0.6923  0.1725 -0.6708
  884MOL0     C16581  10.002   8.885   8.840 -0.8936  0.2035  0.1114
  884MOL0     C16582  10.033   8.999   8.917  0.6635 -0.3616  0.3473
  884MOL0     C16583  10.080   9.112   8.850  0.6414 -0.5641 -0.7968
  884MOL0     C16584  10.115   9.112   8.716  0.0018 -0.5320  0.2027
  884MOL0     C16585  10.189   9.232   8.660 -0.0568  0.0321 -0.5216
  884MOL0     O16586  10.164   9.353   8.714  0.6738 -0.0874 -0.3920
  884MOL0     C16587  10.268   9.437   8.702 -0.5267 -0.1856  0.8674
  884MOL0     C16588  10.256   9.524   8.594 -0.8346 -0.3142  0.6329
  884MOL0     C16589  10.352   9.628   8.575  0.4542  0.4599  0.4591
  884MOL0     C16590  10.459   9.647   8.664 -0.4450  0.0542  0.5772
  884MOL0     O16591  10.554   9.742   8.631  0.0547  0.3211 -0.0442
  884MOL0     C16592  10.549   9.868   8.702 -0.4144  0.6311  1.3915
  884MOL0     C16593  10.677   9.951   8.668 -0.0891 -0.2109 -0.5987
  884MOL0     C16594  10.700  10.074   8.761 -0.1588 -0.7422  0.4813
  884MOL0     C16595  10.834  10.145   8.728  0.3721 -0.4435  0.4332
  884MOL0     C16596  10.856  10.240   8.848 -2.2222 -0.3261  0.6884
  884MOL0     C16597  10.739  10.322   8.887 -0.8192  0.6847 -0.5425
  884MOL0     C16598  10.788  10.409   8.995  0.5025  0.5316  0.4784
  884MOL0     C16599  10.845  10.350   9.124 -0.7658 -0.1007 -1.0575
  884MOL0    Cl16600  10.716  10.388   9.255 -0.1887 -0.1814  0.0840
  884MOL0     C16601  10.463   9.555   8.776 -0.3609  0.1312 -0.8445
  884MOL0     C16602  10.365   9.459   8.798  0.0070  0.2195 -0.0231
  884MOL0     O16603  10.282   9.195   8.587  0.1000 -0.3336  0.5459
  884MOL0     C16604  10.092   9.001   8.636 -0.9849  0.8140  0.4096
  884MOL0     C16605  10.034   8.886   8.698  0.4285 -0.3980  0.2967
  884MOL0     N16606   9.797   8.316   9.281  0.6726 -0.7716  0.2757
  884MOL0     N16607   9.904   8.308   9.350  0.3110 -0.4567 -0.0838
  884MOL0     C16608  10.431   8.294   8.356  0.8236 -0.1926 -0.5314
  884MOL0     C16609  10.496   8.234   8.249  0.3177  0.3645  0.0030
  884MOL0     C16610  10.810   7.998   8.056  0.2468 -0.1197 -0.2851
  884MOL0     C16611  10.825   7.855   8.063 -0.8880  0.2048 -0.5923
  884MOL0     C16612  10.910   7.802   7.967  0.3739  0.5306  0.5803
  884MOL0     C16613  10.987   7.876   7.876  0.4419  0.3009  0.6785
  884MOL0     O16614  11.057   7.814   7.774 -0.1700 -0.0707  0.2381
  884MOL0     C16615  11.082   7.670   7.772  0.0373 -0.3580  0.3176
  884MOL0     C16616  11.193   7.632   7.870  0.0774 -0.0714 -0.4946
  884MOL0     C16617  11.338   7.679   7.826 -0.0041 -0.0464 -0.3562
  884MOL0     C16618  11.377   7.603   7.693 -0.2235  0.9597 -0.3180
  884MOL0     C16619  11.397   7.459   7.723 -1.0418  0.1615 -0.3009
  884MOL0     C16620  11.397   7.334   7.759 -0.1987 -0.2130  0.4114
  884MOL0     C16621  10.982   8.017   7.886 -0.8780  0.8195 -0.4142
  884MOL0     C16622  10.904   8.077   7.984  0.1078  0.0368  0.5736
  884MOL0     H16623  10.814   8.321   8.317  0.7851  1.5420  0.4027
  884MOL0     H16624  10.706   8.420   8.518  0.1615 -0.4791  1.2846
  884MOL0     H16625  10.267   8.289   8.585  0.3152 -1.1138  0.3077
  884MOL0     H16626  10.254   8.453   8.524  0.7845  0.4806  0.5508
  884MOL0     H16627  10.153   8.430   8.752  0.6572  0.4548  2.2935
  884MOL0     H16628  10.286   8.549   8.750 -0.1296 -0.7038 -0.0674
  884MOL0     H16629  10.440   8.348   8.826 -0.4303  0.8096 -0.3130
  884MOL0     H16630  10.303   8.257   8.836 -1.4610 -0.0466 -1.1483
  884MOL0     H16631  10.327   8.516   8.984  2.7887 -0.3775 -2.9915
  884MOL0     H16632  10.185   8.412   8.973  0.1656  0.2849 -3.1544
  884MOL0     H16633  10.446   8.380   9.128  1.2330 -2.7849 -1.2308
  884MOL0     H16634  10.381   8.237   9.061 -4.6990  0.1797 -3.2720
  884MOL0     H16635  10.284   8.227   9.274 -1.2498 -1.8487 -1.2626
  884MOL0     H16636  10.161   8.272   9.155 -0.5521 -0.7506  0.9908
  884MOL0     H16637  10.310   8.473   9.350 -0.2875 -1.0134  1.5797
  884MOL0     H16638  10.206   8.531   9.218  2.1848  0.4224  0.2789
  884MOL0     H16639  10.124   8.514   9.456 -2.0650 -0.2975 -0.7809
  884MOL0     H16640  10.137   8.342   9.450 -0.2954  0.0947  0.9574
  884MOL0     H16641   9.943   8.591   9.197 -0.7270 -1.2398 -3.7461
  884MOL0     H16642   9.605   8.516   9.169  1.1783  1.8062  1.8474
  884MOL0     H16643   9.675   8.402   9.055  1.2959 -0.2081 -0.9694
  884MOL0     H16644   9.790   8.689   9.068  0.6676 -1.1964  1.3591
  884MOL0     H16645   9.683   8.637   8.940  1.8685 -2.3777 -2.6507
  884MOL0     H16646   9.965   8.543   8.987  2.7383 -0.8912 -2.8088
  884MOL0     H16647   9.848   8.466   8.879  2.2264 -0.0092 -1.0054
  884MOL0     H16648   9.828   8.704   8.780  0.9315  4.0633 -0.2274
  884MOL0     H16649   9.994   8.642   8.766  0.4625  2.2301 -0.0830
  884MOL0     H16650  10.017   8.995   9.025  2.5044 -2.6007  0.6169
  884MOL0     H16651  10.093   9.193   8.921  1.5855 -3.0316  2.0474
  884MOL0     H16652  10.178   9.516   8.519  0.4288  1.3560 -0.9398
  884MOL0     H16653  10.354   9.698   8.492 -0.0553  1.7805  1.5084
  884MOL0     H16654  10.540   9.857   8.811 -0.0433  0.0700  1.3698
  884MOL0     H16655  10.469   9.931   8.663  1.5405  4.2457  2.7756
  884MOL0     H16656  10.671   9.983   8.563  0.0922 -0.9858 -0.8529
  884MOL0     H16657  10.762   9.884   8.680  1.8198  2.4559  1.9322
  884MOL0     H16658  10.686  10.041   8.864  1.4206 -2.1793  0.2783
  884MOL0     H16659  10.623  10.139   8.719 -0.5232 -2.0788 -1.0287
  884MOL0     H16660  10.925  10.088   8.709  1.1455 -0.0321  2.6249
  884MOL0     H16661  10.821  10.201   8.635  1.2474 -1.3325 -0.2484
  884MOL0     H16662  10.945  10.301   8.831 -2.8745 -0.0394 -2.3057
  884MOL0     H16663  10.890  10.172   8.927 -2.5315  0.6053  1.6380
  884MOL0     H16664  10.658  10.267   8.936 -2.7229  1.2343 -2.9105
  884MOL0     H16665  10.704  10.384   8.804 -0.0950  2.8094  0.6650
  884MOL0     H16666  10.868  10.476   8.961  3.2960 -1.2001  3.1030
  884MOL0     H16667  10.707  10.475   9.028 -0.7635  0.3915 -2.1234
  884MOL0     H16668  10.937  10.403   9.149 -0.1722 -1.5460 -0.0165
  884MOL0     H16669  10.862  10.242   9.117 -0.0434 -0.6729  4.6764
  884MOL0     H16670  10.547   9.569   8.843 -0.9806  3.3733 -0.5626
  884MOL0     H16671  10.383   9.400   8.887 -1.9791 -1.8724 -0.8815
  884MOL0     H16672  10.119   9.004   8.531 -1.8870 -0.6145  0.1048
  884MOL0     H16673  10.012   8.812   8.621 -1.1403  2.8254 -2.6526
  884MOL0     H16674  10.324   8.302   8.338  0.9033 -2.2810 -2.3544
  884MOL0     H16675  10.446   8.198   8.160  0.1363  2.0918 -0.6394
  884MOL0     H16676  10.765   7.784   8.118  0.4355 -0.4371  0.0728
  884MOL0     H16677  10.901   7.698   7.935  0.6190  0.7395 -0.1945
  884MOL0     H16678  11.103   7.639   7.669 -2.0209 -0.2278 -0.1863
  884MOL0     H16679  10.983   7.626   7.785  0.1822 -0.7490  0.1065
  884MOL0     H16680  11.172   7.670   7.970 -0.5227  0.9828 -1.0136
  884MOL0     H16681  11.201   7.523   7.876 -0.1267 -0.2038 -2.1004
  884MOL0     H16682  11.410   7.657   7.906 -1.7659 -1.3781  0.9305
  884MOL0     H16683  11.347   7.787   7.810 -2.8110  0.1985 -0.6671
  884MOL0     H16684  11.298   7.610   7.618 -1.4144 -2.4831  0.4472
  884MOL0     H16685  11.467   7.645   7.647 -1.3233  3.5556 -0.2624
  884MOL0     H16686  11.407   7.230   7.785  0.9210  0.5720  3.5771
  884MOL0     H16687  11.030   8.078   7.810 -1.9384 -0.3863 -2.0975
  884MOL0     H16688  10.907   8.184   7.969  1.8198 -0.2243 -1.3575
  885MOL0     O16689   9.907   9.873   4.620 -0.1491  0.3150 -0.2757
  885MOL0     C16690  10.023   9.833   4.659  0.8604 -0.4570 -0.2927
  885MOL0     O16691  10.138   9.864   4.597 -0.4612 -0.2045  0.0035
  885MOL0     C16692  10.127   9.912   4.465  0.3043  0.8641 -1.2657
  885MOL0     C16693  10.144   9.824   4.350  0.0188 -0.1189  0.1990
  885MOL0     C16694  10.144   9.879   4.224  0.5049 -0.4358  0.5769
  885MOL0     C16695  10.110  10.009   4.205 -0.2153 -1.0398 -0.5188
  885MOL0     O16696  10.090  10.054   4.079 -0.3105  0.1568  0.5787
  885MOL0     C16697   9.954  10.050   4.032 -0.7214  0.0318 -0.1890
  885MOL0     C16698   9.937  10.116   3.906  0.0672 -0.4552 -0.3950
  885MOL0     C16699   9.975  10.263   3.933 -1.1185  0.2250  0.8965
  885MOL0     C16700   9.954  10.336   3.797 -0.0695 -0.5400  0.7256
  885MOL0     C16701   9.951  10.486   3.820 -0.8831  0.4317  0.4055
  885MOL0     C16702  10.067  10.545   3.900  0.1662  0.3896  0.1601
  885MOL0     C16703  10.072  10.699   3.894 -0.0758  0.8199 -0.1894
  885MOL0     C16704  10.197  10.773   3.840 -0.5683 -0.1764 -1.4530
  885MOL0     N16705  10.201  10.781   3.693 -0.5949 -0.3036  0.9362
  885MOL0     C16706  10.215  10.665   3.618  0.0119  0.7842  0.2771
  885MOL0     C16707  10.239  10.716   3.499 -0.2237  0.3345  0.0596
  885MOL0     C16708  10.248  10.627   3.375  0.2468 -1.0970 -0.0528
  885MOL0     C16709  10.112  10.587   3.329 -0.6957  0.0976 -1.1463
  885MOL0     C16710  10.116  10.457   3.249  0.2175 -1.3397 -0.7002
  885MOL0     C16711   9.997  10.436   3.147  0.3485 -0.0975 -0.1611
  885MOL0     O16712   9.871  10.396   3.211 -0.1897 -0.4716  0.8114
  885MOL0     C16713   9.868  10.267   3.261 -0.1446  0.9323 -0.7114
  885MOL0     C16714   9.961  10.162   3.257 -0.0945 -0.5672 -0.3257
  885MOL0     C16715   9.939  10.038   3.320 -0.9219 -0.0634 -0.1868
  885MOL0     C16716   9.838  10.028   3.412 -0.4150  0.2578 -0.0305
  885MOL0     C16717   9.840   9.908   3.507  0.4475 -0.5807  0.1703
  885MOL0     O16718   9.724   9.861   3.558  0.2651  0.4836  0.0013
  885MOL0     C16719   9.713   9.779   3.664 -0.4125 -0.9179 -0.0584
  885MOL0     C16720   9.609   9.692   3.674 -0.3333  0.3715 -0.7927
  885MOL0     C16721   9.603   9.603   3.780 -0.3359  0.2028  0.1711
  885MOL0     C16722   9.690   9.606   3.887  0.0714 -0.1207  1.2515
  885MOL0     O16723   9.665   9.517   3.989  0.0738  0.6294  0.6112
  885MOL0     C16724   9.730   9.518   4.121  0.2782 -0.0487  0.5255
  885MOL0     C16725   9.688   9.415   4.221  0.9149 -0.6434  0.3695
  885MOL0     C16726   9.737   9.432   4.360 -0.3569 -0.0522  0.5275
  885MOL0     C16727   9.883   9.393   4.400  1.1337  0.2006  0.0868
  885MOL0     C16728   9.901   9.386   4.556  0.0907 -0.8146 -0.2100
  885MOL0     C16729  10.042   9.346   4.585  0.0952 -0.7041 -0.1605
  885MOL0     C16730  10.061   9.346   4.741 -0.2166 -0.3883  0.2595
  885MOL0     C16731  10.198   9.289   4.768 -0.2026 -0.4824 -0.7206
  885MOL0    Cl16732  10.181   9.110   4.731  0.6110  0.4616 -0.1084
  885MOL0     C16733   9.794   9.708   3.882  0.8097  0.0055 -0.8502
  885MOL0     C16734   9.805   9.788   3.774 -0.9320  0.3416  1.2049
  885MOL0     O16735   9.952   9.864   3.538 -0.7959 -0.0947  0.2908
  885MOL0     C16736   9.746  10.138   3.428 -0.0839 -0.0576 -0.2804
  885MOL0     C16737   9.765  10.252   3.352 -0.5398 -0.2077  0.2684
  885MOL0     N16738  10.245  10.848   3.492  0.7743  0.1698  0.2418
  885MOL0     N16739  10.227  10.887   3.612  0.2598  0.5820  0.0337
  885MOL0     C16740  10.096  10.093   4.315 -0.3287  0.4339 -0.4982
  885MOL0     C16741  10.109  10.043   4.446 -0.2861 -0.6557 -0.5373
  885MOL0     C16742  10.022   9.753   4.786 -0.3894  0.7880  0.6944
  885MOL0     C16743   9.901   9.695   4.834  0.0395 -0.1834  0.7662
  885MOL0     C16744   9.903   9.631   4.955  1.4875 -0.1867  0.8491
  885MOL0     C16745  10.015   9.605   5.028 -0.3041 -0.4276  0.6006
  885MOL0     O16746  10.007   9.538   5.146 -0.1115 -0.3754  0.0470
  885MOL0     C16747  10.135   9.489   5.200 -0.6339 -0.5751 -1.0705
  885MOL0     C16748  10.107   9.379   5.313  0.4724 -0.1607  0.4153
  885MOL0     C16749  10.225   9.359   5.405 -0.8180 -0.4933 -0.7345
  885MOL0     C16750  10.211   9.246   5.502  1.0515  0.4255 -0.4420
  885MOL0     C16751  10.108   9.267   5.600 -0.3479  0.1356  0.1755
  885MOL0     C16752  10.000   9.279   5.649  0.3392 -0.2713 -0.5367
  885MOL0     C16753  10.136   9.651   4.968  0.5884  0.1491  0.0123
  885MOL0     C16754  10.145   9.722   4.850  0.2014 -0.7309  0.1718
  885MOL0     H16755  10.167   9.719   4.371 -0.2617  0.5109  4.7764
  885MOL0     H16756  10.157   9.811   4.140  1.7325 -0.1565  0.5311
  885MOL0     H16757   9.899  10.111   4.103 -0.2680  3.0069 -2.2109
  885MOL0     H16758   9.922   9.945   4.037  3.2176 -1.2979  2.3807
  885MOL0     H16759   9.830  10.107   3.885 -0.5897  0.3845  2.2066
  885MOL0     H16760   9.993  10.062   3.829 -0.8384 -2.8066  0.5001
  885MOL0     H16761  10.080  10.275   3.965  0.6318 -1.8377 -3.3180
  885MOL0     H16762   9.911  10.313   4.007  3.1555  2.1120  3.7620
  885MOL0     H16763  10.037  10.322   3.728  1.8592  0.2145  2.7599
  885MOL0     H16764   9.862  10.301   3.749  0.7053  2.2702 -3.2669
  885MOL0     H16765   9.853  10.492   3.869 -2.9266 -4.0425 -2.4742
  885MOL0     H16766   9.935  10.525   3.719 -1.2793 -1.3226 -0.2476
  885MOL0     H16767  10.155  10.504   3.850  0.3641  1.0159 -0.0117
  885MOL0     H16768  10.050  10.519   4.004 -0.4658 -0.6197 -0.1786
  885MOL0     H16769   9.987  10.744   3.842 -1.4902 -0.8041  0.5947
  885MOL0     H16770  10.069  10.730   3.999  1.5924  0.3655  0.0180
  885MOL0     H16771  10.288  10.728   3.880  1.5520  1.5489 -3.9515
  885MOL0     H16772  10.185  10.875   3.880 -3.6358 -1.4287  1.2285
  885MOL0     H16773  10.209  10.561   3.649 -3.2800  0.6769 -0.3478
  885MOL0     H16774  10.309  10.538   3.396  0.5885 -1.7391 -3.3283
  885MOL0     H16775  10.305  10.675   3.295 -0.6552  0.6724  0.3211
  885MOL0     H16776  10.062  10.670   3.278 -1.5994 -0.2230 -0.8018
  885MOL0     H16777  10.070  10.562   3.427  0.0378  3.3374  0.1168
  885MOL0     H16778  10.211  10.452   3.196 -0.2870  4.1954 -2.8131
  885MOL0     H16779  10.111  10.383   3.329  0.2366  0.1790  0.7569
  885MOL0     H16780  10.032  10.369   3.067  1.3862  1.6240 -1.2079
  885MOL0     H16781   9.964  10.525   3.093 -1.1378 -1.3110 -1.3455
  885MOL0     H16782  10.045  10.183   3.191 -0.7381  2.3310 -0.3454
  885MOL0     H16783  10.011   9.957   3.315 -2.4472 -1.4432 -0.9638
  885MOL0     H16784   9.529   9.688   3.601  0.6632 -1.6306 -1.8719
  885MOL0     H16785   9.525   9.528   3.786  0.6993 -0.8175  2.8429
  885MOL0     H16786   9.708   9.606   4.183  1.9359  1.0084 -0.3018
  885MOL0     H16787   9.839   9.510   4.110  0.4268  0.0212  1.8404
  885MOL0     H16788   9.719   9.320   4.174  0.6057 -1.6773  2.1639
  885MOL0     H16789   9.580   9.408   4.235  1.2964 -3.1471  2.8731
  885MOL0     H16790   9.665   9.370   4.414  3.0234 -2.3840  2.7720
  885MOL0     H16791   9.728   9.533   4.399 -0.0647 -1.3098  4.2697
  885MOL0     H16792   9.899   9.290   4.367 -3.2855 -1.2002  1.6639
  885MOL0     H16793   9.958   9.460   4.357  0.8967  2.6346  3.1237
  885MOL0     H16794   9.830   9.314   4.597 -2.2462  1.2938 -0.2970
  885MOL0     H16795   9.873   9.480   4.605 -0.1061 -1.3232  0.6798
  885MOL0     H16796  10.115   9.413   4.538 -0.6547 -0.8829 -1.6280
  885MOL0     H16797  10.068   9.244   4.555  1.5140  0.1637 -2.1132
  885MOL0     H16798  10.050   9.447   4.782 -3.2066 -1.3898  2.3189
  885MOL0     H16799   9.984   9.285   4.790 -1.7588  0.2515 -1.2332
  885MOL0     H16800  10.232   9.319   4.868  0.6189  1.8338 -1.6135
  885MOL0     H16801  10.283   9.324   4.709  1.4277 -0.9020  1.2587
  885MOL0     H16802   9.876   9.716   3.953  1.8043 -1.4661 -1.7794
  885MOL0     H16803   9.889   9.855   3.765  2.3610 -3.5728 -0.8370
  885MOL0     H16804   9.654  10.138   3.486  0.2675 -0.9611  0.3066
  885MOL0     H16805   9.707  10.344   3.353  2.4925  2.0298 -3.0160
  885MOL0     H16806  10.063  10.196   4.304  0.1020  0.3254 -3.6557
  885MOL0     H16807  10.094  10.112   4.528 -2.4548 -2.5813  0.7872
  885MOL0     H16808   9.808   9.716   4.784  0.8715 -1.5091 -1.4838
  885MOL0     H16809   9.803   9.600   4.981 -0.4359  2.4462 -2.6032
  885MOL0     H16810  10.188   9.570   5.252  1.1349 -1.5526 -1.2530
  885MOL0     H16811  10.201   9.444   5.125  1.6360  0.2162  0.3367
  885MOL0     H16812  10.031   9.433   5.371 -1.0341 -1.1341 -0.5774
  885MOL0     H16813  10.062   9.292   5.264 -1.5343  1.1766 -0.2703
  885MOL0     H16814  10.237   9.451   5.464 -0.4625 -0.2526 -1.1835
  885MOL0     H16815  10.319   9.332   5.358 -0.3254 -3.9133  1.8014
  885MOL0     H16816  10.188   9.160   5.439 -0.6817  1.4084 -1.2134
  885MOL0     H16817  10.304   9.229   5.558  1.2624 -0.8074 -1.1278
  885MOL0     H16818   9.908   9.299   5.702  2.0204  2.4631  1.6531
  885MOL0     H16819  10.232   9.645   5.017 -0.9034 -0.9861  3.0532
  885MOL0     H16820  10.236   9.754   4.801  1.6008 -3.2297  0.9374
  886MOL0     O16821   7.507  10.105   0.189  0.6188 -0.1537  0.3793
  886MOL0     C16822   7.432  10.013   0.239 -0.0166 -0.6653  0.2478
  886MOL0     O16823   7.476   9.893   0.296  0.5002 -0.2981  0.5086
  886MOL0     C16824   7.614   9.895   0.300  0.3983 -0.1017 -0.0675
  886MOL0     C16825   7.675   9.911   0.427 -0.7267  0.5846  0.7113
  886MOL0     C16826   7.811   9.882   0.447  0.0437 -0.3931 -0.0706
  886MOL0     C16827   7.903   9.866   0.339  0.1443  0.6339  1.3267
  886MOL0     O16828   8.033   9.850   0.365 -0.0234 -0.1829 -0.6968
  886MOL0     C16829   8.109   9.788   0.267  0.4660  0.2616  0.1409
  886MOL0     C16830   8.265   9.812   0.299 -0.1341  0.7490  0.5323
  886MOL0     C16831   8.312   9.951   0.324  0.0241 -0.3750  0.5849
  886MOL0     C16832   8.466   9.957   0.351  0.9650 -0.3812 -0.3167
  886MOL0     C16833   8.502  10.099   0.351 -1.0016 -0.4243 -0.6387
  886MOL0     C16834   8.625  10.122   0.431  0.2674 -1.2495 -1.6403
  886MOL0     C16835   8.673  10.267   0.424 -0.0779 -0.7750  1.0329
  886MOL0     C16836   8.616  10.366   0.529  0.0028 -0.8950  0.3745
  886MOL0     N16837   8.672  10.511   0.517 -0.1318  0.4545  0.2716
  886MOL0     C16838   8.659  10.581   0.405  0.5900  0.6789  0.0299
  886MOL0     C16839   8.721  10.694   0.427 -0.3139 -0.1919  0.4768
  886MOL0     C16840   8.746  10.810   0.330  0.1349  0.3764  0.0430
  886MOL0     C16841   8.746  10.940   0.388  0.2188  0.4063  0.5001
  886MOL0     C16842   8.617  10.967   0.463  0.2909  0.1724  0.8081
  886MOL0     C16843   8.603  11.113   0.502 -0.1633  0.5808  0.3282
  886MOL0     O16844   8.472  11.147   0.550 -0.2335  0.1419 -0.1423
  886MOL0     C16845   8.429  11.278   0.561 -0.5758 -0.5721  0.6114
  886MOL0     C16846   8.297  11.293   0.607  0.6156  0.2609 -0.0249
  886MOL0     C16847   8.245  11.420   0.632 -0.8689 -0.6547  0.8185
  886MOL0     C16848   8.327  11.532   0.601  0.2586 -0.7706 -0.7822
  886MOL0     C16849   8.290  11.666   0.657  1.6496  0.7528 -0.5455
  886MOL0     O16850   8.382  11.764   0.645  0.3094 -0.5249  0.6095
  886MOL0     C16851   8.360  11.895   0.691  0.0333 -0.0573 -0.5199
  886MOL0     C16852   8.426  12.013   0.626  0.6575  0.4026 -0.1691
  886MOL0     C16853   8.398  12.147   0.655  0.3139  0.9345 -0.1800
  886MOL0     C16854   8.318  12.171   0.756  0.5018  0.1881 -0.6383
  886MOL0     O16855   8.279  12.298   0.776  0.7688  0.6102 -1.3651
  886MOL0     C16856   8.284  12.348   0.904 -0.0104 -0.8391  0.5978
  886MOL0     C16857   8.275  12.496   0.900 -0.1041  0.5252 -0.2168
  886MOL0     C16858   8.366  12.551   0.790  0.1266 -0.3997  0.3583
  886MOL0     C16859   8.407  12.691   0.829  0.0575  0.4594 -0.1473
  886MOL0     C16860   8.516  12.732   0.740 -0.3613 -0.3927 -0.7228
  886MOL0     C16861   8.596  12.846   0.816  0.1986 -0.6099 -0.0628
  886MOL0     C16862   8.528  12.970   0.822  0.3381 -0.0945 -0.5689
  886MOL0     C16863   8.611  13.096   0.822 -0.2065 -0.3425 -0.0941
  886MOL0    Cl16864   8.740  13.100   0.953  0.3188  0.2370 -0.1881
  886MOL0     C16865   8.248  12.074   0.832 -0.0431  0.2377  0.3973
  886MOL0     C16866   8.273  11.933   0.798  0.7915  0.2582  0.8188
  886MOL0     O16867   8.182  11.670   0.722  0.1588  0.2952  0.1223
  886MOL0     C16868   8.454  11.522   0.552  0.0586  0.9083 -0.4646
  886MOL0     C16869   8.499  11.390   0.534  0.2315  0.0364  0.1594
  886MOL0     N16870   8.781  10.687   0.549 -0.3758 -0.8463  0.6336
  886MOL0     N16871   8.736  10.576   0.611 -0.8650 -0.1442  0.0883
  886MOL0     C16872   7.841   9.844   0.206  0.5546 -0.2347 -0.2650
  886MOL0     C16873   7.699   9.863   0.184 -0.0442 -0.6639 -0.8227
  886MOL0     C16874   7.284  10.024   0.207  0.1464  0.5887  0.1952
  886MOL0     C16875   7.195   9.926   0.235  0.4162  0.4980 -1.1944
  886MOL0     C16876   7.053   9.949   0.215  0.9090  0.4432  0.6216
  886MOL0     C16877   7.004  10.060   0.145  0.1224  0.0855  0.7110
  886MOL0     O16878   6.876  10.077   0.088  0.2292  0.0275  0.3038
  886MOL0     C16879   6.769  10.071   0.180 -0.4011  0.5246 -0.5152
  886MOL0     C16880   6.653  10.117   0.112  0.3605 -0.7325 -1.1296
  886MOL0     C16881   6.649  10.265   0.073 -0.5363 -0.6339  0.7840
  886MOL0     C16882   6.518  10.333   0.038 -0.5461 -0.8872  0.3706
  886MOL0     C16883   6.408  10.299   0.126  0.0377 -0.4326 -0.1265
  886MOL0     C16884   6.318  10.258   0.199  0.9251 -0.3279  0.6276
  886MOL0     C16885   7.101  10.144   0.094  0.4152 -0.7042  0.8243
  886MOL0     C16886   7.236  10.133   0.130  0.3099 -0.5745 -0.2892
  886MOL0     H16887   7.610   9.901   0.513  0.6459  1.0493  1.8468
  886MOL0     H16888   7.849   9.891   0.548 -2.5407  0.1597  0.9356
  886MOL0     H16889   8.097   9.837   0.169 -2.3255 -2.1170 -0.8806
  886MOL0     H16890   8.100   9.679   0.267  0.5260  0.0960 -3.6486
  886MOL0     H16891   8.323   9.774   0.215  2.7414  1.4627  2.0410
  886MOL0     H16892   8.285   9.756   0.391 -0.5861  1.0256  0.8050
  886MOL0     H16893   8.252   9.991   0.406  2.7626  2.2872  1.4761
  886MOL0     H16894   8.289  10.010   0.234 -0.6735 -2.4187 -0.6575
  886MOL0     H16895   8.484   9.920   0.451 -1.9724 -0.4776  0.2842
  886MOL0     H16896   8.523   9.899   0.278 -0.4317 -2.0080 -0.1859
  886MOL0     H16897   8.427  10.165   0.397  0.4588  1.0956 -0.3641
  886MOL0     H16898   8.530  10.134   0.251 -1.5426 -0.1574 -0.7009
  886MOL0     H16899   8.708  10.055   0.405  3.0429  1.0470  0.6852
  886MOL0     H16900   8.605  10.106   0.537 -1.4038 -0.8579 -1.8676
  886MOL0     H16901   8.782  10.254   0.425 -0.1692 -3.2212 -2.7428
  886MOL0     H16902   8.654  10.307   0.324  2.2419  2.2105  1.6307
  886MOL0     H16903   8.627  10.319   0.627 -0.3417  1.2414  1.4858
  886MOL0     H16904   8.507  10.375   0.518  0.0294 -0.5383  0.4131
  886MOL0     H16905   8.609  10.533   0.321 -0.5408 -0.7813  1.4861
  886MOL0     H16906   8.667  10.807   0.254  0.5438  1.9209 -0.4766
  886MOL0     H16907   8.835  10.791   0.269 -0.8650  0.8142 -1.6417
  886MOL0     H16908   8.755  11.017   0.310  2.4817  0.8352  1.1034
  886MOL0     H16909   8.834  10.949   0.451  0.7867  1.4576 -0.3981
  886MOL0     H16910   8.534  10.940   0.397  0.6305  3.6234 -1.3083
  886MOL0     H16911   8.621  10.902   0.551  3.0256  0.4909  1.0128
  886MOL0     H16912   8.640  11.171   0.416 -1.0209 -0.8675 -1.0756
  886MOL0     H16913   8.671  11.133   0.585  2.2790 -1.1238 -1.1323
  886MOL0     H16914   8.245  11.206   0.644  1.2407  0.1408  0.5826
  886MOL0     H16915   8.146  11.433   0.675 -1.0090  3.0112 -0.2473
  886MOL0     H16916   8.496  11.984   0.549 -0.7517  0.7634 -1.6487
  886MOL0     H16917   8.452  12.224   0.601  1.1384 -1.4893 -3.0973
  886MOL0     H16918   8.370  12.314   0.963  1.3197  1.5493  0.1673
  886MOL0     H16919   8.191  12.309   0.947 -2.3208  1.7334 -1.7425
  886MOL0     H16920   8.314  12.518   0.999 -0.0314  3.0893 -0.7501
  886MOL0     H16921   8.176  12.539   0.886 -0.3014 -0.4608 -2.3462
  886MOL0     H16922   8.312  12.559   0.696  1.1192  1.9663 -0.0919
  886MOL0     H16923   8.455  12.487   0.785 -0.4959 -1.7170  3.5294
  886MOL0     H16924   8.319  12.754   0.814 -1.0232  1.0168  6.0020
  886MOL0     H16925   8.456  12.700   0.926  4.8303  2.5184 -2.4564
  886MOL0     H16926   8.476  12.762   0.642  1.1671 -1.9962 -1.9209
  886MOL0     H16927   8.588  12.653   0.714 -1.3283 -2.1147  1.5531
  886MOL0     H16928   8.690  12.849   0.761 -0.1201  1.3042 -0.5642
  886MOL0     H16929   8.613  12.808   0.918 -2.7223  0.4519  0.9371
  886MOL0     H16930   8.461  12.974   0.735 -0.3248 -4.2068 -0.4657
  886MOL0     H16931   8.470  12.980   0.914  1.1404  2.7990 -0.2831
  886MOL0     H16932   8.541  13.173   0.855  0.8880  1.1852 -1.2031
  886MOL0     H16933   8.641  13.118   0.719 -0.6878  2.1221  0.2192
  886MOL0     H16934   8.173  12.106   0.904 -0.2348 -1.0324  0.7983
  886MOL0     H16935   8.212  11.871   0.863 -3.1470  1.0534 -1.7102
  886MOL0     H16936   8.527  11.602   0.550  1.9254 -0.5584  2.4519
  886MOL0     H16937   8.603  11.376   0.508 -0.0113  2.6510 -2.6390
  886MOL0     H16938   7.900   9.838   0.115  1.5548  3.2806 -0.0095
  886MOL0     H16939   7.658   9.843   0.086 -3.3761  0.7524  0.1420
  886MOL0     H16940   7.237   9.839   0.285 -2.3025  0.3163  1.0867
  886MOL0     H16941   6.981   9.888   0.268  2.5536 -3.0833 -0.8453
  886MOL0     H16942   6.783  10.134   0.268 -0.7435 -0.8800  0.5868
  886MOL0     H16943   6.752   9.967   0.209 -1.2970 -0.1191 -3.1138
  886MOL0     H16944   6.630  10.061   0.021 -0.4579  0.9488 -2.0056
  886MOL0     H16945   6.569  10.104   0.181 -1.5796  1.9866 -2.7296
  886MOL0     H16946   6.712  10.265  -0.017 -0.9129 -0.7722  0.5161
  886MOL0     H16947   6.699  10.326   0.148  0.2665 -1.7870  1.2145
  886MOL0     H16948   6.542  10.439   0.049  1.5607 -1.0221 -1.9554
  886MOL0     H16949   6.497  10.322  -0.069  5.8057  1.8499 -1.6635
  886MOL0     H16950   6.237  10.233   0.265 -1.0829 -0.4387 -1.7152
  886MOL0     H16951   7.067  10.221   0.026 -0.9230 -2.6895 -0.8780
  886MOL0     H16952   7.309  10.205   0.092 -1.9105  1.3115 -1.2168
  887MOL0     O16953   9.720   0.284   0.477  0.7785 -0.6178 -0.0565
  887MOL0     C16954   9.798   0.214   0.535 -0.0790 -0.3236  0.5974
  887MOL0     O16955   9.924   0.243   0.577 -0.5612  0.5603  0.8876
  887MOL0     C16956   9.966   0.370   0.582 -0.3776 -0.0960  0.5440
  887MOL0     C16957  10.031   0.420   0.702  1.0462  1.1530  0.3749
  887MOL0     C16958  10.082   0.545   0.716 -0.0726 -0.2163 -0.3811
  887MOL0     C16959  10.090   0.627   0.602 -1.0449 -0.1505 -0.2255
  887MOL0     O16960  10.146   0.760   0.591 -0.4056  0.4098 -0.4707
  887MOL0     C16961  10.183   0.819   0.714  0.5234  0.2210 -0.4804
  887MOL0     C16962  10.290   0.936   0.707  0.1676  0.7732 -0.6049
  887MOL0     C16963  10.302   1.010   0.845 -0.7514  0.2461 -0.3317
  887MOL0     C16964  10.366   1.153   0.838 -0.6324  0.5315 -0.4092
  887MOL0     C16965  10.363   1.221   0.975 -0.3530 -0.1638 -1.1257
  887MOL0     C16966  10.399   1.364   0.977 -0.7352 -0.9310 -0.3035
  887MOL0     C16967  10.533   1.398   0.904  0.4712  0.1234  0.0868
  887MOL0     C16968  10.602   1.527   0.934 -0.2436  1.6606 -0.3141
  887MOL0     N16969  10.530   1.638   0.869 -0.1094 -0.4048 -0.2350
  887MOL0     C16970  10.534   1.664   0.734  0.0974 -0.0681 -1.1857
  887MOL0     C16971  10.432   1.752   0.723  0.8073 -0.0387  0.0101
  887MOL0     C16972  10.393   1.841   0.605 -0.5462  0.3889 -0.4798
  887MOL0     C16973  10.234   1.857   0.594 -0.5950 -0.5901 -1.1282
  887MOL0     C16974  10.179   1.986   0.638 -0.0922  0.1027  0.0196
  887MOL0     C16975  10.086   2.058   0.529 -0.4218 -0.6484 -0.6075
  887MOL0     O16976  10.082   2.201   0.540 -0.1899  0.7673  0.3973
  887MOL0     C16977  10.000   2.266   0.628 -1.2773  0.7802 -0.7812
  887MOL0     C16978  10.007   2.401   0.640  0.7607  0.2052  0.0886
  887MOL0     C16979   9.921   2.470   0.718 -0.2422 -0.1093 -0.0865
  887MOL0     C16980   9.821   2.407   0.800  0.6768  0.2674 -0.4522
  887MOL0     C16981   9.731   2.490   0.891  0.8814  0.7859 -0.1838
  887MOL0     O16982   9.699   2.612   0.836 -0.2974  0.1099 -0.8292
  887MOL0     C16983   9.628   2.700   0.907  0.4112  0.3685 -0.6104
  887MOL0     C16984   9.492   2.694   0.879  0.0206  0.0786 -0.0664
  887MOL0     C16985   9.413   2.809   0.910 -0.7029 -0.1130 -0.2667
  887MOL0     C16986   9.474   2.920   0.978 -0.4260 -1.3441 -0.1199
  887MOL0     O16987   9.392   3.019   1.023  0.1228  0.8519  0.5223
  887MOL0     C16988   9.351   2.992   1.160 -0.5800  0.7196  0.1632
  887MOL0     C16989   9.245   3.093   1.195  1.1706 -0.1824 -0.2556
  887MOL0     C16990   9.196   3.090   1.349 -0.5715  0.2505 -0.7962
  887MOL0     C16991   9.310   3.100   1.452  0.3399 -0.6703  0.8175
  887MOL0     C16992   9.272   3.108   1.592  0.2834  0.5176 -0.0244
  887MOL0     C16993   9.169   3.211   1.645 -0.9344  0.0842 -0.3540
  887MOL0     C16994   9.245   3.351   1.657  1.0760 -0.4311  0.0364
  887MOL0     C16995   9.167   3.475   1.585  0.1892  0.1815  0.0156
  887MOL0    Cl16996   9.095   3.424   1.428  0.1150 -0.1425 -0.0666
  887MOL0     C16997   9.603   2.921   1.006 -0.3670 -0.3411 -0.3789
  887MOL0     C16998   9.686   2.811   0.975  0.7246  0.1848 -0.1773
  887MOL0     O16999   9.673   2.434   0.982 -0.7326  0.6371  0.3795
  887MOL0     C17000   9.812   2.267   0.792  0.3970  0.4558  0.6948
  887MOL0     C17001   9.903   2.198   0.707  0.6108  0.4193  0.0698
  887MOL0     N17002  10.384   1.788   0.850  0.3090  0.6409  0.5460
  887MOL0     N17003  10.432   1.703   0.936  0.1110 -0.5410 -0.1720
  887MOL0     C17004  10.022   0.579   0.489 -1.3027 -0.8504 -0.4922
  887MOL0     C17005   9.963   0.454   0.469  0.7583 -0.3525  0.3250
  887MOL0     C17006   9.762   0.070   0.545  0.2741  0.4697  0.3744
  887MOL0     C17007   9.641   0.009   0.509  0.0728 -0.6015  0.9005
  887MOL0     C17008   9.609  -0.123   0.531 -0.2019 -0.1448 -0.4241
  887MOL0     C17009   9.699  -0.207   0.587  0.8168 -0.8670  0.1532
  887MOL0     O17010   9.664  -0.332   0.623  0.0414 -1.0984  1.2488
  887MOL0     C17011   9.611  -0.322   0.755  0.0163  0.3928 -0.9218
  887MOL0     C17012   9.536  -0.453   0.787 -0.5195  0.6836  0.1883
  887MOL0     C17013   9.385  -0.440   0.733 -0.7585  0.1716  0.0167
  887MOL0     C17014   9.277  -0.541   0.793 -0.0830 -0.0117 -0.4367
  887MOL0     C17015   9.176  -0.601   0.697  0.9226  0.9234 -0.1281
  887MOL0     C17016   9.094  -0.660   0.624  0.7316 -1.2274 -0.6342
  887MOL0     C17017   9.820  -0.156   0.627  0.2057 -0.4689 -0.3486
  887MOL0     C17018   9.854  -0.018   0.612 -0.3100  0.1902  0.2698
  887MOL0     H17019  10.029   0.352   0.786 -2.7991 -0.1851 -0.6191
  887MOL0     H17020  10.142   0.561   0.805  0.4322 -1.3252 -0.4994
  887MOL0     H17021  10.241   0.748   0.774  1.8870  2.4830  1.0179
  887MOL0     H17022  10.097   0.853   0.773 -1.7745 -3.1984 -1.5171
  887MOL0     H17023  10.277   1.011   0.628  2.0261 -0.1779 -1.9057
  887MOL0     H17024  10.381   0.888   0.669 -0.9101  0.1618 -2.6035
  887MOL0     H17025  10.352   0.946   0.918  1.0481  2.3056  0.3434
  887MOL0     H17026  10.203   1.026   0.891 -0.3176 -1.6425  1.4551
  887MOL0     H17027  10.470   1.144   0.805  0.2098  1.5740  1.7517
  887MOL0     H17028  10.304   1.213   0.772 -0.0922 -0.1690 -1.5899
  887MOL0     H17029  10.435   1.171   1.040 -0.5288  1.5889  0.5334
  887MOL0     H17030  10.261   1.211   1.013 -0.7899 -0.6191 -2.3775
  887MOL0     H17031  10.404   1.402   1.079  0.8400  1.5376 -1.2145
  887MOL0     H17032  10.323   1.423   0.925  2.3297  2.5250 -1.2752
  887MOL0     H17033  10.617   1.330   0.923  2.0719  2.0740  0.3757
  887MOL0     H17034  10.519   1.395   0.795 -0.4901  1.7938  0.1236
  887MOL0     H17035  10.703   1.525   0.890 -0.8858 -1.5595 -1.9009
  887MOL0     H17036  10.613   1.539   1.042 -2.1205  2.0183 -0.1293
  887MOL0     H17037  10.613   1.630   0.666  0.5117 -4.4578  1.1147
  887MOL0     H17038  10.427   1.792   0.513 -0.1576 -0.5865  0.1638
  887MOL0     H17039  10.453   1.931   0.618 -0.0322  0.2387 -1.6641
  887MOL0     H17040  10.189   1.774   0.649  1.2330 -1.5868 -1.0342
  887MOL0     H17041  10.201   1.839   0.491 -2.6000 -2.5954 -0.2180
  887MOL0     H17042  10.116   1.971   0.726  1.1761 -3.0267  0.5605
  887MOL0     H17043  10.258   2.056   0.667 -1.0025  0.2010  2.5185
  887MOL0     H17044   9.987   2.012   0.534  0.4493 -2.5701 -0.2418
  887MOL0     H17045  10.134   2.031   0.435  0.1110 -2.6981  0.1864
  887MOL0     H17046  10.078   2.455   0.578 -0.1714  0.2871 -0.9443
  887MOL0     H17047   9.939   2.576   0.733 -2.8784  0.2952  0.8367
  887MOL0     H17048   9.448   2.626   0.807 -0.2352  1.3130 -1.1057
  887MOL0     H17049   9.307   2.815   0.885 -1.4913 -0.7642  2.5815
  887MOL0     H17050   9.436   3.003   1.227 -2.0358 -0.2466  2.2915
  887MOL0     H17051   9.306   2.894   1.182  0.6256  0.5890  2.2596
  887MOL0     H17052   9.157   3.083   1.131  0.3207 -2.2053  1.1170
  887MOL0     H17053   9.284   3.193   1.173  1.0274 -0.4551 -1.8270
  887MOL0     H17054   9.132   3.006   1.375  1.4858 -1.4765 -1.0106
  887MOL0     H17055   9.126   3.172   1.368 -2.3723 -1.7889  2.2003
  887MOL0     H17056   9.379   3.018   1.434  0.1522 -0.3951 -1.4092
  887MOL0     H17057   9.354   3.197   1.427 -3.1788  1.1990  1.1849
  887MOL0     H17058   9.360   3.122   1.654  0.3731  0.1955 -0.0792
  887MOL0     H17059   9.227   3.009   1.602  1.7099 -0.0015  1.7239
  887MOL0     H17060   9.137   3.178   1.744  2.3257 -4.0035 -0.3734
  887MOL0     H17061   9.089   3.213   1.571  0.2094 -3.8599 -1.9664
  887MOL0     H17062   9.251   3.374   1.764 -2.7982 -0.7880  0.4878
  887MOL0     H17063   9.340   3.348   1.603  0.4580 -2.1945 -1.0148
  887MOL0     H17064   9.237   3.558   1.571 -0.1454  1.1996  3.3346
  887MOL0     H17065   9.084   3.513   1.645  1.1898  4.2203 -0.8558
  887MOL0     H17066   9.663   2.999   1.052 -0.3042  0.7608 -2.2350
  887MOL0     H17067   9.793   2.821   0.980  0.6338  0.6006  1.2212
  887MOL0     H17068   9.733   2.211   0.841 -1.3413  1.1524 -1.1561
  887MOL0     H17069   9.883   2.092   0.696 -1.7858  0.3726  3.4243
  887MOL0     H17070  10.023   0.653   0.409 -2.0833 -0.7970 -0.4563
  887MOL0     H17071   9.924   0.436   0.370  2.0778  0.0012 -0.2852
  887MOL0     H17072   9.563   0.068   0.463 -1.6476 -2.6535  1.0036
  887MOL0     H17073   9.506  -0.153   0.512 -0.3146 -0.7639  1.0091
  887MOL0     H17074   9.547  -0.234   0.770 -2.1283 -1.2702  0.4150
  887MOL0     H17075   9.694  -0.311   0.826  0.0912  0.1524 -0.9735
  887MOL0     H17076   9.577  -0.543   0.742  0.4474  0.9837  0.4303
  887MOL0     H17077   9.544  -0.468   0.895  1.4366  1.1187  0.1413
  887MOL0     H17078   9.379  -0.448   0.624 -1.6466  0.5691  0.0301
  887MOL0     H17079   9.350  -0.341   0.764 -0.0485  0.3254  0.3471
  887MOL0     H17080   9.332  -0.625   0.837  1.0773  0.6983 -0.4710
  887MOL0     H17081   9.224  -0.500   0.879  1.3940 -2.4273  1.7394
  887MOL0     H17082   9.018  -0.682   0.552  0.9926  1.4784 -1.8820
  887MOL0     H17083   9.899  -0.222   0.663 -0.5405  0.7482  4.2572
  887MOL0     H17084   9.952   0.019   0.638 -0.7840  1.1479  0.7379
  888MOL0     O17085   9.845   8.124   4.686  0.4416  0.0037  0.4409
  888MOL0     C17086   9.842   8.141   4.805 -0.2745 -0.1561  0.4377
  888MOL0     O17087   9.906   8.239   4.874 -0.3666 -1.6187  0.1135
  888MOL0     C17088   9.961   8.332   4.787  0.2481  0.2478 -0.5781
  888MOL0     C17089   9.898   8.405   4.687  0.4780 -0.2362 -0.6069
  888MOL0     C17090   9.974   8.474   4.589 -0.3046  0.1915 -0.4467
  888MOL0     C17091  10.114   8.482   4.607  0.7292 -0.5660  0.4901
  888MOL0     O17092  10.176   8.570   4.520  0.3233  0.6629  0.2854
  888MOL0     C17093  10.148   8.703   4.546  0.7712 -0.2315  0.0613
  888MOL0     C17094  10.242   8.806   4.481  0.4417 -0.0915 -0.2275
  888MOL0     C17095  10.213   8.832   4.337  0.3921  0.2026  0.8246
  888MOL0     C17096  10.278   8.725   4.250 -0.0035 -0.0605 -0.1744
  888MOL0     C17097  10.255   8.760   4.097  0.2398 -0.6756 -0.5326
  888MOL0     C17098  10.319   8.894   4.067  0.8544 -0.0371  0.0666
  888MOL0     C17099  10.289   8.938   3.912 -0.1435  0.9144 -0.3212
  888MOL0     C17100  10.363   8.855   3.802 -0.5973 -0.7862  0.9661
  888MOL0     N17101  10.305   8.882   3.666 -0.2725  0.7406  0.1706
  888MOL0     C17102  10.326   8.986   3.587 -0.1041  0.5498 -0.8752
  888MOL0     C17103  10.275   8.948   3.469  0.6765 -0.8608 -0.6157
  888MOL0     C17104  10.275   9.042   3.353 -0.0726 -0.0384 -0.1058
  888MOL0     C17105  10.409   9.051   3.284 -0.1575 -0.3528  0.2304
  888MOL0     C17106  10.392   9.140   3.165 -0.3088  0.3897  0.3933
  888MOL0     C17107  10.346   9.070   3.034  0.3469 -0.1129 -0.4945
  888MOL0     O17108  10.455   8.981   3.005  0.5172 -0.1576  0.0891
  888MOL0     C17109  10.566   9.038   2.937 -0.4575 -0.0126  0.2732
  888MOL0     C17110  10.573   9.180   2.894  0.8952 -0.0286  0.3219
  888MOL0     C17111  10.670   9.213   2.795  0.5923 -0.5779 -0.4645
  888MOL0     C17112  10.751   9.113   2.735 -0.2132 -0.0038 -0.7835
  888MOL0     C17113  10.854   9.147   2.641  0.6237  0.5107  0.7119
  888MOL0     O17114  10.878   9.287   2.630 -0.2966 -0.2798 -0.4680
  888MOL0     C17115  10.989   9.338   2.558  0.5110  0.5174  0.0584
  888MOL0     C17116  11.044   9.438   2.621 -0.7358 -0.0857 -0.6032
  888MOL0     C17117  11.170   9.501   2.581  0.3556  1.3494 -0.7829
  888MOL0     C17118  11.233   9.449   2.471  0.7306 -0.8049  0.9750
  888MOL0     O17119  11.352   9.502   2.440  0.1463 -0.2202  0.3127
  888MOL0     C17120  11.369   9.545   2.297  0.2538  0.5431  0.4749
  888MOL0     C17121  11.512   9.591   2.267 -0.4634  0.0779 -0.8276
  888MOL0     C17122  11.617   9.480   2.264  0.4315  0.3274  0.0762
  888MOL0     C17123  11.755   9.532   2.229  0.9771  0.4050  0.0865
  888MOL0     C17124  11.866   9.445   2.302 -0.2456 -0.1401  0.1491
  888MOL0     C17125  11.917   9.311   2.234  0.7227  0.7844 -0.2249
  888MOL0     C17126  12.026   9.244   2.308 -0.5965  0.0542  0.6453
  888MOL0     C17127  12.059   9.109   2.253  0.4806 -0.7490  0.7740
  888MOL0    Cl17128  12.175   9.135   2.122  0.1139  0.3686 -0.5540
  888MOL0     C17129  11.165   9.348   2.389  0.4003 -0.1380 -0.3720
  888MOL0     C17130  11.044   9.296   2.442 -0.4336 -0.3323 -0.6382
  888MOL0     O17131  10.900   9.063   2.567 -0.1254  0.2619  0.1671
  888MOL0     C17132  10.739   8.979   2.776 -0.4710  0.4835  0.1470
  888MOL0     C17133  10.651   8.951   2.881 -0.5712  0.1629  0.1712
  888MOL0     N17134  10.234   8.814   3.479  0.1351  0.0923  0.3449
  888MOL0     N17135  10.250   8.773   3.602  0.3805 -0.0773  0.0463
  888MOL0     C17136  10.185   8.423   4.703 -0.8060  1.1832  0.5072
  888MOL0     C17137  10.110   8.346   4.788  0.0545  0.7927 -0.3380
  888MOL0     C17138   9.791   8.024   4.883 -0.2449 -0.2519 -0.2799
  888MOL0     C17139   9.811   8.019   5.026  0.1529  0.3451  0.4281
  888MOL0     C17140   9.747   7.909   5.098  0.3553  0.1861  0.4040
  888MOL0     C17141   9.680   7.809   5.034  0.9774  0.3336  0.4134
  888MOL0     O17142   9.616   7.711   5.097 -0.4184 -0.6342  0.5723
  888MOL0     C17143   9.616   7.694   5.235 -1.0144  0.9191  0.0823
  888MOL0     C17144   9.744   7.614   5.254  0.6745 -0.1501  0.1814
  888MOL0     C17145   9.758   7.567   5.403 -0.6226  1.1402 -0.0948
  888MOL0     C17146   9.888   7.509   5.443  0.6065  0.0675  0.6898
  888MOL0     C17147  10.002   7.605   5.437 -0.6409 -0.2460 -0.7933
  888MOL0     C17148  10.077   7.699   5.408  0.2963  0.1807  0.3515
  888MOL0     C17149   9.655   7.827   4.899  0.6111 -0.4542 -0.1039
  888MOL0     C17150   9.708   7.932   4.825  0.0807  0.2756 -0.6662
  888MOL0     H17151   9.792   8.396   4.664 -0.3050 -1.0638  2.7915
  888MOL0     H17152   9.923   8.529   4.511 -0.1128  0.8084 -0.1414
  888MOL0     H17153  10.153   8.720   4.654  1.9617  0.9522 -0.1502
  888MOL0     H17154  10.045   8.726   4.516  1.2162 -0.5900 -1.8836
  888MOL0     H17155  10.345   8.768   4.487 -0.3468 -2.1287  3.4619
  888MOL0     H17156  10.248   8.909   4.517 -0.2964 -0.1335  0.0245
  888MOL0     H17157  10.237   8.936   4.312 -2.7494  0.8777  0.1875
  888MOL0     H17158  10.105   8.836   4.317 -0.2760  2.4647  4.0056
  888MOL0     H17159  10.384   8.716   4.272 -0.7250 -1.8874  3.2848
  888MOL0     H17160  10.237   8.626   4.270 -0.7960 -0.2162 -2.2946
  888MOL0     H17161  10.148   8.757   4.078 -0.0254 -1.7597  0.9075
  888MOL0     H17162  10.300   8.688   4.028  0.0355  0.4560 -1.8796
  888MOL0     H17163  10.425   8.884   4.092  0.7560  0.4364  0.6821
  888MOL0     H17164  10.273   8.977   4.122  0.8901 -0.5400  0.8653
  888MOL0     H17165  10.181   8.921   3.901  0.0825 -2.2200  1.1282
  888MOL0     H17166  10.305   9.045   3.900  0.1058  1.1031  1.4146
  888MOL0     H17167  10.373   8.749   3.824  2.3399 -0.1181  3.4942
  888MOL0     H17168  10.464   8.897   3.799 -1.9731  3.0523  2.4259
  888MOL0     H17169  10.359   9.085   3.617 -1.4681  1.2681 -1.6242
  888MOL0     H17170  10.231   9.139   3.380  1.6493  0.6479  0.3505
  888MOL0     H17171  10.210   8.994   3.279 -0.8426  0.3748  0.2907
  888MOL0     H17172  10.451   8.957   3.248 -2.0639 -0.4976 -1.8446
  888MOL0     H17173  10.489   9.092   3.347  0.0998  0.9642 -0.8956
  888MOL0     H17174  10.316   9.217   3.183 -0.2640  0.5754 -0.1949
  888MOL0     H17175  10.485   9.194   3.149  0.5014  0.1359  3.6093
  888MOL0     H17176  10.314   9.139   2.955 -3.3243 -1.0774 -0.0587
  888MOL0     H17177  10.255   9.010   3.045 -0.1816  0.5527 -1.1424
  888MOL0     H17178  10.491   9.250   2.910  0.3337  0.1805 -2.7926
  888MOL0     H17179  10.671   9.316   2.762 -1.9673 -0.7592 -1.2737
  888MOL0     H17180  11.006   9.487   2.710 -0.3775 -1.8915  0.5902
  888MOL0     H17181  11.216   9.577   2.642 -0.3351  1.4390 -0.3681
  888MOL0     H17182  11.296   9.623   2.272 -0.4824  0.2952  1.7350
  888MOL0     H17183  11.348   9.457   2.235 -1.6623  1.3699 -0.1350
  888MOL0     H17184  11.545   9.655   2.349  2.1725 -0.9554 -0.9855
  888MOL0     H17185  11.510   9.650   2.174 -3.0471  0.0316 -0.8701
  888MOL0     H17186  11.585   9.406   2.190 -0.8330 -2.7809  3.4188
  888MOL0     H17187  11.610   9.423   2.357 -1.3466  1.3814  0.6462
  888MOL0     H17188  11.763   9.536   2.120 -2.0310 -0.5200 -0.2510
  888MOL0     H17189  11.764   9.637   2.260 -0.2535  0.2405  1.0800
  888MOL0     H17190  11.838   9.428   2.406 -0.1501 -2.2223 -0.1368
  888MOL0     H17191  11.960   9.502   2.297  0.6625 -1.7148 -2.4500
  888MOL0     H17192  11.954   9.322   2.131  1.5788 -0.0972 -0.0189
  888MOL0     H17193  11.825   9.254   2.221  1.5447 -0.8092  0.7197
  888MOL0     H17194  12.115   9.308   2.314  2.1760 -3.5701  2.5235
  888MOL0     H17195  11.993   9.219   2.409 -0.7611 -1.6475  0.2012
  888MOL0     H17196  11.965   9.055   2.236 -0.0603 -0.9446  3.8446
  888MOL0     H17197  12.095   9.037   2.327 -3.5227 -0.8657  2.9118
  888MOL0     H17198  11.214   9.291   2.311  0.1328  0.2331 -0.8192
  888MOL0     H17199  10.975   9.229   2.390 -3.1806  0.0516  2.2464
  888MOL0     H17200  10.798   8.893   2.745 -0.1149  0.9322 -0.4284
  888MOL0     H17201  10.657   8.845   2.905  1.4140 -0.1340 -1.3991
  888MOL0     H17202  10.293   8.425   4.708 -0.2430 -2.0332 -3.8571
  888MOL0     H17203  10.170   8.279   4.849 -0.0795  0.9984  0.0193
  888MOL0     H17204   9.864   8.098   5.077 -0.5779  0.5544  0.8839
  888MOL0     H17205   9.780   7.891   5.200  2.2809  0.7606 -0.0809
  888MOL0     H17206   9.530   7.636   5.270  0.1089  0.0609  1.5454
  888MOL0     H17207   9.611   7.785   5.296 -0.9121  0.1203  1.3270
  888MOL0     H17208   9.745   7.529   5.185  1.0477 -1.0777  1.3022
  888MOL0     H17209   9.821   7.684   5.222 -0.6064 -0.2128 -3.5200
  888MOL0     H17210   9.687   7.484   5.417  1.2682 -0.7865 -1.3130
  888MOL0     H17211   9.751   7.662   5.456  1.7416  0.9171  0.6879
  888MOL0     H17212   9.880   7.467   5.544  1.4360  0.2161  0.8240
  888MOL0     H17213   9.909   7.427   5.374 -1.6200  0.2670 -0.3152
  888MOL0     H17214  10.149   7.774   5.383 -1.1223  2.6506  3.0837
  888MOL0     H17215   9.611   7.749   4.837  1.9875 -0.4150 -1.1918
  888MOL0     H17216   9.685   7.930   4.719  1.7936 -2.1816 -1.0749
  889MOL0     O17217   3.895   0.427   4.503 -0.0363  0.6770  0.4837
  889MOL0     C17218   3.950   0.446   4.398  0.0927 -1.0095 -0.0799
  889MOL0     O17219   3.949   0.573   4.337  0.6001 -0.1769 -0.4212
  889MOL0     C17220   3.927   0.674   4.424 -0.6440  0.1517 -0.3781
  889MOL0     C17221   3.799   0.739   4.429 -0.3061  0.6066  0.0285
  889MOL0     C17222   3.779   0.854   4.516  0.0978  0.8042  0.0746
  889MOL0     C17223   3.886   0.910   4.588  0.0937 -0.3191  0.0229
  889MOL0     O17224   3.876   1.031   4.662  0.6886 -0.3414  0.3724
  889MOL0     C17225   3.765   1.031   4.760 -0.1523 -0.5091 -0.3200
  889MOL0     C17226   3.781   1.154   4.849 -0.0152 -0.0160  0.5897
  889MOL0     C17227   3.701   1.148   4.970 -0.4719 -0.1348 -0.7379
  889MOL0     C17228   3.722   1.284   5.047  0.4669  0.1707  0.4626
  889MOL0     C17229   3.642   1.288   5.172  0.3494 -0.2464 -0.3168
  889MOL0     C17230   3.706   1.211   5.285  0.7696 -1.0466 -0.6123
  889MOL0     C17231   3.816   1.300   5.363  0.1701 -0.0076  0.7673
  889MOL0     C17232   3.901   1.226   5.466  0.7602 -0.0476 -0.1223
  889MOL0     N17233   3.972   1.112   5.402 -0.1982 -1.2172 -0.4877
  889MOL0     C17234   4.078   1.123   5.321 -1.9682  0.1755 -0.2988
  889MOL0     C17235   4.120   0.989   5.302 -1.1190 -0.4612 -0.3537
  889MOL0     C17236   4.237   0.929   5.226  0.9401  0.6320 -0.5519
  889MOL0     C17237   4.254   0.998   5.086  0.5183  0.7436 -0.0073
  889MOL0     C17238   4.128   0.992   4.993 -0.7376 -0.4658 -0.3607
  889MOL0     C17239   4.097   0.845   4.948  0.0982 -0.4939  0.0742
  889MOL0     O17240   4.012   0.779   5.036  0.5554 -0.4692 -0.1782
  889MOL0     C17241   3.945   0.669   5.004 -0.2463  1.3408 -0.3053
  889MOL0     C17242   3.828   0.643   5.085 -1.2086  1.0614  0.8383
  889MOL0     C17243   3.752   0.534   5.063  0.0086 -0.9117 -0.0493
  889MOL0     C17244   3.787   0.441   4.963 -0.5957  0.9240  0.0508
  889MOL0     C17245   3.713   0.303   4.944 -0.0601 -0.7100 -1.5304
  889MOL0     O17246   3.748   0.218   4.853 -0.2072  0.6460 -0.8503
  889MOL0     C17247   3.678   0.095   4.839  0.2026 -0.6349 -0.3603
  889MOL0     C17248   3.540   0.056   4.838 -0.0805 -0.2420  0.2699
  889MOL0     C17249   3.493  -0.076   4.815 -0.7442 -0.3507  0.1103
  889MOL0     C17250   3.590  -0.173   4.777 -0.6278  0.7273  0.2152
  889MOL0     O17251   3.549  -0.297   4.744 -0.2231 -0.1097 -0.1520
  889MOL0     C17252   3.592  -0.347   4.616  0.1616  0.3679  0.4001
  889MOL0     C17253   3.615  -0.492   4.629  0.3318  0.2391 -0.2188
  889MOL0     C17254   3.478  -0.557   4.635 -0.4116 -0.1961 -0.4974
  889MOL0     C17255   3.476  -0.708   4.581  0.2323 -0.8617 -0.0770
  889MOL0     C17256   3.375  -0.799   4.657 -0.3273 -0.6630 -0.0044
  889MOL0     C17257   3.391  -0.938   4.607 -0.5018  0.9953 -0.6936
  889MOL0     C17258   3.341  -0.964   4.466  0.1463  0.1204  0.0202
  889MOL0     C17259   3.366  -1.109   4.417  0.0665 -1.0713 -0.3018
  889MOL0    Cl17260   3.261  -1.226   4.529 -0.0249  0.2347  0.0434
  889MOL0     C17261   3.729  -0.145   4.791 -0.2647  1.3066  0.0132
  889MOL0     C17262   3.767  -0.011   4.822  0.4481  0.3498  0.5454
  889MOL0     O17263   3.617   0.288   5.025 -0.3893 -0.2009  0.2637
  889MOL0     C17264   3.902   0.470   4.882 -0.5066 -0.4733  0.7562
  889MOL0     C17265   3.984   0.581   4.901 -0.4646  1.1023  0.2031
  889MOL0     N17266   4.028   0.902   5.364 -0.6443  0.6584 -0.0888
  889MOL0     N17267   3.957   0.981   5.440  0.9129  0.4746  0.3228
  889MOL0     C17268   4.008   0.837   4.583  0.0539  0.2694  0.0514
  889MOL0     C17269   4.025   0.729   4.498  1.0889  0.8794 -0.3368
  889MOL0     C17270   4.013   0.336   4.327 -0.5855  0.5341 -0.3404
  889MOL0     C17271   4.093   0.342   4.218 -0.1284 -0.2937 -0.9372
  889MOL0     C17272   4.145   0.223   4.150 -0.6291 -0.1414 -1.0261
  889MOL0     C17273   4.110   0.099   4.190  0.0495  0.7106  0.2518
  889MOL0     O17274   4.173  -0.020   4.161  0.3065  0.1899 -0.4836
  889MOL0     C17275   4.287  -0.030   4.075  0.1751 -0.3982 -0.4866
  889MOL0     C17276   4.420   0.000   4.156 -0.1196 -0.1322 -0.0552
  889MOL0     C17277   4.552   0.049   4.082  0.6849  0.4435  0.8130
  889MOL0     C17278   4.564   0.197   4.040  0.1484  0.2780 -0.1680
  889MOL0     C17279   4.532   0.293   4.146  0.0836 -0.9175  1.1236
  889MOL0     C17280   4.520   0.343   4.255  1.2025 -1.9539  0.2813
  889MOL0     C17281   4.023   0.091   4.302 -1.0658 -0.0606 -0.1802
  889MOL0     C17282   3.982   0.207   4.378 -0.2411  0.4219  0.5156
  889MOL0     H17283   3.708   0.708   4.379 -0.0163  1.3555 -0.9967
  889MOL0     H17284   3.684   0.907   4.520 -0.6205 -0.3135 -1.1535
  889MOL0     H17285   3.791   0.950   4.828 -0.8656 -0.6941 -0.2550
  889MOL0     H17286   3.664   1.007   4.724  0.3750 -1.4508 -1.2273
  889MOL0     H17287   3.747   1.236   4.785 -1.5214  0.3753  1.8374
  889MOL0     H17288   3.883   1.186   4.870 -0.3357  1.5563 -0.1164
  889MOL0     H17289   3.732   1.063   5.031 -1.6308 -0.2772 -0.3319
  889MOL0     H17290   3.593   1.131   4.963 -0.8009 -0.0312  2.6914
  889MOL0     H17291   3.826   1.288   5.082  1.0510  1.9791 -1.2909
  889MOL0     H17292   3.717   1.364   4.973  0.5268  0.3082  0.6046
  889MOL0     H17293   3.546   1.242   5.146  0.6600 -0.1836 -1.6405
  889MOL0     H17294   3.625   1.389   5.211 -0.0663 -0.3741 -0.1534
  889MOL0     H17295   3.764   1.124   5.253  1.6918 -0.3420 -0.8896
  889MOL0     H17296   3.627   1.180   5.354 -1.0425  1.7046 -1.2915
  889MOL0     H17297   3.880   1.347   5.288 -3.8179  0.3633 -2.7992
  889MOL0     H17298   3.759   1.380   5.411  0.7707  1.0984 -0.3186
  889MOL0     H17299   3.835   1.193   5.546  2.2541  1.3865  1.8048
  889MOL0     H17300   3.972   1.297   5.511  0.5036 -0.4220  0.9042
  889MOL0     H17301   4.117   1.217   5.283  0.2865  0.0897  1.5536
  889MOL0     H17302   4.212   0.823   5.215  3.7352 -0.2260  0.6054
  889MOL0     H17303   4.333   0.944   5.275 -0.2073  3.3624  1.1315
  889MOL0     H17304   4.334   0.939   5.040  1.6827  0.3061  2.3901
  889MOL0     H17305   4.300   1.096   5.101  2.2958  0.0189 -0.4425
  889MOL0     H17306   4.035   1.026   5.041  0.3872  2.2711  0.0692
  889MOL0     H17307   4.150   1.052   4.905 -2.2491 -0.1075 -0.5190
  889MOL0     H17308   4.194   0.796   4.964 -0.0727 -0.1695  2.6734
  889MOL0     H17309   4.069   0.835   4.843 -1.3160 -1.7449  0.5421
  889MOL0     H17310   3.796   0.713   5.162 -1.6244  1.1271  0.6109
  889MOL0     H17311   3.663   0.518   5.123 -0.8708  0.4645 -0.9381
  889MOL0     H17312   3.462   0.125   4.867 -1.6082 -1.1606 -1.4413
  889MOL0     H17313   3.387  -0.097   4.823 -1.5266  1.2313 -3.8078
  889MOL0     H17314   3.687  -0.318   4.572 -0.3998  0.1573 -1.0142
  889MOL0     H17315   3.516  -0.318   4.543  0.1209 -0.0370  0.2789
  889MOL0     H17316   3.669  -0.516   4.721  3.7853  0.1055 -2.0896
  889MOL0     H17317   3.670  -0.532   4.543 -3.5783 -3.5800 -1.2971
  889MOL0     H17318   3.402  -0.501   4.580 -3.2961 -0.7369  2.6335
  889MOL0     H17319   3.457  -0.544   4.741 -1.2923 -0.4264 -0.6351
  889MOL0     H17320   3.431  -0.702   4.481 -2.3105 -0.0470  1.0497
  889MOL0     H17321   3.578  -0.749   4.574  0.7523  0.0890  1.3862
  889MOL0     H17322   3.270  -0.776   4.639 -0.4299 -1.4075 -0.3799
  889MOL0     H17323   3.392  -0.791   4.764 -0.5584  0.0962 -0.0152
  889MOL0     H17324   3.356  -1.018   4.672  1.6156  3.2708  3.6282
  889MOL0     H17325   3.497  -0.966   4.610 -0.4860  1.1258  0.3831
  889MOL0     H17326   3.233  -0.967   4.483  0.4199 -0.2265  1.8069
  889MOL0     H17327   3.386  -0.891   4.398  3.0612  2.5218  4.1234
  889MOL0     H17328   3.472  -1.135   4.421  0.5509  0.7983  3.1892
  889MOL0     H17329   3.317  -1.131   4.321 -1.6789 -0.3189  0.3671
  889MOL0     H17330   3.802  -0.222   4.773 -0.6290  1.0643 -0.4662
  889MOL0     H17331   3.875  -0.004   4.820  0.6907 -2.5305 -0.5135
  889MOL0     H17332   3.938   0.406   4.802 -0.9739 -0.0264  0.1740
  889MOL0     H17333   4.071   0.614   4.846  0.2387 -0.9610 -0.0218
  889MOL0     H17334   4.101   0.873   4.626  1.0783 -2.3656  0.2330
  889MOL0     H17335   4.128   0.699   4.481  0.5048 -2.9059  1.7169
  889MOL0     H17336   4.116   0.444   4.190  0.8787 -1.1226 -3.3967
  889MOL0     H17337   4.221   0.237   4.074  1.7061 -3.2780  0.5348
  889MOL0     H17338   4.270   0.030   3.986  0.5767 -0.5969 -0.7003
  889MOL0     H17339   4.296  -0.135   4.046  0.6590 -1.0786  1.8511
  889MOL0     H17340   4.411   0.084   4.226  2.2743  1.4429 -1.4797
  889MOL0     H17341   4.433  -0.083   4.226 -0.2847  1.5336  2.0605
  889MOL0     H17342   4.568  -0.009   3.991 -0.4166  1.7115 -0.2275
  889MOL0     H17343   4.641   0.039   4.145  2.1225  1.3395 -0.9803
  889MOL0     H17344   4.673   0.208   4.035  0.1528  0.6382  0.6292
  889MOL0     H17345   4.515   0.215   3.944 -1.4933 -2.6558 -0.0027
  889MOL0     H17346   4.496   0.392   4.347 -2.5029 -0.9918 -1.0249
  889MOL0     H17347   3.987  -0.007   4.331  0.4503 -1.3396 -2.3133
  889MOL0     H17348   3.921   0.178   4.463  0.1970  2.8862  1.7616
  890MOL0     O17349  11.050   1.229   7.657 -0.1568 -0.4479  0.7264
  890MOL0     C17350  10.934   1.216   7.695 -0.3388  0.6013  0.2080
  890MOL0     O17351  10.890   1.150   7.813 -0.4799 -0.2154 -0.5326
  890MOL0     C17352  10.985   1.099   7.897 -2.1860  0.3151  0.3262
  890MOL0     C17353  10.984   0.955   7.917  1.1495 -0.2533  1.0603
  890MOL0     C17354  11.052   0.904   8.029 -0.8685 -0.0879  0.7547
  890MOL0     C17355  11.134   0.980   8.111  0.3652  0.2787  0.0428
  890MOL0     O17356  11.189   0.918   8.221 -0.2605 -0.3981  0.0650
  890MOL0     C17357  11.276   0.991   8.314  0.0487  0.1726 -0.3231
  890MOL0     C17358  11.358   0.906   8.416 -0.4135  0.0073 -0.8986
  890MOL0     C17359  11.441   0.784   8.359  1.1060  0.1800 -0.3257
  890MOL0     C17360  11.529   0.805   8.237  0.4583  0.3730  0.4220
  890MOL0     C17361  11.616   0.688   8.190 -0.1921  0.2957  0.4939
  890MOL0     C17362  11.517   0.569   8.182  0.1611 -0.3755 -0.4260
  890MOL0     C17363  11.590   0.456   8.112  0.1438 -0.6799  0.4793
  890MOL0     C17364  11.514   0.321   8.102  0.6805 -0.2310  0.7055
  890MOL0     N17365  11.479   0.274   7.965 -0.6568  0.3592  0.4647
  890MOL0     C17366  11.388   0.333   7.872 -0.8081 -0.0822  0.6665
  890MOL0     C17367  11.399   0.256   7.762 -0.0715  0.5387 -0.1511
  890MOL0     C17368  11.347   0.262   7.617 -0.0532 -0.4152 -0.1805
  890MOL0     C17369  11.250   0.150   7.579  0.3338  0.7707 -0.1435
  890MOL0     C17370  11.117   0.136   7.653 -0.7384 -0.1361 -0.2365
  890MOL0     C17371  11.005   0.058   7.580  0.1222  0.6966  1.5524
  890MOL0     O17372  10.965   0.128   7.463  1.4249 -0.3856 -0.5277
  890MOL0     C17373  10.834   0.119   7.416 -0.0805 -0.0220  0.3123
  890MOL0     C17374  10.786   0.026   7.335  0.8830 -0.1565  0.4724
  890MOL0     C17375  10.649   0.003   7.313 -0.1579  0.9832  0.2319
  890MOL0     C17376  10.548   0.071   7.376 -0.7205 -0.8242  0.3212
  890MOL0     C17377  10.402   0.047   7.359 -0.0879 -0.1220  0.5398
  890MOL0     O17378  10.369  -0.058   7.284  0.6470 -0.2340 -0.1785
  890MOL0     C17379  10.247  -0.055   7.242  1.2135  0.1567 -0.2574
  890MOL0     C17380  10.209   0.037   7.148  0.6229  0.3649  1.2747
  890MOL0     C17381  10.074   0.017   7.091 -0.7232 -0.0688 -0.3491
  890MOL0     C17382   9.982  -0.087   7.126 -1.5700  0.0395 -0.7998
  890MOL0     O17383   9.857  -0.114   7.076 -0.1130  0.4245 -0.8430
  890MOL0     C17384   9.791  -0.002   7.020 -0.2156  0.5540 -1.6498
  890MOL0     C17385   9.646  -0.045   7.015 -0.8521  0.4709  0.1439
  890MOL0     C17386   9.606  -0.024   6.870 -1.0391 -0.7420 -0.1422
  890MOL0     C17387   9.470  -0.077   6.840 -0.0845  0.2612 -0.9030
  890MOL0     C17388   9.410  -0.055   6.702 -0.9643  0.5186  0.5712
  890MOL0     C17389   9.276  -0.132   6.689  0.4335 -0.5374  0.4737
  890MOL0     C17390   9.215  -0.099   6.549 -0.3745  0.4679 -0.7817
  890MOL0     C17391   9.074  -0.167   6.536 -1.9061 -0.4528 -0.2187
  890MOL0    Cl17392   8.968  -0.048   6.621 -0.0040  0.2151  0.3397
  890MOL0     C17393  10.038  -0.178   7.215  0.8867 -0.5185 -0.9538
  890MOL0     C17394  10.161  -0.163   7.276  0.7067  0.0366 -0.0136
  890MOL0     O17395  10.324   0.133   7.399 -0.1707  0.2610  0.4755
  890MOL0     C17396  10.598   0.177   7.458  0.1522  0.1155 -0.0212
  890MOL0     C17397  10.740   0.205   7.475  0.3419 -0.3500 -0.5067
  890MOL0     N17398  11.468   0.143   7.792 -0.2582  0.8507 -0.7134
  890MOL0     N17399  11.509   0.144   7.919 -0.5256 -0.1326 -0.5866
  890MOL0     C17400  11.148   1.119   8.082  0.0148 -0.0342 -0.4768
  890MOL0     C17401  11.061   1.176   7.984 -0.1933  0.1274  0.0702
  890MOL0     C17402  10.825   1.258   7.595 -0.6947  1.0072  0.2524
  890MOL0     C17403  10.691   1.248   7.637  1.0012  0.9972  0.8575
  890MOL0     C17404  10.600   1.290   7.538 -0.2734  0.0934  0.2005
  890MOL0     C17405  10.631   1.360   7.416  0.0305  0.2838 -0.1639
  890MOL0     O17406  10.543   1.402   7.319 -0.5216  0.1371 -0.3148
  890MOL0     C17407  10.412   1.373   7.344 -0.0302  0.3554  0.6773
  890MOL0     C17408  10.312   1.406   7.224  0.1616 -0.1550 -0.4559
  890MOL0     C17409  10.322   1.561   7.209 -0.7590  1.0050  0.4439
  890MOL0     C17410  10.247   1.613   7.085 -0.7094 -1.0168 -0.2368
  890MOL0     C17411  10.313   1.554   6.965  0.3556  1.2613 -0.1820
  890MOL0     C17412  10.369   1.509   6.869 -0.5411 -0.3512  0.2592
  890MOL0     C17413  10.769   1.358   7.386  0.6524 -0.9354 -0.4857
  890MOL0     C17414  10.861   1.315   7.474  0.6555 -0.0006  0.2863
  890MOL0     H17415  10.916   0.887   7.867 -1.6295  1.6243  1.9934
  890MOL0     H17416  11.035   0.804   8.067  1.5914 -1.4274 -1.3630
  890MOL0     H17417  11.215   1.065   8.367  2.5526  1.7689  0.5266
  890MOL0     H17418  11.361   1.042   8.267  0.4177  1.2801  1.4306
  890MOL0     H17419  11.292   0.854   8.487 -0.0291  1.5354  0.6495
  890MOL0     H17420  11.417   0.974   8.478 -0.2241 -0.3514 -0.6787
  890MOL0     H17421  11.365   0.707   8.344  0.2062  1.6054 -3.9462
  890MOL0     H17422  11.503   0.744   8.441 -0.8500 -0.6573  0.8128
  890MOL0     H17423  11.457   0.827   8.158  0.7148  2.1055  0.6257
  890MOL0     H17424  11.594   0.892   8.253 -0.9123  1.5712 -0.3121
  890MOL0     H17425  11.700   0.657   8.253  1.5357  3.4261 -0.0622
  890MOL0     H17426  11.650   0.715   8.090  0.3886  1.6000  1.0264
  890MOL0     H17427  11.422   0.596   8.134  1.6021  1.5029 -2.3956
  890MOL0     H17428  11.496   0.533   8.283  2.2727 -2.1233 -0.5369
  890MOL0     H17429  11.626   0.484   8.012 -0.6607  1.0010  0.6158
  890MOL0     H17430  11.679   0.434   8.172 -0.6864 -2.0936  1.2495
  890MOL0     H17431  11.426   0.314   8.166  1.1095 -0.6932  1.2608
  890MOL0     H17432  11.581   0.247   8.149  0.6104 -0.1968  0.8605
  890MOL0     H17433  11.327   0.422   7.874 -1.8412 -0.7860  1.5912
  890MOL0     H17434  11.420   0.263   7.535 -1.2922 -1.3737 -1.3441
  890MOL0     H17435  11.280   0.349   7.615 -1.3889 -1.4009 -0.0081
  890MOL0     H17436  11.302   0.054   7.570  0.6804  0.9680 -0.2509
  890MOL0     H17437  11.212   0.160   7.476  2.3233 -4.2884 -1.6535
  890MOL0     H17438  11.142   0.089   7.749  0.5664 -1.8148 -1.3414
  890MOL0     H17439  11.081   0.236   7.679  0.9113 -0.2104  2.8396
  890MOL0     H17440  10.924   0.026   7.646  0.9236 -2.4209  1.1558
  890MOL0     H17441  11.030  -0.042   7.545  2.1275  1.3888  0.8310
  890MOL0     H17442  10.848  -0.047   7.284 -1.5918 -0.9283 -1.6395
  890MOL0     H17443  10.611  -0.071   7.244 -0.5996  2.1235 -0.7833
  890MOL0     H17444  10.284   0.112   7.123  1.3048 -0.6235  0.2910
  890MOL0     H17445  10.055   0.091   7.014 -1.5908 -1.7115 -1.7947
  890MOL0     H17446   9.838   0.029   6.926  5.1343 -1.4017  0.0164
  890MOL0     H17447   9.776   0.089   7.078 -3.0012 -0.4392 -0.6597
  890MOL0     H17448   9.582   0.011   7.084  1.9777 -0.0801  3.4763
  890MOL0     H17449   9.633  -0.148   7.050 -1.4109  0.4600 -0.0853
  890MOL0     H17450   9.679  -0.081   6.813 -1.9904  2.2561 -4.9091
  890MOL0     H17451   9.609   0.080   6.837  0.2288 -1.4198 -2.3826
  890MOL0     H17452   9.471  -0.184   6.862 -4.0918 -0.4729 -3.0851
  890MOL0     H17453   9.398  -0.042   6.914  2.5586 -1.6526  2.8679
  890MOL0     H17454   9.481  -0.095   6.628 -1.5823  0.7905 -0.1849
  890MOL0     H17455   9.408   0.052   6.680 -1.9947  0.2018 -1.0532
  890MOL0     H17456   9.210  -0.093   6.767 -1.1585  0.8401 -1.4266
  890MOL0     H17457   9.292  -0.240   6.687  2.5307 -0.2719 -1.4752
  890MOL0     H17458   9.198   0.008   6.533 -2.0138  0.0703 -1.9752
  890MOL0     H17459   9.286  -0.136   6.475  0.7205  1.6162 -0.3529
  890MOL0     H17460   9.073  -0.266   6.581 -0.4512 -1.0053 -1.3151
  890MOL0     H17461   9.044  -0.179   6.431 -0.5660 -2.3263 -0.4331
  890MOL0     H17462   9.981  -0.270   7.225  0.3806 -0.0703  0.5112
  890MOL0     H17463  10.188  -0.247   7.340 -3.0964 -1.8945 -0.6537
  890MOL0     H17464  10.533   0.236   7.521  3.4278  3.3064  0.6748
  890MOL0     H17465  10.771   0.259   7.564 -0.1461  0.6211 -0.9156
  890MOL0     H17466  11.201   1.191   8.143  1.1417 -1.4815  0.3019
  890MOL0     H17467  11.049   1.284   7.986 -2.5684 -0.0258 -1.5312
  890MOL0     H17468  10.657   1.208   7.732 -2.6370  0.9973 -0.2661
  890MOL0     H17469  10.500   1.258   7.566 -0.6948  1.2961  0.1048
  890MOL0     H17470  10.381   1.422   7.436  0.9773  0.7972  0.7887
  890MOL0     H17471  10.393   1.268   7.366 -1.7018  0.4792  0.0081
  890MOL0     H17472  10.338   1.352   7.132 -1.7538 -3.3740  0.7159
  890MOL0     H17473  10.210   1.393   7.262 -0.6882  0.4230 -2.4133
  890MOL0     H17474  10.427   1.591   7.212  0.4943 -2.8231  3.4923
  890MOL0     H17475  10.282   1.607   7.300  1.1801  1.8141  0.9345
  890MOL0     H17476  10.141   1.585   7.095 -1.5941  1.2352 -2.1500
  890MOL0     H17477  10.246   1.722   7.076 -1.9126 -1.1784 -3.0698
  890MOL0     H17478  10.402   1.462   6.779 -1.3282  0.6759 -0.5843
  890MOL0     H17479  10.802   1.404   7.293 -0.2084 -0.6266 -0.6457
  890MOL0     H17480  10.965   1.318   7.444  1.1703 -1.2270  1.7604
  891MOL0     O17481   8.369  11.284   7.571  0.1931  0.3515 -0.2909
  891MOL0     C17482   8.277  11.204   7.551 -0.5286 -0.3173  0.3316
  891MOL0     O17483   8.237  11.108   7.648  0.5087  0.0650  0.4646
  891MOL0     C17484   8.301  11.086   7.763 -0.6937 -0.4450  0.1490
  891MOL0     C17485   8.343  10.951   7.772 -1.0807 -0.3613 -0.8980
  891MOL0     C17486   8.439  10.913   7.876 -0.5046  0.0522  0.4508
  891MOL0     C17487   8.480  11.007   7.978  0.7904  0.8860 -0.9202
  891MOL0     O17488   8.577  10.958   8.053  0.3258  0.9195 -0.4312
  891MOL0     C17489   8.575  11.002   8.193  0.7324 -0.2649  0.2705
  891MOL0     C17490   8.716  11.045   8.233  0.4869  0.1180 -0.1093
  891MOL0     C17491   8.746  11.194   8.192  0.7584  0.4122 -0.8725
  891MOL0     C17492   8.784  11.196   8.049 -0.4534 -0.0284 -0.0531
  891MOL0     C17493   8.816  11.327   7.985  0.3910 -0.0964 -0.1209
  891MOL0     C17494   8.847  11.299   7.838  0.1625 -0.5486  0.6582
  891MOL0     C17495   8.782  11.401   7.743  0.0101  0.6942 -0.7334
  891MOL0     C17496   8.632  11.405   7.748  0.2880  0.4993 -0.0763
  891MOL0     N17497   8.575  11.505   7.660  0.4430 -0.0975 -0.7418
  891MOL0     C17498   8.571  11.507   7.525  0.1589 -0.2848  0.1010
  891MOL0     C17499   8.511  11.623   7.483  0.6300  0.3497 -0.5951
  891MOL0     C17500   8.496  11.685   7.353  0.3386 -0.3438  0.3738
  891MOL0     C17501   8.587  11.809   7.338 -0.2538 -0.0641 -0.3141
  891MOL0     C17502   8.543  11.940   7.402 -0.7907  0.2224  0.3926
  891MOL0     C17503   8.632  12.064   7.382  1.1824 -1.2490  0.1321
  891MOL0     O17504   8.638  12.106   7.244 -0.5002 -0.3914  1.0884
  891MOL0     C17505   8.718  12.212   7.202 -0.2923 -0.6395 -0.9247
  891MOL0     C17506   8.820  12.259   7.277  0.4296 -0.0106  0.0047
  891MOL0     C17507   8.890  12.372   7.221  0.0861 -1.0068 -0.3064
  891MOL0     C17508   8.852  12.442   7.108  0.1502 -0.1810  0.3088
  891MOL0     C17509   8.939  12.551   7.046 -0.8435 -0.5100 -0.5641
  891MOL0     O17510   8.878  12.638   6.960  0.3052  1.1558  0.4730
  891MOL0     C17511   8.955  12.734   6.903  0.2765  0.1141  0.2985
  891MOL0     C17512   8.925  12.870   6.936 -0.5619  0.9680  0.2293
  891MOL0     C17513   8.994  12.969   6.872 -0.6316 -0.4649 -0.2344
  891MOL0     C17514   9.091  12.953   6.780  0.7722  0.0767  0.3545
  891MOL0     O17515   9.155  13.066   6.735  0.0974 -0.3610  0.3199
  891MOL0     C17516   9.265  13.054   6.646  0.4912  0.4740  0.7579
  891MOL0     C17517   9.391  12.988   6.706  0.1484  0.3115 -0.5021
  891MOL0     C17518   9.474  12.930   6.595  0.1718 -0.4085 -0.0826
  891MOL0     C17519   9.601  12.865   6.664  0.0851 -0.5469 -0.2700
  891MOL0     C17520   9.716  12.971   6.690  0.3145  0.0321  0.1622
  891MOL0     C17521   9.807  12.931   6.810  0.0704 -1.3113 -0.2402
  891MOL0     C17522   9.910  13.030   6.856  0.0356 -0.3874 -0.5029
  891MOL0     C17523   9.855  13.164   6.881 -0.7939  0.4568 -0.6221
  891MOL0    Cl17524   9.985  13.242   6.969  0.2346 -0.0919  0.7123
  891MOL0     C17525   9.113  12.828   6.741 -0.5894  0.4833 -0.9700
  891MOL0     C17526   9.054  12.718   6.805 -0.1816  0.2497  1.1778
  891MOL0     O17527   9.059  12.530   7.067  0.1076  0.1235 -0.1472
  891MOL0     C17528   8.730  12.403   7.054 -0.1166 -0.7475  0.1162
  891MOL0     C17529   8.669  12.284   7.096 -0.7267  0.0771  1.0444
  891MOL0     N17530   8.469  11.688   7.602  0.5108 -0.4426  0.6047
  891MOL0     N17531   8.506  11.611   7.701 -0.2014 -0.0581 -0.1484
  891MOL0     C17532   8.409  11.127   7.981 -0.8405 -0.2741 -0.3595
  891MOL0     C17533   8.339  11.171   7.868  0.3041  0.0386 -0.4436
  891MOL0     C17534   8.210  11.211   7.416 -0.8991 -0.4137  0.3202
  891MOL0     C17535   8.136  11.099   7.372  0.4524 -0.1578 -0.0854
  891MOL0     C17536   8.084  11.085   7.243 -0.4971 -0.3731 -0.0960
  891MOL0     C17537   8.115  11.192   7.149  0.2361 -0.0335 -0.1356
  891MOL0     O17538   8.073  11.200   7.017 -0.2588 -0.5380  0.2265
  891MOL0     C17539   7.988  11.095   6.966 -0.0088  0.2150  1.4051
  891MOL0     C17540   7.981  11.102   6.815  0.2335  0.2002 -0.1806
  891MOL0     C17541   7.931  11.245   6.779  0.0352 -0.0406 -0.2993
  891MOL0     C17542   7.944  11.271   6.628  0.6159  0.8625  0.1031
  891MOL0     C17543   8.079  11.268   6.566  0.8040  0.0813  0.2841
  891MOL0     C17544   8.196  11.257   6.527  0.1248 -0.4541 -0.1356
  891MOL0     C17545   8.197  11.300   7.196  0.0659  0.2068  1.1810
  891MOL0     C17546   8.242  11.306   7.329 -1.1522 -0.1610 -0.1369
  891MOL0     H17547   8.313  10.875   7.702 -0.9323  0.3661 -1.7674
  891MOL0     H17548   8.461  10.807   7.881  2.7840  0.6687  1.2235
  891MOL0     H17549   8.530  10.924   8.256  0.3051 -0.5498 -0.3749
  891MOL0     H17550   8.516  11.091   8.214  0.2359 -0.7653  1.0332
  891MOL0     H17551   8.784  10.976   8.182  2.4864  1.7456  0.1951
  891MOL0     H17552   8.725  11.038   8.342 -3.5822 -1.5370  0.2759
  891MOL0     H17553   8.835  11.228   8.247 -0.4562 -2.3632  3.3095
  891MOL0     H17554   8.661  11.260   8.212  1.7674  2.1288 -1.9487
  891MOL0     H17555   8.872  11.131   8.044  1.5492  2.3729  1.3867
  891MOL0     H17556   8.699  11.152   7.996 -1.2877  0.9331  0.4662
  891MOL0     H17557   8.905  11.373   8.028  1.3559 -0.4559 -1.6418
  891MOL0     H17558   8.727  11.385   8.011  0.2187 -0.7860  0.8810
  891MOL0     H17559   8.824  11.197   7.809  0.4067  0.1194 -2.2559
  891MOL0     H17560   8.956  11.293   7.832  0.3319  0.7463  1.8552
  891MOL0     H17561   8.824  11.495   7.779 -0.1545 -0.1623  1.8959
  891MOL0     H17562   8.819  11.383   7.642  0.2167 -3.6764 -0.0951
  891MOL0     H17563   8.615  11.422   7.855 -1.1245  2.3731 -0.5315
  891MOL0     H17564   8.588  11.308   7.720  2.3256  0.2540 -2.8226
  891MOL0     H17565   8.614  11.431   7.461 -0.3590 -0.0462 -0.5384
  891MOL0     H17566   8.396  11.722   7.327  0.7852 -0.4804 -1.7474
  891MOL0     H17567   8.515  11.603   7.283 -0.9258 -2.0323  1.9102
  891MOL0     H17568   8.597  11.830   7.231  4.1935  2.4631  0.3588
  891MOL0     H17569   8.689  11.790   7.373 -1.0510 -1.7417  1.2732
  891MOL0     H17570   8.441  11.965   7.373 -0.9295  0.5678  1.1619
  891MOL0     H17571   8.542  11.923   7.510 -2.8026 -0.4171  0.3080
  891MOL0     H17572   8.733  12.042   7.416  1.7837  0.2981 -0.5356
  891MOL0     H17573   8.589  12.148   7.437  0.4784 -0.7800 -1.0889
  891MOL0     H17574   8.851  12.225   7.375  1.1692 -0.8753 -0.5124
  891MOL0     H17575   8.985  12.394   7.269  1.4860 -0.7438 -3.0292
  891MOL0     H17576   8.858  12.890   7.019 -0.0023  1.0795  0.6674
  891MOL0     H17577   8.980  13.066   6.919  3.2731 -0.4572  1.2283
  891MOL0     H17578   9.283  13.155   6.608 -2.9218  0.0800 -2.4972
  891MOL0     H17579   9.230  12.999   6.558  1.8539 -0.5894  0.8553
  891MOL0     H17580   9.368  12.924   6.792  2.7083 -0.7415 -0.5080
  891MOL0     H17581   9.449  13.061   6.763 -0.3157 -2.4547  4.0709
  891MOL0     H17582   9.490  13.027   6.547  0.1825  0.7459  2.1159
  891MOL0     H17583   9.422  12.855   6.534  2.7819 -4.1552  1.8913
  891MOL0     H17584   9.579  12.832   6.766 -1.0915  3.2681  0.8547
  891MOL0     H17585   9.642  12.778   6.611 -0.9877 -2.2720  1.5974
  891MOL0     H17586   9.668  13.067   6.708  2.6687  1.0328  1.5511
  891MOL0     H17587   9.778  12.993   6.603 -1.0831  2.4290 -0.3074
  891MOL0     H17588   9.862  12.840   6.782 -0.4109 -1.3747 -1.0297
  891MOL0     H17589   9.735  12.900   6.886  1.4012 -2.4490  0.5892
  891MOL0     H17590   9.966  12.994   6.943  0.5610  0.7788 -0.3353
  891MOL0     H17591   9.972  13.040   6.767  0.6564 -2.9607 -0.4379
  891MOL0     H17592   9.766  13.156   6.943 -0.0138  1.1477  0.6442
  891MOL0     H17593   9.838  13.220   6.789  0.4700  0.5854 -0.7946
  891MOL0     H17594   9.189  12.819   6.664  1.8877  1.1742  1.2625
  891MOL0     H17595   9.088  12.619   6.778 -1.9390 -0.6669  2.1467
  891MOL0     H17596   8.696  12.467   6.973  3.3718 -1.6715 -2.3162
  891MOL0     H17597   8.583  12.246   7.041  0.7404 -1.8743 -0.0132
  891MOL0     H17598   8.426  11.203   8.057 -0.0978  0.9554 -1.6983
  891MOL0     H17599   8.302  11.273   7.862 -0.1216 -0.1996 -3.5274
  891MOL0     H17600   8.117  11.019   7.443 -1.8720  2.1052  2.0180
  891MOL0     H17601   8.024  10.998   7.217  2.1858 -1.3105 -4.0969
  891MOL0     H17602   7.885  11.112   7.000 -0.7000 -2.5561  0.9348
  891MOL0     H17603   8.017  10.993   6.993  3.5475  0.7445  0.0802
  891MOL0     H17604   8.076  11.083   6.766  1.5698  1.3865  1.8076
  891MOL0     H17605   7.909  11.025   6.784 -1.3414  1.6334 -0.2459
  891MOL0     H17606   7.985  11.322   6.835 -3.4427  0.0558  3.3954
  891MOL0     H17607   7.826  11.263   6.803  0.2516  1.9885 -0.6946
  891MOL0     H17608   7.876  11.213   6.566  1.9657 -1.0338  0.3196
  891MOL0     H17609   7.917  11.376   6.616  1.0932  0.9048 -0.6253
  891MOL0     H17610   8.301  11.247   6.505  0.3679  1.6225 -0.0884
  891MOL0     H17611   8.225  11.380   7.128 -0.2841 -2.1957 -1.9747
  891MOL0     H17612   8.315  11.382   7.353 -2.0487  0.3761  0.9574
  892MOL0     O17613   5.645   7.397   3.048 -0.5809  0.0621 -0.2193
  892MOL0     C17614   5.633   7.515   3.009  0.0598  0.5833 -0.0251
  892MOL0     O17615   5.627   7.629   3.093 -0.2493 -0.5196  0.0612
  892MOL0     C17616   5.662   7.629   3.221  0.5443 -0.9675 -0.2859
  892MOL0     C17617   5.613   7.731   3.311 -0.1930  0.0299  0.0656
  892MOL0     C17618   5.662   7.732   3.448  0.7057  0.4244  1.0591
  892MOL0     C17619   5.733   7.630   3.499 -0.2990 -0.1481  1.2269
  892MOL0     O17620   5.780   7.643   3.624  0.0566  0.0625 -0.1071
  892MOL0     C17621   5.917   7.600   3.655 -0.6643 -0.6570  0.1942
  892MOL0     C17622   6.008   7.715   3.625  0.2570  0.5745  1.3745
  892MOL0     C17623   5.998   7.834   3.724  1.6709  0.6367  0.4522
  892MOL0     C17624   6.093   7.948   3.696 -0.2793 -0.9052 -0.4798
  892MOL0     C17625   6.051   8.074   3.774  0.4089  0.2141  0.4013
  892MOL0     C17626   6.179   8.171   3.770  1.0029  1.6463 -0.4206
  892MOL0     C17627   6.138   8.299   3.848  0.8442 -0.0171 -1.0463
  892MOL0     C17628   6.243   8.399   3.831  0.0110  0.0603 -0.0050
  892MOL0     N17629   6.208   8.531   3.888  0.4616 -0.0876  0.3054
  892MOL0     C17630   6.164   8.551   4.018 -1.3300 -0.6735  0.4312
  892MOL0     C17631   6.102   8.678   4.018 -0.0561  0.1363  0.1172
  892MOL0     C17632   6.048   8.757   4.139  0.3366 -0.4578  0.2994
  892MOL0     C17633   5.917   8.715   4.183  0.3817  0.0942 -1.0276
  892MOL0     C17634   5.836   8.840   4.250 -0.4338  0.2895 -0.7860
  892MOL0     C17635   5.917   8.894   4.381  0.5117 -0.1618  0.2017
  892MOL0     O17636   5.804   8.960   4.445 -0.2636 -0.6373 -0.6292
  892MOL0     C17637   5.816   9.010   4.572  0.9882  0.1629 -0.5995
  892MOL0     C17638   5.926   9.011   4.655 -0.3687  0.1134  0.2967
  892MOL0     C17639   5.936   9.077   4.780  0.5765  0.1390  0.5445
  892MOL0     C17640   5.813   9.138   4.821  0.3939  0.4493 -0.3481
  892MOL0     C17641   5.818   9.218   4.941 -0.3904  0.9805 -1.4918
  892MOL0     O17642   5.913   9.183   5.028 -0.1128 -0.7380 -0.2785
  892MOL0     C17643   5.942   9.273   5.125  0.3042 -0.0138  1.0929
  892MOL0     C17644   5.957   9.416   5.100  0.3889  0.1393  0.3475
  892MOL0     C17645   5.987   9.505   5.202  0.0866  0.5288 -1.2386
  892MOL0     C17646   6.022   9.442   5.332  0.8469 -0.9016 -0.0068
  892MOL0     O17647   6.040   9.524   5.438 -0.0471  0.2802  0.6967
  892MOL0     C17648   6.071   9.660   5.429 -0.2874  0.0031 -0.0242
  892MOL0     C17649   6.109   9.727   5.563  0.3541  0.2623 -0.8319
  892MOL0     C17650   6.236   9.670   5.632 -0.0261 -0.0350 -0.4392
  892MOL0     C17651   6.271   9.731   5.762  0.5281 -0.4724  0.6644
  892MOL0     C17652   6.177   9.678   5.875  0.3627 -0.3334 -0.7606
  892MOL0     C17653   6.230   9.737   6.011 -0.0501  0.2941  0.5613
  892MOL0     C17654   6.206   9.878   6.033 -0.0732 -0.5516 -0.2436
  892MOL0     C17655   6.215   9.933   6.169 -0.8172  0.6346 -1.0619
  892MOL0    Cl17656   6.102   9.866   6.291 -0.3421 -0.2127 -0.1148
  892MOL0     C17657   6.024   9.305   5.354 -0.5950 -0.1523 -0.1266
  892MOL0     C17658   5.986   9.220   5.249 -0.3130  0.6969  0.9557
  892MOL0     O17659   5.740   9.308   4.946  0.2530  0.2005  0.3191
  892MOL0     C17660   5.693   9.143   4.737 -0.6089 -0.1599  0.9248
  892MOL0     C17661   5.698   9.072   4.616  0.0901 -0.0603 -0.0608
  892MOL0     N17662   6.116   8.732   3.892 -0.4992  0.0374 -0.4297
  892MOL0     N17663   6.170   8.646   3.818 -0.4875 -0.7978 -0.4135
  892MOL0     C17664   5.773   7.524   3.418  0.0560  0.8594  0.0619
  892MOL0     C17665   5.748   7.530   3.278 -1.0710  0.0310 -0.6590
  892MOL0     C17666   5.626   7.546   2.864  1.3943  0.4525 -0.1403
  892MOL0     C17667   5.626   7.443   2.772  0.2040 -0.5342 -0.0740
  892MOL0     C17668   5.618   7.470   2.632  0.3028  0.0087  0.4780
  892MOL0     C17669   5.611   7.602   2.586 -0.1543  0.0746  1.0920
  892MOL0     O17670   5.607   7.638   2.453 -0.0878 -0.9041 -0.1435
  892MOL0     C17671   5.603   7.544   2.347  0.3312 -1.0180  0.2164
  892MOL0     C17672   5.556   7.614   2.223 -0.6275 -0.7859 -0.2080
  892MOL0     C17673   5.583   7.506   2.111  0.0355  0.0333 -0.1240
  892MOL0     C17674   5.470   7.513   2.012  0.5795  0.2327 -0.2786
  892MOL0     C17675   5.354   7.440   2.070  0.4410 -0.5683 -1.5213
  892MOL0     C17676   5.263   7.371   2.109  0.4708  0.0799 -0.4881
  892MOL0     C17677   5.607   7.708   2.682 -0.2107  0.6091  0.2641
  892MOL0     C17678   5.611   7.675   2.816  0.2729 -0.2340 -0.3358
  892MOL0     H17679   5.552   7.815   3.280 -1.8711 -1.3855 -0.6641
  892MOL0     H17680   5.658   7.822   3.509  0.6033  0.9085  0.3492
  892MOL0     H17681   5.951   7.509   3.605  1.4187 -1.0936  2.1898
  892MOL0     H17682   5.921   7.570   3.761 -3.0123 -2.3726 -0.1213
  892MOL0     H17683   5.989   7.758   3.526  0.7594 -0.1663  0.9495
  892MOL0     H17684   6.110   7.677   3.635  0.0310 -0.4298  0.1684
  892MOL0     H17685   6.039   7.785   3.813 -1.5409 -1.2419  1.0426
  892MOL0     H17686   5.893   7.862   3.733  0.8371 -2.4638  1.5669
  892MOL0     H17687   6.194   7.928   3.735 -1.8615 -1.1340  4.2077
  892MOL0     H17688   6.105   7.971   3.590  1.1965  2.2451  0.2334
  892MOL0     H17689   6.022   8.045   3.875  0.9537  1.3408  0.8939
  892MOL0     H17690   5.970   8.114   3.711  0.8552 -2.3039 -1.9782
  892MOL0     H17691   6.208   8.195   3.667 -4.0663  4.4710 -1.5009
  892MOL0     H17692   6.266   8.116   3.807 -3.0344 -5.5549  0.0146
  892MOL0     H17693   6.037   8.331   3.822  0.8414 -0.0582 -1.0864
  892MOL0     H17694   6.130   8.269   3.953  2.6421 -0.3684 -0.9697
  892MOL0     H17695   6.263   8.411   3.724  2.0924 -1.1537  0.1952
  892MOL0     H17696   6.339   8.379   3.880  1.5574  2.6765 -1.6977
  892MOL0     H17697   6.176   8.498   4.112  2.6003  1.5751  1.4663
  892MOL0     H17698   6.039   8.863   4.113 -1.0183 -0.9837 -1.5927
  892MOL0     H17699   6.116   8.724   4.218 -3.2705 -1.8521  3.1029
  892MOL0     H17700   5.922   8.634   4.257  2.6981  1.1697  0.0864
  892MOL0     H17701   5.867   8.687   4.090  2.1805 -3.2127 -1.1624
  892MOL0     H17702   5.811   8.918   4.177 -0.6014  1.1256  0.1348
  892MOL0     H17703   5.743   8.799   4.288 -0.0456 -0.7198 -0.9027
  892MOL0     H17704   6.002   8.958   4.356 -1.6962  2.6889 -0.5510
  892MOL0     H17705   5.951   8.805   4.435  1.2357  0.1711  0.3078
  892MOL0     H17706   6.013   8.965   4.608 -0.4113 -0.5016  0.8032
  892MOL0     H17707   6.035   9.090   4.824  0.5307  0.6991  0.4791
  892MOL0     H17708   5.935   9.443   4.998  1.2195 -0.6502 -0.0517
  892MOL0     H17709   5.995   9.610   5.173 -0.1762  1.1931  0.9453
  892MOL0     H17710   5.974   9.704   5.406 -0.5661 -0.0512  1.0174
  892MOL0     H17711   6.149   9.687   5.357  0.7175  4.0210  2.2215
  892MOL0     H17712   6.032   9.703   5.637 -0.6334 -2.1894 -2.5482
  892MOL0     H17713   6.122   9.835   5.559  2.8392  0.0217 -5.1626
  892MOL0     H17714   6.319   9.698   5.566 -0.5202 -0.3801 -1.2215
  892MOL0     H17715   6.217   9.563   5.643 -0.1801  0.2897  5.4203
  892MOL0     H17716   6.371   9.697   5.790 -0.0838 -1.7524  1.3884
  892MOL0     H17717   6.274   9.840   5.752 -0.7729 -0.3705  1.1831
  892MOL0     H17718   6.169   9.569   5.879 -0.6559 -0.2407  0.5380
  892MOL0     H17719   6.076   9.708   5.849 -0.4769 -1.1115  1.3440
  892MOL0     H17720   6.336   9.727   5.987 -0.2007 -1.6786  0.5069
  892MOL0     H17721   6.191   9.676   6.093  0.2417  0.2979  0.7025
  892MOL0     H17722   6.259   9.938   5.959 -1.1785  0.2442 -0.4081
  892MOL0     H17723   6.100   9.888   6.007  0.8265  1.9580 -3.5957
  892MOL0     H17724   6.203  10.040   6.153 -0.2069  0.2934 -4.4275
  892MOL0     H17725   6.313   9.895   6.200 -1.8583 -2.8675 -1.6157
  892MOL0     H17726   6.055   9.257   5.446 -2.3503  0.5441  0.8782
  892MOL0     H17727   5.977   9.115   5.273 -1.6055  0.4128 -0.6589
  892MOL0     H17728   5.603   9.193   4.771 -2.2255 -0.7491 -2.1181
  892MOL0     H17729   5.620   9.073   4.540  0.0070  0.2201  0.0266
  892MOL0     H17730   5.838   7.441   3.443  0.0865  0.7923 -0.2396
  892MOL0     H17731   5.804   7.468   3.209 -0.4478  1.0329 -1.0722
  892MOL0     H17732   5.625   7.340   2.806  2.4020 -1.1839 -1.7047
  892MOL0     H17733   5.627   7.388   2.562 -0.1965 -0.4203  0.9113
  892MOL0     H17734   5.532   7.464   2.372 -1.9920  0.6267 -0.7304
  892MOL0     H17735   5.700   7.497   2.329 -0.2178 -2.4531  0.8206
  892MOL0     H17736   5.455   7.654   2.238  0.3025  0.6031  3.7989
  892MOL0     H17737   5.617   7.704   2.205 -0.1429 -1.0017  0.3142
  892MOL0     H17738   5.593   7.405   2.154 -1.1978 -1.3146 -2.7729
  892MOL0     H17739   5.675   7.540   2.062  1.0127  2.6617  3.1527
  892MOL0     H17740   5.434   7.613   1.986 -2.0247 -1.1762 -2.5863
  892MOL0     H17741   5.516   7.470   1.922  2.7125  0.5121  0.6054
  892MOL0     H17742   5.177   7.316   2.142  2.3890 -1.8181  1.6263
  892MOL0     H17743   5.594   7.811   2.648 -1.6485 -0.4617 -2.7352
  892MOL0     H17744   5.592   7.756   2.886 -0.2549 -1.2094  0.6651
  893MOL0     O17745   3.013  10.019   4.066 -0.4472 -0.7130 -0.0718
  893MOL0     C17746   3.040  10.043   3.949 -0.0187  0.1873 -0.1357
  893MOL0     O17747   3.051  10.167   3.887  0.6768 -0.6515 -0.6264
  893MOL0     C17748   3.027  10.274   3.970  0.4640  1.0719  0.7893
  893MOL0     C17749   3.086  10.286   4.090 -0.7816  0.0008 -1.0077
  893MOL0     C17750   3.050  10.399   4.176  0.1536  0.0519 -1.1502
  893MOL0     C17751   2.956  10.495   4.119  0.0209  0.4880 -0.6743
  893MOL0     O17752   2.903  10.596   4.191 -0.1524 -0.2059  0.2838
  893MOL0     C17753   3.016  10.652   4.261 -0.5565 -0.4486 -0.8131
  893MOL0     C17754   2.965  10.789   4.310 -0.1989  0.7246 -0.1684
  893MOL0     C17755   3.068  10.892   4.350  0.1151 -0.4014  0.0499
  893MOL0     C17756   3.000  11.006   4.423  0.6418  0.3670  0.2831
  893MOL0     C17757   3.094  11.128   4.454  0.9101  0.3525 -0.5770
  893MOL0     C17758   3.005  11.245   4.501 -0.1937 -0.2981 -0.5895
  893MOL0     C17759   3.091  11.341   4.590  0.4822  0.0784 -0.8566
  893MOL0     C17760   3.000  11.426   4.676  1.0494 -0.5167 -0.3821
  893MOL0     N17761   3.070  11.544   4.727  0.6807  0.0301  0.1141
  893MOL0     C17762   3.094  11.555   4.857  0.2580  0.8154 -0.7410
  893MOL0     C17763   3.112  11.687   4.882 -0.5575  0.0479 -0.3055
  893MOL0     C17764   3.182  11.724   5.016  0.3411  0.0131 -1.1381
  893MOL0     C17765   3.273  11.838   4.996 -0.2431  0.0756 -0.6246
  893MOL0     C17766   3.203  11.974   4.973 -0.2284  0.4301  0.7174
  893MOL0     C17767   3.151  12.015   5.109  0.2527  0.3113 -0.3619
  893MOL0     O17768   3.192  12.159   5.135  1.1891  0.0336 -0.3330
  893MOL0     C17769   3.287  12.192   5.230 -0.5488  0.7661 -0.0075
  893MOL0     C17770   3.265  12.304   5.299  0.7856 -1.2935  0.0860
  893MOL0     C17771   3.340  12.338   5.410  0.4901 -0.1991  0.0398
  893MOL0     C17772   3.438  12.255   5.465  0.2027  0.4163  0.5658
  893MOL0     C17773   3.504  12.293   5.592 -0.1451 -0.2688 -0.5658
  893MOL0     O17774   3.515  12.418   5.622 -0.1305 -0.1351 -0.0301
  893MOL0     C17775   3.525  12.471   5.755  0.1801  0.0785  0.0924
  893MOL0     C17776   3.556  12.606   5.775  0.3970 -0.0805 -1.3025
  893MOL0     C17777   3.555  12.668   5.903  0.7692 -1.2214  0.0422
  893MOL0     C17778   3.525  12.588   6.011 -0.5071  0.4454  0.3096
  893MOL0     O17779   3.518  12.652   6.130  0.7505 -0.3148  0.7835
  893MOL0     C17780   3.506  12.574   6.245  0.1788  0.0108  0.4405
  893MOL0     C17781   3.537  12.645   6.372  0.0019  0.2917  0.4001
  893MOL0     C17782   3.686  12.695   6.392 -0.3197  0.1450  0.2700
  893MOL0     C17783   3.706  12.831   6.312  0.2774  0.9711  0.0121
  893MOL0     C17784   3.851  12.866   6.287 -0.3663  0.0265  0.6033
  893MOL0     C17785   3.863  12.984   6.196 -0.1841 -1.0330  0.4721
  893MOL0     C17786   3.838  13.117   6.278 -0.4314  1.1387 -0.1734
  893MOL0     C17787   3.888  13.240   6.194  0.5939 -0.9764 -0.4458
  893MOL0    Cl17788   3.888  13.393   6.299  0.2373 -0.3777 -0.2470
  893MOL0     C17789   3.504  12.454   5.992 -0.2168 -0.6009  0.3099
  893MOL0     C17790   3.502  12.399   5.870  0.3366 -0.3655  0.9271
  893MOL0     O17791   3.535  12.196   5.665  1.0481  0.3962  0.7866
  893MOL0     C17792   3.441  12.127   5.401 -0.0510 -0.6898 -0.3171
  893MOL0     C17793   3.380  12.099   5.277  0.4005 -0.4199 -0.1898
  893MOL0     N17794   3.081  11.759   4.767  0.9525  0.7732 -0.4337
  893MOL0     N17795   3.065  11.668   4.671 -0.1967  0.6939 -0.9181
  893MOL0     C17796   2.917  10.485   3.988 -0.5909  0.2609  0.4445
  893MOL0     C17797   2.941  10.372   3.915 -0.8307  0.0960  0.2295
  893MOL0     C17798   3.074   9.927   3.860  0.4671 -0.6473 -0.2588
  893MOL0     C17799   3.104   9.946   3.720 -0.6425  0.5117 -0.2690
  893MOL0     C17800   3.121   9.834   3.641 -0.1742 -0.3062  0.0332
  893MOL0     C17801   3.118   9.699   3.688  0.0901 -0.0314 -0.0300
  893MOL0     O17802   3.160   9.596   3.610 -0.4215  0.0557  0.0905
  893MOL0     C17803   3.121   9.464   3.634 -0.4273  0.1233 -0.3322
  893MOL0     C17804   3.132   9.395   3.507  0.6427 -0.1639  0.6116
  893MOL0     C17805   3.064   9.253   3.505  0.6282 -1.2956  0.2361
  893MOL0     C17806   2.913   9.265   3.499  0.2485  0.5471 -0.8732
  893MOL0     C17807   2.869   9.125   3.503 -0.1843 -0.7032 -1.0311
  893MOL0     C17808   2.822   9.013   3.528  0.3722 -0.4727  0.6977
  893MOL0     C17809   3.097   9.683   3.827  0.0404 -0.4672  0.6616
  893MOL0     C17810   3.070   9.790   3.911 -0.2395 -0.8201 -0.4060
  893MOL0     H17811   3.160  10.211   4.113 -1.9339 -0.9002 -0.0967
  893MOL0     H17812   3.082  10.411   4.279 -1.2900 -0.0840 -0.6578
  893MOL0     H17813   3.099  10.659   4.190 -2.5143  1.8618 -3.0881
  893MOL0     H17814   3.034  10.595   4.353 -2.6869 -0.8978 -0.6214
  893MOL0     H17815   2.908  10.766   4.400  0.2737  1.3601  0.3050
  893MOL0     H17816   2.889  10.821   4.238 -2.3027 -0.4548  1.4366
  893MOL0     H17817   3.125  10.933   4.266  1.8594  1.3945  1.9946
  893MOL0     H17818   3.147  10.846   4.410  1.2878 -1.2754 -2.0643
  893MOL0     H17819   2.913  11.041   4.367 -0.8742  0.3364  2.4979
  893MOL0     H17820   2.955  10.970   4.516 -1.4351  0.2601 -0.6918
  893MOL0     H17821   3.159  11.160   4.371  0.1453  2.6495 -0.3463
  893MOL0     H17822   3.164  11.091   4.530 -0.6522  0.7508  1.1072
  893MOL0     H17823   2.922  11.207   4.562  1.7089 -2.3981  0.8658
  893MOL0     H17824   2.956  11.301   4.421  1.0974 -1.0887 -1.9925
  893MOL0     H17825   3.156  11.277   4.650 -1.9755 -1.9359 -0.1973
  893MOL0     H17826   3.158  11.405   4.531 -0.5937 -0.2445 -2.5178
  893MOL0     H17827   2.959  11.369   4.760 -1.1638  0.2203 -0.8754
  893MOL0     H17828   2.918  11.468   4.616  0.9963  1.0216  0.7028
  893MOL0     H17829   3.092  11.483   4.938  0.0110  1.3973 -0.2161
  893MOL0     H17830   3.227  11.640   5.069 -0.8569  0.2853  0.3923
  893MOL0     H17831   3.101  11.755   5.083  0.1670  3.0152 -2.5553
  893MOL0     H17832   3.326  11.805   4.907  0.9160  1.9539 -0.6855
  893MOL0     H17833   3.350  11.829   5.073  0.7943 -1.5735 -1.8187
  893MOL0     H17834   3.271  12.052   4.936 -1.3665 -0.4345 -3.9419
  893MOL0     H17835   3.118  11.959   4.906 -1.7130  0.4626  2.5345
  893MOL0     H17836   3.176  11.955   5.196 -2.0011  4.1557  3.3526
  893MOL0     H17837   3.042  12.007   5.117  0.2582  0.6324  0.1181
  893MOL0     H17838   3.188  12.371   5.261  0.4028 -2.9907 -2.3892
  893MOL0     H17839   3.322  12.438   5.447  0.9757 -0.2369  0.3897
  893MOL0     H17840   3.566  12.672   5.690  4.0908  2.9285  1.1478
  893MOL0     H17841   3.537  12.775   5.907 -1.3222 -1.5414  0.3415
  893MOL0     H17842   3.572  12.487   6.242  0.6385  0.3785 -0.5426
  893MOL0     H17843   3.409  12.528   6.266  2.0587 -3.1426  3.2802
  893MOL0     H17844   3.520  12.570   6.451  1.2175 -0.5036 -0.0666
  893MOL0     H17845   3.469  12.730   6.381 -0.7250 -0.2709  0.3040
  893MOL0     H17846   3.759  12.621   6.358 -0.5118  0.4041 -0.7512
  893MOL0     H17847   3.708  12.713   6.497 -0.2635  1.0605  0.1094
  893MOL0     H17848   3.653  12.823   6.216 -0.3754  1.1575  0.3518
  893MOL0     H17849   3.658  12.916   6.361  0.1875 -0.2669  2.2155
  893MOL0     H17850   3.896  12.776   6.244 -1.6034 -0.8721  1.1736
  893MOL0     H17851   3.895  12.885   6.385  0.1293  2.5427 -0.0198
  893MOL0     H17852   3.796  12.967   6.112 -0.6248 -0.2727  0.6513
  893MOL0     H17853   3.968  12.983   6.166  0.8572  0.5728  3.5438
  893MOL0     H17854   3.730  13.127   6.294 -0.1959  1.4007  1.3656
  893MOL0     H17855   3.894  13.107   6.371  1.2999 -0.5687 -1.3268
  893MOL0     H17856   3.827  13.251   6.104  3.2742  2.2446 -2.0885
  893MOL0     H17857   3.993  13.233   6.162  0.4267  0.8904 -1.5331
  893MOL0     H17858   3.471  12.393   6.076  1.7798 -0.9797  0.8789
  893MOL0     H17859   3.465  12.297   5.861 -1.5900 -0.0665  3.7999
  893MOL0     H17860   3.514  12.057   5.439 -0.5496 -0.5894  0.8464
  893MOL0     H17861   3.395  12.008   5.219  3.7730  0.8274 -1.5417
  893MOL0     H17862   2.852  10.565   3.952  1.1710  2.6584  2.2686
  893MOL0     H17863   2.917  10.364   3.810 -1.7087 -1.4333  0.5194
  893MOL0     H17864   3.102  10.046   3.679 -0.3293  0.6595  0.0715
  893MOL0     H17865   3.133   9.841   3.534  1.2699  1.7806  0.2867
  893MOL0     H17866   3.019   9.463   3.674  0.6741 -0.5028  2.7709
  893MOL0     H17867   3.189   9.424   3.710 -1.2341  1.2326  1.0452
  893MOL0     H17868   3.101   9.464   3.427  0.0665 -1.4559 -0.3184
  893MOL0     H17869   3.236   9.374   3.483  0.0571 -0.0508 -2.4629
  893MOL0     H17870   3.088   9.205   3.600 -0.8529 -1.7963  0.3880
  893MOL0     H17871   3.112   9.193   3.427  2.4918  3.5360 -2.8031
  893MOL0     H17872   2.871   9.320   3.584 -0.5979 -0.3864 -0.6695
  893MOL0     H17873   2.875   9.307   3.405 -0.5360 -3.0422 -2.3331
  893MOL0     H17874   2.772   8.918   3.534 -1.0395  0.1583 -0.4778
  893MOL0     H17875   3.113   9.583   3.866 -0.1881 -0.2883  1.2261
  893MOL0     H17876   3.049   9.767   4.015  3.7156 -2.7461  0.1586
  894MOL0     O17877  11.240   1.978   4.531  0.0609  0.7172 -0.2434
  894MOL0     C17878  11.135   1.996   4.603  0.4391 -0.6426  1.2863
  894MOL0     O17879  11.088   1.920   4.699 -0.5185  0.2437  0.2112
  894MOL0     C17880  11.161   1.816   4.734 -0.0452 -0.4787 -0.2701
  894MOL0     C17881  11.237   1.808   4.850  0.5352 -0.3826  0.0014
  894MOL0     C17882  11.314   1.698   4.885  0.2291  0.1507 -0.5564
  894MOL0     C17883  11.297   1.586   4.807  0.7077  0.5910  0.5977
  894MOL0     O17884  11.373   1.469   4.819 -0.6675 -0.9868 -0.9714
  894MOL0     C17885  11.322   1.366   4.906  1.0874 -0.2051  0.3598
  894MOL0     C17886  11.379   1.378   5.036 -0.4819 -0.0220 -0.1601
  894MOL0     C17887  11.305   1.286   5.129  0.7351 -0.2197  0.5157
  894MOL0     C17888  11.376   1.283   5.264  0.2737  0.7732 -0.3394
  894MOL0     C17889  11.311   1.195   5.369  0.0908 -0.8911  0.6753
  894MOL0     C17890  11.397   1.173   5.481 -0.0990  0.7327  0.9269
  894MOL0     C17891  11.343   1.083   5.582  0.9358  0.7060 -0.9876
  894MOL0     C17892  11.441   0.996   5.659 -0.0986  0.3003  0.1230
  894MOL0     N17893  11.526   1.071   5.751  0.7715 -0.8273  0.3158
  894MOL0     C17894  11.486   1.136   5.867 -0.0703  0.2379  0.0738
  894MOL0     C17895  11.585   1.229   5.884  0.5336  0.3842  0.1680
  894MOL0     C17896  11.596   1.332   5.998 -0.9982 -0.3314 -1.1553
  894MOL0     C17897  11.567   1.288   6.142 -1.1266 -0.5183 -0.2762
  894MOL0     C17898  11.419   1.237   6.170 -0.1612 -0.8846 -0.7275
  894MOL0     C17899  11.417   1.235   6.326  0.1141 -0.4405  0.2726
  894MOL0     O17900  11.424   1.365   6.403  0.7001  0.8395  0.2226
  894MOL0     C17901  11.435   1.353   6.543  0.0419 -0.3801  1.4948
  894MOL0     C17902  11.470   1.472   6.606  0.2069  0.2654  0.2326
  894MOL0     C17903  11.487   1.485   6.745  0.5985 -0.1324 -0.6850
  894MOL0     C17904  11.478   1.373   6.828 -0.7322 -0.4239  0.3016
  894MOL0     C17905  11.511   1.393   6.964  0.3825  0.2404 -0.3562
  894MOL0     O17906  11.525   1.520   7.014 -0.3582 -0.2115 -0.5638
  894MOL0     C17907  11.576   1.539   7.141  0.7099 -0.4685 -0.0859
  894MOL0     C17908  11.701   1.486   7.180  0.2672  0.6084  0.0838
  894MOL0     C17909  11.752   1.500   7.307 -0.5531  0.6570 -0.2756
  894MOL0     C17910  11.680   1.575   7.407  0.8698  0.5499 -0.1316
  894MOL0     O17911  11.725   1.596   7.531 -1.1323 -0.2839 -0.5147
  894MOL0     C17912  11.720   1.480   7.611  0.1538  0.7047  0.4994
  894MOL0     C17913  11.728   1.524   7.752  1.0162 -0.6061 -0.3538
  894MOL0     C17914  11.854   1.597   7.796  1.7867 -0.5439  0.1960
  894MOL0     C17915  11.984   1.533   7.760 -0.5908 -0.1545  0.0979
  894MOL0     C17916  12.121   1.615   7.773  0.5087  0.4944 -0.0932
  894MOL0     C17917  12.241   1.553   7.703 -0.2468  0.5431 -1.1738
  894MOL0     C17918  12.374   1.626   7.722  0.1550  0.7105 -0.3025
  894MOL0     C17919  12.412   1.671   7.861 -1.0663  0.6923  0.4636
  894MOL0    Cl17920  12.593   1.693   7.886 -0.1312  0.2700 -0.4010
  894MOL0     C17921  11.561   1.637   7.368  0.7959  1.0075  0.4516
  894MOL0     C17922  11.506   1.619   7.232  1.0170  0.4448  0.6484
  894MOL0     O17923  11.518   1.292   7.030  1.1460 -0.5926 -0.4449
  894MOL0     C17924  11.452   1.248   6.761 -0.5467 -0.9804 -1.0860
  894MOL0     C17925  11.430   1.234   6.621  0.1834  0.3891 -0.7085
  894MOL0     N17926  11.693   1.200   5.794  1.0264 -0.3690 -0.9141
  894MOL0     N17927  11.646   1.117   5.710  0.0799  0.1599 -0.4864
  894MOL0     C17928  11.221   1.592   4.689 -0.0111 -0.0431 -0.2762
  894MOL0     C17929  11.158   1.701   4.655  0.1838 -0.5006  0.4894
  894MOL0     C17930  11.061   2.129   4.595 -1.0867 -0.3949  0.5557
  894MOL0     C17931  11.129   2.244   4.552  0.4061 -0.5410 -1.0798
  894MOL0     C17932  11.061   2.363   4.538  0.6340  0.9296  0.6817
  894MOL0     C17933  10.917   2.365   4.540  0.0526 -0.7223  0.1777
  894MOL0     O17934  10.853   2.488   4.526 -0.5325 -0.0987  0.0841
  894MOL0     C17935  10.707   2.500   4.545 -0.5575 -0.4410 -0.0104
  894MOL0     C17936  10.662   2.648   4.541  0.3577  0.4118  0.1603
  894MOL0     C17937  10.749   2.722   4.647  0.6909  0.0899 -1.1533
  894MOL0     C17938  10.798   2.859   4.610  0.4230 -0.5876 -0.2833
  894MOL0     C17939  10.690   2.957   4.609 -0.1613  0.0238 -0.5026
  894MOL0     C17940  10.608   3.043   4.607  0.8932  0.8783  0.0702
  894MOL0     C17941  10.848   2.247   4.575 -0.3402 -0.7147  0.1969
  894MOL0     C17942  10.929   2.132   4.607  1.1406 -0.2203 -0.2764
  894MOL0     H17943  11.235   1.891   4.919  1.4963  1.1960 -1.7882
  894MOL0     H17944  11.373   1.701   4.977 -2.0475  1.9429  0.9658
  894MOL0     H17945  11.358   1.270   4.869  1.4410  0.7199 -1.8366
  894MOL0     H17946  11.212   1.369   4.907  1.0622  2.4642 -1.0295
  894MOL0     H17947  11.383   1.484   5.061  2.2151  0.2454 -1.3647
  894MOL0     H17948  11.484   1.354   5.022  0.5397  2.9958  1.3974
  894MOL0     H17949  11.293   1.185   5.088  1.8708 -2.0564  4.2979
  894MOL0     H17950  11.207   1.331   5.142 -0.1406 -0.9052 -2.8073
  894MOL0     H17951  11.475   1.245   5.238 -0.2090 -1.9233  1.4026
  894MOL0     H17952  11.387   1.386   5.299 -5.0788  1.9531 -1.3055
  894MOL0     H17953  11.286   1.099   5.324  2.6735 -1.9463  1.2924
  894MOL0     H17954  11.218   1.244   5.400  0.6595  0.5478  0.2107
  894MOL0     H17955  11.436   1.267   5.521  2.4950  0.4406 -0.6921
  894MOL0     H17956  11.476   1.113   5.435 -2.3593 -1.9086  0.1996
  894MOL0     H17957  11.286   1.138   5.657 -1.1768  0.4375 -2.3039
  894MOL0     H17958  11.263   1.020   5.543  0.2650  2.4538 -2.5969
  894MOL0     H17959  11.508   0.942   5.591 -1.8490  0.1990 -1.6408
  894MOL0     H17960  11.397   0.911   5.711 -1.7578  1.1425  0.1736
  894MOL0     H17961  11.391   1.132   5.920 -0.5576  1.3083 -0.6781
  894MOL0     H17962  11.515   1.401   5.973  0.2920  0.8167 -2.3312
  894MOL0     H17963  11.694   1.380   6.004  0.0226 -2.4821  0.9652
  894MOL0     H17964  11.587   1.382   6.194 -1.2710 -1.5231  1.7005
  894MOL0     H17965  11.640   1.209   6.163  1.2583  1.3350 -1.2067
  894MOL0     H17966  11.341   1.302   6.129  0.0057 -1.9839 -2.8924
  894MOL0     H17967  11.398   1.133   6.144 -2.4090 -1.6019  3.0854
  894MOL0     H17968  11.508   1.177   6.346  1.0640  0.8107 -0.2509
  894MOL0     H17969  11.329   1.177   6.357 -1.3279  0.0921 -2.5506
  894MOL0     H17970  11.482   1.564   6.550  4.8543  0.9630  1.8895
  894MOL0     H17971  11.503   1.587   6.780 -2.1854  0.2166 -0.2397
  894MOL0     H17972  11.753   1.429   7.104  2.1699  2.2182  0.0989
  894MOL0     H17973  11.840   1.445   7.337 -1.1730  0.6627  1.7501
  894MOL0     H17974  11.793   1.406   7.577 -0.4633  1.4224 -2.7750
  894MOL0     H17975  11.621   1.433   7.605 -1.1538  3.0936  1.9546
  894MOL0     H17976  11.722   1.427   7.803 -1.9663 -1.4651 -2.0290
  894MOL0     H17977  11.641   1.583   7.781  0.9545 -1.8588  2.3191
  894MOL0     H17978  11.844   1.626   7.902 -3.6582  0.5203 -0.3085
  894MOL0     H17979  11.841   1.691   7.742 -1.7854 -0.6486  0.6186
  894MOL0     H17980  11.996   1.431   7.799  0.1037 -0.9984 -2.1348
  894MOL0     H17981  11.975   1.520   7.652 -2.4352 -0.9698  0.3085
  894MOL0     H17982  12.133   1.623   7.881 -2.3031 -3.5724  0.7269
  894MOL0     H17983  12.107   1.717   7.736 -1.9137 -0.2541 -1.4657
  894MOL0     H17984  12.222   1.563   7.596  0.2306  0.4480 -1.2675
  894MOL0     H17985  12.243   1.446   7.727 -3.5589  0.1870 -1.9793
  894MOL0     H17986  12.446   1.549   7.692 -0.9731 -0.3193 -0.4372
  894MOL0     H17987  12.366   1.717   7.662  0.7855  1.3804  0.5899
  894MOL0     H17988  12.383   1.589   7.927  1.3697 -0.6863 -0.0757
  894MOL0     H17989  12.348   1.754   7.895 -2.1588 -0.1922  0.6206
  894MOL0     H17990  11.494   1.696   7.430 -2.1546  1.8196 -3.0962
  894MOL0     H17991  11.409   1.665   7.213  0.7161  0.1850  1.5141
  894MOL0     H17992  11.454   1.163   6.828  0.4911  0.7634  1.2397
  894MOL0     H17993  11.397   1.138   6.583 -0.6374  0.9984 -1.5888
  894MOL0     H17994  11.213   1.503   4.627  3.3220  0.2746 -1.3812
  894MOL0     H17995  11.098   1.686   4.566  0.8168  0.1306 -0.0582
  894MOL0     H17996  11.237   2.253   4.543  0.4415  4.5844  1.2923
  894MOL0     H17997  11.109   2.459   4.519 -0.4000  1.6274  1.4558
  894MOL0     H17998  10.688   2.454   4.642 -1.0300 -0.7944 -0.2660
  894MOL0     H17999  10.657   2.440   4.469  1.7248 -2.3420 -0.1325
  894MOL0     H18000  10.672   2.698   4.444  1.8377  0.1157  0.1341
  894MOL0     H18001  10.557   2.656   4.572  0.2308  2.4385 -0.6693
  894MOL0     H18002  10.837   2.662   4.673  0.7429  1.2932  1.7830
  894MOL0     H18003  10.681   2.736   4.731  0.2319  0.5939 -1.5975
  894MOL0     H18004  10.875   2.896   4.678 -1.7741  2.7731  0.5915
  894MOL0     H18005  10.844   2.852   4.511 -0.2809  2.1851 -0.8804
  894MOL0     H18006  10.527   3.111   4.591 -0.6689 -0.4434  1.8460
  894MOL0     H18007  10.742   2.244   4.597 -0.5034 -2.8044 -0.6977
  894MOL0     H18008  10.883   2.036   4.626  3.1464 -0.9894  0.9826
  895MOL0     O18009   7.244   7.284  10.637 -0.0922 -0.0624  0.7152
  895MOL0     C18010   7.296   7.388  10.667 -0.2544 -0.6510 -1.1836
  895MOL0     O18011   7.242   7.487  10.746 -1.5164 -0.0597  0.7211
  895MOL0     C18012   7.110   7.483  10.780 -0.2050 -0.5587  0.3697
  895MOL0     C18013   7.005   7.504  10.688  0.1765 -0.1304  0.3885
  895MOL0     C18014   6.875   7.490  10.740 -0.1411 -0.5363 -0.0198
  895MOL0     C18015   6.844   7.471  10.878  1.1146  0.9758  0.0883
  895MOL0     O18016   6.722   7.446  10.941  0.9063  0.4269  0.4849
  895MOL0     C18017   6.613   7.395  10.868  0.0763 -0.3473 -0.1975
  895MOL0     C18018   6.507   7.334  10.963 -0.5570 -0.0415  0.5393
  895MOL0     C18019   6.366   7.319  10.893 -0.0174 -0.1925  0.3629
  895MOL0     C18020   6.287   7.246  10.996  1.1073  0.8714  0.0803
  895MOL0     C18021   6.135   7.216  10.979  0.1676  0.3914  0.5363
  895MOL0     C18022   6.123   7.159  10.835  0.6541  0.3258 -1.3091
  895MOL0     C18023   5.990   7.081  10.837 -0.1313 -0.6853 -0.3195
  895MOL0     C18024   5.968   7.011  10.709  0.8390  0.2301  0.6983
  895MOL0     N18025   5.827   6.956  10.705 -0.1097  1.1046 -0.0706
  895MOL0     C18026   5.787   6.825  10.732 -0.3448 -0.2244  0.4736
  895MOL0     C18027   5.660   6.824  10.690  1.6166  0.8570 -0.4193
  895MOL0     C18028   5.579   6.695  10.699 -0.4485  0.4641 -1.5701
  895MOL0     C18029   5.441   6.720  10.771 -0.2983  0.4836 -0.1474
  895MOL0     C18030   5.342   6.601  10.781 -0.6885  0.4927  0.3856
  895MOL0     C18031   5.406   6.471  10.837  0.7344  0.1778  0.0342
  895MOL0     O18032   5.314   6.355  10.852 -0.6531  0.9096  0.3774
  895MOL0     C18033   5.192   6.360  10.798  0.2515  0.2047  0.4628
  895MOL0     C18034   5.089   6.407  10.883  0.5211  0.8774  0.7600
  895MOL0     C18035   4.951   6.409  10.832  0.5840 -0.0439  0.5265
  895MOL0     C18036   4.916   6.362  10.699 -0.0198  0.7242 -0.1270
  895MOL0     C18037   4.776   6.360  10.654  0.3528 -1.6763  0.3743
  895MOL0     O18038   4.753   6.305  10.523  0.2437 -0.4062  0.6133
  895MOL0     C18039   4.625   6.318  10.472 -0.2183 -0.7159  0.2969
  895MOL0     C18040   4.529   6.211  10.474 -0.4520 -1.4334 -0.1134
  895MOL0     C18041   4.401   6.238  10.420 -0.4318  0.6150 -0.0689
  895MOL0     C18042   4.369   6.358  10.351  0.4694  0.7777  0.6076
  895MOL0     O18043   4.250   6.372  10.293  0.0434 -0.5389  0.6235
  895MOL0     C18044   4.219   6.486  10.207 -0.9113  0.8070 -0.2242
  895MOL0     C18045   4.070   6.477  10.171  0.0807  0.2896 -1.7767
  895MOL0     C18046   4.016   6.329  10.125 -0.3261 -0.4929 -0.5810
  895MOL0     C18047   3.963   6.249  10.238 -0.6760 -0.2154 -0.9301
  895MOL0     C18048   4.045   6.126  10.261 -0.2430 -1.6580  0.0011
  895MOL0     C18049   3.985   6.030  10.346  0.6810  0.1195 -0.0796
  895MOL0     C18050   4.093   5.930  10.392  0.0201 -0.7835 -0.1366
  895MOL0     C18051   4.124   5.820  10.291 -0.4696  0.2426 -0.2063
  895MOL0    Cl18052   4.246   5.715  10.362  0.2583  0.5085 -0.5288
  895MOL0     C18053   4.470   6.454  10.342  0.0119 -0.0850  0.4698
  895MOL0     C18054   4.596   6.431  10.406  0.2623 -0.0594  0.0863
  895MOL0     O18055   4.692   6.403  10.731 -0.5161 -0.6157  0.3277
  895MOL0     C18056   5.024   6.313  10.623 -0.1592  0.6866  0.3192
  895MOL0     C18057   5.159   6.306  10.679 -0.0581  0.4047  0.3624
  895MOL0     N18058   5.619   6.948  10.645  0.4270 -0.7178  0.3031
  895MOL0     N18059   5.725   7.027  10.652 -0.3716  0.3205  0.1984
  895MOL0     C18060   6.949   7.468  10.967 -0.4186  0.0747  0.5667
  895MOL0     C18061   7.081   7.479  10.919 -0.3245  0.1390 -0.7882
  895MOL0     C18062   7.418   7.430  10.605 -0.7107  0.3401  0.4605
  895MOL0     C18063   7.515   7.482  10.691 -1.2185 -0.3075  0.0335
  895MOL0     C18064   7.623   7.558  10.644 -0.2980 -0.0846 -0.0631
  895MOL0     C18065   7.650   7.561  10.502 -0.3915 -0.2826  0.4145
  895MOL0     O18066   7.747   7.635  10.440 -0.3078  0.1537  0.0818
  895MOL0     C18067   7.867   7.548  10.427 -0.4290 -0.3471 -1.0573
  895MOL0     C18068   7.957   7.584  10.307 -0.9807 -0.6648 -0.3101
  895MOL0     C18069   7.906   7.545  10.163 -0.4761  0.1547 -0.6268
  895MOL0     C18070   7.868   7.400  10.149  0.5617 -0.1046 -0.0650
  895MOL0     C18071   7.981   7.305  10.159  0.0602 -0.2664  0.2164
  895MOL0     C18072   8.063   7.208  10.167 -0.6030 -0.4696  0.8948
  895MOL0     C18073   7.564   7.490  10.418  0.4278 -0.8754  0.4968
  895MOL0     C18074   7.448   7.432  10.470  0.4124 -0.7202 -1.0216
  895MOL0     H18075   7.027   7.520  10.583  3.4704 -0.5040  0.9215
  895MOL0     H18076   6.806   7.492  10.657 -1.2255 -0.5365  0.8630
  895MOL0     H18077   6.662   7.335  10.791  0.3327  1.0564 -1.1624
  895MOL0     H18078   6.564   7.475  10.812  1.2556  0.9971  0.6205
  895MOL0     H18079   6.494   7.394  11.054 -0.8247  0.0820  0.4212
  895MOL0     H18080   6.550   7.237  10.989 -2.6422 -1.0708  0.2913
  895MOL0     H18081   6.377   7.266  10.798  0.0839  1.7330 -0.7704
  895MOL0     H18082   6.327   7.416  10.861  3.9004  0.4550 -3.4424
  895MOL0     H18083   6.336   7.155  11.030 -3.6328 -0.9206  3.0330
  895MOL0     H18084   6.283   7.307  11.087  0.7000  0.9502  0.0108
  895MOL0     H18085   6.073   7.305  10.989 -2.6695 -1.5560  1.4812
  895MOL0     H18086   6.101   7.155  11.063 -1.9139  0.0965 -0.4434
  895MOL0     H18087   6.210   7.094  10.822  0.7882  0.0644  0.5593
  895MOL0     H18088   6.125   7.231  10.753  1.1168  0.6595 -1.0139
  895MOL0     H18089   5.986   7.000  10.911 -1.2039 -2.0343 -1.7845
  895MOL0     H18090   5.912   7.155  10.856  0.8177  0.5112 -0.9525
  895MOL0     H18091   6.041   6.930  10.698 -1.3388 -1.7740  0.2994
  895MOL0     H18092   5.976   7.071  10.618  0.1278 -0.1340  0.3872
  895MOL0     H18093   5.850   6.746  10.771 -1.0470 -1.9245 -1.6235
  895MOL0     H18094   5.640   6.625  10.756 -2.1013  2.1317  2.7156
  895MOL0     H18095   5.556   6.650  10.602 -2.3842 -0.1152 -0.8942
  895MOL0     H18096   5.386   6.789  10.705 -2.3419 -1.3134 -0.4383
  895MOL0     H18097   5.450   6.762  10.871 -1.8507  0.8838 -0.1497
  895MOL0     H18098   5.263   6.633  10.848 -0.0885  2.4959  0.1953
  895MOL0     H18099   5.298   6.572  10.685  0.8140 -0.7152  0.0026
  895MOL0     H18100   5.444   6.501  10.935  0.4313  2.1189 -0.3912
  895MOL0     H18101   5.489   6.449  10.768  1.6480 -1.0585  1.4775
  895MOL0     H18102   5.117   6.438  10.983  0.7898 -0.6024  1.1632
  895MOL0     H18103   4.878   6.450  10.902  0.5483  0.2237  0.3343
  895MOL0     H18104   4.550   6.123  10.534  1.3599 -1.4521 -0.7172
  895MOL0     H18105   4.326   6.162  10.437 -2.2110  2.2118 -0.4299
  895MOL0     H18106   4.287   6.484  10.122  4.0236  0.2737  3.2764
  895MOL0     H18107   4.241   6.577  10.264  0.1925  1.0579 -1.0236
  895MOL0     H18108   4.054   6.554  10.095  2.1980  1.7307 -0.8630
  895MOL0     H18109   4.004   6.509  10.252  0.7179 -0.8662 -0.7525
  895MOL0     H18110   4.105   6.283  10.079 -0.6772 -1.9146  0.1027
  895MOL0     H18111   3.933   6.349  10.057 -0.7856 -0.4290 -0.0066
  895MOL0     H18112   3.975   6.310  10.329  1.6946 -2.1275  0.1481
  895MOL0     H18113   3.857   6.226  10.232 -0.9162  0.1555  0.9876
  895MOL0     H18114   4.132   6.168  10.311 -0.3511 -1.0112 -0.3488
  895MOL0     H18115   4.071   6.089  10.161 -3.7100 -0.5920 -1.4649
  895MOL0     H18116   3.898   5.986  10.297  1.1091 -0.1492 -0.6025
  895MOL0     H18117   3.938   6.082  10.431  4.0596  2.9493  0.3313
  895MOL0     H18118   4.180   5.989  10.422  1.7551 -1.7206 -2.9391
  895MOL0     H18119   4.060   5.886  10.487 -0.4147  2.3928  1.3129
  895MOL0     H18120   4.173   5.861  10.202  3.7262 -3.8858 -0.2187
  895MOL0     H18121   4.035   5.765  10.256  0.2126  1.2887 -4.0376
  895MOL0     H18122   4.448   6.549  10.294 -1.0084 -0.3045  0.4741
  895MOL0     H18123   4.676   6.505  10.405  0.8827 -0.7120 -1.1575
  895MOL0     H18124   5.005   6.261  10.529 -1.2207  0.9099  0.3979
  895MOL0     H18125   5.237   6.277  10.610  0.9412  0.6862  1.3483
  895MOL0     H18126   6.927   7.474  11.073 -4.7962  3.3871 -0.2209
  895MOL0     H18127   7.164   7.480  10.989 -0.7134 -0.5819 -0.2972
  895MOL0     H18128   7.500   7.493  10.798 -0.0253 -1.1775  0.3067
  895MOL0     H18129   7.678   7.608  10.723 -4.6165 -1.2578  4.1023
  895MOL0     H18130   7.837   7.445  10.407  2.8410 -1.5310 -0.5065
  895MOL0     H18131   7.916   7.550  10.525 -0.3063  2.0276 -1.1077
  895MOL0     H18132   7.965   7.692  10.288  0.5314 -0.3820  1.6793
  895MOL0     H18133   8.056   7.541  10.323 -0.8490  0.3127  1.8619
  895MOL0     H18134   7.983   7.574  10.091  0.9949  1.9269  1.5264
  895MOL0     H18135   7.814   7.604  10.151  0.7107  2.9000  2.1898
  895MOL0     H18136   7.786   7.388  10.220  0.2892 -0.0981 -0.3776
  895MOL0     H18137   7.827   7.390  10.049  1.6860 -1.5772 -0.4092
  895MOL0     H18138   8.137   7.130  10.160  0.8638  0.6646  2.8061
  895MOL0     H18139   7.583   7.506  10.312 -2.5023  3.4054  0.3763
  895MOL0     H18140   7.366   7.399  10.406 -0.8746 -0.5824  0.4913
  896MOL0     O18141   2.789   6.585   0.727 -0.6930 -0.2908  0.1502
  896MOL0     C18142   2.742   6.636   0.829 -0.2144 -0.6205 -0.7069
  896MOL0     O18143   2.827   6.677   0.937  0.6033  0.2466  0.0219
  896MOL0     C18144   2.962   6.684   0.928  0.5126 -0.5281 -0.3841
  896MOL0     C18145   3.039   6.741   0.823 -0.0466  0.7241 -0.4986
  896MOL0     C18146   3.177   6.752   0.827  0.5298  0.2147  0.9433
  896MOL0     C18147   3.247   6.689   0.940  0.2385 -0.1524  0.2481
  896MOL0     O18148   3.389   6.686   0.940 -0.2978  0.1557  0.1078
  896MOL0     C18149   3.457   6.596   1.033  0.7538  0.1874  0.0262
  896MOL0     C18150   3.607   6.605   1.019  0.1225  0.2519 -0.4249
  896MOL0     C18151   3.672   6.549   1.146  0.7386  0.2954 -0.6221
  896MOL0     C18152   3.825   6.546   1.124  0.3000  0.0657 -0.1279
  896MOL0     C18153   3.909   6.675   1.096 -0.9477 -0.5679 -0.2995
  896MOL0     C18154   3.917   6.758   1.227  0.4019  0.6901  0.0751
  896MOL0     C18155   4.025   6.698   1.320  0.3805  0.3606 -0.6168
  896MOL0     C18156   4.021   6.761   1.453 -0.0687  0.5592  0.0328
  896MOL0     N18157   4.087   6.887   1.459  0.5532 -0.3292  0.3357
  896MOL0     C18158   4.029   7.010   1.466 -0.2325 -0.8328  0.6316
  896MOL0     C18159   4.134   7.093   1.459 -0.4100 -1.3299  0.0942
  896MOL0     C18160   4.123   7.242   1.453 -0.6019  1.0629  1.1462
  896MOL0     C18161   4.113   7.305   1.595 -0.1538  0.3312 -0.7654
  896MOL0     C18162   4.117   7.461   1.599 -0.2472 -0.6481 -0.0327
  896MOL0     C18163   3.997   7.521   1.521 -0.4720 -0.2918  0.2191
  896MOL0     O18164   3.870   7.473   1.577 -0.5016  0.4549 -0.6720
  896MOL0     C18165   3.803   7.568   1.657  1.0739  0.4455 -0.2978
  896MOL0     C18166   3.663   7.580   1.639  0.1248  0.5866 -0.3468
  896MOL0     C18167   3.603   7.678   1.716  0.3415  1.1929 -0.0188
  896MOL0     C18168   3.671   7.759   1.809  1.2465  0.1471 -0.3565
  896MOL0     C18169   3.596   7.862   1.882 -0.2005 -0.5198 -0.2415
  896MOL0     O18170   3.616   7.865   2.018  0.9093 -0.3179  0.3975
  896MOL0     C18171   3.552   7.970   2.080 -0.4395  0.0665 -0.6428
  896MOL0     C18172   3.558   8.107   2.042 -0.4096  0.3383  0.0908
  896MOL0     C18173   3.501   8.208   2.119  0.6237  1.2284 -0.0363
  896MOL0     C18174   3.410   8.169   2.222 -0.0078  1.0086 -0.4986
  896MOL0     O18175   3.339   8.252   2.299  0.3493 -0.1500  0.8926
  896MOL0     C18176   3.357   8.394   2.295  0.2066 -0.0518 -1.2175
  896MOL0     C18177   3.475   8.457   2.381 -0.7289  1.1414  0.0907
  896MOL0     C18178   3.517   8.594   2.338  0.0754  0.2001  0.3326
  896MOL0     C18179   3.603   8.667   2.434  1.0269  0.5897 -1.0707
  896MOL0     C18180   3.656   8.794   2.375 -0.5272  0.0482  0.8615
  896MOL0     C18181   3.709   8.870   2.493  0.7289 -0.1755  0.2870
  896MOL0     C18182   3.768   9.013   2.449 -1.2205  0.1613 -0.0335
  896MOL0     C18183   3.910   9.012   2.384  0.3121 -0.4574 -0.4608
  896MOL0    Cl18184   4.052   8.941   2.482  0.4380  0.1732 -0.5536
  896MOL0     C18185   3.392   8.033   2.256 -0.8297 -1.0241  0.5024
  896MOL0     C18186   3.470   7.941   2.195 -0.3224  0.2631  0.1428
  896MOL0     O18187   3.510   7.921   1.821  0.9128 -0.7235  0.4004
  896MOL0     C18188   3.806   7.752   1.827 -0.3269  1.0605 -0.0943
  896MOL0     C18189   3.871   7.656   1.746  0.1917  0.4381  0.2282
  896MOL0     N18190   4.256   7.026   1.458 -0.5745  0.0127  0.3280
  896MOL0     N18191   4.225   6.908   1.446 -0.3552 -0.8428  0.5274
  896MOL0     C18192   3.167   6.634   1.046  0.2025  0.3479 -0.5568
  896MOL0     C18193   3.032   6.633   1.042  0.3708 -0.1026  0.1947
  896MOL0     C18194   2.594   6.646   0.857 -0.3179  1.0323 -0.0724
  896MOL0     C18195   2.553   6.738   0.959  0.7566  1.2404  1.0923
  896MOL0     C18196   2.414   6.753   0.985 -0.3465 -0.6383  0.6494
  896MOL0     C18197   2.324   6.673   0.911  1.0282  0.9249  0.4586
  896MOL0     O18198   2.192   6.686   0.958 -1.0879 -0.7127 -0.4386
  896MOL0     C18199   2.094   6.578   0.965  0.4380 -0.1697  0.1309
  896MOL0     C18200   2.133   6.462   1.059 -1.1480 -0.1731  0.2824
  896MOL0     C18201   2.122   6.527   1.204 -0.8157 -0.1628  0.6431
  896MOL0     C18202   2.248   6.489   1.284  0.0403 -0.1859 -0.4128
  896MOL0     C18203   2.224   6.518   1.430 -0.6072 -0.0254 -0.7795
  896MOL0     C18204   2.227   6.554   1.549 -0.0782  0.6623  0.8549
  896MOL0     C18205   2.366   6.575   0.829 -0.2415  0.1839  1.0193
  896MOL0     C18206   2.498   6.563   0.796  0.4307 -0.2592  0.1282
  896MOL0     H18207   2.999   6.769   0.726  1.9329  0.2182 -1.5203
  896MOL0     H18208   3.230   6.796   0.743 -2.1346  1.1254 -0.3686
  896MOL0     H18209   3.442   6.494   0.996 -0.1325  0.0382  0.7601
  896MOL0     H18210   3.408   6.609   1.130  0.4510 -0.7423  0.0080
  896MOL0     H18211   3.648   6.703   0.995  0.4517 -0.4825 -3.2152
  896MOL0     H18212   3.642   6.546   0.933 -1.5203  0.2386 -1.1143
  896MOL0     H18213   3.634   6.451   1.177 -3.2339  2.6524  3.1507
  896MOL0     H18214   3.657   6.607   1.238 -2.1529 -4.0894  2.0731
  896MOL0     H18215   3.872   6.499   1.211 -1.1691  1.1405  1.3071
  896MOL0     H18216   3.838   6.474   1.042 -1.8336 -1.5018  0.8165
  896MOL0     H18217   3.861   6.731   1.016 -0.0065 -1.2786 -1.3857
  896MOL0     H18218   4.009   6.652   1.057 -1.8271 -2.6151 -1.5439
  896MOL0     H18219   3.819   6.762   1.276  0.0485 -0.6841 -0.4830
  896MOL0     H18220   3.942   6.856   1.183  1.1676 -0.9468 -3.5055
  896MOL0     H18221   4.002   6.592   1.338  0.1929  0.5284  0.1525
  896MOL0     H18222   4.127   6.695   1.281  1.1514 -0.5978  1.3132
  896MOL0     H18223   4.065   6.694   1.528  2.0604  1.4440 -0.3734
  896MOL0     H18224   3.919   6.790   1.483 -0.4310  0.3657 -0.9813
  896MOL0     H18225   3.925   7.042   1.472  0.5259  2.1419 -0.2418
  896MOL0     H18226   4.026   7.257   1.406 -0.7623 -0.1833  1.0662
  896MOL0     H18227   4.207   7.278   1.394 -0.8371 -2.0622 -1.3433
  896MOL0     H18228   4.204   7.282   1.651  2.3221  1.1178 -4.1610
  896MOL0     H18229   4.030   7.265   1.654  0.0371  1.0020 -0.0269
  896MOL0     H18230   4.119   7.499   1.702 -1.2114  0.9400 -0.5512
  896MOL0     H18231   4.211   7.499   1.558  0.2350  5.0064  4.7936
  896MOL0     H18232   3.998   7.491   1.416  0.8655 -1.5180  0.5597
  896MOL0     H18233   3.990   7.630   1.507 -1.9358 -0.4027 -0.1215
  896MOL0     H18234   3.616   7.514   1.566  2.0343  0.6884 -1.7720
  896MOL0     H18235   3.495   7.687   1.708  0.0546 -1.7293 -0.7121
  896MOL0     H18236   3.612   8.133   1.951  0.1562 -1.6506 -0.1680
  896MOL0     H18237   3.518   8.313   2.099  2.6819  0.4908 -2.7229
  896MOL0     H18238   3.266   8.447   2.326  1.1676 -0.5745  3.0219
  896MOL0     H18239   3.369   8.428   2.191 -1.7309 -0.5398 -1.6403
  896MOL0     H18240   3.568   8.401   2.379  0.4505  2.9399  1.6138
  896MOL0     H18241   3.427   8.462   2.479 -1.3306  0.0580 -0.1305
  896MOL0     H18242   3.433   8.658   2.308  1.2317  1.0965 -1.1293
  896MOL0     H18243   3.577   8.596   2.247 -1.5651  3.3647 -0.8574
  896MOL0     H18244   3.536   8.693   2.516 -0.9368 -2.2289 -1.6230
  896MOL0     H18245   3.689   8.613   2.475  1.0870  0.5799 -1.2073
  896MOL0     H18246   3.571   8.844   2.327  0.4975  2.1037  1.1243
  896MOL0     H18247   3.739   8.778   2.307 -1.4833  1.1992 -0.6410
  896MOL0     H18248   3.778   8.812   2.554 -0.5107 -0.7879  1.1410
  896MOL0     H18249   3.625   8.891   2.559 -0.5666 -3.5935 -0.0923
  896MOL0     H18250   3.707   9.046   2.365  1.3257  0.1269 -1.9846
  896MOL0     H18251   3.757   9.094   2.521 -0.5882  0.5820 -0.4055
  896MOL0     H18252   3.935   9.116   2.360 -0.0024 -0.0407  0.8967
  896MOL0     H18253   3.908   8.961   2.288  0.5051 -0.1403 -0.6351
  896MOL0     H18254   3.329   7.992   2.334 -2.9761 -0.4953 -0.8546
  896MOL0     H18255   3.454   7.839   2.228  2.3551  0.7384  3.5689
  896MOL0     H18256   3.855   7.811   1.904 -0.7272  3.8835 -1.8429
  896MOL0     H18257   3.977   7.634   1.756  0.5344 -0.4424 -3.6306
  896MOL0     H18258   3.211   6.588   1.133  2.4171 -1.0889 -2.3249
  896MOL0     H18259   2.967   6.603   1.123 -1.8731 -1.1020 -1.8637
  896MOL0     H18260   2.618   6.791   1.028  0.9306 -0.2527  2.1177
  896MOL0     H18261   2.382   6.833   1.051 -0.5212  2.3213 -2.6706
  896MOL0     H18262   2.079   6.535   0.866 -0.5148  0.6211 -0.0829
  896MOL0     H18263   1.997   6.617   0.996  0.7087 -2.1400  4.1932
  896MOL0     H18264   2.061   6.382   1.042 -0.2972 -0.5122 -2.1696
  896MOL0     H18265   2.234   6.422   1.046  0.0058  2.2362  1.2190
  896MOL0     H18266   2.032   6.480   1.246  0.1893 -1.4477  1.4462
  896MOL0     H18267   2.103   6.634   1.207 -1.7885 -0.2651 -0.7809
  896MOL0     H18268   2.275   6.384   1.268 -1.1469 -0.3017 -1.8687
  896MOL0     H18269   2.334   6.549   1.253 -0.7460  1.4100  0.3892
  896MOL0     H18270   2.232   6.592   1.649  1.5282  1.8950  0.3580
  896MOL0     H18271   2.295   6.519   0.770 -1.3005 -0.0510  2.4633
  896MOL0     H18272   2.541   6.492   0.726  0.9412 -0.1792  0.3622
  897MOL0     O18273   7.575   1.800   7.330 -0.3366 -0.0589  0.3049
  897MOL0     C18274   7.577   1.812   7.210 -0.0380 -0.8124  0.0302
  897MOL0     O18275   7.479   1.860   7.136  0.3289 -0.4598 -0.3379
  897MOL0     C18276   7.364   1.898   7.195  0.4955  0.2689  0.4081
  897MOL0     C18277   7.324   2.031   7.202  0.2564 -1.3661  0.1700
  897MOL0     C18278   7.195   2.071   7.247 -0.1131  0.1578  0.4639
  897MOL0     C18279   7.115   1.965   7.291  0.4563  0.5965 -0.3276
  897MOL0     O18280   6.981   1.992   7.329  0.7004  0.7971  0.6377
  897MOL0     C18281   6.922   2.120   7.367  0.0244 -0.6098  0.0973
  897MOL0     C18282   6.970   2.170   7.493 -0.1584  0.0994  0.6065
  897MOL0     C18283   6.975   2.319   7.517  0.7065 -0.7753  0.8541
  897MOL0     C18284   7.018   2.362   7.664  0.0377 -0.0920  1.0385
  897MOL0     C18285   7.022   2.513   7.665 -0.7145  0.0571  0.0927
  897MOL0     C18286   7.080   2.576   7.799  0.1881 -0.1179  0.0259
  897MOL0     C18287   7.007   2.554   7.931  0.2300  0.0719  0.0791
  897MOL0     C18288   6.860   2.598   7.922  0.2918 -1.0800  0.0378
  897MOL0     N18289   6.853   2.738   7.887  0.2992  0.2112 -0.5851
  897MOL0     C18290   6.890   2.839   7.978 -0.5274  0.9258 -0.5188
  897MOL0     C18291   6.854   2.950   7.916 -0.0687 -0.1292  0.3997
  897MOL0     C18292   6.916   3.087   7.943 -1.0469  1.0786 -0.0222
  897MOL0     C18293   7.045   3.135   7.863 -0.8967 -0.4156 -0.8272
  897MOL0     C18294   7.175   3.057   7.897 -0.9966  0.3933 -0.0003
  897MOL0     C18295   7.226   2.975   7.778  0.2969 -1.1320  0.7968
  897MOL0     O18296   7.332   2.880   7.808  0.4168  0.8114  0.2996
  897MOL0     C18297   7.463   2.930   7.798  1.0788 -0.6174  0.9578
  897MOL0     C18298   7.506   3.045   7.724 -0.5121  0.1322  0.8248
  897MOL0     C18299   7.637   3.079   7.725  0.3774  0.4416 -0.0512
  897MOL0     C18300   7.741   3.001   7.785 -0.3179  0.4849 -0.0250
  897MOL0     C18301   7.880   3.035   7.775  0.6619 -0.5230  0.4419
  897MOL0     O18302   7.966   2.938   7.818  0.0190 -0.5105  0.4097
  897MOL0     C18303   8.094   2.955   7.779 -0.3816  0.8489  0.6356
  897MOL0     C18304   8.129   2.975   7.640  0.4401  0.6865 -0.3987
  897MOL0     C18305   8.263   2.962   7.608  0.3984  0.3796 -0.3508
  897MOL0     C18306   8.362   2.927   7.709  0.3657  0.1064  0.2198
  897MOL0     O18307   8.497   2.929   7.691  0.1197 -0.2405 -0.1921
  897MOL0     C18308   8.564   2.921   7.563  0.1743  1.2112  0.3973
  897MOL0     C18309   8.550   2.778   7.497 -0.1338 -0.4460  0.0630
  897MOL0     C18310   8.588   2.664   7.599 -0.6152 -0.8597  0.1650
  897MOL0     C18311   8.587   2.527   7.530  0.6957 -0.5732 -0.3142
  897MOL0     C18312   8.458   2.503   7.449 -0.6333  0.9134 -0.8200
  897MOL0     C18313   8.461   2.383   7.365 -0.3726 -0.0187  0.7843
  897MOL0     C18314   8.467   2.252   7.441  0.0934  0.4775  0.3793
  897MOL0     C18315   8.399   2.138   7.361  0.4637 -0.6815  0.4273
  897MOL0    Cl18316   8.519   2.076   7.241 -0.4147  0.0347  0.2014
  897MOL0     C18317   8.330   2.910   7.836 -0.2923  0.5023  0.2381
  897MOL0     C18318   8.195   2.918   7.877  0.2212 -0.6715  0.6258
  897MOL0     O18319   7.898   3.157   7.740 -0.3484  0.6733 -0.1527
  897MOL0     C18320   7.693   2.890   7.857 -0.7680  0.3180 -0.1127
  897MOL0     C18321   7.557   2.850   7.851  0.8684  0.0587 -0.1482
  897MOL0     N18322   6.798   2.918   7.801  0.3487  0.0294  0.6525
  897MOL0     N18323   6.791   2.785   7.781 -0.0420  0.2400 -0.3538
  897MOL0     C18324   7.150   1.827   7.273 -0.9010  0.6532 -0.1961
  897MOL0     C18325   7.279   1.793   7.233  0.1080  0.0668 -0.0269
  897MOL0     C18326   7.696   1.749   7.145  0.6024  0.3163 -0.7710
  897MOL0     C18327   7.683   1.696   7.021  0.1669  0.1772  0.8189
  897MOL0     C18328   7.796   1.642   6.956 -0.7455 -1.1562  0.1606
  897MOL0     C18329   7.917   1.624   7.019  0.1303 -0.0703  0.6994
  897MOL0     O18330   8.022   1.548   6.970 -0.3866 -0.0784 -1.0479
  897MOL0     C18331   8.154   1.590   7.010 -0.3107 -1.0778 -0.9363
  897MOL0     C18332   8.249   1.528   6.908 -0.1174  0.3514 -0.5166
  897MOL0     C18333   8.398   1.554   6.935  0.7021  0.0178 -1.1006
  897MOL0     C18334   8.488   1.519   6.816 -0.7207 -0.9185  0.6052
  897MOL0     C18335   8.519   1.377   6.817 -0.1525 -0.3442 -0.3238
  897MOL0     C18336   8.557   1.261   6.792 -0.4068  0.3717  0.2653
  897MOL0     C18337   7.921   1.685   7.147 -0.1892 -0.5031  0.4600
  897MOL0     C18338   7.818   1.755   7.208  0.8377 -0.2457 -0.4743
  897MOL0     H18339   7.393   2.110   7.175 -0.9232  1.8640  5.2720
  897MOL0     H18340   7.174   2.178   7.251  2.7396  0.8927 -1.6436
  897MOL0     H18341   6.814   2.131   7.371  0.1269  1.1562  5.4373
  897MOL0     H18342   6.947   2.181   7.279 -1.7350 -3.8947 -2.9491
  897MOL0     H18343   7.071   2.131   7.505 -0.4545 -0.7464  0.3884
  897MOL0     H18344   6.918   2.118   7.574 -0.7139 -0.1253  0.1155
  897MOL0     H18345   6.878   2.357   7.483  0.3865 -2.9932 -0.8961
  897MOL0     H18346   7.048   2.344   7.440  0.8208 -5.3385 -0.8167
  897MOL0     H18347   6.940   2.332   7.734 -1.4178  1.0246 -0.0559
  897MOL0     H18348   7.118   2.332   7.696 -0.2307  0.3086  2.3207
  897MOL0     H18349   6.927   2.559   7.638  0.5528  1.7824 -1.6540
  897MOL0     H18350   7.095   2.551   7.593  1.4573 -0.1585  2.0359
  897MOL0     H18351   7.088   2.683   7.779  1.7177 -0.1146  0.5418
  897MOL0     H18352   7.182   2.541   7.819  1.0877  2.5546  0.5444
  897MOL0     H18353   7.003   2.450   7.962  0.8074 -0.4674 -1.5867
  897MOL0     H18354   7.050   2.621   8.006  0.6259 -1.2065  1.0298
  897MOL0     H18355   6.812   2.571   8.017  2.3810 -1.5361  1.0148
  897MOL0     H18356   6.802   2.547   7.845  1.7248  1.5627 -2.9954
  897MOL0     H18357   6.950   2.824   8.068 -1.4002  1.5369  0.1905
  897MOL0     H18358   6.932   3.102   8.051 -2.4859  1.7335  0.1266
  897MOL0     H18359   6.832   3.149   7.912 -1.9250  0.9688  1.9756
  897MOL0     H18360   7.069   3.235   7.901 -1.6819 -0.4481 -0.2022
  897MOL0     H18361   7.027   3.142   7.755 -0.0587  2.5061 -0.8666
  897MOL0     H18362   7.256   3.121   7.934  0.3304 -1.1803 -0.0806
  897MOL0     H18363   7.159   2.981   7.974 -0.8962  1.0207  0.6538
  897MOL0     H18364   7.256   3.040   7.695 -0.9328  0.1525  1.3166
  897MOL0     H18365   7.144   2.922   7.728  0.6901  0.6999 -2.0051
  897MOL0     H18366   7.435   3.116   7.682 -1.8525 -2.1358 -1.0218
  897MOL0     H18367   7.666   3.169   7.671  0.7975 -0.3458 -1.1823
  897MOL0     H18368   8.052   2.985   7.565 -0.5636 -1.3453  0.2810
  897MOL0     H18369   8.299   2.969   7.506  0.1063  0.2755 -0.4628
  897MOL0     H18370   8.673   2.930   7.561  0.0132  4.0358 -1.1515
  897MOL0     H18371   8.530   3.004   7.500  2.8605  2.8606  0.9337
  897MOL0     H18372   8.616   2.775   7.410  1.0133 -0.6683  0.9133
  897MOL0     H18373   8.450   2.769   7.454  0.4175 -0.5423 -1.2171
  897MOL0     H18374   8.523   2.667   7.687  0.4648  1.7122  0.9536
  897MOL0     H18375   8.687   2.686   7.641 -0.8078 -1.4104  0.9496
  897MOL0     H18376   8.672   2.521   7.461  0.2640  1.7957 -1.1914
  897MOL0     H18377   8.600   2.455   7.611 -1.3152 -1.4647 -0.7146
  897MOL0     H18378   8.458   2.585   7.376  1.5901  0.2039 -1.7010
  897MOL0     H18379   8.367   2.503   7.509  0.0659 -2.1677  0.4090
  897MOL0     H18380   8.537   2.385   7.287 -1.0832  0.3898  0.0828
  897MOL0     H18381   8.370   2.387   7.304  0.7639  3.4112 -0.9151
  897MOL0     H18382   8.571   2.238   7.471 -0.1518 -1.6944  0.3399
  897MOL0     H18383   8.400   2.251   7.528 -0.8041  0.0105 -0.2926
  897MOL0     H18384   8.311   2.184   7.316  2.1318  2.8698  0.4548
  897MOL0     H18385   8.367   2.066   7.438 -0.6519  0.0326  0.6622
  897MOL0     H18386   8.410   2.885   7.906 -1.4714 -0.9203  1.1545
  897MOL0     H18387   8.159   2.904   7.979 -2.9000  3.1961  0.3351
  897MOL0     H18388   7.778   2.838   7.900 -0.1607 -2.3944 -4.0210
  897MOL0     H18389   7.531   2.770   7.920 -1.4298  1.2516  0.4809
  897MOL0     H18390   7.082   1.756   7.319 -2.0729  2.5735  1.2163
  897MOL0     H18391   7.326   1.695   7.238 -2.1407 -1.0795 -0.2394
  897MOL0     H18392   7.592   1.706   6.963 -0.6502 -3.3569  1.2336
  897MOL0     H18393   7.783   1.603   6.856  2.7912 -1.9282 -0.1358
  897MOL0     H18394   8.174   1.558   7.113 -0.8765  1.3685  0.0002
  897MOL0     H18395   8.169   1.698   7.006  1.7077 -1.2564  0.0637
  897MOL0     H18396   8.236   1.421   6.890 -0.5071  0.7467 -2.9181
  897MOL0     H18397   8.224   1.578   6.814  3.2968  0.2006 -1.6464
  897MOL0     H18398   8.434   1.511   7.029 -2.0441  2.9603  1.5417
  897MOL0     H18399   8.415   1.660   6.958 -0.9473  0.1618 -0.3463
  897MOL0     H18400   8.416   1.528   6.733 -1.5716  2.2869  1.5491
  897MOL0     H18401   8.570   1.590   6.801 -1.1596 -0.7288 -1.2947
  897MOL0     H18402   8.582   1.158   6.776  0.1320  0.2001  2.0725
  897MOL0     H18403   8.014   1.688   7.203  1.1259  2.4799 -1.6134
  897MOL0     H18404   7.831   1.798   7.307  1.8709  2.1824 -1.5666
  898MOL0     O18405   4.169   0.246   1.252 -0.6087  0.1767  0.6458
  898MOL0     C18406   4.287   0.223   1.208 -0.2075  0.2317 -0.0456
  898MOL0     O18407   4.404   0.232   1.275 -0.5859 -0.9822  0.2976
  898MOL0     C18408   4.386   0.262   1.411 -0.1700 -0.1340  0.1429
  898MOL0     C18409   4.402   0.397   1.461  0.2159 -0.4827  0.3601
  898MOL0     C18410   4.397   0.423   1.602  0.0002  0.3184  0.8919
  898MOL0     C18411   4.389   0.316   1.687  0.1940 -0.1636 -0.8681
  898MOL0     O18412   4.387   0.325   1.827 -0.0429 -0.2257  0.0932
  898MOL0     C18413   4.489   0.405   1.892  0.6157  0.1177  0.8812
  898MOL0     C18414   4.513   0.363   2.033 -1.0979  0.2488 -0.5963
  898MOL0     C18415   4.562   0.225   2.046 -0.7552  0.3270  0.1842
  898MOL0     C18416   4.476   0.132   2.134  1.1805  0.2399  0.5357
  898MOL0     C18417   4.496  -0.023   2.124 -0.2811 -0.3264 -0.3614
  898MOL0     C18418   4.638  -0.086   2.139  0.8665 -0.3499 -0.9061
  898MOL0     C18419   4.726  -0.090   2.009 -0.3370  0.5399  0.0982
  898MOL0     C18420   4.859  -0.168   2.026 -0.4159 -0.3506  0.0259
  898MOL0     N18421   4.945  -0.152   1.911 -0.5519  0.1000 -0.3861
  898MOL0     C18422   4.990  -0.260   1.837 -0.1290 -0.3695 -0.3674
  898MOL0     C18423   5.083  -0.205   1.749 -0.8324  0.2811  0.9189
  898MOL0     C18424   5.155  -0.279   1.635  0.5943  1.1112  0.2295
  898MOL0     C18425   5.300  -0.316   1.656  0.4123 -0.8777 -0.1213
  898MOL0     C18426   5.354  -0.418   1.560 -0.0226 -0.7739  0.2377
  898MOL0     C18427   5.503  -0.424   1.587 -0.5183  0.1386  0.1410
  898MOL0     O18428   5.566  -0.554   1.528  0.0605 -0.0959 -0.1761
  898MOL0     C18429   5.584  -0.564   1.398 -0.8153  0.3497  0.7673
  898MOL0     C18430   5.581  -0.456   1.312 -0.5102  0.3900 -0.2984
  898MOL0     C18431   5.628  -0.470   1.179  0.3944 -0.2998  0.3913
  898MOL0     C18432   5.682  -0.595   1.138 -0.1677 -0.6507 -0.7826
  898MOL0     C18433   5.738  -0.617   1.006 -0.1673  0.3212  0.3799
  898MOL0     O18434   5.788  -0.506   0.951  0.0981 -0.6488  0.1148
  898MOL0     C18435   5.859  -0.493   0.834  0.4277 -0.0820 -0.4882
  898MOL0     C18436   5.879  -0.594   0.744  0.2633 -0.1245 -0.6021
  898MOL0     C18437   5.935  -0.559   0.617 -0.2251 -1.3515  0.3860
  898MOL0     C18438   5.974  -0.431   0.579  0.4512 -0.0760  0.0605
  898MOL0     O18439   6.027  -0.403   0.455  0.2949  0.6746  0.1173
  898MOL0     C18440   5.951  -0.455   0.336  0.4740  0.7044  0.9795
  898MOL0     C18441   6.036  -0.438   0.213  0.4396  1.2753 -0.8476
  898MOL0     C18442   6.075  -0.296   0.191 -0.0270 -0.1181  1.0439
  898MOL0     C18443   6.188  -0.303   0.078 -0.6776 -0.1553  0.4329
  898MOL0     C18444   6.141  -0.326  -0.070 -0.6542 -0.1501  0.2872
  898MOL0     C18445   6.247  -0.307  -0.181  0.1914 -0.8355  0.8528
  898MOL0     C18446   6.387  -0.368  -0.134 -0.1553 -0.2476 -0.2123
  898MOL0     C18447   6.380  -0.520  -0.126 -0.0189  0.0953 -0.3203
  898MOL0    Cl18448   6.431  -0.570  -0.288  0.4154  0.1187 -0.3095
  898MOL0     C18449   5.961  -0.333   0.678 -0.2730  0.2723 -0.1916
  898MOL0     C18450   5.898  -0.357   0.805 -0.5320  0.6520  0.2215
  898MOL0     O18451   5.765  -0.730   0.976  0.1342  0.5863 -0.2441
  898MOL0     C18452   5.675  -0.704   1.232  0.1227 -1.6550  0.8914
  898MOL0     C18453   5.632  -0.685   1.358 -0.4274  0.3397  0.3747
  898MOL0     N18454   5.079  -0.076   1.758 -0.7034  0.6452 -0.7466
  898MOL0     N18455   5.010  -0.041   1.856  0.4840 -0.2157  0.8789
  898MOL0     C18456   4.373   0.185   1.644  1.0900  0.0998  0.2705
  898MOL0     C18457   4.380   0.158   1.508 -0.9731  0.2154 -0.3795
  898MOL0     C18458   4.286   0.202   1.063 -0.8856 -0.9974 -0.3930
  898MOL0     C18459   4.384   0.115   1.010 -0.3990  0.5529 -0.3551
  898MOL0     C18460   4.385   0.099   0.871  0.1222 -0.2388 -0.5442
  898MOL0     C18461   4.291   0.156   0.784  0.0498 -0.6520 -1.4694
  898MOL0     O18462   4.308   0.134   0.650  0.1368 -0.4379  0.0200
  898MOL0     C18463   4.183   0.132   0.571 -0.3430 -0.5595  0.4503
  898MOL0     C18464   4.236   0.090   0.437 -0.3390 -0.3139  1.0327
  898MOL0     C18465   4.118   0.102   0.335  1.0104 -0.2965 -1.0710
  898MOL0     C18466   4.148   0.110   0.187  0.1905 -0.9927 -0.4278
  898MOL0     C18467   4.198   0.252   0.175 -0.1555 -0.1093 -0.1849
  898MOL0     C18468   4.259   0.356   0.159  0.4177 -0.0303  0.0147
  898MOL0     C18469   4.193   0.230   0.843  0.3544 -0.4990 -1.1334
  898MOL0     C18470   4.193   0.259   0.982 -0.2196  0.3599 -0.0031
  898MOL0     H18471   4.410   0.479   1.391 -0.2500 -0.6910  0.0583
  898MOL0     H18472   4.395   0.530   1.623  0.4949  1.1572 -2.5808
  898MOL0     H18473   4.448   0.506   1.887 -3.4381 -1.1330  4.0571
  898MOL0     H18474   4.581   0.393   1.834 -1.9165 -0.8172 -3.3954
  898MOL0     H18475   4.418   0.370   2.086  0.5609  1.0446  2.5263
  898MOL0     H18476   4.585   0.428   2.085 -1.0361  1.3207 -1.9654
  898MOL0     H18477   4.668   0.219   2.075 -1.0257  2.2793  1.7661
  898MOL0     H18478   4.558   0.183   1.945  1.1617 -1.2973  0.7210
  898MOL0     H18479   4.498   0.160   2.237  1.3821 -0.5312  0.7129
  898MOL0     H18480   4.374   0.169   2.123  0.6060 -0.2046  3.5938
  898MOL0     H18481   4.441  -0.050   2.033 -0.9739  1.3977 -0.4801
  898MOL0     H18482   4.447  -0.079   2.204  0.6086 -0.4054  0.1346
  898MOL0     H18483   4.621  -0.187   2.177 -0.0651  0.4835  1.0040
  898MOL0     H18484   4.697  -0.034   2.215  0.6101  1.5288 -1.9339
  898MOL0     H18485   4.657  -0.130   1.934 -2.8122  0.2963  2.3534
  898MOL0     H18486   4.758   0.010   1.979 -1.0274  0.7707  0.0984
  898MOL0     H18487   4.832  -0.273   2.042 -2.5487  0.4423  2.2716
  898MOL0     H18488   4.897  -0.122   2.117 -0.4491  0.4074 -0.3421
  898MOL0     H18489   4.962  -0.362   1.861  2.0197 -0.1289  4.2965
  898MOL0     H18490   5.130  -0.225   1.543 -2.4613 -1.3231 -0.5745
  898MOL0     H18491   5.107  -0.377   1.620  3.1160 -0.0459 -0.7528
  898MOL0     H18492   5.327  -0.365   1.751  1.9275  2.9162  1.5968
  898MOL0     H18493   5.360  -0.226   1.643  0.2387 -0.5336  1.2928
  898MOL0     H18494   5.307  -0.517   1.560 -0.6038 -0.5129 -0.7984
  898MOL0     H18495   5.337  -0.381   1.458 -1.2038 -2.2665 -0.1409
  898MOL0     H18496   5.529  -0.424   1.693  1.9647  2.3837 -0.3384
  898MOL0     H18497   5.550  -0.332   1.551 -1.5073  0.0451 -1.4910
  898MOL0     H18498   5.551  -0.359   1.350 -1.1020 -1.1425  3.6190
  898MOL0     H18499   5.630  -0.389   1.106  0.1445  1.4859  2.2602
  898MOL0     H18500   5.848  -0.694   0.773 -1.5360  0.8850  1.2519
  898MOL0     H18501   5.939  -0.643   0.547 -1.6544 -1.6528  0.6257
  898MOL0     H18502   5.856  -0.404   0.322  0.0676  0.1829  1.8198
  898MOL0     H18503   5.940  -0.563   0.350 -3.6565  0.3175 -2.9659
  898MOL0     H18504   5.987  -0.477   0.123  1.6746  1.9444 -1.8500
  898MOL0     H18505   6.123  -0.504   0.219 -0.6943 -0.4179 -1.9818
  898MOL0     H18506   6.116  -0.251   0.281  0.3603  2.8408 -0.4903
  898MOL0     H18507   5.986  -0.241   0.158  0.7688 -0.3835 -1.7868
  898MOL0     H18508   6.242  -0.209   0.066 -1.9252  0.7091  1.2378
  898MOL0     H18509   6.261  -0.380   0.103  1.0946  0.8392 -1.3754
  898MOL0     H18510   6.059  -0.255  -0.083 -0.1071  0.5496  0.6141
  898MOL0     H18511   6.106  -0.429  -0.085 -0.3645 -0.1060 -0.7502
  898MOL0     H18512   6.252  -0.199  -0.199  0.3470 -1.1669 -1.3631
  898MOL0     H18513   6.203  -0.353  -0.270 -1.4337 -0.1258  1.2607
  898MOL0     H18514   6.462  -0.346  -0.211 -1.4618 -3.5010 -2.6507
  898MOL0     H18515   6.440  -0.319  -0.052 -2.1432  0.2199  0.8529
  898MOL0     H18516   6.291  -0.572  -0.090  1.9082 -2.2227  1.3540
  898MOL0     H18517   6.460  -0.539  -0.054 -0.2415 -1.2751 -0.4104
  898MOL0     H18518   5.999  -0.234   0.660  1.4425  0.3625  3.0925
  898MOL0     H18519   5.875  -0.285   0.883 -0.3356  0.6712  0.2634
  898MOL0     H18520   5.713  -0.801   1.206  0.4191 -1.4607  0.6045
  898MOL0     H18521   5.644  -0.765   1.430  2.2528 -3.6088 -3.9255
  898MOL0     H18522   4.371   0.111   1.723 -1.7488 -0.9740 -0.6626
  898MOL0     H18523   4.390   0.053   1.482  1.0869  0.2632  0.1108
  898MOL0     H18524   4.452   0.060   1.074 -2.0630  1.1813  2.0825
  898MOL0     H18525   4.473   0.049   0.832  1.1274 -0.0569  1.3709
  898MOL0     H18526   4.144   0.232   0.548  3.0557  0.3750 -1.9732
  898MOL0     H18527   4.105   0.071   0.619 -2.8980  1.7052 -0.5417
  898MOL0     H18528   4.318   0.159   0.413  1.0011 -1.5702  1.8586
  898MOL0     H18529   4.290  -0.004   0.446  2.3494  1.0230  0.1927
  898MOL0     H18530   4.049   0.184   0.355 -0.1194 -0.9869 -2.0525
  898MOL0     H18531   4.061   0.012   0.359  2.0536 -1.5992 -3.2212
  898MOL0     H18532   4.229   0.037   0.174 -0.4911 -1.8826  0.2040
  898MOL0     H18533   4.066   0.090   0.117  0.9349  1.2165 -2.0507
  898MOL0     H18534   4.314   0.444   0.130  0.6840 -0.3810 -0.5692
  898MOL0     H18535   4.119   0.284   0.785 -0.1012  0.1528  0.0341
  898MOL0     H18536   4.110   0.314   1.025 -1.1789  1.1641 -2.7029
  899MOL0     O18537   4.387   1.400   5.156  0.7644  0.7653  0.5073
  899MOL0     C18538   4.425   1.517   5.151  0.5161  0.2398  0.4255
  899MOL0     O18539   4.398   1.605   5.263  0.3144  0.6168 -0.2962
  899MOL0     C18540   4.333   1.560   5.377  0.3110 -1.0002 -0.6773
  899MOL0     C18541   4.343   1.432   5.431  0.7005  0.3680 -0.4523
  899MOL0     C18542   4.271   1.402   5.549 -0.2949  0.2166 -0.4593
  899MOL0     C18543   4.184   1.491   5.616 -0.8627 -0.8090 -0.1184
  899MOL0     O18544   4.115   1.467   5.735  0.9532  0.3676 -0.7091
  899MOL0     C18545   4.127   1.331   5.787  0.0644  0.1745  0.3627
  899MOL0     C18546   4.039   1.313   5.909  0.2180 -0.9688  0.7421
  899MOL0     C18547   4.042   1.165   5.957 -0.8815  0.0527 -0.2305
  899MOL0     C18548   3.904   1.116   6.004 -0.2337  0.1225 -0.2968
  899MOL0     C18549   3.913   0.961   6.034  0.0969 -0.6540  0.6732
  899MOL0     C18550   3.866   0.887   5.902  0.9838  1.0148 -0.1824
  899MOL0     C18551   3.881   0.734   5.918 -0.0355  0.0950  0.0132
  899MOL0     C18552   3.820   0.658   5.797  0.0438  0.3706 -0.9239
  899MOL0     N18553   3.918   0.600   5.712  0.4759  0.1370  0.3434
  899MOL0     C18554   3.922   0.630   5.577  0.6837  0.2829 -0.7883
  899MOL0     C18555   3.998   0.537   5.519  0.3678 -0.5675  0.4663
  899MOL0     C18556   4.033   0.505   5.375 -0.9408 -0.0192  0.3284
  899MOL0     C18557   4.005   0.356   5.343 -0.4271 -0.5082 -0.2938
  899MOL0     C18558   4.032   0.312   5.197 -0.1628  0.5778  0.2629
  899MOL0     C18559   3.957   0.189   5.173  0.5102  0.1577 -0.1944
  899MOL0     O18560   4.019   0.069   5.237 -0.0018 -0.4652 -0.6284
  899MOL0     C18561   3.963  -0.055   5.215  0.3765  0.5989  0.1364
  899MOL0     C18562   3.847  -0.072   5.142  0.7963  0.0703 -0.0941
  899MOL0     C18563   3.792  -0.198   5.130  0.5756  0.0105 -0.5700
  899MOL0     C18564   3.841  -0.318   5.194 -0.4202 -0.0573  1.1671
  899MOL0     C18565   3.780  -0.454   5.166 -0.4100  0.5368  0.1610
  899MOL0     O18566   3.666  -0.465   5.093 -0.5100  0.3550 -0.4616
  899MOL0     C18567   3.596  -0.582   5.104  0.3008  0.0053  1.1604
  899MOL0     C18568   3.522  -0.610   5.224  0.7770  0.7454 -0.3032
  899MOL0     C18569   3.447  -0.723   5.229  0.7876 -0.6275  0.9368
  899MOL0     C18570   3.443  -0.814   5.115 -0.0339 -0.6524 -0.1112
  899MOL0     O18571   3.376  -0.929   5.127  0.1372  0.0566  0.1444
  899MOL0     C18572   3.400  -1.029   5.025  0.3906 -0.2431 -0.2201
  899MOL0     C18573   3.329  -1.159   5.057 -0.5570  0.0585 -0.9005
  899MOL0     C18574   3.299  -1.256   4.940 -0.1890 -0.0449 -0.4707
  899MOL0     C18575   3.238  -1.383   4.999 -0.0374  0.5109  0.2208
  899MOL0     C18576   3.276  -1.505   4.908  0.5443  0.4810 -0.0837
  899MOL0     C18577   3.198  -1.629   4.939  0.5572  0.2836 -0.9033
  899MOL0     C18578   3.244  -1.692   5.079 -0.7941 -0.5476  0.3885
  899MOL0     C18579   3.216  -1.837   5.073 -0.1934  0.0509  0.0208
  899MOL0    Cl18580   3.038  -1.862   5.059  0.1268  0.3582  0.0334
  899MOL0     C18581   3.523  -0.776   4.998  0.1823  0.2542 -0.4536
  899MOL0     C18582   3.596  -0.659   4.995 -1.1911  0.4013 -0.3066
  899MOL0     O18583   3.842  -0.559   5.207  0.1264 -0.3417 -0.8966
  899MOL0     C18584   3.965  -0.303   5.253 -1.2797 -0.2687 -0.5792
  899MOL0     C18585   4.022  -0.174   5.274 -0.2303 -0.2688 -0.4095
  899MOL0     N18586   4.029   0.447   5.620 -0.2566  0.0735 -0.1047
  899MOL0     N18587   3.979   0.482   5.731  0.5314 -0.5600 -1.5809
  899MOL0     C18588   4.168   1.619   5.555  0.9287  0.6327  0.2241
  899MOL0     C18589   4.238   1.647   5.437 -0.0080 -0.6308  0.8697
  899MOL0     C18590   4.505   1.565   5.038  0.5296  0.1034 -0.0807
  899MOL0     C18591   4.537   1.698   5.006 -0.0348 -0.1170 -0.3443
  899MOL0     C18592   4.633   1.724   4.907 -0.2652 -0.4900 -1.4486
  899MOL0     C18593   4.684   1.622   4.830 -0.3407  0.7466  1.0399
  899MOL0     O18594   4.784   1.664   4.746  0.3792 -0.0354 -0.0157
  899MOL0     C18595   4.839   1.572   4.651 -0.4361  0.3969  0.2636
  899MOL0     C18596   4.974   1.614   4.589 -0.5977 -0.5981 -0.7593
  899MOL0     C18597   4.992   1.763   4.548 -0.2923 -1.2027 -0.3224
  899MOL0     C18598   4.891   1.804   4.440 -0.4235 -0.6786 -0.3704
  899MOL0     C18599   4.905   1.947   4.414 -0.4428 -0.2002  1.0263
  899MOL0     C18600   4.920   2.067   4.390 -0.3621 -0.2605  0.5989
  899MOL0     C18601   4.632   1.492   4.839 -0.3941 -0.5457  0.0507
  899MOL0     C18602   4.552   1.460   4.948  0.4012  0.1872 -0.3974
  899MOL0     H18603   4.408   1.351   5.401  0.1765 -1.0321  1.9130
  899MOL0     H18604   4.309   1.312   5.598  1.6994 -0.2648 -2.7318
  899MOL0     H18605   4.232   1.307   5.802  0.7352  3.2785  1.3768
  899MOL0     H18606   4.089   1.267   5.707 -1.1804  0.4209  0.7346
  899MOL0     H18607   3.943   1.351   5.874  2.0719  0.6036 -3.2980
  899MOL0     H18608   4.071   1.388   5.982  1.3818  0.1092 -0.7787
  899MOL0     H18609   4.124   1.160   6.029 -2.4055  2.8039  1.9037
  899MOL0     H18610   4.072   1.098   5.876  0.3342  1.7983 -1.3051
  899MOL0     H18611   3.869   1.162   6.097  0.0085 -0.8309  0.2829
  899MOL0     H18612   3.828   1.139   5.928 -0.0551 -1.3738 -0.9583
  899MOL0     H18613   3.854   0.937   6.123 -0.2277  0.6327  0.8168
  899MOL0     H18614   4.017   0.933   6.057  0.9586 -1.4218 -3.4379
  899MOL0     H18615   3.934   0.922   5.824  0.4627 -2.1466 -2.2376
  899MOL0     H18616   3.763   0.908   5.869 -0.2023 -3.2969  0.1458
  899MOL0     H18617   3.986   0.710   5.938 -0.1048  0.6549  1.1113
  899MOL0     H18618   3.828   0.706   6.010 -1.0674  1.0359 -0.2842
  899MOL0     H18619   3.771   0.734   5.736  0.1513  0.3851 -0.9905
  899MOL0     H18620   3.760   0.574   5.835  0.7412  0.2248 -0.1090
  899MOL0     H18621   3.874   0.721   5.540  1.6151  0.8100 -0.7367
  899MOL0     H18622   4.132   0.543   5.347 -1.6966  1.2321 -0.7500
  899MOL0     H18623   3.963   0.558   5.311 -0.9362 -0.4665 -0.0502
  899MOL0     H18624   3.901   0.343   5.374 -0.1597 -0.8136  0.4998
  899MOL0     H18625   4.068   0.292   5.405 -4.8951 -1.8160  3.4631
  899MOL0     H18626   3.991   0.393   5.135  1.3876  2.0437  1.0623
  899MOL0     H18627   4.139   0.298   5.177 -0.4108  0.5474 -1.2015
  899MOL0     H18628   3.935   0.187   5.066 -0.4468 -2.0332 -0.0078
  899MOL0     H18629   3.859   0.207   5.216  1.3462  1.9995  1.0724
  899MOL0     H18630   3.786   0.014   5.116 -1.1540 -0.8684  1.1460
  899MOL0     H18631   3.692  -0.200   5.087  0.4781 -0.2652 -0.3313
  899MOL0     H18632   3.534  -0.541   5.307 -1.0995  2.0076 -1.0038
  899MOL0     H18633   3.390  -0.752   5.317 -0.7020  0.4568  0.3681
  899MOL0     H18634   3.507  -1.040   5.004  0.2411  1.3876 -2.1924
  899MOL0     H18635   3.359  -0.999   4.928  1.6228 -0.6717 -0.8956
  899MOL0     H18636   3.230  -1.126   5.091  0.7284  3.0403  0.3272
  899MOL0     H18637   3.378  -1.214   5.137  1.4936 -3.0246 -3.9790
  899MOL0     H18638   3.397  -1.281   4.897  0.5231  1.7205  0.0482
  899MOL0     H18639   3.233  -1.203   4.872 -1.4428  1.9540  2.1457
  899MOL0     H18640   3.283  -1.396   5.098 -0.3641 -2.7773  0.0633
  899MOL0     H18641   3.129  -1.377   5.013 -0.8281 -2.6828 -2.9475
  899MOL0     H18642   3.382  -1.528   4.926 -0.4371 -4.2913  1.1481
  899MOL0     H18643   3.259  -1.479   4.803  0.3286 -3.5488 -1.2128
  899MOL0     H18644   3.231  -1.697   4.860  3.1408  0.3354  0.0171
  899MOL0     H18645   3.092  -1.605   4.933  0.5564  0.3588 -0.5898
  899MOL0     H18646   3.350  -1.675   5.097 -0.3901 -2.4325 -0.0825
  899MOL0     H18647   3.187  -1.627   5.147  0.0526 -0.6197  1.1763
  899MOL0     H18648   3.261  -1.893   5.155 -0.6172 -3.1660 -1.7795
  899MOL0     H18649   3.265  -1.874   4.983  1.1398 -0.7102  1.0352
  899MOL0     H18650   3.526  -0.846   4.916 -0.3883 -1.7282  1.1342
  899MOL0     H18651   3.662  -0.628   4.915 -2.0138  0.9380 -0.7847
  899MOL0     H18652   4.017  -0.389   5.294  0.2269  0.3071 -1.2132
  899MOL0     H18653   4.112  -0.167   5.335 -0.9579  0.2634  0.6398
  899MOL0     H18654   4.094   1.689   5.594  2.1487  1.7407  0.6338
  899MOL0     H18655   4.237   1.750   5.402 -0.9262 -0.2911  1.8409
  899MOL0     H18656   4.500   1.783   5.063  1.6820  0.6740 -0.3410
  899MOL0     H18657   4.673   1.822   4.883  1.5205 -1.7546 -4.0302
  899MOL0     H18658   4.776   1.546   4.566 -1.8857  1.6059  0.9230
  899MOL0     H18659   4.863   1.476   4.697 -3.6833 -0.6611 -0.0366
  899MOL0     H18660   5.049   1.586   4.664  2.1730  0.2882 -3.0104
  899MOL0     H18661   5.004   1.550   4.506  3.3506 -1.0163  0.7690
  899MOL0     H18662   5.092   1.771   4.505  0.2931 -1.2529  1.0019
  899MOL0     H18663   4.995   1.832   4.632 -1.4399  1.3997 -2.2977
  899MOL0     H18664   4.920   1.750   4.349  1.8136 -0.2802  0.0404
  899MOL0     H18665   4.794   1.787   4.487 -0.7626  2.8211  0.4635
  899MOL0     H18666   4.939   2.171   4.377  0.1420 -0.5759 -1.6537
  899MOL0     H18667   4.671   1.398   4.799 -2.4538 -1.6342  0.4902
  899MOL0     H18668   4.534   1.354   4.961 -1.9916  0.4266 -1.3153
  900MOL0     O18669   4.436   1.573   6.991 -0.9625  0.3826  0.1252
  900MOL0     C18670   4.367   1.480   6.965  0.8277  0.3801  0.4204
  900MOL0     O18671   4.283   1.415   7.063 -0.3841  0.2331  0.1590
  900MOL0     C18672   4.289   1.453   7.194  0.1981  0.1522  0.7758
  900MOL0     C18673   4.164   1.464   7.255  0.8000  0.4551 -0.4686
  900MOL0     C18674   4.164   1.500   7.391  1.4123 -0.1770 -0.4029
  900MOL0     C18675   4.283   1.493   7.473  0.8163  0.5825  0.9119
  900MOL0     O18676   4.285   1.523   7.603 -0.8392  0.4834 -0.1799
  900MOL0     C18677   4.217   1.437   7.691  0.3464  0.1311 -0.7526
  900MOL0     C18678   4.284   1.459   7.828 -0.4988  0.1161 -0.4392
  900MOL0     C18679   4.256   1.346   7.936 -0.4935 -0.4715 -0.3924
  900MOL0     C18680   4.295   1.391   8.076  0.8281  0.7817 -0.7883
  900MOL0     C18681   4.448   1.403   8.086 -1.1888  0.4886  1.1494
  900MOL0     C18682   4.516   1.345   8.211 -0.0611 -0.2404 -0.1427
  900MOL0     C18683   4.502   1.418   8.343  0.1804  0.2915 -0.4503
  900MOL0     C18684   4.579   1.551   8.355  0.6152 -0.7537 -0.1590
  900MOL0     N18685   4.703   1.534   8.424  0.7111 -0.0150  0.1315
  900MOL0     C18686   4.768   1.604   8.519  0.3902 -0.4575 -0.3194
  900MOL0     C18687   4.894   1.554   8.518 -0.2179  0.1394  0.3225
  900MOL0     C18688   5.024   1.594   8.594  0.8122 -0.7598 -0.7120
  900MOL0     C18689   5.059   1.486   8.700 -1.2115  0.1670  1.4115
  900MOL0     C18690   4.949   1.419   8.782  0.8560 -0.2933 -0.3342
  900MOL0     C18691   4.933   1.486   8.928  0.5585 -0.0818 -0.3026
  900MOL0     O18692   5.065   1.482   9.001  0.2672 -0.5250  0.7803
  900MOL0     C18693   5.064   1.398   9.102  0.2394 -0.0980  0.4154
  900MOL0     C18694   5.043   1.432   9.234  0.2887  0.3294 -0.7692
  900MOL0     C18695   5.065   1.333   9.334  0.0708 -0.6296 -0.3644
  900MOL0     C18696   5.072   1.195   9.316  0.6771 -0.2492  0.6733
  900MOL0     C18697   5.093   1.089   9.413 -0.1276  0.3363 -0.6385
  900MOL0     O18698   5.096   0.959   9.366  0.9041  0.0629  0.3176
  900MOL0     C18699   5.099   0.849   9.445  0.4244 -0.8428 -0.3132
  900MOL0     C18700   4.986   0.816   9.524  0.8478 -0.2818  0.9532
  900MOL0     C18701   4.970   0.700   9.588 -0.0167  0.0213  1.0592
  900MOL0     C18702   5.083   0.614   9.587  0.4757 -0.4544 -0.2665
  900MOL0     O18703   5.080   0.500   9.666 -0.1326  0.5498 -0.8124
  900MOL0     C18704   5.024   0.386   9.600  0.1656  0.4429 -0.0328
  900MOL0     C18705   5.038   0.266   9.710  0.3465 -0.2750 -0.4788
  900MOL0     C18706   5.175   0.188   9.718 -0.2186 -0.5062 -0.6792
  900MOL0     C18707   5.184   0.072   9.812  1.0331  0.8142 -0.2114
  900MOL0     C18708   5.186   0.105   9.958 -1.1517  0.0468 -0.6572
  900MOL0     C18709   5.231  -0.023  10.050  0.1335 -0.2229  0.3963
  900MOL0     C18710   5.370  -0.069  10.034 -0.2509  1.0008  0.7549
  900MOL0     C18711   5.390  -0.201  10.115 -0.0788  0.0781  1.2756
  900MOL0    Cl18712   5.357  -0.188  10.292  0.3494  0.5025 -0.3929
  900MOL0     C18713   5.201   0.643   9.517  0.2305  0.5661 -0.6996
  900MOL0     C18714   5.211   0.758   9.442  0.0914  0.0799  0.3354
  900MOL0     O18715   5.117   1.124   9.526 -0.4813 -0.1280  0.1654
  900MOL0     C18716   5.080   1.162   9.180 -0.1409 -0.1309  0.7517
  900MOL0     C18717   5.078   1.253   9.073  0.5318 -0.3830  0.3064
  900MOL0     N18718   4.907   1.460   8.412  0.9134  0.3322  0.0775
  900MOL0     N18719   4.787   1.453   8.356  0.3595  0.8705 -0.2128
  900MOL0     C18720   4.395   1.463   7.407  0.0388  0.3196 -0.4183
  900MOL0     C18721   4.405   1.454   7.270 -0.3520  1.0504 -0.6565
  900MOL0     C18722   4.358   1.425   6.836  0.0380  0.4963 -0.8518
  900MOL0     C18723   4.410   1.499   6.730  0.0441  0.8433  0.2042
  900MOL0     C18724   4.389   1.460   6.600 -0.2001  0.6354 -0.0350
  900MOL0     C18725   4.307   1.344   6.569  0.0299 -0.5600 -0.9718
  900MOL0     O18726   4.293   1.322   6.434  0.1791 -0.2277  0.5897
  900MOL0     C18727   4.173   1.255   6.395 -0.0156  0.3917 -0.4511
  900MOL0     C18728   4.200   1.111   6.366 -0.9330 -0.8623  0.6854
  900MOL0     C18729   4.078   1.029   6.365  0.8025  0.3453 -0.3548
  900MOL0     C18730   4.101   0.866   6.365  0.0936 -0.4987 -0.3068
  900MOL0     C18731   3.981   0.796   6.409  0.0735 -1.1198 -0.0496
  900MOL0     C18732   3.869   0.755   6.442  1.0367 -0.7466 -0.2268
  900MOL0     C18733   4.269   1.265   6.679 -0.3271 -0.8952  0.9925
  900MOL0     C18734   4.296   1.301   6.811  0.5661  0.4387 -0.4620
  900MOL0     H18735   4.069   1.456   7.204  0.1423 -1.3351  0.9355
  900MOL0     H18736   4.071   1.532   7.436  2.3289  1.8237  0.1929
  900MOL0     H18737   4.227   1.332   7.663 -1.7663 -0.5286  0.7266
  900MOL0     H18738   4.110   1.456   7.693  0.4386  0.6140  0.1750
  900MOL0     H18739   4.249   1.556   7.865  0.6241  0.4609 -0.2388
  900MOL0     H18740   4.392   1.474   7.819 -0.7581  2.8265  0.2126
  900MOL0     H18741   4.321   1.262   7.909  3.4516  2.6039 -1.6161
  900MOL0     H18742   4.153   1.313   7.920 -0.7142  0.3392 -0.6973
  900MOL0     H18743   4.244   1.485   8.099  0.8935  0.4786  0.7350
  900MOL0     H18744   4.247   1.320   8.144  1.1018  0.6119 -0.7708
  900MOL0     H18745   4.470   1.510   8.080  0.2530  0.1723  0.3029
  900MOL0     H18746   4.500   1.362   7.999  0.4020  0.8213  1.9070
  900MOL0     H18747   4.623   1.350   8.191 -0.1573  0.6650 -0.5089
  900MOL0     H18748   4.475   1.245   8.226 -0.9914  0.5034  3.3463
  900MOL0     H18749   4.398   1.451   8.352 -0.8564 -1.6405 -3.7795
  900MOL0     H18750   4.549   1.352   8.416  2.7753  1.5343 -0.9055
  900MOL0     H18751   4.520   1.627   8.408  0.8227  0.4285 -1.5442
  900MOL0     H18752   4.597   1.585   8.252  1.9377 -3.4197 -0.8974
  900MOL0     H18753   4.744   1.697   8.569  0.3536 -1.0160  0.7426
  900MOL0     H18754   4.995   1.686   8.646 -2.1230 -0.9351 -1.8029
  900MOL0     H18755   5.108   1.625   8.532  2.3674  1.1542  2.1135
  900MOL0     H18756   5.127   1.527   8.776 -0.8566  0.5415  0.8939
  900MOL0     H18757   5.101   1.412   8.633 -2.0181  2.0904 -1.3954
  900MOL0     H18758   4.852   1.419   8.732  2.0336 -0.9717 -2.7977
  900MOL0     H18759   4.980   1.315   8.793 -1.2985 -0.7424  2.9508
  900MOL0     H18760   4.855   1.433   8.984 -0.6566  1.2492 -0.6663
  900MOL0     H18761   4.903   1.592   8.921  0.2995  0.0098  1.7171
  900MOL0     H18762   5.021   1.537   9.253  1.9141  1.0803 -2.6592
  900MOL0     H18763   5.072   1.361   9.439 -1.3575  0.3545 -0.4918
  900MOL0     H18764   4.901   0.882   9.513  2.1217  1.2783 -0.1072
  900MOL0     H18765   4.880   0.674   9.643 -1.0085 -0.5070 -0.7366
  900MOL0     H18766   5.080   0.355   9.511  0.4115 -0.7778  0.5269
  900MOL0     H18767   4.919   0.412   9.585 -1.3547 -4.8201 -0.6994
  900MOL0     H18768   4.967   0.189   9.678 -2.4703  2.5894 -1.6930
  900MOL0     H18769   5.018   0.302   9.811 -0.8061 -0.7627 -0.5160
  900MOL0     H18770   5.256   0.261   9.731 -0.0516 -0.9814  1.3073
  900MOL0     H18771   5.183   0.146   9.617  0.2853  1.1980 -1.3787
  900MOL0     H18772   5.101   0.002   9.802  1.0318  0.7199  0.4077
  900MOL0     H18773   5.277   0.022   9.785  0.6089  1.1487 -2.4268
  900MOL0     H18774   5.086   0.136   9.989 -0.7507 -0.1903  0.9603
  900MOL0     H18775   5.259   0.184   9.975 -1.9765  0.6161  0.2532
  900MOL0     H18776   5.173  -0.112  10.025 -1.3327  1.5360 -3.2814
  900MOL0     H18777   5.211   0.000  10.155 -1.2583  1.1315 -0.1249
  900MOL0     H18778   5.401  -0.088   9.931 -0.7557  1.4845  0.5086
  900MOL0     H18779   5.443   0.003  10.071  1.7061 -0.8660  0.7422
  900MOL0     H18780   5.494  -0.233  10.105  1.1070  3.9899 -0.8791
  900MOL0     H18781   5.337  -0.273  10.053 -1.2224  2.4845 -0.7199
  900MOL0     H18782   5.291   0.583   9.525  0.0445  0.4157  0.4203
  900MOL0     H18783   5.299   0.777   9.381 -0.3719  6.0373  0.8960
  900MOL0     H18784   5.088   1.058   9.147  1.2727 -0.2032  1.2280
  900MOL0     H18785   5.098   1.224   8.971 -1.9511 -0.4492 -0.2076
  900MOL0     H18786   4.487   1.447   7.461  1.0044 -0.8011 -2.2623
  900MOL0     H18787   4.496   1.433   7.216 -0.5443 -2.8126  0.2478
  900MOL0     H18788   4.476   1.585   6.740  0.8596  0.1944  0.5062
  900MOL0     H18789   4.438   1.516   6.521 -1.9457  0.0716 -1.5753
  900MOL0     H18790   4.122   1.294   6.307 -0.3152  1.6337  0.2461
  900MOL0     H18791   4.099   1.266   6.475 -1.8864 -2.5148 -1.5858
  900MOL0     H18792   4.252   1.104   6.271 -0.1833  2.5257  0.7124
  900MOL0     H18793   4.262   1.068   6.446 -0.5512 -5.4888 -1.7571
  900MOL0     H18794   4.010   1.047   6.281  0.9194  0.5584 -0.4032
  900MOL0     H18795   4.029   1.058   6.459 -1.9359 -1.3390 -1.1296
  900MOL0     H18796   4.142   0.842   6.267 -0.5900 -1.2814 -0.4097
  900MOL0     H18797   4.185   0.844   6.433 -1.9949  0.8257  2.9871
  900MOL0     H18798   3.782   0.697   6.465  0.1738  0.2320 -0.8982
  900MOL0     H18799   4.227   1.166   6.669  0.8508 -1.3383  0.2201
  900MOL0     H18800   4.279   1.228   6.889 -1.6927  0.7451 -0.6073
  901MOL0     O18801  10.616   0.109   6.466  0.2176  0.0214  0.2791
  901MOL0     C18802  10.667   0.197   6.386 -0.4605  1.7893 -0.4069
  901MOL0     O18803  10.690   0.185   6.251  0.2697  0.2802 -0.1526
  901MOL0     C18804  10.621   0.085   6.190  0.7480 -0.0906  0.3180
  901MOL0     C18805  10.485   0.072   6.184  0.5118  0.9217 -0.3938
  901MOL0     C18806  10.416  -0.018   6.090 -0.2824 -1.0510 -0.9500
  901MOL0     C18807  10.496  -0.105   6.012  0.0675  0.6169  0.5411
  901MOL0     O18808  10.426  -0.191   5.924 -0.0327 -0.4608 -0.4932
  901MOL0     C18809  10.470  -0.184   5.791 -0.2047 -0.3415 -0.4598
  901MOL0     C18810  10.384  -0.249   5.681  0.5368  1.0000 -0.8261
  901MOL0     C18811  10.238  -0.185   5.663 -0.4596  0.0374 -0.1714
  901MOL0     C18812  10.146  -0.282   5.590 -0.1417 -0.4348  0.6329
  901MOL0     C18813  10.089  -0.375   5.697  0.3460  1.5962 -0.5170
  901MOL0     C18814  10.009  -0.495   5.638  0.6243  0.6176  0.5740
  901MOL0     C18815   9.943  -0.591   5.739 -0.4516 -0.4920 -0.2858
  901MOL0     C18816   9.807  -0.539   5.794  0.4645  0.2703  0.2331
  901MOL0     N18817   9.764  -0.637   5.898  0.1257  0.4951 -0.5312
  901MOL0     C18818   9.792  -0.625   6.028  0.4419  0.5467 -0.6153
  901MOL0     C18819   9.770  -0.744   6.088  1.1987  0.6472  0.0166
  901MOL0     C18820   9.780  -0.783   6.236 -0.7955  0.6157  1.2476
  901MOL0     C18821   9.650  -0.746   6.313 -0.7246  0.7104 -0.1961
  901MOL0     C18822   9.537  -0.853   6.309  0.8457 -0.1557 -0.4077
  901MOL0     C18823   9.408  -0.784   6.356 -0.3739 -0.1065  0.4561
  901MOL0     O18824   9.302  -0.867   6.396 -0.5125  1.0068  0.9060
  901MOL0     C18825   9.190  -0.812   6.434 -0.6033 -0.0335  0.6280
  901MOL0     C18826   9.120  -0.861   6.546  0.5262 -0.5755  0.4693
  901MOL0     C18827   8.997  -0.823   6.592 -0.3219 -0.8486 -0.2816
  901MOL0     C18828   8.929  -0.720   6.535 -0.5730 -0.1381  0.1880
  901MOL0     C18829   8.795  -0.661   6.580 -0.4478 -0.5169 -0.3070
  901MOL0     O18830   8.770  -0.537   6.533  0.9950 -0.5399 -0.1053
  901MOL0     C18831   8.680  -0.464   6.615 -0.1864  0.6501  0.1824
  901MOL0     C18832   8.540  -0.477   6.630 -0.4964 -0.4927 -0.8177
  901MOL0     C18833   8.466  -0.393   6.711 -0.2992  0.0666  1.3690
  901MOL0     C18834   8.523  -0.285   6.776  0.6145  0.1012  1.0326
  901MOL0     O18835   8.435  -0.196   6.843  0.4390  0.3024 -0.6647
  901MOL0     C18836   8.496  -0.079   6.905  0.5303 -0.3419  0.4882
  901MOL0     C18837   8.517   0.032   6.801 -0.2947 -1.1095 -1.0106
  901MOL0     C18838   8.569   0.145   6.892 -0.3980 -1.3056 -0.2310
  901MOL0     C18839   8.598   0.270   6.813 -0.5141 -1.0685 -0.2656
  901MOL0     C18840   8.682   0.370   6.889  0.6136  0.4756  0.0231
  901MOL0     C18841   8.820   0.317   6.918 -0.0005  0.2167  0.0044
  901MOL0     C18842   8.936   0.410   6.895 -0.8369 -0.1191  1.1385
  901MOL0     C18843   9.063   0.328   6.910 -0.9472 -1.3612  0.4687
  901MOL0    Cl18844   9.095   0.298   7.078 -0.0012 -0.3483  0.2312
  901MOL0     C18845   8.658  -0.260   6.749 -0.5390 -0.5091  0.3412
  901MOL0     C18846   8.740  -0.357   6.676  1.4473 -1.9512  0.5646
  901MOL0     O18847   8.727  -0.724   6.658 -0.2926 -0.0485  0.1441
  901MOL0     C18848   8.987  -0.666   6.423 -0.1421  0.0777  0.9115
  901MOL0     C18849   9.117  -0.720   6.369 -0.1592  0.7323  0.5679
  901MOL0     N18850   9.746  -0.837   5.989  0.6674 -0.0594 -0.2956
  901MOL0     N18851   9.733  -0.774   5.874  0.0314 -0.4832 -0.8518
  901MOL0     C18852  10.639  -0.109   6.033  0.1601 -0.9637  0.8830
  901MOL0     C18853  10.697  -0.011   6.114 -0.2715 -0.5087 -0.1013
  901MOL0     C18854  10.718   0.311   6.453  0.4942  1.6205  0.9610
  901MOL0     C18855  10.789   0.408   6.379 -0.0915  0.3558  0.3267
  901MOL0     C18856  10.838   0.522   6.441 -0.9631  0.2548 -0.4670
  901MOL0     C18857  10.822   0.544   6.579 -0.9050  0.1459  0.9589
  901MOL0     O18858  10.868   0.663   6.637 -0.3995 -0.8707  0.3446
  901MOL0     C18859  10.869   0.667   6.784 -0.0741 -0.2595  0.3164
  901MOL0     C18860  10.958   0.778   6.840 -0.4925  0.2069  0.1852
  901MOL0     C18861  11.105   0.743   6.810 -0.2670  0.0817  0.0175
  901MOL0     C18862  11.192   0.872   6.841  1.1067  0.4649 -0.4198
  901MOL0     C18863  11.312   0.877   6.764 -0.9077 -0.0544 -0.2897
  901MOL0     C18864  11.416   0.891   6.701  0.5715  0.8441 -0.1953
  901MOL0     C18865  10.758   0.442   6.649 -0.6952 -0.7431 -0.1783
  901MOL0     C18866  10.713   0.321   6.589 -0.0484 -0.2431 -0.7826
  901MOL0     H18867  10.417   0.136   6.240  0.2636 -1.1534  1.8351
  901MOL0     H18868  10.307  -0.019   6.093 -0.3321  1.0298 -0.7709
  901MOL0     H18869  10.567  -0.234   5.790 -1.0340 -2.0977  0.9851
  901MOL0     H18870  10.480  -0.076   5.773 -1.4741 -0.2032 -0.4052
  901MOL0     H18871  10.376  -0.351   5.721  1.3330  1.0652 -0.4838
  901MOL0     H18872  10.429  -0.266   5.582 -0.0501  0.9603 -1.0925
  901MOL0     H18873  10.253  -0.099   5.597 -3.7925 -0.7664 -2.2033
  901MOL0     H18874  10.198  -0.147   5.757  3.0490  1.4271  0.9228
  901MOL0     H18875  10.056  -0.233   5.554  0.9468  2.2209  1.2688
  901MOL0     H18876  10.191  -0.343   5.511  1.0409 -0.5625  1.3777
  901MOL0     H18877  10.025  -0.320   5.767  2.7075  0.0922  3.1308
  901MOL0     H18878  10.164  -0.423   5.760 -0.2215  1.5680  0.1505
  901MOL0     H18879  10.070  -0.546   5.563  2.8063  5.0689 -1.0219
  901MOL0     H18880   9.928  -0.458   5.575  0.6395 -2.7934 -1.7058
  901MOL0     H18881   9.933  -0.694   5.703  0.2918  0.9187 -5.2420
  901MOL0     H18882  10.016  -0.590   5.822  0.2353  1.9725 -0.8502
  901MOL0     H18883   9.729  -0.532   5.718  1.7819 -2.4326 -1.5103
  901MOL0     H18884   9.822  -0.442   5.842  3.2777 -0.4370  0.9508
  901MOL0     H18885   9.823  -0.535   6.079  2.6141 -1.0683  1.0860
  901MOL0     H18886   9.855  -0.717   6.282 -1.5041  1.3961  1.3027
  901MOL0     H18887   9.812  -0.886   6.254 -0.9161  0.3197 -0.1429
  901MOL0     H18888   9.606  -0.657   6.267  0.3638  1.5359  0.2820
  901MOL0     H18889   9.671  -0.734   6.420  1.1113  1.2549 -0.5846
  901MOL0     H18890   9.534  -0.895   6.208  2.6811 -2.8376  0.5353
  901MOL0     H18891   9.552  -0.927   6.387 -1.3699 -1.4831 -1.1368
  901MOL0     H18892   9.368  -0.720   6.277  0.9760 -0.9913 -1.0041
  901MOL0     H18893   9.437  -0.731   6.447 -1.2001 -3.5519  2.9223
  901MOL0     H18894   9.163  -0.948   6.595 -1.6055 -1.9973 -0.0794
  901MOL0     H18895   8.965  -0.884   6.675  0.7603  0.2032  0.9668
  901MOL0     H18896   8.492  -0.562   6.583  0.6357 -1.9428  0.5130
  901MOL0     H18897   8.359  -0.403   6.728 -0.1171 -2.0292  1.5849
  901MOL0     H18898   8.581  -0.104   6.970 -1.0050 -2.4625  1.7839
  901MOL0     H18899   8.414  -0.040   6.966 -2.1967  1.8231 -4.0260
  901MOL0     H18900   8.424   0.068   6.755  1.1553  1.2745 -2.2762
  901MOL0     H18901   8.584  -0.006   6.724 -1.0240 -2.3381 -1.0708
  901MOL0     H18902   8.668   0.116   6.929 -1.1446 -3.8990 -0.0743
  901MOL0     H18903   8.493   0.165   6.969 -1.3994 -0.4015 -1.4201
  901MOL0     H18904   8.650   0.236   6.723 -1.8161 -1.5310 -0.8648
  901MOL0     H18905   8.502   0.318   6.789  0.0246 -1.2074 -3.0443
  901MOL0     H18906   8.637   0.394   6.985 -0.1687 -2.5679  0.5403
  901MOL0     H18907   8.697   0.464   6.835  0.8335  1.2145  1.3329
  901MOL0     H18908   8.827   0.228   6.854  0.4622 -0.5850  1.1345
  901MOL0     H18909   8.823   0.281   7.021  0.8581  0.7189  0.1662
  901MOL0     H18910   8.933   0.461   6.798  0.3112  0.4442  1.3820
  901MOL0     H18911   8.929   0.485   6.974 -2.5014 -0.1393  1.0449
  901MOL0     H18912   9.143   0.390   6.871 -3.6414  1.5457 -0.9015
  901MOL0     H18913   9.057   0.236   6.850 -0.8890 -0.0136 -1.6783
  901MOL0     H18914   8.714  -0.172   6.780 -3.0343  0.8706  1.2022
  901MOL0     H18915   8.845  -0.334   6.662  1.0140  0.9374  1.5157
  901MOL0     H18916   8.950  -0.575   6.378 -1.1613 -1.9242 -2.5870
  901MOL0     H18917   9.148  -0.674   6.275 -0.1675  0.0200  0.2124
  901MOL0     H18918  10.703  -0.184   5.989  0.7345 -0.0241  0.0568
  901MOL0     H18919  10.804   0.003   6.125 -0.3994 -0.6828  1.5292
  901MOL0     H18920  10.802   0.416   6.271  0.8654  1.7225  0.5157
  901MOL0     H18921  10.896   0.594   6.384 -2.6370  0.1524 -2.4032
  901MOL0     H18922  10.897   0.565   6.811  3.0107 -0.3059 -2.4310
  901MOL0     H18923  10.770   0.701   6.816 -1.6333 -2.9695 -1.2210
  901MOL0     H18924  10.930   0.880   6.813 -0.2144  0.3094  0.2833
  901MOL0     H18925  10.933   0.787   6.946  0.7126  3.7025  0.2835
  901MOL0     H18926  11.099   0.724   6.703 -1.2012 -2.3125  0.4379
  901MOL0     H18927  11.141   0.649   6.852 -2.1883 -1.4337 -1.5457
  901MOL0     H18928  11.140   0.957   6.795  1.1233 -0.1295 -1.5946
  901MOL0     H18929  11.212   0.880   6.948 -0.9844 -2.7051  0.3317
  901MOL0     H18930  11.510   0.897   6.650  0.4112  0.8991 -0.4846
  901MOL0     H18931  10.756   0.453   6.757  0.3328  0.6546 -0.2721
  901MOL0     H18932  10.672   0.243   6.653  0.5245  0.9336  1.0773
  902MOL0     O18933   0.112   8.102  10.905  0.2637  0.6650 -0.4422
  902MOL0     C18934   0.221   8.144  10.876 -0.3775 -0.0423  0.5986
  902MOL0     O18935   0.337   8.108  10.938 -0.1983 -0.5213  0.5636
  902MOL0     C18936   0.337   8.027  11.045  0.5670  0.2555  0.5284
  902MOL0     C18937   0.437   7.924  11.037 -0.2665 -0.3517 -0.5454
  902MOL0     C18938   0.451   7.822  11.138 -0.2706 -0.0170 -0.0505
  902MOL0     C18939   0.372   7.827  11.257 -0.2065 -0.3160  0.7168
  902MOL0     O18940   0.391   7.739  11.360  0.6159  0.8651 -0.0045
  902MOL0     C18941   0.497   7.780  11.447  0.9411  0.3500 -0.4731
  902MOL0     C18942   0.601   7.663  11.468 -0.7707  0.5209  0.2981
  902MOL0     C18943   0.550   7.546  11.545 -0.0001  0.5120 -0.2333
  902MOL0     C18944   0.671   7.482  11.614 -0.0343 -0.8949 -0.5810
  902MOL0     C18945   0.790   7.431  11.534 -0.8670  0.1417 -0.2749
  902MOL0     C18946   0.873   7.318  11.609 -0.2472 -0.6447  0.7984
  902MOL0     C18947   0.983   7.367  11.721 -0.1093  0.2300 -0.4051
  902MOL0     C18948   0.926   7.347  11.861  1.4827 -0.1342 -0.7996
  902MOL0     N18949   1.029   7.348  11.958  0.0119  0.0655 -0.6329
  902MOL0     C18950   1.094   7.458  12.013  0.0444 -0.0569  0.2288
  902MOL0     C18951   1.195   7.408  12.087  0.0988 -0.0098  0.6485
  902MOL0     C18952   1.287   7.482  12.183 -0.0571  0.9660  0.7433
  902MOL0     C18953   1.300   7.634  12.145  0.1475 -0.2595  1.0689
  902MOL0     C18954   1.420   7.688  12.232  0.0599  0.6777  0.5581
  902MOL0     C18955   1.549   7.708  12.140  0.5118  0.0413 -0.2429
  902MOL0     O18956   1.665   7.747  12.220  0.9165 -0.6651 -0.9725
  902MOL0     C18957   1.776   7.664  12.199  1.3756 -0.5089 -0.7449
  902MOL0     C18958   1.900   7.734  12.185 -0.5650 -0.0150 -0.6297
  902MOL0     C18959   2.006   7.656  12.154 -0.4880 -0.9049  1.0776
  902MOL0     C18960   2.003   7.513  12.135  0.1492 -0.3049 -0.4560
  902MOL0     C18961   2.124   7.440  12.102 -0.4415 -0.6195  0.6162
  902MOL0     O18962   2.131   7.310  12.145  0.0948  0.2065  0.9508
  902MOL0     C18963   2.232   7.225  12.121 -0.9543  0.6689  0.2371
  902MOL0     C18964   2.211   7.091  12.162  0.1450  0.8516  0.1428
  902MOL0     C18965   2.310   6.996  12.170 -0.1111  0.0435  1.0869
  902MOL0     C18966   2.440   7.025  12.143  0.4533  0.1257  0.6415
  902MOL0     O18967   2.551   6.942  12.163  0.2959  0.1093 -0.3775
  902MOL0     C18968   2.654   6.933  12.063  0.2495  1.2385 -0.3152
  902MOL0     C18969   2.613   6.829  11.954  0.5377  0.6142  0.8734
  902MOL0     C18970   2.659   6.875  11.818 -0.3329  0.2162 -0.4673
  902MOL0     C18971   2.810   6.885  11.810 -0.4295  0.1503 -0.4494
  902MOL0     C18972   2.889   6.749  11.838 -0.4669  0.0483  0.7943
  902MOL0     C18973   3.034   6.764  11.886  0.4262 -0.2891 -0.1139
  902MOL0     C18974   3.109   6.634  11.873  0.3136  0.1393 -0.9484
  902MOL0     C18975   3.260   6.642  11.885  1.0758 -0.0058 -0.1094
  902MOL0    Cl18976   3.333   6.735  11.748  0.0051  0.3119 -0.1299
  902MOL0     C18977   2.464   7.154  12.096 -0.1872 -0.0105 -0.0459
  902MOL0     C18978   2.361   7.247  12.080  0.3715  0.9143  0.5131
  902MOL0     O18979   2.207   7.506  12.039 -1.1478 -0.1453  0.2121
  902MOL0     C18980   1.877   7.443  12.159 -0.2174 -0.4711  0.2951
  902MOL0     C18981   1.762   7.523  12.193 -0.5681  0.5283 -0.7499
  902MOL0     N18982   1.192   7.271  12.066  1.3893  0.3613 -1.2976
  902MOL0     N18983   1.094   7.232  11.981 -0.2193 -0.6289  0.3068
  902MOL0     C18984   0.287   7.939  11.267  1.1473  0.1756  1.0642
  902MOL0     C18985   0.271   8.034  11.171 -0.4607 -0.1055 -0.0195
  902MOL0     C18986   0.238   8.261  10.786 -0.6204  0.0266  0.8119
  902MOL0     C18987   0.134   8.343  10.755 -0.7718  0.7839  0.3831
  902MOL0     C18988   0.155   8.466  10.688  0.8855 -0.5514 -0.1381
  902MOL0     C18989   0.289   8.505  10.647  0.0241 -1.1151 -0.4292
  902MOL0     O18990   0.305   8.623  10.580  0.2197  0.1830  0.0782
  902MOL0     C18991   0.414   8.709  10.622  0.0033 -0.3340  0.2905
  902MOL0     C18992   0.355   8.856  10.643  0.1057  1.0014 -0.2512
  902MOL0     C18993   0.465   8.940  10.681  1.0468 -0.1865  0.1312
  902MOL0     C18994   0.416   9.082  10.710  0.0860 -0.0596 -0.2167
  902MOL0     C18995   0.537   9.160  10.743  0.9404 -0.8413  1.0630
  902MOL0     C18996   0.636   9.217  10.793 -1.0229  0.6808 -0.3643
  902MOL0     C18997   0.396   8.425  10.680 -0.4862 -0.7418  0.1966
  902MOL0     C18998   0.363   8.308  10.755 -0.1823  0.0229  0.0737
  902MOL0     H18999   0.509   7.913  10.956  1.7960 -1.3412  1.3217
  902MOL0     H19000   0.524   7.745  11.112  0.3249  1.0343 -1.6982
  902MOL0     H19001   0.466   7.808  11.548  0.9632 -0.7269 -0.1589
  902MOL0     H19002   0.542   7.864  11.394 -1.5685  1.6701 -0.6638
  902MOL0     H19003   0.690   7.709  11.512  2.0568  0.7212 -4.8191
  902MOL0     H19004   0.632   7.626  11.370 -1.0880 -0.6589  0.6346
  902MOL0     H19005   0.503   7.477  11.474 -2.2193 -1.0394  2.5779
  902MOL0     H19006   0.472   7.559  11.619  2.5274  0.2203  2.6717
  902MOL0     H19007   0.711   7.561  11.679 -1.4880  0.6844 -1.5304
  902MOL0     H19008   0.632   7.400  11.674 -1.9839  0.4887  0.1565
  902MOL0     H19009   0.850   7.516  11.501 -1.9046  1.4911  1.1591
  902MOL0     H19010   0.752   7.392  11.438 -2.9272 -2.5956  1.4842
  902MOL0     H19011   0.926   7.270  11.526 -1.6534 -1.4160  0.3108
  902MOL0     H19012   0.806   7.244  11.653 -1.2371 -1.0178 -1.1871
  902MOL0     H19013   1.072   7.309  11.697 -2.3263 -3.2348 -0.8425
  902MOL0     H19014   1.006   7.467  11.681 -1.3197 -0.0009 -1.7572
  902MOL0     H19015   0.866   7.256  11.862  2.7751 -1.0328 -2.0643
  902MOL0     H19016   0.866   7.436  11.884 -0.4047 -1.5939  0.1919
  902MOL0     H19017   1.068   7.563  12.008  0.6841  0.4352  4.2397
  902MOL0     H19018   1.387   7.439  12.174 -0.9284 -0.9147 -0.7634
  902MOL0     H19019   1.255   7.475  12.287 -0.4655 -2.5028  0.4971
  902MOL0     H19020   1.209   7.692  12.159  1.0720  2.3383 -2.3329
  902MOL0     H19021   1.329   7.640  12.039  3.3536  0.6754  1.8892
  902MOL0     H19022   1.398   7.785  12.277  1.2809  0.5848  1.4294
  902MOL0     H19023   1.455   7.614  12.305  1.7630  0.7254 -0.1572
  902MOL0     H19024   1.534   7.791  12.071  0.3856  0.4661  0.2852
  902MOL0     H19025   1.552   7.617  12.080 -0.8472  0.1853 -0.5735
  902MOL0     H19026   1.892   7.842  12.194  1.9320  0.0816  1.6782
  902MOL0     H19027   2.097   7.712  12.141 -2.8825  2.7855 -1.7651
  902MOL0     H19028   2.111   7.077  12.202 -0.7930 -3.6588 -2.9948
  902MOL0     H19029   2.289   6.896  12.206 -2.1910  0.0362 -0.0086
  902MOL0     H19030   2.748   6.905  12.111 -1.6838  1.0500  3.7299
  902MOL0     H19031   2.670   7.031  12.016 -0.0835  1.1626 -0.5925
  902MOL0     H19032   2.507   6.801  11.960  1.0981 -1.3961  3.0367
  902MOL0     H19033   2.655   6.731  11.978  0.0291  0.6334  1.8972
  902MOL0     H19034   2.628   6.977  11.794 -1.2107 -0.0338 -0.4093
  902MOL0     H19035   2.620   6.816  11.735 -0.3854  0.8569 -0.9088
  902MOL0     H19036   2.843   6.927  11.715  4.7300 -3.0761 -0.4950
  902MOL0     H19037   2.837   6.960  11.885 -3.6885  0.8896  0.1122
  902MOL0     H19038   2.888   6.708  11.737 -2.9989 -2.7341  1.7965
  902MOL0     H19039   2.830   6.679  11.898 -1.4612  1.3582  1.4113
  902MOL0     H19040   3.034   6.820  11.981  3.9157 -0.8390  0.3548
  902MOL0     H19041   3.071   6.833  11.810 -1.9402 -0.2095 -1.2788
  902MOL0     H19042   3.085   6.571  11.959 -1.3320  1.0647 -0.6980
  902MOL0     H19043   3.090   6.591  11.775 -0.9302  0.3537 -0.8113
  902MOL0     H19044   3.294   6.539  11.897 -2.7193 -1.1089  4.0670
  902MOL0     H19045   3.293   6.707  11.967  1.3431 -1.8579  1.3125
  902MOL0     H19046   2.567   7.182  12.077 -0.1058 -1.8529 -2.9222
  902MOL0     H19047   2.382   7.348  12.045 -0.4066  0.3268 -1.8758
  902MOL0     H19048   1.871   7.335  12.153 -1.5367 -0.3987 -0.0027
  902MOL0     H19049   1.667   7.482  12.225 -0.7863  2.8701  2.0843
  902MOL0     H19050   0.224   7.950  11.355  1.1686 -0.5173  1.1655
  902MOL0     H19051   0.214   8.124  11.193  3.3174  2.7313 -0.7770
  902MOL0     H19052   0.033   8.317  10.785  0.8011 -2.2304  3.9531
  902MOL0     H19053   0.069   8.523  10.657  0.4940 -2.6600 -3.4099
  902MOL0     H19054   0.492   8.707  10.546  0.7507  3.8229  0.7490
  902MOL0     H19055   0.459   8.664  10.710 -1.2397 -1.2028  0.5210
  902MOL0     H19056   0.323   8.906  10.552 -3.0338  2.4747  1.4865
  902MOL0     H19057   0.275   8.849  10.718 -0.5506  0.4213 -0.9929
  902MOL0     H19058   0.540   8.941  10.601 -0.5831  0.1911 -1.4457
  902MOL0     H19059   0.514   8.894  10.767 -1.5941 -1.3971  1.1121
  902MOL0     H19060   0.352   9.121  10.630  1.6059 -0.0868 -1.4998
  902MOL0     H19061   0.362   9.067  10.804  2.1419  0.9762  1.1902
  902MOL0     H19062   0.725   9.261  10.833 -0.3537 -1.9764  1.3167
  902MOL0     H19063   0.496   8.450  10.647 -0.8166  1.2592  0.6088
  902MOL0     H19064   0.450   8.253  10.788  0.7744 -0.0027 -2.2932
  903MOL0     O19065  10.075   2.619  10.221  1.0750 -0.3689 -0.1378
  903MOL0     C19066  10.058   2.656  10.104 -0.4570  0.1234 -1.3160
  903MOL0     O19067   9.980   2.591  10.018 -0.6726 -0.1645  0.4641
  903MOL0     C19068   9.923   2.463  10.028  0.6134  0.1130 -0.6819
  903MOL0     C19069   9.878   2.406   9.908  0.4155 -0.1055  0.4294
  903MOL0     C19070   9.825   2.278   9.898  0.0250  0.8031  0.3486
  903MOL0     C19071   9.811   2.199  10.006 -0.0341 -1.1473 -0.7720
  903MOL0     O19072   9.759   2.072   9.983 -0.6109 -0.3021  0.7199
  903MOL0     C19073   9.674   2.034  10.080  0.1622  0.5966  0.2877
  903MOL0     C19074   9.606   1.899  10.047 -0.0196 -0.3873  0.1191
  903MOL0     C19075   9.700   1.785  10.061 -0.4231  0.1605  0.1143
  903MOL0     C19076   9.642   1.654  10.009  0.1625 -0.3153  0.3386
  903MOL0     C19077   9.670   1.534  10.104 -0.0533  0.7017 -0.5555
  903MOL0     C19078   9.631   1.389  10.072 -0.0308 -0.6058 -0.3171
  903MOL0     C19079   9.688   1.301  10.181  0.5514 -1.1741  0.1620
  903MOL0     C19080   9.615   1.170  10.162 -0.9053  0.5807 -0.1753
  903MOL0     N19081   9.669   1.065  10.256 -1.0611 -0.2862 -0.2076
  903MOL0     C19082   9.771   0.972  10.228  0.1235  0.1849 -0.0109
  903MOL0     C19083   9.766   0.888  10.335 -0.0014 -0.1941 -0.9135
  903MOL0     C19084   9.846   0.761  10.347  1.0739 -0.5742 -0.6421
  903MOL0     C19085   9.991   0.791  10.397 -0.8864  0.8054  0.9179
  903MOL0     C19086  10.065   0.663  10.410  0.4423 -0.2245  0.5763
  903MOL0     C19087  10.219   0.676  10.420 -0.6227  0.3902 -1.1314
  903MOL0     O19088  10.294   0.753  10.318 -0.4617  0.6513 -0.3524
  903MOL0     C19089  10.327   0.887  10.337  0.9364  0.1466 -0.2245
  903MOL0     C19090  10.328   0.961  10.219 -0.3299  0.3382 -0.0028
  903MOL0     C19091  10.368   1.090  10.208 -0.3110  0.1721  0.7194
  903MOL0     C19092  10.406   1.153  10.326  0.9215  0.4328 -0.6151
  903MOL0     C19093  10.449   1.297  10.328 -0.6654 -0.5871  0.3819
  903MOL0     O19094  10.519   1.330  10.443 -0.2747 -0.0302  0.2409
  903MOL0     C19095  10.535   1.454  10.494  0.4060 -0.2300 -0.8879
  903MOL0     C19096  10.623   1.468  10.602  0.7610  0.3828 -0.1494
  903MOL0     C19097  10.664   1.597  10.644  1.8376 -0.0272 -0.4387
  903MOL0     C19098  10.606   1.711  10.592  0.2349  0.7051  0.5682
  903MOL0     O19099  10.641   1.829  10.643  0.1605 -0.5828  0.1415
  903MOL0     C19100  10.619   1.945  10.562  0.4298  0.3600 -0.1558
  903MOL0     C19101  10.644   2.072  10.641 -0.1831  0.5140  0.4318
  903MOL0     C19102  10.772   2.066  10.732  0.2525 -0.5348  0.6022
  903MOL0     C19103  10.796   2.212  10.782  0.0885  0.2442 -0.2162
  903MOL0     C19104  10.829   2.236  10.928 -0.2095 -0.3358 -1.6722
  903MOL0     C19105  10.937   2.143  10.987  1.1263  0.5914  1.0845
  903MOL0     C19106  10.934   2.156  11.133 -0.6313  0.9474 -0.3407
  903MOL0     C19107  10.804   2.091  11.191 -0.4565 -0.1005  0.0635
  903MOL0    Cl19108  10.795   2.153  11.356 -0.3069 -0.2594 -0.0852
  903MOL0     C19109  10.511   1.695  10.495  1.3734 -0.2585 -0.2216
  903MOL0     C19110  10.475   1.570  10.450 -0.6122 -0.1097 -0.5753
  903MOL0     O19111  10.430   1.370  10.234 -0.7224  0.2566 -0.1085
  903MOL0     C19112  10.392   1.090  10.454  0.1558 -0.2788  0.0071
  903MOL0     C19113  10.350   0.955  10.458 -1.0678 -0.0216  0.3610
  903MOL0     N19114   9.664   0.922  10.420 -0.5915 -0.2814  0.4463
  903MOL0     N19115   9.603   1.027  10.370 -0.7510 -0.1492  0.1339
  903MOL0     C19116   9.866   2.248  10.127  0.2535  0.2140  0.2317
  903MOL0     C19117   9.923   2.380  10.138  0.1156  0.4484  0.1558
  903MOL0     C19118  10.097   2.800  10.083 -0.2519  0.3569  1.2316
  903MOL0     C19119  10.034   2.873   9.978 -0.3160 -0.4194  0.4768
  903MOL0     C19120  10.057   3.010   9.970 -0.6078 -0.1243  0.0843
  903MOL0     C19121  10.150   3.074  10.056 -0.5389 -0.0007 -0.0587
  903MOL0     O19122  10.174   3.210  10.042  0.0763 -0.5047 -1.4868
  903MOL0     C19123  10.207   3.283  10.159 -0.4805 -0.3727  0.6534
  903MOL0     C19124  10.095   3.393  10.165  0.1777  0.7904  0.0434
  903MOL0     C19125  10.106   3.498  10.061 -0.2103  0.0299  0.4700
  903MOL0     C19126  10.033   3.624  10.092  0.9200 -0.6619  0.2520
  903MOL0     C19127  10.051   3.683  10.225 -0.3267 -1.2799 -0.8148
  903MOL0     C19128  10.084   3.723  10.339 -0.9258  0.3392 -0.3833
  903MOL0     C19129  10.223   2.995  10.149  0.2165 -0.9997 -0.0637
  903MOL0     C19130  10.189   2.864  10.163 -1.2758 -0.1029 -0.3211
  903MOL0     H19131   9.862   2.469   9.821  1.0737 -2.3388 -1.4324
  903MOL0     H19132   9.771   2.240   9.812 -1.6361  0.5319  1.4478
  903MOL0     H19133   9.593   2.106  10.099 -1.5589 -1.9932  4.1548
  903MOL0     H19134   9.733   2.024  10.172  0.3415 -1.8979 -0.0210
  903MOL0     H19135   9.570   1.909   9.944  0.6224  1.3514  0.0341
  903MOL0     H19136   9.521   1.877  10.113 -0.2470  0.9391  0.2945
  903MOL0     H19137   9.727   1.785  10.167  1.0007 -0.3451 -0.2212
  903MOL0     H19138   9.785   1.801   9.994 -1.3580  0.7506 -0.9802
  903MOL0     H19139   9.534   1.661   9.993 -0.9085 -1.9123  5.0354
  903MOL0     H19140   9.689   1.630   9.914 -0.9987 -1.4909  0.0347
  903MOL0     H19141   9.604   1.550  10.190 -0.0726  2.5061 -0.8654
  903MOL0     H19142   9.775   1.535  10.135  0.1569 -3.4294 -0.6278
  903MOL0     H19143   9.691   1.354   9.987  1.5789  1.2819 -0.0354
  903MOL0     H19144   9.525   1.378  10.047  0.0774  0.9269 -1.6658
  903MOL0     H19145   9.796   1.285  10.175  0.8867  0.8018  0.1164
  903MOL0     H19146   9.669   1.335  10.284  1.2470 -1.5404  0.4195
  903MOL0     H19147   9.624   1.138  10.058 -0.7517 -2.6073  0.7151
  903MOL0     H19148   9.510   1.176  10.190 -1.2705 -2.2422 -0.7073
  903MOL0     H19149   9.824   0.964  10.133 -2.7402  1.0750 -1.8360
  903MOL0     H19150   9.848   0.708  10.252  3.3067  0.1621 -1.0577
  903MOL0     H19151   9.797   0.703  10.425 -0.1024  0.7696 -0.3353
  903MOL0     H19152   9.997   0.838  10.496 -1.3447  0.0141  1.3328
  903MOL0     H19153  10.033   0.850  10.316  0.4042  0.8841  1.6144
  903MOL0     H19154  10.021   0.617  10.499 -2.3827  0.2756 -0.4458
  903MOL0     H19155  10.049   0.595  10.327 -1.0357  1.2769 -0.4500
  903MOL0     H19156  10.240   0.569  10.412 -1.3885  0.2834 -1.7781
  903MOL0     H19157  10.256   0.704  10.519 -1.0719  1.2243 -1.1920
  903MOL0     H19158  10.294   0.908  10.131  0.4245  4.1513 -2.8299
  903MOL0     H19159  10.365   1.139  10.111 -1.5965  1.2190  1.2448
  903MOL0     H19160  10.679   1.386  10.645 -0.2544  0.0154  0.5039
  903MOL0     H19161  10.733   1.616  10.726 -0.3099  2.9030  0.8618
  903MOL0     H19162  10.514   1.948  10.532  0.2677 -0.6894  0.2417
  903MOL0     H19163  10.693   1.933  10.483 -0.6255  0.9763 -1.2661
  903MOL0     H19164  10.571   2.091  10.720  1.9641 -0.4470  2.7851
  903MOL0     H19165  10.657   2.159  10.575  1.4618  0.8646  1.1702
  903MOL0     H19166  10.846   2.020  10.667 -0.7452  0.4742 -1.3181
  903MOL0     H19167  10.747   1.991  10.808 -2.5800 -0.0871  0.2452
  903MOL0     H19168  10.884   2.239  10.724  0.9297 -0.6076  0.6154
  903MOL0     H19169  10.713   2.275  10.749 -2.0260 -1.5440  1.3901
  903MOL0     H19170  10.733   2.234  10.982  1.2697 -3.6144  1.1936
  903MOL0     H19171  10.862   2.338  10.949 -1.6844 -0.3925  1.5753
  903MOL0     H19172  11.033   2.183  10.953 -0.7048  2.7908 -1.8922
  903MOL0     H19173  10.923   2.045  10.939  2.1895  0.8059  0.2941
  903MOL0     H19174  11.007   2.086  11.174 -1.7979  1.0127  1.9912
  903MOL0     H19175  10.941   2.264  11.151  0.5566  1.5268 -3.5582
  903MOL0     H19176  10.804   1.982  11.188  0.4720 -0.2830  3.3786
  903MOL0     H19177  10.713   2.131  11.145 -2.6919 -1.3836  3.0586
  903MOL0     H19178  10.453   1.777  10.453 -1.5174 -0.9649  2.0140
  903MOL0     H19179  10.390   1.567  10.382 -1.6436 -0.2643  0.6966
  903MOL0     H19180  10.408   1.141  10.549  0.0528 -0.4765  0.1326
  903MOL0     H19181  10.340   0.915  10.559  1.2893  3.5816  2.2807
  903MOL0     H19182   9.873   2.178  10.210 -0.8359 -0.6335 -0.3457
  903MOL0     H19183   9.967   2.399  10.235  0.3692 -1.7705  0.5234
  903MOL0     H19184   9.972   2.821   9.906 -0.7526  0.2258  0.3812
  903MOL0     H19185  10.012   3.066   9.889  3.4983  0.8433 -1.7535
  903MOL0     H19186  10.308   3.324  10.149 -0.6812 -0.3902 -2.4585
  903MOL0     H19187  10.201   3.221  10.249  1.1903  1.4118  2.0704
  903MOL0     H19188   9.997   3.344  10.169  1.9484 -3.0438  1.6036
  903MOL0     H19189  10.115   3.439  10.262  3.8931 -0.8638  0.2489
  903MOL0     H19190  10.080   3.461   9.961  0.6120  0.4561  0.0839
  903MOL0     H19191  10.210   3.529  10.045 -0.8240  2.1817  0.4552
  903MOL0     H19192  10.050   3.695  10.010  0.2749 -2.6664 -1.7271
  903MOL0     H19193   9.926   3.601  10.095  0.2464  2.1593  1.2091
  903MOL0     H19194  10.116   3.763  10.433  0.8247  1.3482 -1.3470
  903MOL0     H19195  10.302   3.021  10.219 -0.5627 -3.5220  1.8839
  903MOL0     H19196  10.248   2.817  10.241  0.4914  0.4403 -1.2680
  904MOL0     O19197   1.015   7.159   7.103  0.6939 -0.0323  1.3964
  904MOL0     C19198   1.090   7.221   7.023  0.1378 -0.6964  0.1468
  904MOL0     O19199   1.055   7.303   6.924 -0.5567 -0.5742 -0.7073
  904MOL0     C19200   0.936   7.375   6.934  1.0938  0.1199  0.8847
  904MOL0     C19201   0.892   7.414   7.058  0.3565  0.1778 -0.4618
  904MOL0     C19202   0.769   7.489   7.060  0.2967 -0.6786 -0.3833
  904MOL0     C19203   0.694   7.516   6.943 -0.7048 -0.3230  0.3006
  904MOL0     O19204   0.573   7.575   6.926  0.1430  0.1413 -0.3920
  904MOL0     C19205   0.518   7.670   7.016 -0.5626 -0.2552 -0.0574
  904MOL0     C19206   0.609   7.785   7.057  0.3385  0.4796  0.3618
  904MOL0     C19207   0.601   7.893   6.958 -0.8750 -0.2512 -0.2540
  904MOL0     C19208   0.617   8.026   7.029  0.2065  0.8319 -1.3338
  904MOL0     C19209   0.732   8.038   7.127 -0.2473  1.1855  0.0630
  904MOL0     C19210   0.764   8.173   7.196 -0.3664 -0.3336  0.1734
  904MOL0     C19211   0.783   8.300   7.113 -0.2139 -0.4783  0.5344
  904MOL0     C19212   0.827   8.429   7.192 -0.4911  0.2945  0.0384
  904MOL0     N19213   0.741   8.470   7.313  0.5844  0.5123 -0.2005
  904MOL0     C19214   0.776   8.487   7.448  0.2387  0.1958  0.6167
  904MOL0     C19215   0.673   8.527   7.522 -0.1031 -0.1912 -0.4499
  904MOL0     C19216   0.686   8.557   7.667 -0.3394  0.3070  0.1155
  904MOL0     C19217   0.754   8.692   7.706  0.0252  0.0492 -0.5030
  904MOL0     C19218   0.715   8.740   7.848  0.6017 -0.1462  0.6872
  904MOL0     C19219   0.764   8.883   7.891 -0.0840 -0.0020  0.4776
  904MOL0     O19220   0.710   8.911   8.017 -0.4755 -0.2620  0.1466
  904MOL0     C19221   0.770   9.006   8.085  0.5861  0.4865 -1.0483
  904MOL0     C19222   0.881   9.081   8.047  0.0496 -0.2500  0.2559
  904MOL0     C19223   0.927   9.191   8.123  0.6258 -0.4460 -0.3976
  904MOL0     C19224   0.861   9.223   8.244  0.3962  0.6606  0.7654
  904MOL0     C19225   0.918   9.324   8.340  0.4779  0.7247 -1.6964
  904MOL0     O19226   0.840   9.362   8.440  0.1204  0.2720 -0.0902
  904MOL0     C19227   0.887   9.406   8.561  0.9276 -0.1029  0.1160
  904MOL0     C19228   0.842   9.344   8.680 -0.5798  0.4355  1.0615
  904MOL0     C19229   0.900   9.390   8.803 -0.3307 -0.7910 -1.4616
  904MOL0     C19230   0.980   9.518   8.811  1.1714  0.2096 -0.1143
  904MOL0     O19231   1.012   9.592   8.917 -0.2593 -0.0768 -0.1416
  904MOL0     C19232   0.950   9.550   9.033 -0.6695 -0.2181 -0.6453
  904MOL0     C19233   0.804   9.592   9.034  0.2820 -0.0119 -0.1584
  904MOL0     C19234   0.716   9.504   9.115 -0.8641 -0.5022 -0.4376
  904MOL0     C19235   0.766   9.495   9.257 -0.2464  0.2777 -0.1772
  904MOL0     C19236   0.678   9.401   9.330 -0.8698  0.3094 -0.3781
  904MOL0     C19237   0.739   9.265   9.367 -0.0196 -0.0826 -0.6865
  904MOL0     C19238   0.780   9.178   9.246  0.3918 -0.4167 -1.0337
  904MOL0     C19239   0.658   9.143   9.158  0.8936 -0.3266 -1.3619
  904MOL0    Cl19240   0.697   9.038   9.016  0.1799 -0.2094  0.3744
  904MOL0     C19241   1.021   9.569   8.686 -0.3181  0.0738 -0.2172
  904MOL0     C19242   0.988   9.505   8.562  0.9190 -0.6854 -0.1838
  904MOL0     O19243   1.037   9.347   8.337  0.0769  0.0005 -0.8945
  904MOL0     C19244   0.743   9.156   8.276 -1.0538  0.2919 -0.0008
  904MOL0     C19245   0.694   9.050   8.194 -0.2773  0.1887  0.9594
  904MOL0     N19246   0.568   8.538   7.429 -0.0688 -0.1826  0.5356
  904MOL0     N19247   0.605   8.500   7.311  0.5336 -0.2034  0.3455
  904MOL0     C19248   0.745   7.471   6.816  0.6513  0.4566  1.3120
  904MOL0     C19249   0.868   7.400   6.812  0.4326  0.4497  0.4802
  904MOL0     C19250   1.237   7.189   7.037 -0.2151  0.4479  1.0644
  904MOL0     C19251   1.274   7.058   7.055 -0.3214 -0.7860 -0.0641
  904MOL0     C19252   1.413   7.019   7.035  0.5240  0.8534 -0.5901
  904MOL0     C19253   1.505   7.114   7.001 -0.0712 -0.4229 -0.4774
  904MOL0     O19254   1.639   7.084   6.977  0.6549  0.2504 -0.0755
  904MOL0     C19255   1.693   6.977   7.058  0.9525  0.3545  0.9847
  904MOL0     C19256   1.839   6.960   7.006  1.0768  0.5282  0.7019
  904MOL0     C19257   1.833   6.875   6.879 -0.9172 -0.2056 -0.1532
  904MOL0     C19258   1.977   6.855   6.844 -0.2019 -0.9409  0.6707
  904MOL0     C19259   2.048   6.757   6.924 -0.7941  0.1950 -0.2542
  904MOL0     C19260   2.112   6.660   6.967  0.9396 -0.1647  0.0631
  904MOL0     C19261   1.466   7.256   6.998  0.5234  0.5241 -0.3215
  904MOL0     C19262   1.334   7.282   7.008  0.5886  0.2661 -0.4926
  904MOL0     H19263   0.938   7.406   7.156  1.8274  4.1342 -0.6649
  904MOL0     H19264   0.727   7.533   7.149  1.0449 -0.8309  0.0511
  904MOL0     H19265   0.488   7.623   7.110 -0.6442  0.8879  0.5093
  904MOL0     H19266   0.425   7.704   6.971 -0.7542  0.9040  1.1678
  904MOL0     H19267   0.711   7.751   7.077 -0.0839  0.5671  2.9996
  904MOL0     H19268   0.573   7.816   7.155  1.9814  4.9476 -0.2007
  904MOL0     H19269   0.510   7.885   6.898 -1.8539  0.3199  1.0974
  904MOL0     H19270   0.678   7.880   6.881 -4.7205 -2.9789 -4.1190
  904MOL0     H19271   0.635   8.107   6.957 -2.9706  2.3447 -0.5887
  904MOL0     H19272   0.523   8.054   7.078  1.5568  2.7558  0.3506
  904MOL0     H19273   0.819   8.005   7.070 -0.0424  2.1414 -0.1961
  904MOL0     H19274   0.737   7.966   7.209  4.1335  1.2345  0.0469
  904MOL0     H19275   0.844   8.157   7.269  0.9986  1.6686 -0.8181
  904MOL0     H19276   0.674   8.188   7.258 -0.3274  0.5409  0.0364
  904MOL0     H19277   0.850   8.283   7.028 -1.7610  0.0230 -0.8369
  904MOL0     H19278   0.689   8.315   7.059  0.2834  0.9480  0.0182
  904MOL0     H19279   0.830   8.519   7.130  4.5361 -1.4815 -2.8590
  904MOL0     H19280   0.931   8.421   7.225 -0.3589  1.4822 -0.0358
  904MOL0     H19281   0.874   8.457   7.485 -1.0619 -3.3955  1.5891
  904MOL0     H19282   0.744   8.471   7.702  0.0103  1.2458  1.9570
  904MOL0     H19283   0.586   8.550   7.710 -1.6324  0.2146 -2.6665
  904MOL0     H19284   0.710   8.767   7.639  0.3563 -0.9576 -1.8891
  904MOL0     H19285   0.861   8.701   7.683 -0.1265  0.0576 -1.2428
  904MOL0     H19286   0.608   8.735   7.871  0.8406 -0.4030  1.7999
  904MOL0     H19287   0.766   8.667   7.912  0.3705 -0.5216  0.4453
  904MOL0     H19288   0.742   8.950   7.807  0.2374 -0.4508  0.0281
  904MOL0     H19289   0.872   8.868   7.889 -0.0471  0.3431 -0.1337
  904MOL0     H19290   0.939   9.050   7.960 -0.5396  0.2319 -0.3128
  904MOL0     H19291   1.018   9.244   8.098 -0.2360  1.2889  0.0065
  904MOL0     H19292   0.773   9.261   8.676  0.0230 -0.1333  2.1335
  904MOL0     H19293   0.858   9.335   8.886  0.2727 -0.5519 -0.9851
  904MOL0     H19294   0.999   9.595   9.120 -1.0787 -1.9890  0.5687
  904MOL0     H19295   0.967   9.443   9.050 -0.9447 -0.3371 -1.1183
  904MOL0     H19296   0.761   9.595   8.934 -1.6634 -3.9410  0.3888
  904MOL0     H19297   0.792   9.691   9.080 -2.3419 -0.8951  1.2929
  904MOL0     H19298   0.722   9.407   9.066  3.5605 -0.9877  0.5877
  904MOL0     H19299   0.613   9.539   9.122 -0.8761 -0.7032  0.6301
  904MOL0     H19300   0.870   9.460   9.263 -0.2264  0.1713 -0.9868
  904MOL0     H19301   0.767   9.598   9.293  3.0971  0.3898 -0.2514
  904MOL0     H19302   0.585   9.389   9.273 -1.0869 -0.2009  0.0728
  904MOL0     H19303   0.649   9.450   9.423  0.1424  1.2073 -0.5168
  904MOL0     H19304   0.669   9.203   9.423 -0.2167 -0.3880 -1.2657
  904MOL0     H19305   0.826   9.294   9.427  0.1349  0.2487 -1.0635
  904MOL0     H19306   0.841   9.238   9.179  0.8172 -0.0693 -0.3491
  904MOL0     H19307   0.846   9.095   9.270 -1.1187 -1.8000 -1.4673
  904MOL0     H19308   0.613   9.237   9.128 -1.0703 -1.3696 -1.8196
  904MOL0     H19309   0.578   9.096   9.216 -0.1556  2.4822 -0.3822
  904MOL0     H19310   1.083   9.658   8.684  1.1005 -0.8619 -1.8927
  904MOL0     H19311   1.033   9.545   8.472  1.6338 -2.9065 -0.8671
  904MOL0     H19312   0.695   9.184   8.370 -1.7190  0.0375 -0.2593
  904MOL0     H19313   0.601   9.006   8.226  0.9087 -1.0441  2.9201
  904MOL0     H19314   0.680   7.480   6.730  0.5478 -0.3446  1.3022
  904MOL0     H19315   0.908   7.376   6.714 -1.1731 -0.5996  0.0508
  904MOL0     H19316   1.197   6.981   7.066  0.3935 -1.3605  1.1650
  904MOL0     H19317   1.433   6.916   7.063 -2.0178  1.0667  2.6371
  904MOL0     H19318   1.642   6.881   7.045 -0.1027  1.1017 -0.8724
  904MOL0     H19319   1.696   7.013   7.161  1.5133  2.2524  0.3369
  904MOL0     H19320   1.881   7.060   6.990 -0.9424  1.8593  3.0369
  904MOL0     H19321   1.890   6.900   7.082 -0.2584  2.2523  3.0921
  904MOL0     H19322   1.776   6.933   6.806  1.4701  2.9543  0.2917
  904MOL0     H19323   1.786   6.777   6.895 -0.7112 -0.0581  1.6211
  904MOL0     H19324   1.998   6.832   6.740 -0.7909 -1.1122  0.5886
  904MOL0     H19325   2.026   6.953   6.856  1.1540 -1.6392  1.1727
  904MOL0     H19326   2.186   6.591   7.002 -0.6069 -2.1837 -0.4771
  904MOL0     H19327   1.533   7.339   6.975  0.8283 -0.1629 -2.0459
  904MOL0     H19328   1.300   7.383   6.984  3.6159  1.3985 -0.4698
  905MOL0     O19329  10.304   1.438   2.498 -0.4023  0.5749 -0.8879
  905MOL0     C19330  10.408   1.465   2.446  0.0945  0.7224  0.8410
  905MOL0     O19331  10.530   1.445   2.507 -1.2860 -1.4214 -0.6773
  905MOL0     C19332  10.546   1.376   2.624 -0.0961  0.8597 -0.3017
  905MOL0     C19333  10.482   1.260   2.665 -1.0113  0.3745  0.4190
  905MOL0     C19334  10.517   1.200   2.788 -0.4618  0.3129 -1.1597
  905MOL0     C19335  10.618   1.245   2.871  0.3902  1.7070  0.2286
  905MOL0     O19336  10.662   1.179   2.985  0.4486 -0.4095 -0.5667
  905MOL0     C19337  10.618   1.039   3.007  0.2797 -1.4991 -0.7767
  905MOL0     C19338  10.658   0.985   3.145  0.2306  0.3182  0.5283
  905MOL0     C19339  10.600   1.078   3.254  0.8117 -0.2658  0.2470
  905MOL0     C19340  10.652   1.050   3.403  0.6852  0.3811 -0.1308
  905MOL0     C19341  10.624   1.186   3.484  0.4869  0.2182  0.0212
  905MOL0     C19342  10.654   1.176   3.627  0.6425 -0.1778 -0.2963
  905MOL0     C19343  10.582   1.292   3.712  0.3613  0.4938  0.6134
  905MOL0     C19344  10.654   1.427   3.679 -0.3551  1.3071 -0.7675
  905MOL0     N19345  10.742   1.450   3.795  1.5215 -0.4971 -0.0893
  905MOL0     C19346  10.873   1.409   3.808 -0.8791 -0.2563  0.7356
  905MOL0     C19347  10.899   1.457   3.928 -0.6104  0.5643 -1.0191
  905MOL0     C19348  11.034   1.455   3.992  0.3302  0.3625  0.7290
  905MOL0     C19349  11.043   1.500   4.137 -0.1089 -0.3623 -0.6768
  905MOL0     C19350  11.184   1.532   4.182  0.5915  0.2435  0.3707
  905MOL0     C19351  11.252   1.413   4.247 -0.6286 -0.0866  0.9153
  905MOL0     O19352  11.187   1.352   4.353  1.3233  0.0928  0.0822
  905MOL0     C19353  11.244   1.230   4.396  0.3878 -0.0635  0.1333
  905MOL0     C19354  11.214   1.206   4.534 -0.9345  0.5667  0.1339
  905MOL0     C19355  11.265   1.083   4.590 -0.1398 -0.2727 -0.8781
  905MOL0     C19356  11.323   0.986   4.499  0.2868  0.5305  0.2370
  905MOL0     C19357  11.363   0.849   4.548 -0.6155  0.2137  0.3638
  905MOL0     O19358  11.413   0.764   4.448  0.4892  0.2087  0.2141
  905MOL0     C19359  11.471   0.654   4.517  0.2569 -0.7293  1.0051
  905MOL0     C19360  11.398   0.548   4.555 -0.1690  1.6974  0.1919
  905MOL0     C19361  11.464   0.436   4.606  0.3240  0.4974 -0.1330
  905MOL0     C19362  11.610   0.429   4.614  0.1064  0.6461 -0.0471
  905MOL0     O19363  11.672   0.315   4.644 -0.4403  0.2383 -0.3392
  905MOL0     C19364  11.691   0.297   4.787  0.3688  0.7164 -0.0247
  905MOL0     C19365  11.830   0.244   4.789 -0.4771 -0.7933 -0.8069
  905MOL0     C19366  11.899   0.223   4.931 -0.1480 -0.3594  1.0279
  905MOL0     C19367  12.041   0.155   4.921 -0.0776 -0.3129  0.1634
  905MOL0     C19368  12.034  -0.000   4.919  0.3823  0.1803 -0.6951
  905MOL0     C19369  12.166  -0.074   4.931 -0.7543 -0.3258 -0.2513
  905MOL0     C19370  12.139  -0.218   4.962  0.0150  0.4252  1.5771
  905MOL0     C19371  12.075  -0.289   4.842 -0.0297 -0.3005 -0.3858
  905MOL0    Cl19372  12.170  -0.269   4.691 -0.2761  0.1258  0.4488
  905MOL0     C19373  11.679   0.543   4.568  0.0373  0.5382 -0.6968
  905MOL0     C19374  11.613   0.651   4.514 -0.0151 -0.6787 -0.6817
  905MOL0     O19375  11.357   0.827   4.669 -0.5491  0.5501 -0.7588
  905MOL0     C19376  11.344   1.008   4.364  1.4138 -0.2268 -0.2104
  905MOL0     C19377  11.318   1.138   4.316 -0.0331  0.8827 -0.3596
  905MOL0     N19378  10.793   1.502   3.993 -1.0459 -0.2458  0.3545
  905MOL0     N19379  10.693   1.501   3.916 -0.1623  0.1225  0.5847
  905MOL0     C19380  10.681   1.360   2.822 -0.1677  0.1889 -0.2777
  905MOL0     C19381  10.643   1.428   2.705  0.3150  0.2387 -0.0703
  905MOL0     C19382  10.399   1.531   2.320 -0.1732  0.0461 -0.4810
  905MOL0     C19383  10.292   1.608   2.283  0.4292 -0.0027 -0.0591
  905MOL0     C19384  10.288   1.686   2.157  0.2404 -0.1313  0.1315
  905MOL0     C19385  10.393   1.678   2.071  0.5042 -0.2472  0.6323
  905MOL0     O19386  10.386   1.752   1.956  0.7553  0.0513 -0.7102
  905MOL0     C19387  10.506   1.826   1.923 -0.0664 -0.3352  0.1747
  905MOL0     C19388  10.464   1.946   1.830 -0.0270 -0.2316 -0.7144
  905MOL0     C19389  10.414   1.900   1.693  0.4141  0.0907  1.0397
  905MOL0     C19390  10.533   1.868   1.598 -0.1604  0.2214  0.4170
  905MOL0     C19391  10.488   1.819   1.461 -0.0417  0.0184 -0.0503
  905MOL0     C19392  10.449   1.797   1.345 -0.1104  0.4450 -0.2787
  905MOL0     C19393  10.502   1.600   2.108 -0.4547 -0.1739  0.5201
  905MOL0     C19394  10.505   1.528   2.229 -0.2257  0.1050  1.3163
  905MOL0     H19395  10.390   1.227   2.618 -0.9549  1.1574 -0.2729
  905MOL0     H19396  10.457   1.115   2.816 -0.4034  0.8502  0.6967
  905MOL0     H19397  10.665   0.972   2.935  0.0217 -3.5523  0.8638
  905MOL0     H19398  10.510   1.036   2.993  0.2526 -2.6785 -0.4485
  905MOL0     H19399  10.767   0.987   3.140  0.3444 -1.9072  1.2550
  905MOL0     H19400  10.628   0.881   3.154  2.5753 -0.5898 -1.1560
  905MOL0     H19401  10.491   1.086   3.252  0.7791 -0.5427 -1.9278
  905MOL0     H19402  10.630   1.178   3.221 -1.2867  0.6797  1.0278
  905MOL0     H19403  10.584   0.972   3.439  0.5834  0.4661 -0.1359
  905MOL0     H19404  10.755   1.013   3.403  0.5124 -0.1431 -1.4695
  905MOL0     H19405  10.517   1.207   3.489  0.2404 -1.0437  0.5919
  905MOL0     H19406  10.678   1.269   3.439  1.4457 -0.0420  0.6688
  905MOL0     H19407  10.763   1.181   3.637  0.7084  0.2057 -1.0964
  905MOL0     H19408  10.614   1.079   3.656  1.0295 -0.8018 -1.7490
  905MOL0     H19409  10.481   1.302   3.671  0.8812  0.8258 -0.6687
  905MOL0     H19410  10.586   1.266   3.818 -0.0140 -1.1458  0.2550
  905MOL0     H19411  10.585   1.505   3.646 -1.4279 -0.2764 -2.4589
  905MOL0     H19412  10.714   1.406   3.590  0.8384 -1.9317  0.6421
  905MOL0     H19413  10.946   1.359   3.746  0.9037  2.4963  0.4637
  905MOL0     H19414  11.087   1.522   3.924 -0.6988 -0.7824 -1.3136
  905MOL0     H19415  11.074   1.356   3.966 -0.2428  0.8260 -2.3702
  905MOL0     H19416  11.010   1.423   4.207  0.7115 -1.1788 -1.1786
  905MOL0     H19417  10.970   1.580   4.150 -2.0280 -2.0010 -0.8324
  905MOL0     H19418  11.243   1.559   4.094 -1.3055  0.6878 -0.8295
  905MOL0     H19419  11.170   1.616   4.250 -3.3817  1.1495 -1.2445
  905MOL0     H19420  11.357   1.437   4.263 -0.9226  3.3118 -1.1896
  905MOL0     H19421  11.264   1.338   4.168  1.4666  0.4862  0.6427
  905MOL0     H19422  11.156   1.283   4.584 -4.2198 -2.2029  0.9933
  905MOL0     H19423  11.246   1.057   4.694 -1.3532 -3.3376 -1.7367
  905MOL0     H19424  11.292   0.550   4.530  0.6528  0.1624 -4.2277
  905MOL0     H19425  11.410   0.350   4.643 -1.8036  1.3231 -1.1544
  905MOL0     H19426  11.632   0.211   4.818  2.3916 -1.6461 -2.2417
  905MOL0     H19427  11.673   0.392   4.839 -1.0452  2.2732 -3.0790
  905MOL0     H19428  11.900   0.293   4.720 -1.1510  1.1834 -0.1683
  905MOL0     H19429  11.824   0.149   4.735  0.7487 -1.6077  0.4073
  905MOL0     H19430  11.829   0.158   4.985 -2.2000 -0.7862 -1.8714
  905MOL0     H19431  11.908   0.313   4.992 -0.0752 -2.0569  3.6990
  905MOL0     H19432  12.095   0.181   4.829  2.3064  0.4856  1.6889
  905MOL0     H19433  12.097   0.188   5.010 -1.2485 -1.5446  1.3941
  905MOL0     H19434  11.969  -0.039   4.839 -3.0860  0.2748  1.8302
  905MOL0     H19435  11.970  -0.015   5.006 -0.3384 -0.4725 -1.3190
  905MOL0     H19436  12.225  -0.020   5.006  0.7017  2.1064 -2.9692
  905MOL0     H19437  12.222  -0.073   4.837 -1.4740 -0.6131 -0.6864
  905MOL0     H19438  12.231  -0.270   4.992 -0.8879 -1.7683  0.6984
  905MOL0     H19439  12.075  -0.214   5.050 -2.3468  4.7367 -0.0400
  905MOL0     H19440  11.970  -0.259   4.834 -0.5384 -1.8125  0.1044
  905MOL0     H19441  12.071  -0.395   4.869 -0.7102  0.0873  1.1576
  905MOL0     H19442  11.785   0.527   4.557 -0.2460 -2.2380 -0.0838
  905MOL0     H19443  11.666   0.741   4.485  1.8936 -1.4053  0.4178
  905MOL0     H19444  11.379   0.934   4.292 -0.4344  0.3197 -1.7563
  905MOL0     H19445  11.339   1.159   4.212  2.4258  0.7952  0.0455
  905MOL0     H19446  10.755   1.402   2.889 -2.0228  2.9719  0.2230
  905MOL0     H19447  10.706   1.507   2.665 -0.3439  0.4837 -0.6458
  905MOL0     H19448  10.204   1.619   2.347  1.9727  2.1634  1.8387
  905MOL0     H19449  10.196   1.727   2.117  0.1745  0.1230  0.5403
  905MOL0     H19450  10.561   1.749   1.868 -0.8490  0.9153 -2.5596
  905MOL0     H19451  10.556   1.862   2.013 -1.7840  0.0211  1.0343
  905MOL0     H19452  10.388   2.016   1.865  2.3535  2.2762 -0.2682
  905MOL0     H19453  10.555   2.006   1.821  1.3168 -2.1025 -0.4229
  905MOL0     H19454  10.354   1.981   1.651  0.0634 -1.3255 -1.3930
  905MOL0     H19455  10.340   1.821   1.711  1.4018 -1.0917  0.1083
  905MOL0     H19456  10.585   1.964   1.600 -2.7947  1.7731 -0.1575
  905MOL0     H19457  10.602   1.798   1.645  0.6461  0.8261  0.1661
  905MOL0     H19458  10.404   1.765   1.254 -2.1888  1.4940  0.3199
  905MOL0     H19459  10.569   1.584   2.025 -3.5962  0.7851 -2.4463
  905MOL0     H19460  10.580   1.451   2.244 -1.5323 -1.4066  0.4389
  906MOL0     O19461   7.142   8.460  11.324  0.4960  0.2876 -0.0205
  906MOL0     C19462   7.056   8.517  11.258 -0.2425  0.1366 -0.5814
  906MOL0     O19463   6.933   8.538  11.295  0.4709 -0.2207 -0.6181
  906MOL0     C19464   6.883   8.490  11.414  0.6512 -0.7663 -0.2562
  906MOL0     C19465   6.954   8.468  11.537 -0.6218  0.2253 -1.7869
  906MOL0     C19466   6.891   8.425  11.656 -0.4478  0.3457 -0.9041
  906MOL0     C19467   6.758   8.397  11.652  0.0472  0.4822 -0.1541
  906MOL0     O19468   6.705   8.350  11.775 -0.1048 -0.1965  0.9750
  906MOL0     C19469   6.568   8.311  11.797  0.0338  0.2550 -0.5960
  906MOL0     C19470   6.559   8.215  11.922  0.6733 -1.0987  1.0513
  906MOL0     C19471   6.438   8.115  11.925 -0.8189 -0.4034 -0.4063
  906MOL0     C19472   6.409   8.076  12.068  0.6838  0.0713  0.1586
  906MOL0     C19473   6.280   7.980  12.073 -0.2665 -0.9015  0.3817
  906MOL0     C19474   6.150   8.053  12.058 -0.0468  1.0867  0.3584
  906MOL0     C19475   6.039   7.954  12.055  0.4927 -0.1244 -0.0958
  906MOL0     C19476   6.010   7.908  12.207  0.2283  0.5143 -0.0197
  906MOL0     N19477   5.893   7.819  12.210  0.0552 -0.7393 -0.5038
  906MOL0     C19478   5.888   7.696  12.272  0.0179 -0.8354 -0.2608
  906MOL0     C19479   5.759   7.655  12.263  0.0928 -0.7648 -0.2705
  906MOL0     C19480   5.709   7.527  12.317 -0.8401 -0.3108 -0.8163
  906MOL0     C19481   5.572   7.507  12.269  0.0878  0.1869  1.5848
  906MOL0     C19482   5.549   7.493  12.116  0.0050 -0.2082 -0.3582
  906MOL0     C19483   5.419   7.428  12.067 -0.2927 -0.2311 -0.5624
  906MOL0     O19484   5.425   7.281  12.093 -0.7218 -0.6152 -0.2969
  906MOL0     C19485   5.307   7.209  12.065 -0.4265  0.4972 -0.1079
  906MOL0     C19486   5.195   7.268  12.001  0.2027 -0.3819  0.2813
  906MOL0     C19487   5.083   7.189  11.974 -0.4454 -0.1698  0.9115
  906MOL0     C19488   5.091   7.048  12.011 -0.9447  0.8990 -0.5156
  906MOL0     C19489   4.968   6.963  11.974 -0.1808 -1.1282  0.2800
  906MOL0     O19490   4.957   6.835  12.023  0.6077 -0.2987 -0.8560
  906MOL0     C19491   4.829   6.785  12.012  0.9631 -0.7325 -0.1925
  906MOL0     C19492   4.800   6.693  11.908 -0.2082  0.1970 -0.6251
  906MOL0     C19493   4.684   6.616  11.903 -0.1984  0.0833 -0.3159
  906MOL0     C19494   4.575   6.655  11.991  0.0038  0.5207  1.0038
  906MOL0     O19495   4.452   6.593  11.967  0.9220 -0.0432  0.2736
  906MOL0     C19496   4.334   6.681  11.999 -1.0676  0.6217 -0.3731
  906MOL0     C19497   4.225   6.653  11.906  0.0595  0.2410 -0.3100
  906MOL0     C19498   4.275   6.615  11.771  0.5244 -0.2636  0.1563
  906MOL0     C19499   4.166   6.624  11.668 -0.2501 -1.0123  0.5530
  906MOL0     C19500   4.203   6.622  11.521 -0.4190  0.4183 -0.5402
  906MOL0     C19501   4.109   6.707  11.430  0.1785 -0.6177 -0.3022
  906MOL0     C19502   4.149   6.720  11.279 -0.0807  0.2819  0.4414
  906MOL0     C19503   4.185   6.572  11.236 -0.8242 -0.1027  0.6366
  906MOL0    Cl19504   4.231   6.592  11.073 -0.0715  0.2222  0.1589
  906MOL0     C19505   4.606   6.728  12.101  0.2669 -0.3505 -1.6602
  906MOL0     C19506   4.733   6.795  12.114  0.3523 -0.2569  0.2714
  906MOL0     O19507   4.885   7.019  11.899 -0.4743  0.2670  0.1620
  906MOL0     C19508   5.200   6.987  12.075  0.7648  0.0025  0.7178
  906MOL0     C19509   5.310   7.076  12.092 -0.1238 -0.6539 -1.5915
  906MOL0     N19510   5.687   7.765  12.219  0.3836 -0.0500  0.2108
  906MOL0     N19511   5.765   7.855  12.182 -0.1950  0.1174 -0.9974
  906MOL0     C19512   6.686   8.421  11.532 -0.0740  0.4640  0.0212
  906MOL0     C19513   6.749   8.475  11.417  0.3694  1.3340 -0.9137
  906MOL0     C19514   7.089   8.569  11.120  0.4586  0.1847 -0.6075
  906MOL0     C19515   7.225   8.576  11.073  0.2014 -0.1708  0.0520
  906MOL0     C19516   7.244   8.640  10.953 -0.3100  1.2059  0.8845
  906MOL0     C19517   7.141   8.689  10.876 -0.5513  0.2703  0.3750
  906MOL0     O19518   7.176   8.736  10.748 -0.4635  0.0594  0.3318
  906MOL0     C19519   7.090   8.823  10.681  0.7304  0.4065 -0.0488
  906MOL0     C19520   7.116   8.802  10.534  0.3467  0.5175  0.3308
  906MOL0     C19521   7.050   8.903  10.435 -0.1349  0.5992 -0.2257
  906MOL0     C19522   7.141   9.030  10.427 -0.0185  0.7171 -0.6842
  906MOL0     C19523   7.274   9.009  10.356 -0.6489 -0.2812  0.0853
  906MOL0     C19524   7.385   8.991  10.309 -0.5380 -0.1030  0.7393
  906MOL0     C19525   7.011   8.672  10.926 -0.1351  0.8160  0.4055
  906MOL0     C19526   6.990   8.610  11.040  0.3470  0.6014  0.6239
  906MOL0     H19527   7.059   8.495  11.544 -0.1280 -1.7820 -0.5627
  906MOL0     H19528   6.935   8.418  11.754 -1.4426  2.3482 -0.2611
  906MOL0     H19529   6.525   8.258  11.711 -0.7014  1.3664 -0.9318
  906MOL0     H19530   6.493   8.386  11.818 -1.1985 -1.3069  0.8738
  906MOL0     H19531   6.544   8.283  12.006 -1.4596  0.5907 -0.5727
  906MOL0     H19532   6.653   8.159  11.927  0.4044 -2.2693 -3.1393
  906MOL0     H19533   6.462   8.031  11.860  0.2853 -1.5695  1.4192
  906MOL0     H19534   6.353   8.164  11.877  1.2521  0.7285 -3.1530
  906MOL0     H19535   6.492   8.021  12.113  0.4761 -3.4643 -3.2416
  906MOL0     H19536   6.392   8.163  12.133 -3.3032 -1.8481  2.0698
  906MOL0     H19537   6.280   7.949  12.178 -0.8415  1.0633  0.9973
  906MOL0     H19538   6.282   7.890  12.011 -1.9389 -0.6758 -0.0249
  906MOL0     H19539   6.143   8.121  11.973  2.7038  0.2705 -0.6268
  906MOL0     H19540   6.141   8.112  12.149 -0.2349  1.2535  0.2339
  906MOL0     H19541   5.960   8.025  12.031 -0.9012 -1.0798  1.4468
  906MOL0     H19542   6.057   7.880  11.977  1.3672 -0.3000  0.2561
  906MOL0     H19543   5.987   8.005  12.252 -0.1415  2.3289 -3.7256
  906MOL0     H19544   6.087   7.865  12.272 -1.8617 -3.1580  0.3057
  906MOL0     H19545   5.971   7.635  12.306 -1.8071 -2.0747  2.2970
  906MOL0     H19546   5.720   7.532  12.426  2.6053 -0.7563 -1.0294
  906MOL0     H19547   5.771   7.444  12.281 -0.6410 -0.8129  0.6022
  906MOL0     H19548   5.500   7.579  12.308  1.3953  1.5243  1.6150
  906MOL0     H19549   5.536   7.415  12.315  0.2121  0.5048  2.3175
  906MOL0     H19550   5.560   7.590  12.067 -0.9417 -0.4012 -0.9878
  906MOL0     H19551   5.633   7.442  12.069  1.1951  0.3468  1.0885
  906MOL0     H19552   5.397   7.447  11.962 -5.0151 -1.8748 -0.1277
  906MOL0     H19553   5.339   7.473  12.126 -1.2339 -0.2621 -1.7788
  906MOL0     H19554   5.187   7.369  11.961 -1.3315 -0.5064  0.2007
  906MOL0     H19555   5.006   7.243  11.920  0.8676  1.3120  0.4663
  906MOL0     H19556   4.883   6.692  11.838 -1.6358  1.0524 -2.4125
  906MOL0     H19557   4.672   6.537  11.830  1.1978 -0.9254  0.5059
  906MOL0     H19558   4.372   6.783  11.992  1.0418 -0.1155 -0.4633
  906MOL0     H19559   4.301   6.662  12.101  3.8829 -0.6186  1.2969
  906MOL0     H19560   4.166   6.745  11.905 -0.3865 -0.0428 -0.1687
  906MOL0     H19561   4.177   6.563  11.945  2.3348 -0.4636  1.0362
  906MOL0     H19562   4.324   6.518  11.769  2.5372  0.6941  0.3235
  906MOL0     H19563   4.358   6.681  11.742  1.2733 -0.8576  0.8823
  906MOL0     H19564   4.109   6.531  11.671 -2.0462 -0.1338 -1.9868
  906MOL0     H19565   4.105   6.713  11.688  1.2340  0.3099 -0.5077
  906MOL0     H19566   4.216   6.518  11.488 -2.5506 -0.1828  0.3459
  906MOL0     H19567   4.304   6.662  11.506 -0.0027 -0.8851 -1.4481
  906MOL0     H19568   4.098   6.809  11.467  1.3489  0.1501 -1.9614
  906MOL0     H19569   4.018   6.647  11.443  0.7735 -1.0057  3.0964
  906MOL0     H19570   4.068   6.755  11.214  2.4644  1.3575 -2.3798
  906MOL0     H19571   4.241   6.777  11.270  1.1174 -1.8419 -2.0759
  906MOL0     H19572   4.096   6.510  11.226  0.2509 -1.5560 -0.5392
  906MOL0     H19573   4.266   6.518  11.286 -2.1009 -1.5815  1.2076
  906MOL0     H19574   4.529   6.755  12.173 -1.5178  1.1718 -3.9860
  906MOL0     H19575   4.762   6.849  12.204 -1.6388 -0.8188  1.3181
  906MOL0     H19576   5.198   6.885  12.114 -0.7823 -0.1474  0.3093
  906MOL0     H19577   5.401   7.059  12.148  0.0679  0.0234 -1.6932
  906MOL0     H19578   6.583   8.391  11.550 -0.1593  1.2355  0.9553
  906MOL0     H19579   6.694   8.494  11.325 -1.7020 -1.6475 -0.4499
  906MOL0     H19580   7.311   8.540  11.128 -0.2620  1.0031  1.6025
  906MOL0     H19581   7.343   8.660  10.911 -0.2718 -1.4089 -0.4754
  906MOL0     H19582   7.107   8.929  10.703  3.2228 -0.0283  0.4921
  906MOL0     H19583   6.983   8.804  10.693  1.0298 -0.7248  1.0083
  906MOL0     H19584   7.221   8.783  10.510 -0.5224 -0.7733 -3.0301
  906MOL0     H19585   7.075   8.702  10.519 -1.4290  0.1794  5.4909
  906MOL0     H19586   6.955   8.936  10.476  0.1473 -1.8544  2.7619
  906MOL0     H19587   7.042   8.855  10.337  4.0785 -0.6634 -0.1720
  906MOL0     H19588   7.073   9.094  10.370  0.7925  1.4584 -0.8449
  906MOL0     H19589   7.162   9.080  10.522  1.4337  0.2387 -0.7289
  906MOL0     H19590   7.475   8.953  10.265 -2.8985 -0.6493 -4.3204
  906MOL0     H19591   6.926   8.695  10.861 -0.4974 -3.1142 -0.7501
  906MOL0     H19592   6.888   8.592  11.072  0.8066 -3.1781  0.3520
  907MOL0     O19593   4.709   2.217  10.913  0.0930  0.2454  0.1962
  907MOL0     C19594   4.770   2.244  10.813  0.3228 -0.1114  0.7272
  907MOL0     O19595   4.853   2.350  10.810 -0.1875 -0.1035  1.3931
  907MOL0     C19596   4.897   2.417  10.918  0.4275 -0.1373  0.7641
  907MOL0     C19597   4.919   2.553  10.899  0.5417 -0.8774 -0.2248
  907MOL0     C19598   4.970   2.627  11.007  0.3840 -0.9452 -0.3892
  907MOL0     C19599   5.000   2.567  11.128 -0.6184 -0.1329 -0.6931
  907MOL0     O19600   5.069   2.655  11.211  0.7393 -0.0116  0.4422
  907MOL0     C19601   5.108   2.594  11.340 -0.1863 -0.1530  0.7774
  907MOL0     C19602   5.232   2.505  11.346  0.5355 -0.8194  0.8199
  907MOL0     C19603   5.356   2.600  11.341  0.1291 -0.8283 -0.2127
  907MOL0     C19604   5.496   2.538  11.355  0.5584 -0.6507 -0.5936
  907MOL0     C19605   5.553   2.480  11.223 -0.0218 -0.2910 -0.0237
  907MOL0     C19606   5.706   2.448  11.226  0.2124  0.1616 -0.6140
  907MOL0     C19607   5.771   2.431  11.082  0.4069 -0.6171  0.2486
  907MOL0     C19608   5.919   2.404  11.085 -0.8670  0.1563 -0.5137
  907MOL0     N19609   5.953   2.261  11.143 -0.7004  0.2123  0.7602
  907MOL0     C19610   6.007   2.237  11.271  0.6865 -0.3371 -0.5760
  907MOL0     C19611   6.012   2.098  11.276  1.3770  0.5725 -0.5155
  907MOL0     C19612   6.061   2.017  11.394  0.3325  0.0912 -0.9247
  907MOL0     C19613   6.071   2.107  11.522 -0.7030 -0.4163  0.0437
  907MOL0     C19614   6.093   2.021  11.649 -0.1914 -0.3752 -0.6373
  907MOL0     C19615   6.233   1.952  11.673  0.4889  0.6005 -0.4430
  907MOL0     O19616   6.333   2.057  11.666  0.3348  0.7203  0.4334
  907MOL0     C19617   6.365   2.109  11.790 -0.0180  1.2723  0.2462
  907MOL0     C19618   6.384   2.244  11.802 -0.5715 -0.2888 -0.4198
  907MOL0     C19619   6.447   2.288  11.925  0.7991  0.3879  0.1035
  907MOL0     C19620   6.474   2.212  12.036  0.2578  0.2720  0.1838
  907MOL0     C19621   6.544   2.260  12.159  0.1756  0.2459  0.0111
  907MOL0     O19622   6.541   2.179  12.271 -0.4553  0.2654 -0.2433
  907MOL0     C19623   6.607   2.221  12.378  0.1616  0.3170  0.0381
  907MOL0     C19624   6.570   2.337  12.442  0.6628 -0.0894  0.3662
  907MOL0     C19625   6.642   2.385  12.555  0.2401 -0.2682 -0.4925
  907MOL0     C19626   6.750   2.303  12.607  0.7453  0.0098  0.0702
  907MOL0     O19627   6.821   2.355  12.712  0.6835 -0.0167 -0.8435
  907MOL0     C19628   6.954   2.397  12.685  0.4117  0.1057 -0.6859
  907MOL0     C19629   6.958   2.550  12.684  0.7337  0.2273 -0.5024
  907MOL0     C19630   7.012   2.601  12.814 -0.1194  0.2421 -0.0446
  907MOL0     C19631   7.027   2.753  12.818 -0.8216 -0.5847  0.4204
  907MOL0     C19632   7.032   2.820  12.949  0.1019  1.0367 -0.4851
  907MOL0     C19633   6.913   2.772  13.035 -0.2169 -0.6447 -0.9670
  907MOL0     C19634   6.884   2.881  13.133  0.3658  0.0776  0.3363
  907MOL0     C19635   6.771   2.854  13.235  0.3779  0.1668 -0.3709
  907MOL0    Cl19636   6.804   2.744  13.380 -0.0770  0.0395 -0.0206
  907MOL0     C19637   6.778   2.178  12.549 -0.2773 -0.1599  0.1644
  907MOL0     C19638   6.700   2.138  12.438 -0.5242  0.5143  0.9494
  907MOL0     O19639   6.589   2.376  12.159 -0.2718  0.3468  0.4918
  907MOL0     C19640   6.462   2.074  12.012  0.0133  0.4281 -0.2188
  907MOL0     C19641   6.414   2.023  11.890 -0.6156  0.3625 -0.9122
  907MOL0     N19642   5.955   2.053  11.157  0.5434  0.2056  0.0968
  907MOL0     N19643   5.920   2.147  11.077  0.7969  1.0336 -1.2541
  907MOL0     C19644   4.969   2.433  11.152 -0.1528  0.6602 -0.2652
  907MOL0     C19645   4.919   2.358  11.042 -0.5425 -0.2029 -0.0221
  907MOL0     C19646   4.735   2.173  10.693 -1.8020  0.3072 -0.4376
  907MOL0     C19647   4.803   2.215  10.581 -0.2523 -0.0106  0.0080
  907MOL0     C19648   4.790   2.149  10.464  0.1428 -0.7513 -0.1117
  907MOL0     C19649   4.702   2.044  10.443 -0.9780  0.4775 -0.2058
  907MOL0     O19650   4.680   1.991  10.318 -0.5317  0.2422 -0.1070
  907MOL0     C19651   4.562   2.052  10.251  0.1398 -1.0959 -0.6962
  907MOL0     C19652   4.588   2.130  10.118  0.1924  0.4659  0.1754
  907MOL0     C19653   4.693   2.248  10.154  0.4562  0.1764  0.2627
  907MOL0     C19654   4.680   2.360  10.048 -0.4615 -0.1923  0.7520
  907MOL0     C19655   4.784   2.466  10.067  0.2369 -0.0964 -1.3942
  907MOL0     C19656   4.874   2.535  10.078 -0.6272  0.5497 -0.5829
  907MOL0     C19657   4.628   2.008  10.555 -0.0513  0.7751 -0.2483
  907MOL0     C19658   4.642   2.071  10.680  0.0859 -0.1985  0.1892
  907MOL0     H19659   4.895   2.608  10.808  5.6451  2.0457 -0.1996
  907MOL0     H19660   4.988   2.734  10.997 -0.0082 -0.7426  0.8931
  907MOL0     H19661   5.027   2.533  11.382  0.5377 -0.5912  1.5599
  907MOL0     H19662   5.135   2.675  11.408  1.8679 -1.1601  1.2144
  907MOL0     H19663   5.232   2.442  11.256 -3.6936  2.4293 -1.8953
  907MOL0     H19664   5.245   2.447  11.437  2.0877 -1.9839 -0.1028
  907MOL0     H19665   5.351   2.649  11.438  2.9305 -1.8457  0.5369
  907MOL0     H19666   5.344   2.661  11.251 -0.3298  0.5494  0.7574
  907MOL0     H19667   5.566   2.615  11.390  0.3733 -1.4488  1.7081
  907MOL0     H19668   5.495   2.451  11.421 -2.2640  0.1514  0.5647
  907MOL0     H19669   5.528   2.554  11.147 -1.1803  1.3599  1.8565
  907MOL0     H19670   5.505   2.385  11.198  2.9003 -1.8427 -0.2097
  907MOL0     H19671   5.723   2.362  11.292 -2.7263 -0.4323 -0.4770
  907MOL0     H19672   5.757   2.523  11.287 -3.0980  0.3887  2.2408
  907MOL0     H19673   5.716   2.354  11.027  2.4024  0.3082 -3.3200
  907MOL0     H19674   5.766   2.520  11.019  1.3471 -0.0710  0.9250
  907MOL0     H19675   5.970   2.474  11.152  0.7249 -0.0864 -1.3971
  907MOL0     H19676   5.968   2.419  10.988 -0.2754 -3.2253 -0.8448
  907MOL0     H19677   6.062   2.302  11.338  3.8686 -2.7126 -0.6823
  907MOL0     H19678   6.161   1.980  11.371  1.0056  1.0115  0.3496
  907MOL0     H19679   5.988   1.938  11.415  1.1222 -0.4270 -0.0147
  907MOL0     H19680   5.979   2.167  11.534  0.8146  2.1590 -0.3744
  907MOL0     H19681   6.149   2.183  11.516 -0.8896 -0.1940  0.3634
  907MOL0     H19682   6.069   2.096  11.725 -2.9461 -1.3886 -0.3977
  907MOL0     H19683   6.012   1.949  11.663 -1.3970  0.9365 -0.6459
  907MOL0     H19684   6.248   1.869  11.603 -1.0297 -0.0603 -0.0361
  907MOL0     H19685   6.222   1.911  11.774 -1.6955 -0.9900 -1.2514
  907MOL0     H19686   6.361   2.314  11.722 -4.3489  2.1690  2.4460
  907MOL0     H19687   6.482   2.390  11.936 -0.4209  0.8057  0.2897
  907MOL0     H19688   6.481   2.387  12.404  3.6998  3.8974 -2.3706
  907MOL0     H19689   6.610   2.475  12.606  0.1586 -1.0662  0.9262
  907MOL0     H19690   7.001   2.350  12.598 -0.4451 -0.5674 -0.7924
  907MOL0     H19691   7.016   2.373  12.772 -0.6577 -1.7861 -0.4015
  907MOL0     H19692   6.855   2.577  12.661  0.3160  0.3748  1.3992
  907MOL0     H19693   7.018   2.587  12.600 -0.6608 -0.1527 -1.7053
  907MOL0     H19694   7.110   2.556  12.831  0.6646  1.2765 -1.6188
  907MOL0     H19695   6.942   2.557  12.886 -2.8054 -1.2994 -3.3265
  907MOL0     H19696   7.108   2.786  12.754 -0.7320  0.8864  1.2603
  907MOL0     H19697   6.938   2.800  12.775  0.8846  1.4975 -0.9554
  907MOL0     H19698   7.032   2.928  12.934  1.0609  0.7340 -3.1391
  907MOL0     H19699   7.121   2.784  13.003 -0.5408 -0.2252 -0.2337
  907MOL0     H19700   6.937   2.681  13.091  0.0298 -0.4409 -0.7329
  907MOL0     H19701   6.824   2.756  12.975 -1.7398  0.6906  0.8234
  907MOL0     H19702   6.977   2.912  13.183  0.8511  1.2834 -1.2254
  907MOL0     H19703   6.858   2.969  13.074  3.3252 -0.0583 -1.4207
  907MOL0     H19704   6.702   2.792  13.178 -1.0371  1.5963 -0.2975
  907MOL0     H19705   6.723   2.948  13.265  2.0906  1.5370 -1.6408
  907MOL0     H19706   6.855   2.115  12.593 -1.4031 -1.9213 -0.2678
  907MOL0     H19707   6.724   2.052  12.377 -1.7832  2.1406 -2.1118
  907MOL0     H19708   6.496   2.012  12.094 -1.5767 -2.1602 -1.3905
  907MOL0     H19709   6.430   1.918  11.868 -0.7087  0.6143 -2.2443
  907MOL0     H19710   4.982   2.390  11.251  2.2176  1.6296 -0.0691
  907MOL0     H19711   4.910   2.251  11.058  0.8380 -0.1456  1.3353
  907MOL0     H19712   4.882   2.290  10.575  0.8801 -1.2580 -4.5525
  907MOL0     H19713   4.850   2.187  10.382 -0.1219  1.4807  0.6760
  907MOL0     H19714   4.502   2.105  10.326  0.3227  2.4184 -2.8277
  907MOL0     H19715   4.488   1.975  10.226  1.1185 -2.6777  1.0115
  907MOL0     H19716   4.630   2.053  10.053  0.3150  1.9216 -1.5264
  907MOL0     H19717   4.499   2.186  10.087 -1.4123 -0.7439  2.3246
  907MOL0     H19718   4.796   2.212  10.154  0.7127  0.8937 -0.0348
  907MOL0     H19719   4.667   2.298  10.247 -1.6054  2.9290 -1.6047
  907MOL0     H19720   4.688   2.317   9.948 -2.3213  0.6988  0.1839
  907MOL0     H19721   4.582   2.407  10.056  0.3097  1.8730 -0.9304
  907MOL0     H19722   4.957   2.601  10.097 -0.8613  0.6364  0.1836
  907MOL0     H19723   4.573   1.915  10.555  2.4578 -0.8014  0.8657
  907MOL0     H19724   4.584   2.033  10.764 -1.5943 -0.6560 -1.1218
  908MOL0     O19725   1.237  10.880   9.125  0.1807  0.2002  0.0584
  908MOL0     C19726   1.143  10.859   9.205  0.0557  0.2280  0.6746
  908MOL0     O19727   1.165  10.861   9.341  0.7101 -0.2042  0.6661
  908MOL0     C19728   1.283  10.815   9.388  0.5949  0.4763 -1.1842
  908MOL0     C19729   1.314  10.679   9.369  0.2703  0.6573 -1.1661
  908MOL0     C19730   1.430  10.610   9.412 -0.1401  0.1788 -0.2303
  908MOL0     C19731   1.511  10.683   9.500  0.1900  0.1106  0.5873
  908MOL0     O19732   1.609  10.615   9.560  0.1259 -0.3558  0.3677
  908MOL0     C19733   1.709  10.548   9.477 -0.1992  0.3697 -0.5375
  908MOL0     C19734   1.737  10.411   9.557  0.2507  0.5106 -0.4819
  908MOL0     C19735   1.859  10.333   9.504 -0.2727 -0.4528 -0.3437
  908MOL0     C19736   1.873  10.186   9.549 -0.1462  0.6024 -0.5756
  908MOL0     C19737   2.014  10.123   9.556 -0.5858  0.4531 -0.6673
  908MOL0     C19738   2.054  10.061   9.429  0.6514 -0.1728  0.0295
  908MOL0     C19739   2.205  10.038   9.420  0.3038 -0.2275 -0.4384
  908MOL0     C19740   2.251   9.914   9.492  0.0752 -0.3520  0.0923
  908MOL0     N19741   2.395   9.913   9.492 -0.1881  0.9358 -0.0889
  908MOL0     C19742   2.465   9.975   9.593  0.1775  0.1547 -0.1324
  908MOL0     C19743   2.594   9.944   9.568 -0.3497 -0.0388  0.2515
  908MOL0     C19744   2.703  10.017   9.640 -0.6741  0.7231 -0.1153
  908MOL0     C19745   2.744  10.146   9.555  0.4965  0.3509  0.2839
  908MOL0     C19746   2.636  10.256   9.564  0.1201  0.6552  0.1927
  908MOL0     C19747   2.690  10.362   9.467  0.0347 -0.2471 -1.2383
  908MOL0     O19748   2.721  10.466   9.560  0.1867 -0.3595 -0.0793
  908MOL0     C19749   2.731  10.600   9.508  0.2391  0.0115  1.0508
  908MOL0     C19750   2.729  10.697   9.604  0.1617 -0.0607  0.5188
  908MOL0     C19751   2.766  10.823   9.575  0.5026  0.6918  0.4289
  908MOL0     C19752   2.771  10.875   9.441 -1.5198  0.5736  1.1503
  908MOL0     C19753   2.804  11.017   9.414  0.0829 -0.7302  0.7248
  908MOL0     O19754   2.807  11.108   9.523 -1.1767 -0.3081  0.2520
  908MOL0     C19755   2.880  11.225   9.499  0.2661 -0.2350 -0.3224
  908MOL0     C19756   3.000  11.244   9.556 -1.1062  0.2199 -0.0960
  908MOL0     C19757   3.077  11.364   9.534  1.3913  0.8143  0.1498
  908MOL0     C19758   3.028  11.477   9.466 -0.2817  0.1741  0.0696
  908MOL0     O19759   3.105  11.587   9.460 -0.2768  0.5887  0.0227
  908MOL0     C19760   3.087  11.680   9.346  0.2433 -1.0614  1.0385
  908MOL0     C19761   3.118  11.830   9.371  0.3804 -0.0728  0.1017
  908MOL0     C19762   3.255  11.881   9.322 -0.1209 -0.5019  0.7578
  908MOL0     C19763   3.267  12.034   9.350  1.0523 -0.6232  0.4608
  908MOL0     C19764   3.380  12.104   9.266 -0.6500 -0.2149  1.1446
  908MOL0     C19765   3.439  12.236   9.306 -0.4046  0.3159 -0.0746
  908MOL0     C19766   3.329  12.324   9.381  0.5006 -0.6946  0.1257
  908MOL0     C19767   3.205  12.359   9.298  0.7453  0.2827 -0.5374
  908MOL0    Cl19768   3.116  12.487   9.370 -0.2895 -0.3359 -0.5448
  908MOL0     C19769   2.891  11.461   9.415 -0.1493 -0.0708 -0.8479
  908MOL0     C19770   2.817  11.341   9.436  0.1046  0.1913 -0.5437
  908MOL0     O19771   2.826  11.043   9.296 -0.2303  0.5202 -1.0515
  908MOL0     C19772   2.741  10.780   9.341 -0.4779  0.2069  0.7540
  908MOL0     C19773   2.728  10.646   9.376 -0.3560  0.6228 -0.7691
  908MOL0     N19774   2.599   9.862   9.453  0.6711  0.0861  0.6671
  908MOL0     N19775   2.477   9.841   9.413 -0.2353 -0.1573  0.8660
  908MOL0     C19776   1.478  10.824   9.529  0.2476 -0.0413 -0.1962
  908MOL0     C19777   1.372  10.889   9.476 -0.5667 -0.6108 -0.0334
  908MOL0     C19778   1.006  10.866   9.157 -0.4161 -0.9512  0.2264
  908MOL0     C19779   0.981  10.895   9.026 -0.3783  0.0307 -0.0853
  908MOL0     C19780   0.857  10.933   8.978  0.7075 -0.5701 -1.4162
  908MOL0     C19781   0.746  10.924   9.062 -0.3773 -0.1490 -0.4520
  908MOL0     O19782   0.613  10.960   9.037 -0.7165  0.7652  0.5175
  908MOL0     C19783   0.574  10.966   8.899  0.0058  0.4478 -1.0782
  908MOL0     C19784   0.425  10.958   8.881  0.1289  0.7831  0.5632
  908MOL0     C19785   0.345  11.061   8.942 -0.4641  0.2244 -0.4114
  908MOL0     C19786   0.188  11.055   8.914  0.1162 -0.4137 -0.6313
  908MOL0     C19787   0.164  11.136   8.796 -0.3494 -0.6347 -0.0109
  908MOL0     C19788   0.159  11.227   8.708 -0.2852  0.3942 -0.3723
  908MOL0     C19789   0.769  10.885   9.199 -0.1120  0.9544 -0.7428
  908MOL0     C19790   0.899  10.864   9.247  0.2748 -0.0972  0.3911
  908MOL0     H19791   1.240  10.622   9.314 -2.1627 -1.4847  3.7235
  908MOL0     H19792   1.440  10.503   9.394 -0.7482  0.0434  0.1883
  908MOL0     H19793   1.799  10.610   9.464  0.0511  0.6895  2.1168
  908MOL0     H19794   1.677  10.517   9.378 -0.6689 -0.7807 -0.0458
  908MOL0     H19795   1.648  10.347   9.562 -0.4962  1.6197  1.9269
  908MOL0     H19796   1.754  10.444   9.660 -0.5585  2.1620 -0.8390
  908MOL0     H19797   1.951  10.382   9.540  0.5128 -1.4841 -0.9011
  908MOL0     H19798   1.859  10.325   9.395 -3.3968 -3.6358 -0.2814
  908MOL0     H19799   1.825  10.177   9.647 -0.1180 -0.1020 -0.6186
  908MOL0     H19800   1.808  10.112   9.501 -1.6392  0.6272  1.2623
  908MOL0     H19801   2.016  10.046   9.635  3.2413  0.3111 -0.7352
  908MOL0     H19802   2.093  10.194   9.580  0.3073 -1.3229  2.2233
  908MOL0     H19803   2.023  10.128   9.348 -0.0358 -2.1845 -1.4560
  908MOL0     H19804   2.000   9.967   9.413  2.4193 -1.2804  0.2076
  908MOL0     H19805   2.238  10.022   9.317  1.6585  0.1915 -0.0830
  908MOL0     H19806   2.250  10.124   9.469 -1.3346  0.5423 -0.2247
  908MOL0     H19807   2.228   9.818   9.444  2.8862 -1.3707  0.5713
  908MOL0     H19808   2.225   9.914   9.599  0.2348 -1.8537  0.1635
  908MOL0     H19809   2.427  10.037   9.673 -1.2807 -0.8070 -0.0480
  908MOL0     H19810   2.794   9.957   9.642 -1.1670 -0.5631 -4.7556
  908MOL0     H19811   2.668  10.038   9.742  0.6158  3.0318 -0.0767
  908MOL0     H19812   2.762  10.107   9.455 -1.1831  5.7645 -2.5363
  908MOL0     H19813   2.839  10.183   9.595  0.3827  2.1206 -0.9894
  908MOL0     H19814   2.533  10.232   9.538 -0.1864 -0.8520  2.4727
  908MOL0     H19815   2.647  10.276   9.671  1.0719 -3.7461  1.1058
  908MOL0     H19816   2.609  10.398   9.402 -0.9467  4.2352  2.0256
  908MOL0     H19817   2.781  10.327   9.417  2.4051  2.5412  0.7954
  908MOL0     H19818   2.698  10.671   9.705  0.5747  1.5865  1.0889
  908MOL0     H19819   2.772  10.896   9.655  0.6865  0.3247  0.7542
  908MOL0     H19820   3.040  11.163   9.615 -0.1435  0.4062 -0.4761
  908MOL0     H19821   3.181  11.371   9.564  1.0049  1.0690  1.5198
  908MOL0     H19822   2.983  11.683   9.310  0.9779  1.6617 -1.1447
  908MOL0     H19823   3.155  11.650   9.266 -0.5133  2.1705 -1.0267
  908MOL0     H19824   3.099  11.839   9.478 -1.1109 -1.2622 -0.0282
  908MOL0     H19825   3.045  11.891   9.317  0.2063  0.3027  0.7626
  908MOL0     H19826   3.265  11.875   9.213  1.3656  4.2500  0.4175
  908MOL0     H19827   3.329  11.825   9.381 -1.2307 -0.2711  2.4336
  908MOL0     H19828   3.173  12.085   9.329  2.9489  1.6407 -3.9207
  908MOL0     H19829   3.280  12.046   9.458 -0.2910  0.8752  0.4907
  908MOL0     H19830   3.347  12.088   9.163 -0.6461 -1.9800  1.3830
  908MOL0     H19831   3.467  12.038   9.263 -2.2358 -2.4819 -3.1032
  908MOL0     H19832   3.458  12.282   9.209  0.0704 -2.1778 -1.2530
  908MOL0     H19833   3.523  12.221   9.375 -1.2615  1.3552  1.2511
  908MOL0     H19834   3.309  12.270   9.474 -0.9118  0.8053  0.7464
  908MOL0     H19835   3.381  12.416   9.411  1.8226 -1.3593 -0.0637
  908MOL0     H19836   3.134  12.278   9.274 -0.6777  1.5015 -0.6043
  908MOL0     H19837   3.244  12.403   9.206  0.9001 -0.6925 -0.9546
  908MOL0     H19838   2.834  11.546   9.380  0.5975  0.9273  0.2915
  908MOL0     H19839   2.713  11.346   9.409  0.2950  1.2499 -1.1476
  908MOL0     H19840   2.729  10.808   9.237 -0.5509 -1.8977  0.1413
  908MOL0     H19841   2.722  10.578   9.291 -0.2553 -1.6674  0.9776
  908MOL0     H19842   1.539  10.893   9.586  0.6004 -1.7988  1.7020
  908MOL0     H19843   1.357  10.993   9.502  0.0142 -0.8023  1.1444
  908MOL0     H19844   1.069  10.888   8.962  1.1852 -2.2341  2.0947
  908MOL0     H19845   0.835  10.955   8.874  1.3571  2.1878 -1.0352
  908MOL0     H19846   0.631  10.891   8.843  4.7753 -1.7350  5.4188
  908MOL0     H19847   0.605  11.063   8.860  1.0477  0.8977  0.7448
  908MOL0     H19848   0.405  10.975   8.774 -0.2490  0.3036  0.5561
  908MOL0     H19849   0.373  10.862   8.893 -2.1563  1.4262 -2.7414
  908MOL0     H19850   0.383  11.162   8.924 -0.3654  0.6911  2.0547
  908MOL0     H19851   0.346  11.035   9.049 -0.8734 -0.2582 -0.5187
  908MOL0     H19852   0.149  10.953   8.902  0.8445 -0.6802 -0.8500
  908MOL0     H19853   0.129  11.102   8.993 -1.8329 -1.5091 -1.3668
  908MOL0     H19854   0.169  11.294   8.625 -3.0419  0.5108 -0.6971
  908MOL0     H19855   0.680  10.879   9.262  0.8943 -0.7734  0.6279
  908MOL0     H19856   0.917  10.857   9.354  1.8885 -3.0007  0.0241
  909MOL0     O19857   5.979   8.921   6.883 -0.2329 -0.9782  0.4004
  909MOL0     C19858   5.945   9.034   6.907  0.2564  0.0828 -0.5814
  909MOL0     O19859   5.989   9.124   7.001 -0.1246  0.5478 -0.1229
  909MOL0     C19860   6.107   9.114   7.065  0.0258  0.4314 -0.9257
  909MOL0     C19861   6.105   9.201   7.183 -0.3004 -0.4969  0.0699
  909MOL0     C19862   6.213   9.190   7.280  0.3186 -0.3251  0.0396
  909MOL0     C19863   6.323   9.105   7.254 -0.8281 -0.4101  0.1841
  909MOL0     O19864   6.433   9.090   7.333  0.0357  0.0149 -0.3711
  909MOL0     C19865   6.495   9.206   7.387 -0.4097 -0.3939  0.5795
  909MOL0     C19866   6.608   9.140   7.470 -0.5000 -0.8598  0.2071
  909MOL0     C19867   6.668   9.252   7.555 -0.5575  0.9389  0.2093
  909MOL0     C19868   6.780   9.190   7.639 -0.4012  0.1586  0.6526
  909MOL0     C19869   6.828   9.295   7.738 -0.0160  0.1291  0.3123
  909MOL0     C19870   6.727   9.313   7.858  0.5008 -0.4905  0.3067
  909MOL0     C19871   6.789   9.399   7.974 -0.6572 -0.0184  0.1700
  909MOL0     C19872   6.905   9.334   8.053 -0.0782  0.9764  1.2141
  909MOL0     N19873   6.880   9.232   8.139  0.3929 -0.8039 -1.0417
  909MOL0     C19874   6.802   9.258   8.259  0.0758  0.9805 -1.2327
  909MOL0     C19875   6.778   9.139   8.317 -0.7163  0.5984 -0.3355
  909MOL0     C19876   6.700   9.106   8.441 -0.2079  0.3649  0.9403
  909MOL0     C19877   6.760   9.162   8.563 -0.8256 -0.0358 -0.4520
  909MOL0     C19878   6.682   9.114   8.684 -0.5081 -0.3848 -0.9750
  909MOL0     C19879   6.537   9.143   8.688  0.2455 -0.5083 -0.3530
  909MOL0     O19880   6.499   9.279   8.702  0.1096  0.4318  0.2692
  909MOL0     C19881   6.373   9.325   8.672 -0.0124 -0.5155  0.3172
  909MOL0     C19882   6.350   9.462   8.689  0.2017 -0.5729  0.8059
  909MOL0     C19883   6.222   9.535   8.665  0.2417  0.7511  0.7230
  909MOL0     C19884   6.114   9.454   8.630 -0.1709 -0.4032  0.3188
  909MOL0     C19885   5.988   9.526   8.601 -0.3695  1.0868  0.0828
  909MOL0     O19886   5.979   9.630   8.514 -0.2145  0.4081  0.4405
  909MOL0     C19887   5.876   9.718   8.544  0.7557 -0.3921  0.7537
  909MOL0     C19888   5.745   9.671   8.518 -0.3643  0.4007  0.8254
  909MOL0     C19889   5.637   9.763   8.507  0.0599  0.2990 -0.0061
  909MOL0     C19890   5.661   9.899   8.536 -0.9058 -0.3610 -0.7016
  909MOL0     O19891   5.570  10.002   8.526  0.4172  0.2147  0.2008
  909MOL0     C19892   5.473   9.972   8.427 -0.0246 -0.4782 -0.0592
  909MOL0     C19893   5.401  10.100   8.363 -0.7365  1.3635  0.2198
  909MOL0     C19894   5.495  10.202   8.301  0.0178  0.4093  0.5486
  909MOL0     C19895   5.401  10.320   8.257  0.5437 -0.9415 -0.3700
  909MOL0     C19896   5.468  10.433   8.185  0.8012  0.3871 -0.3548
  909MOL0     C19897   5.542  10.536   8.279 -0.5414 -0.5222  0.6057
  909MOL0     C19898   5.451  10.607   8.381 -0.5342 -0.2950 -0.6567
  909MOL0     C19899   5.512  10.746   8.412 -0.3556  0.5026 -0.5485
  909MOL0    Cl19900   5.384  10.843   8.491  0.4410  0.3313 -0.1629
  909MOL0     C19901   5.798   9.943   8.569  0.7735 -0.7313  0.4825
  909MOL0     C19902   5.908   9.851   8.571  0.0773 -0.9321  0.4142
  909MOL0     O19903   5.900   9.482   8.672  0.6519 -0.0996  0.4481
  909MOL0     C19904   6.123   9.314   8.647  0.4249 -0.0927  0.1507
  909MOL0     C19905   6.245   9.254   8.656 -0.1823 -0.0744 -0.7347
  909MOL0     N19906   6.826   9.039   8.230  0.4644 -0.8501  0.3373
  909MOL0     N19907   6.881   9.098   8.123  0.2312  0.2891  0.1654
  909MOL0     C19908   6.313   9.028   7.138 -0.3248  0.0024  0.5426
  909MOL0     C19909   6.212   9.029   7.047  0.8044 -0.7060  0.9570
  909MOL0     C19910   5.854   9.093   6.811  0.7074  0.1201 -0.0305
  909MOL0     C19911   5.830   9.032   6.682  0.4793 -0.5511 -0.2496
  909MOL0     C19912   5.743   9.091   6.591 -0.7111  0.2551 -0.8579
  909MOL0     C19913   5.676   9.207   6.619  0.9533 -0.0199  0.7865
  909MOL0     O19914   5.590   9.274   6.533 -0.2830 -1.4074  0.3697
  909MOL0     C19915   5.550   9.204   6.419 -0.6003 -0.1885 -0.3857
  909MOL0     C19916   5.433   9.266   6.341 -0.1312  0.8742  0.3671
  909MOL0     C19917   5.332   9.359   6.412 -1.0749  0.0187 -0.1331
  909MOL0     C19918   5.283   9.459   6.300 -0.3291 -0.0820 -0.6006
  909MOL0     C19919   5.204   9.567   6.363  0.1029  0.4235 -0.0250
  909MOL0     C19920   5.124   9.634   6.411 -0.1423 -1.1019 -0.4212
  909MOL0     C19921   5.697   9.263   6.735 -0.1537  1.0789 -0.2834
  909MOL0     C19922   5.787   9.213   6.836 -0.2120  0.2295  0.2356
  909MOL0     H19923   6.027   9.277   7.189 -0.8422 -0.7133 -2.7801
  909MOL0     H19924   6.224   9.240   7.376  1.5379 -0.2674 -0.1165
  909MOL0     H19925   6.432   9.271   7.448 -0.4489  0.3546 -0.2400
  909MOL0     H19926   6.540   9.272   7.312 -0.5049  3.4782  3.6136
  909MOL0     H19927   6.687   9.097   7.409  0.5025  0.2139  0.7264
  909MOL0     H19928   6.560   9.059   7.527  1.0487 -0.1177  2.6762
  909MOL0     H19929   6.597   9.304   7.620 -1.3184 -3.3349  3.2508
  909MOL0     H19930   6.713   9.327   7.489 -0.0019 -0.4580 -1.0466
  909MOL0     H19931   6.747   9.103   7.698  1.2859 -0.4984  0.6938
  909MOL0     H19932   6.856   9.151   7.571 -0.8660 -0.6545  0.5774
  909MOL0     H19933   6.848   9.386   7.680 -0.4029 -0.0964 -0.1808
  909MOL0     H19934   6.923   9.261   7.782  0.9472  0.4091 -1.4652
  909MOL0     H19935   6.696   9.213   7.890  1.0720 -0.8335 -0.1784
  909MOL0     H19936   6.634   9.364   7.831 -0.3439 -0.4394  3.0012
  909MOL0     H19937   6.832   9.483   7.919 -0.5241  0.5530  1.1217
  909MOL0     H19938   6.704   9.423   8.038 -1.3676  0.0321 -0.7665
  909MOL0     H19939   6.959   9.418   8.097  0.0058  0.5864  1.8652
  909MOL0     H19940   6.972   9.290   7.978 -0.1118  0.4837  1.4685
  909MOL0     H19941   6.773   9.356   8.295  2.0878  0.9980  0.5544
  909MOL0     H19942   6.689   8.998   8.454  0.4054  0.0347 -0.9563
  909MOL0     H19943   6.601   9.147   8.419 -1.7561 -3.2746  0.3647
  909MOL0     H19944   6.745   9.271   8.567 -1.5043 -0.1551  2.6714
  909MOL0     H19945   6.868   9.146   8.565 -0.6160  1.3008  0.2872
  909MOL0     H19946   6.678   9.005   8.690  2.2303 -0.8519 -4.5131
  909MOL0     H19947   6.724   9.153   8.778  1.0432  1.0329 -2.1987
  909MOL0     H19948   6.503   9.086   8.775 -0.9388 -1.7014 -1.5558
  909MOL0     H19949   6.490   9.103   8.598 -0.0008 -1.5161  0.2137
  909MOL0     H19950   6.433   9.530   8.701  1.7545 -1.9473 -1.5252
  909MOL0     H19951   6.202   9.641   8.682 -3.4396  0.4792 -0.9883
  909MOL0     H19952   5.730   9.566   8.493 -4.1740  0.7334  1.1845
  909MOL0     H19953   5.533   9.735   8.490 -0.2276  0.7900  0.9174
  909MOL0     H19954   5.395   9.903   8.462 -1.3126  1.2296  0.6401
  909MOL0     H19955   5.518   9.913   8.348  1.2272  1.4341 -0.8376
  909MOL0     H19956   5.329  10.142   8.434 -2.0223  1.7218 -1.2328
  909MOL0     H19957   5.342  10.055   8.282 -0.6206  0.1721  0.7740
  909MOL0     H19958   5.544  10.159   8.213 -0.6383 -1.9003  1.2338
  909MOL0     H19959   5.563  10.239   8.378 -0.3561  3.6655 -0.5180
  909MOL0     H19960   5.317  10.274   8.204 -3.6518  3.0225  2.0909
  909MOL0     H19961   5.351  10.359   8.346  0.2173 -2.4603  0.1445
  909MOL0     H19962   5.387  10.499   8.150  0.3817  2.2152  3.5952
  909MOL0     H19963   5.527  10.393   8.102 -1.5702  0.6524 -2.2897
  909MOL0     H19964   5.588  10.607   8.209 -1.7156  2.2509  2.4520
  909MOL0     H19965   5.626  10.486   8.327 -0.0171 -1.2010 -0.9566
  909MOL0     H19966   5.360  10.629   8.324 -0.4975  1.9015  0.0579
  909MOL0     H19967   5.436  10.551   8.473 -1.0136 -0.2664 -0.7138
  909MOL0     H19968   5.522  10.803   8.320 -2.9143 -0.0026 -1.1970
  909MOL0     H19969   5.598  10.745   8.480  0.5024 -0.1009 -1.6245
  909MOL0     H19970   5.812  10.050   8.584  1.1496 -0.6472 -0.3830
  909MOL0     H19971   6.009   9.888   8.584  0.0109  0.1373 -1.6919
  909MOL0     H19972   6.043   9.247   8.616  1.9133 -2.3795  1.0414
  909MOL0     H19973   6.239   9.146   8.664 -3.3845  0.1401  1.3515
  909MOL0     H19974   6.396   8.959   7.128 -1.1381 -0.7123 -2.1187
  909MOL0     H19975   6.208   8.963   6.961 -0.3465  1.6510 -0.9325
  909MOL0     H19976   5.874   8.938   6.650  1.3699 -0.2715  0.1530
  909MOL0     H19977   5.713   9.034   6.504 -0.6199  3.6139 -3.2900
  909MOL0     H19978   5.517   9.103   6.446  0.0695 -0.4718 -0.5986
  909MOL0     H19979   5.630   9.185   6.348 -0.4787 -1.2234  0.0014
  909MOL0     H19980   5.482   9.317   6.257  2.3329  1.9176  2.3202
  909MOL0     H19981   5.382   9.186   6.287  0.0684  0.1827  1.1975
  909MOL0     H19982   5.383   9.416   6.490 -0.2256 -0.5146 -0.2880
  909MOL0     H19983   5.249   9.301   6.452 -1.1800 -1.1658 -1.9299
  909MOL0     H19984   5.367   9.494   6.239 -3.3595 -1.2322 -6.1196
  909MOL0     H19985   5.225   9.397   6.231  1.3599  0.7890 -2.9373
  909MOL0     H19986   5.052   9.701   6.452  0.1219 -2.0364  1.7318
  909MOL0     H19987   5.642   9.355   6.753  0.2680  1.0212  1.5292
  909MOL0     H19988   5.793   9.269   6.929  3.1947  0.1232  0.1875
  910MOL0     O19989   0.455   5.375   3.940  0.0844  0.5813  0.1740
  910MOL0     C19990   0.407   5.437   4.039 -0.8347  0.9318 -0.1343
  910MOL0     O19991   0.436   5.560   4.086  0.0644 -0.0108  0.2960
  910MOL0     C19992   0.557   5.609   4.053 -0.1745 -1.1868 -0.5928
  910MOL0     C19993   0.666   5.550   4.118  0.7879  1.0457 -0.3243
  910MOL0     C19994   0.799   5.595   4.085  0.4758  0.0614  0.4203
  910MOL0     C19995   0.822   5.690   3.989  0.3275  0.2840 -0.3900
  910MOL0     O19996   0.946   5.737   3.968 -0.3847 -0.1648 -0.0506
  910MOL0     C19997   0.977   5.812   3.847 -0.4051  0.1154 -0.2595
  910MOL0     C19998   1.125   5.801   3.809 -0.0452  0.0236 -1.1463
  910MOL0     C19999   1.227   5.791   3.928  0.6279 -0.2218  0.3263
  910MOL0     C20000   1.357   5.744   3.860  0.1007 -1.0859  1.3326
  910MOL0     C20001   1.485   5.800   3.920  0.0676  0.3660  0.5626
  910MOL0     C20002   1.531   5.691   4.019  0.5234  0.7813 -0.2651
  910MOL0     C20003   1.640   5.752   4.121 -0.1453  0.1498  0.8021
  910MOL0     C20004   1.675   5.651   4.231 -0.1081  0.8469 -0.2007
  910MOL0     N20005   1.822   5.666   4.242 -0.3246 -0.2954  0.0828
  910MOL0     C20006   1.891   5.770   4.307 -1.1806  0.0665 -0.1783
  910MOL0     C20007   2.014   5.721   4.336  0.2214 -0.5643 -0.0834
  910MOL0     C20008   2.122   5.814   4.398 -0.7522  0.4402 -0.3053
  910MOL0     C20009   2.214   5.734   4.490 -0.4958  0.4469  0.0616
  910MOL0     C20010   2.143   5.727   4.629  0.2890 -0.0378 -0.8554
  910MOL0     C20011   2.172   5.587   4.700 -0.5344 -0.8989 -0.6403
  910MOL0     O20012   2.108   5.600   4.822  0.7179 -0.9233 -0.2122
  910MOL0     C20013   1.984   5.543   4.842 -0.7920  0.4293 -0.5293
  910MOL0     C20014   1.933   5.532   4.972 -0.2543 -0.1959  0.0652
  910MOL0     C20015   1.802   5.496   4.993 -0.4370 -0.3873 -0.0412
  910MOL0     C20016   1.713   5.450   4.888 -0.1258 -0.8018 -0.5443
  910MOL0     C20017   1.572   5.413   4.904 -0.0875  0.6548  0.1733
  910MOL0     O20018   1.521   5.336   4.806  0.1822  0.1390  0.3217
  910MOL0     C20019   1.408   5.259   4.827 -0.4751 -0.4519  0.6438
  910MOL0     C20020   1.356   5.201   4.714  0.6345 -0.2033  0.8506
  910MOL0     C20021   1.233   5.137   4.711 -1.1214  0.5160  0.5517
  910MOL0     C20022   1.155   5.126   4.829 -0.3022 -0.4824 -0.0912
  910MOL0     O20023   1.028   5.073   4.831  0.0277  0.0333  0.3129
  910MOL0     C20024   0.945   5.101   4.944 -0.9094 -0.0473  0.0962
  910MOL0     C20025   0.811   5.041   4.912 -0.3275  0.1434 -1.3463
  910MOL0     C20026   0.710   5.064   5.023 -0.6998  0.5372  0.5154
  910MOL0     C20027   0.591   4.958   5.021 -0.7613  1.0413  0.0992
  910MOL0     C20028   0.502   4.976   5.145  0.2551  0.4581 -0.3663
  910MOL0     C20029   0.339   4.947   5.129  0.6937  0.7332 -0.3699
  910MOL0     C20030   0.250   5.066   5.075 -0.1745 -0.1773  0.3424
  910MOL0     C20031   0.257   5.181   5.175  0.1665 -0.1427 -0.0503
  910MOL0    Cl20032   0.165   5.131   5.322  0.0708 -0.0725 -0.1027
  910MOL0     C20033   1.216   5.170   4.943  0.6167  0.6152 -0.6389
  910MOL0     C20034   1.343   5.227   4.946 -0.1700 -0.2532  0.5284
  910MOL0     O20035   1.516   5.456   5.003 -0.1566  0.1459 -1.2921
  910MOL0     C20036   1.769   5.458   4.759  0.3019  0.0303  0.5809
  910MOL0     C20037   1.901   5.494   4.744 -0.7683 -0.0174 -0.0797
  910MOL0     N20038   2.019   5.594   4.296 -0.3898  0.1006 -0.2373
  910MOL0     N20039   1.905   5.561   4.236 -0.1037 -0.6695  0.0170
  910MOL0     C20040   0.713   5.745   3.922  0.9533  0.9940  0.7086
  910MOL0     C20041   0.578   5.710   3.963  0.2130 -0.6661  0.3437
  910MOL0     C20042   0.285   5.364   4.093  0.3371 -0.0836 -0.4429
  910MOL0     C20043   0.245   5.238   4.043  0.6204  0.5095  0.3164
  910MOL0     C20044   0.150   5.163   4.109  0.4367  0.1454 -0.0152
  910MOL0     C20045   0.074   5.217   4.208 -0.4415  0.3101  0.3042
  910MOL0     O20046  -0.012   5.131   4.273 -0.0572 -0.7436  0.8558
  910MOL0     C20047  -0.071   5.169   4.396 -0.5547  0.2773 -0.4496
  910MOL0     C20048   0.026   5.149   4.509 -0.5836 -0.0337  0.8311
  910MOL0     C20049  -0.040   5.197   4.640  0.0658 -0.2189 -0.1165
  910MOL0     C20050   0.050   5.182   4.765  0.4812  1.4997  0.2555
  910MOL0     C20051  -0.034   5.202   4.881 -0.4633 -0.5910  0.0854
  910MOL0     C20052  -0.080   5.245   4.980 -0.0235  0.9800 -0.4241
  910MOL0     C20053   0.096   5.352   4.253  0.0610  0.5094  0.0992
  910MOL0     C20054   0.201   5.419   4.189  0.5630  0.0578 -0.2857
  910MOL0     H20055   0.653   5.480   4.199  0.8540  0.0744 -1.1265
  910MOL0     H20056   0.889   5.565   4.138  0.5620 -2.2400 -0.8833
  910MOL0     H20057   0.945   5.917   3.849  0.9288  0.6912 -3.3445
  910MOL0     H20058   0.924   5.775   3.759  3.4072 -1.7284 -1.9718
  910MOL0     H20059   1.168   5.877   3.743 -0.1622  2.0906  1.0214
  910MOL0     H20060   1.132   5.706   3.755  5.4522 -1.7607  1.8900
  910MOL0     H20061   1.217   5.724   4.014  3.7605  1.1663  1.9433
  910MOL0     H20062   1.226   5.887   3.982 -0.4427 -0.9339  1.6366
  910MOL0     H20063   1.349   5.636   3.843 -0.6132 -0.8416  0.0017
  910MOL0     H20064   1.364   5.789   3.760  0.1104 -2.3288  0.7576
  910MOL0     H20065   1.457   5.896   3.963  0.8272  1.1743 -0.6917
  910MOL0     H20066   1.551   5.831   3.838  1.3607 -5.0786 -0.8829
  910MOL0     H20067   1.579   5.611   3.962  4.0161  2.2700  0.2679
  910MOL0     H20068   1.442   5.661   4.075  0.7552  1.5966  0.5650
  910MOL0     H20069   1.726   5.777   4.057  2.4611 -1.8350  3.2743
  910MOL0     H20070   1.610   5.848   4.163 -0.9007 -0.7693  2.4588
  910MOL0     H20071   1.636   5.552   4.205  1.0929  0.2510  0.1940
  910MOL0     H20072   1.631   5.690   4.323  0.4848  1.6061 -0.2254
  910MOL0     H20073   1.854   5.866   4.342 -1.1292  0.3034 -0.7548
  910MOL0     H20074   2.083   5.899   4.456  1.4206  0.5056  1.1586
  910MOL0     H20075   2.177   5.851   4.310 -1.1546 -0.1341 -0.8041
  910MOL0     H20076   2.315   5.776   4.498 -0.0353 -0.0001 -2.4940
  910MOL0     H20077   2.230   5.635   4.447 -3.3104 -0.1283  0.1440
  910MOL0     H20078   2.166   5.817   4.688  2.8784 -1.4651  0.4716
  910MOL0     H20079   2.034   5.729   4.620  0.2944  0.6364 -0.8714
  910MOL0     H20080   2.278   5.565   4.712 -1.1111 -2.6129  2.4184
  910MOL0     H20081   2.140   5.501   4.640 -0.0904 -0.0911 -2.0915
  910MOL0     H20082   1.992   5.566   5.056 -1.9554  2.3129  0.3872
  910MOL0     H20083   1.775   5.506   5.098  3.6508  3.0313  0.9231
  910MOL0     H20084   1.405   5.226   4.621 -1.6452  4.1660  0.5501
  910MOL0     H20085   1.196   5.088   4.621 -0.0462  0.1399  0.2916
  910MOL0     H20086   0.938   5.207   4.970 -0.0956  0.1211 -0.3300
  910MOL0     H20087   1.002   5.065   5.030  1.1740  1.0209 -0.7543
  910MOL0     H20088   0.835   4.935   4.904  0.2718  0.2917 -1.5367
  910MOL0     H20089   0.786   5.096   4.821  1.4383  1.2610 -1.2006
  910MOL0     H20090   0.678   5.168   5.010 -3.3620 -0.4316 -1.6172
  910MOL0     H20091   0.755   5.042   5.120 -3.2991 -2.3917  1.2334
  910MOL0     H20092   0.523   4.977   4.938 -2.1100 -1.0416  0.6441
  910MOL0     H20093   0.629   4.856   5.005  0.0393  1.2172  0.7796
  910MOL0     H20094   0.519   5.074   5.192 -1.8390  1.3037 -1.2574
  910MOL0     H20095   0.530   4.907   5.225  0.3347  2.7840  1.7384
  910MOL0     H20096   0.311   4.920   5.231 -0.3956  0.1208 -0.8051
  910MOL0     H20097   0.314   4.856   5.073  2.3667 -0.0253  0.0524
  910MOL0     H20098   0.281   5.101   4.976  2.5349  3.4743  2.2514
  910MOL0     H20099   0.149   5.024   5.063 -0.5835  1.3563 -2.8580
  910MOL0     H20100   0.212   5.271   5.133 -0.5841 -0.3647  0.2539
  910MOL0     H20101   0.360   5.206   5.199  0.5979 -1.9760  0.1925
  910MOL0     H20102   1.161   5.163   5.036  0.2089 -2.6022 -0.9890
  910MOL0     H20103   1.380   5.265   5.041  2.5425  0.9249 -0.8867
  910MOL0     H20104   1.702   5.431   4.678 -0.3220  1.6454  0.5165
  910MOL0     H20105   1.929   5.492   4.639 -2.8837  0.0788 -0.6866
  910MOL0     H20106   0.708   5.821   3.844  4.3267  1.5976  0.9385
  910MOL0     H20107   0.496   5.766   3.918  3.7081  2.7934 -2.4777
  910MOL0     H20108   0.304   5.183   3.970  0.7384 -0.4502  1.1128
  910MOL0     H20109   0.124   5.060   4.084  0.0577  0.6899 -2.0995
  910MOL0     H20110  -0.157   5.102   4.408 -1.6082  1.5183 -0.7267
  910MOL0     H20111  -0.117   5.268   4.380 -0.4445  0.6231  1.1648
  910MOL0     H20112   0.037   5.041   4.510  2.9739  0.1355 -1.6539
  910MOL0     H20113   0.125   5.196   4.505 -0.7431  0.2420  0.0195
  910MOL0     H20114  -0.134   5.142   4.651  0.0656 -0.3972 -0.9293
  910MOL0     H20115  -0.090   5.294   4.631  0.6885  0.3251  1.8600
  910MOL0     H20116   0.078   5.077   4.776 -1.6126  0.6705 -1.5993
  910MOL0     H20117   0.143   5.239   4.758  3.8814 -3.1849  1.7836
  910MOL0     H20118  -0.113   5.283   5.075  1.4439 -1.3336  1.1232
  910MOL0     H20119   0.042   5.389   4.339  1.4776  2.3675  0.2400
  910MOL0     H20120   0.227   5.515   4.231 -1.1279  2.4248 -4.1052
  911MOL0     O20121   4.952  10.766   6.243 -0.4729 -0.1112  0.4890
  911MOL0     C20122   4.887  10.859   6.196  0.3404  0.2863 -0.8305
  911MOL0     O20123   4.780  10.843   6.115 -0.0966  0.9267 -0.2436
  911MOL0     C20124   4.735  10.721   6.093 -0.4964 -0.1724  0.2316
  911MOL0     C20125   4.688  10.640   6.197 -0.8530 -0.2640  0.2748
  911MOL0     C20126   4.631  10.514   6.179 -1.2181  0.0667 -0.0843
  911MOL0     C20127   4.604  10.469   6.049  0.0680  0.6143 -0.3476
  911MOL0     O20128   4.535  10.357   6.017 -0.6289  0.3030 -0.5426
  911MOL0     C20129   4.537  10.243   6.099  0.2746  0.4390  0.2564
  911MOL0     C20130   4.501  10.123   6.017  0.0086  0.2883 -0.2738
  911MOL0     C20131   4.485   9.997   6.110  0.0485  0.1814 -0.2171
  911MOL0     C20132   4.488   9.864   6.033  0.7675 -0.1037 -0.2967
  911MOL0     C20133   4.524   9.747   6.115  0.0011  0.1371  0.0029
  911MOL0     C20134   4.459   9.620   6.063 -0.4124  1.6624 -0.3905
  911MOL0     C20135   4.489   9.518   6.177 -0.2987  0.7547 -0.7076
  911MOL0     C20136   4.368   9.501   6.273 -1.3186  0.5265  0.1603
  911MOL0     N20137   4.262   9.416   6.212 -0.1856 -0.1001  0.1602
  911MOL0     C20138   4.133   9.448   6.175  0.2182  0.1218  0.4871
  911MOL0     C20139   4.072   9.329   6.142 -0.1901 -0.4140  1.1122
  911MOL0     C20140   3.930   9.322   6.092  0.4951 -0.1483  0.0334
  911MOL0     C20141   3.920   9.295   5.939 -0.0907  0.5565  0.2003
  911MOL0     C20142   3.784   9.357   5.886 -0.3220 -1.7289  0.5038
  911MOL0     C20143   3.784   9.373   5.737  0.6890 -0.2852  0.2310
  911MOL0     O20144   3.882   9.465   5.688  0.2572  0.2070  0.1708
  911MOL0     C20145   3.956   9.451   5.570  0.4485 -0.6271 -0.0061
  911MOL0     C20146   3.976   9.324   5.512  0.1918 -0.2594 -0.7284
  911MOL0     C20147   4.052   9.319   5.394  0.2905 -0.8854  0.3284
  911MOL0     C20148   4.103   9.441   5.345 -0.4680 -0.1595  0.5398
  911MOL0     C20149   4.189   9.435   5.225  0.4606 -0.0555  0.6115
  911MOL0     O20150   4.210   9.556   5.160 -0.3975  0.1119 -0.5320
  911MOL0     C20151   4.291   9.585   5.054  0.5929 -0.3017 -0.4884
  911MOL0     C20152   4.280   9.720   4.995  0.2707  0.7765  0.6731
  911MOL0     C20153   4.358   9.755   4.887  0.0627  0.1062  0.4629
  911MOL0     C20154   4.460   9.675   4.839  0.0544 -0.7160  0.3836
  911MOL0     O20155   4.524   9.720   4.723  0.1133  0.4743 -0.0627
  911MOL0     C20156   4.665   9.723   4.725 -1.1052  0.5468 -0.0063
  911MOL0     C20157   4.715   9.801   4.598  0.3932  0.0189  0.3946
  911MOL0     C20158   4.639   9.930   4.572  0.4895  0.1584  0.0758
  911MOL0     C20159   4.627  10.013   4.703  0.1693  0.0214 -0.0178
  911MOL0     C20160   4.551  10.130   4.660  0.0229  0.7858  0.1670
  911MOL0     C20161   4.572  10.251   4.751 -1.4710 -0.4287  0.1729
  911MOL0     C20162   4.685  10.339   4.703 -0.7186 -0.0246  1.0218
  911MOL0     C20163   4.681  10.478   4.746 -0.4068 -0.6027 -0.6113
  911MOL0    Cl20164   4.818  10.571   4.665 -0.1801  0.1851  0.2163
  911MOL0     C20165   4.483   9.558   4.908 -1.2781 -0.1081 -0.6325
  911MOL0     C20166   4.404   9.511   5.017  0.8007  0.0812 -0.7607
  911MOL0     O20167   4.223   9.329   5.177 -0.6550 -0.5477  0.1493
  911MOL0     C20168   4.086   9.565   5.401  0.4656 -0.0993 -0.3864
  911MOL0     C20169   4.018   9.566   5.518  0.4141 -0.3172 -0.6764
  911MOL0     N20170   4.160   9.227   6.152 -0.4266  0.3583 -1.0687
  911MOL0     N20171   4.272   9.280   6.196  0.7111 -0.0731  0.7983
  911MOL0     C20172   4.631  10.562   5.939  0.1088 -0.1641  0.6819
  911MOL0     C20173   4.687  10.687   5.965 -0.5919 -0.1214  0.3281
  911MOL0     C20174   4.930  10.999   6.225 -0.3190  0.5140  0.0210
  911MOL0     C20175   4.873  11.103   6.152  0.3535  0.0599  0.1984
  911MOL0     C20176   4.907  11.233   6.178  0.6581 -0.4322 -2.0357
  911MOL0     C20177   5.010  11.257   6.274  0.2047  0.0108  0.5489
  911MOL0     O20178   5.030  11.391   6.294 -0.3306 -0.1589  0.4877
  911MOL0     C20179   5.158  11.444   6.327 -0.6933 -0.3411 -0.4031
  911MOL0     C20180   5.257  11.458   6.210  0.5304  0.4721 -0.1277
  911MOL0     C20181   5.334  11.338   6.154  0.4746 -0.7834 -0.8010
  911MOL0     C20182   5.446  11.279   6.242  0.0563  0.9414 -0.9294
  911MOL0     C20183   5.556  11.369   6.236  0.7892 -0.3073 -0.3040
  911MOL0     C20184   5.643  11.452   6.243  1.4629  0.3367 -0.1707
  911MOL0     C20185   5.069  11.157   6.345 -0.5115  0.5346 -0.5729
  911MOL0     C20186   5.021  11.026   6.329  0.1625 -0.3930  0.2299
  911MOL0     H20187   4.731  10.663   6.294 -1.9336  0.0598  0.6826
  911MOL0     H20188   4.610  10.445   6.260  0.2555 -0.1506  0.1408
  911MOL0     H20189   4.456  10.249   6.173  0.0160  1.5258 -0.0936
  911MOL0     H20190   4.628  10.218   6.153 -0.0432 -0.6183  0.3302
  911MOL0     H20191   4.574  10.106   5.937  1.0638 -1.3096  0.9682
  911MOL0     H20192   4.409  10.136   5.959 -0.4617  0.1568  0.4416
  911MOL0     H20193   4.391  10.002   6.166  0.2062  0.9166 -0.0073
  911MOL0     H20194   4.567   9.999   6.183 -1.1090  0.1800  1.1356
  911MOL0     H20195   4.392   9.848   5.984 -0.6250 -2.4095  2.8310
  911MOL0     H20196   4.558   9.858   5.949 -0.0949  0.7571 -1.0961
  911MOL0     H20197   4.487   9.767   6.216 -1.1180  3.4876 -0.9198
  911MOL0     H20198   4.632   9.728   6.116 -0.7615 -6.1841  1.2422
  911MOL0     H20199   4.499   9.591   5.965  1.0354  3.5007 -0.4070
  911MOL0     H20200   4.353   9.641   6.049 -0.2139  2.0564 -1.4607
  911MOL0     H20201   4.516   9.419   6.140 -1.7804  0.6455 -1.5931
  911MOL0     H20202   4.579   9.553   6.228 -0.2835  2.0943 -1.5828
  911MOL0     H20203   4.331   9.595   6.315  0.6808 -0.2205  4.1516
  911MOL0     H20204   4.396   9.441   6.360  1.1946  2.7972  1.0505
  911MOL0     H20205   4.088   9.546   6.159  0.5064  0.1869  0.0379
  911MOL0     H20206   3.877   9.413   6.120  1.5970 -0.1774  2.4630
  911MOL0     H20207   3.887   9.236   6.143  1.8958 -2.3307 -2.2127
  911MOL0     H20208   3.914   9.189   5.916 -0.4528  1.3249 -4.0279
  911MOL0     H20209   4.012   9.333   5.893  0.2179  0.5963  0.8340
  911MOL0     H20210   3.706   9.286   5.914  2.3849 -4.9155  0.6867
  911MOL0     H20211   3.760   9.452   5.934  0.6605 -1.3569  0.2995
  911MOL0     H20212   3.685   9.400   5.700 -0.0113 -2.1059  0.6962
  911MOL0     H20213   3.807   9.271   5.705 -3.7399 -1.4346  0.1330
  911MOL0     H20214   3.933   9.231   5.547 -0.4724  0.1238 -0.5099
  911MOL0     H20215   4.072   9.225   5.344  0.3971 -1.5877  1.6520
  911MOL0     H20216   4.204   9.792   5.023 -0.3083  1.1540 -1.6705
  911MOL0     H20217   4.343   9.839   4.821  0.1024 -0.2357  0.0160
  911MOL0     H20218   4.726   9.634   4.740  0.2232  0.7841 -3.0856
  911MOL0     H20219   4.700   9.789   4.805  2.4066 -0.9392 -0.1357
  911MOL0     H20220   4.699   9.732   4.515 -0.6006  2.9754 -2.0394
  911MOL0     H20221   4.820   9.824   4.617  1.1350 -1.5847 -1.5055
  911MOL0     H20222   4.550   9.898   4.517  2.0129 -0.5267 -2.1438
  911MOL0     H20223   4.702   9.980   4.498  0.0269  0.7683  0.0875
  911MOL0     H20224   4.572   9.968   4.786 -0.9876  2.0527  0.3920
  911MOL0     H20225   4.726  10.035   4.744  1.5990 -2.1217 -2.0668
  911MOL0     H20226   4.451  10.087   4.660  1.3027 -3.2610  4.9216
  911MOL0     H20227   4.573  10.159   4.557 -2.2203 -0.6121 -0.7910
  911MOL0     H20228   4.593  10.228   4.855  1.7035 -4.5485 -1.1313
  911MOL0     H20229   4.496  10.325   4.722  2.3322  2.5867 -3.3638
  911MOL0     H20230   4.777  10.294   4.740 -0.5180  2.2572  3.5526
  911MOL0     H20231   4.680  10.346   4.594  0.7360  1.1348  1.0007
  911MOL0     H20232   4.708  10.465   4.852  2.7660 -0.9082 -1.3686
  911MOL0     H20233   4.586  10.532   4.745  1.4913  3.2699  2.3897
  911MOL0     H20234   4.562   9.489   4.880 -0.5674 -0.1514  1.3589
  911MOL0     H20235   4.414   9.412   5.061  2.2063  0.8320  0.7343
  911MOL0     H20236   4.138   9.654   5.368 -0.4920  0.0976 -1.4256
  911MOL0     H20237   4.032   9.661   5.569  1.9628 -1.1532  0.5281
  911MOL0     H20238   4.609  10.550   5.834  0.4815  2.2623  0.2566
  911MOL0     H20239   4.710  10.760   5.888  0.2674  2.8821  3.1529
  911MOL0     H20240   4.807  11.072   6.072  1.8780  2.1868 -2.0280
  911MOL0     H20241   4.844  11.306   6.128 -0.9406  0.2406  0.6923
  911MOL0     H20242   5.210  11.395   6.411 -2.0150  3.8844  3.2637
  911MOL0     H20243   5.133  11.537   6.377 -1.9794 -0.7666 -0.2234
  911MOL0     H20244   5.206  11.497   6.121  1.4039 -0.5233 -1.0903
  911MOL0     H20245   5.332  11.536   6.229  0.9709 -0.2611  1.2463
  911MOL0     H20246   5.381  11.358   6.057 -0.7343 -1.7540 -1.6267
  911MOL0     H20247   5.271  11.252   6.130  1.0123 -1.9982  1.8237
  911MOL0     H20248   5.397  11.255   6.337  3.9985 -0.6074  0.9265
  911MOL0     H20249   5.477  11.181   6.205  0.4248  0.5386  0.4187
  911MOL0     H20250   5.721  11.525   6.250  1.2548  0.4488  1.1981
  911MOL0     H20251   5.131  11.193   6.427  0.3679 -2.1223  0.0163
  911MOL0     H20252   5.047  10.944   6.395 -1.4681 -0.3423  0.9888
  912MOL0     O20253   4.251   2.750   8.408  0.0191 -0.3578  0.3275
  912MOL0     C20254   4.243   2.857   8.348  0.6316 -0.0560  0.6212
  912MOL0     O20255   4.244   2.989   8.402  0.0961  0.0353  0.1054
  912MOL0     C20256   4.319   3.009   8.517  0.3262  0.0512  0.2315
  912MOL0     C20257   4.442   2.943   8.547 -0.0713  0.5791  0.9382
  912MOL0     C20258   4.520   2.982   8.654 -1.2455  0.3934 -0.3766
  912MOL0     C20259   4.472   3.093   8.735 -0.1363  1.7481 -0.3507
  912MOL0     O20260   4.529   3.133   8.853  0.3368 -0.0606 -0.5338
  912MOL0     C20261   4.642   3.070   8.904 -0.4450  0.1111  0.2031
  912MOL0     C20262   4.669   3.126   9.049  0.5759 -0.0145  0.5764
  912MOL0     C20263   4.722   3.020   9.131 -0.0648 -0.6825  0.5489
  912MOL0     C20264   4.855   2.973   9.065  1.2131  0.0059  0.5289
  912MOL0     C20265   4.936   2.890   9.156 -0.0260  0.0742  0.1143
  912MOL0     C20266   5.019   2.981   9.248 -0.1476  0.5046 -0.7014
  912MOL0     C20267   5.146   3.039   9.186  0.1488  0.8943  0.9019
  912MOL0     C20268   5.186   3.174   9.262  0.0148 -0.3537 -0.1861
  912MOL0     N20269   5.204   3.131   9.401 -0.2927  1.1546  0.2350
  912MOL0     C20270   5.330   3.104   9.464 -0.0084 -0.1587 -0.4351
  912MOL0     C20271   5.304   3.082   9.593 -0.2389  0.6677 -0.0023
  912MOL0     C20272   5.395   3.028   9.704 -1.3121 -0.0196 -0.0303
  912MOL0     C20273   5.351   2.902   9.779 -0.4786  0.4541 -0.2370
  912MOL0     C20274   5.224   2.898   9.877 -0.2218 -0.3066  0.0613
  912MOL0     C20275   5.243   2.788   9.962 -0.0970  0.3274 -0.1926
  912MOL0     O20276   5.240   2.667   9.890  0.0012  0.6497 -0.1079
  912MOL0     C20277   5.242   2.549   9.955  0.2355 -0.1075 -0.6917
  912MOL0     C20278   5.244   2.533  10.096 -0.7551 -0.3374  0.4809
  912MOL0     C20279   5.224   2.408  10.153  0.5928  0.1156 -0.0432
  912MOL0     C20280   5.188   2.293  10.082 -0.6693  0.2883  1.1545
  912MOL0     C20281   5.136   2.170  10.152 -0.7117 -0.1486 -0.3067
  912MOL0     O20282   5.164   2.060  10.083  0.0937 -0.3227  1.1813
  912MOL0     C20283   5.123   1.943  10.138  1.0009  0.3757  1.3569
  912MOL0     C20284   4.997   1.917  10.173  0.5045 -0.3303 -0.1689
  912MOL0     C20285   4.959   1.785  10.223  0.2257 -0.7879  0.3116
  912MOL0     C20286   5.047   1.686  10.235 -0.1774 -1.6228 -0.3615
  912MOL0     O20287   5.002   1.568  10.282 -0.3895  0.0543  0.5849
  912MOL0     C20288   5.062   1.443  10.253  0.0740  0.7958  0.0738
  912MOL0     C20289   5.152   1.403  10.373 -0.7251 -0.0085 -0.5184
  912MOL0     C20290   5.198   1.253  10.374 -1.5582 -0.1337  1.1256
  912MOL0     C20291   5.301   1.227  10.480 -0.2070 -0.6882  0.4407
  912MOL0     C20292   5.449   1.219  10.426  0.2789  0.8268 -0.6167
  912MOL0     C20293   5.567   1.188  10.527  0.3789  1.1997  0.8391
  912MOL0     C20294   5.692   1.154  10.441 -1.1155  0.6039 -0.4385
  912MOL0     C20295   5.812   1.135  10.531  0.3760 -0.5483 -0.2318
  912MOL0    Cl20296   5.945   1.036  10.486  0.4072 -0.2235 -0.0877
  912MOL0     C20297   5.179   1.712  10.196 -0.4315  0.4459  0.2117
  912MOL0     C20298   5.219   1.839  10.145 -0.2363  0.0249 -1.1728
  912MOL0     O20299   5.078   2.172  10.261  0.8533  0.3983 -0.1784
  912MOL0     C20300   5.202   2.311   9.939 -0.3920  0.2817  0.3996
  912MOL0     C20301   5.223   2.431   9.878  0.6095 -0.7988  0.2794
  912MOL0     N20302   5.172   3.117   9.610  0.1104  0.7670 -0.4130
  912MOL0     N20303   5.116   3.153   9.500  0.3445 -0.1197  0.1283
  912MOL0     C20304   4.341   3.146   8.711 -0.0164  0.2660 -0.4906
  912MOL0     C20305   4.271   3.102   8.601 -0.9109 -0.6714  0.1671
  912MOL0     C20306   4.174   2.844   8.221 -0.4518 -0.5287 -0.0556
  912MOL0     C20307   4.183   2.951   8.131 -0.2461  0.2235  0.1258
  912MOL0     C20308   4.135   2.934   8.001 -0.0867  0.6407  0.8924
  912MOL0     C20309   4.079   2.817   7.957  0.3417  0.9052  0.7165
  912MOL0     O20310   4.029   2.799   7.828  0.6229 -0.6721 -0.0248
  912MOL0     C20311   4.113   2.740   7.733 -0.0521  0.0184 -1.1143
  912MOL0     C20312   4.049   2.598   7.695 -1.1740 -0.7884 -0.3162
  912MOL0     C20313   4.146   2.511   7.635 -0.2401 -0.2726  0.3137
  912MOL0     C20314   4.087   2.384   7.571 -1.0209 -1.0353 -0.2481
  912MOL0     C20315   4.078   2.291   7.687 -0.6726 -0.0934  1.4721
  912MOL0     C20316   4.074   2.221   7.779 -0.1384 -0.1567  0.2089
  912MOL0     C20317   4.084   2.707   8.037 -0.6013  0.0038 -0.2860
  912MOL0     C20318   4.132   2.717   8.165  0.1561 -0.4401 -0.3888
  912MOL0     H20319   4.487   2.869   8.481 -3.1529 -0.4535 -0.1738
  912MOL0     H20320   4.617   2.939   8.677 -0.7711  1.8398  0.4656
  912MOL0     H20321   4.727   3.062   8.836 -1.5046 -0.5580 -1.0916
  912MOL0     H20322   4.616   2.964   8.914  0.7085 -0.3366 -1.2668
  912MOL0     H20323   4.577   3.171   9.089  1.7077  1.6905  1.3733
  912MOL0     H20324   4.720   3.222   9.048  0.0177  0.4171 -3.2940
  912MOL0     H20325   4.642   2.947   9.141 -1.6393  1.1632  2.2046
  912MOL0     H20326   4.738   3.073   9.225 -0.7666  3.0367 -1.2401
  912MOL0     H20327   4.842   2.920   8.970 -0.6478 -0.6650  1.1096
  912MOL0     H20328   4.914   3.061   9.036  1.9231 -0.6684 -0.1108
  912MOL0     H20329   5.007   2.834   9.095 -0.5102  0.2579 -0.6218
  912MOL0     H20330   4.876   2.832   9.227  0.7830  0.4417  1.1312
  912MOL0     H20331   5.033   2.923   9.339 -2.1873  1.7899  0.5081
  912MOL0     H20332   4.952   3.060   9.285  0.4844  0.9842 -0.5636
  912MOL0     H20333   5.223   2.963   9.200  1.7237  1.6935 -2.4312
  912MOL0     H20334   5.132   3.054   9.079 -1.9641 -2.5066  0.5739
  912MOL0     H20335   5.127   3.264   9.243  0.5108  0.5650  2.1472
  912MOL0     H20336   5.287   3.203   9.231  1.1125 -0.8968  2.5273
  912MOL0     H20337   5.423   3.098   9.410  0.0606 -1.3012 -0.2081
  912MOL0     H20338   5.429   3.104   9.775  1.1892  1.1366 -2.2865
  912MOL0     H20339   5.481   2.991   9.646 -0.2124 -0.3172  1.7022
  912MOL0     H20340   5.439   2.859   9.829 -1.1851 -0.0062  0.6539
  912MOL0     H20341   5.325   2.831   9.700  0.5908  2.1108 -2.1687
  912MOL0     H20342   5.220   2.993   9.931 -2.0183  1.3055 -2.6375
  912MOL0     H20343   5.133   2.894   9.817 -0.5307  0.1903  0.4869
  912MOL0     H20344   5.158   2.798  10.031  0.4548  0.0861  0.5368
  912MOL0     H20345   5.334   2.794  10.023 -0.5490  1.8749  0.3788
  912MOL0     H20346   5.258   2.623  10.156  1.7755 -2.4894  3.4653
  912MOL0     H20347   5.195   2.402  10.258 -0.1324  1.0266 -0.1839
  912MOL0     H20348   4.913   1.979  10.146 -0.0061 -0.8981  0.0853
  912MOL0     H20349   4.855   1.783  10.252 -0.4935  2.7344 -1.5044
  912MOL0     H20350   5.126   1.444  10.164 -2.4874  0.6510 -1.8752
  912MOL0     H20351   4.984   1.367  10.236 -0.1915  0.8585  0.9575
  912MOL0     H20352   5.095   1.402  10.466 -1.8540  0.3097 -1.1887
  912MOL0     H20353   5.234   1.474  10.383 -0.5048 -0.0019 -2.1837
  912MOL0     H20354   5.240   1.239  10.274 -3.3628 -0.3516  0.3486
  912MOL0     H20355   5.107   1.191  10.380 -0.8974 -1.4749 -1.1024
  912MOL0     H20356   5.297   1.308  10.553 -1.6388 -0.7789  0.4881
  912MOL0     H20357   5.273   1.137  10.535 -0.2578 -0.2783  1.0847
  912MOL0     H20358   5.476   1.314  10.379  1.5750  1.4177  1.2271
  912MOL0     H20359   5.446   1.139  10.351 -2.6068 -2.3251  2.4814
  912MOL0     H20360   5.539   1.110  10.599 -0.1374  0.9425  0.3669
  912MOL0     H20361   5.566   1.280  10.586 -0.8131  2.0892 -0.5109
  912MOL0     H20362   5.664   1.064  10.385 -3.8274  1.7131 -1.0156
  912MOL0     H20363   5.721   1.234  10.374 -2.5761 -1.4146 -3.7491
  912MOL0     H20364   5.765   1.108  10.626  0.2437  2.0153  0.4900
  912MOL0     H20365   5.854   1.235  10.543 -0.5271 -0.4373  3.0678
  912MOL0     H20366   5.254   1.634  10.200  0.3072  1.1189 -0.1737
  912MOL0     H20367   5.320   1.866  10.114  0.5201  0.9292  1.7187
  912MOL0     H20368   5.184   2.224   9.876 -0.3609  1.1070 -0.7807
  912MOL0     H20369   5.231   2.451   9.771 -4.9342  4.1934  0.2806
  912MOL0     H20370   4.298   3.225   8.771  1.9241  0.9657  0.0451
  912MOL0     H20371   4.169   3.139   8.593 -0.5643  0.2577 -0.0789
  912MOL0     H20372   4.237   3.043   8.153  0.3998 -0.1303  0.0139
  912MOL0     H20373   4.142   3.017   7.932 -0.8440 -0.4333 -0.5357
  912MOL0     H20374   4.210   2.723   7.781 -0.5275  0.6226  0.1184
  912MOL0     H20375   4.123   2.805   7.646 -1.8847  3.5185  1.0486
  912MOL0     H20376   4.018   2.539   7.782 -1.7197 -1.2324 -0.8015
  912MOL0     H20377   3.958   2.628   7.642 -1.7751 -0.9310  0.6034
  912MOL0     H20378   4.219   2.479   7.710 -1.9934 -2.3882  1.2274
  912MOL0     H20379   4.213   2.562   7.565  1.2749  0.7325  2.4018
  912MOL0     H20380   3.990   2.399   7.524 -1.6281 -1.1955  0.9083
  912MOL0     H20381   4.152   2.337   7.497 -1.8443 -0.8760 -1.0870
  912MOL0     H20382   4.057   2.149   7.857  1.3611  0.6578  1.3355
  912MOL0     H20383   4.052   2.612   7.995  0.4653  0.3234 -1.9365
  912MOL0     H20384   4.137   2.630   8.230 -1.2624 -2.5091 -2.8648
  913MOL0     O20385   6.541   5.094   1.037  1.3957  0.1603 -0.2463
  913MOL0     C20386   6.536   5.069   0.919  1.4391  0.3556 -0.0338
  913MOL0     O20387   6.535   5.159   0.822 -0.5721 -0.0485 -0.2433
  913MOL0     C20388   6.575   5.288   0.850 -0.4543  0.5850  0.2400
  913MOL0     C20389   6.697   5.309   0.922 -1.1392  0.0080  0.3954
  913MOL0     C20390   6.747   5.442   0.947  0.7543  0.1705 -0.6251
  913MOL0     C20391   6.656   5.543   0.905 -0.2323  0.3764  0.3216
  913MOL0     O20392   6.668   5.674   0.945  0.3741 -0.1040  0.5660
  913MOL0     C20393   6.745   5.765   0.866  0.6299 -0.4619 -0.4381
  913MOL0     C20394   6.768   5.892   0.951 -0.2243 -0.9422  0.1146
  913MOL0     C20395   6.851   5.867   1.082 -0.3152 -0.5538  0.1047
  913MOL0     C20396   6.870   5.992   1.158 -1.0594 -0.4050 -0.4208
  913MOL0     C20397   6.984   5.981   1.270  0.2160 -0.3558 -0.2347
  913MOL0     C20398   6.958   5.875   1.379  0.5252  0.3796  0.4751
  913MOL0     C20399   7.082   5.871   1.472 -0.6822 -0.1458 -0.2569
  913MOL0     C20400   7.117   5.737   1.539  0.0342  0.6312  0.2232
  913MOL0     N20401   7.011   5.694   1.622  1.4441 -0.0530  0.3896
  913MOL0     C20402   7.005   5.568   1.671  0.7720  0.6036 -0.8686
  913MOL0     C20403   6.879   5.560   1.734 -0.8417  0.1155 -0.8018
  913MOL0     C20404   6.822   5.447   1.815  0.8386  0.3787 -0.3296
  913MOL0     C20405   6.857   5.305   1.765  0.3500  0.3023 -0.5213
  913MOL0     C20406   6.805   5.189   1.850  0.1303  0.8539  0.7098
  913MOL0     C20407   6.840   5.059   1.768 -0.6744  0.2568 -0.7126
  913MOL0     O20408   6.738   5.053   1.654  0.0856 -0.3415  0.2398
  913MOL0     C20409   6.683   4.941   1.601  0.4537  0.8345 -0.3316
  913MOL0     C20410   6.741   4.809   1.623 -0.0797  0.0180 -0.5124
  913MOL0     C20411   6.705   4.696   1.549  0.0620  0.2089  0.0966
  913MOL0     C20412   6.620   4.714   1.439  0.0863  0.8036 -0.3400
  913MOL0     C20413   6.573   4.608   1.348  0.0572  0.2049  0.6135
  913MOL0     O20414   6.634   4.478   1.368 -0.2895 -0.1396 -0.2134
  913MOL0     C20415   6.618   4.367   1.279 -0.4053 -0.1838  0.0056
  913MOL0     C20416   6.630   4.235   1.318 -0.3903 -0.4222 -0.2999
  913MOL0     C20417   6.598   4.130   1.226  1.6555 -0.4158 -0.3276
  913MOL0     C20418   6.578   4.153   1.088 -0.1694  0.6643 -0.1474
  913MOL0     O20419   6.529   4.056   1.000  0.4491 -0.3180  0.5191
  913MOL0     C20420   6.498   3.924   1.035 -0.0492 -1.1882  0.5450
  913MOL0     C20421   6.398   3.867   0.932  1.0394 -0.1824 -0.2814
  913MOL0     C20422   6.258   3.912   0.986 -0.2732 -0.4665  0.6326
  913MOL0     C20423   6.148   3.819   0.937 -0.1105 -0.9170  0.2876
  913MOL0     C20424   6.011   3.867   0.981  0.2628 -0.6019 -0.6571
  913MOL0     C20425   5.919   3.783   0.908  0.5649 -0.4904  0.1110
  913MOL0     C20426   5.768   3.808   0.933 -0.6745 -0.3509 -0.5986
  913MOL0     C20427   5.690   3.716   1.016 -1.1750 -0.1725  0.2400
  913MOL0    Cl20428   5.526   3.787   1.040 -0.1676 -0.5754  0.3610
  913MOL0     C20429   6.597   4.287   1.049 -0.3156  0.1295 -0.2858
  913MOL0     C20430   6.615   4.393   1.138  0.4706  0.4750 -0.8141
  913MOL0     O20431   6.501   4.633   1.246  0.1545  0.0575  0.1179
  913MOL0     C20432   6.566   4.843   1.419  0.0594  0.5876 -0.7855
  913MOL0     C20433   6.593   4.954   1.504  0.4463  0.8780 -0.8018
  913MOL0     N20434   6.818   5.683   1.735 -0.6958  0.0838 -0.1266
  913MOL0     N20435   6.896   5.762   1.668  0.2170 -0.3239 -0.0469
  913MOL0     C20436   6.535   5.519   0.843  0.4155  0.8631 -0.3655
  913MOL0     C20437   6.500   5.390   0.801 -0.3516 -0.4945  0.4781
  913MOL0     C20438   6.522   4.922   0.883 -0.7321 -0.0030  0.0324
  913MOL0     C20439   6.548   4.888   0.748 -0.1155  1.0419 -0.6763
  913MOL0     C20440   6.514   4.761   0.706 -0.2665 -0.1626  0.5575
  913MOL0     C20441   6.459   4.657   0.788  0.8363  0.1908  0.1893
  913MOL0     O20442   6.428   4.524   0.753  0.0168  0.0811 -0.4888
  913MOL0     C20443   6.419   4.496   0.619 -0.2399  1.0943  0.6575
  913MOL0     C20444   6.371   4.347   0.596 -0.2771  0.2471  0.5874
  913MOL0     C20445   6.221   4.320   0.638 -0.5153  0.9031 -0.8272
  913MOL0     C20446   6.176   4.173   0.621  0.1764  0.4163  0.6084
  913MOL0     C20447   6.208   4.111   0.485  0.6620  0.5899 -0.1886
  913MOL0     C20448   6.237   4.071   0.376 -0.1567  0.2315 -0.4831
  913MOL0     C20449   6.450   4.688   0.924 -0.1337 -0.5381  1.1079
  913MOL0     C20450   6.491   4.815   0.974  0.6257  0.3691  0.0324
  913MOL0     H20451   6.769   5.233   0.950  0.1376  1.0733  0.0536
  913MOL0     H20452   6.842   5.472   0.990  2.4397 -3.7403 -1.1945
  913MOL0     H20453   6.698   5.790   0.770  1.2400 -1.8658 -1.1167
  913MOL0     H20454   6.845   5.724   0.854  1.5328  0.8656  1.8975
  913MOL0     H20455   6.671   5.937   0.974 -1.2456 -1.6310 -2.5370
  913MOL0     H20456   6.819   5.975   0.901 -1.5925  0.6498  1.2359
  913MOL0     H20457   6.946   5.823   1.051  0.9001 -0.2376  3.0232
  913MOL0     H20458   6.792   5.807   1.153 -0.3891 -0.0135  0.5031
  913MOL0     H20459   6.899   6.076   1.095  2.3197  0.0863  1.5370
  913MOL0     H20460   6.778   6.014   1.214 -0.5637 -0.6843  0.5199
  913MOL0     H20461   6.993   6.081   1.314 -1.2412  0.3401 -1.4149
  913MOL0     H20462   7.079   5.966   1.219 -0.2092 -1.2246 -0.7889
  913MOL0     H20463   6.931   5.776   1.341 -1.2355  0.0088  2.4834
  913MOL0     H20464   6.867   5.901   1.435 -0.2520  0.7585 -0.9108
  913MOL0     H20465   7.169   5.894   1.411 -1.4243 -1.3453 -1.8318
  913MOL0     H20466   7.072   5.942   1.555  1.1018  0.2949 -0.3921
  913MOL0     H20467   7.206   5.752   1.600 -0.1244 -0.1311  0.6503
  913MOL0     H20468   7.147   5.668   1.459  1.5191  0.8200  0.5893
  913MOL0     H20469   7.083   5.491   1.671  1.9735  1.7103  1.6388
  913MOL0     H20470   6.713   5.452   1.821  0.6273 -1.9501 -1.0573
  913MOL0     H20471   6.867   5.463   1.913 -1.1622  0.8598  0.5560
  913MOL0     H20472   6.963   5.292   1.742  0.0450  2.6097 -3.9359
  913MOL0     H20473   6.806   5.296   1.669  2.8009 -2.0204 -1.7166
  913MOL0     H20474   6.848   5.183   1.950 -1.7779 -0.5115  1.5026
  913MOL0     H20475   6.698   5.199   1.870  0.4191 -1.1703  3.9605
  913MOL0     H20476   6.826   4.966   1.824 -1.3477 -0.9808 -2.8440
  913MOL0     H20477   6.944   5.065   1.733  0.6175  1.1284  2.8377
  913MOL0     H20478   6.826   4.791   1.688  2.5589 -1.7957 -4.1356
  913MOL0     H20479   6.751   4.601   1.574  1.3606  0.4716 -1.1613
  913MOL0     H20480   6.639   4.212   1.424  1.5514  0.4202 -0.2299
  913MOL0     H20481   6.576   4.031   1.262 -0.9180  0.8418  1.9204
  913MOL0     H20482   6.470   3.913   1.140  0.2853  2.9678  1.2142
  913MOL0     H20483   6.595   3.875   1.025 -0.0098 -2.0364  4.0002
  913MOL0     H20484   6.395   3.758   0.937  0.3313 -0.1157  3.4185
  913MOL0     H20485   6.407   3.900   0.828 -2.1667  0.6487 -0.3729
  913MOL0     H20486   6.245   4.018   0.963  1.4025  0.5644  3.8921
  913MOL0     H20487   6.250   3.891   1.093  1.6823  1.7873  1.3068
  913MOL0     H20488   6.150   3.795   0.830 -0.4532 -4.2043  0.9166
  913MOL0     H20489   6.163   3.723   0.986  1.6985 -1.7863 -1.7827
  913MOL0     H20490   6.004   3.967   0.939 -2.8470 -1.5054 -2.6185
  913MOL0     H20491   6.002   3.868   1.090  0.5927 -2.4688 -0.5740
  913MOL0     H20492   5.942   3.681   0.939  1.3673 -0.3074  0.1361
  913MOL0     H20493   5.939   3.771   0.802 -1.3447 -0.6765 -0.2649
  913MOL0     H20494   5.741   3.908   0.967 -0.9667 -1.4292  2.7549
  913MOL0     H20495   5.733   3.794   0.830 -0.0128  1.8108 -1.1826
  913MOL0     H20496   5.750   3.704   1.106 -1.7187 -1.2361  0.4742
  913MOL0     H20497   5.695   3.616   0.974  4.0645  0.1747 -0.5356
  913MOL0     H20498   6.607   4.304   0.942 -0.6657 -3.3541 -1.0054
  913MOL0     H20499   6.630   4.495   1.106  1.3787  1.2185  1.7615
  913MOL0     H20500   6.506   4.853   1.329  1.4991  0.7095 -1.7651
  913MOL0     H20501   6.545   5.047   1.478  0.6145  0.3040 -3.3858
  913MOL0     H20502   6.468   5.602   0.820 -1.0289 -0.7562 -2.3659
  913MOL0     H20503   6.410   5.367   0.745 -2.2957  1.9154  2.4348
  913MOL0     H20504   6.598   4.959   0.683  1.1870 -0.7113 -1.6925
  913MOL0     H20505   6.545   4.742   0.604  1.0951 -0.5169  1.0179
  913MOL0     H20506   6.515   4.511   0.570  0.6138  0.1227  1.9787
  913MOL0     H20507   6.338   4.556   0.575 -0.1745  0.7360  0.0400
  913MOL0     H20508   6.374   4.326   0.489 -3.3917  2.8417 -0.1600
  913MOL0     H20509   6.437   4.277   0.648 -1.8362 -0.4812  1.6618
  913MOL0     H20510   6.153   4.384   0.581 -0.1464 -0.5891 -3.0551
  913MOL0     H20511   6.216   4.329   0.747  2.9116 -0.3866 -0.4468
  913MOL0     H20512   6.214   4.118   0.708  1.4843  2.8455  1.6732
  913MOL0     H20513   6.067   4.166   0.628 -0.0148  2.6888  0.4465
  913MOL0     H20514   6.258   4.029   0.280 -0.4493 -1.8797  0.3245
  913MOL0     H20515   6.420   4.610   0.994 -0.6526 -0.5730  0.8568
  913MOL0     H20516   6.490   4.830   1.082 -0.7413  1.0900 -0.0616
  914MOL0     O20517   2.450   1.159   8.572 -0.7871  0.1863 -0.0513
  914MOL0     C20518   2.373   1.216   8.649  0.5056  0.9209  0.1494
  914MOL0     O20519   2.313   1.159   8.763 -0.1933  0.0093 -0.1798
  914MOL0     C20520   2.359   1.040   8.815  0.0907 -0.3120 -0.3634
  914MOL0     C20521   2.262   0.949   8.871 -0.7751 -1.2489  0.2599
  914MOL0     C20522   2.296   0.826   8.913  0.6443 -0.2555  0.0993
  914MOL0     C20523   2.429   0.786   8.920  0.0922 -0.5015 -0.0276
  914MOL0     O20524   2.467   0.667   8.967  0.3062 -0.5206  0.4639
  914MOL0     C20525   2.380   0.552   8.961 -0.4357 -1.2309  0.1398
  914MOL0     C20526   2.472   0.435   8.932 -0.7127  0.6866  0.2549
  914MOL0     C20527   2.538   0.442   8.788 -1.0605  0.8959 -0.4343
  914MOL0     C20528   2.660   0.338   8.766  0.0673 -0.2370 -0.6972
  914MOL0     C20529   2.714   0.360   8.623  0.3187  0.4856  0.1908
  914MOL0     C20530   2.796   0.242   8.577 -0.8624  0.4404 -0.9773
  914MOL0     C20531   2.926   0.271   8.506  0.3727 -1.0444 -0.0299
  914MOL0     C20532   2.919   0.371   8.386 -1.4233  0.4574  0.2265
  914MOL0     N20533   2.850   0.328   8.266  0.8370  0.0858 -0.1237
  914MOL0     C20534   2.892   0.232   8.185  0.7683  0.2601  0.5438
  914MOL0     C20535   2.800   0.207   8.088 -0.9125 -0.4840 -0.3416
  914MOL0     C20536   2.801   0.119   7.968  0.0811  1.2895  0.1702
  914MOL0     C20537   2.891  -0.002   7.981 -0.1965 -0.4205 -0.3719
  914MOL0     C20538   2.881  -0.098   7.850  0.5382  0.2248 -0.6766
  914MOL0     C20539   2.987  -0.061   7.749  0.3928  0.4912 -1.0408
  914MOL0     O20540   3.116  -0.085   7.797  0.0592 -0.2230 -0.2475
  914MOL0     C20541   3.172  -0.211   7.774 -1.1946 -0.5782  0.5267
  914MOL0     C20542   3.109  -0.327   7.728 -0.3137  0.4144 -0.3648
  914MOL0     C20543   3.181  -0.439   7.709 -0.2126  0.1474  0.5480
  914MOL0     C20544   3.321  -0.451   7.728  0.1941 -1.1604  0.5476
  914MOL0     C20545   3.391  -0.581   7.712  0.5013 -0.7106 -0.1594
  914MOL0     O20546   3.325  -0.704   7.726 -0.1067  0.0906  0.0849
  914MOL0     C20547   3.392  -0.831   7.737  0.4904  0.2196 -0.2257
  914MOL0     C20548   3.326  -0.948   7.698  0.5239 -0.2729 -0.2930
  914MOL0     C20549   3.383  -1.072   7.706  1.1905  0.2063  0.5120
  914MOL0     C20550   3.516  -1.089   7.743 -0.3849  0.6183 -0.1187
  914MOL0     O20551   3.566  -1.217   7.740  0.2722  0.1714  0.0087
  914MOL0     C20552   3.710  -1.250   7.715  0.2878 -0.0844 -0.3122
  914MOL0     C20553   3.734  -1.384   7.775 -0.3630  0.4095 -0.0882
  914MOL0     C20554   3.841  -1.467   7.716 -0.5488 -0.6724 -0.4142
  914MOL0     C20555   3.861  -1.585   7.805  0.0376 -0.4284  0.2047
  914MOL0     C20556   3.995  -1.656   7.764 -0.7218  0.0941  0.2888
  914MOL0     C20557   4.069  -1.731   7.871  0.4704 -0.3137  0.6341
  914MOL0     C20558   3.989  -1.826   7.963  0.4547 -0.5900 -0.0336
  914MOL0     C20559   3.892  -1.925   7.898  0.0381 -0.3918  0.5666
  914MOL0    Cl20560   3.865  -2.056   8.021  0.2072  0.0507 -0.3489
  914MOL0     C20561   3.586  -0.976   7.786  0.6599 -0.2584 -0.4859
  914MOL0     C20562   3.525  -0.847   7.793  0.4474  0.1733  0.2053
  914MOL0     O20563   3.515  -0.576   7.688  1.0086  0.0381 -0.5014
  914MOL0     C20564   3.384  -0.332   7.763 -0.2392 -0.3072  0.2269
  914MOL0     C20565   3.309  -0.214   7.797  0.4020  0.4899  1.3614
  914MOL0     N20566   2.703   0.306   8.110  1.0215  0.3768  1.0629
  914MOL0     N20567   2.734   0.386   8.205 -0.5292 -0.0955  0.3489
  914MOL0     C20568   2.520   0.869   8.857 -0.0438  1.0876  1.6481
  914MOL0     C20569   2.490   0.997   8.812  0.0981 -0.5773 -0.0529
  914MOL0     C20570   2.336   1.366   8.612  0.2146  0.0096  0.3764
  914MOL0     C20571   2.370   1.420   8.490  0.3089 -0.6037  0.8768
  914MOL0     C20572   2.357   1.555   8.471 -0.1420 -0.7679 -0.9606
  914MOL0     C20573   2.303   1.646   8.576 -0.4735 -0.0750 -0.6801
  914MOL0     O20574   2.300   1.782   8.552  0.0421 -0.1509 -0.2746
  914MOL0     C20575   2.254   1.866   8.661  0.2933 -0.0129  1.1599
  914MOL0     C20576   2.250   2.006   8.611  0.0934  0.0888 -0.1833
  914MOL0     C20577   2.184   2.108   8.708 -0.0228  1.3709 -0.0126
  914MOL0     C20578   2.032   2.079   8.719  0.7295 -0.3810 -0.4202
  914MOL0     C20579   1.967   2.152   8.602 -0.4716 -0.7238  0.0427
  914MOL0     C20580   1.939   2.221   8.508 -0.3218 -0.2923  0.5079
  914MOL0     C20581   2.264   1.592   8.699 -0.1086  0.2642 -1.4581
  914MOL0     C20582   2.282   1.452   8.716 -0.8790  0.1806 -0.1410
  914MOL0     H20583   2.157   0.979   8.871 -1.1167 -2.2833 -1.5212
  914MOL0     H20584   2.220   0.765   8.959  0.4179  0.4154  0.6335
  914MOL0     H20585   2.303   0.551   8.884 -0.8730 -0.1413  0.5311
  914MOL0     H20586   2.336   0.542   9.061 -0.3953  1.9970  0.6135
  914MOL0     H20587   2.417   0.341   8.922  0.5769  0.1533 -3.6449
  914MOL0     H20588   2.550   0.428   9.009 -3.3297  0.6468  3.0886
  914MOL0     H20589   2.584   0.541   8.794  0.0984  0.2938  3.2986
  914MOL0     H20590   2.467   0.430   8.706 -1.8748  0.7028  0.2768
  914MOL0     H20591   2.747   0.348   8.832 -0.4771  1.0955 -0.1321
  914MOL0     H20592   2.627   0.234   8.772  2.9119 -1.3812 -2.5939
  914MOL0     H20593   2.794   0.434   8.637  1.4304 -0.6531  0.0415
  914MOL0     H20594   2.642   0.394   8.548  1.9274  2.4667 -0.5609
  914MOL0     H20595   2.738   0.174   8.514 -0.0893 -0.8252 -0.3701
  914MOL0     H20596   2.818   0.183   8.667 -2.2131  1.8423  0.3157
  914MOL0     H20597   2.982   0.329   8.579 -1.6158  1.5572 -0.4317
  914MOL0     H20598   2.996   0.190   8.484  3.7580  2.0730 -1.7441
  914MOL0     H20599   3.020   0.410   8.371 -0.9968 -0.8532 -0.4761
  914MOL0     H20600   2.868   0.461   8.422  1.0985  1.6529  1.0924
  914MOL0     H20601   2.994   0.196   8.186  1.4514  2.0216 -0.6005
  914MOL0     H20602   2.836   0.179   7.882  0.4509  3.2077  1.5814
  914MOL0     H20603   2.698   0.088   7.954 -0.6215  1.9296  3.2805
  914MOL0     H20604   2.845  -0.061   8.061 -0.5237  1.5136  0.9539
  914MOL0     H20605   2.996   0.019   8.003 -0.0453  2.1916 -3.0033
  914MOL0     H20606   2.874  -0.205   7.875  0.4365 -0.1789 -2.3118
  914MOL0     H20607   2.782  -0.075   7.808 -0.3821  0.4448  1.4642
  914MOL0     H20608   2.990   0.043   7.715  2.5120  0.8702  0.1528
  914MOL0     H20609   2.958  -0.131   7.670 -3.9093 -0.1114  0.7820
  914MOL0     H20610   3.001  -0.339   7.733 -0.4401  1.9207  1.9825
  914MOL0     H20611   3.144  -0.535   7.673  1.2071 -0.5204  0.8242
  914MOL0     H20612   3.221  -0.956   7.671  0.4931 -1.0770  0.0372
  914MOL0     H20613   3.331  -1.158   7.664  1.1535  0.5985 -0.2637
  914MOL0     H20614   3.787  -1.182   7.754  0.7591 -0.7107 -0.1210
  914MOL0     H20615   3.731  -1.266   7.609 -0.0427 -3.8815  0.0311
  914MOL0     H20616   3.642  -1.441   7.764  0.2501 -0.3427 -1.6446
  914MOL0     H20617   3.741  -1.359   7.881  1.1528 -3.2127  0.8263
  914MOL0     H20618   3.936  -1.412   7.724 -0.3785 -1.1381  1.1028
  914MOL0     H20619   3.831  -1.489   7.610 -0.9580 -0.6790 -0.3742
  914MOL0     H20620   3.875  -1.550   7.907 -1.7786 -2.4236  1.2326
  914MOL0     H20621   3.771  -1.649   7.804 -0.7077  0.5921 -1.1546
  914MOL0     H20622   4.063  -1.573   7.743 -0.3813 -0.2543  0.0137
  914MOL0     H20623   3.986  -1.711   7.670 -0.4592  1.0139 -0.2930
  914MOL0     H20624   4.123  -1.669   7.942  2.0019 -2.5404  1.5071
  914MOL0     H20625   4.144  -1.783   7.810  4.2544  2.3968  2.5658
  914MOL0     H20626   4.061  -1.878   8.025 -2.3328 -3.0883  1.3709
  914MOL0     H20627   3.943  -1.764   8.040 -0.1270 -0.0364 -0.8043
  914MOL0     H20628   3.937  -1.976   7.813 -1.7865  0.8234 -1.2286
  914MOL0     H20629   3.799  -1.879   7.863  1.5637  1.3277 -1.4790
  914MOL0     H20630   3.684  -0.991   7.831 -1.2856  0.3010  4.5530
  914MOL0     H20631   3.568  -0.765   7.850 -1.7530  1.9071 -0.4524
  914MOL0     H20632   3.492  -0.326   7.773  0.3380  4.4431 -4.3272
  914MOL0     H20633   3.341  -0.118   7.835 -0.7206 -0.3313  4.7848
  914MOL0     H20634   2.627   0.850   8.862  0.0141  1.6251  3.3474
  914MOL0     H20635   2.566   1.062   8.769  1.6565  0.0465  3.3152
  914MOL0     H20636   2.401   1.353   8.410 -3.0432  0.6060 -1.6672
  914MOL0     H20637   2.392   1.584   8.373  1.0534 -0.1052 -0.3525
  914MOL0     H20638   2.312   1.854   8.753 -2.9303 -0.0758  3.3477
  914MOL0     H20639   2.153   1.833   8.689  0.0086 -2.6574 -2.3102
  914MOL0     H20640   2.350   2.050   8.601  0.8985 -1.3187  1.2227
  914MOL0     H20641   2.181   2.013   8.526 -1.4534  2.4794  1.1504
  914MOL0     H20642   2.201   2.211   8.676  1.3006  0.5543 -2.0953
  914MOL0     H20643   2.222   2.095   8.810 -2.6566  1.2120  1.0269
  914MOL0     H20644   2.008   1.973   8.721  1.8179 -0.6338 -0.0036
  914MOL0     H20645   1.989   2.122   8.810 -0.4010 -1.2154 -0.5454
  914MOL0     H20646   1.931   2.297   8.432  0.3333 -0.0722  0.6524
  914MOL0     H20647   2.234   1.646   8.788 -0.9523 -3.4305  0.6771
  914MOL0     H20648   2.252   1.412   8.812 -1.9212  4.2651  1.4396
  915MOL0     O20649  11.132   9.640   3.591  0.0728 -0.9001 -0.3235
  915MOL0     C20650  11.130   9.532   3.650 -0.7419 -1.1824 -0.2796
  915MOL0     O20651  11.229   9.438   3.637  0.1862  0.2836  0.2971
  915MOL0     C20652  11.337   9.463   3.566  0.4900 -0.4842  1.1871
  915MOL0     C20653  11.332   9.414   3.436  0.3102 -0.5184  0.9136
  915MOL0     C20654  11.437   9.430   3.346  0.2139  0.3332  0.6253
  915MOL0     C20655  11.544   9.514   3.376  0.1014 -0.5804  0.5114
  915MOL0     O20656  11.649   9.530   3.284 -0.1371  0.4624  0.4286
  915MOL0     C20657  11.782   9.544   3.330 -0.5291 -0.9865 -0.5894
  915MOL0     C20658  11.873   9.456   3.251  0.5002 -0.7404 -0.9947
  915MOL0     C20659  12.027   9.491   3.255  1.0677  0.6870  0.2071
  915MOL0     C20660  12.093   9.411   3.373 -0.7404  0.0848  0.2847
  915MOL0     C20661  12.242   9.455   3.400 -0.0945  0.1405  0.2818
  915MOL0     C20662  12.305   9.364   3.514 -1.0271 -0.1180 -0.1035
  915MOL0     C20663  12.423   9.432   3.588  1.1787  0.1118 -0.9020
  915MOL0     C20664  12.528   9.486   3.494  0.6691 -0.3137  0.4966
  915MOL0     N20665  12.585   9.387   3.402 -0.3441 -0.1619 -0.2400
  915MOL0     C20666  12.683   9.296   3.449 -0.0535  0.3442  0.1768
  915MOL0     C20667  12.717   9.229   3.331  0.8169 -0.3300 -0.3323
  915MOL0     C20668  12.821   9.116   3.325 -0.6415  0.1323  0.1237
  915MOL0     C20669  12.924   9.150   3.215 -0.4021 -1.5429 -0.9859
  915MOL0     C20670  12.995   9.030   3.176 -0.7635  0.1067  0.2507
  915MOL0     C20671  12.933   8.916   3.089 -0.3349 -0.3886 -0.3065
  915MOL0     O20672  13.044   8.847   3.022 -0.0422  0.6799  0.2811
  915MOL0     C20673  13.121   8.755   3.087  0.3229  0.4129  0.9000
  915MOL0     C20674  13.224   8.717   3.008 -0.4260  0.5099  0.2514
  915MOL0     C20675  13.323   8.630   3.058  0.2012  0.6635 -0.3824
  915MOL0     C20676  13.330   8.596   3.188 -0.1251 -0.3493 -0.1135
  915MOL0     C20677  13.430   8.506   3.239  0.1498  0.2355  1.2909
  915MOL0     O20678  13.391   8.438   3.347  0.3853 -0.2922  0.2526
  915MOL0     C20679  13.486   8.348   3.392 -0.8308 -0.1613  0.7059
  915MOL0     C20680  13.528   8.352   3.528 -0.3462  0.4480  0.2150
  915MOL0     C20681  13.634   8.275   3.579  0.4779  0.0109 -0.2384
  915MOL0     C20682  13.694   8.176   3.499  0.5303 -0.6576  0.1146
  915MOL0     O20683  13.778   8.086   3.555 -0.1692  0.7174  0.6394
  915MOL0     C20684  13.895   8.048   3.493  0.4212  0.5517 -0.0490
  915MOL0     C20685  14.003   8.120   3.562 -0.7013  0.3847  0.3079
  915MOL0     C20686  14.134   8.093   3.486  1.0650 -0.0895  0.2841
  915MOL0     C20687  14.256   8.154   3.555 -0.4183 -0.2331  0.5548
  915MOL0     C20688  14.388   8.139   3.484  0.8367  0.6578 -0.1306
  915MOL0     C20689  14.410   8.216   3.347 -0.4413  0.0938  0.2354
  915MOL0     C20690  14.562   8.211   3.303 -0.7769  0.3891 -0.5240
  915MOL0     C20691  14.567   8.228   3.154  0.1496 -0.4962 -0.2643
  915MOL0    Cl20692  14.524   8.388   3.101  0.2524  0.2162  0.4627
  915MOL0     C20693  13.648   8.163   3.362  0.3202  0.2502 -1.0788
  915MOL0     C20694  13.547   8.241   3.312  0.4580 -0.5158  0.6859
  915MOL0     O20695  13.541   8.497   3.172 -0.3422 -0.2269  0.0643
  915MOL0     C20696  13.225   8.640   3.275 -0.1286  0.3958 -0.3738
  915MOL0     C20697  13.121   8.724   3.224  1.5664 -0.6021 -0.5295
  915MOL0     N20698  12.641   9.272   3.232 -0.1021 -0.3948  0.4418
  915MOL0     N20699  12.563   9.368   3.270  0.6749 -0.5629 -1.0404
  915MOL0     C20700  11.545   9.571   3.507 -0.0609 -0.7036  0.5715
  915MOL0     C20701  11.454   9.525   3.610 -0.0118 -0.6372 -0.0753
  915MOL0     C20702  11.016   9.501   3.746  0.0693 -0.5010  0.4809
  915MOL0     C20703  10.919   9.598   3.773 -0.5141  0.4839 -0.5652
  915MOL0     C20704  10.827   9.570   3.873 -0.2860 -1.2530 -0.0162
  915MOL0     C20705  10.810   9.446   3.939  0.6373 -0.2393 -0.4987
  915MOL0     O20706  10.715   9.410   4.040 -1.0374 -0.3533 -0.3121
  915MOL0     C20707  10.616   9.505   4.081  0.5774  0.9755  0.2767
  915MOL0     C20708  10.510   9.448   4.173 -0.9744 -1.4440  0.1579
  915MOL0     C20709  10.407   9.342   4.118 -0.3111 -0.5064 -0.3807
  915MOL0     C20710  10.478   9.208   4.128 -0.4556 -1.3928  0.4504
  915MOL0     C20711  10.467   9.150   4.259  0.2407  0.5893  0.0291
  915MOL0     C20712  10.465   9.091   4.367 -0.1944 -0.6033 -0.1323
  915MOL0     C20713  10.912   9.352   3.913  0.0410 -0.0787  1.0465
  915MOL0     C20714  11.018   9.384   3.826  0.8032  0.3216 -0.3518
  915MOL0     H20715  11.249   9.358   3.395  1.8703 -0.8113 -2.1378
  915MOL0     H20716  11.420   9.380   3.251 -0.6324 -1.8363  1.8459
  915MOL0     H20717  11.787   9.511   3.434 -1.0444 -1.7860 -0.8070
  915MOL0     H20718  11.813   9.649   3.325  1.4856 -1.4332  1.0623
  915MOL0     H20719  11.847   9.470   3.145  1.9184  2.5315 -1.0328
  915MOL0     H20720  11.866   9.354   3.289 -1.2653  0.6449  2.8373
  915MOL0     H20721  12.038   9.598   3.273 -0.3602  0.6139  1.8267
  915MOL0     H20722  12.074   9.450   3.165  0.8487 -1.8877  1.1747
  915MOL0     H20723  12.026   9.406   3.460 -0.5711 -1.3758  0.3583
  915MOL0     H20724  12.107   9.310   3.334  2.9962 -0.5452  2.7608
  915MOL0     H20725  12.251   9.560   3.427  0.1030  1.0535 -2.8573
  915MOL0     H20726  12.305   9.430   3.314 -0.0586  0.6937  0.1449
  915MOL0     H20727  12.340   9.263   3.490  0.5382 -0.2652  2.3979
  915MOL0     H20728  12.222   9.346   3.584  0.7092  2.7839  2.9830
  915MOL0     H20729  12.383   9.519   3.641  0.3865  0.9478 -2.7825
  915MOL0     H20730  12.469   9.366   3.662 -0.9629 -0.8222 -0.2966
  915MOL0     H20731  12.609   9.530   3.552  2.5493  0.0215 -2.1909
  915MOL0     H20732  12.491   9.562   3.425  1.7791  0.4129  0.6877
  915MOL0     H20733  12.727   9.296   3.548  1.0333  3.1045 -0.2118
  915MOL0     H20734  12.764   9.024   3.308 -1.4817  0.5315  0.7255
  915MOL0     H20735  12.866   9.106   3.424 -1.1770  0.7781  0.4440
  915MOL0     H20736  12.995   9.223   3.254 -1.1162 -0.5244 -1.5530
  915MOL0     H20737  12.873   9.191   3.127  0.7007  0.9328 -0.5565
  915MOL0     H20738  13.077   9.052   3.107 -1.5143 -1.6326 -1.3023
  915MOL0     H20739  13.042   8.983   3.263  0.2350 -0.4578 -0.5754
  915MOL0     H20740  12.860   8.957   3.019  2.2740  0.5960 -2.6174
  915MOL0     H20741  12.880   8.850   3.159 -1.6265  1.1006  0.1857
  915MOL0     H20742  13.242   8.749   2.906 -0.8199  0.0476  0.0312
  915MOL0     H20743  13.410   8.593   3.004  1.6295  3.9218 -0.5261
  915MOL0     H20744  13.472   8.411   3.600 -1.7048  2.9177 -2.6677
  915MOL0     H20745  13.678   8.278   3.678 -0.2830 -0.5247  0.1210
  915MOL0     H20746  13.888   8.067   3.385  0.1412  0.7631  0.0039
  915MOL0     H20747  13.909   7.941   3.514 -0.2823  1.0382  3.5990
  915MOL0     H20748  14.014   8.079   3.662  1.6152 -2.3799 -0.9318
  915MOL0     H20749  13.981   8.227   3.560  1.4598  0.9391  1.9858
  915MOL0     H20750  14.136   8.138   3.386 -0.7664  0.9462  0.6694
  915MOL0     H20751  14.154   7.987   3.467 -1.6933 -0.4278 -1.1889
  915MOL0     H20752  14.247   8.263   3.559  1.7848 -0.0131  0.7883
  915MOL0     H20753  14.274   8.120   3.657  3.0630  1.9604  0.8419
  915MOL0     H20754  14.409   8.032   3.474 -1.8739  0.0376  0.0785
  915MOL0     H20755  14.464   8.182   3.549  0.8974  0.2155  0.0942
  915MOL0     H20756  14.402   8.324   3.364  2.9922  1.4494 -4.5255
  915MOL0     H20757  14.343   8.185   3.267  1.9761  2.8767 -3.1450
  915MOL0     H20758  14.617   8.285   3.362  0.7501 -1.1944  0.0948
  915MOL0     H20759  14.609   8.114   3.321  2.7304  1.9036 -0.6715
  915MOL0     H20760  14.494   8.167   3.101 -1.1159 -0.1553  0.9996
  915MOL0     H20761  14.670   8.205   3.125  0.6748  0.7741  0.4866
  915MOL0     H20762  13.687   8.082   3.300 -0.3515  0.5183 -1.8719
  915MOL0     H20763  13.534   8.223   3.206 -0.7038 -1.2258  0.9296
  915MOL0     H20764  13.234   8.638   3.383  0.8312  1.3465 -0.4152
  915MOL0     H20765  13.044   8.766   3.287  0.5120 -0.4752 -1.8451
  915MOL0     H20766  11.629   9.633   3.535  0.5964 -1.9786  1.5161
  915MOL0     H20767  11.465   9.553   3.715 -1.7959  0.9148 -0.2495
  915MOL0     H20768  10.920   9.696   3.727 -1.1067  1.1132  0.7214
  915MOL0     H20769  10.778   9.663   3.903  1.7634  0.6497 -2.1158
  915MOL0     H20770  10.566   9.547   3.993 -2.5370 -1.9148  0.4684
  915MOL0     H20771  10.672   9.578   4.139  2.4808 -1.4448  1.6863
  915MOL0     H20772  10.554   9.434   4.272  0.6603  2.1702  0.1117
  915MOL0     H20773  10.447   9.534   4.197  1.1605  0.4956 -0.8378
  915MOL0     H20774  10.373   9.365   4.017 -1.4815 -1.2279 -0.1662
  915MOL0     H20775  10.330   9.330   4.195 -0.7549 -0.1616 -0.7669
  915MOL0     H20776  10.427   9.148   4.052 -1.1483 -2.9564  2.0769
  915MOL0     H20777  10.584   9.213   4.100 -1.3279  2.9032 -3.2115
  915MOL0     H20778  10.471   9.037   4.460 -2.9509  0.1816  0.5994
  915MOL0     H20779  10.924   9.258   3.966 -1.4630 -0.6099  0.5202
  915MOL0     H20780  11.100   9.312   3.825  0.1453 -0.4458 -1.1595
  916MOL0     O20781  11.363  10.630   0.229  0.9253  0.8115  0.3800
  916MOL0     C20782  11.375  10.659   0.344 -0.4803  0.6561  0.9739
  916MOL0     O20783  11.308  10.770   0.397 -0.7512  0.2363 -0.2036
  916MOL0     C20784  11.204  10.823   0.323  0.7112 -0.3849 -1.6467
  916MOL0     C20785  11.101  10.742   0.275 -0.0786 -0.3724  0.3915
  916MOL0     C20786  10.985  10.813   0.232  0.5466 -0.6143  0.6961
  916MOL0     C20787  10.979  10.959   0.227 -0.7146 -0.1315  0.1109
  916MOL0     O20788  10.879  11.028   0.178  0.0094  0.5932  0.2783
  916MOL0     C20789  10.771  10.963   0.100 -0.2171  0.1056 -0.2527
  916MOL0     C20790  10.649  11.055   0.089 -0.0906  0.7385  0.5262
  916MOL0     C20791  10.531  10.978   0.013  0.4344 -0.3273  0.6335
  916MOL0     C20792  10.417  11.065  -0.047 -1.0512  0.8655 -0.1639
  916MOL0     C20793  10.468  11.179  -0.138 -0.4052  0.6143  0.4745
  916MOL0     C20794  10.471  11.137  -0.279 -0.1782 -0.1752  0.5062
  916MOL0     C20795  10.569  11.215  -0.369 -0.2257  0.4009 -1.0670
  916MOL0     C20796  10.493  11.330  -0.448  0.0846  0.6163 -0.6722
  916MOL0     N20797  10.599  11.399  -0.521 -0.0922 -0.4355  0.0532
  916MOL0     C20798  10.712  11.470  -0.473 -0.2885 -0.2602  0.9672
  916MOL0     C20799  10.771  11.510  -0.585  1.2284  0.0476  1.1944
  916MOL0     C20800  10.896  11.598  -0.595 -0.6239 -0.7727 -0.2349
  916MOL0     C20801  10.858  11.735  -0.535 -0.0623 -0.1994 -0.2416
  916MOL0     C20802  10.932  11.842  -0.605  0.3703 -0.2101 -0.3631
  916MOL0     C20803  10.905  11.987  -0.538 -0.0231  0.5373  1.1106
  916MOL0     O20804  10.769  12.027  -0.536 -0.5704 -0.7131  0.0600
  916MOL0     C20805  10.745  12.160  -0.557  0.2488  0.2733 -0.5503
  916MOL0     C20806  10.826  12.263  -0.496 -0.7908 -1.1574 -0.0000
  916MOL0     C20807  10.786  12.394  -0.505 -0.0583 -1.4474 -0.5246
  916MOL0     C20808  10.668  12.441  -0.565  0.9658  0.7944 -0.9592
  916MOL0     C20809  10.627  12.581  -0.571 -0.8624 -0.7452  0.2556
  916MOL0     O20810  10.708  12.666  -0.499  0.4522  0.0813 -0.2203
  916MOL0     C20811  10.660  12.796  -0.467 -1.5371  0.0345 -0.2861
  916MOL0     C20812  10.545  12.817  -0.397  0.5618  0.4891  0.3434
  916MOL0     C20813  10.513  12.953  -0.371 -0.1043 -0.2228 -0.6530
  916MOL0     C20814  10.599  13.063  -0.402 -0.5481  0.7069 -0.7851
  916MOL0     O20815  10.565  13.195  -0.386  0.1493  0.3827 -0.5257
  916MOL0     C20816  10.459  13.235  -0.477  0.4945  0.1974 -0.1567
  916MOL0     C20817  10.451  13.380  -0.479  0.9680  1.0307  0.7040
  916MOL0     C20818  10.399  13.444  -0.350  0.1566 -0.3325  0.5422
  916MOL0     C20819  10.387  13.599  -0.361 -0.4259 -0.4996  0.0080
  916MOL0     C20820  10.329  13.673  -0.235  1.1368  0.1668 -0.6158
  916MOL0     C20821  10.405  13.650  -0.097  0.9059 -0.0238 -0.2703
  916MOL0     C20822  10.345  13.540  -0.011  0.1388 -0.0637 -0.6218
  916MOL0     C20823  10.445  13.495   0.093  0.6386 -0.0832 -0.3597
  916MOL0    Cl20824  10.386  13.366   0.168  0.3524  0.2245  1.6009
  916MOL0     C20825  10.723  13.034  -0.462 -0.0839  0.1543 -0.3856
  916MOL0     C20826  10.754  12.902  -0.496  0.6475 -0.0694  0.5710
  916MOL0     O20827  10.521  12.606  -0.634  0.5030 -0.5960 -0.0083
  916MOL0     C20828  10.593  12.341  -0.625 -0.3365  1.8494  0.6443
  916MOL0     C20829  10.632  12.195  -0.623 -0.1258 -1.1226 -0.2100
  916MOL0     N20830  10.712  11.476  -0.698 -0.0296  0.0110  0.4948
  916MOL0     N20831  10.607  11.414  -0.654 -0.4819  0.1090  0.6835
  916MOL0     C20832  11.091  11.033   0.266 -0.6607  0.0086  0.2315
  916MOL0     C20833  11.200  10.962   0.314 -0.9099  0.0044 -0.0317
  916MOL0     C20834  11.476  10.583   0.425 -0.4157 -0.0012  0.5113
  916MOL0     C20835  11.540  10.466   0.379 -0.7912 -0.5109  0.0975
  916MOL0     C20836  11.613  10.381   0.458 -0.5034  0.5067 -0.5296
  916MOL0     C20837  11.662  10.435   0.582 -0.8173  0.2819 -0.1509
  916MOL0     O20838  11.761  10.366   0.657  0.1617 -0.3060 -0.5469
  916MOL0     C20839  11.794  10.236   0.612 -1.3409  0.0721 -0.4833
  916MOL0     C20840  11.910  10.243   0.500  0.5362 -0.6969 -0.7859
  916MOL0     C20841  11.948  10.107   0.458 -0.2732 -0.3839 -0.0233
  916MOL0     C20842  12.079  10.111   0.371 -0.2848 -0.8405  0.0813
  916MOL0     C20843  12.101   9.970   0.354 -0.3160  0.5445  0.5142
  916MOL0     C20844  12.104   9.852   0.359 -1.4770  0.7378 -0.7411
  916MOL0     C20845  11.616  10.562   0.625 -0.0668  0.3181  0.7009
  916MOL0     C20846  11.510  10.631   0.560 -0.2872  0.0926 -0.5058
  916MOL0     H20847  11.098  10.634   0.290  1.7449 -0.3626  0.9893
  916MOL0     H20848  10.902  10.758   0.190  0.2219  1.3270 -1.4177
  916MOL0     H20849  10.749  10.863   0.140  0.4300 -1.0262 -2.5248
  916MOL0     H20850  10.808  10.935   0.001 -0.6490 -2.5095  0.2549
  916MOL0     H20851  10.678  11.150   0.043 -0.0807 -0.2399 -1.6341
  916MOL0     H20852  10.615  11.074   0.191 -0.5827  0.0368  0.4960
  916MOL0     H20853  10.495  10.906   0.087  1.4699 -2.4199 -0.7819
  916MOL0     H20854  10.583  10.922  -0.066  1.1909  0.5694  0.4699
  916MOL0     H20855  10.350  10.994  -0.096  1.8147 -4.1582  2.2824
  916MOL0     H20856  10.363  11.115   0.034  0.3083  1.8096  0.1936
  916MOL0     H20857  10.564  11.209  -0.095 -0.1210 -1.2748  1.2918
  916MOL0     H20858  10.382  11.247  -0.132 -2.7314 -2.1638  1.5940
  916MOL0     H20859  10.371  11.125  -0.323  0.8827 -2.0061 -1.6470
  916MOL0     H20860  10.518  11.039  -0.263  1.1373  0.2261 -0.6775
  916MOL0     H20861  10.659  11.258  -0.325 -0.4212 -0.6482  0.4501
  916MOL0     H20862  10.598  11.135  -0.438  2.3195  0.3923 -0.0984
  916MOL0     H20863  10.438  11.390  -0.375 -1.3680 -2.3462  0.9033
  916MOL0     H20864  10.427  11.295  -0.529  0.9136  2.2001 -2.0935
  916MOL0     H20865  10.744  11.480  -0.370 -1.5877 -0.0370  1.3743
  916MOL0     H20866  10.926  11.605  -0.701  3.1961 -0.3106  0.7153
  916MOL0     H20867  10.985  11.550  -0.554 -0.4663  0.7630  1.3290
  916MOL0     H20868  10.889  11.748  -0.431  0.0417  1.6189 -0.4693
  916MOL0     H20869  10.750  11.750  -0.539  0.1818  1.6253 -1.7161
  916MOL0     H20870  11.035  11.805  -0.618  0.1867 -1.3310  1.0957
  916MOL0     H20871  10.885  11.856  -0.702 -0.8361 -1.1910  0.0576
  916MOL0     H20872  10.966  12.061  -0.590 -0.6251  1.0730  1.1455
  916MOL0     H20873  10.942  11.985  -0.435 -3.3104  1.5194  2.4345
  916MOL0     H20874  10.913  12.236  -0.437 -0.3157 -1.6029 -0.8810
  916MOL0     H20875  10.859  12.462  -0.463 -3.7149  1.1212  2.2786
  916MOL0     H20876  10.489  12.739  -0.348  0.2991  0.7360  0.4364
  916MOL0     H20877  10.411  12.975  -0.338 -0.3653  2.6798 -2.8867
  916MOL0     H20878  10.362  13.195  -0.445  0.2393  0.2052 -0.9064
  916MOL0     H20879  10.480  13.208  -0.581 -3.3557 -1.2209 -0.7320
  916MOL0     H20880  10.393  13.417  -0.565 -2.8470  2.2785  3.5049
  916MOL0     H20881  10.546  13.430  -0.499  0.9712  0.7406 -0.0330
  916MOL0     H20882  10.464  13.417  -0.266 -1.0337  1.3926  2.1040
  916MOL0     H20883  10.296  13.416  -0.330 -0.3576  0.5578 -0.7292
  916MOL0     H20884  10.491  13.634  -0.367 -0.0752 -1.5511 -0.3275
  916MOL0     H20885  10.330  13.624  -0.450 -0.6907 -1.2807 -0.0463
  916MOL0     H20886  10.223  13.649  -0.225  0.9683  0.4663 -1.5771
  916MOL0     H20887  10.334  13.779  -0.261  3.0961  0.2623 -0.0310
  916MOL0     H20888  10.394  13.739  -0.035 -3.3125  0.0176 -0.8223
  916MOL0     H20889  10.509  13.620  -0.112 -0.0597 -2.9757 -1.9039
  916MOL0     H20890  10.250  13.572   0.033  0.8627  2.8468 -0.9612
  916MOL0     H20891  10.320  13.453  -0.072 -2.7620 -0.6321  1.2048
  916MOL0     H20892  10.471  13.584   0.151 -0.4722  0.2909 -0.4239
  916MOL0     H20893  10.536  13.453   0.048  0.6795  0.3451 -0.6889
  916MOL0     H20894  10.789  13.120  -0.472  1.0607 -0.7305 -0.6345
  916MOL0     H20895  10.851  12.879  -0.540  1.7627  1.3290  2.1459
  916MOL0     H20896  10.507  12.370  -0.685 -1.7406 -2.5262  0.1134
  916MOL0     H20897  10.584  12.108  -0.667 -3.0673  0.0795  0.4457
  916MOL0     H20898  11.089  11.141   0.257 -1.9156 -0.1144 -1.4979
  916MOL0     H20899  11.293  11.012   0.335  0.1082 -2.1149  0.8702
  916MOL0     H20900  11.530  10.432   0.276 -2.8329 -0.0055  0.0969
  916MOL0     H20901  11.653  10.297   0.403  1.8630  1.8811 -1.0631
  916MOL0     H20902  11.710  10.171   0.585  0.7625 -3.2980  0.4643
  916MOL0     H20903  11.842  10.189   0.698 -0.8534  0.3257 -0.6122
  916MOL0     H20904  11.880  10.299   0.411  1.2654  1.6442  0.3504
  916MOL0     H20905  11.990  10.301   0.548  0.3657  2.1506 -3.5651
  916MOL0     H20906  11.874  10.044   0.410  3.3528 -3.1684 -2.5559
  916MOL0     H20907  11.969  10.062   0.556  3.7359 -0.3249 -0.6615
  916MOL0     H20908  12.070  10.159   0.274  1.6288 -0.8160 -0.1042
  916MOL0     H20909  12.159  10.163   0.423 -0.4329  0.4639 -0.9679
  916MOL0     H20910  12.088   9.747   0.345  0.5597  0.5384 -2.0450
  916MOL0     H20911  11.616  10.585   0.731 -4.0297 -1.5782  1.3311
  916MOL0     H20912  11.462  10.713   0.612  1.7121 -0.1116  1.8560
  917MOL0     O20913   4.823   7.784   9.595  0.2049 -1.2776 -0.0423
  917MOL0     C20914   4.705   7.821   9.613 -0.6627 -1.1357 -0.9774
  917MOL0     O20915   4.648   7.944   9.577 -0.0837  0.6191 -0.2614
  917MOL0     C20916   4.709   8.034   9.491  0.3963  0.0172 -0.3486
  917MOL0     C20917   4.660   8.161   9.488  0.5490 -0.4171 -0.9485
  917MOL0     C20918   4.726   8.259   9.418  0.0327  0.4023  0.4410
  917MOL0     C20919   4.832   8.237   9.347 -0.4815  0.8095 -0.4403
  917MOL0     O20920   4.901   8.336   9.287  0.1989 -0.6025  0.4664
  917MOL0     C20921   4.869   8.478   9.328  0.9243  0.0562  0.9041
  917MOL0     C20922   4.957   8.582   9.272 -0.3494  0.1080 -0.7777
  917MOL0     C20923   4.905   8.721   9.293  0.2117 -0.1314 -0.2071
  917MOL0     C20924   4.962   8.817   9.194  0.1747 -0.0483  1.0625
  917MOL0     C20925   4.904   8.961   9.186  0.0918  0.4075  0.2127
  917MOL0     C20926   4.914   9.024   9.330  0.1736  0.1316 -0.2510
  917MOL0     C20927   4.855   9.164   9.332 -0.3476  1.2594  1.2406
  917MOL0     C20928   4.857   9.214   9.473  0.2240 -0.2981 -0.7474
  917MOL0     N20929   4.766   9.333   9.484 -0.0813  0.9438  1.1040
  917MOL0     C20930   4.788   9.461   9.445  0.1527  0.2230 -0.6931
  917MOL0     C20931   4.666   9.528   9.462  1.1117 -0.2268  0.3015
  917MOL0     C20932   4.643   9.673   9.461  1.2580  0.6929 -0.7553
  917MOL0     C20933   4.658   9.731   9.318 -0.2657  0.1309  0.5003
  917MOL0     C20934   4.803   9.773   9.291  0.5101  0.0068 -0.9060
  917MOL0     C20935   4.835   9.839   9.157 -0.3893  0.0836 -0.1302
  917MOL0     O20936   4.972   9.839   9.127 -0.1501 -0.9969 -0.6363
  917MOL0     C20937   5.027   9.939   9.048 -0.7921  0.4089 -0.1113
  917MOL0     C20938   5.159   9.933   9.035  0.7001 -0.5562 -0.8941
  917MOL0     C20939   5.229  10.015   8.968 -0.2685 -0.9540 -0.0793
  917MOL0     C20940   5.175  10.126   8.907 -0.7253  1.1946  0.8957
  917MOL0     C20941   5.256  10.227   8.836 -0.1675  0.3943 -1.0545
  917MOL0     O20942   5.404  10.217   8.857 -0.2757  0.2483 -0.3627
  917MOL0     C20943   5.479  10.313   8.800 -1.3458 -0.2439  0.2386
  917MOL0     C20944   5.457  10.454   8.819  0.5446 -0.7906  0.1429
  917MOL0     C20945   5.545  10.551   8.782  0.2941  0.3066 -0.1183
  917MOL0     C20946   5.669  10.523   8.719 -0.0925  0.9652  0.8115
  917MOL0     O20947   5.773  10.609   8.674  0.3594  0.1527  0.1871
  917MOL0     C20948   5.775  10.741   8.733 -1.0842 -0.2501 -0.4158
  917MOL0     C20949   5.915  10.797   8.692 -0.3706 -0.6264  0.5998
  917MOL0     C20950   6.045  10.743   8.759 -0.7872  0.1963 -0.1611
  917MOL0     C20951   6.075  10.597   8.737 -0.4046 -0.1393  0.1712
  917MOL0     C20952   6.221  10.565   8.764 -0.5767  0.5008  0.5707
  917MOL0     C20953   6.239  10.404   8.767 -0.0657 -0.2288 -0.7047
  917MOL0     C20954   6.263  10.346   8.631 -0.5181  0.6827 -0.1651
  917MOL0     C20955   6.240  10.197   8.629 -0.3042  0.0506  0.2919
  917MOL0    Cl20956   6.054  10.190   8.624 -0.1536  0.1707 -0.0350
  917MOL0     C20957   5.699  10.381   8.697  0.3750  0.2403  1.2693
  917MOL0     C20958   5.604  10.279   8.731  0.4046 -0.0450 -0.9285
  917MOL0     O20959   5.195  10.320   8.775 -0.1576 -0.0369  0.4084
  917MOL0     C20960   5.042  10.140   8.911  0.8389 -0.0497  0.4606
  917MOL0     C20961   4.969  10.049   8.991  0.6456 -0.0911  0.8256
  917MOL0     N20962   4.587   9.446   9.530 -1.0389 -0.4902 -0.2625
  917MOL0     N20963   4.646   9.324   9.538 -0.1551  0.3416 -0.9024
  917MOL0     C20964   4.892   8.112   9.340  0.4793 -1.1209 -0.5827
  917MOL0     C20965   4.831   8.008   9.411  0.4366 -0.0214 -0.4295
  917MOL0     C20966   4.607   7.714   9.651  0.5617 -0.1167  0.0929
  917MOL0     C20967   4.473   7.737   9.653  0.1951  0.0504 -0.1806
  917MOL0     C20968   4.387   7.649   9.721 -0.2431 -0.5686  0.0156
  917MOL0     C20969   4.431   7.527   9.765 -0.0969  0.4214 -0.5742
  917MOL0     O20970   4.331   7.443   9.818  0.1304 -1.0573  0.2898
  917MOL0     C20971   4.352   7.307   9.804  0.4381  0.8185  0.8569
  917MOL0     C20972   4.220   7.222   9.822  0.3015  0.4925 -0.5046
  917MOL0     C20973   4.158   7.222   9.963 -0.8223 -0.3881 -0.1717
  917MOL0     C20974   4.198   7.104  10.045  0.4357  0.0113 -0.5128
  917MOL0     C20975   4.148   6.981   9.999  0.2137  0.5398  0.4016
  917MOL0     C20976   4.102   6.877   9.954 -1.0606 -0.8393  0.2693
  917MOL0     C20977   4.564   7.485   9.736  0.0622  0.3899  0.5341
  917MOL0     C20978   4.653   7.579   9.695  0.7660 -0.2895  0.7608
  917MOL0     H20979   4.576   8.184   9.552 -1.7929 -0.8551 -3.6405
  917MOL0     H20980   4.669   8.352   9.419  0.5263  0.7122  0.4026
  917MOL0     H20981   4.868   8.494   9.436  1.5554  1.7541  0.6922
  917MOL0     H20982   4.767   8.494   9.290  1.7819  1.2824 -1.0559
  917MOL0     H20983   4.970   8.558   9.166  0.9426  1.6328 -1.0033
  917MOL0     H20984   5.061   8.574   9.306 -0.7752 -2.0757  0.1972
  917MOL0     H20985   4.928   8.753   9.394  0.6173  3.3607 -1.2738
  917MOL0     H20986   4.795   8.722   9.284  0.1887 -0.6475 -0.0077
  917MOL0     H20987   5.070   8.819   9.210  0.4042 -2.1258  0.0862
  917MOL0     H20988   4.954   8.762   9.099  0.3235 -0.7851  1.4691
  917MOL0     H20989   4.804   8.969   9.143  1.3977  2.5814 -2.7430
  917MOL0     H20990   4.978   9.015   9.125 -0.0219  0.7685  0.3943
  917MOL0     H20991   5.019   9.028   9.358  0.4626  2.9120 -1.3536
  917MOL0     H20992   4.863   8.959   9.401  0.6434 -0.9772 -0.9117
  917MOL0     H20993   4.914   9.235   9.273  1.1970  0.4029  1.7131
  917MOL0     H20994   4.752   9.164   9.294  0.3394  3.8602 -0.9932
  917MOL0     H20995   4.961   9.229   9.501  0.8136 -2.4853 -1.5818
  917MOL0     H20996   4.820   9.139   9.543  0.8374 -0.6754 -0.8284
  917MOL0     H20997   4.879   9.506   9.404  0.9632 -1.1389 -0.4384
  917MOL0     H20998   4.708   9.730   9.527 -0.3802  0.7945  0.8601
  917MOL0     H20999   4.542   9.695   9.498  0.1500 -2.4553 -1.5787
  917MOL0     H21000   4.588   9.815   9.318 -1.0635 -0.5013  1.4606
  917MOL0     H21001   4.636   9.655   9.241 -0.7440  0.1053  0.6560
  917MOL0     H21002   4.839   9.843   9.367  0.7151 -2.5588  1.5343
  917MOL0     H21003   4.865   9.682   9.294  2.5273  1.3553  0.1023
  917MOL0     H21004   4.789   9.938   9.156  1.4616  0.9686 -1.0707
  917MOL0     H21005   4.792   9.768   9.085  0.7078 -2.3972  1.5340
  917MOL0     H21006   5.214   9.869   9.103 -1.9420 -0.3158  1.6583
  917MOL0     H21007   5.333   9.988   8.957 -0.6486 -1.7796 -2.1351
  917MOL0     H21008   5.363  10.483   8.865  0.7225  1.0229 -0.5719
  917MOL0     H21009   5.522  10.654   8.809  1.0084  1.0015 -1.9831
  917MOL0     H21010   5.774  10.735   8.842  0.5004 -0.2488 -0.3776
  917MOL0     H21011   5.699  10.808   8.692  0.9349  0.7915 -2.7453
  917MOL0     H21012   5.919  10.904   8.714  1.2166 -0.3364 -0.8428
  917MOL0     H21013   5.935  10.792   8.584 -1.7255 -0.0030  0.3063
  917MOL0     H21014   6.036  10.747   8.868  1.3511  0.4858  0.0532
  917MOL0     H21015   6.135  10.796   8.727  0.1861 -2.9486 -3.0968
  917MOL0     H21016   6.020  10.539   8.811  0.9177  0.6061  1.7915
  917MOL0     H21017   6.057  10.560   8.636  3.3800 -1.8117 -0.0531
  917MOL0     H21018   6.273  10.615   8.847  1.5743  1.6240 -1.3353
  917MOL0     H21019   6.261  10.606   8.671 -3.4040 -2.8459 -2.4134
  917MOL0     H21020   6.155  10.353   8.815  0.5296  0.1106  0.7706
  917MOL0     H21021   6.323  10.368   8.828 -1.8586  0.3575  2.3467
  917MOL0     H21022   6.201  10.390   8.552 -0.6128  1.1451  0.1644
  917MOL0     H21023   6.370  10.363   8.618 -0.1044  1.6033  3.5425
  917MOL0     H21024   6.287  10.152   8.717 -1.2830 -1.5917  0.0062
  917MOL0     H21025   6.282  10.151   8.538 -0.9031 -2.2884  1.1309
  917MOL0     H21026   5.790  10.374   8.639 -1.2939 -0.2066 -1.4465
  917MOL0     H21027   5.620  10.175   8.703  0.0090 -0.0234 -1.2395
  917MOL0     H21028   4.995  10.222   8.858  1.0692  0.2626  0.7378
  917MOL0     H21029   4.863  10.067   9.008  0.5511 -0.3602  0.5335
  917MOL0     H21030   4.986   8.098   9.287 -0.0847  0.3862 -2.0773
  917MOL0     H21031   4.877   7.910   9.406 -1.3780 -0.9389 -0.0889
  917MOL0     H21032   4.432   7.826   9.606 -0.8010 -0.2987  0.0113
  917MOL0     H21033   4.280   7.665   9.731 -0.0743  1.1489 -0.6742
  917MOL0     H21034   4.423   7.283   9.885  0.2363  1.2352  1.1584
  917MOL0     H21035   4.385   7.301   9.700  1.3041 -0.2079  1.1645
  917MOL0     H21036   4.146   7.264   9.753  1.2535 -1.7904 -3.1139
  917MOL0     H21037   4.252   7.124   9.787  4.0971  1.4588 -0.2309
  917MOL0     H21038   4.049   7.221   9.962 -0.9026  1.6082  1.3914
  917MOL0     H21039   4.177   7.323   9.999 -0.8391  0.6921 -2.9494
  917MOL0     H21040   4.307   7.103  10.053  0.5096 -0.9988 -1.4494
  917MOL0     H21041   4.156   7.116  10.146  1.5567 -1.2971  0.1429
  917MOL0     H21042   4.061   6.781   9.929  1.5264 -2.1237  0.6752
  917MOL0     H21043   4.585   7.384   9.770 -1.2607  1.0654  3.7636
  917MOL0     H21044   4.758   7.554   9.704  1.3295  0.3600 -2.5376
  918MOL0     O21045   9.482   9.908   5.957  0.1826 -0.1707 -0.1113
  918MOL0     C21046   9.521   9.817   6.028  0.0367  1.2028  0.1849
  918MOL0     O21047   9.633   9.736   6.012  0.0503  0.3445  0.6831
  918MOL0     C21048   9.715   9.736   5.904 -1.4597 -0.6165 -0.2576
  918MOL0     C21049   9.845   9.682   5.925 -0.1592 -0.4532  0.7164
  918MOL0     C21050   9.951   9.691   5.828  0.2803 -0.1582 -0.1889
  918MOL0     C21051   9.921   9.754   5.706 -0.0699 -0.1124  0.0407
  918MOL0     O21052  10.004   9.757   5.595 -0.2710 -0.4253  0.4407
  918MOL0     C21053  10.137   9.712   5.595  0.6515  0.1498  0.7941
  918MOL0     C21054  10.244   9.796   5.682  0.0063  0.2063  0.5623
  918MOL0     C21055  10.273   9.944   5.619  0.2274  0.0616 -1.3123
  918MOL0     C21056  10.317  10.037   5.728 -0.3947 -1.3980 -0.1374
  918MOL0     C21057  10.459  10.013   5.761  0.0387 -0.2881 -0.4241
  918MOL0     C21058  10.498  10.098   5.885 -0.0092 -1.2103 -0.0904
  918MOL0     C21059  10.624  10.048   5.950 -0.8465 -0.0286 -0.4373
  918MOL0     C21060  10.622  10.054   6.106 -0.6387  0.3043  0.4439
  918MOL0     N21061  10.595  10.187   6.163  0.0430  0.3996 -0.0280
  918MOL0     C21062  10.661  10.310   6.121  0.1294 -0.3420 -0.2766
  918MOL0     C21063  10.613  10.400   6.209  0.0096 -0.4231  0.0944
  918MOL0     C21064  10.666  10.543   6.228  0.7908  0.0652  0.5260
  918MOL0     C21065  10.780  10.550   6.331  0.4805 -0.2043 -0.2359
  918MOL0     C21066  10.720  10.553   6.468 -0.2020 -0.1964  0.3986
  918MOL0     C21067  10.644  10.682   6.501  0.0422  0.2824 -0.3992
  918MOL0     O21068  10.570  10.653   6.626  0.2083  0.1892 -0.1729
  918MOL0     C21069  10.619  10.724   6.731 -0.3747  0.9520  0.0475
  918MOL0     C21070  10.582  10.854   6.760  0.1614  0.6983  0.1088
  918MOL0     C21071  10.638  10.923   6.865 -0.3052  0.6026 -0.1137
  918MOL0     C21072  10.742  10.871   6.948  0.6140  0.6575  0.8590
  918MOL0     C21073  10.821  10.953   7.047  0.3577 -1.0111  0.6324
  918MOL0     O21074  10.925  10.891   7.111  0.1586  0.3155 -0.1482
  918MOL0     C21075  11.037  10.953   7.135 -1.0303 -0.2779 -0.2349
  918MOL0     C21076  11.116  10.916   7.238  0.3599 -0.7007 -1.1617
  918MOL0     C21077  11.235  10.988   7.270  0.3612  0.2284 -0.6765
  918MOL0     C21078  11.282  11.090   7.193 -0.0762 -0.0574  0.5488
  918MOL0     O21079  11.390  11.153   7.231 -0.8171  0.2088  0.7492
  918MOL0     C21080  11.378  11.286   7.289 -0.3378  0.8472 -0.6246
  918MOL0     C21081  11.380  11.399   7.175  0.0595  0.6965  0.2467
  918MOL0     C21082  11.511  11.411   7.092 -0.3252  0.7449  0.1462
  918MOL0     C21083  11.520  11.517   6.979  0.4268 -0.5190  0.4878
  918MOL0     C21084  11.467  11.662   7.014 -0.4228  0.4516 -1.1168
  918MOL0     C21085  11.525  11.720   7.142  0.6606 -0.3989 -0.7338
  918MOL0     C21086  11.677  11.734   7.140  0.6862  0.1080 -1.4038
  918MOL0     C21087  11.713  11.757   7.289  0.5251  0.8048 -0.2838
  918MOL0    Cl21088  11.681  11.628   7.418 -0.0395  0.1235  0.1759
  918MOL0     C21089  11.206  11.131   7.077  0.2946 -0.3237  0.2888
  918MOL0     C21090  11.077  11.064   7.052  0.4559 -0.2754  0.3161
  918MOL0     O21091  10.776  11.068   7.067 -0.6448  0.1395  0.5382
  918MOL0     C21092  10.778  10.732   6.925 -0.0341 -0.5720 -0.0414
  918MOL0     C21093  10.710  10.670   6.819 -0.6895 -0.1117 -1.1621
  918MOL0     N21094  10.517  10.341   6.283 -0.5616 -0.0080 -0.8139
  918MOL0     N21095  10.504  10.212   6.257  0.0139 -0.6448  0.1079
  918MOL0     C21096   9.787   9.805   5.680 -0.4768  0.1533  0.4473
  918MOL0     C21097   9.688   9.807   5.781 -0.1061  0.6703 -0.5267
  918MOL0     C21098   9.453   9.788   6.151  0.5655  0.9749  0.3863
  918MOL0     C21099   9.354   9.878   6.202 -0.6697  0.3803  0.8095
  918MOL0     C21100   9.295   9.850   6.319 -1.0538 -0.1814 -0.1918
  918MOL0     C21101   9.344   9.751   6.405  0.1257  1.1579  0.5174
  918MOL0     O21102   9.279   9.746   6.527  0.4652 -1.2106 -0.1495
  918MOL0     C21103   9.332   9.670   6.630 -0.1347 -0.2948  0.0552
  918MOL0     C21104   9.302   9.696   6.769  0.5273 -0.5426 -0.5821
  918MOL0     C21105   9.153   9.719   6.798 -0.5297  0.2816 -0.4374
  918MOL0     C21106   9.133   9.769   6.951 -0.3333 -0.5050  0.6649
  918MOL0     C21107   8.993   9.803   6.968 -0.7931  0.4024  0.0311
  918MOL0     C21108   8.891   9.850   7.000  1.1705  0.9186 -0.0349
  918MOL0     C21109   9.437   9.647   6.353 -0.6825 -1.0370  0.6629
  918MOL0     C21110   9.491   9.681   6.225  0.0398  0.4434  0.0501
  918MOL0     H21111   9.881   9.660   6.025 -2.8524  0.4998  1.9869
  918MOL0     H21112  10.046   9.642   5.845 -0.7687 -1.8355  1.1635
  918MOL0     H21113  10.176   9.717   5.493 -2.7697  2.8306 -0.5754
  918MOL0     H21114  10.133   9.608   5.629 -0.0186  0.2824  1.1351
  918MOL0     H21115  10.339   9.741   5.680 -0.0961  0.0411  0.2265
  918MOL0     H21116  10.208   9.798   5.786  0.1155 -2.6344  0.7570
  918MOL0     H21117  10.179   9.983   5.579  0.5131  0.2821 -1.7769
  918MOL0     H21118  10.351   9.944   5.542  4.0950  1.3550  2.2490
  918MOL0     H21119  10.304  10.142   5.701  0.4134 -1.0196  0.8653
  918MOL0     H21120  10.256  10.029   5.818  0.2515  0.7680  0.5647
  918MOL0     H21121  10.513  10.040   5.670  0.7997  1.3338  0.4754
  918MOL0     H21122  10.465   9.909   5.793 -3.0176 -0.7958 -1.1919
  918MOL0     H21123  10.416  10.106   5.957  0.6591 -1.7268  0.7465
  918MOL0     H21124  10.514  10.202   5.855  2.9422 -1.1042  1.5244
  918MOL0     H21125  10.655   9.945   5.929  3.1841  0.5252  1.7886
  918MOL0     H21126  10.703  10.112   5.912 -1.6627 -0.7867 -3.7088
  918MOL0     H21127  10.713  10.007   6.146 -1.8070 -0.0685  2.8534
  918MOL0     H21128  10.541   9.986   6.133 -1.2453  1.1471  0.7853
  918MOL0     H21129  10.749  10.342   6.066  1.9699  0.4762  2.8259
  918MOL0     H21130  10.585  10.611   6.258 -0.4635 -0.4543 -1.5148
  918MOL0     H21131  10.696  10.576   6.128  0.4570 -1.1608  0.0018
  918MOL0     H21132  10.845  10.637   6.316 -0.8497  1.2093  1.5949
  918MOL0     H21133  10.844  10.462   6.339 -0.6181 -1.0820 -0.7534
  918MOL0     H21134  10.643  10.475   6.478 -1.2757  0.9030  1.0667
  918MOL0     H21135  10.787  10.537   6.553 -1.1528  2.4045  1.7585
  918MOL0     H21136  10.577  10.722   6.425 -1.3654 -0.7175  0.2778
  918MOL0     H21137  10.719  10.761   6.511  1.1242 -0.6888 -0.5603
  918MOL0     H21138  10.509  10.908   6.701 -2.1395  2.2276  3.9225
  918MOL0     H21139  10.598  11.018   6.900  2.3977  1.9889 -0.4630
  918MOL0     H21140  11.097  10.825   7.295 -2.7782  0.0438 -0.8529
  918MOL0     H21141  11.292  10.938   7.348  1.5664  0.3940 -1.4119
  918MOL0     H21142  11.472  11.309   7.338 -0.9978  1.1901  0.5200
  918MOL0     H21143  11.294  11.296   7.358 -0.0340 -0.9463  0.0544
  918MOL0     H21144  11.357  11.492   7.227 -1.2285 -0.0906  1.1464
  918MOL0     H21145  11.288  11.387   7.117 -0.6073  2.3464  0.9040
  918MOL0     H21146  11.527  11.319   7.035  3.1574  2.0676 -1.2886
  918MOL0     H21147  11.598  11.419   7.157  1.5517 -1.0740 -1.9636
  918MOL0     H21148  11.629  11.511   6.964  0.3297  0.5968 -0.8596
  918MOL0     H21149  11.468  11.487   6.889  1.5881 -0.4383 -0.2363
  918MOL0     H21150  11.358  11.666   7.022 -0.4397 -2.0118  2.0900
  918MOL0     H21151  11.498  11.731   6.935 -2.1484  0.8272 -1.5089
  918MOL0     H21152  11.492  11.655   7.223 -1.6087  0.8301 -0.5887
  918MOL0     H21153  11.483  11.820   7.158  2.4088 -0.1478  3.5237
  918MOL0     H21154  11.724  11.639   7.111  1.8962 -0.9219  3.1358
  918MOL0     H21155  11.715  11.811   7.072  1.8749 -0.4220 -1.3552
  918MOL0     H21156  11.655  11.844   7.320 -0.5943 -0.5336  1.5984
  918MOL0     H21157  11.819  11.781   7.302  0.7760 -0.8648  1.2437
  918MOL0     H21158  11.242  11.207   7.009 -2.3501  0.8002  0.0407
  918MOL0     H21159  11.016  11.086   6.964  0.0832 -2.1337  0.0812
  918MOL0     H21160  10.840  10.683   7.000 -0.9872 -1.7824  0.0022
  918MOL0     H21161  10.738  10.567   6.799  1.8091  0.0171  1.1094
  918MOL0     H21162   9.764   9.834   5.578  0.2974  0.1668  0.2696
  918MOL0     H21163   9.586   9.836   5.755  0.1650  1.7335 -0.4426
  918MOL0     H21164   9.336   9.969   6.146  1.2268 -1.2982 -2.8922
  918MOL0     H21165   9.227   9.922   6.362 -2.3770 -3.2680  3.3821
  918MOL0     H21166   9.441   9.662   6.626 -0.1378 -1.5762  1.5666
  918MOL0     H21167   9.295   9.569   6.610 -1.1303 -0.6548  3.1889
  918MOL0     H21168   9.338   9.604   6.816 -2.4258 -0.3693  2.4014
  918MOL0     H21169   9.364   9.779   6.801 -3.3141  1.8261  1.4702
  918MOL0     H21170   9.115   9.620   6.771  2.4303 -0.2866 -3.0935
  918MOL0     H21171   9.117   9.792   6.725  1.2850  1.5656 -0.1021
  918MOL0     H21172   9.154   9.694   7.028  3.3162  0.3459  0.6511
  918MOL0     H21173   9.185   9.864   6.965 -3.4060  1.3211  0.6093
  918MOL0     H21174   8.808   9.896   7.049 -0.8116 -1.8498 -0.5602
  918MOL0     H21175   9.469   9.559   6.407 -0.1442  0.3885  2.7938
  918MOL0     H21176   9.559   9.606   6.185  1.7648  1.1295  1.5746
  919MOL0     O21177   3.673   5.481   8.214  0.4656  0.3781  0.7443
  919MOL0     C21178   3.551   5.486   8.210  0.2948 -0.0814  0.2981
  919MOL0     O21179   3.467   5.403   8.287 -0.1181  0.2861  0.9411
  919MOL0     C21180   3.501   5.279   8.337 -0.1384  0.5886  0.1599
  919MOL0     C21181   3.599   5.199   8.277  0.1945 -1.2579 -0.2498
  919MOL0     C21182   3.621   5.078   8.328 -0.5007 -1.9111 -0.6258
  919MOL0     C21183   3.557   5.027   8.441  0.7302  0.5311  0.3445
  919MOL0     O21184   3.593   4.907   8.496  0.5148 -0.6386  0.5532
  919MOL0     C21185   3.480   4.823   8.519  1.0416 -0.1612  0.5548
  919MOL0     C21186   3.380   4.818   8.395  0.5482 -0.3162  0.2521
  919MOL0     C21187   3.266   4.714   8.397 -0.9868 -0.0791 -0.7311
  919MOL0     C21188   3.209   4.709   8.253 -0.2424  0.5068 -0.4315
  919MOL0     C21189   3.297   4.641   8.146  0.3651 -1.1572  0.1414
  919MOL0     C21190   3.333   4.497   8.180 -0.5522  0.1444 -1.0132
  919MOL0     C21191   3.402   4.424   8.070 -0.3993  0.2198  1.2819
  919MOL0     C21192   3.559   4.442   8.078  0.5649  0.8291  0.7201
  919MOL0     N21193   3.635   4.376   7.971  0.7456  0.5497  0.3697
  919MOL0     C21194   3.676   4.435   7.854  0.6859  0.3504  0.6761
  919MOL0     C21195   3.745   4.342   7.786 -0.4306 -0.2506 -0.3701
  919MOL0     C21196   3.825   4.360   7.658 -0.1444  0.0746  0.1030
  919MOL0     C21197   3.732   4.392   7.547  0.3966 -0.0401 -0.9086
  919MOL0     C21198   3.646   4.264   7.519 -0.4572 -0.8092 -0.7850
  919MOL0     C21199   3.572   4.280   7.393  0.2109  0.0391 -0.5973
  919MOL0     O21200   3.647   4.274   7.270 -0.4127  0.3662  0.4049
  919MOL0     C21201   3.674   4.148   7.222 -0.3829 -0.5385  0.3517
  919MOL0     C21202   3.572   4.055   7.190 -1.1600  0.4034  0.0157
  919MOL0     C21203   3.605   3.916   7.162 -0.0225 -1.4264 -0.2104
  919MOL0     C21204   3.737   3.884   7.143 -0.7421 -0.7814 -0.0615
  919MOL0     C21205   3.765   3.742   7.104 -0.0621  0.0606 -0.9555
  919MOL0     O21206   3.897   3.691   7.113  0.1517 -0.8001 -0.6967
  919MOL0     C21207   3.922   3.586   7.036 -1.0232 -0.3447 -0.5744
  919MOL0     C21208   3.893   3.450   7.075  0.2990 -0.4606 -0.4869
  919MOL0     C21209   3.931   3.346   6.993 -0.1452 -1.2497 -0.1395
  919MOL0     C21210   4.011   3.380   6.879 -0.3127 -0.4716  0.1061
  919MOL0     O21211   4.051   3.274   6.805  0.0580 -0.5197  1.0946
  919MOL0     C21212   4.179   3.221   6.818  0.0473 -0.1921  0.4261
  919MOL0     C21213   4.246   3.202   6.681 -0.3270 -0.6160  0.2309
  919MOL0     C21214   4.193   3.081   6.598 -0.3282 -0.4533 -0.5086
  919MOL0     C21215   4.254   2.942   6.637  1.1738  0.0700  0.0523
  919MOL0     C21216   4.160   2.863   6.731 -0.5280 -0.1145 -0.2117
  919MOL0     C21217   4.039   2.821   6.658 -0.6622  0.2230 -0.6219
  919MOL0     C21218   3.991   2.695   6.720  0.0830  0.3752 -0.3361
  919MOL0     C21219   3.857   2.665   6.647  0.0548 -0.8568  0.0694
  919MOL0    Cl21220   3.836   2.484   6.657 -0.2652 -0.2022  0.2007
  919MOL0     C21221   4.030   3.514   6.842 -0.4006  1.3299  0.8625
  919MOL0     C21222   3.980   3.620   6.915 -0.1263 -0.8857 -0.4093
  919MOL0     O21223   3.664   3.665   7.078  0.5205  0.2538 -0.0092
  919MOL0     C21224   3.836   3.977   7.174 -0.2859  0.0473  0.2436
  919MOL0     C21225   3.810   4.107   7.217 -0.0465  0.2031  1.0228
  919MOL0     N21226   3.752   4.224   7.859  0.2731  1.1022 -0.7629
  919MOL0     N21227   3.695   4.248   7.978  0.0192 -0.1901  0.3497
  919MOL0     C21228   3.463   5.112   8.504 -0.1623  0.8170 -0.8225
  919MOL0     C21229   3.426   5.225   8.441  0.2270 -0.6397 -0.5650
  919MOL0     C21230   3.484   5.593   8.124  0.0102  0.6073 -0.2592
  919MOL0     C21231   3.502   5.740   8.145  0.1493  0.9231  0.2137
  919MOL0     C21232   3.432   5.821   8.056 -0.2990 -0.1716  0.0777
  919MOL0     C21233   3.350   5.773   7.962  0.4028 -0.1900 -0.1299
  919MOL0     O21234   3.305   5.872   7.892  0.9473 -0.8457 -0.2299
  919MOL0     C21235   3.219   5.847   7.782  0.2415  0.4050 -0.3122
  919MOL0     C21236   3.308   5.810   7.659  0.3738 -0.0928 -0.0481
  919MOL0     C21237   3.405   5.920   7.616 -0.2957  0.9882  0.6170
  919MOL0     C21238   3.497   5.888   7.498  0.3767 -0.5401  0.3650
  919MOL0     C21239   3.409   5.856   7.378  0.8678 -0.0492 -0.4675
  919MOL0     C21240   3.321   5.826   7.299  0.4254  0.9356  1.0079
  919MOL0     C21241   3.322   5.632   7.955 -0.6112 -0.8453  0.4058
  919MOL0     C21242   3.400   5.556   8.032 -0.4816 -0.6888  0.9288
  919MOL0     H21243   3.650   5.239   8.189 -0.2803 -2.6422 -1.1911
  919MOL0     H21244   3.697   5.014   8.285  0.3596 -0.5200 -1.2427
  919MOL0     H21245   3.428   4.864   8.606  1.9831  0.9153  0.6297
  919MOL0     H21246   3.512   4.720   8.542 -1.6373 -0.9486  1.0944
  919MOL0     H21247   3.446   4.780   8.317  2.0703 -0.8337  1.7281
  919MOL0     H21248   3.342   4.915   8.364  0.5788 -0.4762 -0.2989
  919MOL0     H21249   3.181   4.759   8.450  0.7019  2.4756  0.0173
  919MOL0     H21250   3.292   4.614   8.432 -0.9271  0.2144  0.0852
  919MOL0     H21251   3.109   4.665   8.255 -0.1697  0.2656 -1.4062
  919MOL0     H21252   3.193   4.814   8.228 -3.3235  0.6161  1.4767
  919MOL0     H21253   3.390   4.693   8.122 -0.1855 -0.7781 -1.2538
  919MOL0     H21254   3.248   4.649   8.048  1.5184  0.0018 -0.3707
  919MOL0     H21255   3.237   4.453   8.209 -0.5099 -0.2338 -1.4356
  919MOL0     H21256   3.402   4.489   8.264  1.5242  2.5675 -2.3439
  919MOL0     H21257   3.377   4.318   8.077 -1.5525  0.1017 -2.3465
  919MOL0     H21258   3.363   4.465   7.976  1.6744  0.7486  0.6169
  919MOL0     H21259   3.589   4.401   8.174 -0.7409 -2.2642 -0.0533
  919MOL0     H21260   3.574   4.550   8.075  3.2842  0.5646 -3.1228
  919MOL0     H21261   3.654   4.532   7.810 -2.5981 -0.4412  0.2718
  919MOL0     H21262   3.892   4.277   7.636 -0.4120  0.1646 -1.1078
  919MOL0     H21263   3.895   4.443   7.674 -0.9571  0.9625 -0.8307
  919MOL0     H21264   3.787   4.427   7.459 -0.7951  0.6969 -1.3962
  919MOL0     H21265   3.667   4.471   7.587  1.8759 -0.5162  2.8200
  919MOL0     H21266   3.704   4.172   7.528  2.3258  0.8954 -0.1323
  919MOL0     H21267   3.570   4.260   7.597  0.2194 -2.6897 -0.1620
  919MOL0     H21268   3.543   4.385   7.393  3.1905  0.9514  0.7404
  919MOL0     H21269   3.490   4.208   7.386 -1.8099  2.2905 -1.5394
  919MOL0     H21270   3.465   4.072   7.184 -0.8873  1.6135 -2.6856
  919MOL0     H21271   3.525   3.844   7.147  1.1796 -2.3833 -2.3804
  919MOL0     H21272   3.823   3.423   7.153 -1.5240 -2.3128 -2.5796
  919MOL0     H21273   3.907   3.240   6.995  1.8323 -1.7830 -1.5199
  919MOL0     H21274   4.166   3.132   6.880 -0.3773  0.2918  1.0542
  919MOL0     H21275   4.236   3.289   6.882 -1.2829  3.2233 -1.7117
  919MOL0     H21276   4.354   3.193   6.695 -0.1531  1.1225  0.1495
  919MOL0     H21277   4.245   3.290   6.617  2.9732 -0.3390  0.3918
  919MOL0     H21278   4.223   3.103   6.495  0.4776  2.2596  0.2038
  919MOL0     H21279   4.086   3.061   6.583 -0.2513 -2.3440  1.1040
  919MOL0     H21280   4.272   2.885   6.545 -0.0767 -0.1449 -0.0843
  919MOL0     H21281   4.349   2.950   6.690  1.1330 -1.3620  0.3787
  919MOL0     H21282   4.140   2.913   6.826  2.5252 -0.7727  0.8650
  919MOL0     H21283   4.225   2.778   6.750 -2.5265 -1.4498  0.9945
  919MOL0     H21284   4.066   2.786   6.558  1.1338  1.4305 -0.6207
  919MOL0     H21285   3.968   2.903   6.647 -1.6588  0.0866  3.3517
  919MOL0     H21286   4.047   2.609   6.682  1.4073  1.4773 -0.9829
  919MOL0     H21287   3.983   2.705   6.828  0.8557  0.9319 -0.3150
  919MOL0     H21288   3.851   2.696   6.543 -2.1763 -3.7580 -0.7936
  919MOL0     H21289   3.777   2.711   6.705  0.4897  0.7140 -0.5299
  919MOL0     H21290   4.093   3.527   6.754 -0.3062 -0.8866  0.5611
  919MOL0     H21291   4.001   3.723   6.887  1.0485 -0.9970 -0.0222
  919MOL0     H21292   3.941   3.953   7.159 -0.4721 -0.1348 -0.8277
  919MOL0     H21293   3.879   4.181   7.257 -3.0992  2.7359  1.9821
  919MOL0     H21294   3.401   5.089   8.590  1.3143 -0.0799  0.0367
  919MOL0     H21295   3.333   5.275   8.465  0.1664 -0.7927 -0.4836
  919MOL0     H21296   3.560   5.786   8.224 -3.1487  3.8524  1.1403
  919MOL0     H21297   3.456   5.926   8.066  0.2388 -0.1960 -0.9043
  919MOL0     H21298   3.138   5.920   7.775 -3.3567 -3.0081  1.9947
  919MOL0     H21299   3.165   5.756   7.807  1.7004 -0.3362  0.2432
  919MOL0     H21300   3.375   5.727   7.685 -0.2602 -2.0714 -4.0767
  919MOL0     H21301   3.241   5.766   7.585  1.3120  2.6599 -2.7354
  919MOL0     H21302   3.468   5.949   7.701  1.7205  5.0734 -1.9787
  919MOL0     H21303   3.356   6.015   7.592  1.1995  2.2989  2.3894
  919MOL0     H21304   3.563   5.973   7.482 -0.8259 -0.1021 -2.9798
  919MOL0     H21305   3.561   5.800   7.512 -2.5634 -2.6003  1.8447
  919MOL0     H21306   3.239   5.805   7.233  1.6564 -1.0699 -0.0023
  919MOL0     H21307   3.263   5.591   7.875 -0.5516 -0.0703 -0.0505
  919MOL0     H21308   3.376   5.453   8.006 -4.6811  0.2118  0.5149
  920MOL0     O21309  10.167   2.475   6.823  0.0830 -0.0567  0.0533
  920MOL0     C21310  10.204   2.516   6.714  0.5277 -0.4232  0.6982
  920MOL0     O21311  10.274   2.634   6.695 -0.0524 -0.3993  0.2737
  920MOL0     C21312  10.264   2.737   6.785 -0.5777 -0.1046  0.4800
  920MOL0     C21313  10.373   2.798   6.832  0.4665  0.2105 -0.5799
  920MOL0     C21314  10.365   2.922   6.908  0.0791  0.1558 -0.7247
  920MOL0     C21315  10.235   2.988   6.928  0.3120  0.4395  0.2428
  920MOL0     O21316  10.207   3.107   6.979  0.4009  0.3083 -0.5508
  920MOL0     C21317  10.303   3.209   6.954  0.2573 -0.0618  0.6580
  920MOL0     C21318  10.300   3.243   6.794  0.0301 -0.1662 -0.1276
  920MOL0     C21319  10.161   3.305   6.753 -0.0237 -0.4366 -0.0379
  920MOL0     C21320  10.166   3.307   6.593 -0.1076 -0.7907 -0.0288
  920MOL0     C21321  10.059   3.393   6.539  0.1904 -0.8681 -0.7426
  920MOL0     C21322  10.094   3.543   6.568  0.4287  0.3608  0.5668
  920MOL0     C21323   9.970   3.622   6.559 -0.1579  0.4547  0.3573
  920MOL0     C21324  10.006   3.772   6.585  0.4056 -0.3479  0.9433
  920MOL0     N21325   9.901   3.872   6.549 -0.2745  0.3219  0.2160
  920MOL0     C21326   9.800   3.906   6.637  0.3736 -0.0315  0.4967
  920MOL0     C21327   9.712   3.960   6.549 -0.6133 -0.2092 -0.1100
  920MOL0     C21328   9.581   4.014   6.581  0.6914  0.7250  0.2692
  920MOL0     C21329   9.503   3.922   6.677 -0.3373  0.7424 -0.4590
  920MOL0     C21330   9.354   3.959   6.693  0.7400  1.4029 -0.2751
  920MOL0     C21331   9.285   3.849   6.774 -0.0218 -0.1241 -0.0871
  920MOL0     O21332   9.300   3.717   6.708 -0.3364 -0.1220  0.2081
  920MOL0     C21333   9.215   3.616   6.755  0.4022 -0.5814  0.0681
  920MOL0     C21334   9.176   3.520   6.660 -0.4727 -0.1525 -0.5547
  920MOL0     C21335   9.082   3.420   6.696 -0.6250  0.1538  0.2514
  920MOL0     C21336   9.019   3.415   6.815  0.6134 -0.5274 -0.8161
  920MOL0     C21337   8.913   3.309   6.831 -0.2102  0.1688 -0.6097
  920MOL0     O21338   8.836   3.269   6.727  0.0669 -0.1713  0.1836
  920MOL0     C21339   8.719   3.198   6.761  0.3003 -0.2372 -0.9405
  920MOL0     C21340   8.675   3.097   6.675 -0.5570  0.1746 -0.2840
  920MOL0     C21341   8.573   2.996   6.707 -0.8740 -0.3824  0.4400
  920MOL0     C21342   8.509   3.009   6.823  0.2055  0.5060  1.2001
  920MOL0     O21343   8.410   2.913   6.848  1.1303 -1.0820  0.4649
  920MOL0     C21344   8.336   2.910   6.963 -0.1015  0.1035  1.0825
  920MOL0     C21345   8.249   2.788   6.951 -0.1813 -0.9028  0.6158
  920MOL0     C21346   8.158   2.769   7.067  0.7031  0.1011  0.3227
  920MOL0     C21347   8.231   2.721   7.193 -0.6779  0.1327  0.0843
  920MOL0     C21348   8.154   2.734   7.328 -0.5684 -0.7173 -0.4727
  920MOL0     C21349   8.019   2.648   7.323 -0.1128 -0.1816 -0.1443
  920MOL0     C21350   7.942   2.686   7.446 -0.3049 -0.3902 -0.0529
  920MOL0     C21351   7.836   2.589   7.486 -1.3155  0.3746 -0.3044
  920MOL0    Cl21352   7.730   2.642   7.632 -0.0300 -0.2999  0.2877
  920MOL0     C21353   8.545   3.106   6.915 -0.0486 -0.3284  0.1884
  920MOL0     C21354   8.649   3.202   6.884  0.1202  0.3084  0.2158
  920MOL0     O21355   8.900   3.292   6.950 -0.1900  0.7061  0.3449
  920MOL0     C21356   9.072   3.493   6.921 -0.4955  0.1478 -0.3435
  920MOL0     C21357   9.164   3.599   6.888  0.2421 -0.1483  0.6470
  920MOL0     N21358   9.761   3.975   6.423 -1.0200 -0.5544 -0.1736
  920MOL0     N21359   9.876   3.920   6.423 -0.2110  0.3686  0.0173
  920MOL0     C21360  10.131   2.916   6.873 -0.4555  0.4437 -0.0010
  920MOL0     C21361  10.139   2.787   6.814 -0.3812  0.0782  0.1486
  920MOL0     C21362  10.164   2.431   6.606 -0.1492  0.4697  0.2083
  920MOL0     C21363  10.112   2.296   6.619  0.2789 -0.7397 -0.4224
  920MOL0     C21364  10.078   2.227   6.504 -0.5013 -0.0755  0.7239
  920MOL0     C21365  10.091   2.279   6.372 -0.3287 -0.6935 -1.1113
  920MOL0     O21366  10.044   2.206   6.275 -0.5958 -0.4267 -0.2829
  920MOL0     C21367  10.042   2.242   6.141  0.9094  0.8317 -0.5364
  920MOL0     C21368   9.945   2.144   6.056  0.5169 -0.2400 -0.0197
  920MOL0     C21369   9.798   2.148   6.095 -0.6218  0.0828  1.1846
  920MOL0     C21370   9.735   2.009   6.130 -0.2431  0.0114 -0.9513
  920MOL0     C21371   9.767   1.959   6.267 -0.5154 -0.2493 -0.5873
  920MOL0     C21372   9.804   1.924   6.374 -0.9441 -0.6212  0.1285
  920MOL0     C21373  10.147   2.413   6.365 -0.2929  0.2685  0.4002
  920MOL0     C21374  10.176   2.483   6.483  0.7443  1.0910  0.4190
  920MOL0     H21375  10.467   2.756   6.797 -1.2075 -3.5600 -1.0595
  920MOL0     H21376  10.454   2.979   6.931  0.7584 -1.0149 -0.3489
  920MOL0     H21377  10.402   3.171   6.983 -0.6948 -2.5486  0.8739
  920MOL0     H21378  10.277   3.296   7.015 -3.1437  0.6595 -1.5325
  920MOL0     H21379  10.315   3.147   6.744  4.3387 -1.1161  2.4832
  920MOL0     H21380  10.377   3.317   6.766 -1.6038  2.6898  2.2722
  920MOL0     H21381  10.168   3.404   6.799 -0.6062  0.2889 -1.4492
  920MOL0     H21382  10.075   3.245   6.782  0.9034 -2.6759 -1.6255
  920MOL0     H21383  10.255   3.351   6.547 -1.3245 -0.3247 -2.0594
  920MOL0     H21384  10.160   3.201   6.569 -1.0042 -0.5329 -1.0093
  920MOL0     H21385   9.961   3.380   6.588  0.8589 -2.9619  0.1667
  920MOL0     H21386  10.052   3.377   6.431 -0.3394  0.6020 -0.9477
  920MOL0     H21387  10.166   3.584   6.496 -2.5382  0.5326 -2.5252
  920MOL0     H21388  10.131   3.565   6.668 -0.9079 -1.0955  1.4234
  920MOL0     H21389   9.933   3.620   6.457  1.2946 -1.4079 -0.1831
  920MOL0     H21390   9.889   3.597   6.629  0.0042  3.2455  1.7022
  920MOL0     H21391  10.102   3.794   6.537  1.9781 -1.0812  3.5698
  920MOL0     H21392  10.030   3.777   6.691  1.2794 -0.8241  0.7783
  920MOL0     H21393   9.801   3.904   6.745  0.6095  2.0739  0.5758
  920MOL0     H21394   9.528   4.015   6.485  0.5084  0.9721  0.3702
  920MOL0     H21395   9.586   4.116   6.621 -1.9218  1.0818 -0.0985
  920MOL0     H21396   9.558   3.921   6.771 -0.3474  0.3764 -0.4521
  920MOL0     H21397   9.517   3.818   6.643  1.3076 -0.3837  3.1289
  920MOL0     H21398   9.362   4.060   6.735  2.7150  0.4464  1.8563
  920MOL0     H21399   9.305   3.950   6.595  0.5643  0.8013 -0.1347
  920MOL0     H21400   9.179   3.871   6.789  0.6151  1.9328  1.8256
  920MOL0     H21401   9.336   3.837   6.870  0.5509 -1.1315 -0.4963
  920MOL0     H21402   9.220   3.529   6.561  2.9126 -1.1739  0.7367
  920MOL0     H21403   9.039   3.354   6.621 -2.8125 -1.2777  2.5897
  920MOL0     H21404   8.727   3.083   6.580  1.6501  1.5703  0.6444
  920MOL0     H21405   8.547   2.928   6.626 -2.6059  1.9107 -1.0367
  920MOL0     H21406   8.270   2.997   6.974  0.7414  0.9278 -0.0166
  920MOL0     H21407   8.406   2.908   7.046  4.3516 -1.2458 -2.3132
  920MOL0     H21408   8.306   2.696   6.940 -0.9731 -1.8352  3.5970
  920MOL0     H21409   8.191   2.798   6.858 -1.6984 -2.5839  1.3400
  920MOL0     H21410   8.078   2.698   7.044  1.5757 -0.1493 -2.2500
  920MOL0     H21411   8.109   2.866   7.084  1.3773  0.0891  2.8186
  920MOL0     H21412   8.282   2.625   7.179 -1.4110 -0.7768  2.9308
  920MOL0     H21413   8.307   2.799   7.206 -0.5020 -0.2210  1.3823
  920MOL0     H21414   8.145   2.838   7.362  3.7709 -0.8892  1.8433
  920MOL0     H21415   8.212   2.697   7.413 -3.1251 -2.9597  0.4335
  920MOL0     H21416   8.033   2.540   7.314 -0.3017 -0.0302 -4.3313
  920MOL0     H21417   7.964   2.678   7.233 -2.7227  0.4968  1.5820
  920MOL0     H21418   8.003   2.677   7.537 -1.6562  2.7321  1.3183
  920MOL0     H21419   7.910   2.789   7.430  1.2622 -0.0731 -1.4101
  920MOL0     H21420   7.869   2.490   7.519 -0.7100  1.2674  1.8870
  920MOL0     H21421   7.779   2.575   7.393 -1.9330 -1.5338  0.3217
  920MOL0     H21422   8.489   3.125   7.006 -0.6612 -0.0832 -0.2312
  920MOL0     H21423   8.668   3.274   6.963 -1.6536 -2.8818  3.8867
  920MOL0     H21424   9.029   3.482   7.020  0.5205 -2.5359 -0.1203
  920MOL0     H21425   9.184   3.671   6.968 -2.6939 -0.3475  1.6922
  920MOL0     H21426  10.028   2.949   6.874  0.1655  2.7152 -2.2079
  920MOL0     H21427  10.051   2.746   6.764 -1.0168  1.5857 -0.0336
  920MOL0     H21428  10.095   2.247   6.714 -0.7350 -1.2224 -0.8396
  920MOL0     H21429  10.038   2.127   6.496 -1.9995  0.6487 -2.1537
  920MOL0     H21430  10.142   2.237   6.097  1.0258  1.4853 -0.3473
  920MOL0     H21431  10.002   2.343   6.127  0.4505  0.6141 -0.8241
  920MOL0     H21432   9.970   2.168   5.952  3.2718  0.6025  0.7604
  920MOL0     H21433   9.984   2.044   6.077 -1.1412 -0.6815  1.1939
  920MOL0     H21434   9.749   2.201   6.013 -0.8320  0.8345  1.7829
  920MOL0     H21435   9.795   2.220   6.177 -1.2589  1.7233 -0.2109
  920MOL0     H21436   9.627   2.014   6.118 -0.2362  0.9484 -0.6452
  920MOL0     H21437   9.764   1.926   6.064  0.1142 -3.0481  2.6604
  920MOL0     H21438   9.848   1.893   6.467  0.1843  3.0033  0.9307
  920MOL0     H21439  10.138   2.461   6.269 -1.1299  0.5946  0.6269
  920MOL0     H21440  10.220   2.580   6.465  0.8609  0.8738 -0.5559
  921MOL0     O21441   5.796   4.677   2.638  0.7766  0.2552 -0.2335
  921MOL0     C21442   5.760   4.618   2.536 -0.0929  0.7414  0.4976
  921MOL0     O21443   5.828   4.597   2.425  0.4131 -0.8341  0.7531
  921MOL0     C21444   5.952   4.661   2.411 -0.3242  0.3415  1.1360
  921MOL0     C21445   5.968   4.800   2.362 -0.2910  0.3686  0.1153
  921MOL0     C21446   6.087   4.858   2.365  0.7430 -0.8527  0.2661
  921MOL0     C21447   6.195   4.799   2.419  0.0207 -0.4676  0.2178
  921MOL0     O21448   6.324   4.854   2.422 -1.0122  0.0619  0.7095
  921MOL0     C21449   6.342   4.974   2.499 -0.7779  0.2590 -0.2165
  921MOL0     C21450   6.337   4.941   2.650 -0.1893  0.4645  0.4054
  921MOL0     C21451   6.357   5.059   2.747  0.0814  0.6049 -0.8523
  921MOL0     C21452   6.352   5.009   2.893 -0.1027  0.4439  0.5438
  921MOL0     C21453   6.382   5.118   2.990  0.8511 -0.5415  0.4829
  921MOL0     C21454   6.408   5.057   3.126  0.3123 -0.3063  1.1483
  921MOL0     C21455   6.452   5.172   3.216  1.1763  0.1428  0.4648
  921MOL0     C21456   6.529   5.109   3.329 -0.5164  0.3995 -1.1651
  921MOL0     N21457   6.481   5.162   3.463 -0.1894  0.0635  0.6149
  921MOL0     C21458   6.487   5.087   3.580 -0.2223 -0.0995  1.2403
  921MOL0     C21459   6.461   5.179   3.674  0.1659 -0.1324  0.0597
  921MOL0     C21460   6.453   5.146   3.820  0.1256 -0.1464 -0.8031
  921MOL0     C21461   6.311   5.141   3.866 -1.1557  1.1952  0.5281
  921MOL0     C21462   6.315   5.098   4.013  0.0978 -0.1732  0.9437
  921MOL0     C21463   6.393   5.181   4.113 -0.6938 -0.2235  0.1894
  921MOL0     O21464   6.530   5.130   4.129  0.4529 -0.3319 -0.8291
  921MOL0     C21465   6.606   5.180   4.238  0.4884  1.0969  0.1256
  921MOL0     C21466   6.550   5.273   4.325 -0.0462 -0.8514 -0.3507
  921MOL0     C21467   6.609   5.312   4.445 -0.7349 -0.0418  0.7062
  921MOL0     C21468   6.742   5.244   4.476 -0.0145  1.4001 -0.4356
  921MOL0     C21469   6.822   5.304   4.585  0.6264  0.2878 -0.3906
  921MOL0     O21470   6.940   5.240   4.622 -0.2496  0.2963 -0.4892
  921MOL0     C21471   7.028   5.293   4.715 -1.0330 -0.8591 -1.0870
  921MOL0     C21472   6.985   5.372   4.822 -0.5863  0.2149  1.0871
  921MOL0     C21473   7.075   5.416   4.922 -0.1703 -0.2489  0.4261
  921MOL0     C21474   7.217   5.400   4.906 -1.5095 -0.2009 -0.1707
  921MOL0     O21475   7.303   5.480   4.985 -0.0430  0.5458  0.7928
  921MOL0     C21476   7.442   5.506   4.958 -0.4228 -0.8890  0.2416
  921MOL0     C21477   7.510   5.564   5.080 -0.0551 -0.2604 -0.9957
  921MOL0     C21478   7.497   5.490   5.217  0.1413 -0.8216  0.0298
  921MOL0     C21479   7.567   5.358   5.195 -0.6507  0.4130 -0.2282
  921MOL0     C21480   7.545   5.270   5.318  0.3278 -0.9608  0.1115
  921MOL0     C21481   7.620   5.143   5.313 -0.2988 -0.4425 -0.2975
  921MOL0     C21482   7.573   5.059   5.431  0.4442 -0.5265 -0.2127
  921MOL0     C21483   7.653   4.941   5.449  0.0007 -0.5627  0.1953
  921MOL0    Cl21484   7.789   4.986   5.549 -0.6112 -0.3255  0.1710
  921MOL0     C21485   7.260   5.330   4.793  0.1193 -0.2629 -0.3688
  921MOL0     C21486   7.168   5.269   4.705  0.5123 -0.0136 -0.2767
  921MOL0     O21487   6.781   5.414   4.621 -0.7260 -0.7083 -0.0610
  921MOL0     C21488   6.789   5.143   4.395  0.0415  1.1829  0.6984
  921MOL0     C21489   6.727   5.111   4.273  0.4852  0.3630  0.3105
  921MOL0     N21490   6.440   5.301   3.618 -0.5539 -0.9401 -0.2636
  921MOL0     N21491   6.431   5.287   3.495 -0.2935 -0.1517  0.4387
  921MOL0     C21492   6.190   4.666   2.460 -0.3178  0.5166 -0.7664
  921MOL0     C21493   6.066   4.591   2.457  0.1422 -0.0962 -0.7340
  921MOL0     C21494   5.630   4.554   2.544  0.1156 -0.4605  0.2707
  921MOL0     C21495   5.574   4.461   2.451 -0.6569 -0.3042 -0.1532
  921MOL0     C21496   5.444   4.414   2.465 -0.1818  0.9117 -0.3043
  921MOL0     C21497   5.374   4.440   2.585  0.3793  0.0306  0.0176
  921MOL0     O21498   5.251   4.373   2.602  0.1876 -0.6801  0.0984
  921MOL0     C21499   5.258   4.238   2.598 -1.2594 -0.2086 -0.6163
  921MOL0     C21500   5.362   4.184   2.703 -0.0203  0.6640  0.0429
  921MOL0     C21501   5.355   4.032   2.728 -1.1167  1.2304 -0.2987
  921MOL0     C21502   5.212   3.970   2.742  0.1934  0.1180  0.5000
  921MOL0     C21503   5.207   3.866   2.848 -0.2502  0.9842  0.6903
  921MOL0     C21504   5.201   3.785   2.941  0.1316 -0.4253 -0.3925
  921MOL0     C21505   5.420   4.534   2.675  1.0498 -0.3729  0.1722
  921MOL0     C21506   5.545   4.595   2.651 -0.4247 -0.7448  0.3346
  921MOL0     H21507   5.878   4.849   2.326 -1.0810 -1.0908  0.0169
  921MOL0     H21508   6.076   4.956   2.321 -1.9433 -0.8567  0.7638
  921MOL0     H21509   6.265   5.049   2.482  0.5528  1.2257 -2.4260
  921MOL0     H21510   6.437   5.023   2.475  0.0231 -0.0602  2.0138
  921MOL0     H21511   6.418   4.868   2.654  1.6415  2.3916 -0.1940
  921MOL0     H21512   6.237   4.899   2.668 -0.0263 -0.0277  0.1709
  921MOL0     H21513   6.274   5.130   2.742 -2.1404 -1.7800  0.1386
  921MOL0     H21514   6.454   5.102   2.720  0.3195 -0.3237 -1.5051
  921MOL0     H21515   6.255   4.974   2.930  0.2238  0.3632  1.3476
  921MOL0     H21516   6.423   4.927   2.907  0.0949 -0.3288 -3.7310
  921MOL0     H21517   6.294   5.180   3.006  3.8140  4.0968  0.6791
  921MOL0     H21518   6.463   5.184   2.958  0.5747  0.1544  1.2001
  921MOL0     H21519   6.484   4.979   3.113 -1.8268 -2.0282 -3.1027
  921MOL0     H21520   6.319   5.015   3.174  1.3165 -0.9201  2.5481
  921MOL0     H21521   6.533   5.230   3.170  1.2504 -0.1450  0.2304
  921MOL0     H21522   6.374   5.242   3.246  0.8375  0.5080 -1.1496
  921MOL0     H21523   6.633   5.144   3.323  1.2818 -3.9021  0.0957
  921MOL0     H21524   6.528   4.999   3.335 -0.2380  0.4678  0.8706
  921MOL0     H21525   6.506   4.982   3.598 -2.3837 -1.0028 -1.1245
  921MOL0     H21526   6.503   5.238   3.852 -2.6453  1.6702 -1.3794
  921MOL0     H21527   6.511   5.062   3.859  1.0683  1.9997  2.9439
  921MOL0     H21528   6.267   5.070   3.795 -0.1420  2.4535 -1.4762
  921MOL0     H21529   6.269   5.242   3.855  3.7962  3.5623  0.5387
  921MOL0     H21530   6.210   5.110   4.041 -0.3921 -2.3642  0.1699
  921MOL0     H21531   6.345   4.994   4.022  0.3586 -0.6654 -3.4465
  921MOL0     H21532   6.347   5.183   4.212  0.6424  1.3325  0.8368
  921MOL0     H21533   6.390   5.286   4.083 -0.6181 -0.6203 -1.2727
  921MOL0     H21534   6.455   5.319   4.300 -1.9201 -3.2790  1.7421
  921MOL0     H21535   6.565   5.373   4.523  1.0627  1.8082  0.3621
  921MOL0     H21536   6.884   5.408   4.840 -0.0758  2.5180 -0.1530
  921MOL0     H21537   7.031   5.469   5.006  0.7573  1.3888 -0.0763
  921MOL0     H21538   7.439   5.587   4.884 -4.0996 -0.9373  0.1239
  921MOL0     H21539   7.503   5.419   4.930  2.8386 -0.5125  5.0064
  921MOL0     H21540   7.474   5.666   5.095  0.4790 -0.3386  1.1562
  921MOL0     H21541   7.617   5.584   5.069  0.2873 -1.3804  0.1148
  921MOL0     H21542   7.391   5.480   5.243 -0.4921 -0.2278 -2.0974
  921MOL0     H21543   7.548   5.550   5.293 -1.1920 -1.4174  1.4426
  921MOL0     H21544   7.523   5.312   5.106  1.0327  2.7810 -2.4446
  921MOL0     H21545   7.674   5.379   5.182 -1.0015  0.6397 -3.6020
  921MOL0     H21546   7.439   5.244   5.315 -0.4394  1.8478 -1.2202
  921MOL0     H21547   7.568   5.325   5.410  1.0669 -1.4128  0.2089
  921MOL0     H21548   7.727   5.164   5.313 -0.2001 -0.9370  0.0240
  921MOL0     H21549   7.592   5.092   5.220  0.5206  0.8676 -1.2857
  921MOL0     H21550   7.594   5.106   5.528  2.2987  0.9479 -1.2543
  921MOL0     H21551   7.466   5.045   5.414 -0.0200  2.3609 -0.1715
  921MOL0     H21552   7.672   4.900   5.349  0.9472 -0.5447  0.3590
  921MOL0     H21553   7.588   4.865   5.493 -1.3426 -2.1242 -3.9587
  921MOL0     H21554   7.366   5.323   4.773  0.1761  0.4231 -0.3276
  921MOL0     H21555   7.198   5.213   4.617 -2.1571 -2.7056  0.3523
  921MOL0     H21556   6.884   5.096   4.416 -0.9426 -0.9228  0.7005
  921MOL0     H21557   6.781   5.045   4.206 -0.1071  0.7344 -0.5538
  921MOL0     H21558   6.278   4.613   2.496 -2.6962 -2.6448  0.9432
  921MOL0     H21559   6.064   4.485   2.482 -1.7471  0.2324  0.7678
  921MOL0     H21560   5.636   4.425   2.369  2.2958  0.0761  1.7840
  921MOL0     H21561   5.398   4.348   2.392  0.8441  1.5730 -1.5852
  921MOL0     H21562   5.271   4.203   2.495 -3.9872 -0.7701 -0.8665
  921MOL0     H21563   5.154   4.209   2.617 -0.7692 -1.1906  0.7205
  921MOL0     H21564   5.466   4.215   2.691  0.4722 -0.9605 -0.2144
  921MOL0     H21565   5.327   4.225   2.798 -1.6202  2.0193 -1.0717
  921MOL0     H21566   5.407   4.018   2.824 -2.3551  3.4390  0.7926
  921MOL0     H21567   5.409   3.982   2.648 -1.6761  1.4573 -0.8263
  921MOL0     H21568   5.141   4.050   2.762  1.8191  1.9973 -0.8303
  921MOL0     H21569   5.189   3.919   2.647  2.1237 -2.3845  1.2608
  921MOL0     H21570   5.207   3.722   3.028 -0.7122 -0.2665 -0.2174
  921MOL0     H21571   5.357   4.564   2.758  0.6949 -0.0027 -0.2287
  921MOL0     H21572   5.568   4.677   2.719 -0.2980 -1.2093  0.8566
  922MOL0     O21573   7.904   6.881  10.954  0.3549  0.3152 -0.5842
  922MOL0     C21574   7.830   6.942  11.024 -0.1368  0.0857  1.1147
  922MOL0     O21575   7.831   7.082  11.030 -0.9523 -0.4255 -0.5528
  922MOL0     C21576   7.921   7.146  10.941  0.9695  0.5114 -0.3290
  922MOL0     C21577   8.065   7.123  10.944  0.3084 -0.7342  0.1223
  922MOL0     C21578   8.146   7.177  10.845  1.6420 -0.4249  0.5344
  922MOL0     C21579   8.093   7.276  10.759  0.1918 -0.0253  0.1038
  922MOL0     O21580   8.169   7.322  10.656  0.0790  1.1804  0.5171
  922MOL0     C21581   8.310   7.343  10.677  0.0180  0.6180  0.0622
  922MOL0     C21582   8.383   7.439  10.576  0.4914 -0.3750 -0.2140
  922MOL0     C21583   8.345   7.593  10.590  0.2903  0.0641 -0.2645
  922MOL0     C21584   8.393   7.683  10.479 -0.0157 -1.2269 -0.7398
  922MOL0     C21585   8.341   7.636  10.343 -0.6113 -1.0396  0.5389
  922MOL0     C21586   8.449   7.614  10.241 -0.7569  0.3328 -0.4056
  922MOL0     C21587   8.418   7.522  10.131  0.6706 -0.4488  0.3450
  922MOL0     C21588   8.548   7.485  10.057 -0.8039  1.0113 -0.1168
  922MOL0     N21589   8.504   7.416   9.941 -0.1986 -0.0802  0.2527
  922MOL0     C21590   8.438   7.299   9.956 -0.3892 -0.4342  0.1236
  922MOL0     C21591   8.392   7.275   9.835  0.0414  0.0459  0.3272
  922MOL0     C21592   8.320   7.143   9.804 -1.1744 -1.0315  0.3355
  922MOL0     C21593   8.173   7.161   9.755  0.1790 -0.6277  0.8465
  922MOL0     C21594   8.148   7.267   9.648  0.3738 -0.6983  0.3378
  922MOL0     C21595   8.215   7.239   9.506  0.8656  0.2540  0.5338
  922MOL0     O21596   8.146   7.324   9.417 -0.1681  0.0619  0.4665
  922MOL0     C21597   8.167   7.297   9.282  0.0156 -0.0446 -0.4064
  922MOL0     C21598   8.137   7.174   9.216  0.0780  0.3531  1.1336
  922MOL0     C21599   8.176   7.158   9.080  0.3201  0.6047 -1.3686
  922MOL0     C21600   8.231   7.262   9.005  0.4532 -0.6547 -0.2208
  922MOL0     C21601   8.272   7.246   8.863 -0.2881  0.4285  0.0707
  922MOL0     O21602   8.362   7.339   8.820  0.1013 -0.1904  0.6061
  922MOL0     C21603   8.413   7.309   8.695  0.4064  0.1736  1.1054
  922MOL0     C21604   8.548   7.296   8.666 -0.7966 -0.4411 -1.3089
  922MOL0     C21605   8.597   7.275   8.537 -0.2879 -0.2451 -0.7963
  922MOL0     C21606   8.515   7.254   8.427  0.5277  0.7302  0.3671
  922MOL0     O21607   8.571   7.253   8.304  0.4015 -0.7835 -0.5654
  922MOL0     C21608   8.496   7.217   8.190  0.1452 -0.0731 -0.3380
  922MOL0     C21609   8.598   7.173   8.082  0.2758  0.1828  0.6798
  922MOL0     C21610   8.720   7.268   8.071  0.8597 -0.3456 -0.5116
  922MOL0     C21611   8.807   7.264   7.947 -0.8732  0.5887  0.7266
  922MOL0     C21612   8.953   7.316   7.973 -0.0144 -1.1571  0.0489
  922MOL0     C21613   9.047   7.296   7.849  0.7326  0.2108 -0.0334
  922MOL0     C21614   9.039   7.144   7.821 -0.2593 -0.2747  0.7290
  922MOL0     C21615   9.138   7.097   7.709 -0.0445 -0.4055  0.2364
  922MOL0    Cl21616   9.088   7.175   7.558 -0.2208 -0.1076  0.0071
  922MOL0     C21617   8.377   7.272   8.454 -0.1788  0.1694 -0.1038
  922MOL0     C21618   8.326   7.303   8.586  0.1090  0.5512  0.7472
  922MOL0     O21619   8.221   7.152   8.797  0.3818  0.1426 -0.0849
  922MOL0     C21620   8.253   7.381   9.071 -0.4743  0.2440 -0.4837
  922MOL0     C21621   8.218   7.395   9.208  0.0121 -0.3376  0.8655
  922MOL0     N21622   8.441   7.354   9.743  0.3134 -1.0852  0.9979
  922MOL0     N21623   8.513   7.442   9.805  0.0772  0.0432 -0.2754
  922MOL0     C21624   7.953   7.302  10.753  0.6055 -0.4666  0.0130
  922MOL0     C21625   7.865   7.230  10.837 -0.1285 -0.2638 -0.9905
  922MOL0     C21626   7.723   6.856  11.082  0.1056 -0.2173 -0.2827
  922MOL0     C21627   7.739   6.718  11.092 -0.8018 -0.5992 -0.3247
  922MOL0     C21628   7.638   6.648  11.146 -0.6498  1.2401 -0.6914
  922MOL0     C21629   7.528   6.715  11.198  0.2188 -0.6765  0.6463
  922MOL0     O21630   7.440   6.628  11.248  0.0651 -0.2322  0.6939
  922MOL0     C21631   7.310   6.620  11.182 -0.4092 -1.0858  0.1706
  922MOL0     C21632   7.315   6.617  11.033 -0.3834  0.8886  0.2660
  922MOL0     C21633   7.170   6.598  10.958 -0.2554 -0.6684 -0.2834
  922MOL0     C21634   7.073   6.510  11.040  0.1112  0.4098 -0.6842
  922MOL0     C21635   6.988   6.446  10.932  0.1455 -0.7310 -0.2841
  922MOL0     C21636   6.933   6.418  10.832  0.6090 -0.0776  0.0338
  922MOL0     C21637   7.507   6.852  11.189 -0.5078 -0.3922  0.5469
  922MOL0     C21638   7.607   6.923  11.123  0.5121  0.1199 -0.2038
  922MOL0     H21639   8.087   7.043  11.014 -2.2596  0.3488  2.3582
  922MOL0     H21640   8.251   7.150  10.841  1.4685 -1.0697  0.1975
  922MOL0     H21641   8.366   7.251  10.657  0.0041  0.8310 -0.9856
  922MOL0     H21642   8.348   7.366  10.777  1.8942  0.7402 -0.6471
  922MOL0     H21643   8.352   7.394  10.481 -2.8570  0.8134  0.2091
  922MOL0     H21644   8.491   7.421  10.588  0.1937 -1.8490  0.4653
  922MOL0     H21645   8.372   7.641  10.685 -2.5903 -0.2222  0.8050
  922MOL0     H21646   8.236   7.602  10.577  0.3191  1.0954  0.0796
  922MOL0     H21647   8.352   7.783  10.496  2.8530  0.1331 -1.1309
  922MOL0     H21648   8.500   7.704  10.469 -0.2456  1.0649  0.6698
  922MOL0     H21649   8.277   7.712  10.297  0.5381 -0.0199  0.5781
  922MOL0     H21650   8.275   7.550  10.359 -0.1010 -2.1004 -2.3975
  922MOL0     H21651   8.540   7.580  10.290 -2.0000  0.6971  2.3254
  922MOL0     H21652   8.476   7.714  10.207 -2.3610 -0.7822 -6.1017
  922MOL0     H21653   8.362   7.431  10.154  3.8232 -1.9661  2.7125
  922MOL0     H21654   8.367   7.584  10.056  0.2189 -1.9813 -0.6685
  922MOL0     H21655   8.608   7.413  10.113 -0.9529  1.2341  0.3393
  922MOL0     H21656   8.616   7.564  10.025  1.2739  0.2646  2.1373
  922MOL0     H21657   8.437   7.236  10.044 -0.6613 -0.5427  0.0425
  922MOL0     H21658   8.339   7.077   9.890 -1.2787 -2.3721 -0.6408
  922MOL0     H21659   8.369   7.099   9.717 -0.0888  2.4046 -0.9448
  922MOL0     H21660   8.117   7.191   9.844  1.1086 -0.7768  1.4993
  922MOL0     H21661   8.128   7.065   9.727 -2.4508  0.2728  1.6770
  922MOL0     H21662   8.040   7.267   9.630  0.1782  2.0101  1.1700
  922MOL0     H21663   8.168   7.368   9.683 -2.0110 -0.4938  1.2502
  922MOL0     H21664   8.211   7.136   9.472  1.6531 -0.1901  1.7166
  922MOL0     H21665   8.320   7.269   9.521  1.1852 -1.5552  2.3951
  922MOL0     H21666   8.075   7.096   9.258  0.9371 -2.3440 -2.1648
  922MOL0     H21667   8.167   7.062   9.029  1.8674  0.6714 -1.8220
  922MOL0     H21668   8.626   7.318   8.739 -0.3744 -0.4989 -1.7434
  922MOL0     H21669   8.703   7.289   8.522 -0.4837  1.1821 -0.9867
  922MOL0     H21670   8.440   7.304   8.155 -0.6770  0.0685  1.2485
  922MOL0     H21671   8.432   7.129   8.197  0.1267 -0.2943 -2.5619
  922MOL0     H21672   8.547   7.143   7.989  1.8278 -1.8310  0.4216
  922MOL0     H21673   8.644   7.088   8.132  1.4071  2.7308  4.4055
  922MOL0     H21674   8.789   7.250   8.154  2.1147 -2.6228 -1.9490
  922MOL0     H21675   8.685   7.371   8.082 -0.7791 -0.5883 -2.7523
  922MOL0     H21676   8.803   7.163   7.904 -1.3476  1.1930 -0.7214
  922MOL0     H21677   8.763   7.334   7.876  1.0416  2.1332  0.9871
  922MOL0     H21678   8.999   7.278   8.065  3.8950  1.9080 -0.3522
  922MOL0     H21679   8.951   7.425   7.981 -0.4208 -1.0341 -1.4591
  922MOL0     H21680   9.145   7.339   7.872  0.3196 -0.1101  2.7341
  922MOL0     H21681   8.996   7.342   7.765  1.1718  0.2874 -0.2604
  922MOL0     H21682   9.062   7.085   7.910 -0.6165 -0.8569  0.4474
  922MOL0     H21683   8.940   7.115   7.784  0.9295  0.8058 -4.0043
  922MOL0     H21684   9.134   6.988   7.697 -0.2570 -0.4905  1.0060
  922MOL0     H21685   9.240   7.127   7.734 -1.1798  3.5883  0.7250
  922MOL0     H21686   8.311   7.271   8.368  0.0129 -0.5522 -0.2488
  922MOL0     H21687   8.220   7.323   8.595  0.0808 -0.0653  2.0115
  922MOL0     H21688   8.312   7.465   9.035 -0.9877  0.3542 -1.0801
  922MOL0     H21689   8.252   7.483   9.262  1.0261  0.0681 -0.3762
  922MOL0     H21690   7.922   7.364  10.670  2.4718  1.7128  0.8169
  922MOL0     H21691   7.758   7.243  10.839 -0.2688 -0.6684  2.9385
  922MOL0     H21692   7.827   6.664  11.060  1.0231  1.1323  1.4916
  922MOL0     H21693   7.652   6.541  11.142 -1.2961  1.1635 -1.0833
  922MOL0     H21694   7.238   6.698  11.208 -0.8694 -1.4502  0.0033
  922MOL0     H21695   7.263   6.533  11.230  0.0321  0.3287  3.4069
  922MOL0     H21696   7.367   6.705  10.992  3.1304 -0.7625  0.7593
  922MOL0     H21697   7.382   6.534  11.009  1.2209  1.3752  2.6626
  922MOL0     H21698   7.198   6.559  10.859 -0.2228  0.2471 -0.6444
  922MOL0     H21699   7.123   6.695  10.939  2.9127  1.1909  0.5685
  922MOL0     H21700   7.118   6.426  11.094  0.7209  0.9357 -0.3540
  922MOL0     H21701   7.024   6.579  11.110  1.5544  0.5563  0.2303
  922MOL0     H21702   6.877   6.398  10.742 -1.5793  3.5032  0.4038
  922MOL0     H21703   7.415   6.901  11.217 -0.5257 -0.6581  0.9567
  922MOL0     H21704   7.582   7.028  11.113 -4.2434 -0.5355  1.8877
  923MOL0     O21705   7.614   5.336   3.887  0.6491  0.1932 -0.2245
  923MOL0     C21706   7.515   5.331   3.813  0.2385 -0.6544  1.3531
  923MOL0     O21707   7.388   5.323   3.851 -0.0119 -0.5758  0.1152
  923MOL0     C21708   7.363   5.259   3.969  0.1348  0.0599  0.0837
  923MOL0     C21709   7.385   5.121   3.988  0.0085  0.3678 -0.9426
  923MOL0     C21710   7.330   5.066   4.107  0.1488  0.5909  0.0826
  923MOL0     C21711   7.275   5.152   4.214  0.2717  0.3701 -0.4151
  923MOL0     O21712   7.238   5.103   4.339  0.1542  0.3185 -0.2835
  923MOL0     C21713   7.191   4.969   4.353 -0.1047  0.0309  0.0427
  923MOL0     C21714   7.160   4.954   4.502  1.0398 -0.3197 -0.6128
  923MOL0     C21715   7.096   4.819   4.521 -0.1797 -0.0568 -0.5218
  923MOL0     C21716   7.104   4.763   4.662 -0.5049 -0.4645 -0.8916
  923MOL0     C21717   7.044   4.865   4.775 -0.2319 -0.2040 -0.0885
  923MOL0     C21718   7.138   4.932   4.866 -0.0739 -0.6030 -0.0550
  923MOL0     C21719   7.074   5.002   4.995 -0.1494  0.4502 -0.6939
  923MOL0     C21720   7.192   5.047   5.088 -0.9663  0.1690 -0.1195
  923MOL0     N21721   7.151   5.073   5.228 -0.2943  0.1903 -0.7736
  923MOL0     C21722   7.146   4.989   5.347  0.2989  0.1762  0.5722
  923MOL0     C21723   7.097   5.071   5.442  0.0477  1.6387 -1.3738
  923MOL0     C21724   7.075   5.029   5.583 -0.3998  0.1137 -0.2977
  923MOL0     C21725   7.058   5.145   5.677 -0.5209 -0.0014 -0.4655
  923MOL0     C21726   7.098   5.124   5.822 -0.4367  0.7320 -0.2779
  923MOL0     C21727   6.979   5.148   5.918 -0.9645 -0.1525  0.3547
  923MOL0     O21728   7.026   5.122   6.055  0.1508 -0.0826  0.3178
  923MOL0     C21729   7.066   5.227   6.131 -1.0467  0.3396 -1.3167
  923MOL0     C21730   7.094   5.186   6.260 -0.0346 -0.1632 -0.0750
  923MOL0     C21731   7.152   5.275   6.354 -0.0485  1.0286  0.2717
  923MOL0     C21732   7.176   5.411   6.321  0.0243 -0.4434 -0.1477
  923MOL0     C21733   7.234   5.498   6.421 -0.2563 -0.9961  0.1056
  923MOL0     O21734   7.241   5.438   6.546  0.0253  0.0447  0.8875
  923MOL0     C21735   7.279   5.520   6.654  0.5407  0.5796 -0.0258
  923MOL0     C21736   7.389   5.609   6.647 -0.0331 -0.7095  0.5578
  923MOL0     C21737   7.412   5.699   6.756 -0.3534  0.3491  0.2634
  923MOL0     C21738   7.353   5.690   6.878  0.7280 -0.2179  0.1932
  923MOL0     O21739   7.399   5.781   6.970  0.1047  0.3453  0.2052
  923MOL0     C21740   7.331   5.771   7.097 -0.2015 -0.6140 -0.0701
  923MOL0     C21741   7.373   5.910   7.158  0.1738 -0.3129  0.3815
  923MOL0     C21742   7.353   6.027   7.061  0.6088 -0.1025  1.0741
  923MOL0     C21743   7.347   6.157   7.140  0.3281  0.5063  0.5371
  923MOL0     C21744   7.289   6.268   7.065 -0.5582  0.1941  0.5707
  923MOL0     C21745   7.300   6.395   7.157  0.1101  0.9825  0.9007
  923MOL0     C21746   7.455   6.441   7.154 -0.3715 -1.2321  0.7050
  923MOL0     C21747   7.457   6.587   7.201 -1.6025 -0.7205 -0.0894
  923MOL0    Cl21748   7.350   6.616   7.348  0.0698  0.1331  0.1636
  923MOL0     C21749   7.245   5.587   6.890 -0.0915  0.6295 -0.2178
  923MOL0     C21750   7.208   5.506   6.775  0.4669 -1.0500 -0.0329
  923MOL0     O21751   7.267   5.612   6.396  0.0025 -0.0939 -0.0078
  923MOL0     C21752   7.134   5.451   6.190  0.0560 -0.0121 -0.1521
  923MOL0     C21753   7.081   5.360   6.097 -0.3275  0.0017  0.2359
  923MOL0     N21754   7.041   5.182   5.397 -0.2807 -0.4632 -0.7348
  923MOL0     N21755   7.073   5.177   5.269 -0.7347  0.0167  0.0169
  923MOL0     C21756   7.257   5.286   4.189 -0.1084  1.4764  0.7215
  923MOL0     C21757   7.307   5.344   4.072 -0.4210 -0.4376 -0.1618
  923MOL0     C21758   7.542   5.347   3.669 -0.0796  0.3966 -0.2114
  923MOL0     C21759   7.658   5.299   3.610 -1.4541  0.3592 -0.9788
  923MOL0     C21760   7.694   5.320   3.484  1.1185  0.2924  0.1560
  923MOL0     C21761   7.601   5.394   3.398  0.2492 -0.8820  0.2764
  923MOL0     O21762   7.621   5.384   3.256  0.1625 -0.2010  0.6896
  923MOL0     C21763   7.524   5.437   3.168  0.0607  0.3507  1.1243
  923MOL0     C21764   7.563   5.405   3.028  0.2730  0.2368  0.1107
  923MOL0     C21765   7.495   5.496   2.919 -0.9666 -0.1059 -0.0883
  923MOL0     C21766   7.536   5.449   2.778 -0.1379 -0.2952  0.3735
  923MOL0     C21767   7.440   5.497   2.679 -0.7050 -0.7593 -0.5695
  923MOL0     C21768   7.361   5.516   2.594 -0.2800  0.0425  0.0858
  923MOL0     C21769   7.479   5.431   3.448  0.8302 -0.2068 -1.0092
  923MOL0     C21770   7.451   5.417   3.592  0.8066  0.3221  0.3112
  923MOL0     H21771   7.425   5.062   3.906  0.0549  1.3261 -1.6288
  923MOL0     H21772   7.322   4.960   4.130 -0.9339  0.5675 -0.3700
  923MOL0     H21773   7.261   4.891   4.319  2.4901  2.6205 -0.9454
  923MOL0     H21774   7.107   4.963   4.283  1.0591 -1.1013 -1.3328
  923MOL0     H21775   7.084   5.027   4.531  1.1948  0.9680 -3.1063
  923MOL0     H21776   7.253   4.973   4.556  0.8858 -3.1996  0.8081
  923MOL0     H21777   7.149   4.747   4.458  1.3217  1.5220 -1.1442
  923MOL0     H21778   6.988   4.818   4.499 -0.6971 -1.2825  1.7932
  923MOL0     H21779   7.051   4.667   4.665 -0.2154 -0.6215 -0.7523
  923MOL0     H21780   7.207   4.729   4.677 -0.5961 -2.2383 -3.5252
  923MOL0     H21781   6.975   4.810   4.841  2.1141  1.1514  3.7941
  923MOL0     H21782   6.965   4.925   4.728 -2.3881 -2.6448  0.1369
  923MOL0     H21783   7.184   5.008   4.804 -1.1107 -0.6674 -0.9397
  923MOL0     H21784   7.218   4.860   4.887  2.0651  0.8342 -2.7547
  923MOL0     H21785   7.003   5.074   4.953 -1.7616 -0.4629  0.3141
  923MOL0     H21786   7.005   4.927   5.036 -0.0384  0.4378 -0.5258
  923MOL0     H21787   7.226   5.142   5.046  2.7428 -0.8084  0.3110
  923MOL0     H21788   7.267   4.967   5.090 -1.4801 -0.3245 -0.1322
  923MOL0     H21789   7.196   4.894   5.361 -0.4806 -0.1470  1.2192
  923MOL0     H21790   7.137   4.949   5.625 -2.0055 -0.8744  0.2904
  923MOL0     H21791   6.978   4.980   5.582 -0.4589  0.1958  0.5308
  923MOL0     H21792   6.954   5.178   5.668 -0.4772  0.1243 -0.5145
  923MOL0     H21793   7.128   5.223   5.644  0.0674  0.0179  0.7591
  923MOL0     H21794   7.133   5.021   5.831  0.2189  0.9725  0.0567
  923MOL0     H21795   7.178   5.183   5.868 -2.5016  2.3670  1.4627
  923MOL0     H21796   6.911   5.068   5.889  0.9926 -1.7002 -0.2161
  923MOL0     H21797   6.934   5.246   5.902 -0.6586  0.3273  2.2609
  923MOL0     H21798   7.083   5.081   6.282  1.0726 -0.1848  0.4145
  923MOL0     H21799   7.164   5.242   6.457  1.6118  5.0102  1.5523
  923MOL0     H21800   7.447   5.611   6.556 -1.7944  0.8840 -0.5974
  923MOL0     H21801   7.476   5.786   6.748 -0.9310  0.6123 -2.3857
  923MOL0     H21802   7.371   5.688   7.155  2.4850 -0.4541 -1.5148
  923MOL0     H21803   7.223   5.780   7.081 -0.5331  4.3685  2.8183
  923MOL0     H21804   7.479   5.913   7.186 -0.5427  0.7187  3.2814
  923MOL0     H21805   7.325   5.926   7.255  0.9336 -0.3884  0.7762
  923MOL0     H21806   7.270   6.027   6.989  0.8559  1.3538  0.7564
  923MOL0     H21807   7.436   6.021   6.990 -0.2753 -3.6117  0.1284
  923MOL0     H21808   7.275   6.127   7.217 -1.6681 -4.2264 -2.6853
  923MOL0     H21809   7.446   6.172   7.185 -0.2785  0.2983  2.0265
  923MOL0     H21810   7.186   6.248   7.036 -1.0535  3.4994 -0.2700
  923MOL0     H21811   7.341   6.270   6.969 -0.9966  0.5237  0.3412
  923MOL0     H21812   7.279   6.363   7.260  1.5353 -2.3848  0.2741
  923MOL0     H21813   7.236   6.479   7.129  0.4563 -0.1326 -4.1491
  923MOL0     H21814   7.517   6.393   7.231  0.1591 -1.1635  0.3270
  923MOL0     H21815   7.495   6.432   7.053  2.0171  0.8043  1.3481
  923MOL0     H21816   7.448   6.662   7.123 -0.3156  0.7599  1.1334
  923MOL0     H21817   7.558   6.608   7.237 -1.4988 -0.2425 -0.6481
  923MOL0     H21818   7.195   5.571   6.985 -1.6617 -0.8806 -1.2459
  923MOL0     H21819   7.129   5.431   6.776 -0.1695 -0.4147 -0.5876
  923MOL0     H21820   7.122   5.557   6.169 -3.5374 -0.3812 -0.5097
  923MOL0     H21821   7.037   5.392   6.004 -0.8706 -0.1535  0.4370
  923MOL0     H21822   7.191   5.326   4.266 -1.7664  0.2525 -0.0118
  923MOL0     H21823   7.289   5.450   4.056 -0.6235 -0.4983 -0.3428
  923MOL0     H21824   7.729   5.245   3.672 -1.2324 -0.4131 -1.8833
  923MOL0     H21825   7.779   5.263   3.448 -0.4198  0.0680 -3.6175
  923MOL0     H21826   7.525   5.546   3.183  0.4949  1.0529 -3.0191
  923MOL0     H21827   7.423   5.396   3.178  0.9664 -1.9970  1.1186
  923MOL0     H21828   7.670   5.427   3.017  0.5855 -0.0794  2.1413
  923MOL0     H21829   7.551   5.302   2.993  2.6357  1.0901 -3.7425
  923MOL0     H21830   7.523   5.601   2.927 -1.3852  0.1602 -1.6293
  923MOL0     H21831   7.386   5.493   2.926 -0.8980 -2.3417  0.9084
  923MOL0     H21832   7.636   5.485   2.751  1.2714 -3.0680  1.5005
  923MOL0     H21833   7.535   5.340   2.779  3.5240 -0.5112 -1.3504
  923MOL0     H21834   7.293   5.538   2.514  1.9006  2.7412 -1.2070
  923MOL0     H21835   7.416   5.494   3.385  2.4995  3.2523  0.4995
  923MOL0     H21836   7.365   5.460   3.642  1.6899 -0.0731  2.2667
  924MOL0     O21837   6.595   2.315   7.905 -0.5400 -0.6125  0.5387
  924MOL0     C21838   6.535   2.280   7.797  0.2277 -0.0310  0.2004
  924MOL0     O21839   6.552   2.158   7.727  0.1548  0.6334 -0.3010
  924MOL0     C21840   6.610   2.072   7.806 -0.1626  1.5588  0.3436
  924MOL0     C21841   6.536   1.985   7.882  0.7957  0.0790 -0.0144
  924MOL0     C21842   6.607   1.886   7.962 -0.0807 -0.0024  0.5622
  924MOL0     C21843   6.747   1.863   7.951  0.1135 -0.1910  0.3343
  924MOL0     O21844   6.800   1.760   8.028  0.2075  0.4487 -0.5023
  924MOL0     C21845   6.897   1.678   7.957 -0.6813 -0.2195  0.2006
  924MOL0     C21846   6.834   1.538   7.928  0.0277 -0.3335  1.5138
  924MOL0     C21847   6.705   1.559   7.838  0.2814 -0.8909 -0.3698
  924MOL0     C21848   6.661   1.429   7.760 -0.4967 -0.4986 -0.7540
  924MOL0     C21849   6.510   1.399   7.769  0.8294 -0.9288  0.2827
  924MOL0     C21850   6.472   1.267   7.722  0.9228  0.5253  0.4245
  924MOL0     C21851   6.344   1.219   7.796 -0.1861 -0.5331  0.0738
  924MOL0     C21852   6.285   1.089   7.735  0.3226  0.6439 -0.0947
  924MOL0     N21853   6.183   1.041   7.829 -1.3002 -0.4303  0.1697
  924MOL0     C21854   6.098   1.113   7.907  0.3639 -0.3670 -0.4039
  924MOL0     C21855   6.020   1.017   7.966 -0.4651  0.3467  1.0041
  924MOL0     C21856   5.900   1.031   8.057 -0.5641 -0.0530 -0.6489
  924MOL0     C21857   5.831   0.896   8.084 -0.3530 -0.1298 -0.1597
  924MOL0     C21858   5.735   0.864   7.963  0.1658 -0.2589 -0.6365
  924MOL0     C21859   5.724   0.716   7.958  0.0745  0.3905  0.1727
  924MOL0     O21860   5.640   0.686   7.843  0.2026  0.8584 -0.5501
  924MOL0     C21861   5.649   0.549   7.817  0.0070 -0.5238 -0.6480
  924MOL0     C21862   5.707   0.503   7.704 -0.1891 -0.0896  0.7166
  924MOL0     C21863   5.707   0.372   7.660 -0.0941 -0.5458  0.2007
  924MOL0     C21864   5.643   0.279   7.741  0.1953  0.3001  0.1803
  924MOL0     C21865   5.658   0.131   7.727  1.6182 -0.6468  0.0848
  924MOL0     O21866   5.574   0.039   7.793 -0.9579 -0.0606 -0.2572
  924MOL0     C21867   5.590  -0.101   7.789  0.0373  0.5793  0.7440
  924MOL0     C21868   5.518  -0.171   7.884  0.7289 -0.2662 -0.2645
  924MOL0     C21869   5.522  -0.316   7.906 -0.0847  0.5758 -0.5291
  924MOL0     C21870   5.613  -0.390   7.821 -0.2122 -0.4375 -0.2634
  924MOL0     O21871   5.659  -0.517   7.841  0.2994  0.5578 -0.3498
  924MOL0     C21872   5.565  -0.622   7.861 -0.0717  0.1333  0.0172
  924MOL0     C21873   5.499  -0.660   7.725  0.6947  0.6764  0.0727
  924MOL0     C21874   5.433  -0.798   7.727  0.0704  0.2792  0.4169
  924MOL0     C21875   5.370  -0.843   7.852 -0.0998  0.5929 -0.7830
  924MOL0     C21876   5.248  -0.759   7.885  0.0437 -0.6983 -0.9753
  924MOL0     C21877   5.125  -0.799   7.810  0.3295 -1.1508  0.8256
  924MOL0     C21878   4.986  -0.771   7.889 -0.2846  0.7401 -0.5124
  924MOL0     C21879   4.989  -0.635   7.952  0.4077  0.4299 -0.2119
  924MOL0    Cl21880   4.847  -0.642   8.046 -0.0986  0.4121  0.3056
  924MOL0     C21881   5.685  -0.316   7.722 -0.5192  0.5358 -0.0273
  924MOL0     C21882   5.675  -0.180   7.710  1.9064 -0.3193 -0.0176
  924MOL0     O21883   5.734   0.100   7.636  0.3820 -0.3959  0.5550
  924MOL0     C21884   5.581   0.320   7.860 -0.6638  0.0509 -0.3010
  924MOL0     C21885   5.589   0.460   7.894  0.4402  0.9121 -0.4716
  924MOL0     N21886   6.062   0.890   7.919  0.4134  0.3702  0.3207
  924MOL0     N21887   6.157   0.909   7.841  0.3334  0.5940  0.3916
  924MOL0     C21888   6.823   1.955   7.881  0.3750 -0.3298 -1.0226
  924MOL0     C21889   6.755   2.062   7.815 -0.3097  0.2409  0.3280
  924MOL0     C21890   6.483   2.383   7.710  0.1686  0.3152 -1.0084
  924MOL0     C21891   6.403   2.349   7.592 -0.0504  1.2182  0.2796
  924MOL0     C21892   6.355   2.447   7.508 -0.6319  0.1562  0.3450
  924MOL0     C21893   6.406   2.577   7.519 -0.9877 -0.6786 -0.6312
  924MOL0     O21894   6.386   2.675   7.430 -0.0421 -0.1697  0.6993
  924MOL0     C21895   6.449   2.668   7.300 -0.4076  0.7097  0.1422
  924MOL0     C21896   6.358   2.711   7.189 -0.0399  0.0142  0.1758
  924MOL0     C21897   6.395   2.851   7.145 -0.0944 -0.4485 -0.0588
  924MOL0     C21898   6.301   2.888   7.028  0.0793  0.4476  0.1946
  924MOL0     C21899   6.372   2.846   6.903  0.8603  0.6450  0.1285
  924MOL0     C21900   6.432   2.789   6.813 -0.2164  0.5631  0.4773
  924MOL0     C21901   6.487   2.615   7.629 -0.5841  0.2357  0.5602
  924MOL0     C21902   6.517   2.518   7.725 -0.6358 -0.7903  0.9050
  924MOL0     H21903   6.429   1.991   7.895  0.4466 -2.7244 -0.9634
  924MOL0     H21904   6.553   1.815   8.024 -0.7148 -2.2349 -2.3017
  924MOL0     H21905   6.974   1.655   8.032 -0.9769 -3.0939 -0.2855
  924MOL0     H21906   6.941   1.721   7.866  1.9103 -4.2619 -0.7153
  924MOL0     H21907   6.802   1.500   8.026 -0.7044 -2.3860  0.5266
  924MOL0     H21908   6.901   1.467   7.879 -0.6449  0.7420 -1.1437
  924MOL0     H21909   6.709   1.637   7.762  3.2781 -0.4177  0.1398
  924MOL0     H21910   6.626   1.582   7.910  1.7922 -2.7092  2.0698
  924MOL0     H21911   6.698   1.421   7.657  2.4800 -1.6866  0.2733
  924MOL0     H21912   6.698   1.337   7.806 -3.2317 -1.6966 -0.7409
  924MOL0     H21913   6.451   1.476   7.720  1.2365  1.4915  3.2745
  924MOL0     H21914   6.478   1.407   7.874 -0.3512 -1.8298  0.0102
  924MOL0     H21915   6.556   1.197   7.720  0.6192  0.1417  0.8321
  924MOL0     H21916   6.453   1.284   7.615  2.6383  0.7106  0.1247
  924MOL0     H21917   6.385   1.210   7.897  1.3103  3.1974 -0.0622
  924MOL0     H21918   6.272   1.299   7.776 -0.1732 -0.9201 -1.7328
  924MOL0     H21919   6.362   1.016   7.709 -0.3985  0.7531 -2.9330
  924MOL0     H21920   6.234   1.108   7.639 -1.3263 -0.8353  0.4297
  924MOL0     H21921   6.078   1.219   7.922 -1.4462 -0.6244 -0.7748
  924MOL0     H21922   5.832   1.105   8.013  1.4250  1.9709 -0.4524
  924MOL0     H21923   5.936   1.075   8.150 -1.3395  2.0741 -1.2900
  924MOL0     H21924   5.768   0.900   8.174  0.6421 -3.0477  0.8069
  924MOL0     H21925   5.907   0.819   8.099 -2.0391 -2.2484 -1.7519
  924MOL0     H21926   5.642   0.921   7.966  1.5466  2.0905 -0.1185
  924MOL0     H21927   5.788   0.878   7.869  0.8936 -1.6887 -0.4644
  924MOL0     H21928   5.674   0.676   8.047  1.4548 -1.5825  0.1478
  924MOL0     H21929   5.825   0.674   7.948  1.1686  2.4452  1.9189
  924MOL0     H21930   5.764   0.568   7.638 -1.1264  1.8265  1.7020
  924MOL0     H21931   5.767   0.347   7.573  2.0440  2.5648  0.6289
  924MOL0     H21932   5.447  -0.113   7.942  1.4531 -0.2374  0.6037
  924MOL0     H21933   5.475  -0.365   7.990 -1.1594 -0.1645 -1.5296
  924MOL0     H21934   5.502  -0.596   7.946  2.4676  1.6937  1.5609
  924MOL0     H21935   5.622  -0.707   7.902 -0.2317 -0.0779 -0.1942
  924MOL0     H21936   5.569  -0.641   7.643 -2.8565  1.7338 -3.0003
  924MOL0     H21937   5.426  -0.584   7.696 -0.8732 -0.8978 -0.2876
  924MOL0     H21938   5.512  -0.867   7.696 -1.0371 -0.0852 -1.7640
  924MOL0     H21939   5.353  -0.813   7.654 -0.6031  0.7707  1.0422
  924MOL0     H21940   5.340  -0.945   7.827 -3.3843  0.5242  2.6133
  924MOL0     H21941   5.436  -0.847   7.939 -0.4509 -0.9646 -0.5571
  924MOL0     H21942   5.267  -0.652   7.885 -2.1110 -0.2054  1.8505
  924MOL0     H21943   5.236  -0.762   7.994 -1.5169  4.9133 -0.6799
  924MOL0     H21944   5.121  -0.898   7.763 -4.4824 -1.2594  0.9567
  924MOL0     H21945   5.117  -0.728   7.727  1.9695 -1.4263  0.3966
  924MOL0     H21946   4.899  -0.790   7.825 -0.1930 -1.3451 -0.1133
  924MOL0     H21947   4.973  -0.854   7.959 -1.0504  2.1522  1.0812
  924MOL0     H21948   4.982  -0.556   7.876  0.1953  1.3007  0.6904
  924MOL0     H21949   5.073  -0.623   8.020 -0.9243 -0.1140  1.6030
  924MOL0     H21950   5.754  -0.380   7.667  3.5915  2.9290  1.9039
  924MOL0     H21951   5.722  -0.125   7.629  1.2835  1.5281  0.8170
  924MOL0     H21952   5.513   0.265   7.924 -0.9501 -0.5682 -1.1093
  924MOL0     H21953   5.537   0.493   7.983  0.0042  3.6548 -1.6419
  924MOL0     H21954   6.931   1.943   7.886  0.7344  2.2453 -1.5101
  924MOL0     H21955   6.811   2.143   7.769  0.5413 -0.9866 -0.8397
  924MOL0     H21956   6.386   2.249   7.553  1.4101  2.1856 -3.2480
  924MOL0     H21957   6.289   2.428   7.424 -2.2066 -1.9943  1.9634
  924MOL0     H21958   6.492   2.568   7.292  1.1699  1.1067  2.6688
  924MOL0     H21959   6.531   2.741   7.303 -1.2605  1.7574  4.2637
  924MOL0     H21960   6.362   2.635   7.110  1.5109 -3.3735  3.2019
  924MOL0     H21961   6.256   2.704   7.226  0.6084 -0.8730  1.9028
  924MOL0     H21962   6.501   2.852   7.119 -0.3522 -2.4124 -1.3899
  924MOL0     H21963   6.378   2.921   7.227 -0.4288  0.0312 -0.5277
  924MOL0     H21964   6.197   2.856   7.035 -0.9982  2.2090 -4.1232
  924MOL0     H21965   6.297   2.997   7.019 -1.0136  0.4292  0.3800
  924MOL0     H21966   6.492   2.727   6.750  0.6071  0.2529  1.5526
  924MOL0     H21967   6.514   2.719   7.644 -0.6610  0.9597 -3.2153
  924MOL0     H21968   6.567   2.558   7.813  2.2933  0.6318 -1.2383
  925MOL0     O21969   5.671   8.770  10.669  0.2234  0.2984 -0.4639
  925MOL0     C21970   5.553   8.751  10.680  0.6249 -0.7171  0.2030
  925MOL0     O21971   5.468   8.832  10.751 -0.6158 -0.1059 -0.1904
  925MOL0     C21972   5.521   8.932  10.826 -0.2014 -0.6189  0.0763
  925MOL0     C21973   5.606   8.928  10.934  0.6520  1.2983  0.6572
  925MOL0     C21974   5.650   9.044  10.993 -1.2187  0.3706  0.1575
  925MOL0     C21975   5.610   9.174  10.948  1.9429 -0.7109  0.8453
  925MOL0     O21976   5.657   9.299  10.997  1.1399 -0.5582  0.1852
  925MOL0     C21977   5.784   9.277  11.070 -0.1508 -0.2826 -0.6953
  925MOL0     C21978   5.870   9.411  11.080  0.2571 -0.6996  0.4835
  925MOL0     C21979   5.796   9.528  11.120  0.9538  0.4318  0.2029
  925MOL0     C21980   5.896   9.643  11.157 -0.2749  0.5034 -1.2083
  925MOL0     C21981   5.816   9.759  11.210  0.5141 -0.1407 -0.4287
  925MOL0     C21982   5.894   9.866  11.285  0.0074 -0.8261 -0.2873
  925MOL0     C21983   5.960   9.978  11.188 -0.1395 -0.9437 -0.3533
  925MOL0     C21984   6.044  10.073  11.264  0.0527 -1.0062  0.2142
  925MOL0     N21985   5.986  10.156  11.374 -0.0259  1.3852  0.2088
  925MOL0     C21986   5.884  10.247  11.370 -0.0512  0.3926  0.1649
  925MOL0     C21987   5.871  10.288  11.506  0.7443  0.2488  0.1496
  925MOL0     C21988   5.781  10.394  11.563  1.0177 -0.1509  0.7773
  925MOL0     C21989   5.734  10.482  11.461 -0.0570 -0.4650  0.1049
  925MOL0     C21990   5.648  10.600  11.517 -0.4867  0.4311  0.4467
  925MOL0     C21991   5.507  10.545  11.579  1.1672  0.9760  0.8133
  925MOL0     O21992   5.446  10.467  11.476  0.7060 -0.4257 -0.9577
  925MOL0     C21993   5.372  10.530  11.381 -0.2746 -0.4246  0.2052
  925MOL0     C21994   5.251  10.599  11.410  0.5904 -0.0235 -0.8257
  925MOL0     C21995   5.187  10.673  11.306  0.2133  0.1569  0.1340
  925MOL0     C21996   5.242  10.679  11.177  0.3538 -0.4912 -0.0045
  925MOL0     C21997   5.181  10.758  11.068 -0.3628 -0.9746 -1.4948
  925MOL0     O21998   5.076  10.834  11.095 -0.7077  0.5261  0.2339
  925MOL0     C21999   5.016  10.907  10.996 -0.6082 -0.0835 -0.0323
  925MOL0     C22000   5.022  11.045  11.005  0.6038  0.1427 -0.0993
  925MOL0     C22001   4.957  11.127  10.910 -0.4279 -0.2675 -0.8572
  925MOL0     C22002   4.896  11.068  10.798  0.1220  0.7198 -0.2214
  925MOL0     O22003   4.833  11.143  10.711  0.6834 -0.2296 -0.2909
  925MOL0     C22004   4.713  11.095  10.655 -0.4490 -0.3394  0.7164
  925MOL0     C22005   4.638  11.211  10.583  0.2375  0.3192 -0.1782
  925MOL0     C22006   4.487  11.217  10.619  0.6469 -0.0222 -0.3183
  925MOL0     C22007   4.430  11.369  10.629 -0.1035  0.1091  0.3846
  925MOL0     C22008   4.311  11.388  10.732  0.2179 -0.4302  0.1982
  925MOL0     C22009   4.176  11.322  10.676 -0.3818  0.3699 -0.6883
  925MOL0     C22010   4.113  11.390  10.550  0.7838  0.7346  0.4509
  925MOL0     C22011   3.999  11.302  10.507  0.4556 -0.0963  0.1967
  925MOL0    Cl22012   4.043  11.194  10.374 -0.5090 -0.2125 -0.1722
  925MOL0     C22013   4.903  10.928  10.782 -0.5696  0.9159  0.7773
  925MOL0     C22014   4.967  10.844  10.878  1.0905  0.1557 -0.3331
  925MOL0     O22015   5.233  10.742  10.959 -0.1562 -0.7565 -0.4529
  925MOL0     C22016   5.368  10.617  11.151  0.1837  0.2558 -0.2224
  925MOL0     C22017   5.425  10.537  11.247  0.1354  0.6176 -0.1927
  925MOL0     N22018   5.961  10.216  11.577 -0.4207  0.1063  0.7082
  925MOL0     N22019   6.026  10.135  11.506  0.0625 -0.2216  0.6950
  925MOL0     C22020   5.526   9.175  10.839  0.0219  0.1067  1.3315
  925MOL0     C22021   5.469   9.061  10.782  0.2061  0.4190  0.0811
  925MOL0     C22022   5.514   8.623  10.617  0.2730 -1.2420  0.6223
  925MOL0     C22023   5.378   8.576  10.632 -0.4807  0.2876 -0.3120
  925MOL0     C22024   5.338   8.467  10.564  1.2978  1.3063 -0.5152
  925MOL0     C22025   5.431   8.392  10.491 -0.6899  0.8686  0.0875
  925MOL0     O22026   5.382   8.281  10.411  0.1459  0.3990 -0.2604
  925MOL0     C22027   5.233   8.273  10.395  0.0456  0.4595 -0.7234
  925MOL0     C22028   5.205   8.139  10.330 -0.3441 -0.2426  0.5345
  925MOL0     C22029   5.313   8.025  10.336 -0.1102 -0.8076 -0.4227
  925MOL0     C22030   5.316   7.980  10.481 -0.0644 -0.6179 -0.9392
  925MOL0     C22031   5.419   7.871  10.482  0.8752  0.2987 -0.6930
  925MOL0     C22032   5.489   7.774  10.487 -0.2458 -1.2109 -0.9424
  925MOL0     C22033   5.557   8.433  10.481 -0.4711 -0.0328 -0.0427
  925MOL0     C22034   5.606   8.550  10.531  0.2877 -0.2566  0.2006
  925MOL0     H22035   5.647   8.835  10.972  0.2138  1.2148  0.9366
  925MOL0     H22036   5.723   9.024  11.071  2.6798  2.1292 -2.7398
  925MOL0     H22037   5.843   9.207  11.011 -0.3863  0.7644 -2.2157
  925MOL0     H22038   5.761   9.249  11.173 -0.1234  1.7805 -0.0859
  925MOL0     H22039   5.937   9.433  10.996  1.8952 -2.5922  1.1920
  925MOL0     H22040   5.949   9.399  11.155  1.3114  1.2943 -0.2316
  925MOL0     H22041   5.749   9.489  11.211  1.1852 -0.3394 -0.0011
  925MOL0     H22042   5.720   9.554  11.045  1.5293 -2.1015 -1.3704
  925MOL0     H22043   5.959   9.605  11.238 -0.8609  1.3151 -0.3367
  925MOL0     H22044   5.965   9.669  11.077 -0.3229  1.0159 -1.0903
  925MOL0     H22045   5.733   9.721  11.271  1.1685  1.1541  1.3438
  925MOL0     H22046   5.761   9.809  11.130  3.7252 -0.0614 -2.7486
  925MOL0     H22047   5.978   9.831  11.346  0.0177  2.5511  1.9558
  925MOL0     H22048   5.815   9.905  11.351 -0.1054 -0.5660 -0.5740
  925MOL0     H22049   6.016   9.928  11.108  0.0277 -3.7515  1.3984
  925MOL0     H22050   5.875  10.035  11.149  0.4959  0.2865 -0.0099
  925MOL0     H22051   6.092  10.131  11.184 -3.2182  0.6463 -0.7480
  925MOL0     H22052   6.127  10.025  11.317  0.5499  0.0013  0.3775
  925MOL0     H22053   5.831  10.284  11.283 -3.1383 -0.4422  1.5746
  925MOL0     H22054   5.834  10.458  11.634  2.0706  0.4788 -0.5213
  925MOL0     H22055   5.699  10.345  11.616  2.4106  0.4300  3.6611
  925MOL0     H22056   5.681  10.428  11.382  3.1463 -1.3180 -1.6716
  925MOL0     H22057   5.817  10.524  11.403 -1.8372 -1.9263 -3.8688
  925MOL0     H22058   5.702  10.643  11.603 -0.8338 -0.4201  1.1038
  925MOL0     H22059   5.621  10.669  11.437 -1.3880  3.9270  3.4416
  925MOL0     H22060   5.445  10.629  11.614  0.7535  0.8038  0.5073
  925MOL0     H22061   5.514  10.464  11.652  1.3040 -0.4889 -0.7665
  925MOL0     H22062   5.218  10.604  11.513 -0.8765  0.1313 -1.2823
  925MOL0     H22063   5.098  10.732  11.330  2.5606  2.7949  3.3493
  925MOL0     H22064   5.075  11.074  11.095  0.8878  0.7674 -0.4568
  925MOL0     H22065   4.965  11.235  10.917  0.9771 -0.4066 -0.0320
  925MOL0     H22066   4.642  11.054  10.727 -0.1175  0.3624  1.4517
  925MOL0     H22067   4.746  11.017  10.586  1.3583  1.6408 -0.8128
  925MOL0     H22068   4.645  11.187  10.477  2.4937  1.3636 -0.3151
  925MOL0     H22069   4.675  11.308  10.617 -2.0469  0.4654  2.1595
  925MOL0     H22070   4.475  11.175  10.719  2.0087  2.5256  1.0096
  925MOL0     H22071   4.422  11.150  10.561  2.8251 -1.0983 -1.6451
  925MOL0     H22072   4.512  11.429  10.670  0.7260 -0.5399 -0.2969
  925MOL0     H22073   4.402  11.402  10.528  0.0031  3.3663  1.2996
  925MOL0     H22074   4.297  11.494  10.755  0.1565  0.4623 -3.4087
  925MOL0     H22075   4.341  11.345  10.828 -0.2126 -2.0961 -0.3704
  925MOL0     H22076   4.099  11.322  10.754  0.7553 -2.4742  0.5679
  925MOL0     H22077   4.201  11.217  10.660  0.8005  0.0127  2.6733
  925MOL0     H22078   4.049  11.475  10.576  0.3557  2.2837 -4.5688
  925MOL0     H22079   4.181  11.410  10.466  0.5832 -2.8410 -0.7238
  925MOL0     H22080   3.925  11.373  10.468  3.8712  3.2832 -0.8836
  925MOL0     H22081   3.952  11.245  10.587  0.4941  3.3806  2.9277
  925MOL0     H22082   4.855  10.884  10.695  1.4457 -0.7064  0.4228
  925MOL0     H22083   4.963  10.737  10.863 -2.1542  0.2340 -0.6490
  925MOL0     H22084   5.418  10.627  11.055 -2.1869 -2.0132 -1.8288
  925MOL0     H22085   5.510  10.485  11.205 -1.8775 -1.8884 -1.4467
  925MOL0     H22086   5.489   9.268  10.796 -0.0299 -0.8171 -0.7922
  925MOL0     H22087   5.412   9.080  10.692 -0.5153 -3.8203 -0.5666
  925MOL0     H22088   5.301   8.616  10.697 -3.7555 -1.6594 -2.7168
  925MOL0     H22089   5.238   8.431  10.584  1.8464  0.2308  0.3827
  925MOL0     H22090   5.185   8.349  10.333 -3.3732  0.5231  1.6844
  925MOL0     H22091   5.187   8.264  10.494  0.3494  0.3216 -0.5935
  925MOL0     H22092   5.103   8.113  10.362 -0.7081  1.1387  0.5998
  925MOL0     H22093   5.206   8.165  10.224  1.5277 -1.3191  0.2457
  925MOL0     H22094   5.412   8.045  10.293 -0.1463 -0.5343 -0.3837
  925MOL0     H22095   5.284   7.933  10.285  1.3212 -0.8966 -1.1096
  925MOL0     H22096   5.345   8.057  10.553  0.1552 -0.4643 -1.1889
  925MOL0     H22097   5.224   7.936  10.521  0.1756  1.4721  2.3039
  925MOL0     H22098   5.543   7.691  10.528 -0.4341 -1.1224 -0.5179
  925MOL0     H22099   5.619   8.370  10.418  1.4664  0.2351  1.4940
  925MOL0     H22100   5.698   8.595  10.495  0.1848 -0.5532 -0.4462
  926MOL0     O22101   2.369   0.041   5.556 -0.7343  0.0195 -0.8557
  926MOL0     C22102   2.487   0.006   5.558 -0.2075  0.4616  0.2188
  926MOL0     O22103   2.552  -0.055   5.448 -0.0515  0.3786 -0.3176
  926MOL0     C22104   2.472  -0.094   5.340 -0.2152 -0.6945  0.1431
  926MOL0     C22105   2.363  -0.029   5.278 -1.2148 -0.2546  0.6826
  926MOL0     C22106   2.304  -0.092   5.165  1.3543 -0.1785  0.2481
  926MOL0     C22107   2.349  -0.221   5.122  0.8365 -0.5990  0.1303
  926MOL0     O22108   2.298  -0.276   5.001 -0.0907 -0.6546 -0.9351
  926MOL0     C22109   2.160  -0.324   5.026 -0.4971 -1.0814  0.7531
  926MOL0     C22110   2.097  -0.348   4.882 -1.0916 -0.0648  0.4175
  926MOL0     C22111   1.948  -0.379   4.907  0.3090 -0.9310 -0.1074
  926MOL0     C22112   1.889  -0.412   4.767 -0.3588 -1.1514  1.0875
  926MOL0     C22113   1.738  -0.440   4.762  0.1450  0.8812 -0.3452
  926MOL0     C22114   1.687  -0.554   4.855 -0.4702  0.0387  0.2696
  926MOL0     C22115   1.776  -0.675   4.827 -0.0765  0.4708  0.2310
  926MOL0     C22116   1.714  -0.811   4.864  0.6963 -0.2826 -0.4018
  926MOL0     N22117   1.648  -0.799   4.992  0.1187  0.0387  0.6987
  926MOL0     C22118   1.709  -0.813   5.116 -0.1356 -0.9669  0.0688
  926MOL0     C22119   1.610  -0.816   5.208  1.0491  0.2476  1.9794
  926MOL0     C22120   1.608  -0.846   5.357 -0.4618  1.1319 -0.0267
  926MOL0     C22121   1.526  -0.971   5.406  0.0277  0.5346 -0.8839
  926MOL0     C22122   1.372  -0.966   5.384 -0.4051 -0.0023  0.2314
  926MOL0     C22123   1.282  -1.073   5.464  0.2282 -0.2477  0.0638
  926MOL0     O22124   1.240  -1.180   5.380 -0.4513  0.5045  0.1492
  926MOL0     C22125   1.153  -1.274   5.436 -0.0158 -0.9855 -0.6521
  926MOL0     C22126   1.131  -1.392   5.367 -0.9451  0.1690  0.2880
  926MOL0     C22127   1.024  -1.480   5.399 -0.9589 -0.0505 -1.1055
  926MOL0     C22128   0.956  -1.458   5.523  0.4650 -0.4839  1.0283
  926MOL0     C22129   0.855  -1.552   5.577  0.7321  0.1637  0.4214
  926MOL0     O22130   0.846  -1.662   5.504  0.4628  0.0573  0.2784
  926MOL0     C22131   0.743  -1.754   5.512  0.8788 -0.6432  0.6545
  926MOL0     C22132   0.776  -1.880   5.458  0.1717 -1.1055 -0.2193
  926MOL0     C22133   0.694  -2.000   5.473 -0.3352 -0.9440 -0.6197
  926MOL0     C22134   0.563  -1.982   5.532  0.2902  0.3025  0.7697
  926MOL0     O22135   0.474  -2.090   5.524  0.0782 -0.5726  0.5653
  926MOL0     C22136   0.337  -2.073   5.556 -0.9968  0.6848 -0.9700
  926MOL0     C22137   0.249  -2.193   5.521  0.4413  0.1281 -1.3268
  926MOL0     C22138   0.246  -2.293   5.636  0.6394  0.3205 -0.8364
  926MOL0     C22139   0.147  -2.255   5.749 -0.1424 -0.6894 -0.3093
  926MOL0     C22140   0.130  -2.367   5.859 -0.2472  0.2155  0.3597
  926MOL0     C22141   0.051  -2.488   5.797  0.0182 -0.7644  0.8732
  926MOL0     C22142   0.035  -2.600   5.896  0.8993 -0.1920 -0.2318
  926MOL0     C22143   0.028  -2.737   5.825 -0.3744 -0.0352 -0.4140
  926MOL0    Cl22144  -0.043  -2.874   5.939  0.4745 -0.0605  0.4880
  926MOL0     C22145   0.535  -1.853   5.579  0.2963 -0.6321  0.2231
  926MOL0     C22146   0.617  -1.738   5.567  0.2628  0.9663  0.3112
  926MOL0     O22147   0.791  -1.520   5.676  0.3030  0.6835 -0.3760
  926MOL0     C22148   0.976  -1.342   5.593 -0.1062 -0.7424  0.5070
  926MOL0     C22149   1.073  -1.247   5.547 -0.1645  0.4589 -0.1136
  926MOL0     N22150   1.487  -0.801   5.135  0.3821  0.0250 -0.1404
  926MOL0     N22151   1.519  -0.807   5.013  0.0483 -0.9430 -0.2593
  926MOL0     C22152   2.448  -0.285   5.188  0.0145  0.4121 -0.6860
  926MOL0     C22153   2.512  -0.219   5.291  0.1716  1.1129 -0.0738
  926MOL0     C22154   2.562   0.034   5.680 -0.1910  0.3163  0.6349
  926MOL0     C22155   2.690  -0.029   5.708  0.3125  0.2724  1.0187
  926MOL0     C22156   2.760   0.003   5.817 -1.6662 -0.3131 -0.1331
  926MOL0     C22157   2.701   0.061   5.933 -0.8995 -0.1884 -0.2431
  926MOL0     O22158   2.773   0.072   6.046 -0.2305  0.6932  0.3094
  926MOL0     C22159   2.704   0.073   6.174 -1.0081 -0.4628 -0.3778
  926MOL0     C22160   2.686   0.215   6.231 -0.7283  1.2452 -0.0911
  926MOL0     C22161   2.822   0.277   6.257 -0.4561 -0.2493  0.1183
  926MOL0     C22162   2.899   0.195   6.366 -0.6167 -0.4961 -0.2007
  926MOL0     C22163   2.831   0.193   6.495 -0.8727 -0.1443 -0.6335
  926MOL0     C22164   2.764   0.207   6.604  0.4188  0.3903  0.0377
  926MOL0     C22165   2.573   0.115   5.911  0.2879 -0.1202 -0.0664
  926MOL0     C22166   2.503   0.108   5.779  0.9862 -0.0136  0.2886
  926MOL0     H22167   2.338   0.076   5.290 -0.3184 -0.1364  1.6531
  926MOL0     H22168   2.231  -0.044   5.101  1.5325 -1.7214 -1.1726
  926MOL0     H22169   2.102  -0.250   5.081  0.0158  0.1465 -0.2852
  926MOL0     H22170   2.141  -0.418   5.078 -2.9844 -0.3018  1.3535
  926MOL0     H22171   2.140  -0.443   4.850 -1.5661 -0.8443  1.9530
  926MOL0     H22172   2.108  -0.263   4.815  0.5977 -1.4817 -1.1876
  926MOL0     H22173   1.901  -0.291   4.950  0.8854 -1.0940  0.8679
  926MOL0     H22174   1.938  -0.467   4.971  1.9839 -3.2636 -2.8001
  926MOL0     H22175   1.911  -0.332   4.696  1.9871 -2.6177  0.0218
  926MOL0     H22176   1.940  -0.501   4.728 -2.4966 -2.1508  0.4086
  926MOL0     H22177   1.705  -0.463   4.661 -0.1786  2.0579 -0.5170
  926MOL0     H22178   1.683  -0.352   4.797 -2.0704 -1.1072  1.5898
  926MOL0     H22179   1.583  -0.574   4.830  0.3118 -2.4214 -1.3826
  926MOL0     H22180   1.698  -0.531   4.961 -0.3251  2.5526 -0.2066
  926MOL0     H22181   1.799  -0.672   4.720 -1.1447 -1.5371 -0.1081
  926MOL0     H22182   1.872  -0.681   4.879 -0.6018 -0.5958  1.1300
  926MOL0     H22183   1.796  -0.883   4.863 -2.1769 -3.8958 -2.6632
  926MOL0     H22184   1.640  -0.844   4.791 -0.3276  1.4166 -0.1998
  926MOL0     H22185   1.816  -0.814   5.138 -0.1059  5.2024  2.1873
  926MOL0     H22186   1.562  -0.763   5.411 -0.6780  0.4990  0.7761
  926MOL0     H22187   1.714  -0.856   5.385 -0.1374 -2.7581 -1.9742
  926MOL0     H22188   1.542  -0.977   5.514  0.2820  3.0785 -0.7377
  926MOL0     H22189   1.577  -1.058   5.364 -0.1683 -0.3007  0.5413
  926MOL0     H22190   1.336  -0.868   5.419  1.7752  0.4284  1.4361
  926MOL0     H22191   1.347  -0.966   5.277  0.4637  1.8448 -0.0129
  926MOL0     H22192   1.189  -1.028   5.499  1.0484  2.2292 -0.7519
  926MOL0     H22193   1.348  -1.116   5.540  0.9223 -2.2041 -1.5361
  926MOL0     H22194   1.197  -1.405   5.282 -1.1317  1.7156 -0.1185
  926MOL0     H22195   1.002  -1.566   5.336 -0.3754 -3.3174  2.7437
  926MOL0     H22196   0.876  -1.880   5.416  0.7131  3.1092  0.6447
  926MOL0     H22197   0.731  -2.097   5.443 -2.3199 -1.8218 -0.3597
  926MOL0     H22198   0.292  -1.998   5.490  1.8166  3.0546 -0.4131
  926MOL0     H22199   0.324  -2.056   5.663  2.4877 -2.7856  0.2556
  926MOL0     H22200   0.291  -2.240   5.432  1.5215 -0.5105 -0.5004
  926MOL0     H22201   0.149  -2.171   5.483  0.5019  0.3313 -1.3667
  926MOL0     H22202   0.343  -2.330   5.671 -0.0402 -1.3506 -0.6470
  926MOL0     H22203   0.208  -2.391   5.607  0.7222 -0.7808  2.3463
  926MOL0     H22204   0.187  -2.169   5.804  0.4069  0.0224 -1.7708
  926MOL0     H22205   0.053  -2.222   5.704 -0.2142 -1.3955 -0.6859
  926MOL0     H22206   0.082  -2.326   5.949 -1.6436 -0.9763  0.1827
  926MOL0     H22207   0.229  -2.390   5.899  1.9082  0.2833 -4.2737
  926MOL0     H22208   0.110  -2.526   5.712 -0.0456 -1.0881  0.9731
  926MOL0     H22209  -0.047  -2.458   5.760  0.8657  1.0291 -0.0552
  926MOL0     H22210   0.120  -2.595   5.964  0.3369 -0.0744  0.4763
  926MOL0     H22211  -0.052  -2.575   5.958  0.8007  0.6296 -0.6907
  926MOL0     H22212   0.129  -2.772   5.803 -0.2152  0.7241 -0.9162
  926MOL0     H22213  -0.026  -2.741   5.730 -1.3843  1.6587  0.0573
  926MOL0     H22214   0.435  -1.848   5.622  0.3025 -3.2285  0.6916
  926MOL0     H22215   0.566  -1.649   5.603  1.4209  1.8067 -0.0896
  926MOL0     H22216   0.909  -1.312   5.673  0.4253  1.8151  0.0902
  926MOL0     H22217   1.078  -1.166   5.618 -1.5282 -0.8061  1.5339
  926MOL0     H22218   2.487  -0.383   5.165  0.0190  0.3644 -0.4750
  926MOL0     H22219   2.600  -0.270   5.326 -0.7481 -0.9025 -0.5645
  926MOL0     H22220   2.739  -0.093   5.636 -0.0363  1.5127 -0.3846
  926MOL0     H22221   2.861  -0.035   5.810  0.1379  4.0689 -1.2720
  926MOL0     H22222   2.755   0.012   6.248 -0.6856 -1.2101 -1.1924
  926MOL0     H22223   2.607   0.023   6.167 -0.0666 -2.3177 -0.7763
  926MOL0     H22224   2.626   0.272   6.159 -1.9417 -1.2472 -1.1522
  926MOL0     H22225   2.638   0.214   6.329  1.7732 -0.1583  1.2117
  926MOL0     H22226   2.799   0.376   6.298 -1.3243  0.8958 -2.9246
  926MOL0     H22227   2.885   0.284   6.168  0.5955  0.6640  0.9069
  926MOL0     H22228   2.929   0.097   6.328 -1.0834 -0.8516  0.3268
  926MOL0     H22229   2.988   0.256   6.378 -0.8365 -0.7680  5.2431
  926MOL0     H22230   2.705   0.222   6.691  0.7109  0.9471  0.1406
  926MOL0     H22231   2.518   0.164   5.990  1.2513 -1.4270  1.4851
  926MOL0     H22232   2.406   0.157   5.772 -0.7934 -2.4387  4.1163
  927MOL0     O22233   0.999   3.940   0.704 -0.7583  0.1191 -0.3478
  927MOL0     C22234   1.011   4.031   0.784  0.1190 -0.7005 -0.5363
  927MOL0     O22235   1.128   4.071   0.846 -0.4047 -0.1588  0.0449
  927MOL0     C22236   1.250   4.005   0.826 -0.2996  0.3282 -0.3859
  927MOL0     C22237   1.340   3.980   0.931 -0.3842 -0.2099 -1.3104
  927MOL0     C22238   1.457   3.905   0.902 -0.3999 -0.1144  0.0126
  927MOL0     C22239   1.487   3.860   0.773 -0.5746 -0.3187  0.0761
  927MOL0     O22240   1.607   3.785   0.743  0.1369  0.4099 -1.0089
  927MOL0     C22241   1.653   3.681   0.832  0.2027 -0.3262 -0.4106
  927MOL0     C22242   1.544   3.571   0.844 -0.4853  0.0881 -0.3599
  927MOL0     C22243   1.552   3.478   0.727  0.7762  0.1310  0.4615
  927MOL0     C22244   1.521   3.540   0.591 -0.3603  0.4090  0.1580
  927MOL0     C22245   1.509   3.427   0.490  0.3475  0.4046 -0.0351
  927MOL0     C22246   1.464   3.479   0.351 -0.0480 -0.1487 -0.7032
  927MOL0     C22247   1.406   3.364   0.263  0.2992 -0.2513  0.3382
  927MOL0     C22248   1.386   3.379   0.106  0.3564 -0.9812 -0.1566
  927MOL0     N22249   1.452   3.493   0.038  0.9152 -0.3643  0.3692
  927MOL0     C22250   1.585   3.504   0.025 -1.7879 -0.5676 -0.1548
  927MOL0     C22251   1.599   3.635  -0.006 -1.2045  0.1970  0.1238
  927MOL0     C22252   1.739   3.698  -0.025  0.1788 -0.4739  0.1615
  927MOL0     C22253   1.800   3.675  -0.166 -0.9088  0.2397 -0.7079
  927MOL0     C22254   1.710   3.732  -0.278 -0.0020  0.0063 -0.7256
  927MOL0     C22255   1.794   3.757  -0.400 -0.8542  1.0591 -0.5880
  927MOL0     O22256   1.895   3.654  -0.421  0.1581 -0.0926 -0.5095
  927MOL0     C22257   1.939   3.631  -0.547 -0.0814 -0.2744  0.5308
  927MOL0     C22258   2.014   3.517  -0.569  0.0723 -0.4189  1.2732
  927MOL0     C22259   2.070   3.487  -0.696 -0.2030  0.6785  0.4853
  927MOL0     C22260   2.043   3.580  -0.802 -0.6326  0.5482 -0.2263
  927MOL0     C22261   2.088   3.548  -0.937 -0.5603 -0.8966  0.4691
  927MOL0     O22262   2.195   3.461  -0.929 -0.1762 -0.3397  0.7648
  927MOL0     C22263   2.240   3.409  -1.048 -0.5587 -0.1132 -0.5511
  927MOL0     C22264   2.359   3.347  -1.023 -0.8059  0.5078 -0.5555
  927MOL0     C22265   2.447   3.294  -1.120 -0.6571  1.3798 -0.0982
  927MOL0     C22266   2.413   3.318  -1.254 -0.0695 -0.0934  0.4166
  927MOL0     O22267   2.506   3.299  -1.358  0.2217  0.4870 -0.2422
  927MOL0     C22268   2.467   3.285  -1.495 -0.1321 -0.1924  1.1455
  927MOL0     C22269   2.605   3.313  -1.574  1.4248 -0.2401  0.9402
  927MOL0     C22270   2.712   3.203  -1.518 -0.9627  0.8879 -0.4390
  927MOL0     C22271   2.851   3.266  -1.515 -0.2599  0.4077 -0.6094
  927MOL0     C22272   2.957   3.166  -1.480  0.3440  0.0200 -0.7932
  927MOL0     C22273   3.101   3.209  -1.496 -0.9237  0.0613 -0.0957
  927MOL0     C22274   3.188   3.101  -1.430 -0.2161 -0.1736  0.7886
  927MOL0     C22275   3.303   3.152  -1.359 -0.4140 -0.0173  0.5042
  927MOL0    Cl22276   3.432   3.227  -1.468  0.1245 -0.0609  0.2377
  927MOL0     C22277   2.292   3.370  -1.288 -0.4815  0.8086 -0.5340
  927MOL0     C22278   2.204   3.422  -1.186 -0.7520  0.3712  0.3017
  927MOL0     O22279   2.060   3.618  -1.036 -0.5797  0.1799  0.4216
  927MOL0     C22280   1.967   3.688  -0.773  0.2198  0.4924  0.2174
  927MOL0     C22281   1.912   3.729  -0.651 -0.0465  1.4502 -0.0310
  927MOL0     N22282   1.473   3.700  -0.016  0.1965 -0.2277 -0.8839
  927MOL0     N22283   1.386   3.615   0.029  0.1338 -0.3649  0.5791
  927MOL0     C22284   1.414   3.929   0.669  0.3323  0.2466 -0.8777
  927MOL0     C22285   1.296   3.988   0.688 -0.5540 -0.5973  0.1752
  927MOL0     C22286   0.894   4.125   0.802 -0.7810 -0.2508  0.3873
  927MOL0     C22287   0.917   4.233   0.887 -0.1968  0.4113  0.0298
  927MOL0     C22288   0.813   4.316   0.928  0.1418  0.9814 -0.5535
  927MOL0     C22289   0.686   4.281   0.895  0.2535 -0.2010 -0.2478
  927MOL0     O22290   0.586   4.340   0.963  0.3392 -0.2420 -0.3025
  927MOL0     C22291   0.528   4.247   1.049  0.5610  1.0214 -0.1837
  927MOL0     C22292   0.380   4.288   1.073 -0.2439  0.2128 -0.4123
  927MOL0     C22293   0.276   4.205   0.983  0.0587  0.1262  0.2173
  927MOL0     C22294   0.132   4.244   1.005 -0.0090 -0.4159 -0.1518
  927MOL0     C22295   0.106   4.380   0.955  0.0424  1.1838  0.7272
  927MOL0     C22296   0.072   4.487   0.907 -0.0467  0.4373  0.0751
  927MOL0     C22297   0.655   4.192   0.795 -0.4049  0.7520 -0.2393
  927MOL0     C22298   0.764   4.105   0.751  0.0502 -0.3205  0.0815
  927MOL0     H22299   1.324   4.012   1.033  0.8018 -2.9636 -0.1441
  927MOL0     H22300   1.520   3.884   0.988 -1.3155 -1.0273  0.4782
  927MOL0     H22301   1.669   3.712   0.935  0.4683 -0.1230 -0.5125
  927MOL0     H22302   1.747   3.643   0.790  0.5802 -1.0989  1.0491
  927MOL0     H22303   1.446   3.619   0.848  1.1006  5.0690 -6.2690
  927MOL0     H22304   1.560   3.518   0.939 -0.8788  1.6940  0.6491
  927MOL0     H22305   1.471   3.405   0.738 -1.5421  2.0141 -2.3441
  927MOL0     H22306   1.651   3.433   0.723  0.5109 -0.6641  2.0871
  927MOL0     H22307   1.432   3.602   0.605  0.8553  2.0792  0.6732
  927MOL0     H22308   1.604   3.605   0.564 -0.5896  0.5343 -0.2551
  927MOL0     H22309   1.442   3.348   0.524 -0.3921  1.0071 -0.0772
  927MOL0     H22310   1.609   3.381   0.484  0.6059  1.0231 -0.5629
  927MOL0     H22311   1.549   3.521   0.296  1.0694 -1.0439  0.3081
  927MOL0     H22312   1.380   3.549   0.357 -0.0820 -0.2598  0.2281
  927MOL0     H22313   1.457   3.271   0.291  0.2559 -1.3846 -2.9248
  927MOL0     H22314   1.307   3.355   0.310  0.3344  1.3859  0.7996
  927MOL0     H22315   1.279   3.381   0.088 -0.1823  0.5108  2.5792
  927MOL0     H22316   1.429   3.284   0.074 -0.4741 -1.8535  1.2270
  927MOL0     H22317   1.670   3.439   0.045  1.0205  2.5351 -1.0414
  927MOL0     H22318   1.797   3.668   0.063 -0.9085 -0.4091  0.9194
  927MOL0     H22319   1.714   3.804  -0.013 -1.7817 -0.9093  0.2452
  927MOL0     H22320   1.805   3.565  -0.169 -1.7900 -0.2448  4.7746
  927MOL0     H22321   1.898   3.723  -0.158 -2.3230  3.0126  2.0278
  927MOL0     H22322   1.628   3.661  -0.288  2.5735 -3.1938 -1.0819
  927MOL0     H22323   1.661   3.826  -0.251  1.9326  1.3884 -1.7444
  927MOL0     H22324   1.835   3.856  -0.379  0.5343  0.6880 -1.4223
  927MOL0     H22325   1.736   3.746  -0.492 -1.5378  0.4425 -0.0900
  927MOL0     H22326   2.032   3.463  -0.477  0.7708  0.7362  1.8410
  927MOL0     H22327   2.124   3.393  -0.709  1.4040  1.8426 -1.8329
  927MOL0     H22328   2.393   3.341  -0.920 -0.4880 -2.1114 -0.7379
  927MOL0     H22329   2.546   3.264  -1.089  0.1743  0.6820 -3.0586
  927MOL0     H22330   2.394   3.361  -1.525  2.0066  2.4759  2.2492
  927MOL0     H22331   2.425   3.188  -1.522 -2.1027  0.8912  0.0124
  927MOL0     H22332   2.640   3.413  -1.547  2.9137  0.2185 -2.2857
  927MOL0     H22333   2.580   3.305  -1.680 -2.8676  1.3228  1.6310
  927MOL0     H22334   2.704   3.105  -1.565 -1.4317  0.8948 -0.3780
  927MOL0     H22335   2.696   3.191  -1.410 -1.6179 -0.2744 -0.6464
  927MOL0     H22336   2.870   3.301  -1.617  0.5679  0.5938 -0.4030
  927MOL0     H22337   2.858   3.353  -1.448 -2.3129 -0.1219  0.3784
  927MOL0     H22338   2.938   3.078  -1.541 -1.1357  0.5235 -1.0884
  927MOL0     H22339   2.935   3.140  -1.376  0.8384 -1.2839 -1.0032
  927MOL0     H22340   3.120   3.308  -1.452  3.3441 -1.3836  1.9026
  927MOL0     H22341   3.129   3.222  -1.601  0.7112  2.9445  0.5771
  927MOL0     H22342   3.120   3.053  -1.359 -1.0458  0.3423  0.3608
  927MOL0     H22343   3.223   3.028  -1.503  0.8819  3.1117 -2.2221
  927MOL0     H22344   3.347   3.061  -1.319  0.6038  0.6650  0.9821
  927MOL0     H22345   3.277   3.228  -1.285  3.4813  1.9840  0.1001
  927MOL0     H22346   2.261   3.373  -1.392 -0.6501 -0.0051 -0.5175
  927MOL0     H22347   2.108   3.467  -1.207 -0.4750  2.0853  2.3411
  927MOL0     H22348   1.956   3.763  -0.851  1.2084 -0.3008 -0.7129
  927MOL0     H22349   1.869   3.827  -0.640  0.2345  1.4614  1.0372
  927MOL0     H22350   1.441   3.910   0.566  0.4490  0.1311 -0.8260
  927MOL0     H22351   1.256   4.031   0.597 -0.2956 -0.7122  0.0061
  927MOL0     H22352   1.011   4.242   0.940 -1.8375  2.2799  2.9441
  927MOL0     H22353   0.843   4.398   0.994  4.3155 -1.1756  0.5896
  927MOL0     H22354   0.573   4.228   1.147 -1.3174  3.0074  1.1318
  927MOL0     H22355   0.526   4.144   1.012  1.5513  0.5235  1.0570
  927MOL0     H22356   0.361   4.258   1.176  1.3748 -0.6362 -0.3272
  927MOL0     H22357   0.376   4.396   1.059 -0.1934 -0.0528 -3.0965
  927MOL0     H22358   0.284   4.096   0.988  0.8375  0.0312 -2.0051
  927MOL0     H22359   0.293   4.231   0.879 -3.4049  4.9219  0.5517
  927MOL0     H22360   0.076   4.174   0.942  0.9866  1.3886 -3.3026
  927MOL0     H22361   0.094   4.235   1.106 -1.2890  3.4559 -0.1171
  927MOL0     H22362   0.069   4.579   0.851  0.6386  0.4158 -0.0087
  927MOL0     H22363   0.553   4.187   0.759 -0.2033  2.6302 -1.1803
  927MOL0     H22364   0.755   4.019   0.686  0.9849 -1.0257  0.8623
  928MOL0     O22365   4.230   4.204   5.944 -0.0530 -0.3510  0.6057
  928MOL0     C22366   4.152   4.108   5.932  0.1615 -0.0163 -0.1807
  928MOL0     O22367   4.146   4.017   5.824 -0.0825  0.8452  0.1765
  928MOL0     C22368   4.226   4.048   5.725 -0.0241  0.4425 -0.4725
  928MOL0     C22369   4.303   3.952   5.653  0.0505  0.2631 -1.0609
  928MOL0     C22370   4.365   3.984   5.534  0.4620  0.2808  0.0580
  928MOL0     C22371   4.352   4.106   5.477 -0.3090 -0.2725 -0.2533
  928MOL0     O22372   4.421   4.148   5.367 -0.0739  0.0909 -0.9379
  928MOL0     C22373   4.452   4.296   5.362  0.2113 -0.4931  1.1781
  928MOL0     C22374   4.539   4.326   5.237  0.2038 -0.1454  0.3663
  928MOL0     C22375   4.451   4.334   5.117 -0.1989 -0.2839  0.4932
  928MOL0     C22376   4.365   4.457   5.104 -0.3531  0.7943  0.6287
  928MOL0     C22377   4.257   4.436   5.002  0.1866  0.4683 -0.3636
  928MOL0     C22378   4.136   4.351   5.041  0.3687 -0.3983 -0.3278
  928MOL0     C22379   4.037   4.435   5.117  0.6543 -0.9734  0.1292
  928MOL0     C22380   3.901   4.352   5.129  0.1152 -0.2210  0.6955
  928MOL0     N22381   3.896   4.272   5.243  0.4447 -0.0703 -1.5754
  928MOL0     C22382   3.977   4.163   5.274 -0.2058 -0.2816  0.3683
  928MOL0     C22383   3.922   4.110   5.389  0.3238 -0.6157 -0.4751
  928MOL0     C22384   3.957   3.972   5.436  0.8887  1.0594  0.6211
  928MOL0     C22385   3.950   3.941   5.577 -0.8438 -0.5911 -0.2568
  928MOL0     C22386   3.810   3.913   5.632 -0.7488  0.0476 -0.2089
  928MOL0     C22387   3.830   3.900   5.781 -0.6230  0.1018 -0.8371
  928MOL0     O22388   3.710   3.839   5.839 -0.5265  0.6856 -0.3988
  928MOL0     C22389   3.605   3.912   5.888 -0.7710  0.5798 -0.7889
  928MOL0     C22390   3.584   4.050   5.907  1.0821 -0.2670 -0.2948
  928MOL0     C22391   3.480   4.096   5.989  0.5882 -0.2701 -0.3367
  928MOL0     C22392   3.387   4.013   6.048 -0.0849 -0.0874 -0.1723
  928MOL0     C22393   3.280   4.074   6.130  0.6107  0.0866  0.0100
  928MOL0     O22394   3.281   4.208   6.163 -0.9097  0.3737 -0.3806
  928MOL0     C22395   3.173   4.259   6.233 -0.5568 -0.0238  0.5532
  928MOL0     C22396   3.173   4.258   6.373  0.9071  0.3277 -0.5951
  928MOL0     C22397   3.074   4.319   6.450  0.8878  0.9411 -0.3975
  928MOL0     C22398   2.960   4.375   6.385  0.5196  0.3709  0.9614
  928MOL0     O22399   2.835   4.412   6.438 -0.2479  0.2260  0.9679
  928MOL0     C22400   2.843   4.502   6.554  0.6893  0.1415  0.3562
  928MOL0     C22401   2.821   4.639   6.496  0.7988 -0.5269 -1.2249
  928MOL0     C22402   2.665   4.652   6.471 -0.6547  0.6583  0.0138
  928MOL0     C22403   2.624   4.788   6.418 -0.5810  0.1855  0.4102
  928MOL0     C22404   2.480   4.798   6.372  0.1312 -0.6186 -0.5150
  928MOL0     C22405   2.379   4.803   6.488  0.0937  0.5983  0.3119
  928MOL0     C22406   2.226   4.814   6.448 -0.1353  0.1252  0.0224
  928MOL0     C22407   2.169   4.946   6.508 -0.0132 -0.1257 -0.2001
  928MOL0    Cl22408   2.001   4.971   6.448 -0.0751 -0.2869  0.2566
  928MOL0     C22409   2.961   4.370   6.246 -0.2520  0.2939  0.5878
  928MOL0     C22410   3.068   4.323   6.170 -0.7218  0.7359 -0.1632
  928MOL0     O22411   3.195   3.995   6.164 -0.1708  1.0553  0.1248
  928MOL0     C22412   3.400   3.880   6.021  0.6331  0.9175  0.7581
  928MOL0     C22413   3.503   3.826   5.946  0.2522  0.3441 -0.1267
  928MOL0     N22414   3.817   4.179   5.436  0.3642 -0.5120  0.3000
  928MOL0     N22415   3.806   4.282   5.351  0.0374 -0.3450  0.5059
  928MOL0     C22416   4.275   4.199   5.544  0.2463  0.1754 -0.3761
  928MOL0     C22417   4.214   4.168   5.658 -0.3450  0.3731 -0.5707
  928MOL0     C22418   4.060   4.095   6.038  0.9361  0.4401  0.3510
  928MOL0     C22419   4.033   3.960   6.083 -0.8987  0.0651  0.2603
  928MOL0     C22420   3.932   3.931   6.177  0.3154 -0.9243 -0.0444
  928MOL0     C22421   3.839   4.040   6.214  0.2047  0.6191  0.8423
  928MOL0     O22422   3.730   4.036   6.298 -0.1703 -0.1014  0.1857
  928MOL0     C22423   3.676   3.899   6.300  1.1805 -0.5157 -0.1401
  928MOL0     C22424   3.552   3.908   6.393 -1.2615  0.4108  0.1708
  928MOL0     C22425   3.482   3.774   6.389 -0.2069  0.5048 -0.4330
  928MOL0     C22426   3.337   3.792   6.428  0.6001 -0.0046 -0.2172
  928MOL0     C22427   3.264   3.665   6.396 -1.1341 -0.3856 -0.6220
  928MOL0     C22428   3.209   3.556   6.398  0.0088 -0.4874  0.5881
  928MOL0     C22429   3.873   4.170   6.165  0.4591  0.0460 -0.3035
  928MOL0     C22430   3.981   4.202   6.087  0.1081  0.5617 -0.4298
  928MOL0     H22431   4.310   3.855   5.701 -3.2367 -0.0699 -0.9984
  928MOL0     H22432   4.436   3.917   5.486 -1.0968 -0.9514 -0.6181
  928MOL0     H22433   4.518   4.337   5.439  0.1371 -0.7351  1.3730
  928MOL0     H22434   4.362   4.356   5.353  0.1077 -0.5864  1.5875
  928MOL0     H22435   4.615   4.251   5.217 -1.9948 -1.8883 -2.0837
  928MOL0     H22436   4.585   4.424   5.255 -0.8838  0.1069  2.0131
  928MOL0     H22437   4.385   4.247   5.121  0.8056 -1.0265  3.6736
  928MOL0     H22438   4.506   4.336   5.023 -2.3018 -0.1858 -0.8138
  928MOL0     H22439   4.310   4.481   5.196  1.9305 -0.0960  2.3233
  928MOL0     H22440   4.430   4.537   5.069  0.6354  0.2064  1.0821
  928MOL0     H22441   4.305   4.393   4.913  3.2887  0.5910  1.1319
  928MOL0     H22442   4.223   4.536   4.974  2.7921  0.7397 -3.1868
  928MOL0     H22443   4.172   4.266   5.101  2.4542 -0.6800 -1.8529
  928MOL0     H22444   4.105   4.305   4.946  2.0888  2.6752 -2.5564
  928MOL0     H22445   4.069   4.464   5.217  0.3771  1.5069 -0.4325
  928MOL0     H22446   4.012   4.531   5.070 -3.7816 -2.5746 -1.3867
  928MOL0     H22447   3.894   4.289   5.040  1.1225 -0.4326  0.7470
  928MOL0     H22448   3.809   4.411   5.122 -2.3826 -3.9670 -1.0614
  928MOL0     H22449   4.063   4.122   5.221  0.6166 -0.9592  2.1710
  928MOL0     H22450   4.053   3.934   5.400 -0.0390  0.9039 -1.8606
  928MOL0     H22451   3.891   3.896   5.394 -0.9606  1.0073  3.3429
  928MOL0     H22452   3.997   4.025   5.629 -0.0492 -1.0878 -0.1523
  928MOL0     H22453   4.018   3.857   5.597  0.2230 -0.0456 -1.4206
  928MOL0     H22454   3.736   3.993   5.622 -5.1148 -3.1790  2.7332
  928MOL0     H22455   3.776   3.822   5.583  1.7945 -1.6224  0.8914
  928MOL0     H22456   3.868   3.994   5.819  0.3048 -0.0582 -1.3469
  928MOL0     H22457   3.911   3.831   5.807 -1.0491  0.4810  1.7715
  928MOL0     H22458   3.653   4.130   5.888 -2.0439  2.7543  0.0877
  928MOL0     H22459   3.478   4.203   6.008  1.0221  0.1079 -2.2481
  928MOL0     H22460   3.258   4.207   6.417 -0.0928 -1.6181 -0.8503
  928MOL0     H22461   3.082   4.301   6.556  0.8859  1.3004 -0.3355
  928MOL0     H22462   2.945   4.501   6.594  1.4845 -0.5950 -1.5658
  928MOL0     H22463   2.783   4.470   6.640 -1.9648  1.1189 -1.0252
  928MOL0     H22464   2.869   4.657   6.399  2.2843  3.4606  0.0516
  928MOL0     H22465   2.847   4.722   6.562 -2.1195 -2.1081  2.2468
  928MOL0     H22466   2.611   4.643   6.566  1.2213 -0.5741  1.0389
  928MOL0     H22467   2.629   4.579   6.398 -1.0924 -0.5483  1.3969
  928MOL0     H22468   2.649   4.878   6.476 -1.6967  0.6783  0.1474
  928MOL0     H22469   2.692   4.801   6.333  0.7527  0.2974  1.4545
  928MOL0     H22470   2.451   4.721   6.300 -2.1688  0.8580 -1.2813
  928MOL0     H22471   2.469   4.893   6.319 -1.8349 -0.1229  0.6973
  928MOL0     H22472   2.412   4.881   6.557 -0.0346  1.3432 -0.4559
  928MOL0     H22473   2.382   4.710   6.546  0.6989 -0.6676 -1.6480
  928MOL0     H22474   2.221   4.848   6.344  0.2405  0.6518  0.1736
  928MOL0     H22475   2.165   4.727   6.477  1.9109 -1.3684  0.1029
  928MOL0     H22476   2.232   5.030   6.477 -0.2933 -0.2230 -1.0552
  928MOL0     H22477   2.164   4.940   6.617  4.6775  0.7707  0.2792
  928MOL0     H22478   2.869   4.408   6.202 -1.0396  1.9550  3.4448
  928MOL0     H22479   3.072   4.324   6.061 -2.3787  4.9991 -0.4170
  928MOL0     H22480   3.336   3.803   6.065  1.0666  0.7103  1.0347
  928MOL0     H22481   3.510   3.718   5.940  1.7166  0.4292 -0.2991
  928MOL0     H22482   4.268   4.300   5.504 -2.4230  0.7250  1.2662
  928MOL0     H22483   4.133   4.230   5.695  0.0711  1.0013 -0.7090
  928MOL0     H22484   4.098   3.888   6.036  0.5119  0.2243  1.8806
  928MOL0     H22485   3.915   3.828   6.208 -5.3713  0.1004  1.2582
  928MOL0     H22486   3.747   3.833   6.352  0.5628  0.5488  2.1783
  928MOL0     H22487   3.663   3.855   6.201  0.2403  1.8531 -1.1267
  928MOL0     H22488   3.577   3.953   6.490 -0.7128  1.6188 -0.5011
  928MOL0     H22489   3.486   3.982   6.346  3.8987  4.2932 -2.0257
  928MOL0     H22490   3.543   3.715   6.459 -0.7573  2.5279  1.8784
  928MOL0     H22491   3.477   3.718   6.295 -2.5240  1.0116 -0.6742
  928MOL0     H22492   3.325   3.810   6.536  1.1526 -0.4004 -0.0812
  928MOL0     H22493   3.286   3.869   6.371  1.4423 -0.3528 -1.4801
  928MOL0     H22494   3.149   3.468   6.405  2.3260 -2.1261  1.1449
  928MOL0     H22495   3.809   4.254   6.188 -2.1441 -1.6679 -0.8657
  928MOL0     H22496   3.983   4.305   6.053  1.4396  0.8140  0.3438
  929MOL0     O22497   8.962   8.237   2.219 -0.4187 -0.3198 -0.6111
  929MOL0     C22498   9.021   8.138   2.177 -0.0493  0.9492  0.8829
  929MOL0     O22499   8.985   8.008   2.214 -0.6790  0.0368 -0.1719
  929MOL0     C22500   8.856   7.985   2.259 -0.3572 -0.2301  0.2116
  929MOL0     C22501   8.761   7.995   2.164  1.1330  0.7095 -0.3621
  929MOL0     C22502   8.627   7.980   2.207  0.3745 -0.1738 -0.9327
  929MOL0     C22503   8.601   7.943   2.339  0.0026 -0.0921  0.2832
  929MOL0     O22504   8.477   7.909   2.385  0.4691 -0.1534 -0.5032
  929MOL0     C22505   8.362   7.860   2.306 -0.5125  0.8312  0.5056
  929MOL0     C22506   8.236   7.866   2.388 -0.2943 -0.3889 -0.5405
  929MOL0     C22507   8.131   7.761   2.357 -0.0018  0.1284  0.4292
  929MOL0     C22508   8.032   7.764   2.475  0.0811 -0.1653 -0.2178
  929MOL0     C22509   7.895   7.704   2.429  0.3423 -0.9262 -0.1194
  929MOL0     C22510   7.801   7.733   2.552  0.3036  0.2487 -0.0048
  929MOL0     C22511   7.671   7.646   2.550  0.3357 -0.4800  0.0977
  929MOL0     C22512   7.569   7.665   2.663 -1.1140 -0.1419 -0.7374
  929MOL0     N22513   7.448   7.591   2.627  0.4967  0.0964 -1.3858
  929MOL0     C22514   7.411   7.463   2.670 -0.1564 -0.1165 -0.3600
  929MOL0     C22515   7.286   7.441   2.629 -0.0222  0.7207  0.2181
  929MOL0     C22516   7.195   7.322   2.670  0.0477 -0.6159 -0.0733
  929MOL0     C22517   7.100   7.267   2.561 -0.2712 -0.1692  1.0052
  929MOL0     C22518   7.166   7.173   2.463  0.5140  0.6655  0.2542
  929MOL0     C22519   7.269   7.251   2.372  0.1265 -0.4146  0.0827
  929MOL0     O22520   7.403   7.209   2.410 -0.2999  0.4326 -0.2349
  929MOL0     C22521   7.504   7.279   2.347  0.8156  0.5615  0.1487
  929MOL0     C22522   7.637   7.235   2.378  0.4372 -0.0330  0.5155
  929MOL0     C22523   7.749   7.265   2.296  0.2081 -0.2816 -0.0003
  929MOL0     C22524   7.734   7.388   2.223 -0.0057  0.0608 -0.2641
  929MOL0     C22525   7.857   7.447   2.167  0.1439  0.1784  0.4316
  929MOL0     O22526   7.971   7.385   2.186  0.5712 -0.0048 -0.1876
  929MOL0     C22527   8.086   7.406   2.113  0.3422  0.0336  0.3497
  929MOL0     C22528   8.082   7.389   1.974 -0.6559  0.1559 -0.4787
  929MOL0     C22529   8.208   7.406   1.908  0.1067  0.1575  0.8358
  929MOL0     C22530   8.329   7.417   1.977  0.3107  1.0340 -0.0812
  929MOL0     O22531   8.450   7.438   1.923  1.1504 -0.1276  1.2087
  929MOL0     C22532   8.471   7.403   1.780  0.0053 -0.3543 -0.2047
  929MOL0     C22533   8.437   7.260   1.743  0.7507 -0.5310 -0.6646
  929MOL0     C22534   8.436   7.234   1.590 -0.3229  0.0274 -1.5436
  929MOL0     C22535   8.577   7.213   1.539 -0.7729 -0.8738 -0.4212
  929MOL0     C22536   8.604   7.218   1.386  0.2549 -0.0503 -0.9649
  929MOL0     C22537   8.507   7.121   1.318  0.6320  0.4304 -0.4322
  929MOL0     C22538   8.554   7.098   1.179 -0.3304  0.8506  0.4919
  929MOL0     C22539   8.611   6.956   1.171 -0.8771  0.6344  0.1496
  929MOL0    Cl22540   8.771   6.921   1.258 -0.6254  0.4184 -0.1693
  929MOL0     C22541   8.326   7.409   2.117  0.1324 -0.2709  0.1386
  929MOL0     C22542   8.202   7.408   2.186  0.3144 -0.2214  0.4117
  929MOL0     O22543   7.842   7.551   2.106 -0.6964 -0.0728 -0.0355
  929MOL0     C22544   7.608   7.444   2.197 -0.0291 -0.1004  0.0802
  929MOL0     C22545   7.493   7.389   2.255  0.3975  0.4585  1.2546
  929MOL0     N22546   7.249   7.558   2.559 -0.1103 -1.4651  0.7551
  929MOL0     N22547   7.343   7.642   2.555 -0.3527 -0.5125 -0.1556
  929MOL0     C22548   8.701   7.941   2.434 -0.1334 -0.8115 -0.1487
  929MOL0     C22549   8.833   7.953   2.390  0.0998  0.0909 -0.6229
  929MOL0     C22550   9.121   8.167   2.070 -0.3494 -0.0870  0.2832
  929MOL0     C22551   9.136   8.295   2.016 -0.1570 -0.1710 -0.4083
  929MOL0     C22552   9.236   8.326   1.925  0.7277  0.6122 -0.1309
  929MOL0     C22553   9.311   8.218   1.873  0.5558 -0.2455 -0.0475
  929MOL0     O22554   9.413   8.237   1.786 -0.6039  0.3065  0.0551
  929MOL0     C22555   9.513   8.136   1.747 -1.0226 -0.4149 -0.4288
  929MOL0     C22556   9.648   8.195   1.685  0.6997  0.3968 -0.2625
  929MOL0     C22557   9.647   8.246   1.544  0.4917 -1.1523  1.1958
  929MOL0     C22558   9.772   8.318   1.506 -0.6657  0.6436 -0.5339
  929MOL0     C22559   9.767   8.371   1.371  0.8020 -0.8892  1.0273
  929MOL0     C22560   9.774   8.423   1.261 -0.6165  0.0450 -0.6857
  929MOL0     C22561   9.280   8.080   1.908  0.4880 -0.8287 -0.5240
  929MOL0     C22562   9.194   8.058   2.018  0.5873  0.4742  0.2495
  929MOL0     H22563   8.774   8.028   2.061  1.1270 -0.9881 -0.9459
  929MOL0     H22564   8.537   7.980   2.147 -3.5738 -0.2320  4.3471
  929MOL0     H22565   8.380   7.757   2.276 -0.2792  2.2182 -5.3115
  929MOL0     H22566   8.363   7.927   2.219  3.8957  0.5553  0.0975
  929MOL0     H22567   8.196   7.967   2.382 -1.3184 -0.6595  0.9218
  929MOL0     H22568   8.260   7.860   2.495 -1.3680 -0.9520 -0.3161
  929MOL0     H22569   8.173   7.663   2.334 -1.0851 -0.2882  0.1306
  929MOL0     H22570   8.087   7.791   2.261  1.5026 -1.1954 -0.7256
  929MOL0     H22571   8.078   7.718   2.563  1.4081 -1.1758 -1.3841
  929MOL0     H22572   8.010   7.869   2.498  1.8323  0.1205  0.3710
  929MOL0     H22573   7.894   7.596   2.410  1.0730 -0.8170 -0.8437
  929MOL0     H22574   7.862   7.737   2.330  1.3260 -2.1496 -0.9003
  929MOL0     H22575   7.773   7.839   2.543 -1.1919 -0.0529  0.6836
  929MOL0     H22576   7.846   7.728   2.651 -0.3054 -3.7197  0.2295
  929MOL0     H22577   7.616   7.666   2.457  0.9723  2.0770  0.2018
  929MOL0     H22578   7.697   7.540   2.541 -2.9847 -1.2539 -3.5014
  929MOL0     H22579   7.563   7.774   2.668  6.1221  0.7700 -0.6082
  929MOL0     H22580   7.620   7.630   2.754  1.2479  3.2805 -0.5351
  929MOL0     H22581   7.456   7.393   2.739  0.9318  0.4901 -0.4282
  929MOL0     H22582   7.127   7.358   2.747 -0.8650 -3.0182  0.3356
  929MOL0     H22583   7.259   7.238   2.698  0.0816 -0.2792  0.8778
  929MOL0     H22584   7.057   7.348   2.501  2.3426 -0.2882 -1.2577
  929MOL0     H22585   7.012   7.216   2.602 -1.6770  2.0091  0.8663
  929MOL0     H22586   7.211   7.097   2.527  0.9922  2.6560  2.4524
  929MOL0     H22587   7.090   7.120   2.406 -0.0553 -1.8843  3.1293
  929MOL0     H22588   7.249   7.358   2.376  0.1429 -0.2159 -2.8832
  929MOL0     H22589   7.260   7.212   2.270  0.8855 -3.4237  1.0447
  929MOL0     H22590   7.646   7.161   2.456 -1.1370  0.7064  1.4463
  929MOL0     H22591   7.844   7.215   2.315 -0.3264 -0.5733  2.2957
  929MOL0     H22592   7.996   7.367   1.912 -0.0350 -1.5186 -0.7784
  929MOL0     H22593   8.206   7.402   1.800 -1.6260 -2.7585  0.8764
  929MOL0     H22594   8.578   7.419   1.767  0.1845  1.8771  2.8586
  929MOL0     H22595   8.410   7.469   1.717  1.7437 -0.7251 -2.3656
  929MOL0     H22596   8.338   7.234   1.783  1.0044  0.1963  0.4639
  929MOL0     H22597   8.500   7.184   1.789 -0.0282 -0.0687  1.2367
  929MOL0     H22598   8.398   7.322   1.539  2.7035  2.1174 -0.4764
  929MOL0     H22599   8.375   7.143   1.586  0.1883 -0.7631  3.0602
  929MOL0     H22600   8.630   7.302   1.575  0.5185 -1.9821  0.4742
  929MOL0     H22601   8.626   7.127   1.584  3.9206  1.7561  0.1273
  929MOL0     H22602   8.706   7.183   1.368  0.2051 -0.2430 -0.8718
  929MOL0     H22603   8.594   7.319   1.345  2.0878  1.7258  2.5107
  929MOL0     H22604   8.410   7.170   1.306  1.8397  2.8458 -0.9545
  929MOL0     H22605   8.480   7.041   1.388 -4.7763  3.0526  1.0274
  929MOL0     H22606   8.473   7.099   1.106  0.0358 -2.4088 -0.1086
  929MOL0     H22607   8.640   7.162   1.158  1.2214 -0.5297  2.2290
  929MOL0     H22608   8.617   6.932   1.064  2.9348 -0.2696  0.4081
  929MOL0     H22609   8.537   6.888   1.212  0.0246  0.2288  1.1581
  929MOL0     H22610   8.415   7.415   2.179  1.4423 -3.1898 -1.2758
  929MOL0     H22611   8.180   7.411   2.292  2.6247 -0.7409  0.9573
  929MOL0     H22612   7.588   7.524   2.127  0.2504 -0.7759 -0.7980
  929MOL0     H22613   7.391   7.425   2.242 -0.1443 -1.4470 -0.2371
  929MOL0     H22614   8.669   7.926   2.536 -0.4625 -2.6229 -0.4904
  929MOL0     H22615   8.923   7.961   2.450  1.7453  2.2812 -3.1586
  929MOL0     H22616   9.081   8.382   2.051 -0.1572  1.2845 -3.6694
  929MOL0     H22617   9.260   8.427   1.895  4.0944 -0.0000  0.0378
  929MOL0     H22618   9.472   8.066   1.673 -0.0698 -0.6968 -0.7035
  929MOL0     H22619   9.547   8.079   1.834  0.4884 -0.2032 -0.8507
  929MOL0     H22620   9.686   8.269   1.757 -1.3326  0.5567  0.7307
  929MOL0     H22621   9.716   8.110   1.686 -0.9188 -0.9828  1.9043
  929MOL0     H22622   9.561   8.314   1.547  0.1461 -1.5450  0.5400
  929MOL0     H22623   9.629   8.158   1.481  2.1487  0.0279 -1.0858
  929MOL0     H22624   9.786   8.391   1.587 -3.1284 -0.0517  0.6119
  929MOL0     H22625   9.852   8.243   1.507  0.9447  2.2827 -0.2975
  929MOL0     H22626   9.779   8.470   1.164  1.8684  1.5771  0.1053
  929MOL0     H22627   9.336   7.995   1.870  1.5024 -0.7900  0.8119
  929MOL0     H22628   9.190   7.961   2.066 -0.8115 -0.2955 -1.3629
  930MOL0     O22629   2.329   7.749   5.031  0.0295  0.5872 -0.2880
  930MOL0     C22630   2.269   7.844   5.067  0.0648 -0.1743 -0.4902
  930MOL0     O22631   2.323   7.979   5.076 -0.3293 -0.7348  0.2235
  930MOL0     C22632   2.447   8.004   5.016  0.6249  0.1023 -0.1220
  930MOL0     C22633   2.546   7.914   5.025  0.1055  0.7970  0.5806
  930MOL0     C22634   2.668   7.935   4.954  0.2100  0.6503 -0.5443
  930MOL0     C22635   2.689   8.056   4.886  0.3400  0.7460  0.1421
  930MOL0     O22636   2.807   8.085   4.816  0.5072 -0.1504  0.8362
  930MOL0     C22637   2.869   7.975   4.737 -0.2848 -0.0026 -0.4896
  930MOL0     C22638   2.902   8.027   4.592 -0.6755 -0.3286  0.6347
  930MOL0     C22639   2.782   8.029   4.501 -0.1551  0.1772 -0.1770
  930MOL0     C22640   2.813   8.117   4.376  0.1049  0.8333  0.2821
  930MOL0     C22641   2.695   8.098   4.280 -0.2883 -0.8574  0.2300
  930MOL0     C22642   2.703   8.211   4.176 -0.2308  0.3614 -0.1246
  930MOL0     C22643   2.597   8.197   4.064 -0.3158 -1.1087 -0.2403
  930MOL0     C22644   2.547   8.330   4.008 -0.2099  0.4241  0.6263
  930MOL0     N22645   2.657   8.406   3.937  0.1932 -0.4204  0.2006
  930MOL0     C22646   2.736   8.369   3.829 -0.0156 -0.0051 -0.4942
  930MOL0     C22647   2.824   8.470   3.816  0.4892  0.2743  0.7109
  930MOL0     C22648   2.936   8.484   3.707  0.1580  0.7441 -0.2125
  930MOL0     C22649   3.049   8.581   3.734 -0.2938 -0.2625 -0.8063
  930MOL0     C22650   3.017   8.714   3.681  0.2687 -0.5507 -0.0420
  930MOL0     C22651   3.130   8.809   3.677 -0.8853  0.2500  1.6609
  930MOL0     O22652   3.231   8.755   3.580 -0.4477  0.4285  0.5634
  930MOL0     C22653   3.200   8.746   3.449  0.1091  0.0794  0.1626
  930MOL0     C22654   3.115   8.845   3.390 -0.2288 -0.4684 -0.0026
  930MOL0     C22655   3.083   8.839   3.256 -0.3911 -0.1863 -0.2695
  930MOL0     C22656   3.137   8.747   3.172 -0.3054  0.7695 -0.2587
  930MOL0     C22657   3.109   8.742   3.024  1.0822  0.6892 -0.6742
  930MOL0     O22658   3.186   8.688   2.932 -0.5587  0.1436  0.0693
  930MOL0     C22659   3.184   8.733   2.806  0.5739 -0.7020  0.2681
  930MOL0     C22660   3.087   8.692   2.708 -0.7025 -0.3307  0.8830
  930MOL0     C22661   3.105   8.732   2.573  0.4354  0.3540 -0.0815
  930MOL0     C22662   3.208   8.807   2.534 -1.0261  0.7153  0.0402
  930MOL0     O22663   3.228   8.828   2.401  0.0928  0.7797 -0.2775
  930MOL0     C22664   3.247   8.959   2.347 -0.8150  0.3989  0.0291
  930MOL0     C22665   3.231   8.971   2.181 -0.2938 -1.0382 -0.1544
  930MOL0     C22666   3.195   9.110   2.132  1.0644  0.6078 -0.4330
  930MOL0     C22667   3.048   9.145   2.171 -0.1945  1.2005 -0.1011
  930MOL0     C22668   3.017   9.295   2.154 -0.4109 -0.3162 -0.4572
  930MOL0     C22669   3.039   9.366   2.008  0.7155 -0.0949 -0.1557
  930MOL0     C22670   3.179   9.393   1.970 -0.3156 -0.6561 -0.2757
  930MOL0     C22671   3.186   9.501   1.869 -0.5036 -0.5105 -0.1035
  930MOL0    Cl22672   3.139   9.437   1.713  0.1193  0.2322 -0.1490
  930MOL0     C22673   3.300   8.835   2.633  0.0662 -0.0478  0.3617
  930MOL0     C22674   3.293   8.808   2.767  0.1613 -0.0375  0.2975
  930MOL0     O22675   3.023   8.816   2.992  0.5092 -0.2628  0.7226
  930MOL0     C22676   3.234   8.659   3.227 -0.7497  0.1199 -0.2357
  930MOL0     C22677   3.261   8.660   3.360  0.3103 -0.0288 -0.5918
  930MOL0     N22678   2.800   8.565   3.916 -0.5752 -0.6482 -0.1134
  930MOL0     N22679   2.703   8.526   3.979 -0.3632  0.6760 -1.0442
  930MOL0     C22680   2.579   8.141   4.871 -0.9103  0.1176  0.1010
  930MOL0     C22681   2.460   8.119   4.940  0.5032  0.2500  1.1346
  930MOL0     C22682   2.125   7.825   5.098 -0.2539 -0.5865  0.2058
  930MOL0     C22683   2.067   7.701   5.118  0.4761 -0.6594  0.5982
  930MOL0     C22684   1.932   7.688   5.155 -0.4282 -0.1200  0.0745
  930MOL0     C22685   1.860   7.799   5.190 -0.0328  0.3452 -0.4380
  930MOL0     O22686   1.733   7.796   5.243 -0.1705 -0.3696 -0.4805
  930MOL0     C22687   1.661   7.674   5.267 -0.0456  0.2478  0.0475
  930MOL0     C22688   1.527   7.706   5.345  0.6731 -0.0730 -0.2915
  930MOL0     C22689   1.444   7.578   5.382 -0.4460  1.0590 -0.3025
  930MOL0     C22690   1.502   7.480   5.483  0.1563 -1.0634 -0.1749
  930MOL0     C22691   1.396   7.398   5.544  0.1586  0.1572 -0.6303
  930MOL0     C22692   1.316   7.324   5.603 -0.3663 -0.0648  0.5172
  930MOL0     C22693   1.921   7.927   5.179  0.1145  0.0828  0.5554
  930MOL0     C22694   2.049   7.938   5.118  0.0529  0.2804 -0.5465
  930MOL0     H22695   2.556   7.827   5.089  2.8503 -0.0711 -0.8631
  930MOL0     H22696   2.745   7.858   4.950  0.1904  0.6115 -0.2115
  930MOL0     H22697   2.806   7.886   4.734  1.5798 -1.6032  2.6290
  930MOL0     H22698   2.961   7.951   4.791 -1.2964 -0.2001  1.2166
  930MOL0     H22699   2.981   7.967   4.546  2.1047  2.8450  0.8715
  930MOL0     H22700   2.942   8.128   4.601  2.9919 -1.4491 -0.9687
  930MOL0     H22701   2.699   8.084   4.547 -0.4993  1.2272 -1.9615
  930MOL0     H22702   2.754   7.926   4.480 -1.4490  0.6415 -0.8541
  930MOL0     H22703   2.830   8.218   4.414 -1.2458  1.5516 -0.9271
  930MOL0     H22704   2.900   8.081   4.320 -0.0598  1.1162 -0.1572
  930MOL0     H22705   2.603   8.115   4.335  0.2604  0.8235  0.7121
  930MOL0     H22706   2.700   7.998   4.236 -0.3711 -2.1106  2.8772
  930MOL0     H22707   2.807   8.207   4.142 -0.6650 -2.5051 -1.4838
  930MOL0     H22708   2.690   8.313   4.213  1.4023  0.2743  0.7581
  930MOL0     H22709   2.643   8.131   3.990  2.9377  0.5475  0.1305
  930MOL0     H22710   2.508   8.150   4.107 -0.6227 -0.3515 -0.0307
  930MOL0     H22711   2.507   8.377   4.099  0.6172  1.0514  0.6717
  930MOL0     H22712   2.458   8.318   3.945  1.4255 -0.1979 -1.6698
  930MOL0     H22713   2.709   8.292   3.757  0.5988  0.0154 -0.7459
  930MOL0     H22714   2.899   8.517   3.610 -0.5000 -0.3086 -0.3378
  930MOL0     H22715   2.979   8.385   3.687  0.4781  1.4012 -3.1111
  930MOL0     H22716   3.137   8.541   3.683 -0.4397 -0.4357 -0.9231
  930MOL0     H22717   3.062   8.580   3.843 -1.3522  4.3419 -0.4336
  930MOL0     H22718   2.972   8.703   3.582 -4.0900 -0.8433  1.7213
  930MOL0     H22719   2.952   8.768   3.750  1.9475  0.7049  0.6069
  930MOL0     H22720   3.183   8.817   3.772 -1.7434 -1.9747  2.4044
  930MOL0     H22721   3.095   8.910   3.655  1.5732  1.4315  2.8338
  930MOL0     H22722   3.087   8.936   3.441  0.3559  1.0281 -2.2091
  930MOL0     H22723   3.021   8.915   3.209  0.7122  0.3972 -0.8346
  930MOL0     H22724   3.017   8.610   2.722  0.4484 -1.2888  1.1510
  930MOL0     H22725   3.021   8.693   2.516 -0.3446 -1.0929  1.9271
  930MOL0     H22726   3.349   8.992   2.365 -1.7165  2.4060  1.9143
  930MOL0     H22727   3.188   9.026   2.410  1.2029 -0.3388  2.8989
  930MOL0     H22728   3.166   8.894   2.137  1.0771 -1.3059 -1.8189
  930MOL0     H22729   3.331   8.945   2.146  1.2166  3.5841  0.1057
  930MOL0     H22730   3.200   9.123   2.024 -0.2552  1.0361 -0.4563
  930MOL0     H22731   3.267   9.178   2.180  0.0076  1.1760  0.3837
  930MOL0     H22732   2.989   9.077   2.108  0.2549  0.3649  0.3557
  930MOL0     H22733   3.013   9.111   2.269 -0.9982 -1.1741 -1.1200
  930MOL0     H22734   3.086   9.344   2.223 -1.8271  3.7397 -1.5825
  930MOL0     H22735   2.914   9.306   2.190  0.0241 -1.6053  1.2336
  930MOL0     H22736   2.977   9.456   2.017 -1.1283 -1.2586 -0.5655
  930MOL0     H22737   2.995   9.312   1.924 -1.9838  3.3722 -1.2434
  930MOL0     H22738   3.231   9.429   2.058 -0.7056  3.2927 -1.4959
  930MOL0     H22739   3.238   9.308   1.934  0.4550  0.5276 -1.9168
  930MOL0     H22740   3.288   9.540   1.866  0.3171 -1.8411  3.9851
  930MOL0     H22741   3.113   9.580   1.891 -1.7184 -0.2511 -4.2226
  930MOL0     H22742   3.387   8.896   2.608 -0.1388  0.7062  1.4394
  930MOL0     H22743   3.372   8.842   2.833 -0.6166  1.4723  0.4921
  930MOL0     H22744   3.286   8.588   3.164  4.3617  1.9736  1.3699
  930MOL0     H22745   3.329   8.582   3.393  0.5134  0.3620 -0.0675
  930MOL0     H22746   2.605   8.222   4.804 -0.7486 -0.7571 -0.9145
  930MOL0     H22747   2.370   8.180   4.941 -1.2410 -2.1570  2.8736
  930MOL0     H22748   2.129   7.614   5.137 -0.7299 -0.9679  3.7533
  930MOL0     H22749   1.918   7.585   5.184  2.4314 -0.0897  1.9092
  930MOL0     H22750   1.716   7.599   5.325 -1.7571 -3.1198 -2.3597
  930MOL0     H22751   1.633   7.637   5.168  3.4983  0.3400 -1.1593
  930MOL0     H22752   1.551   7.765   5.434 -0.7217  0.3426 -0.1712
  930MOL0     H22753   1.467   7.774   5.285 -1.2518  0.4682  2.0880
  930MOL0     H22754   1.430   7.524   5.287 -1.6048  0.2933  0.2770
  930MOL0     H22755   1.352   7.627   5.414  1.3041  4.2669  0.1407
  930MOL0     H22756   1.573   7.413   5.432 -0.8921  0.6069 -4.2969
  930MOL0     H22757   1.557   7.523   5.567  1.4234  0.7160 -1.8072
  930MOL0     H22758   1.246   7.251   5.639  1.3990 -2.3306 -0.3882
  930MOL0     H22759   1.873   8.014   5.221  0.5834  0.8488 -0.4542
  930MOL0     H22760   2.097   8.035   5.124  1.5465 -0.4052 -0.8846
  931MOL0     O22761   1.357   0.033   2.927  0.4793 -0.3350 -0.2070
  931MOL0     C22762   1.473   0.034   2.883 -0.1664 -0.2494  0.0125
  931MOL0     O22763   1.552   0.140   2.860 -0.1173 -0.5821  0.1029
  931MOL0     C22764   1.500   0.270   2.878  1.0186 -0.9742  0.1755
  931MOL0     C22765   1.462   0.332   2.999 -0.1472  0.0379  0.7186
  931MOL0     C22766   1.411   0.465   3.002  0.3147 -0.2876 -0.7386
  931MOL0     C22767   1.386   0.529   2.882  0.4927 -0.0372 -0.0358
  931MOL0     O22768   1.330   0.654   2.872 -0.2747 -0.0946  0.3820
  931MOL0     C22769   1.380   0.757   2.959 -0.1770  0.6616  0.1505
  931MOL0     C22770   1.265   0.859   2.973  1.1281 -0.4766  0.4380
  931MOL0     C22771   1.226   0.938   2.841 -0.4837 -0.3981  0.3059
  931MOL0     C22772   1.101   1.019   2.855 -0.0828  0.0513  0.8972
  931MOL0     C22773   1.110   1.152   2.781 -0.8488  0.3364  0.0498
  931MOL0     C22774   1.176   1.252   2.880  0.5106 -0.6160  0.9346
  931MOL0     C22775   1.229   1.370   2.797 -0.7361 -0.9973  0.4947
  931MOL0     C22776   1.112   1.463   2.758 -0.6996 -0.1043  0.1574
  931MOL0     N22777   1.146   1.579   2.662  0.4361 -0.2930  0.7610
  931MOL0     C22778   1.230   1.683   2.683 -0.8193 -0.2787 -0.0763
  931MOL0     C22779   1.257   1.732   2.562 -0.0066  0.7263  0.4777
  931MOL0     C22780   1.349   1.842   2.521 -0.4045 -0.3859  0.6034
  931MOL0     C22781   1.300   1.926   2.409  0.5544  0.1008  0.8375
  931MOL0     C22782   1.150   1.957   2.410 -0.1219  0.6944  0.4145
  931MOL0     C22783   1.095   2.051   2.517 -0.3570  0.2511 -0.4676
  931MOL0     O22784   1.181   2.166   2.549  0.4850 -0.3051  0.0647
  931MOL0     C22785   1.184   2.281   2.477  0.7345 -0.0475  0.6844
  931MOL0     C22786   1.079   2.317   2.390 -0.1189 -0.2080  2.0020
  931MOL0     C22787   1.087   2.435   2.323 -0.6184 -0.5745 -0.5001
  931MOL0     C22788   1.181   2.538   2.359 -1.1426 -0.4425 -0.6209
  931MOL0     C22789   1.177   2.661   2.282  0.9473  0.1975  0.0194
  931MOL0     O22790   1.084   2.671   2.178  1.0345 -0.3802 -0.0687
  931MOL0     C22791   1.091   2.793   2.107  0.9469  0.7929  0.3323
  931MOL0     C22792   1.212   2.852   2.062  0.4455  0.2303 -0.1560
  931MOL0     C22793   1.226   2.960   1.979  0.7818 -0.0248 -0.2603
  931MOL0     C22794   1.104   3.022   1.932  0.0786  0.6361 -1.0267
  931MOL0     O22795   1.088   3.106   1.834  0.3318 -0.1173  0.1091
  931MOL0     C22796   1.181   3.211   1.835  0.2852 -0.0134 -0.5672
  931MOL0     C22797   1.133   3.333   1.751  0.0753  1.0243  0.0908
  931MOL0     C22798   1.173   3.309   1.603 -0.3395  0.3280 -0.1621
  931MOL0     C22799   1.093   3.389   1.503  0.7811 -0.8090 -0.2458
  931MOL0     C22800   1.130   3.369   1.356 -0.6304  0.2374  0.1415
  931MOL0     C22801   1.130   3.220   1.311  0.0892 -0.3449 -0.2567
  931MOL0     C22802   1.166   3.204   1.167 -0.3239 -0.4019 -0.6301
  931MOL0     C22803   1.107   3.080   1.099  0.5940 -1.0778 -0.4663
  931MOL0    Cl22804   0.938   3.098   1.072 -0.0171  0.1916 -0.3115
  931MOL0     C22805   0.978   2.967   1.983 -0.6555 -0.1542 -0.1499
  931MOL0     C22806   0.975   2.854   2.064 -0.8199  0.2548  0.0725
  931MOL0     O22807   1.257   2.748   2.323  0.2003  0.7529  0.1643
  931MOL0     C22808   1.284   2.501   2.443 -0.1400  0.0552 -0.1452
  931MOL0     C22809   1.284   2.373   2.499 -0.6214 -0.8388  0.7426
  931MOL0     N22810   1.183   1.655   2.473 -0.0414 -0.2165 -0.9329
  931MOL0     N22811   1.111   1.558   2.527  0.4114 -0.3841 -0.2911
  931MOL0     C22812   1.410   0.464   2.759 -0.4593 -0.1135 -0.3680
  931MOL0     C22813   1.466   0.336   2.765 -0.7607  0.4486  1.3297
  931MOL0     C22814   1.526  -0.102   2.850  0.0001 -1.0113  0.7136
  931MOL0     C22815   1.627  -0.115   2.754  0.4302  0.7277  0.4743
  931MOL0     C22816   1.663  -0.236   2.709  0.7391  0.8632 -0.1682
  931MOL0     C22817   1.628  -0.360   2.781  0.3515 -0.6625  0.2064
  931MOL0     O22818   1.688  -0.481   2.758  0.6234 -0.1937 -0.1313
  931MOL0     C22819   1.697  -0.529   2.624  0.3147 -0.6619 -0.9797
  931MOL0     C22820   1.550  -0.528   2.563 -0.2295 -0.0951 -0.4407
  931MOL0     C22821   1.512  -0.660   2.493  0.3543 -0.1307 -0.6638
  931MOL0     C22822   1.543  -0.689   2.345  0.1565 -0.8909 -0.2828
  931MOL0     C22823   1.504  -0.582   2.255 -0.8490  0.3779 -0.2608
  931MOL0     C22824   1.467  -0.508   2.175  0.3941  0.0743 -0.6723
  931MOL0     C22825   1.523  -0.349   2.876  0.8364 -0.2769  0.5705
  931MOL0     C22826   1.473  -0.219   2.910 -0.2209 -0.0046 -0.5374
  931MOL0     H22827   1.472   0.277   3.092  1.6932  0.3617  0.7464
  931MOL0     H22828   1.376   0.508   3.096 -3.4058 -3.3192 -0.4938
  931MOL0     H22829   1.472   0.802   2.923  1.7445 -2.6562  0.5011
  931MOL0     H22830   1.408   0.711   3.055  3.3491  1.5271 -0.3262
  931MOL0     H22831   1.298   0.931   3.048 -3.0845  1.1627  0.9621
  931MOL0     H22832   1.173   0.809   3.005  0.7354 -0.1812 -0.2265
  931MOL0     H22833   1.220   0.865   2.759 -1.3680  0.1091 -0.0990
  931MOL0     H22834   1.312   1.005   2.833 -1.5550  0.9588 -0.2358
  931MOL0     H22835   1.021   0.956   2.816  0.9632 -0.2890 -0.7962
  931MOL0     H22836   1.066   1.039   2.957 -1.7351  0.3309  0.3122
  931MOL0     H22837   1.008   1.183   2.756 -0.8759  0.4278  0.2685
  931MOL0     H22838   1.166   1.156   2.687 -1.6351  2.9260 -0.3828
  931MOL0     H22839   1.267   1.224   2.932  1.5478 -0.0214 -0.4848
  931MOL0     H22840   1.094   1.295   2.939 -0.6533 -1.8724  0.2884
  931MOL0     H22841   1.296   1.425   2.863 -2.1152 -0.0570  1.1539
  931MOL0     H22842   1.299   1.346   2.716  5.0568  1.4847  4.1173
  931MOL0     H22843   1.082   1.509   2.852 -2.2947 -2.0916  0.6665
  931MOL0     H22844   1.029   1.402   2.721 -0.4763 -0.5383  0.3680
  931MOL0     H22845   1.278   1.712   2.775 -0.0224 -1.8134  0.0219
  931MOL0     H22846   1.450   1.805   2.503  1.1359  3.2829  0.7823
  931MOL0     H22847   1.360   1.911   2.606  2.1838  0.8927 -0.6255
  931MOL0     H22848   1.322   1.878   2.313  0.6910  1.0075  0.4090
  931MOL0     H22849   1.354   2.021   2.406 -0.3630  0.6089 -0.2688
  931MOL0     H22850   1.134   2.016   2.320 -1.8562 -0.1222  0.1330
  931MOL0     H22851   1.078   1.874   2.408  2.0391 -1.2989 -2.1809
  931MOL0     H22852   1.102   1.998   2.613 -0.2917  1.8040  0.4206
  931MOL0     H22853   0.989   2.073   2.504 -0.5291  1.4937  2.3321
  931MOL0     H22854   0.998   2.252   2.358 -0.4093  1.9253 -2.3576
  931MOL0     H22855   1.008   2.452   2.250  0.7550 -2.2453 -2.4855
  931MOL0     H22856   1.309   2.813   2.090  0.3486 -0.7252 -1.0662
  931MOL0     H22857   1.316   2.996   1.929 -0.0334  6.1987  1.8411
  931MOL0     H22858   1.273   3.178   1.787  0.1545  0.9584 -1.5200
  931MOL0     H22859   1.206   3.242   1.937 -1.7299 -1.1566  0.3425
  931MOL0     H22860   1.184   3.423   1.785  1.9270  0.4768 -1.1200
  931MOL0     H22861   1.024   3.324   1.752 -0.0232  0.0749 -3.6516
  931MOL0     H22862   1.158   3.201   1.599  3.0545 -0.4304  2.4838
  931MOL0     H22863   1.280   3.332   1.603  0.1924 -1.6135  2.6880
  931MOL0     H22864   0.985   3.372   1.511  0.6519 -0.0525 -0.2501
  931MOL0     H22865   1.103   3.497   1.518 -4.2342 -0.0967 -0.3016
  931MOL0     H22866   1.231   3.410   1.346  0.3705 -1.8471  1.0299
  931MOL0     H22867   1.072   3.421   1.280  0.0539  2.5206  1.1047
  931MOL0     H22868   1.031   3.182   1.337  0.8410 -1.7033  0.7495
  931MOL0     H22869   1.196   3.156   1.371 -1.4613  0.5349  2.5805
  931MOL0     H22870   1.126   3.287   1.108 -1.3216  1.0139  1.8470
  931MOL0     H22871   1.275   3.200   1.161 -0.3973 -0.7367 -1.9295
  931MOL0     H22872   1.129   2.996   1.165 -2.9308 -0.5113  1.7325
  931MOL0     H22873   1.168   3.073   1.009  2.4019 -0.9017  0.6992
  931MOL0     H22874   0.883   3.009   1.953 -0.5378 -1.1130 -2.0602
  931MOL0     H22875   0.884   2.809   2.101  0.2806  0.8979  4.0841
  931MOL0     H22876   1.371   2.565   2.459  0.2606  0.2497 -2.6671
  931MOL0     H22877   1.368   2.356   2.565  0.8149  1.1721 -0.4592
  931MOL0     H22878   1.382   0.485   2.657  1.1755 -0.8519 -1.0127
  931MOL0     H22879   1.479   0.277   2.675 -0.9101 -0.4471  1.8842
  931MOL0     H22880   1.657  -0.032   2.691 -3.2021  2.5909  0.9105
  931MOL0     H22881   1.745  -0.235   2.637  1.5020  1.1157  0.6866
  931MOL0     H22882   1.727  -0.635   2.626 -1.6360 -1.2748 -1.8876
  931MOL0     H22883   1.771  -0.460   2.581  0.7990  0.9310  2.1326
  931MOL0     H22884   1.478  -0.510   2.644  1.7899  2.7899  0.8856
  931MOL0     H22885   1.537  -0.443   2.496 -2.8467 -0.0231  0.0549
  931MOL0     H22886   1.404  -0.658   2.508  0.7574 -0.7639  3.1537
  931MOL0     H22887   1.534  -0.752   2.549 -2.2136  0.5008  1.5819
  931MOL0     H22888   1.652  -0.691   2.335  0.5187  1.3754  2.2005
  931MOL0     H22889   1.490  -0.779   2.311 -2.2576  0.0845  0.6379
  931MOL0     H22890   1.435  -0.445   2.094 -1.2804 -0.1085 -0.1718
  931MOL0     H22891   1.482  -0.430   2.935 -3.0404 -0.8231 -2.4658
  931MOL0     H22892   1.392  -0.211   2.981 -1.5568  0.5580 -2.0715
  932MOL0     O22893   7.636   4.528   4.796 -0.9052 -0.4062 -0.3633
  932MOL0     C22894   7.513   4.562   4.810 -0.1797  0.0872 -0.1868
  932MOL0     O22895   7.458   4.672   4.861  1.0848 -0.2319 -0.0654
  932MOL0     C22896   7.538   4.775   4.903 -0.0258 -0.5292  0.4734
  932MOL0     C22897   7.536   4.887   4.811  0.9022 -0.7154  0.2007
  932MOL0     C22898   7.620   4.989   4.833 -0.8662 -0.8244  0.7569
  932MOL0     C22899   7.713   4.975   4.943 -0.1030 -1.4245  0.5351
  932MOL0     O22900   7.790   5.066   4.982 -0.5970 -0.7154 -0.3302
  932MOL0     C22901   7.834   5.175   4.892  0.5835  0.1258 -0.2330
  932MOL0     C22902   7.974   5.137   4.858 -0.1961 -1.3790  0.2152
  932MOL0     C22903   8.029   5.239   4.746 -0.4416  0.1288 -0.1222
  932MOL0     C22904   8.170   5.192   4.702 -0.4240  0.7660 -0.2725
  932MOL0     C22905   8.220   5.306   4.604 -0.5620  0.2181  0.2337
  932MOL0     C22906   8.308   5.249   4.488 -0.8552 -0.3940 -0.3681
  932MOL0     C22907   8.255   5.313   4.357  0.5116  0.4371  0.5203
  932MOL0     C22908   8.342   5.263   4.238 -0.8985  0.3490  0.8445
  932MOL0     N22909   8.273   5.299   4.113  0.8646  0.9949  0.0738
  932MOL0     C22910   8.179   5.221   4.054  0.8255 -0.2307  0.8487
  932MOL0     C22911   8.139   5.298   3.947  0.0710 -1.0533 -0.5564
  932MOL0     C22912   8.020   5.271   3.845 -0.0123  0.3403  0.2703
  932MOL0     C22913   8.042   5.136   3.766  0.6168  0.8984 -0.7243
  932MOL0     C22914   8.139   5.145   3.644 -0.8867  0.3688  0.3215
  932MOL0     C22915   8.290   5.191   3.668 -0.5255  0.3481 -0.5887
  932MOL0     O22916   8.381   5.169   3.557 -0.0624  0.1239 -0.4605
  932MOL0     C22917   8.518   5.201   3.583  0.8178 -1.4308 -0.4344
  932MOL0     C22918   8.548   5.269   3.703 -0.1202 -0.0769  0.4234
  932MOL0     C22919   8.679   5.289   3.734 -0.8732  0.3448  0.4094
  932MOL0     C22920   8.785   5.260   3.648  1.1599  0.8757  0.1481
  932MOL0     C22921   8.916   5.289   3.682 -0.7394 -0.4670 -0.0688
  932MOL0     O22922   9.024   5.242   3.605  0.8496 -0.7992 -0.0238
  932MOL0     C22923   9.154   5.269   3.648  0.6614  0.2339 -0.1918
  932MOL0     C22924   9.227   5.168   3.706  0.2190  0.4666  0.6753
  932MOL0     C22925   9.360   5.193   3.731 -0.6988 -0.3350 -0.6905
  932MOL0     C22926   9.403   5.322   3.726 -0.4174  1.0478  0.7083
  932MOL0     O22927   9.534   5.330   3.770  0.0354 -0.7824  0.3595
  932MOL0     C22928   9.607   5.447   3.743  0.4865 -0.0954 -0.5494
  932MOL0     C22929   9.749   5.424   3.792 -0.5224 -0.5320  0.7279
  932MOL0     C22930   9.758   5.390   3.939 -0.2226 -0.3618 -0.5996
  932MOL0     C22931   9.902   5.392   3.980 -0.4112  0.0729 -0.4048
  932MOL0     C22932   9.916   5.355   4.122 -0.0334  0.6218  0.5256
  932MOL0     C22933  10.057   5.309   4.155 -0.7678 -0.2992 -0.9335
  932MOL0     C22934  10.064   5.248   4.302  0.5058 -0.6471  0.5166
  932MOL0     C22935  10.053   5.364   4.408 -0.2034  0.7085  0.5766
  932MOL0    Cl22936  10.034   5.306   4.582  0.6199  0.1122 -0.1516
  932MOL0     C22937   9.327   5.421   3.670 -0.1108  0.0507  1.6837
  932MOL0     C22938   9.193   5.401   3.639 -0.0114  0.4035  0.1130
  932MOL0     O22939   8.925   5.357   3.783  0.2228 -1.1663  0.3327
  932MOL0     C22940   8.754   5.199   3.528  0.9088  0.1415 -0.1036
  932MOL0     C22941   8.619   5.178   3.493 -0.4715 -0.2980 -0.3071
  932MOL0     N22942   8.213   5.406   3.949  0.3694 -0.4168  0.5403
  932MOL0     N22943   8.286   5.421   4.049 -0.6875  0.1399  0.2011
  932MOL0     C22944   7.712   4.859   5.027 -0.6250  0.8662 -0.1759
  932MOL0     C22945   7.623   4.758   5.002 -0.3071  0.5015 -0.7984
  932MOL0     C22946   7.416   4.458   4.769  0.1043  0.0009 -0.2264
  932MOL0     C22947   7.276   4.481   4.790  0.0131  0.2856 -0.8383
  932MOL0     C22948   7.184   4.373   4.759 -0.1897 -0.1130 -0.5002
  932MOL0     C22949   7.223   4.260   4.701 -0.7241 -0.1097  0.0345
  932MOL0     O22950   7.134   4.159   4.673  0.2131 -0.2247  0.0042
  932MOL0     C22951   7.103   4.134   4.535 -1.0979 -0.4649  0.3658
  932MOL0     C22952   6.950   4.171   4.507  0.6309  0.6687 -0.3549
  932MOL0     C22953   6.904   4.320   4.499  0.7812 -1.1029  1.3610
  932MOL0     C22954   6.807   4.356   4.381  0.3175 -0.3145  0.2888
  932MOL0     C22955   6.876   4.348   4.244 -0.3024 -0.5140 -0.2742
  932MOL0     C22956   6.958   4.349   4.156 -0.4701  0.9600  0.4695
  932MOL0     C22957   7.355   4.244   4.681 -0.3033 -0.2485  0.7505
  932MOL0     C22958   7.457   4.331   4.713 -0.6835 -0.3044 -0.4138
  932MOL0     H22959   7.466   4.892   4.729  0.3262 -1.0005  0.6646
  932MOL0     H22960   7.613   5.068   4.758 -0.5836 -1.4526  0.0552
  932MOL0     H22961   7.823   5.272   4.943  3.0298 -1.6026  4.2028
  932MOL0     H22962   7.770   5.194   4.806 -0.4164  2.9071  0.9894
  932MOL0     H22963   7.985   5.035   4.821 -3.5297 -0.3525 -4.5980
  932MOL0     H22964   8.040   5.147   4.944  3.9807 -1.0070 -2.7325
  932MOL0     H22965   8.037   5.335   4.797 -0.9808  0.3135 -0.3877
  932MOL0     H22966   7.959   5.243   4.663 -3.7376  2.0511  2.5083
  932MOL0     H22967   8.250   5.181   4.776  1.2685 -0.0007 -2.1138
  932MOL0     H22968   8.151   5.097   4.652  0.1125  0.4469  0.1250
  932MOL0     H22969   8.286   5.365   4.669  1.1204  0.4808 -1.6199
  932MOL0     H22970   8.140   5.375   4.575 -0.4267 -0.1632 -1.1135
  932MOL0     H22971   8.327   5.142   4.481  0.6612 -0.1263 -0.6985
  932MOL0     H22972   8.401   5.304   4.507 -3.5803  4.0433  1.9454
  932MOL0     H22973   8.151   5.277   4.352  0.4283  0.8585 -1.8519
  932MOL0     H22974   8.254   5.422   4.364 -2.0573  0.4748  0.7047
  932MOL0     H22975   8.358   5.155   4.244  0.2966  0.5952  3.0974
  932MOL0     H22976   8.444   5.300   4.227 -0.4964 -0.5667  1.3378
  932MOL0     H22977   8.139   5.127   4.091 -0.7852  0.4063  0.8096
  932MOL0     H22978   8.013   5.355   3.775  0.8970  0.1551 -0.0653
  932MOL0     H22979   7.924   5.271   3.896 -1.5498  1.6763 -2.3932
  932MOL0     H22980   7.943   5.102   3.736 -0.0957  0.6725  1.6340
  932MOL0     H22981   8.090   5.062   3.832  2.8654  2.7305 -0.1937
  932MOL0     H22982   8.143   5.049   3.592 -1.8569  1.0161 -1.0189
  932MOL0     H22983   8.099   5.220   3.575 -0.1492  1.6734  1.2543
  932MOL0     H22984   8.332   5.137   3.754 -2.5323 -4.5395 -2.3736
  932MOL0     H22985   8.289   5.297   3.696  0.6835  1.5460 -4.4710
  932MOL0     H22986   8.487   5.313   3.781 -0.0451 -0.8867  0.9498
  932MOL0     H22987   8.694   5.323   3.836  0.5505  0.3636  0.2204
  932MOL0     H22988   9.183   5.069   3.708  0.9414  0.1102 -0.3165
  932MOL0     H22989   9.432   5.124   3.774  2.0790  3.8798  2.2482
  932MOL0     H22990   9.557   5.532   3.791  2.0345 -0.9662  2.9146
  932MOL0     H22991   9.630   5.455   3.637 -0.4727 -1.0512 -0.8399
  932MOL0     H22992   9.813   5.503   3.753 -3.4956  0.1582 -3.4724
  932MOL0     H22993   9.784   5.337   3.736  2.3053  0.6651  0.4927
  932MOL0     H22994   9.695   5.303   3.962 -0.8364 -0.7356 -3.3288
  932MOL0     H22995   9.715   5.472   3.997  2.3099 -0.0894  1.0824
  932MOL0     H22996   9.962   5.324   3.917 -2.4534 -0.9369 -1.3497
  932MOL0     H22997   9.939   5.494   3.972  1.7879 -0.7977 -2.9142
  932MOL0     H22998   9.849   5.268   4.131 -1.1677  1.5848  1.8423
  932MOL0     H22999   9.880   5.434   4.189 -0.5610  0.3448  0.5787
  932MOL0     H23000  10.139   5.380   4.143  2.5684 -3.9769 -2.1078
  932MOL0     H23001  10.085   5.227   4.088  0.4871 -1.0248  0.4310
  932MOL0     H23002   9.988   5.170   4.308  1.7083 -2.0257 -1.1223
  932MOL0     H23003  10.161   5.198   4.313  1.2370 -0.3753 -3.4160
  932MOL0     H23004   9.974   5.434   4.381  1.2025  1.7759 -0.9499
  932MOL0     H23005  10.148   5.417   4.400 -1.1475  2.1099 -3.6284
  932MOL0     H23006   9.374   5.508   3.626  1.7440 -2.2614 -1.2364
  932MOL0     H23007   9.140   5.475   3.579  0.1349 -0.4533 -1.1266
  932MOL0     H23008   8.837   5.180   3.461  1.3766 -0.8199  0.7207
  932MOL0     H23009   8.595   5.132   3.398 -2.1613 -0.4822  0.1792
  932MOL0     H23010   7.785   4.862   5.108 -0.6787 -3.1890  0.2188
  932MOL0     H23011   7.633   4.671   5.065 -0.3424 -1.0122 -2.8006
  932MOL0     H23012   7.230   4.566   4.840 -0.7120 -1.8580  2.4663
  932MOL0     H23013   7.077   4.392   4.766 -0.6384 -2.3492 -0.3191
  932MOL0     H23014   7.115   4.029   4.505  2.2222 -0.1498  0.2012
  932MOL0     H23015   7.163   4.198   4.469 -0.6903  0.0710  1.2476
  932MOL0     H23016   6.921   4.109   4.422  2.7856 -0.8904 -0.0517
  932MOL0     H23017   6.899   4.129   4.594  2.3736  0.7423  0.7589
  932MOL0     H23018   6.990   4.387   4.510 -0.7538  1.0538  0.7628
  932MOL0     H23019   6.841   4.341   4.585  0.5464 -0.8423  1.1268
  932MOL0     H23020   6.715   4.297   4.381  0.4169 -0.4706  0.1677
  932MOL0     H23021   6.761   4.456   4.387  0.6501 -0.1006 -0.4927
  932MOL0     H23022   7.027   4.353   4.074 -0.6681 -0.6547  0.1831
  932MOL0     H23023   7.376   4.141   4.655 -0.5304 -1.0052  3.2875
  932MOL0     H23024   7.562   4.306   4.710  0.1836  2.1771  2.9363
  933MOL0     O23025   4.215   1.148   3.565 -0.0214 -0.0156 -0.1568
  933MOL0     C23026   4.274   1.170   3.675  0.2625 -0.2869 -0.3605
  933MOL0     O23027   4.401   1.124   3.707 -0.9949  0.1904 -0.8432
  933MOL0     C23028   4.436   0.991   3.683  0.1440 -0.3806  0.0101
  933MOL0     C23029   4.346   0.887   3.675  0.5188  0.4141 -0.3081
  933MOL0     C23030   4.383   0.758   3.635  0.1001  0.7917  0.6002
  933MOL0     C23031   4.523   0.731   3.610  1.6246 -0.3096 -0.2401
  933MOL0     O23032   4.583   0.617   3.568  0.3370  0.3116  0.1072
  933MOL0     C23033   4.518   0.495   3.566 -0.2493  0.6143  0.2885
  933MOL0     C23034   4.586   0.402   3.462 -0.0160 -0.6128 -0.8551
  933MOL0     C23035   4.734   0.372   3.504  0.0794 -0.0684  0.0384
  933MOL0     C23036   4.802   0.282   3.400 -0.4636 -0.2985  0.0730
  933MOL0     C23037   4.940   0.218   3.447  0.0155  0.5077 -0.6504
  933MOL0     C23038   4.994   0.127   3.333  0.5263  0.3563  0.7369
  933MOL0     C23039   5.080   0.020   3.391  0.3667 -1.3706  0.5000
  933MOL0     C23040   5.158  -0.067   3.286 -0.5844 -0.4704 -0.0607
  933MOL0     N23041   5.077  -0.116   3.180 -0.5159  0.1451  0.4917
  933MOL0     C23042   5.012  -0.225   3.201  0.8034  0.2243  0.5819
  933MOL0     C23043   4.916  -0.216   3.108  0.6354 -0.1002 -0.0281
  933MOL0     C23044   4.804  -0.315   3.091 -0.6663 -0.5019 -0.4073
  933MOL0     C23045   4.674  -0.236   3.074 -1.0727  0.0894  0.4835
  933MOL0     C23046   4.554  -0.336   3.058  0.3657  0.3107 -0.7221
  933MOL0     C23047   4.423  -0.258   3.051 -0.5086 -0.7417 -0.1904
  933MOL0     O23048   4.406  -0.165   3.166  0.3536  0.9101 -0.0322
  933MOL0     C23049   4.282  -0.097   3.168 -0.0976  0.2642 -0.1170
  933MOL0     C23050   4.201  -0.078   3.050 -0.2487  0.8028  0.3848
  933MOL0     C23051   4.066  -0.036   3.058 -0.3131 -0.0464  0.8352
  933MOL0     C23052   4.007   0.003   3.181 -0.0067  0.5478 -0.4601
  933MOL0     C23053   3.863   0.051   3.189  0.1694 -0.0231  0.2067
  933MOL0     O23054   3.782   0.035   3.079 -1.0470 -0.0169  0.6529
  933MOL0     C23055   3.651   0.073   3.084 -0.4560 -0.6971 -0.4436
  933MOL0     C23056   3.608   0.201   3.043  0.9777  0.0999 -0.6166
  933MOL0     C23057   3.489   0.253   3.088  0.3892 -0.3174  0.3875
  933MOL0     C23058   3.391   0.173   3.149 -1.2940  0.1459  0.4946
  933MOL0     O23059   3.270   0.218   3.185  0.0556 -0.1352  0.3890
  933MOL0     C23060   3.238   0.351   3.227 -0.0750  0.0977 -0.8393
  933MOL0     C23061   3.122   0.333   3.338 -0.5090 -0.0446  1.2145
  933MOL0     C23062   2.985   0.342   3.279  1.3073 -1.3913  0.0680
  933MOL0     C23063   2.867   0.321   3.369  0.9109  0.4020 -0.8102
  933MOL0     C23064   2.837   0.163   3.385 -0.9650 -0.5665  0.2135
  933MOL0     C23065   2.747   0.113   3.497 -0.2743  0.0276  0.4824
  933MOL0     C23066   2.797   0.127   3.636 -0.0211  0.5627  0.0287
  933MOL0     C23067   2.752   0.031   3.740 -0.0647 -0.4674  0.0376
  933MOL0    Cl23068   2.577   0.042   3.799  0.2287  0.1315 -0.1258
  933MOL0     C23069   3.431   0.038   3.171  0.0252 -0.4002  0.3205
  933MOL0     C23070   3.558  -0.010   3.145 -0.6846 -0.1796  0.1629
  933MOL0     O23071   3.833   0.105   3.293  0.7123  0.5052 -0.5515
  933MOL0     C23072   4.092  -0.006   3.300 -0.6283 -0.8333  0.6905
  933MOL0     C23073   4.224  -0.052   3.288 -0.0795  0.6724 -1.4177
  933MOL0     N23074   4.937  -0.102   3.031 -0.0599 -0.0709  0.5033
  933MOL0     N23075   5.041  -0.050   3.071 -0.4884 -0.2362  0.2751
  933MOL0     C23076   4.608   0.834   3.616  0.2276  0.6594 -0.0144
  933MOL0     C23077   4.563   0.954   3.660 -0.7183 -0.1796 -0.3893
  933MOL0     C23078   4.209   1.248   3.783 -0.0914 -0.0137 -0.0777
  933MOL0     C23079   4.288   1.308   3.887  1.0447 -0.0264  0.2092
  933MOL0     C23080   4.226   1.379   3.982  0.3803 -0.2444  0.5465
  933MOL0     C23081   4.085   1.388   3.994 -0.2853 -0.3632  1.0868
  933MOL0     O23082   4.038   1.437   4.112  0.4055  0.1727  0.3196
  933MOL0     C23083   3.940   1.537   4.099  0.0445  0.7101 -0.6726
  933MOL0     C23084   3.986   1.659   4.184  0.3205  0.0549  0.4373
  933MOL0     C23085   3.914   1.667   4.315 -0.2638 -0.8931 -0.3906
  933MOL0     C23086   3.940   1.802   4.392  0.3379  0.3604 -0.8907
  933MOL0     C23087   3.922   1.781   4.535 -0.5084 -0.6066 -0.2343
  933MOL0     C23088   3.900   1.749   4.650 -0.1314  0.4263  0.2427
  933MOL0     C23089   4.003   1.336   3.889 -0.8742 -0.1852 -0.2164
  933MOL0     C23090   4.069   1.279   3.778 -0.3188  0.1212  0.3239
  933MOL0     H23091   4.240   0.903   3.689 -0.1435 -2.9374 -0.6799
  933MOL0     H23092   4.307   0.685   3.613  0.4822  1.2902 -2.9764
  933MOL0     H23093   4.410   0.493   3.547 -0.0958 -2.1940 -0.8090
  933MOL0     H23094   4.535   0.452   3.665  0.5570  1.8357  0.7080
  933MOL0     H23095   4.590   0.439   3.359  2.3824  0.0447 -0.5953
  933MOL0     H23096   4.526   0.312   3.449 -2.9985  1.3761 -1.6832
  933MOL0     H23097   4.725   0.324   3.602 -1.0534 -2.0640 -0.9691
  933MOL0     H23098   4.792   0.463   3.520  0.7411 -1.0756  4.8179
  933MOL0     H23099   4.735   0.208   3.357  0.1114  0.1160 -1.5938
  933MOL0     H23100   4.821   0.344   3.312  1.7499 -3.2920 -1.7347
  933MOL0     H23101   4.930   0.153   3.534 -0.7620  1.5349  0.0520
  933MOL0     H23102   5.006   0.301   3.476 -3.7568  2.8951  2.0334
  933MOL0     H23103   5.048   0.187   3.259 -0.0221  0.1668  0.1697
  933MOL0     H23104   4.907   0.091   3.276 -1.2507  2.5015  1.9549
  933MOL0     H23105   5.153   0.059   3.463  0.6724 -0.9943 -0.0051
  933MOL0     H23106   5.015  -0.047   3.448 -1.0008  0.2152  0.8706
  933MOL0     H23107   5.215  -0.147   3.334 -2.0516 -1.9374 -0.6628
  933MOL0     H23108   5.232  -0.004   3.235 -0.4741 -1.3129 -0.9879
  933MOL0     H23109   5.021  -0.308   3.270  1.5536 -1.6939 -1.6519
  933MOL0     H23110   4.786  -0.377   3.179  0.1467  1.1978  1.0106
  933MOL0     H23111   4.802  -0.383   3.005 -3.4134 -1.4331  0.2778
  933MOL0     H23112   4.682  -0.176   2.983 -0.1955 -2.5344 -1.2798
  933MOL0     H23113   4.667  -0.173   3.163 -2.9848 -0.8551  1.0475
  933MOL0     H23114   4.567  -0.395   2.966  0.7867  3.2993 -2.7215
  933MOL0     H23115   4.542  -0.396   3.148 -1.1194  1.5058 -0.0968
  933MOL0     H23116   4.336  -0.323   3.042 -1.5620  0.7475 -1.1842
  933MOL0     H23117   4.430  -0.193   2.964 -3.0730  1.4733  1.1019
  933MOL0     H23118   4.207  -0.114   2.947 -3.8627  0.3289  0.2089
  933MOL0     H23119   4.001  -0.029   2.971 -1.7465  0.8366  1.9201
  933MOL0     H23120   3.675   0.265   2.987  1.1026  1.5732  1.1191
  933MOL0     H23121   3.466   0.356   3.061 -0.0331 -0.5278 -0.0776
  933MOL0     H23122   3.194   0.410   3.147 -2.1464  1.7684  1.4134
  933MOL0     H23123   3.335   0.388   3.263  2.0953 -2.1652 -3.8109
  933MOL0     H23124   3.140   0.405   3.419  2.1860 -0.9141  1.4841
  933MOL0     H23125   3.121   0.231   3.380  1.6489  0.4067  2.5670
  933MOL0     H23126   2.994   0.278   3.191  1.5866  2.1097 -2.6571
  933MOL0     H23127   2.979   0.444   3.241 -0.2666 -1.7062 -0.6062
  933MOL0     H23128   2.887   0.377   3.460  1.4769  2.3380 -2.0720
  933MOL0     H23129   2.777   0.363   3.322  0.3692 -0.1907 -0.3316
  933MOL0     H23130   2.937   0.119   3.380  0.0618  1.7192 -4.1030
  933MOL0     H23131   2.790   0.137   3.289  4.7508  0.4415 -3.3502
  933MOL0     H23132   2.730   0.008   3.474 -0.0179  0.6690 -3.3523
  933MOL0     H23133   2.653   0.167   3.486  0.1956  0.6685 -0.6342
  933MOL0     H23134   2.903   0.103   3.621 -0.9122 -3.3706 -1.0375
  933MOL0     H23135   2.784   0.228   3.675 -1.1603 -0.1595  1.5882
  933MOL0     H23136   2.812   0.046   3.830 -0.8827 -3.0713  1.1124
  933MOL0     H23137   2.759  -0.073   3.707 -1.4787 -1.1746  1.7658
  933MOL0     H23138   3.354  -0.033   3.197  1.0086 -1.7358 -0.2644
  933MOL0     H23139   3.589  -0.109   3.176  2.3592  0.2180 -1.1533
  933MOL0     H23140   4.037   0.023   3.389 -0.2511 -1.2564  1.0653
  933MOL0     H23141   4.283  -0.063   3.378 -3.0422  0.1722  0.6017
  933MOL0     H23142   4.711   0.821   3.583 -0.3820 -1.1676 -1.3443
  933MOL0     H23143   4.635   1.034   3.675  3.4660 -3.2634 -2.0813
  933MOL0     H23144   4.396   1.300   3.890  1.2915  2.5079  0.9757
  933MOL0     H23145   4.289   1.419   4.061  0.3490  0.9012  0.0178
  933MOL0     H23146   3.842   1.515   4.144  0.6165  4.6876  3.2336
  933MOL0     H23147   3.937   1.565   3.994  1.4146  1.4167 -0.5371
  933MOL0     H23148   4.093   1.658   4.207 -0.1679 -0.5973  3.0462
  933MOL0     H23149   3.968   1.753   4.130 -2.9056 -0.5062  0.3297
  933MOL0     H23150   3.956   1.584   4.373 -0.2933 -0.6076  0.0473
  933MOL0     H23151   3.808   1.646   4.296  0.4163 -3.6450 -1.5553
  933MOL0     H23152   4.047   1.816   4.377  1.1615 -1.5661  2.3724
  933MOL0     H23153   3.869   1.879   4.358  1.1429  2.2322  1.3938
  933MOL0     H23154   3.896   1.701   4.746  1.1408 -0.5895 -0.1782
  933MOL0     H23155   3.895   1.333   3.895 -0.9401 -3.0753 -1.1591
  933MOL0     H23156   4.013   1.247   3.690 -0.6316 -1.1923  0.9750
  934MOL0     O23157   0.435   3.423   7.517 -0.6317 -0.5540 -0.2707
  934MOL0     C23158   0.327   3.471   7.556 -0.4402 -0.7122 -1.3663
  934MOL0     O23159   0.310   3.591   7.615  0.3158 -0.3360 -0.7524
  934MOL0     C23160   0.424   3.666   7.628  0.7858  1.0527 -0.2888
  934MOL0     C23161   0.499   3.646   7.744 -0.1189 -0.5165  0.8343
  934MOL0     C23162   0.623   3.707   7.753 -0.7111  0.1340  0.4557
  934MOL0     C23163   0.675   3.792   7.647  1.0338  0.3163  0.6594
  934MOL0     O23164   0.801   3.855   7.655  0.0905 -0.5870  0.1537
  934MOL0     C23165   0.876   3.854   7.784  0.9771 -0.8252 -0.1640
  934MOL0     C23166   0.991   3.943   7.800  0.7492  0.5028 -0.4850
  934MOL0     C23167   1.131   3.892   7.773 -0.5909  0.3956  1.4322
  934MOL0     C23168   1.181   3.791   7.875  0.2186  0.7159 -1.1201
  934MOL0     C23169   1.319   3.739   7.859  1.0120 -0.7568  0.5794
  934MOL0     C23170   1.343   3.611   7.943  0.5414 -0.0618 -0.5375
  934MOL0     C23171   1.469   3.540   7.921 -0.1547  0.7299  1.3169
  934MOL0     C23172   1.491   3.449   8.045 -0.5101 -0.2252  0.9074
  934MOL0     N23173   1.384   3.360   8.065 -1.0997 -0.9151  0.9060
  934MOL0     C23174   1.344   3.258   7.986 -0.0948 -1.2836  0.0122
  934MOL0     C23175   1.225   3.224   8.042  0.1471  0.8116 -0.5136
  934MOL0     C23176   1.137   3.108   7.997  1.3136 -0.1181  0.1322
  934MOL0     C23177   1.095   3.102   7.846 -0.3171 -0.2531 -0.5574
  934MOL0     C23178   0.994   2.985   7.807  0.1253  0.4389 -0.0657
  934MOL0     C23179   0.854   2.980   7.877  0.4020  0.3401  0.5511
  934MOL0     O23180   0.878   2.921   8.000 -0.3219  0.0554  0.2052
  934MOL0     C23181   0.788   2.927   8.103  1.5255  0.6920  0.1972
  934MOL0     C23182   0.667   2.998   8.092  0.6662 -0.7318  0.3948
  934MOL0     C23183   0.577   3.002   8.201  0.1660 -0.2525  0.3344
  934MOL0     C23184   0.607   2.948   8.322 -0.3272  0.4214 -0.1383
  934MOL0     C23185   0.525   2.951   8.444 -0.3814  0.3631  0.4995
  934MOL0     O23186   0.573   2.892   8.556 -0.2361 -0.9558 -0.2120
  934MOL0     C23187   0.506   2.880   8.672  0.8196  0.4319 -0.1239
  934MOL0     C23188   0.572   2.887   8.798 -0.0522 -0.8704 -0.3064
  934MOL0     C23189   0.507   2.884   8.925  0.3029 -0.5542 -0.0702
  934MOL0     C23190   0.366   2.868   8.923 -1.2194 -0.4666  0.3797
  934MOL0     O23191   0.303   2.888   9.051  0.2372 -0.2651  0.0141
  934MOL0     C23192   0.162   2.896   9.088 -0.3813  0.2301  0.5976
  934MOL0     C23193   0.091   2.762   9.081 -0.4864  0.0858  0.5317
  934MOL0     C23194   0.156   2.644   9.166 -0.6502 -0.3256 -0.9521
  934MOL0     C23195   0.190   2.676   9.312 -0.8485  0.1348 -0.7016
  934MOL0     C23196   0.238   2.547   9.390 -0.2493 -0.2632 -0.0461
  934MOL0     C23197   0.273   2.581   9.538  0.4738 -0.4252 -0.5304
  934MOL0     C23198   0.329   2.448   9.615 -0.6492 -0.4307  0.6080
  934MOL0     C23199   0.389   2.484   9.749  0.0096  0.0368  1.0687
  934MOL0    Cl23200   0.440   2.321   9.817 -0.0068  0.1603  0.0507
  934MOL0     C23201   0.306   2.851   8.796  0.2847  0.1594 -0.6371
  934MOL0     C23202   0.370   2.850   8.671 -0.1585 -0.0460 -0.8278
  934MOL0     O23203   0.414   3.005   8.435 -0.4662 -0.3978  0.9451
  934MOL0     C23204   0.730   2.872   8.331  1.5967  0.2563 -0.3511
  934MOL0     C23205   0.814   2.862   8.223  0.5675  0.2094  0.7002
  934MOL0     N23206   1.202   3.300   8.155  0.2914 -0.0720 -0.5631
  934MOL0     N23207   1.295   3.389   8.157  0.0343  0.2982 -0.1363
  934MOL0     C23208   0.603   3.795   7.531  0.1549  0.4314  0.6830
  934MOL0     C23209   0.479   3.728   7.516  0.2487 -0.6569 -0.0939
  934MOL0     C23210   0.208   3.379   7.543 -0.0704  0.0664 -0.4307
  934MOL0     C23211   0.081   3.411   7.599  1.0935  0.9112  0.0971
  934MOL0     C23212  -0.033   3.328   7.575 -0.2161  0.1166  0.1069
  934MOL0     C23213  -0.020   3.195   7.530 -0.3584  0.5546 -0.5943
  934MOL0     O23214  -0.126   3.111   7.531  0.3474 -0.1782  0.1095
  934MOL0     C23215  -0.143   2.996   7.455 -0.0629 -0.3217 -0.7564
  934MOL0     C23216  -0.078   2.871   7.513 -0.7813 -0.4902 -0.3527
  934MOL0     C23217  -0.114   2.738   7.436 -0.0221  0.3422  0.1996
  934MOL0     C23218  -0.057   2.612   7.498  1.1171  0.2705 -0.2616
  934MOL0     C23219  -0.096   2.623   7.639 -0.1807  0.3499 -0.3248
  934MOL0     C23220  -0.139   2.612   7.753  1.0104 -0.8220  0.0600
  934MOL0     C23221   0.104   3.164   7.455 -0.2618 -0.1459  0.0914
  934MOL0     C23222   0.215   3.247   7.485  0.9706  0.4314 -0.0966
  934MOL0     H23223   0.460   3.595   7.832  0.3264 -0.9956  0.7605
  934MOL0     H23224   0.683   3.704   7.843 -0.1553 -0.2082  0.0820
  934MOL0     H23225   0.904   3.754   7.816 -0.5045 -1.3190 -0.3056
  934MOL0     H23226   0.802   3.877   7.861  1.3523 -2.8040  0.8468
  934MOL0     H23227   0.992   3.988   7.900  0.8658  1.7821 -1.0402
  934MOL0     H23228   0.961   4.025   7.734  0.6929  1.7842  1.0387
  934MOL0     H23229   1.191   3.983   7.771  2.3948 -1.4069 -1.3401
  934MOL0     H23230   1.136   3.857   7.669  0.0630  0.0582  1.5703
  934MOL0     H23231   1.172   3.840   7.972 -1.0848  0.2370 -0.9702
  934MOL0     H23232   1.117   3.705   7.852 -0.8382  0.8557  0.9926
  934MOL0     H23233   1.398   3.814   7.875 -0.2008  0.6349  0.3016
  934MOL0     H23234   1.332   3.700   7.758 -0.8862 -0.3973  0.1653
  934MOL0     H23235   1.264   3.540   7.920 -0.0888  0.2263  0.6866
  934MOL0     H23236   1.325   3.632   8.048 -1.4339 -0.5885 -0.7344
  934MOL0     H23237   1.447   3.474   7.837  1.4827 -0.0131  1.4305
  934MOL0     H23238   1.562   3.590   7.892 -0.0111 -0.8073 -1.1684
  934MOL0     H23239   1.514   3.515   8.129 -2.2691  0.3826  0.9612
  934MOL0     H23240   1.580   3.391   8.020 -0.5010  0.5538 -1.0873
  934MOL0     H23241   1.389   3.212   7.899 -0.3732 -1.6380  0.0570
  934MOL0     H23242   1.048   3.103   8.061 -0.8905  1.7891 -2.5107
  934MOL0     H23243   1.195   3.020   8.023  0.2657 -0.9516 -0.2661
  934MOL0     H23244   1.192   3.087   7.798  1.9913 -0.2150  3.5777
  934MOL0     H23245   1.054   3.197   7.811 -1.7195 -0.7889 -0.4290
  934MOL0     H23246   0.961   2.991   7.702 -0.1988  2.5267  0.1031
  934MOL0     H23247   1.043   2.888   7.819  1.4111  0.8233 -1.7286
  934MOL0     H23248   0.774   2.928   7.825 -1.3405  2.9397  0.4492
  934MOL0     H23249   0.829   3.086   7.889  0.0419  0.0805  2.4907
  934MOL0     H23250   0.640   3.044   7.998  1.4034  0.4078  0.7166
  934MOL0     H23251   0.478   3.047   8.198  1.4022  2.6550 -0.1631
  934MOL0     H23252   0.679   2.903   8.805 -0.2139 -0.2278  1.1386
  934MOL0     H23253   0.556   2.887   9.022  0.4791 -1.3076 -0.1335
  934MOL0     H23254   0.115   2.959   9.012 -0.7950 -1.1080 -0.2895
  934MOL0     H23255   0.163   2.938   9.189  0.0422  0.3810  0.5330
  934MOL0     H23256   0.079   2.735   8.976 -1.3063  0.7173  0.4471
  934MOL0     H23257  -0.006   2.786   9.125  0.6837  3.9395  1.4892
  934MOL0     H23258   0.251   2.609   9.125 -0.2770 -1.7744  0.9917
  934MOL0     H23259   0.085   2.562   9.172 -1.1240  0.1194 -0.3269
  934MOL0     H23260   0.265   2.755   9.307 -1.4127  0.7364  0.0874
  934MOL0     H23261   0.105   2.727   9.358 -0.9543  1.2749 -2.0841
  934MOL0     H23262   0.328   2.501   9.348  2.1322  2.2114  2.0009
  934MOL0     H23263   0.156   2.474   9.397 -2.6324  2.2509 -0.0784
  934MOL0     H23264   0.183   2.614   9.590 -0.7810  0.5740 -3.1791
  934MOL0     H23265   0.348   2.660   9.534 -0.7376  0.7130 -1.5493
  934MOL0     H23266   0.246   2.379   9.632 -0.6149 -0.9613 -1.1739
  934MOL0     H23267   0.392   2.388   9.549  0.6786 -0.3191  1.7155
  934MOL0     H23268   0.310   2.523   9.814  0.5137  1.7270  0.7156
  934MOL0     H23269   0.467   2.561   9.747  1.4007 -1.3288 -0.7514
  934MOL0     H23270   0.198   2.846   8.790  0.2198  2.2070 -2.4649
  934MOL0     H23271   0.319   2.828   8.578 -1.5394 -1.6272  0.2412
  934MOL0     H23272   0.756   2.819   8.422  1.5061  1.3338  0.3223
  934MOL0     H23273   0.903   2.801   8.230  1.2320  1.0043 -0.5187
  934MOL0     H23274   0.655   3.838   7.446 -0.1565 -0.7738 -0.1388
  934MOL0     H23275   0.426   3.708   7.423  0.9481  0.9007 -0.8717
  934MOL0     H23276   0.073   3.504   7.654  0.7641  0.0274  1.5883
  934MOL0     H23277  -0.132   3.364   7.603 -0.6987  0.2576 -1.6442
  934MOL0     H23278  -0.109   3.009   7.352  3.8783 -1.3406  0.2332
  934MOL0     H23279  -0.250   2.981   7.446 -0.8526  1.0989  3.5579
  934MOL0     H23280   0.031   2.881   7.515 -0.8670  0.5265  1.2210
  934MOL0     H23281  -0.109   2.881   7.617 -1.4039 -1.2869 -0.4539
  934MOL0     H23282  -0.081   2.740   7.331  0.5822  0.0657  0.3827
  934MOL0     H23283  -0.223   2.725   7.430  0.0416  0.1360 -0.6216
  934MOL0     H23284  -0.117   2.530   7.459 -3.5172  2.2814  1.7850
  934MOL0     H23285   0.052   2.604   7.497  1.0390 -1.5456  1.0223
  934MOL0     H23286  -0.179   2.611   7.852 -1.5583 -2.2612 -0.9016
  934MOL0     H23287   0.113   3.070   7.401 -0.9847 -0.5663  0.6792
  934MOL0     H23288   0.313   3.226   7.443  1.2016 -2.2476  1.5623
  935MOL0     O23289   2.007   5.814   9.939  0.1251 -0.1969  0.6156
  935MOL0     C23290   2.047   5.702   9.972  0.0802  0.4160 -0.8461
  935MOL0     O23291   2.162   5.675  10.041 -0.1716  0.2084  0.4320
  935MOL0     C23292   2.229   5.786  10.089 -0.3206  0.1556  0.0696
  935MOL0     C23293   2.216   5.834  10.225  0.5646 -0.3596  1.8601
  935MOL0     C23294   2.271   5.953  10.257  0.0876 -0.3537  0.0396
  935MOL0     C23295   2.352   6.038  10.167 -0.2539  0.4977 -0.3191
  935MOL0     O23296   2.409   6.153  10.211 -0.2553  0.1311  0.7145
  935MOL0     C23297   2.322   6.230  10.292 -0.3547  0.2806  0.1752
  935MOL0     C23298   2.330   6.378  10.231  0.9807  0.2906 -0.0649
  935MOL0     C23299   2.250   6.477  10.319 -0.7263 -0.3128 -0.1244
  935MOL0     C23300   2.336   6.530  10.438 -0.7145 -0.1879 -0.8615
  935MOL0     C23301   2.261   6.631  10.522 -0.7782 -0.7549  0.9017
  935MOL0     C23302   2.277   6.772  10.455  0.5892 -0.1397 -1.2936
  935MOL0     C23303   2.254   6.882  10.560 -0.4540  0.1046  0.1210
  935MOL0     C23304   2.123   6.867  10.645  0.4396 -0.5860  0.5165
  935MOL0     N23305   2.009   6.891  10.561  0.4918 -0.0767 -0.7208
  935MOL0     C23306   1.925   6.797  10.501 -0.5611  0.4884  0.6721
  935MOL0     C23307   1.846   6.860  10.417 -0.3640 -0.4330  1.2222
  935MOL0     C23308   1.737   6.805  10.327 -0.0669 -0.2986  0.1224
  935MOL0     C23309   1.777   6.772  10.188 -0.6726  0.2715  1.0390
  935MOL0     C23310   1.911   6.684  10.162  0.2341 -0.1400  0.5158
  935MOL0     C23311   1.890   6.535  10.202  0.1819 -0.2796  0.5551
  935MOL0     O23312   1.973   6.432  10.141  0.9764  0.1087  0.0238
  935MOL0     C23313   1.925   6.367  10.035  0.9234 -1.2025  0.0539
  935MOL0     C23314   1.807   6.391   9.972  0.5939 -0.5024  0.1294
  935MOL0     C23315   1.768   6.309   9.860 -0.5585 -0.7704  0.6847
  935MOL0     C23316   1.843   6.192   9.816 -0.6364  0.3075 -0.6863
  935MOL0     C23317   1.791   6.109   9.705  0.1834  0.1155  0.1256
  935MOL0     O23318   1.688   6.152   9.632 -0.0609 -0.5132 -0.4085
  935MOL0     C23319   1.621   6.071   9.541 -0.8121  0.4824  0.5554
  935MOL0     C23320   1.611   5.929   9.548  0.1987  0.0913 -0.2606
  935MOL0     C23321   1.551   5.859   9.438 -0.0825 -0.1355 -0.4946
  935MOL0     C23322   1.510   5.928   9.319 -0.8871 -0.4807 -0.5588
  935MOL0     O23323   1.456   5.875   9.210  0.2865  0.0932  1.0208
  935MOL0     C23324   1.360   5.762   9.227 -1.1788  0.2415  1.4417
  935MOL0     C23325   1.306   5.750   9.079  0.5193 -0.6261  0.5478
  935MOL0     C23326   1.244   5.872   9.016 -0.0863  0.4557 -0.8131
  935MOL0     C23327   1.247   5.857   8.864  0.6034 -0.5419 -0.3981
  935MOL0     C23328   1.178   5.968   8.802  0.0853 -0.3161  0.5331
  935MOL0     C23329   1.115   5.928   8.662  0.2034  0.2848 -0.7366
  935MOL0     C23330   1.028   6.038   8.606  1.2114  0.9007 -0.9428
  935MOL0     C23331   1.105   6.168   8.581 -0.9223  0.1545  1.0555
  935MOL0    Cl23332   1.274   6.114   8.510  0.0092  0.0008 -0.3382
  935MOL0     C23333   1.527   6.068   9.308 -0.2813  1.1620  0.5151
  935MOL0     C23334   1.590   6.134   9.417  0.7385 -0.4098  0.0010
  935MOL0     O23335   1.848   6.002   9.677 -0.7975 -0.5970  0.1706
  935MOL0     C23336   1.967   6.179   9.892  0.1009  1.7429  0.4243
  935MOL0     C23337   2.012   6.266   9.994 -0.9118 -0.1856 -0.0063
  935MOL0     N23338   1.890   6.996  10.417  0.3248  0.6596  0.1364
  935MOL0     N23339   1.983   7.019  10.506  0.7320 -0.2978 -0.3961
  935MOL0     C23340   2.368   5.979  10.043 -0.1068 -0.3920 -0.5751
  935MOL0     C23341   2.313   5.851  10.003 -0.4152 -0.1801  0.1896
  935MOL0     C23342   1.979   5.584   9.921 -0.0782 -1.1552 -0.3874
  935MOL0     C23343   2.050   5.465   9.895  0.1927 -0.0043  0.2582
  935MOL0     C23344   1.991   5.357   9.832 -0.0646  0.1436  0.0865
  935MOL0     C23345   1.862   5.371   9.784  0.0383  0.2760 -0.0803
  935MOL0     O23346   1.815   5.279   9.702  0.5409  0.2590  0.0143
  935MOL0     C23347   1.836   5.139   9.726  0.3809  0.5141  0.1915
  935MOL0     C23348   1.722   5.048   9.663  0.3095 -0.1742  0.4738
  935MOL0     C23349   1.746   5.029   9.508 -0.6123 -0.0736 -0.3295
  935MOL0     C23350   1.871   4.939   9.482 -0.2594 -0.3785  0.0876
  935MOL0     C23351   1.843   4.841   9.372 -0.0848 -0.2696  1.3372
  935MOL0     C23352   1.801   4.766   9.287 -0.5255 -0.5266  0.1824
  935MOL0     C23353   1.795   5.491   9.798 -0.1280 -0.5618  0.2190
  935MOL0     C23354   1.845   5.600   9.864 -1.0113 -0.0916  0.7309
  935MOL0     H23355   2.148   5.788  10.297 -2.3394  3.0480  1.5382
  935MOL0     H23356   2.259   5.993  10.358  3.8072 -1.8183  1.2484
  935MOL0     H23357   2.360   6.220  10.394 -0.3669 -1.6903  0.0397
  935MOL0     H23358   2.217   6.201  10.290  0.0642 -1.3610 -0.9039
  935MOL0     H23359   2.272   6.389  10.140 -2.0990 -1.7712  1.4968
  935MOL0     H23360   2.432   6.416  10.215  0.6233  0.7545 -1.3365
  935MOL0     H23361   2.160   6.428  10.357  0.4672 -2.0883  0.5254
  935MOL0     H23362   2.236   6.558  10.247  4.8122 -1.0305 -2.5503
  935MOL0     H23363   2.371   6.449  10.503 -1.6074  0.7272  0.8258
  935MOL0     H23364   2.424   6.575  10.391 -3.3743  2.2229 -3.9861
  935MOL0     H23365   2.306   6.635  10.621  1.5315 -1.7331 -0.0456
  935MOL0     H23366   2.153   6.611  10.519 -1.0641  0.3956 -2.9951
  935MOL0     H23367   2.218   6.799  10.366 -1.9795  0.7945  0.5714
  935MOL0     H23368   2.380   6.781  10.419  0.2809 -1.8506 -2.7591
  935MOL0     H23369   2.345   6.893  10.619  0.5106  1.6822 -1.5774
  935MOL0     H23370   2.252   6.975  10.503  0.5245 -1.7936 -3.2730
  935MOL0     H23371   2.128   6.942  10.724  3.2688 -1.3483  1.1718
  935MOL0     H23372   2.114   6.768  10.690 -0.8275  0.9241  3.8859
  935MOL0     H23373   1.928   6.693  10.530  1.3159 -0.7424 -3.2838
  935MOL0     H23374   1.673   6.894  10.318 -0.6004 -0.5172  1.5222
  935MOL0     H23375   1.681   6.732  10.386 -1.3179  1.4367  1.1873
  935MOL0     H23376   1.790   6.866  10.133 -1.2775  0.0400  0.4936
  935MOL0     H23377   1.700   6.710  10.142 -1.4092  2.1831 -0.4360
  935MOL0     H23378   1.935   6.696  10.056  0.3797  1.3642  0.6955
  935MOL0     H23379   2.001   6.723  10.211  2.2045 -1.2115 -1.9899
  935MOL0     H23380   1.786   6.508  10.223  0.3883 -3.7696 -2.0223
  935MOL0     H23381   1.930   6.537  10.305 -1.5027 -0.9840  1.2571
  935MOL0     H23382   1.741   6.476   9.981  1.4072  0.4498 -2.0850
  935MOL0     H23383   1.681   6.334   9.800 -0.6327 -0.7955  0.7811
  935MOL0     H23384   1.651   5.881   9.637  0.8068  2.1696  0.6424
  935MOL0     H23385   1.538   5.752   9.434 -1.7300 -0.0441  1.1493
  935MOL0     H23386   1.282   5.780   9.302 -0.5836  0.8779  1.9228
  935MOL0     H23387   1.413   5.669   9.249 -1.9413 -0.6882 -0.4290
  935MOL0     H23388   1.226   5.676   9.079 -0.5841  0.5222  0.0946
  935MOL0     H23389   1.386   5.723   9.010 -0.1099 -1.1905  0.0244
  935MOL0     H23390   1.300   5.963   9.040  2.0322 -1.1935  0.9325
  935MOL0     H23391   1.150   5.879   9.071  0.5977  0.8085  0.3637
  935MOL0     H23392   1.348   5.854   8.822  0.4601  0.0512 -0.7976
  935MOL0     H23393   1.193   5.767   8.832  1.1685  0.1762 -3.7166
  935MOL0     H23394   1.254   6.046   8.793  1.0410 -1.4089 -1.5381
  935MOL0     H23395   1.094   6.008   8.860 -0.4956  0.6751 -0.9287
  935MOL0     H23396   1.054   5.840   8.684 -3.3457  3.1484  2.2110
  935MOL0     H23397   1.201   5.894   8.603  1.4400  0.2181  1.0148
  935MOL0     H23398   0.965   6.003   8.524 -1.1852  0.6596  0.8865
  935MOL0     H23399   0.955   6.065   8.682  2.1703  0.8932  0.0118
  935MOL0     H23400   1.122   6.224   8.674 -1.3808 -0.3072  1.4175
  935MOL0     H23401   1.056   6.219   8.498  0.7632  0.5189  0.2377
  935MOL0     H23402   1.518   6.119   9.212  0.5846  0.1802 -0.1127
  935MOL0     H23403   1.602   6.241   9.407 -1.7613  0.0443  0.9127
  935MOL0     H23404   2.044   6.109   9.861 -0.4960  0.9965  0.5933
  935MOL0     H23405   2.111   6.247  10.036 -1.9433  1.9567  3.9338
  935MOL0     H23406   2.445   6.038   9.994  0.6998 -1.0222 -0.1003
  935MOL0     H23407   2.331   5.827   9.899 -1.9037  0.8335 -0.3332
  935MOL0     H23408   2.156   5.450   9.915 -0.1679 -1.4273  1.2282
  935MOL0     H23409   2.056   5.274   9.806 -0.1130  0.2715 -0.4571
  935MOL0     H23410   1.828   5.110   9.831  2.3242 -5.7213 -0.9199
  935MOL0     H23411   1.931   5.103   9.685 -0.0596 -0.7928  0.2620
  935MOL0     H23412   1.730   4.949   9.710 -1.6206 -0.9553 -0.7408
  935MOL0     H23413   1.621   5.087   9.680 -0.0876 -0.6133 -0.8193
  935MOL0     H23414   1.768   5.121   9.453  1.8766  0.2030  0.9741
  935MOL0     H23415   1.652   4.987   9.471 -1.2569 -0.2384  1.4190
  935MOL0     H23416   1.951   5.008   9.453 -2.4956  1.5401 -1.8881
  935MOL0     H23417   1.914   4.881   9.564  0.2759  1.2294  0.9977
  935MOL0     H23418   1.773   4.684   9.225  0.0248 -0.4602 -0.1557
  935MOL0     H23419   1.709   5.505   9.733 -0.5489 -2.6812  0.2280
  935MOL0     H23420   1.789   5.691   9.851  0.8514  0.7365 -2.7158
  936MOL0     O23421   5.444   0.414   9.321 -0.1589  0.7057  0.0485
  936MOL0     C23422   5.397   0.371   9.211 -0.5239 -0.4991 -0.7446
  936MOL0     O23423   5.388   0.236   9.174  0.9194 -0.0666 -0.3046
  936MOL0     C23424   5.422   0.139   9.268  1.4133 -0.7358  0.1878
  936MOL0     C23425   5.321   0.089   9.348  0.0305 -0.0982 -0.5074
  936MOL0     C23426   5.352  -0.014   9.441  0.5086 -0.1637  0.2722
  936MOL0     C23427   5.477  -0.067   9.450 -1.2706  0.7633 -0.3996
  936MOL0     O23428   5.495  -0.162   9.551  0.2982 -0.2482 -0.5283
  936MOL0     C23429   5.609  -0.252   9.528 -0.0383  0.7083 -1.2185
  936MOL0     C23430   5.607  -0.362   9.641 -0.2136  0.6343  1.1377
  936MOL0     C23431   5.711  -0.474   9.608  0.0187 -0.5575 -0.9391
  936MOL0     C23432   5.789  -0.516   9.735 -0.7546  0.3819  0.5953
  936MOL0     C23433   5.690  -0.583   9.830  0.7353 -0.2518  1.2022
  936MOL0     C23434   5.770  -0.646   9.942 -0.1059  0.0545 -0.5058
  936MOL0     C23435   5.689  -0.635  10.072 -1.0140  0.2440 -0.0738
  936MOL0     C23436   5.567  -0.732  10.064 -0.2095 -0.0728 -1.1666
  936MOL0     N23437   5.482  -0.699  10.180  0.7717 -0.2714 -0.0552
  936MOL0     C23438   5.405  -0.584  10.193 -0.2727 -1.2551 -0.6533
  936MOL0     C23439   5.342  -0.587  10.312  0.6882  0.5952 -0.4847
  936MOL0     C23440   5.251  -0.493  10.390 -0.6439 -0.6540 -0.2931
  936MOL0     C23441   5.134  -0.433  10.312  0.3787 -0.6220 -0.3949
  936MOL0     C23442   5.064  -0.315  10.383  0.0033 -1.1952  0.9089
  936MOL0     C23443   4.917  -0.285  10.332 -0.0883  0.4977 -0.2155
  936MOL0     O23444   4.862  -0.170  10.401  0.6893  0.6334  0.5513
  936MOL0     C23445   4.826  -0.059  10.326  0.0097  1.1350  0.5233
  936MOL0     C23446   4.752   0.042  10.383 -1.1110  1.1468  0.8212
  936MOL0     C23447   4.708   0.160  10.326  0.0475  0.1753  1.2043
  936MOL0     C23448   4.751   0.184  10.187 -0.1029 -0.4636 -0.3054
  936MOL0     C23449   4.694   0.303  10.114 -0.2959  0.6285 -0.2993
  936MOL0     O23450   4.672   0.411  10.187  0.0726  0.2242  0.1826
  936MOL0     C23451   4.651   0.522  10.106  0.9722  0.6149 -1.3775
  936MOL0     C23452   4.524   0.570  10.087 -0.9516  0.7635  0.4385
  936MOL0     C23453   4.497   0.669   9.988  1.2973  0.3302 -1.3982
  936MOL0     C23454   4.605   0.734   9.920 -0.1031 -0.7148 -0.4699
  936MOL0     O23455   4.577   0.839   9.848  0.2275 -1.2302  0.2636
  936MOL0     C23456   4.674   0.907   9.762 -0.7116 -0.2613  0.0071
  936MOL0     C23457   4.619   1.045   9.722  0.2804  0.1353 -0.3999
  936MOL0     C23458   4.722   1.118   9.642  0.1972 -1.0808 -0.1316
  936MOL0     C23459   4.674   1.248   9.585  0.3123 -1.4933 -1.1376
  936MOL0     C23460   4.771   1.317   9.481  0.1607 -0.8583 -0.9802
  936MOL0     C23461   4.757   1.472   9.480  1.6138 -0.1634 -0.0622
  936MOL0     C23462   4.647   1.522   9.394 -0.5378  0.4793 -0.5277
  936MOL0     C23463   4.675   1.524   9.246 -0.0173  0.3159  0.4223
  936MOL0    Cl23464   4.789   1.658   9.194  0.1715 -0.0883  0.2277
  936MOL0     C23465   4.732   0.683   9.949 -0.4040 -0.2119  0.2961
  936MOL0     C23466   4.762   0.582  10.043  0.9974 -0.4938 -0.3624
  936MOL0     O23467   4.688   0.297   9.993  0.3591 -0.9267 -0.6328
  936MOL0     C23468   4.824   0.081  10.121  0.2038  0.0002 -0.4790
  936MOL0     C23469   4.857  -0.036  10.192  0.0543  0.6538  0.1335
  936MOL0     N23470   5.370  -0.716  10.366  0.5070 -0.3800 -0.5267
  936MOL0     N23471   5.461  -0.773  10.289  0.5797  0.0094  0.8602
  936MOL0     C23472   5.577  -0.015   9.367  1.2135  0.5489 -0.0666
  936MOL0     C23473   5.544   0.083   9.280 -1.4771 -1.4024  1.0321
  936MOL0     C23474   5.322   0.462   9.123 -0.8110  0.0002  1.2513
  936MOL0     C23475   5.281   0.419   8.996  0.9174  0.0225  0.3255
  936MOL0     C23476   5.192   0.498   8.926  1.3674  0.0299 -1.3039
  936MOL0     C23477   5.154   0.621   8.968  0.3507  0.3210  0.0170
  936MOL0     O23478   5.060   0.698   8.912 -0.2341  1.2191 -0.2198
  936MOL0     C23479   5.104   0.840   8.899  0.1024  0.9594  0.7789
  936MOL0     C23480   5.259   0.851   8.843  1.2376 -0.2182 -0.2089
  936MOL0     C23481   5.282   0.995   8.793  0.2543 -0.7381  0.0174
  936MOL0     C23482   5.428   1.004   8.736 -0.1389  0.0538 -0.6678
  936MOL0     C23483   5.458   1.138   8.680 -0.1300  1.2771  0.6900
  936MOL0     C23484   5.469   1.236   8.616 -0.0907 -0.1027 -0.2930
  936MOL0     C23485   5.208   0.666   9.094 -0.7218 -1.2011  0.4234
  936MOL0     C23486   5.300   0.592   9.158  0.1465  0.7847 -0.9859
  936MOL0     H23487   5.220   0.128   9.342 -0.0259 -0.3255 -1.1340
  936MOL0     H23488   5.284  -0.055   9.515 -0.1780 -1.1635 -0.8750
  936MOL0     H23489   5.687  -0.176   9.537  0.7033  0.1517 -2.6691
  936MOL0     H23490   5.606  -0.300   9.430  1.1618 -1.0559 -0.4404
  936MOL0     H23491   5.509  -0.408   9.654  1.0004 -1.9117  1.8686
  936MOL0     H23492   5.638  -0.309   9.731 -0.6541 -1.2489  2.4562
  936MOL0     H23493   5.784  -0.433   9.537  0.6922 -1.1972 -0.6327
  936MOL0     H23494   5.666  -0.550   9.544  2.7017 -0.8748 -2.6056
  936MOL0     H23495   5.869  -0.588   9.717  0.6577  1.5958  1.6841
  936MOL0     H23496   5.841  -0.435   9.787  2.5193 -1.8281  1.0680
  936MOL0     H23497   5.643  -0.665   9.775 -0.4264 -0.7882  2.9176
  936MOL0     H23498   5.613  -0.511   9.861  1.5390  1.6678 -0.9961
  936MOL0     H23499   5.864  -0.590   9.948 -0.4537  0.7611 -1.4037
  936MOL0     H23500   5.786  -0.749   9.911  0.4076 -0.5032  1.4951
  936MOL0     H23501   5.761  -0.653  10.153 -0.0230 -0.6867 -1.1257
  936MOL0     H23502   5.646  -0.536  10.088 -1.7968  0.5093 -3.1513
  936MOL0     H23503   5.604  -0.834  10.057 -0.6654 -0.3859  0.5021
  936MOL0     H23504   5.506  -0.706   9.977 -0.8697 -1.7769 -1.2511
  936MOL0     H23505   5.413  -0.500  10.124 -2.0116 -1.4244 -1.1157
  936MOL0     H23506   5.315  -0.417  10.435 -0.1842 -1.7715  1.0030
  936MOL0     H23507   5.210  -0.542  10.478  0.3866  1.0371  1.1798
  936MOL0     H23508   5.066  -0.517  10.300  0.7656 -0.7803 -1.6325
  936MOL0     H23509   5.171  -0.397  10.215  0.3181  0.4828 -0.0245
  936MOL0     H23510   5.056  -0.345  10.488 -4.7606 -0.8182  0.8754
  936MOL0     H23511   5.122  -0.223  10.370 -2.9442  0.6290 -0.3024
  936MOL0     H23512   4.868  -0.380  10.356  1.9969 -1.2896 -2.4523
  936MOL0     H23513   4.909  -0.288  10.223 -0.3810  4.3461 -0.4270
  936MOL0     H23514   4.720   0.032  10.487  0.7435  4.3794  1.8624
  936MOL0     H23515   4.655   0.235  10.384  1.6644  2.0379  0.4158
  936MOL0     H23516   4.438   0.525  10.135 -1.6715  1.0630 -0.5368
  936MOL0     H23517   4.395   0.702   9.977  1.2010 -0.0777 -1.7118
  936MOL0     H23518   4.698   0.843   9.677 -1.7174 -0.6102 -0.0350
  936MOL0     H23519   4.770   0.917   9.813 -0.4140 -4.3686  0.5472
  936MOL0     H23520   4.583   1.096   9.813 -2.0317 -0.0203 -1.1604
  936MOL0     H23521   4.534   1.032   9.655  0.2800  0.2257 -0.4183
  936MOL0     H23522   4.753   1.058   9.556 -1.8396  3.1001 -4.1925
  936MOL0     H23523   4.807   1.141   9.706 -0.4646 -5.1084  2.6386
  936MOL0     H23524   4.588   1.237   9.518 -0.8611  0.2270  0.0090
  936MOL0     H23525   4.641   1.307   9.671 -2.9511 -0.8318 -2.7133
  936MOL0     H23526   4.760   1.281   9.378 -1.7278 -1.1883 -0.7050
  936MOL0     H23527   4.872   1.300   9.519  0.2882  2.1974  0.3438
  936MOL0     H23528   4.849   1.524   9.452  1.4508 -0.6772 -1.6913
  936MOL0     H23529   4.724   1.495   9.581 -0.5543 -0.4706 -0.6468
  936MOL0     H23530   4.556   1.461   9.397 -0.7037  0.7614  1.0102
  936MOL0     H23531   4.621   1.625   9.420 -1.6035  0.0109  0.3459
  936MOL0     H23532   4.582   1.541   9.190  0.6429 -2.8378 -1.8795
  936MOL0     H23533   4.712   1.429   9.208 -0.1880 -1.1759  3.6579
  936MOL0     H23534   4.809   0.739   9.897 -0.4564 -1.4189 -1.1525
  936MOL0     H23535   4.865   0.554  10.063  2.5624  4.3993 -0.2175
  936MOL0     H23536   4.833   0.090  10.013 -2.8548 -1.0727 -0.9059
  936MOL0     H23537   4.924  -0.105  10.142  0.0068  0.6543  0.0690
  936MOL0     H23538   5.681  -0.048   9.362  1.3719  0.9742  0.3163
  936MOL0     H23539   5.611   0.110   9.199  0.3122 -1.8660  2.2988
  936MOL0     H23540   5.307   0.321   8.957 -2.0487 -0.9684  0.5949
  936MOL0     H23541   5.154   0.470   8.828 -3.5762  0.0405  0.3207
  936MOL0     H23542   5.095   0.895   8.993 -2.2044  3.7539 -0.9041
  936MOL0     H23543   5.033   0.885   8.829  0.3370 -0.2853 -0.2808
  936MOL0     H23544   5.333   0.830   8.921 -0.4505 -0.9171  1.2639
  936MOL0     H23545   5.252   0.781   8.760 -3.2044 -0.7792  0.4111
  936MOL0     H23546   5.275   1.051   8.886  0.7803 -2.6630  1.2749
  936MOL0     H23547   5.210   1.030   8.719  2.1388 -0.9292 -2.0291
  936MOL0     H23548   5.502   0.989   8.815  1.3261 -2.6381 -2.4074
  936MOL0     H23549   5.434   0.927   8.659  0.6828 -1.1510  0.5622
  936MOL0     H23550   5.474   1.327   8.559  3.1878 -0.3136 -0.5270
  936MOL0     H23551   5.176   0.756   9.146 -0.2657 -0.6875 -0.1711
  936MOL0     H23552   5.333   0.622   9.257 -1.5781  3.0769 -1.0268
  937MOL0     O23553   8.853   9.451   4.679 -0.1718  0.1313  0.2595
  937MOL0     C23554   8.920   9.359   4.733 -0.5661 -0.3437 -0.0533
  937MOL0     O23555   9.045   9.361   4.783 -0.7900  0.2241 -0.7172
  937MOL0     C23556   9.099   9.485   4.827  0.7611  0.0796 -0.0191
  937MOL0     C23557   9.167   9.493   4.944 -0.1559  0.6028  0.0036
  937MOL0     C23558   9.230   9.604   4.993 -0.1816  0.1419  0.1126
  937MOL0     C23559   9.211   9.727   4.930  0.4079 -0.1200 -0.0767
  937MOL0     O23560   9.270   9.841   4.987  0.1419  0.1093 -0.4058
  937MOL0     C23561   9.257   9.968   4.924  0.3122  0.4187  0.4055
  937MOL0     C23562   9.346  10.088   4.969 -0.0462  0.4221 -0.2346
  937MOL0     C23563   9.493  10.051   4.999 -0.8921 -0.1101 -0.3768
  937MOL0     C23564   9.582  10.167   5.053 -0.3697 -0.1205 -0.1935
  937MOL0     C23565   9.684  10.113   5.148 -0.1358 -0.5149  0.1033
  937MOL0     C23566   9.778  10.013   5.095  0.4759 -1.0002  0.2487
  937MOL0     C23567   9.872   9.940   5.193  0.4780  0.6543 -0.5177
  937MOL0     C23568   9.993  10.015   5.252 -0.2796 -0.3931 -0.3892
  937MOL0     N23569  10.066  10.094   5.149 -0.3102 -0.3265  0.2509
  937MOL0     C23570  10.130  10.044   5.039 -0.2415  0.5298 -0.7377
  937MOL0     C23571  10.154  10.153   4.959 -0.1603  0.4286  0.9648
  937MOL0     C23572  10.208  10.144   4.808  0.1767  0.3201 -0.6087
  937MOL0     C23573  10.372  10.132   4.789 -0.2334 -0.2070 -0.2157
  937MOL0     C23574  10.458  10.028   4.857 -0.4868  0.3570 -0.4228
  937MOL0     C23575  10.608  10.029   4.824  0.5711 -0.4779 -0.2921
  937MOL0     O23576  10.670  10.112   4.920 -0.1206  0.3020 -0.3528
  937MOL0     C23577  10.733  10.224   4.871  0.1993  0.9321  0.0733
  937MOL0     C23578  10.759  10.321   4.961 -0.5651  0.3167 -0.2747
  937MOL0     C23579  10.844  10.423   4.946 -0.4234 -0.3665  0.8034
  937MOL0     C23580  10.906  10.435   4.819  0.1769  0.7335  0.4555
  937MOL0     C23581  11.006  10.545   4.793 -0.6260  1.3007 -0.1623
  937MOL0     O23582  11.064  10.553   4.668  0.0039 -0.4105  0.1372
  937MOL0     C23583  11.150  10.655   4.640  0.2804 -0.1937 -0.6056
  937MOL0     C23584  11.145  10.732   4.520 -0.4365  0.4380  0.5279
  937MOL0     C23585  11.236  10.830   4.482 -0.1645 -0.3725  0.8421
  937MOL0     C23586  11.354  10.841   4.554  0.4486  0.3408 -0.7417
  937MOL0     O23587  11.469  10.908   4.527  0.7759 -0.3709 -0.3326
  937MOL0     C23588  11.477  10.996   4.410  0.5271  0.3922  0.1293
  937MOL0     C23589  11.623  11.053   4.392 -0.1642 -0.2691 -0.2607
  937MOL0     C23590  11.737  10.946   4.379  0.3650 -0.4833  0.4830
  937MOL0     C23591  11.878  11.001   4.394 -0.2728 -0.1896 -0.3179
  937MOL0     C23592  11.979  10.897   4.337 -0.2127 -1.0594  0.3976
  937MOL0     C23593  12.111  10.980   4.325  0.4131 -0.0154 -0.5796
  937MOL0     C23594  12.236  10.888   4.336  0.5679  0.5571  0.0985
  937MOL0     C23595  12.372  10.962   4.318 -0.8522  0.2254 -0.5878
  937MOL0    Cl23596  12.384  11.088   4.432  0.3990  0.2999  0.1019
  937MOL0     C23597  11.367  10.768   4.677  0.0484  0.5012  0.5435
  937MOL0     C23598  11.264  10.674   4.722  1.4131  0.6013  0.8737
  937MOL0     O23599  11.024  10.628   4.889 -0.1742  0.0084  0.4880
  937MOL0     C23600  10.869  10.356   4.719 -0.0940  0.2156  0.2507
  937MOL0     C23601  10.796  10.238   4.745 -0.5921  0.4256  0.7391
  937MOL0     N23602  10.129  10.266   5.032 -0.0934 -0.2940  0.0251
  937MOL0     N23603  10.066  10.228   5.134 -0.5275  0.2789  0.6144
  937MOL0     C23604   9.130   9.738   4.816 -0.0744  0.4360  0.1883
  937MOL0     C23605   9.082   9.614   4.758  0.3970 -0.1023 -0.1662
  937MOL0     C23606   8.871   9.225   4.723 -0.9742  0.3855  0.7166
  937MOL0     C23607   8.754   9.194   4.644 -0.1209 -0.4687 -0.1129
  937MOL0     C23608   8.723   9.066   4.618 -0.8135 -0.5378  0.1407
  937MOL0     C23609   8.794   8.959   4.670  0.5643 -0.3907  0.6578
  937MOL0     O23610   8.754   8.825   4.652  0.3747 -0.2798 -0.4037
  937MOL0     C23611   8.777   8.768   4.523 -0.1927 -0.0290  0.3848
  937MOL0     C23612   8.828   8.629   4.527 -0.2031 -1.6339 -0.3233
  937MOL0     C23613   8.976   8.630   4.578 -0.1403 -0.0805 -0.0939
  937MOL0     C23614   9.011   8.509   4.667 -0.3871 -0.5929  0.2507
  937MOL0     C23615   8.996   8.380   4.594 -0.4837 -0.0596 -0.0139
  937MOL0     C23616   8.969   8.271   4.542  0.6590 -0.3213 -1.5157
  937MOL0     C23617   8.895   8.985   4.759  0.0210  0.2185  0.4281
  937MOL0     C23618   8.932   9.115   4.784  0.7935 -0.6360  0.0601
  937MOL0     H23619   9.187   9.397   4.992 -3.1385 -0.2054 -0.1335
  937MOL0     H23620   9.291   9.599   5.082  0.8146  0.3466 -0.5363
  937MOL0     H23621   9.152   9.999   4.921  0.4965  1.0331  0.0578
  937MOL0     H23622   9.286   9.950   4.820 -2.2852  5.5743 -1.5744
  937MOL0     H23623   9.300  10.140   5.053 -0.9160 -0.1461 -0.3462
  937MOL0     H23624   9.351  10.168   4.894  0.7771  0.1296 -0.4999
  937MOL0     H23625   9.535  10.003   4.911 -1.1111  0.4063 -0.7619
  937MOL0     H23626   9.474   9.983   5.084 -1.5404  3.5884  2.7430
  937MOL0     H23627   9.644  10.212   4.975  2.6896 -3.2657  0.1953
  937MOL0     H23628   9.531  10.250   5.102  0.8203  0.9139 -0.6627
  937MOL0     H23629   9.645  10.069   5.240 -0.0704  2.5101  1.7069
  937MOL0     H23630   9.738  10.206   5.170 -1.1224  0.2257 -0.4883
  937MOL0     H23631   9.838  10.058   5.016 -3.5369  2.8314 -0.9967
  937MOL0     H23632   9.712   9.931   5.064 -0.6274 -1.1883  2.8284
  937MOL0     H23633   9.813   9.897   5.274  1.4971 -2.2629 -1.1956
  937MOL0     H23634   9.919   9.847   5.159  1.0251 -0.7474  3.6066
  937MOL0     H23635  10.064   9.942   5.291 -1.6409 -1.7398 -0.3661
  937MOL0     H23636   9.955  10.077   5.334  0.4765  0.3547 -0.5806
  937MOL0     H23637  10.147   9.937   5.032  0.2726  0.3428  2.2711
  937MOL0     H23638  10.174  10.233   4.754 -0.5127 -1.8274 -4.0779
  937MOL0     H23639  10.174  10.052   4.759  2.1939 -0.3653 -0.8012
  937MOL0     H23640  10.405  10.231   4.823 -2.6887  1.3071 -1.9058
  937MOL0     H23641  10.393  10.118   4.682 -2.5786  2.4474 -1.1658
  937MOL0     H23642  10.434  10.038   4.964 -1.6640 -2.1947 -0.3845
  937MOL0     H23643  10.417   9.932   4.826 -2.3199  0.9813 -0.0975
  937MOL0     H23644  10.607  10.064   4.720 -0.8761  1.8867  0.4296
  937MOL0     H23645  10.649   9.928   4.829 -0.5975 -0.9927 -0.7529
  937MOL0     H23646  10.704  10.319   5.055 -1.0193  3.7262 -0.3389
  937MOL0     H23647  10.865  10.495   5.023  0.6308 -1.1769  1.3069
  937MOL0     H23648  11.056  10.712   4.462 -2.6813 -0.0147  3.8701
  937MOL0     H23649  11.230  10.895   4.395 -1.3897 -0.6334  0.7172
  937MOL0     H23650  11.406  11.077   4.428  2.3777  1.9104  1.0390
  937MOL0     H23651  11.447  10.949   4.316  0.5043  0.1431  0.2602
  937MOL0     H23652  11.638  11.109   4.485 -1.5263  0.9497 -0.7232
  937MOL0     H23653  11.627  11.124   4.308  1.9263 -1.6353 -1.4147
  937MOL0     H23654  11.728  10.903   4.279 -0.1362  0.6483  0.0266
  937MOL0     H23655  11.719  10.868   4.453 -3.5195 -0.3837 -0.1449
  937MOL0     H23656  11.895  11.102   4.355  0.1038  1.2251  3.1300
  937MOL0     H23657  11.893  11.024   4.500  1.0894 -2.1602 -0.0376
  937MOL0     H23658  11.944  10.860   4.240 -2.4579 -2.4819  1.6555
  937MOL0     H23659  11.994  10.820   4.413 -0.5463  0.9017  2.6070
  937MOL0     H23660  12.107  11.046   4.412 -4.0055  0.3231 -0.8138
  937MOL0     H23661  12.106  11.042   4.236 -4.8830  3.0463  1.3777
  937MOL0     H23662  12.232  10.848   4.438  1.9575  2.8718  1.1337
  937MOL0     H23663  12.225  10.805   4.265  0.1514  0.8970 -0.2438
  937MOL0     H23664  12.366  11.024   4.228 -1.3179  1.3507  0.2012
  937MOL0     H23665  12.464  10.903   4.303  0.6430  2.0281  0.9951
  937MOL0     H23666  11.461  10.764   4.731 -0.1468 -0.7821  0.8273
  937MOL0     H23667  11.282  10.603   4.801  2.6968  0.6308  0.6463
  937MOL0     H23668  10.912  10.374   4.621 -0.3314  1.5344  0.3753
  937MOL0     H23669  10.788  10.169   4.662  1.1936 -0.8056  1.5207
  937MOL0     H23670   9.110   9.824   4.753  1.4657 -1.5176 -3.2793
  937MOL0     H23671   9.027   9.625   4.665 -0.1062  0.6441  0.2025
  937MOL0     H23672   8.694   9.264   4.587 -0.0763  1.2465  1.7941
  937MOL0     H23673   8.637   9.027   4.564 -0.4901  0.0114 -0.7933
  937MOL0     H23674   8.850   8.824   4.464  0.3446 -0.9898  0.1179
  937MOL0     H23675   8.678   8.758   4.476 -0.1216  4.6300 -1.2509
  937MOL0     H23676   8.778   8.567   4.602 -2.4458  1.5773  1.0465
  937MOL0     H23677   8.801   8.574   4.436 -3.7377 -1.0197  0.2048
  937MOL0     H23678   9.003   8.719   4.636  2.8379 -0.5379 -0.5990
  937MOL0     H23679   9.044   8.629   4.493 -0.0758  0.0476 -0.0446
  937MOL0     H23680   9.116   8.537   4.680 -0.8300  1.1967  0.1995
  937MOL0     H23681   8.971   8.504   4.768  0.6021  0.9145  0.7471
  937MOL0     H23682   8.930   8.182   4.497 -2.4750  1.3760 -2.4672
  937MOL0     H23683   8.936   8.901   4.813  0.4571  1.3510  1.9331
  937MOL0     H23684   9.027   9.112   4.837  1.5451  0.2319 -1.1699
  938MOL0     O23685   5.983   8.339   0.856 -0.3722 -0.0881  0.9199
  938MOL0     C23686   6.039   8.442   0.860 -1.2491  0.3993 -0.0160
  938MOL0     O23687   5.977   8.565   0.851  0.2263  0.2798  0.4212
  938MOL0     C23688   5.838   8.584   0.830  0.6179  1.2371  0.1665
  938MOL0     C23689   5.730   8.495   0.866  0.0129  0.1752 -0.2685
  938MOL0     C23690   5.600   8.540   0.861  1.1833  0.1465  0.0060
  938MOL0     C23691   5.571   8.662   0.802 -0.1763  1.1261  1.1895
  938MOL0     O23692   5.452   8.702   0.759  0.3944 -0.1556  0.1580
  938MOL0     C23693   5.345   8.600   0.735 -0.2797  0.9570 -0.0807
  938MOL0     C23694   5.368   8.526   0.608  0.2931  1.2395  0.6087
  938MOL0     C23695   5.337   8.612   0.488  0.3381 -0.7947 -0.8320
  938MOL0     C23696   5.352   8.534   0.363 -0.4758  1.3693  0.4412
  938MOL0     C23697   5.294   8.599   0.233 -0.1273  0.5264  0.0172
  938MOL0     C23698   5.137   8.625   0.247 -1.0216 -0.1430 -0.4831
  938MOL0     C23699   5.066   8.674   0.116  0.6288  0.4386  0.4500
  938MOL0     C23700   4.942   8.755   0.136  0.0576  0.7147 -0.4789
  938MOL0     N23701   4.854   8.752   0.016 -0.1304  0.9389  0.3636
  938MOL0     C23702   4.722   8.709   0.016 -0.1145 -1.0001 -0.4863
  938MOL0     C23703   4.684   8.724  -0.117  0.1766  0.0993 -0.1259
  938MOL0     C23704   4.549   8.715  -0.186 -0.0587  0.9357 -0.8941
  938MOL0     C23705   4.439   8.738  -0.090  0.7964 -0.8301 -0.3980
  938MOL0     C23706   4.305   8.777  -0.165 -1.0293  0.2568  0.6965
  938MOL0     C23707   4.257   8.682  -0.271  0.0885 -0.9089  0.8582
  938MOL0     O23708   4.293   8.738  -0.398 -0.3599  0.7445 -0.3328
  938MOL0     C23709   4.193   8.792  -0.473 -0.6717 -1.0289  0.0202
  938MOL0     C23710   4.090   8.862  -0.422 -0.6528  0.3835  0.0281
  938MOL0     C23711   3.986   8.903  -0.505 -1.3197 -0.5744 -0.1345
  938MOL0     C23712   4.002   8.894  -0.650 -0.7219 -0.0037 -0.3468
  938MOL0     C23713   3.897   8.947  -0.738  0.8944  0.1240 -0.1525
  938MOL0     O23714   3.802   9.019  -0.673  0.0119 -0.0016 -0.6294
  938MOL0     C23715   3.716   9.080  -0.753 -0.0101  0.0308 -0.5808
  938MOL0     C23716   3.583   9.041  -0.758 -0.8732  0.2863 -0.0812
  938MOL0     C23717   3.481   9.125  -0.821  0.1609 -0.5791  0.0947
  938MOL0     C23718   3.522   9.242  -0.881 -0.6039  0.6394  0.0658
  938MOL0     O23719   3.443   9.326  -0.946  0.1143  0.2725  0.0580
  938MOL0     C23720   3.323   9.358  -0.883  0.0514 -0.4296 -0.9393
  938MOL0     C23721   3.336   9.441  -0.754  1.3507  0.6532 -0.4224
  938MOL0     C23722   3.190   9.473  -0.698  0.2856 -0.6385 -0.1324
  938MOL0     C23723   3.095   9.549  -0.792 -0.1392 -0.7570 -0.6527
  938MOL0     C23724   3.147   9.691  -0.827 -0.5973 -0.3929 -0.0633
  938MOL0     C23725   3.146   9.782  -0.702 -0.3636 -1.0775 -0.2538
  938MOL0     C23726   3.175   9.934  -0.746 -0.0506 -0.2709 -0.4001
  938MOL0     C23727   3.191  10.030  -0.639 -0.6064  0.3661 -0.9958
  938MOL0    Cl23728   3.244   9.957  -0.490 -0.1892 -0.0015 -0.2914
  938MOL0     C23729   3.659   9.276  -0.881 -0.1222  0.4134 -0.8747
  938MOL0     C23730   3.750   9.191  -0.823 -0.2896  1.1580  0.0757
  938MOL0     O23731   3.897   8.916  -0.858 -1.0324 -0.5529  0.5335
  938MOL0     C23732   4.111   8.826  -0.701 -1.0456  0.3254  0.0729
  938MOL0     C23733   4.204   8.767  -0.608 -0.1246 -0.0116 -0.0306
  938MOL0     N23734   4.787   8.791  -0.186 -1.0517  0.0713 -1.4454
  938MOL0     N23735   4.879   8.811  -0.103 -0.2760  0.1351  0.1160
  938MOL0     C23736   5.672   8.745   0.764  0.2306 -0.2147 -0.0442
  938MOL0     C23737   5.806   8.710   0.785  0.7595 -0.4752 -0.6888
  938MOL0     C23738   6.179   8.440   0.894  0.1844  0.8173  0.0830
  938MOL0     C23739   6.245   8.321   0.915  0.4905 -0.0701  0.1621
  938MOL0     C23740   6.386   8.332   0.941  0.7409  0.6854  0.7184
  938MOL0     C23741   6.451   8.453   0.950 -0.2079  0.1923  1.0151
  938MOL0     O23742   6.581   8.465   0.984  0.7354  0.6627  0.6241
  938MOL0     C23743   6.668   8.534   0.889 -0.9189 -0.0397  0.1196
  938MOL0     C23744   6.716   8.440   0.780  0.2192  0.6771  0.4820
  938MOL0     C23745   6.848   8.478   0.709 -0.2609  0.6030  0.2774
  938MOL0     C23746   6.880   8.400   0.579  0.3909  0.9742 -0.1404
  938MOL0     C23747   7.015   8.411   0.528 -0.2866 -0.3274 -0.0080
  938MOL0     C23748   7.138   8.425   0.501  0.5922  0.6894 -0.6896
  938MOL0     C23749   6.380   8.569   0.912  0.7940  0.3305  0.3042
  938MOL0     C23750   6.244   8.562   0.892  1.0376  0.2336 -0.6000
  938MOL0     H23751   5.754   8.398   0.908 -0.2450  0.1461 -0.1882
  938MOL0     H23752   5.519   8.474   0.889  0.3339  1.6213  1.1928
  938MOL0     H23753   5.252   8.656   0.722 -0.2820  0.7570 -0.9389
  938MOL0     H23754   5.343   8.532   0.820  0.3915 -3.3870 -3.2099
  938MOL0     H23755   5.304   8.438   0.601  0.1083  1.5164 -2.3529
  938MOL0     H23756   5.470   8.487   0.603 -0.1372  0.1858 -0.2434
  938MOL0     H23757   5.395   8.705   0.490  1.4409 -1.4665  0.0701
  938MOL0     H23758   5.233   8.642   0.496  1.3405  3.0471 -0.1835
  938MOL0     H23759   5.458   8.517   0.341 -0.5324  1.2906  0.2256
  938MOL0     H23760   5.320   8.430   0.379  3.7852 -0.0976  0.7937
  938MOL0     H23761   5.305   8.539   0.143 -1.5566  0.5893 -0.2280
  938MOL0     H23762   5.348   8.692   0.216  0.2500  0.0998 -1.1835
  938MOL0     H23763   5.128   8.701   0.325  0.2768 -0.5418  0.0816
  938MOL0     H23764   5.086   8.532   0.276 -0.0931 -0.3971  0.3750
  938MOL0     H23765   5.136   8.721   0.046 -1.5823  2.9046 -0.2772
  938MOL0     H23766   5.033   8.583   0.065  1.5019 -0.7198  1.8750
  938MOL0     H23767   4.976   8.858   0.149 -1.5033  0.9612  2.2942
  938MOL0     H23768   4.897   8.720   0.229  1.5252  0.1754  0.0712
  938MOL0     H23769   4.670   8.672   0.104  5.6743  0.2513  4.1718
  938MOL0     H23770   4.536   8.612  -0.223 -0.1358  1.1332 -1.4199
  938MOL0     H23771   4.558   8.776  -0.276 -1.4142  1.4492 -0.7018
  938MOL0     H23772   4.463   8.819  -0.020 -0.1645  0.7406 -1.7991
  938MOL0     H23773   4.408   8.646  -0.040 -0.0136 -1.3519 -1.8055
  938MOL0     H23774   4.233   8.782  -0.083  0.9439 -0.0741  2.5461
  938MOL0     H23775   4.311   8.878  -0.208  1.1460  0.1341  0.5917
  938MOL0     H23776   4.149   8.667  -0.258  0.0261  1.4052  4.5006
  938MOL0     H23777   4.302   8.582  -0.264 -1.0560 -1.4341  0.9698
  938MOL0     H23778   4.086   8.890  -0.317 -6.8264 -1.2982  0.6005
  938MOL0     H23779   3.913   8.973  -0.465  0.8941  2.0498 -0.3715
  938MOL0     H23780   3.546   8.943  -0.733 -0.3980  0.3518  0.9020
  938MOL0     H23781   3.385   9.081  -0.845 -0.1173 -0.3002  0.6733
  938MOL0     H23782   3.261   9.269  -0.868 -1.9009  0.9454 -0.3615
  938MOL0     H23783   3.271   9.430  -0.947  0.9936  2.1240  0.9727
  938MOL0     H23784   3.380   9.540  -0.771  1.0220  0.7437 -0.7681
  938MOL0     H23785   3.394   9.376  -0.688  0.9989 -2.9211 -3.3618
  938MOL0     H23786   3.193   9.521  -0.600 -1.2633 -1.6563  0.4603
  938MOL0     H23787   3.148   9.372  -0.690 -2.7273  0.5766  0.5057
  938MOL0     H23788   3.075   9.501  -0.888  0.9202  0.5862 -1.5839
  938MOL0     H23789   2.998   9.559  -0.742 -0.4128 -1.4637 -1.0269
  938MOL0     H23790   3.082   9.734  -0.904 -1.9412 -3.1614 -0.6333
  938MOL0     H23791   3.248   9.689  -0.867 -1.1619  3.3234 -2.0670
  938MOL0     H23792   3.229   9.752  -0.636  0.2259 -0.2898 -0.6240
  938MOL0     H23793   3.052   9.764  -0.649 -0.7742 -1.3208 -1.0577
  938MOL0     H23794   3.266   9.938  -0.806  0.4406 -0.9671  0.2642
  938MOL0     H23795   3.090   9.976  -0.799  0.6731 -0.8246 -2.0730
  938MOL0     H23796   3.095  10.073  -0.610 -0.8867 -1.5727  1.3267
  938MOL0     H23797   3.263  10.106  -0.670 -1.4756  2.2634  1.3176
  938MOL0     H23798   3.703   9.363  -0.927 -0.5889  1.3012  0.3126
  938MOL0     H23799   3.855   9.218  -0.820  0.2664 -0.8724  0.0963
  938MOL0     H23800   4.119   8.799  -0.806 -5.1853  2.1119 -0.9055
  938MOL0     H23801   4.298   8.720  -0.635  0.7366  0.5993  1.7293
  938MOL0     H23802   5.638   8.842   0.729 -0.3424 -0.5974 -0.5581
  938MOL0     H23803   5.882   8.785   0.764  1.9348 -1.3028  0.4398
  938MOL0     H23804   6.194   8.225   0.920  0.7279 -0.4393 -2.8990
  938MOL0     H23805   6.432   8.239   0.973  1.5748  0.7649 -0.1952
  938MOL0     H23806   6.755   8.568   0.947  2.1347 -5.1877 -0.7456
  938MOL0     H23807   6.616   8.613   0.835 -2.3250  1.2717  3.2056
  938MOL0     H23808   6.745   8.348   0.832  1.4686 -0.1699 -1.5768
  938MOL0     H23809   6.641   8.418   0.703  0.8778  0.0989 -0.0078
  938MOL0     H23810   6.921   8.448   0.784 -0.9680 -2.1163 -0.0405
  938MOL0     H23811   6.851   8.588   0.703  0.7244  0.6040  0.7071
  938MOL0     H23812   6.864   8.294   0.602  0.3413  1.2828  1.3612
  938MOL0     H23813   6.812   8.433   0.500 -2.0269 -1.4179  0.7567
  938MOL0     H23814   7.242   8.444   0.484  0.9388 -0.3604  0.0694
  938MOL0     H23815   6.424   8.668   0.910 -0.9767  1.1624  1.0151
  938MOL0     H23816   6.198   8.657   0.869  2.7776  0.5089 -3.4725
  939MOL0     O23817   7.832   4.370   8.826 -0.1182 -0.8358 -0.9012
  939MOL0     C23818   7.726   4.369   8.763  0.1916 -0.5188  0.9534
  939MOL0     O23819   7.692   4.447   8.658  0.0363 -0.1264 -0.4083
  939MOL0     C23820   7.776   4.557   8.634 -0.2448  0.6262  0.6540
  939MOL0     C23821   7.841   4.564   8.511 -0.2094 -0.4061  0.3889
  939MOL0     C23822   7.946   4.658   8.483  0.0124 -0.3297 -0.2232
  939MOL0     C23823   7.986   4.753   8.571  0.4972  0.4670 -0.7050
  939MOL0     O23824   8.101   4.824   8.569 -0.6914  0.4037 -0.2583
  939MOL0     C23825   8.132   4.899   8.450  0.0130  0.3220 -0.2205
  939MOL0     C23826   8.174   5.038   8.483 -0.0367 -0.4184 -0.2254
  939MOL0     C23827   8.215   5.109   8.346 -0.2424 -0.5345 -0.2182
  939MOL0     C23828   8.240   5.263   8.373  0.3260  0.0490  0.2778
  939MOL0     C23829   8.268   5.332   8.235  0.8871  0.0098 -0.3900
  939MOL0     C23830   8.130   5.353   8.152 -0.6463  0.5023  0.5203
  939MOL0     C23831   8.173   5.393   8.015  0.6942  0.0648  0.1843
  939MOL0     C23832   8.223   5.535   8.000  0.5769 -0.4858  0.6002
  939MOL0     N23833   8.117   5.638   8.016 -0.0649  0.2283 -0.1697
  939MOL0     C23834   8.061   5.661   8.138  0.2820  0.6262 -0.8227
  939MOL0     C23835   7.949   5.726   8.107  0.0166 -0.5522  0.0401
  939MOL0     C23836   7.834   5.751   8.197  0.4496  0.3471  0.1560
  939MOL0     C23837   7.805   5.630   8.288  0.0541 -0.0790  0.4774
  939MOL0     C23838   7.748   5.517   8.204 -0.4005 -0.5347  0.2273
  939MOL0     C23839   7.686   5.409   8.280 -0.2846 -0.2412 -0.8090
  939MOL0     O23840   7.784   5.325   8.337 -0.5146 -0.2640 -0.5408
  939MOL0     C23841   7.740   5.236   8.420  0.9584  0.4914 -0.2324
  939MOL0     C23842   7.777   5.226   8.553 -0.4466  0.2514 -0.7760
  939MOL0     C23843   7.715   5.136   8.635 -0.5140 -0.2181  0.6727
  939MOL0     C23844   7.624   5.038   8.580  0.7877 -0.1910 -0.2877
  939MOL0     C23845   7.567   4.936   8.664  0.2880  0.4646  0.3286
  939MOL0     O23846   7.509   4.834   8.593  0.3277 -0.0320 -0.1321
  939MOL0     C23847   7.433   4.739   8.649  0.1879 -0.8655  0.6467
  939MOL0     C23848   7.390   4.639   8.562  0.2602  0.6536  0.1904
  939MOL0     C23849   7.294   4.538   8.608 -0.0011 -1.0711 -0.4560
  939MOL0     C23850   7.251   4.530   8.745 -0.4667  0.6377 -0.2913
  939MOL0     O23851   7.180   4.426   8.793 -0.2972 -0.1097 -0.7813
  939MOL0     C23852   7.101   4.446   8.917 -0.1018  0.9836  0.4035
  939MOL0     C23853   7.160   4.366   9.026 -0.7797  0.7873  0.0759
  939MOL0     C23854   7.303   4.401   9.072 -0.1934 -0.3982 -0.7860
  939MOL0     C23855   7.349   4.314   9.195  1.0427 -0.0841  0.8124
  939MOL0     C23856   7.488   4.358   9.244  0.1600  0.9608 -0.3161
  939MOL0     C23857   7.606   4.320   9.150 -0.7575 -0.6545 -0.4813
  939MOL0     C23858   7.728   4.412   9.183  1.0146  0.3156  0.2227
  939MOL0     C23859   7.718   4.544   9.110  0.7277 -0.2398  0.5407
  939MOL0    Cl23860   7.856   4.654   9.160 -0.0300 -0.2781  0.4097
  939MOL0     C23861   7.303   4.637   8.825 -0.2307 -0.1396  0.0676
  939MOL0     C23862   7.380   4.735   8.778 -0.2041 -1.2445 -0.8685
  939MOL0     O23863   7.582   4.948   8.787  1.0690 -0.2031 -0.2335
  939MOL0     C23864   7.586   5.045   8.451 -0.5398  0.3399 -0.1585
  939MOL0     C23865   7.650   5.138   8.366  0.7541  0.7514 -0.9222
  939MOL0     N23866   7.941   5.757   7.971 -0.5928  0.1568  0.0712
  939MOL0     N23867   8.044   5.699   7.924  0.4886  0.0315 -0.4102
  939MOL0     C23868   7.909   4.752   8.692 -0.7770 -0.9293  0.7011
  939MOL0     C23869   7.805   4.656   8.728 -0.7379 -0.2521  0.8473
  939MOL0     C23870   7.626   4.261   8.788  0.3442  0.4724 -0.5925
  939MOL0     C23871   7.493   4.275   8.761  0.3077  0.5573  0.8927
  939MOL0     C23872   7.401   4.167   8.786 -0.8720 -0.3489 -1.3875
  939MOL0     C23873   7.445   4.048   8.831 -0.2944  0.0629 -0.3248
  939MOL0     O23874   7.366   3.940   8.856 -0.2663  0.1961  0.4919
  939MOL0     C23875   7.271   3.899   8.760 -0.5277  0.3045 -0.0911
  939MOL0     C23876   7.334   3.887   8.617  0.2378  0.2409 -0.2530
  939MOL0     C23877   7.240   3.809   8.520  0.2224 -0.0834 -0.4587
  939MOL0     C23878   7.310   3.764   8.392  0.8107  0.0919  0.6059
  939MOL0     C23879   7.410   3.656   8.398  0.6437  1.1683  0.3042
  939MOL0     C23880   7.507   3.578   8.400  0.3771  0.1692  0.5600
  939MOL0     C23881   7.581   4.027   8.849  0.7336  0.5166  0.0951
  939MOL0     C23882   7.668   4.139   8.845  0.7259  0.6317  0.8995
  939MOL0     H23883   7.820   4.481   8.445  0.0913 -1.1041  1.1573
  939MOL0     H23884   8.002   4.658   8.390  2.2257 -0.3965  1.0419
  939MOL0     H23885   8.043   4.896   8.387 -0.3124  0.8429  0.2054
  939MOL0     H23886   8.205   4.833   8.401 -0.8280 -1.8031  1.2396
  939MOL0     H23887   8.255   5.017   8.553 -0.7485 -2.8326 -0.0503
  939MOL0     H23888   8.101   5.098   8.538  1.1570 -1.5930  2.8532
  939MOL0     H23889   8.119   5.094   8.295 -1.9378 -0.9809  2.8284
  939MOL0     H23890   8.305   5.075   8.295  1.0446  2.6449 -0.2907
  939MOL0     H23891   8.165   5.303   8.441 -0.7158  0.9787 -1.3513
  939MOL0     H23892   8.333   5.259   8.431  0.9112 -1.5241 -0.6841
  939MOL0     H23893   8.339   5.271   8.178 -1.1255 -0.3651 -2.6593
  939MOL0     H23894   8.316   5.426   8.263  1.1437 -0.0571 -0.5916
  939MOL0     H23895   8.062   5.424   8.200 -1.7652 -0.3028  0.1688
  939MOL0     H23896   8.071   5.261   8.146 -1.7218  0.6723  4.8609
  939MOL0     H23897   8.253   5.325   7.985  1.1189  0.8254 -0.4599
  939MOL0     H23898   8.089   5.373   7.948  0.9461 -0.3433 -0.0172
  939MOL0     H23899   8.270   5.551   7.902 -2.2104  1.7840 -0.5243
  939MOL0     H23900   8.295   5.552   8.081 -0.7118  2.5011  1.2388
  939MOL0     H23901   8.098   5.632   8.236 -0.8307  0.0364 -0.5567
  939MOL0     H23902   7.744   5.780   8.141  0.5182  0.5621  0.1601
  939MOL0     H23903   7.869   5.841   8.247  3.4363  0.2579 -1.5453
  939MOL0     H23904   7.715   5.650   8.346  0.0558  0.0260  0.4439
  939MOL0     H23905   7.890   5.592   8.345  1.9137  0.0195 -2.0361
  939MOL0     H23906   7.677   5.553   8.129 -0.0495 -0.1768  0.0564
  939MOL0     H23907   7.838   5.472   8.159  1.2477  0.7339  2.0717
  939MOL0     H23908   7.620   5.355   8.212  0.9220 -0.4664 -1.8390
  939MOL0     H23909   7.614   5.448   8.353  0.8689  1.1201 -0.3317
  939MOL0     H23910   7.846   5.298   8.596 -1.9085  1.6859 -0.7297
  939MOL0     H23911   7.731   5.142   8.742 -3.2812 -1.8537  1.2690
  939MOL0     H23912   7.435   4.630   8.463  0.0545 -1.5403  0.2286
  939MOL0     H23913   7.258   4.468   8.534  3.6482 -0.9228 -2.5963
  939MOL0     H23914   6.995   4.423   8.898 -0.7279  3.7673  0.1102
  939MOL0     H23915   7.082   4.549   8.947 -2.1300  0.7500  0.1045
  939MOL0     H23916   7.164   4.263   8.989  5.0490  0.8172 -0.3676
  939MOL0     H23917   7.098   4.365   9.116  2.2637  3.9308  2.5098
  939MOL0     H23918   7.291   4.505   9.101 -3.0500 -0.4488 -1.4662
  939MOL0     H23919   7.378   4.393   8.993 -0.4670 -2.4315 -0.8974
  939MOL0     H23920   7.277   4.348   9.270  2.6620  0.0097  2.3829
  939MOL0     H23921   7.336   4.209   9.170  0.2506  0.6425 -2.3520
  939MOL0     H23922   7.504   4.321   9.346  0.6281 -3.3783 -1.7490
  939MOL0     H23923   7.477   4.466   9.259 -1.3760  0.9845 -1.3585
  939MOL0     H23924   7.581   4.351   9.048 -1.1024 -0.4100 -0.3274
  939MOL0     H23925   7.645   4.218   9.147  5.4508  1.3123 -0.3132
  939MOL0     H23926   7.738   4.427   9.291 -1.6525  1.9862  0.3311
  939MOL0     H23927   7.819   4.366   9.142  1.5957  1.7171 -0.1428
  939MOL0     H23928   7.621   4.590   9.132  0.4830 -1.3468  1.9176
  939MOL0     H23929   7.716   4.533   9.001 -1.6312 -0.2631  0.5507
  939MOL0     H23930   7.288   4.655   8.931  0.9086  0.7279  0.0993
  939MOL0     H23931   7.412   4.811   8.850 -0.1857 -1.1682 -0.9563
  939MOL0     H23932   7.512   4.980   8.407 -0.6603 -0.2744  0.9020
  939MOL0     H23933   7.619   5.124   8.263 -0.8373 -0.6281 -0.3203
  939MOL0     H23934   7.940   4.834   8.757 -1.8211  2.5205 -2.8030
  939MOL0     H23935   7.756   4.634   8.822 -1.7983 -4.0577 -0.4263
  939MOL0     H23936   7.444   4.356   8.708 -1.5974 -0.9329  0.2674
  939MOL0     H23937   7.296   4.176   8.763 -0.6333 -1.5511 -3.0650
  939MOL0     H23938   7.189   3.972   8.753  1.3314  2.8189  2.1873
  939MOL0     H23939   7.235   3.802   8.793 -1.7446 -0.8545 -4.1969
  939MOL0     H23940   7.334   3.989   8.577  0.3939  0.1417 -0.5070
  939MOL0     H23941   7.434   3.844   8.609 -0.5672 -2.0419  1.0641
  939MOL0     H23942   7.166   3.881   8.485 -0.7431 -0.9066 -0.1352
  939MOL0     H23943   7.191   3.722   8.564 -3.0822  2.7422  2.0243
  939MOL0     H23944   7.233   3.727   8.324  1.7090 -1.2131  0.2752
  939MOL0     H23945   7.357   3.851   8.345 -0.2253  1.6088  2.2258
  939MOL0     H23946   7.584   3.506   8.380 -1.1719 -1.1363 -0.9898
  939MOL0     H23947   7.628   3.937   8.888 -1.3035 -0.7213 -0.1935
  939MOL0     H23948   7.768   4.109   8.873 -0.3012 -2.3447  1.7902
  940MOL0     O23949   9.550   9.873   9.397 -0.1999 -0.3077  1.0654
  940MOL0     C23950   9.590   9.761   9.415  0.3032 -0.1336  0.0754
  940MOL0     O23951   9.720   9.717   9.424  0.1483  0.2835 -0.8900
  940MOL0     C23952   9.823   9.811   9.414  0.2953 -0.2319  0.1078
  940MOL0     C23953   9.940   9.796   9.486  0.9761 -0.1714  0.3794
  940MOL0     C23954  10.049   9.880   9.455 -0.8996  0.5954  0.0601
  940MOL0     C23955  10.056   9.964   9.342 -1.4371 -0.8815 -0.2893
  940MOL0     O23956  10.172  10.037   9.300 -0.0086 -1.6327 -0.0882
  940MOL0     C23957  10.238   9.985   9.188 -0.3844  0.3011  0.7258
  940MOL0     C23958  10.343   9.894   9.237 -0.3788  0.7613 -1.0515
  940MOL0     C23959  10.447   9.844   9.122 -0.2647  0.3177 -0.2216
  940MOL0     C23960  10.577   9.796   9.180  0.2735 -1.5862 -0.2394
  940MOL0     C23961  10.669   9.933   9.188  0.5741 -0.4965 -0.3369
  940MOL0     C23962  10.762   9.921   9.298  0.9112 -0.4792 -0.1859
  940MOL0     C23963  10.874   9.818   9.279 -0.2694 -0.5366  0.1724
  940MOL0     C23964  10.991   9.834   9.381  0.3179 -0.5098 -0.2737
  940MOL0     N23965  10.952   9.830   9.524  0.0695 -0.0778  0.2303
  940MOL0     C23966  10.924   9.710   9.586  0.0182 -0.3504  0.2559
  940MOL0     C23967  10.851   9.736   9.696  0.2793 -0.0413  0.6927
  940MOL0     C23968  10.791   9.632   9.778 -0.4526  0.0831  0.1585
  940MOL0     C23969  10.642   9.645   9.750 -0.0793 -0.2733 -0.6893
  940MOL0     C23970  10.572   9.516   9.792 -0.5244 -0.2793  0.8682
  940MOL0     C23971  10.500   9.457   9.663 -0.5450  0.0242 -0.1579
  940MOL0     O23972  10.412   9.351   9.692  0.5567  0.3365 -0.5257
  940MOL0     C23973  10.295   9.344   9.624 -0.1284  0.1709  0.5134
  940MOL0     C23974  10.203   9.446   9.635 -0.4708  0.1682  0.1112
  940MOL0     C23975  10.077   9.427   9.589  0.4316 -0.0952 -0.3611
  940MOL0     C23976  10.028   9.306   9.537 -0.1982  0.0435  0.0339
  940MOL0     C23977   9.888   9.292   9.480 -1.3913 -0.6108  0.0259
  940MOL0     O23978   9.859   9.174   9.418 -0.2417  1.3259 -0.5652
  940MOL0     C23979   9.732   9.175   9.364 -0.5156 -0.8292  0.1282
  940MOL0     C23980   9.625   9.122   9.436 -0.1941  0.0548  0.1311
  940MOL0     C23981   9.495   9.118   9.381 -0.0914 -0.1197  0.2277
  940MOL0     C23982   9.473   9.170   9.252  0.2186 -0.3375  0.3575
  940MOL0     O23983   9.351   9.141   9.198 -0.2088 -0.0133 -0.7607
  940MOL0     C23984   9.351   9.098   9.063 -0.2432  0.2930  0.4461
  940MOL0     C23985   9.226   9.164   8.993  0.2222  0.4555  0.7727
  940MOL0     C23986   9.090   9.118   9.041 -0.3051  0.6508 -0.0429
  940MOL0     C23987   8.979   9.178   8.954  0.0920  0.6564  0.2942
  940MOL0     C23988   8.851   9.113   8.955  0.0695  0.1746 -0.2197
  940MOL0     C23989   8.789   9.099   9.092 -0.3122 -0.7622 -0.1161
  940MOL0     C23990   8.647   9.107   9.099  0.6507 -0.1088  0.8934
  940MOL0     C23991   8.571   9.027   8.999 -0.7090  0.3236  0.1908
  940MOL0    Cl23992   8.598   8.848   9.054 -0.0352 -0.2994  0.2866
  940MOL0     C23993   9.579   9.229   9.182  0.3053 -0.6523 -0.2503
  940MOL0     C23994   9.709   9.228   9.241  1.0651 -0.5119  1.0211
  940MOL0     O23995   9.811   9.392   9.504 -0.3909  0.1860  0.0638
  940MOL0     C23996  10.122   9.196   9.534 -0.7647 -0.9272 -0.1192
  940MOL0     C23997  10.248   9.215   9.582  0.4133  0.5148 -0.0221
  940MOL0     N23998  10.826   9.867   9.686 -0.5982 -0.2589  0.6490
  940MOL0     N23999  10.889   9.922   9.586  0.5873 -0.5066  0.4092
  940MOL0     C24000   9.942   9.998   9.286  0.2783  0.2235 -0.0124
  940MOL0     C24001   9.827   9.914   9.309  0.0457  0.6228 -1.2636
  940MOL0     C24002   9.487   9.654   9.430 -0.3679  0.0414  0.7729
  940MOL0     C24003   9.357   9.665   9.360 -0.4307  0.7952  0.1381
  940MOL0     C24004   9.251   9.584   9.385  0.6630  0.4245 -1.1041
  940MOL0     C24005   9.277   9.477   9.467  0.1182  0.6073 -0.0165
  940MOL0     O24006   9.161   9.412   9.516  0.4705  0.5062  0.2271
  940MOL0     C24007   9.158   9.331   9.631  1.0768  0.2269  0.0039
  940MOL0     C24008   9.176   9.181   9.609  0.2827 -0.2120  0.7315
  940MOL0     C24009   9.107   9.124   9.490  0.2405 -0.0663  0.5207
  940MOL0     C24010   8.959   9.168   9.484 -1.3116 -0.4381 -0.2650
  940MOL0     C24011   8.865   9.141   9.590  0.4417  1.2194  0.0085
  940MOL0     C24012   8.790   9.109   9.682  0.3760  0.8732  0.4427
  940MOL0     C24013   9.405   9.447   9.514  0.1388 -0.6306  0.5351
  940MOL0     C24014   9.510   9.522   9.485  0.6527 -0.0105 -0.8719
  940MOL0     H24015   9.932   9.712   9.555  0.7015 -0.5142 -0.0634
  940MOL0     H24016  10.130   9.876   9.527 -0.8124  3.5508  0.2486
  940MOL0     H24017  10.302  10.054   9.132  0.7970 -1.7223 -0.5640
  940MOL0     H24018  10.166   9.946   9.116  0.6454 -0.9841  0.3532
  940MOL0     H24019  10.288   9.805   9.272 -2.2016  0.9695 -3.1788
  940MOL0     H24020  10.394   9.952   9.314 -0.3644  0.0992 -0.5450
  940MOL0     H24021  10.463   9.915   9.041 -0.7657  2.0382  1.1136
  940MOL0     H24022  10.414   9.746   9.087  2.0711 -1.7788  2.8551
  940MOL0     H24023  10.559   9.744   9.275 -0.5713 -0.4443  0.2475
  940MOL0     H24024  10.626   9.739   9.101  3.1197 -1.4717  1.3177
  940MOL0     H24025  10.604  10.020   9.202 -0.4154 -1.1709 -0.6040
  940MOL0     H24026  10.719   9.944   9.092  1.8360 -1.9759  0.1100
  940MOL0     H24027  10.703   9.892   9.386  0.9155  0.5206  0.1609
  940MOL0     H24028  10.800  10.022   9.316 -2.1555  1.5226 -3.6641
  940MOL0     H24029  10.845   9.712   9.285  3.5853 -1.6613  1.5153
  940MOL0     H24030  10.914   9.831   9.178 -1.2779 -0.7185 -0.2723
  940MOL0     H24031  11.028   9.935   9.363  0.2751 -0.3738  0.3822
  940MOL0     H24032  11.064   9.757   9.354  1.4347 -0.5067  2.3939
  940MOL0     H24033  10.930   9.608   9.548 -0.3417 -0.3865  0.2935
  940MOL0     H24034  10.811   9.650   9.884 -1.3025  2.6793 -0.0432
  940MOL0     H24035  10.823   9.530   9.754 -0.5736 -0.7505  3.1943
  940MOL0     H24036  10.614   9.668   9.647 -1.0236  2.8369  0.1573
  940MOL0     H24037  10.582   9.718   9.806 -0.6719 -2.8089  2.3035
  940MOL0     H24038  10.637   9.441   9.838  0.2210  0.1541  0.5360
  940MOL0     H24039  10.492   9.536   9.864 -0.6111 -4.7546  2.3386
  940MOL0     H24040  10.585   9.420   9.605 -1.0680  0.1943 -1.0475
  940MOL0     H24041  10.452   9.533   9.600 -1.1905 -1.8434 -2.0123
  940MOL0     H24042  10.213   9.534   9.698  1.2157 -2.3581  3.7225
  940MOL0     H24043   9.999   9.500   9.608  0.5593 -0.6236  2.5523
  940MOL0     H24044   9.648   9.084   9.535  1.2216  1.8354  0.5490
  940MOL0     H24045   9.405   9.073   9.419 -1.5989  1.8619 -0.8093
  940MOL0     H24046   9.341   8.989   9.066 -1.7954  0.2700 -2.0059
  940MOL0     H24047   9.441   9.120   9.005 -0.7472  0.8482 -0.1434
  940MOL0     H24048   9.238   9.139   8.887  2.6545 -1.3921  1.3865
  940MOL0     H24049   9.235   9.272   9.009 -2.4711  1.1830 -1.7726
  940MOL0     H24050   9.077   9.141   9.147  0.5822 -1.5488  0.6127
  940MOL0     H24051   9.082   9.009   9.030  1.0806  0.5219  0.0158
  940MOL0     H24052   8.954   9.279   8.987  1.5186  1.7251 -1.6523
  940MOL0     H24053   8.992   9.182   8.845 -3.4118  0.6372 -0.2449
  940MOL0     H24054   8.838   9.020   8.898 -3.2583  0.3451  0.1205
  940MOL0     H24055   8.789   9.183   8.899  1.1269  1.2089 -0.1408
  940MOL0     H24056   8.833   9.181   9.151 -1.0237  0.1326 -0.7944
  940MOL0     H24057   8.817   9.007   9.143  2.2708  0.0247  0.0376
  940MOL0     H24058   8.631   9.070   9.201  3.7121 -2.8707  0.5446
  940MOL0     H24059   8.626   9.209   9.065 -2.1566 -1.0705 -0.6052
  940MOL0     H24060   8.601   9.050   8.897  3.4508 -3.4665  0.2356
  940MOL0     H24061   8.464   9.050   9.011 -0.1455  2.3087  2.0409
  940MOL0     H24062   9.541   9.284   9.096 -1.0036 -1.3875 -0.1755
  940MOL0     H24063   9.795   9.279   9.198  1.0851  0.6750  2.4314
  940MOL0     H24064  10.089   9.093   9.527  1.8245 -2.0993  2.4327
  940MOL0     H24065  10.308   9.132   9.616 -1.3003 -0.2627  1.2677
  940MOL0     H24066   9.925  10.088   9.229 -2.9469  0.5450  1.2307
  940MOL0     H24067   9.741   9.939   9.247 -0.2682  0.3233 -0.9567
  940MOL0     H24068   9.341   9.755   9.300 -0.4038  0.8710  0.2437
  940MOL0     H24069   9.151   9.618   9.361  0.5394  1.6780  0.9426
  940MOL0     H24070   9.064   9.350   9.684  1.4415  3.0451 -0.1875
  940MOL0     H24071   9.227   9.362   9.711 -0.9929  1.0180  1.5858
  940MOL0     H24072   9.281   9.152   9.604  0.2896 -0.7488  2.7857
  940MOL0     H24073   9.150   9.127   9.701 -0.6910  0.0583  0.6273
  940MOL0     H24074   9.105   9.015   9.500  2.6829 -0.5930 -2.8004
  940MOL0     H24075   9.164   9.135   9.397 -1.5879 -2.1040 -0.9526
  940MOL0     H24076   8.954   9.274   9.460 -1.8837 -0.9725 -2.9228
  940MOL0     H24077   8.921   9.130   9.388  2.1235 -1.9131 -1.1964
  940MOL0     H24078   8.718   9.080   9.756 -0.0899 -0.6808 -0.5612
  940MOL0     H24079   9.415   9.362   9.580 -1.7338 -1.1965  0.1338
  940MOL0     H24080   9.614   9.511   9.515  0.1261 -0.5593  0.9235
  941MOL0     O24081  11.116   9.556   4.493  0.3207  0.4780  0.6907
  941MOL0     C24082  11.151   9.465   4.418 -0.2247 -0.2748 -0.0693
  941MOL0     O24083  11.208   9.479   4.291  0.3480 -0.3716 -0.0693
  941MOL0     C24084  11.212   9.604   4.230  0.0159  0.0672  0.1465
  941MOL0     C24085  11.144   9.610   4.108  0.2130  0.0674 -0.2756
  941MOL0     C24086  11.158   9.725   4.032  0.8407 -0.3980 -0.5162
  941MOL0     C24087  11.231   9.837   4.077  0.3950 -0.0476 -0.3080
  941MOL0     O24088  11.245   9.936   3.990 -0.0144 -0.4910  0.4069
  941MOL0     C24089  11.279  10.065   4.046 -0.1175  0.6125 -0.6008
  941MOL0     C24090  11.260  10.156   3.925 -0.4032 -0.3956  1.0184
  941MOL0     C24091  11.290  10.297   3.964 -0.2717 -0.3695 -0.1260
  941MOL0     C24092  11.417  10.331   4.051 -0.4917  0.8580 -0.2785
  941MOL0     C24093  11.407  10.473   4.100  0.4572 -0.2949  1.2330
  941MOL0     C24094  11.506  10.525   4.206  0.3445  0.9315 -1.1004
  941MOL0     C24095  11.515  10.445   4.343 -0.2754  0.5503  0.7807
  941MOL0     C24096  11.394  10.466   4.442 -0.7818  0.2668  0.3476
  941MOL0     N24097  11.274  10.381   4.413 -0.3445 -0.7988  0.0699
  941MOL0     C24098  11.275  10.245   4.423  0.2353  1.2721 -0.1059
  941MOL0     C24099  11.146  10.207   4.390 -0.8412 -0.1842  0.1372
  941MOL0     C24100  11.091  10.066   4.390  0.1628  0.6188  0.0798
  941MOL0     C24101  11.095  10.014   4.530  0.7939  0.4644  0.5021
  941MOL0     C24102  11.028   9.884   4.549 -0.5743 -0.5887 -0.3154
  941MOL0     C24103  11.057   9.804   4.682 -0.1652  0.8834 -0.1141
  941MOL0     O24104  11.003   9.872   4.794  0.1786  0.0747 -0.2991
  941MOL0     C24105  11.022   9.820   4.919 -0.2579  0.4064  0.5488
  941MOL0     C24106  10.935   9.871   5.010  0.8444 -0.1080  0.6298
  941MOL0     C24107  10.923   9.814   5.138  0.0367 -0.4157 -0.2446
  941MOL0     C24108  11.009   9.709   5.178 -0.2483 -0.1500  0.2920
  941MOL0     C24109  11.010   9.677   5.319 -0.4981 -0.1525  0.6858
  941MOL0     O24110  10.912   9.741   5.399 -0.1259 -0.5936 -0.6565
  941MOL0     C24111  10.839   9.688   5.507 -0.1380  1.1570  0.4647
  941MOL0     C24112  10.852   9.551   5.541 -0.0933  0.7358 -0.1691
  941MOL0     C24113  10.778   9.503   5.651  0.6553  0.8762 -0.1037
  941MOL0     C24114  10.687   9.576   5.712  0.0869  0.4792 -0.2584
  941MOL0     O24115  10.612   9.539   5.815 -0.1192  0.1078 -0.6055
  941MOL0     C24116  10.599   9.396   5.854  0.5667  0.4683  0.8522
  941MOL0     C24117  10.519   9.301   5.769  0.4380 -0.5548  0.2351
  941MOL0     C24118  10.567   9.155   5.774  1.1051  0.5506  0.0415
  941MOL0     C24119  10.516   9.079   5.890  0.8055  0.4014  0.4472
  941MOL0     C24120  10.591   8.943   5.910  0.4781  0.0808 -1.4341
  941MOL0     C24121  10.604   8.834   5.797  0.3039 -0.0491  0.3315
  941MOL0     C24122  10.473   8.786   5.733  0.3590 -1.1306 -0.1871
  941MOL0     C24123  10.485   8.752   5.596 -0.5825 -0.1369  0.5080
  941MOL0    Cl24124  10.474   8.903   5.486 -0.0869 -0.6182  0.2402
  941MOL0     C24125  10.667   9.705   5.669 -0.3958 -0.8326  1.0796
  941MOL0     C24126  10.741   9.762   5.567 -0.0006 -0.3997 -0.0893
  941MOL0     O24127  11.082   9.593   5.365 -0.1390 -0.2996 -0.4937
  941MOL0     C24128  11.088   9.658   5.086 -0.1226  0.7055  0.0104
  941MOL0     C24129  11.094   9.706   4.953 -1.0484  0.6082 -0.1142
  941MOL0     N24130  11.072  10.319   4.374 -0.8102 -0.2423 -0.6772
  941MOL0     N24131  11.150  10.421   4.391  0.0254 -0.2767  0.0720
  941MOL0     C24132  11.303   9.826   4.197 -0.0330  0.0129 -0.2668
  941MOL0     C24133  11.287   9.710   4.280  0.9644 -1.3948 -0.2793
  941MOL0     C24134  11.140   9.331   4.479 -0.2097  0.8368  0.8504
  941MOL0     C24135  11.082   9.308   4.608 -1.0127 -1.1008 -0.4148
  941MOL0     C24136  11.082   9.181   4.662 -0.6555 -0.6171  1.0828
  941MOL0     C24137  11.127   9.071   4.588  0.0615  0.2127 -0.1633
  941MOL0     O24138  11.095   8.939   4.616 -0.5230  0.7320 -0.1233
  941MOL0     C24139  11.030   8.902   4.745  0.2916 -0.3551  0.7003
  941MOL0     C24140  11.147   8.889   4.843  0.4918  1.3077  0.3138
  941MOL0     C24141  11.215   8.753   4.824 -0.0553 -0.1296 -0.1242
  941MOL0     C24142  11.326   8.746   4.935  0.4571  0.1438 -0.2595
  941MOL0     C24143  11.401   8.622   4.945 -0.0786  1.1217 -0.1076
  941MOL0     C24144  11.470   8.524   4.965  0.4041  0.7461 -0.0123
  941MOL0     C24145  11.185   9.097   4.462 -0.0463  1.1185 -0.6437
  941MOL0     C24146  11.193   9.224   4.412 -0.5826 -0.0454 -0.7432
  941MOL0     H24147  11.092   9.516   4.091  0.9362 -0.2149 -0.9229
  941MOL0     H24148  11.099   9.726   3.941 -3.1717  2.0802  1.7924
  941MOL0     H24149  11.380  10.072   4.088 -1.3472  0.0229  2.8158
  941MOL0     H24150  11.211  10.089   4.128  0.3618 -3.4224  1.2255
  941MOL0     H24151  11.158  10.150   3.885  0.6167  1.3512 -2.1461
  941MOL0     H24152  11.334  10.124   3.852 -1.1685  0.5416 -0.1995
  941MOL0     H24153  11.203  10.322   4.025  0.7963  1.5781  0.6878
  941MOL0     H24154  11.293  10.361   3.875  1.3189 -0.7009 -0.3456
  941MOL0     H24155  11.422  10.256   4.130  0.8802  1.6053  0.3919
  941MOL0     H24156  11.510  10.311   3.997 -0.0521  0.3020  0.6587
  941MOL0     H24157  11.307  10.474   4.143 -1.0790 -0.7017 -2.0788
  941MOL0     H24158  11.406  10.541   4.014  1.5193 -0.6986  0.8857
  941MOL0     H24159  11.485  10.626   4.241  1.5350  1.2472 -1.2751
  941MOL0     H24160  11.606  10.550   4.168  1.0355  2.9665  1.7381
  941MOL0     H24161  11.525  10.338   4.324 -2.3700  0.2905  0.8979
  941MOL0     H24162  11.603  10.476   4.400 -0.4956  2.5878  0.0752
  941MOL0     H24163  11.354  10.568   4.437 -2.9427 -0.5583 -0.2676
  941MOL0     H24164  11.421  10.458   4.548  0.2850  0.6498  0.1139
  941MOL0     H24165  11.363  10.185   4.440 -1.8405 -1.9290  0.2955
  941MOL0     H24166  11.150  10.002   4.323  0.2277  0.1575  0.5746
  941MOL0     H24167  10.984  10.075   4.369  0.6442  2.9763 -1.9077
  941MOL0     H24168  11.046  10.091   4.590 -0.1525  0.4029 -0.1590
  941MOL0     H24169  11.199  10.000   4.562  1.0066 -1.2892 -0.8347
  941MOL0     H24170  10.920   9.901   4.546 -0.4594  0.5145  1.0089
  941MOL0     H24171  11.061   9.818   4.468  2.3743 -0.9658  1.0591
  941MOL0     H24172  11.165   9.810   4.702  0.1558 -1.8497 -0.6502
  941MOL0     H24173  11.031   9.698   4.683 -2.6089  1.4084 -1.0807
  941MOL0     H24174  10.859   9.943   4.981  1.2818 -0.5927 -1.9582
  941MOL0     H24175  10.850   9.864   5.200  0.2596 -1.0404  0.5418
  941MOL0     H24176  10.941   9.501   5.506 -1.7017  0.1845 -3.9603
  941MOL0     H24177  10.794   9.401   5.685  0.7745  0.5120 -1.2105
  941MOL0     H24178  10.557   9.395   5.955 -0.9656 -1.5110  0.2661
  941MOL0     H24179  10.702   9.359   5.855 -0.4716 -2.7541  2.6629
  941MOL0     H24180  10.545   9.332   5.667 -1.2249 -2.0561 -0.7210
  941MOL0     H24181  10.411   9.312   5.782  0.3316  0.0162 -0.9875
  941MOL0     H24182  10.676   9.167   5.774  0.9362  2.6583 -1.3584
  941MOL0     H24183  10.524   9.104   5.687 -3.2568  2.9474  0.5327
  941MOL0     H24184  10.510   9.128   5.988 -2.4494  0.4391  0.3382
  941MOL0     H24185  10.411   9.070   5.861  0.4864  1.0496  1.3460
  941MOL0     H24186  10.550   8.891   5.997 -2.2568  3.0784 -0.7321
  941MOL0     H24187  10.695   8.966   5.933 -0.3590  0.7737  2.3282
  941MOL0     H24188  10.651   8.745   5.840  0.4289  0.2214  0.7521
  941MOL0     H24189  10.684   8.865   5.729  0.7762  1.4983  1.5669
  941MOL0     H24190  10.428   8.705   5.792  0.2164 -1.0962 -0.2468
  941MOL0     H24191  10.396   8.864   5.737 -0.2288 -1.6373 -1.3028
  941MOL0     H24192  10.410   8.678   5.568 -1.9031  0.8366  1.3401
  941MOL0     H24193  10.583   8.706   5.580  0.3687  0.6783  3.3969
  941MOL0     H24194  10.598   9.776   5.713 -0.4462 -0.6657  0.7332
  941MOL0     H24195  10.729   9.865   5.534 -1.7661 -0.3602  0.5824
  941MOL0     H24196  11.132   9.564   5.116 -0.2906  0.4777 -0.4534
  941MOL0     H24197  11.149   9.640   4.887  0.0389 -0.3880  1.6801
  941MOL0     H24198  11.368   9.907   4.227 -0.0086 -1.2997  3.8161
  941MOL0     H24199  11.347   9.692   4.368  1.8796  0.7289 -0.3860
  941MOL0     H24200  11.046   9.396   4.661  1.3499  0.3183 -1.0107
  941MOL0     H24201  11.032   9.170   4.757 -3.0147  3.0373  0.4618
  941MOL0     H24202  10.980   8.808   4.723  2.1333 -1.1637 -0.2035
  941MOL0     H24203  10.948   8.968   4.776 -2.4954 -3.7095  1.1258
  941MOL0     H24204  11.222   8.968   4.833  1.2189  0.3972 -2.0636
  941MOL0     H24205  11.114   8.905   4.947 -1.7372 -3.5123  0.6326
  941MOL0     H24206  11.251   8.738   4.722  1.4543  2.5359 -0.0838
  941MOL0     H24207  11.140   8.678   4.849 -0.9695  0.8724  0.1883
  941MOL0     H24208  11.387   8.834   4.909  1.6629 -1.0096 -1.5192
  941MOL0     H24209  11.293   8.784   5.032  0.4022  0.9001 -0.5657
  941MOL0     H24210  11.529   8.437   4.986  0.1073  0.5740  0.1196
  941MOL0     H24211  11.218   9.006   4.412  2.9560  1.5429  0.3773
  941MOL0     H24212  11.229   9.239   4.311 -0.0008  4.1561 -0.0801
  942MOL0     O24213   6.981  11.372   1.770 -0.8398  0.2872  0.0612
  942MOL0     C24214   6.879  11.314   1.807 -0.3638  0.1430  0.5124
  942MOL0     O24215   6.880  11.191   1.864  0.2592  0.5365  0.6117
  942MOL0     C24216   6.955  11.085   1.809  1.1512  0.3231 -0.0337
  942MOL0     C24217   6.997  11.081   1.671  0.1517  0.2987  0.0448
  942MOL0     C24218   7.068  10.973   1.608 -0.6438 -0.7617 -0.0146
  942MOL0     C24219   7.088  10.857   1.687 -0.5195  0.6299 -0.2824
  942MOL0     O24220   7.157  10.744   1.648  0.0377 -0.5105  0.1727
  942MOL0     C24221   7.242  10.746   1.534 -0.2674 -0.0035 -0.2829
  942MOL0     C24222   7.326  10.609   1.514  1.1454 -0.5341 -0.2997
  942MOL0     C24223   7.277  10.550   1.378  0.2304  0.7540 -0.5168
  942MOL0     C24224   7.361  10.423   1.355  0.8007 -0.2444 -0.9091
  942MOL0     C24225   7.491  10.467   1.298  0.9674 -0.9417 -0.3309
  942MOL0     C24226   7.570  10.348   1.246 -0.8605  0.0344 -0.4500
  942MOL0     C24227   7.705  10.395   1.182 -1.3872  1.5175  0.2222
  942MOL0     C24228   7.802  10.479   1.266  0.4978 -0.0374 -0.1791
  942MOL0     N24229   7.911  10.404   1.326 -0.1084 -0.1882 -0.2979
  942MOL0     C24230   8.015  10.345   1.259 -0.3204  0.1702  0.8952
  942MOL0     C24231   8.073  10.281   1.356  0.1617 -0.3100  0.7390
  942MOL0     C24232   8.210  10.221   1.351 -0.4176  1.4075  0.7008
  942MOL0     C24233   8.330  10.309   1.401 -0.6295  0.5697 -0.0204
  942MOL0     C24234   8.332  10.440   1.322  0.0955 -0.3854  0.2795
  942MOL0     C24235   8.469  10.507   1.332  0.0899 -0.2221 -0.5001
  942MOL0     O24236   8.547  10.426   1.259 -0.4832  0.2789 -0.8749
  942MOL0     C24237   8.682  10.427   1.286  0.5536 -0.7991  0.0065
  942MOL0     C24238   8.747  10.307   1.230 -0.0371 -0.8251 -0.0637
  942MOL0     C24239   8.882  10.280   1.264 -0.4999 -0.2685  0.1784
  942MOL0     C24240   8.956  10.376   1.338  0.1405 -0.2332 -0.2695
  942MOL0     C24241   9.101  10.342   1.363  0.4788 -0.2538 -0.6931
  942MOL0     O24242   9.188  10.450   1.377 -0.0663 -0.2745 -0.1937
  942MOL0     C24243   9.319  10.430   1.414  0.2684  0.1310  1.2575
  942MOL0     C24244   9.404  10.340   1.345  0.2383 -0.7494  0.7741
  942MOL0     C24245   9.527  10.315   1.407  0.5503 -0.6124 -0.2051
  942MOL0     C24246   9.580  10.390   1.511  0.1373  0.3283  0.4949
  942MOL0     O24247   9.689  10.354   1.589  0.2538  0.1955 -0.4592
  942MOL0     C24248   9.765  10.235   1.573  0.1566 -0.3247  0.6135
  942MOL0     C24249   9.799  10.171   1.703 -0.7122 -0.5285 -0.4863
  942MOL0     C24250   9.872  10.270   1.808 -0.0121 -0.2182 -0.6150
  942MOL0     C24251   9.831  10.248   1.951  0.0005  0.4266 -0.5889
  942MOL0     C24252   9.911  10.352   2.046 -0.3753  0.1951  0.3505
  942MOL0     C24253  10.066  10.328   2.033 -0.8854 -0.4425 -0.4569
  942MOL0     C24254  10.140  10.392   2.156  0.5415 -0.3847 -0.1830
  942MOL0     C24255  10.285  10.353   2.158 -0.2671 -0.1468 -0.4281
  942MOL0    Cl24256  10.369  10.421   2.034  0.0173 -0.6176  0.8830
  942MOL0     C24257   9.497  10.494   1.565 -0.9853 -0.0679  0.1085
  942MOL0     C24258   9.368  10.508   1.505 -0.4821 -1.0777 -0.2150
  942MOL0     O24259   9.135  10.222   1.377  0.4018 -0.0393  1.0326
  942MOL0     C24260   8.901  10.501   1.369 -0.3740 -0.6455 -0.3846
  942MOL0     C24261   8.757  10.515   1.357 -0.0686 -0.1179 -0.0319
  942MOL0     N24262   7.999  10.286   1.473  0.3727  0.5921 -0.1165
  942MOL0     N24263   7.901  10.354   1.445 -0.2163 -0.1907  0.8947
  942MOL0     C24264   7.032  10.858   1.816  0.6836 -0.4970  0.3974
  942MOL0     C24265   6.960  10.962   1.876  0.3753  0.2844  0.9926
  942MOL0     C24266   6.755  11.394   1.805  1.5551 -0.4813  1.4984
  942MOL0     C24267   6.634  11.336   1.848 -0.6536  1.5447  0.1940
  942MOL0     C24268   6.520  11.416   1.882  0.3097  0.3962 -0.6415
  942MOL0     C24269   6.525  11.551   1.850  0.3102 -0.3038  0.1007
  942MOL0     O24270   6.410  11.627   1.852 -0.0313 -1.1079 -0.1999
  942MOL0     C24271   6.389  11.733   1.757  0.1954  0.4633 -0.8484
  942MOL0     C24272   6.375  11.679   1.611 -0.3879  0.0408 -0.4982
  942MOL0     C24273   6.274  11.774   1.535 -0.1136  0.0884  0.1003
  942MOL0     C24274   6.256  11.744   1.385 -0.4860  0.5891 -0.4289
  942MOL0     C24275   6.384  11.764   1.311  0.6330 -0.4282  0.4287
  942MOL0     C24276   6.496  11.780   1.255  0.7000 -0.1418  0.7696
  942MOL0     C24277   6.646  11.599   1.791 -0.0789  0.7736 -0.2072
  942MOL0     C24278   6.755  11.522   1.763  0.2907  0.0792  0.2159
  942MOL0     H24279   6.979  11.160   1.598  1.9688  0.4235 -0.3206
  942MOL0     H24280   7.101  10.961   1.505 -2.6367  0.0543 -0.8124
  942MOL0     H24281   7.316  10.826   1.541  0.3598 -0.5255 -0.8884
  942MOL0     H24282   7.184  10.763   1.443  1.6527 -1.0214 -1.7670
  942MOL0     H24283   7.309  10.548   1.603  1.3902  2.1068  1.6686
  942MOL0     H24284   7.425  10.655   1.509 -0.0215  2.0866 -1.5599
  942MOL0     H24285   7.287  10.615   1.290 -0.0037 -0.7652 -1.7124
  942MOL0     H24286   7.171  10.521   1.382  0.5851 -0.4220  1.0914
  942MOL0     H24287   7.374  10.370   1.450  0.3207  0.8785 -0.1890
  942MOL0     H24288   7.314  10.359   1.280  3.3452 -0.9046 -2.0427
  942MOL0     H24289   7.533  10.536   1.372 -3.2049  2.6438 -0.8748
  942MOL0     H24290   7.480  10.527   1.208  1.1171 -2.3036 -1.2775
  942MOL0     H24291   7.509  10.306   1.165 -2.6537  0.4223  0.6531
  942MOL0     H24292   7.580  10.281   1.332 -1.9159  2.9982  2.1653
  942MOL0     H24293   7.762  10.306   1.153  1.0286  2.3493  2.1012
  942MOL0     H24294   7.677  10.455   1.094 -3.4997  0.2863 -0.0027
  942MOL0     H24295   7.743  10.525   1.346  0.5786 -0.1159 -0.0745
  942MOL0     H24296   7.847  10.554   1.201 -0.6666  1.2670  0.4525
  942MOL0     H24297   8.053  10.364   1.160  0.2665  1.6868  1.3883
  942MOL0     H24298   8.224  10.190   1.247  2.3463 -0.8597  1.6183
  942MOL0     H24299   8.201  10.127   1.407  2.8605  1.0718  0.8632
  942MOL0     H24300   8.423  10.253   1.389  0.1400  1.2342  2.2612
  942MOL0     H24301   8.317  10.333   1.507 -0.6655  0.8125 -0.0782
  942MOL0     H24302   8.306  10.425   1.217 -2.5116  4.8899 -0.1659
  942MOL0     H24303   8.255  10.509   1.360 -0.5483 -2.0307  2.1410
  942MOL0     H24304   8.506  10.520   1.434 -3.5992 -3.8463  1.6245
  942MOL0     H24305   8.452  10.602   1.281  3.1869 -0.0105 -1.3264
  942MOL0     H24306   8.683  10.236   1.177 -2.7657  0.8419  0.7697
  942MOL0     H24307   8.932  10.186   1.244 -2.5310 -1.0938 -1.3653
  942MOL0     H24308   9.367  10.292   1.255  0.3215  0.9035 -0.1780
  942MOL0     H24309   9.585  10.239   1.355 -1.0855 -0.4761 -2.4037
  942MOL0     H24310   9.854  10.273   1.523  0.5210  4.8112  4.2827
  942MOL0     H24311   9.717  10.170   1.500 -0.8705  1.4145 -0.3416
  942MOL0     H24312   9.852  10.079   1.677 -0.1118 -0.0974 -0.8090
  942MOL0     H24313   9.709  10.144   1.760 -0.7063  2.7020  1.2753
  942MOL0     H24314   9.838  10.371   1.784 -2.8202 -1.1564 -0.9859
  942MOL0     H24315   9.980  10.255   1.805 -0.1831 -1.4479 -1.0380
  942MOL0     H24316   9.727  10.278   1.972 -0.6248 -2.3374  0.6862
  942MOL0     H24317   9.852  10.150   1.995  0.9987  1.2292  0.7974
  942MOL0     H24318   9.872  10.336   2.146 -1.1187 -3.8911 -0.4182
  942MOL0     H24319   9.898  10.456   2.015  1.1330  0.4473  0.4773
  942MOL0     H24320  10.100  10.361   1.935 -0.0394 -1.0814 -0.3918
  942MOL0     H24321  10.090  10.221   2.034  0.0968 -0.2633 -2.0173
  942MOL0     H24322  10.132  10.501   2.145  2.5373  0.3343  3.8101
  942MOL0     H24323  10.092  10.370   2.252 -0.8942 -2.5580 -1.3200
  942MOL0     H24324  10.304  10.245   2.150  1.0824  0.0289  0.0791
  942MOL0     H24325  10.331  10.383   2.253  1.9230  0.7123 -1.6914
  942MOL0     H24326   9.531  10.548   1.652 -2.1434  0.7757  0.0549
  942MOL0     H24327   9.314  10.586   1.559  2.1107  0.5712  0.1913
  942MOL0     H24328   8.956  10.579   1.421  0.2628 -2.0664  1.1444
  942MOL0     H24329   8.698  10.599   1.391 -2.3993 -0.1602 -3.4336
  942MOL0     H24330   7.033  10.763   1.870  0.1401 -0.7425 -0.0101
  942MOL0     H24331   6.940  10.973   1.982  1.5654 -0.9698  1.3716
  942MOL0     H24332   6.622  11.232   1.874 -0.6742  1.5684  0.2792
  942MOL0     H24333   6.438  11.360   1.927  3.2036 -1.3799  3.0360
  942MOL0     H24334   6.476  11.799   1.763  0.1564  0.4659 -0.2784
  942MOL0     H24335   6.310  11.800   1.789  0.7046  1.0357 -0.7734
  942MOL0     H24336   6.470  11.682   1.557 -0.5058 -1.3497 -0.8174
  942MOL0     H24337   6.340  11.575   1.618 -1.6296  0.4741  0.1146
  942MOL0     H24338   6.305  11.879   1.538 -3.6827  1.2870  0.2523
  942MOL0     H24339   6.172  11.777   1.575 -1.6804  0.9692 -3.5255
  942MOL0     H24340   6.224  11.643   1.359  0.2291  0.2721 -0.1153
  942MOL0     H24341   6.186  11.810   1.334 -0.4675  1.3884  0.5378
  942MOL0     H24342   6.584  11.787   1.194  0.4788  0.1043  0.4766
  942MOL0     H24343   6.666  11.705   1.781  0.9780  0.4070 -2.5053
  942MOL0     H24344   6.841  11.574   1.720  0.2739  0.8399  1.0810
  943MOL0     O24345   0.077   9.767  10.682  0.0807  0.5294  0.3645
  943MOL0     C24346   0.093   9.756  10.565  1.2590  0.8032  0.1419
  943MOL0     O24347  -0.008   9.747  10.470 -1.7785 -0.4055 -0.2071
  943MOL0     C24348  -0.132   9.752  10.507  0.2489  0.0501 -0.4749
  943MOL0     C24349  -0.214   9.697  10.417  0.3592 -0.8075 -0.0712
  943MOL0     C24350  -0.355   9.698  10.422  0.1905 -0.8872  0.0060
  943MOL0     C24351  -0.419   9.744  10.541  0.1664  0.4412  0.0570
  943MOL0     O24352  -0.556   9.746  10.568 -0.1882 -0.4284  0.5070
  943MOL0     C24353  -0.639   9.654  10.485 -0.6837 -0.4050 -0.5295
  943MOL0     C24354  -0.785   9.653  10.536  0.2589 -0.3041 -0.5403
  943MOL0     C24355  -0.873   9.561  10.465 -0.0300  0.8779  0.5780
  943MOL0     C24356  -1.015   9.583  10.534 -0.1916  0.4740 -0.5639
  943MOL0     C24357  -1.055   9.461  10.614  0.1663  0.2738  0.7433
  943MOL0     C24358  -1.191   9.481  10.697 -0.8330 -0.2558  0.3533
  943MOL0     C24359  -1.217   9.615  10.762  1.3649 -0.3648  0.9251
  943MOL0     C24360  -1.345   9.628  10.847  0.1062 -0.1746  0.3552
  943MOL0     N24361  -1.389   9.525  10.931  0.0846  0.7723 -0.0857
  943MOL0     C24362  -1.348   9.516  11.062  1.1539  0.1805 -0.1545
  943MOL0     C24363  -1.394   9.393  11.098 -0.6766 -0.3306 -1.2978
  943MOL0     C24364  -1.364   9.320  11.226 -0.1898  0.9786  0.5365
  943MOL0     C24365  -1.463   9.355  11.334  0.3759  1.2074 -0.0071
  943MOL0     C24366  -1.429   9.275  11.455  1.0317 -0.1996  0.6849
  943MOL0     C24367  -1.538   9.299  11.564  0.3548  0.1773 -0.7799
  943MOL0     O24368  -1.493   9.231  11.681 -0.2543  0.5003 -0.1605
  943MOL0     C24369  -1.591   9.211  11.791  0.5191 -0.8309  1.3168
  943MOL0     C24370  -1.552   9.147  11.909 -0.4518  0.1848  0.6124
  943MOL0     C24371  -1.643   9.135  12.015 -1.2812  0.4311  0.4642
  943MOL0     C24372  -1.775   9.163  12.007  0.1595  0.3527  1.4063
  943MOL0     C24373  -1.865   9.145  12.126  0.3350  0.1194 -0.3868
  943MOL0     O24374  -1.802   9.093  12.239  0.8906 -0.1285  0.4686
  943MOL0     C24375  -1.861   9.100  12.368  0.6288 -1.0116  0.0462
  943MOL0     C24376  -1.935   9.218  12.404 -0.3528 -1.1282  0.8271
  943MOL0     C24377  -1.995   9.234  12.527  0.2275  0.3670 -0.6082
  943MOL0     C24378  -1.970   9.139  12.627  0.1388 -0.3895  0.1876
  943MOL0     O24379  -2.022   9.147  12.753  0.6624 -0.0135 -0.6337
  943MOL0     C24380  -2.152   9.217  12.769 -0.2422 -0.6775  0.0758
  943MOL0     C24381  -2.215   9.153  12.890  0.7963  0.2732  0.1341
  943MOL0     C24382  -2.335   9.231  12.924 -0.4313  0.0823 -0.9879
  943MOL0     C24383  -2.384   9.196  13.063  0.2268 -0.0485 -0.1918
  943MOL0     C24384  -2.475   9.305  13.123 -0.6116  1.1919  1.6297
  943MOL0     C24385  -2.614   9.288  13.088 -0.2230  0.0238  0.5279
  943MOL0     C24386  -2.700   9.414  13.059 -0.3503  0.0834 -0.4476
  943MOL0     C24387  -2.708   9.467  12.909 -0.7378  0.0402  0.0205
  943MOL0    Cl24388  -2.565   9.568  12.857 -0.2793 -0.1838 -0.0792
  943MOL0     C24389  -1.903   9.022  12.597 -0.4704 -0.2233 -0.4033
  943MOL0     C24390  -1.850   9.002  12.465 -0.0004  1.0602 -0.6142
  943MOL0     O24391  -1.991   9.157  12.115 -0.1584 -0.2838  1.0658
  943MOL0     C24392  -1.820   9.230  11.891 -0.2841 -0.2221  0.0629
  943MOL0     C24393  -1.731   9.263  11.784 -0.7184  0.4660  0.0067
  943MOL0     N24394  -1.456   9.335  10.991 -0.0858  0.2911  0.9713
  943MOL0     N24395  -1.445   9.410  10.885  0.3893  0.4590 -0.2338
  943MOL0     C24396  -0.336   9.803  10.633 -0.1699  0.8074  0.6940
  943MOL0     C24397  -0.199   9.817  10.620  0.4284 -0.0053 -0.6062
  943MOL0     C24398   0.227   9.735  10.511 -0.5411  0.4109  0.5980
  943MOL0     C24399   0.249   9.636  10.410 -0.8846 -0.5588 -0.3645
  943MOL0     C24400   0.379   9.635  10.357  0.1262  0.3785  0.1015
  943MOL0     C24401   0.484   9.725  10.392  0.2478 -1.9589 -0.6800
  943MOL0     O24402   0.606   9.710  10.354 -0.0059  0.4680  0.4534
  943MOL0     C24403   0.628   9.694  10.214 -0.0633  0.1848 -0.4482
  943MOL0     C24404   0.740   9.789  10.166  0.4132 -0.6465 -1.1609
  943MOL0     C24405   0.764   9.777  10.011 -1.2478 -0.2118  0.0077
  943MOL0     C24406   0.777   9.638   9.950 -0.9336  0.2536  0.4891
  943MOL0     C24407   0.832   9.635   9.806 -0.3562  0.5160 -0.1333
  943MOL0     C24408   0.873   9.624   9.692 -0.2715  0.4111 -0.2572
  943MOL0     C24409   0.456   9.822  10.492 -0.1692  0.7340  0.2716
  943MOL0     C24410   0.330   9.838  10.545  0.3464  0.2997 -0.1564
  943MOL0     H24411  -0.177   9.652  10.325 -0.2474  0.8188 -1.1522
  943MOL0     H24412  -0.406   9.664  10.333  1.9090 -0.9817 -0.9765
  943MOL0     H24413  -0.603   9.551  10.491 -2.6905 -1.5891 -4.8283
  943MOL0     H24414  -0.632   9.682  10.379 -3.6865  2.0548 -0.2393
  943MOL0     H24415  -0.828   9.749  10.509 -1.5417 -0.3651  1.8047
  943MOL0     H24416  -0.795   9.633  10.643  0.5597 -1.3837 -0.6981
  943MOL0     H24417  -0.844   9.456  10.481 -0.6393  0.6189 -0.0044
  943MOL0     H24418  -0.874   9.587  10.359  0.9137  1.2442  0.6473
  943MOL0     H24419  -1.015   9.666  10.606 -1.1668 -0.4683  0.5542
  943MOL0     H24420  -1.087   9.591  10.453  0.4228 -3.3417 -1.6770
  943MOL0     H24421  -0.981   9.447  10.692 -0.0338 -2.2579  0.5466
  943MOL0     H24422  -1.064   9.373  10.550  1.7424 -0.0173  0.9031
  943MOL0     H24423  -1.185   9.402  10.772  0.2865 -0.9206 -0.3964
  943MOL0     H24424  -1.275   9.455  10.632 -1.0914  5.0612 -1.9438
  943MOL0     H24425  -1.136   9.648  10.829  1.3279 -0.7389  1.1531
  943MOL0     H24426  -1.226   9.688  10.681  2.8755  0.3114  1.3216
  943MOL0     H24427  -1.432   9.641  10.782 -0.5060 -0.9465  1.0095
  943MOL0     H24428  -1.325   9.721  10.902  2.2763 -0.1302 -0.3975
  943MOL0     H24429  -1.288   9.577  11.129 -0.6426  0.4374  1.3006
  943MOL0     H24430  -1.265   9.351  11.257  1.2396 -2.5476  0.0263
  943MOL0     H24431  -1.355   9.212  11.211 -4.4736  0.6891 -1.8157
  943MOL0     H24432  -1.565   9.337  11.298  0.0627  0.3258  1.2689
  943MOL0     H24433  -1.458   9.463  11.346 -2.6252  1.4889 -0.5865
  943MOL0     H24434  -1.430   9.170  11.424 -1.3000  0.0088 -0.1005
  943MOL0     H24435  -1.327   9.292  11.491  1.0574  0.9342  0.1112
  943MOL0     H24436  -1.636   9.263  11.530 -0.2488 -0.0327  1.0735
  943MOL0     H24437  -1.560   9.404  11.588 -0.0824  0.0516 -0.6090
  943MOL0     H24438  -1.450   9.109  11.908 -0.5531 -0.2028 -1.9132
  943MOL0     H24439  -1.604   9.107  12.112  3.0814  2.4096 -0.5029
  943MOL0     H24440  -1.938   9.306  12.340  4.2835 -1.8077 -0.7212
  943MOL0     H24441  -2.035   9.330  12.557  2.2090  1.0616 -0.0462
  943MOL0     H24442  -2.209   9.222  12.676 -0.1717  1.5875  0.1016
  943MOL0     H24443  -2.122   9.322  12.780 -2.4906  0.2523 -1.8407
  943MOL0     H24444  -2.145   9.150  12.975  2.1438 -2.8493 -0.9419
  943MOL0     H24445  -2.238   9.047  12.878  0.2287 -0.0940  3.5200
  943MOL0     H24446  -2.404   9.207  12.843 -0.4462 -2.8087 -0.2592
  943MOL0     H24447  -2.315   9.338  12.936  0.7102  0.0532 -2.4089
  943MOL0     H24448  -2.443   9.105  13.048  0.4099 -0.1946 -0.0286
  943MOL0     H24449  -2.294   9.186  13.125 -0.1288  2.6112  0.8801
  943MOL0     H24450  -2.439   9.406  13.103 -2.4947  2.4454  4.0808
  943MOL0     H24451  -2.465   9.294  13.231 -0.7856  0.3900  1.5767
  943MOL0     H24452  -2.654   9.243  13.179  3.8186  1.3087  3.2104
  943MOL0     H24453  -2.624   9.216  13.006 -1.8325  1.0917 -0.2720
  943MOL0     H24454  -2.800   9.391  13.098  0.7432 -0.7851  2.0489
  943MOL0     H24455  -2.660   9.495  13.121 -1.7724 -2.1111  3.7506
  943MOL0     H24456  -2.796   9.532  12.909 -1.2188 -0.1883  5.0284
  943MOL0     H24457  -2.721   9.381  12.843  5.4525 -1.2921 -0.1248
  943MOL0     H24458  -1.891   8.941  12.668  0.5709 -0.7569 -1.1597
  943MOL0     H24459  -1.791   8.912  12.456  2.7128  2.5708  0.7809
  943MOL0     H24460  -1.923   9.262  11.878 -0.0030 -0.2167 -2.9759
  943MOL0     H24461  -1.777   9.323  11.706 -2.5526  0.3194  0.9245
  943MOL0     H24462  -0.381   9.857  10.715  0.3806  0.9700  0.8986
  943MOL0     H24463  -0.138   9.862  10.697  1.9582 -2.1823 -0.4340
  943MOL0     H24464   0.162   9.589  10.366 -0.5654 -1.3546 -0.1634
  943MOL0     H24465   0.408   9.577  10.269 -2.1984  2.3076 -2.1228
  943MOL0     H24466   0.540   9.712  10.152 -0.0274  1.4551 -0.1483
  943MOL0     H24467   0.660   9.590  10.200  0.0757  0.4505 -2.3174
  943MOL0     H24468   0.720   9.894  10.189  3.1231  0.0327 -1.6283
  943MOL0     H24469   0.829   9.754  10.218 -1.6185 -6.0074 -0.6402
  943MOL0     H24470   0.850   9.838   9.984  0.0022 -2.0283 -0.2543
  943MOL0     H24471   0.684   9.831   9.957 -0.1203  1.6016  0.0715
  943MOL0     H24472   0.850   9.585  10.012 -0.3339  1.3714  0.7790
  943MOL0     H24473   0.682   9.584   9.947 -1.2904  0.8207  1.1280
  943MOL0     H24474   0.894   9.627   9.587 -1.6512  0.2113 -0.5573
  943MOL0     H24475   0.538   9.893  10.501  0.2983  0.6069 -2.2863
  943MOL0     H24476   0.308   9.921  10.611  1.1932 -1.4292  2.4659
  944MOL0     O24477   3.194   2.491  10.149 -0.2510  0.1948  0.0445
  944MOL0     C24478   3.296   2.558  10.146 -0.3888  0.1304 -0.9148
  944MOL0     O24479   3.401   2.557  10.236  0.5043  0.4197  0.3476
  944MOL0     C24480   3.405   2.443  10.311 -0.3480  0.0044 -0.1249
  944MOL0     C24481   3.471   2.332  10.258 -1.2205 -0.8712  0.4104
  944MOL0     C24482   3.480   2.217  10.340 -0.1029  0.2029  0.7083
  944MOL0     C24483   3.429   2.215  10.471  1.2640  0.1732  0.1176
  944MOL0     O24484   3.446   2.095  10.544 -1.3407 -0.0035  0.5001
  944MOL0     C24485   3.372   2.082  10.670 -0.1112  0.2815  0.1257
  944MOL0     C24486   3.332   1.936  10.680 -0.2917 -0.5359 -0.3033
  944MOL0     C24487   3.237   1.886  10.570  0.8236  0.2149 -0.3444
  944MOL0     C24488   3.098   1.922  10.622  0.4966 -0.1930 -0.7890
  944MOL0     C24489   2.990   1.897  10.522 -0.3992  0.2066 -0.0231
  944MOL0     C24490   2.956   1.749  10.517  0.2056  1.0865 -0.9040
  944MOL0     C24491   2.839   1.727  10.425 -0.1997 -0.5515  0.0061
  944MOL0     C24492   2.842   1.574  10.380 -0.1465  0.1726  0.0549
  944MOL0     N24493   2.771   1.535  10.257  0.1812 -0.3075  0.1770
  944MOL0     C24494   2.638   1.525  10.251  0.1991  0.3777  0.3393
  944MOL0     C24495   2.601   1.490  10.128  0.1071 -0.2258  0.4487
  944MOL0     C24496   2.466   1.445  10.078  0.1152  0.1046 -0.1704
  944MOL0     C24497   2.456   1.298  10.059  0.5937  0.2147  0.7173
  944MOL0     C24498   2.310   1.248  10.044 -0.4623  0.7716 -0.9479
  944MOL0     C24499   2.303   1.094   9.999  0.0387 -0.0229  0.1905
  944MOL0     O24500   2.173   1.042  10.025 -0.2921 -0.1294  0.2978
  944MOL0     C24501   2.146   0.911  10.040 -0.5768  1.2099  0.0639
  944MOL0     C24502   2.016   0.890  10.089 -0.0770 -0.3096  0.5621
  944MOL0     C24503   1.967   0.759  10.117  0.1493 -0.5037  0.2802
  944MOL0     C24504   2.051   0.643  10.113 -0.3576  0.1659 -0.2391
  944MOL0     C24505   1.995   0.508  10.133 -0.3378  0.3012 -0.5331
  944MOL0     O24506   2.085   0.403  10.114 -0.5427  0.2260  1.0758
  944MOL0     C24507   2.043   0.284  10.069  0.6276  0.6895 -0.0745
  944MOL0     C24508   1.974   0.262   9.952 -0.2789  0.5798  0.6785
  944MOL0     C24509   1.938   0.134   9.905  0.4287 -0.4555  0.1321
  944MOL0     C24510   1.990   0.031   9.984 -0.1923  0.1778  0.2595
  944MOL0     O24511   1.953  -0.092   9.952 -0.9464  0.0170  0.4009
  944MOL0     C24512   1.868  -0.168  10.043 -1.1690  0.3957 -0.8849
  944MOL0     C24513   1.734  -0.212   9.984 -0.5860  0.1564 -0.7109
  944MOL0     C24514   1.630  -0.099   9.986  0.1305 -0.1449 -0.3297
  944MOL0     C24515   1.597  -0.051  10.114  0.3861 -0.1117  1.0110
  944MOL0     C24516   1.514  -0.142  10.200 -0.7339  1.2160 -0.2908
  944MOL0     C24517   1.445  -0.076  10.320  1.0262  0.5008  0.3009
  944MOL0     C24518   1.297  -0.044  10.298 -0.4651 -0.5292 -0.2116
  944MOL0     C24519   1.214  -0.027  10.427 -0.4245 -0.0306 -0.1298
  944MOL0    Cl24520   1.284   0.115  10.516 -0.0432 -0.0477  0.3547
  944MOL0     C24521   2.072   0.048  10.093  0.0480 -0.4639  0.2525
  944MOL0     C24522   2.085   0.178  10.138 -1.1305  0.4523 -1.1865
  944MOL0     O24523   1.880   0.490  10.160  0.4417 -0.4024  0.4173
  944MOL0     C24524   2.184   0.668  10.063  0.0660  0.1559 -0.6018
  944MOL0     C24525   2.228   0.797  10.030 -0.5256 -0.5191  0.1205
  944MOL0     N24526   2.717   1.470  10.060 -0.8661 -1.0778 -0.1174
  944MOL0     N24527   2.822   1.497  10.141  0.7133 -0.9636 -0.2186
  944MOL0     C24528   3.362   2.333  10.518 -0.5442  0.0506 -0.0744
  944MOL0     C24529   3.362   2.449  10.438 -0.6985 -0.3901 -0.5299
  944MOL0     C24530   3.311   2.637  10.017 -0.9885 -0.4253  0.5173
  944MOL0     C24531   3.216   2.626   9.911  0.3082  0.4907 -0.5545
  944MOL0     C24532   3.218   2.709   9.797 -0.2856 -0.6904  0.0446
  944MOL0     C24533   3.319   2.809   9.792  0.1649 -0.2219  0.6253
  944MOL0     O24534   3.325   2.883   9.679  0.2588  0.4508 -0.5729
  944MOL0     C24535   3.408   2.994   9.656 -1.3174  1.3140 -0.6717
  944MOL0     C24536   3.398   3.068   9.523  0.7635 -0.2833  1.0401
  944MOL0     C24537   3.300   3.189   9.522 -0.0568 -0.7112 -0.3518
  944MOL0     C24538   3.154   3.143   9.562 -0.1148  1.6328  0.3564
  944MOL0     C24539   3.064   3.251   9.575  0.6152 -0.9884  0.4286
  944MOL0     C24540   2.972   3.328   9.593 -0.3212 -0.0659 -0.7277
  944MOL0     C24541   3.410   2.827   9.898 -0.2617  1.0413  0.2795
  944MOL0     C24542   3.408   2.736  10.010  0.8756 -0.9412 -0.0839
  944MOL0     H24543   3.528   2.343  10.167  2.0870  0.0685  2.4000
  944MOL0     H24544   3.537   2.134  10.300 -0.3243  0.7177 -0.7338
  944MOL0     H24545   3.290   2.154  10.675 -1.6513 -1.4985  1.8623
  944MOL0     H24546   3.438   2.096  10.757 -1.3086  0.4048  1.0353
  944MOL0     H24547   3.305   1.923  10.785 -0.8687 -2.3501 -0.6333
  944MOL0     H24548   3.427   1.881  10.679  1.7183  2.6981 -1.7293
  944MOL0     H24549   3.257   1.782  10.542  0.1739  0.9678 -4.1785
  944MOL0     H24550   3.264   1.945  10.482 -2.5200  1.4456 -0.6798
  944MOL0     H24551   3.087   1.880  10.722  4.6423 -1.6241 -0.7301
  944MOL0     H24552   3.092   2.029  10.645 -0.4690 -0.5302  0.6414
  944MOL0     H24553   3.024   1.921  10.420  1.1131 -1.8498 -0.0753
  944MOL0     H24554   2.900   1.956  10.544  0.1329  1.2811 -0.6398
  944MOL0     H24555   2.934   1.702  10.613 -0.0047 -1.7034 -2.1914
  944MOL0     H24556   3.043   1.694  10.480 -1.8616 -3.0006 -0.3531
  944MOL0     H24557   2.747   1.757  10.475 -0.6959  0.0613 -1.2244
  944MOL0     H24558   2.853   1.775  10.327 -3.9495 -0.3139 -0.5555
  944MOL0     H24559   2.805   1.525  10.470  2.2683  0.9379  1.5432
  944MOL0     H24560   2.944   1.541  10.359 -0.5790 -0.6094 -0.9460
  944MOL0     H24561   2.564   1.545  10.328 -1.9996  0.1826 -1.6313
  944MOL0     H24562   2.448   1.511   9.993 -0.1958  1.6781  1.0605
  944MOL0     H24563   2.396   1.471  10.159  1.1584  1.0631  0.4489
  944MOL0     H24564   2.510   1.241  10.135 -1.3615 -2.4916  0.2110
  944MOL0     H24565   2.497   1.273   9.962 -1.6023 -1.8939  0.2413
  944MOL0     H24566   2.253   1.263  10.136 -1.6107 -2.7443 -0.9340
  944MOL0     H24567   2.258   1.300   9.963  1.3181  1.9537 -1.3930
  944MOL0     H24568   2.380   1.050  10.063 -0.3013 -3.3467 -1.4938
  944MOL0     H24569   2.318   1.069   9.894 -3.8681 -0.8831 -0.2807
  944MOL0     H24570   1.947   0.974  10.097  3.1246  2.2649  4.4021
  944MOL0     H24571   1.868   0.766  10.160  0.2302  0.8540  0.2792
  944MOL0     H24572   1.946   0.342   9.884 -3.0451 -2.6366 -2.4455
  944MOL0     H24573   1.875   0.119   9.818  1.0981  3.1942 -1.1441
  944MOL0     H24574   1.852  -0.122  10.141 -1.3520 -0.6620 -0.4112
  944MOL0     H24575   1.912  -0.266  10.059  0.0056  1.2817  2.0652
  944MOL0     H24576   1.695  -0.293  10.047 -3.4161  3.4988  2.2783
  944MOL0     H24577   1.743  -0.258   9.885  0.3666  1.5945 -1.3210
  944MOL0     H24578   1.534  -0.141   9.954  0.4617 -2.2445  1.2277
  944MOL0     H24579   1.668  -0.017   9.923  0.9724  1.2305  1.8423
  944MOL0     H24580   1.690  -0.013  10.160 -0.1526  0.7883  1.3890
  944MOL0     H24581   1.531   0.034  10.095  0.6095 -0.4047 -1.2599
  944MOL0     H24582   1.581  -0.216  10.244 -1.6197  0.8995  0.5502
  944MOL0     H24583   1.440  -0.200  10.143  1.0049 -1.7973  0.3139
  944MOL0     H24584   1.496   0.021  10.321  0.8387  0.5964  0.6036
  944MOL0     H24585   1.477  -0.129  10.410 -0.1132  1.8591  1.5511
  944MOL0     H24586   1.306   0.054  10.250 -1.2496  0.2090  1.0802
  944MOL0     H24587   1.252  -0.127  10.243 -0.9733 -1.1305  1.0786
  944MOL0     H24588   1.219  -0.110  10.498  0.1234 -0.6297 -0.8688
  944MOL0     H24589   1.112  -0.003  10.394 -0.9240  3.8594  3.3329
  944MOL0     H24590   2.097  -0.036  10.156 -1.5477 -2.0827 -1.1507
  944MOL0     H24591   2.141   0.191  10.230 -2.5280  2.0434 -0.5144
  944MOL0     H24592   2.259   0.591  10.047  0.3390  0.3874 -0.4405
  944MOL0     H24593   2.323   0.823   9.985 -0.9902 -0.8123 -1.0815
  944MOL0     H24594   3.312   2.355  10.612  0.3995 -1.0371  0.7096
  944MOL0     H24595   3.323   2.541  10.481 -2.2430 -1.6416  0.8536
  944MOL0     H24596   3.134   2.556   9.925 -0.8604  2.1277  1.3909
  944MOL0     H24597   3.148   2.719   9.714  2.4547  1.1592 -2.2352
  944MOL0     H24598   3.511   2.959   9.656 -2.0825 -1.1326 -0.0304
  944MOL0     H24599   3.385   3.072   9.730 -3.7713 -0.8553  1.0201
  944MOL0     H24600   3.486   3.121   9.487 -0.7283 -0.7823 -4.1663
  944MOL0     H24601   3.371   2.994   9.447  1.5490 -3.8791  3.9670
  944MOL0     H24602   3.307   3.227   9.420  1.5318  0.5117  0.1811
  944MOL0     H24603   3.326   3.276   9.582 -1.7225  0.3300 -1.0627
  944MOL0     H24604   3.121   3.074   9.484 -0.5456 -0.3302  2.2106
  944MOL0     H24605   3.153   3.089   9.656  1.8792 -1.1635 -1.0986
  944MOL0     H24606   2.895   3.398   9.617 -1.4726 -1.9028  1.3666
  944MOL0     H24607   3.488   2.901   9.909  0.2034  0.2265  3.2951
  944MOL0     H24608   3.476   2.745  10.094  0.7441  3.3755 -0.2100
  945MOL0     O24609   9.556   1.166   1.362  0.2454 -0.6378  0.1383
  945MOL0     C24610   9.603   1.092   1.276 -0.0123 -0.5846  0.0409
  945MOL0     O24611   9.720   1.112   1.200 -0.0803  0.2008  0.3688
  945MOL0     C24612   9.771   1.235   1.179  0.6353  0.1483 -0.6524
  945MOL0     C24613   9.907   1.238   1.168  0.3242 -1.1605  1.1140
  945MOL0     C24614   9.964   1.366   1.147 -0.1450 -0.3862 -0.2327
  945MOL0     C24615   9.892   1.485   1.126 -0.4335  0.3217 -0.6052
  945MOL0     O24616   9.951   1.605   1.081 -1.3980  0.0466 -0.2354
  945MOL0     C24617  10.092   1.641   1.083  0.0686 -0.2336  0.1800
  945MOL0     C24618  10.119   1.789   1.072 -0.7405  0.3963 -0.0030
  945MOL0     C24619  10.075   1.867   1.204 -0.5187 -0.2679  0.3854
  945MOL0     C24620  10.160   1.996   1.239  0.5981 -0.7086  0.3517
  945MOL0     C24621  10.148   2.093   1.124  0.3552  0.6334 -0.1739
  945MOL0     C24622  10.182   2.235   1.167  0.0078 -0.1273 -0.5752
  945MOL0     C24623  10.203   2.337   1.049  1.0767 -0.5363 -0.3822
  945MOL0     C24624  10.201   2.475   1.090  0.0076 -1.0712 -0.4524
  945MOL0     N24625  10.199   2.584   0.991 -0.3831  0.9773  0.6225
  945MOL0     C24626  10.315   2.648   0.945  0.4336 -0.1106 -0.2702
  945MOL0     C24627  10.261   2.747   0.867 -1.2327  0.5855  0.1784
  945MOL0     C24628  10.333   2.833   0.781 -0.2481 -0.0421 -0.0414
  945MOL0     C24629  10.267   2.854   0.643 -0.6357 -0.1684  0.3400
  945MOL0     C24630  10.245   2.724   0.561  0.1133  0.3844  0.2614
  945MOL0     C24631  10.360   2.624   0.546  0.0475  0.0189 -0.0414
  945MOL0     O24632  10.323   2.517   0.449  0.2684 -0.2054 -0.3212
  945MOL0     C24633  10.423   2.424   0.426  0.6050  0.2616 -0.0806
  945MOL0     C24634  10.521   2.458   0.338  1.5257 -0.2315  0.4427
  945MOL0     C24635  10.627   2.367   0.315 -0.0305  0.2718  0.4916
  945MOL0     C24636  10.639   2.242   0.376  0.2455  0.5683 -0.8349
  945MOL0     C24637  10.762   2.149   0.370  1.0403 -0.1513 -0.6965
  945MOL0     O24638  10.771   2.062   0.475 -0.3231 -0.9774  0.6289
  945MOL0     C24639  10.878   1.989   0.500 -0.8109 -0.0310  0.5630
  945MOL0     C24640  11.004   2.044   0.502 -0.1616 -0.1744 -0.8404
  945MOL0     C24641  11.113   1.955   0.523  0.1744  0.3713  1.7198
  945MOL0     C24642  11.093   1.824   0.553  0.8160 -0.0826 -1.8219
  945MOL0     O24643  11.205   1.743   0.571 -0.2300 -0.0895 -0.3021
  945MOL0     C24644  11.249   1.744   0.706  0.5563 -0.0086  0.3244
  945MOL0     C24645  11.396   1.732   0.702 -0.4832  0.1354  0.4743
  945MOL0     C24646  11.456   1.871   0.706 -0.0463  0.7155 -0.4889
  945MOL0     C24647  11.607   1.864   0.712 -1.3323  0.0114 -0.7386
  945MOL0     C24648  11.683   1.835   0.582  0.4002 -0.0652  0.4529
  945MOL0     C24649  11.676   1.957   0.488 -0.1899  1.1936  0.2850
  945MOL0     C24650  11.790   1.940   0.379  1.3939 -0.1135  1.1646
  945MOL0     C24651  11.775   2.045   0.270 -0.7563 -0.2946  0.3831
  945MOL0    Cl24652  11.913   2.013   0.155 -0.1154 -0.1537 -0.2874
  945MOL0     C24653  10.969   1.775   0.561 -0.0521 -0.3187 -0.8221
  945MOL0     C24654  10.858   1.866   0.539 -0.8307  0.1495  0.3094
  945MOL0     O24655  10.845   2.170   0.283  0.1811  0.9330  0.7593
  945MOL0     C24656  10.526   2.212   0.460 -1.2832  0.4756 -1.8681
  945MOL0     C24657  10.425   2.302   0.482 -1.3430 -0.2363  0.7095
  945MOL0     N24658  10.126   2.733   0.869  0.1604 -0.4297 -0.4359
  945MOL0     N24659  10.088   2.635   0.937  0.2669  0.0807  0.1912
  945MOL0     C24660   9.761   1.479   1.152  0.8259  0.6077  0.0704
  945MOL0     C24661   9.696   1.358   1.174  0.0776 -0.0872 -0.2976
  945MOL0     C24662   9.525   0.970   1.258  0.2307  0.0260 -0.8059
  945MOL0     C24663   9.400   0.950   1.320 -0.8484  0.6597 -0.0309
  945MOL0     C24664   9.344   0.828   1.290 -0.6576  0.6544  0.3156
  945MOL0     C24665   9.403   0.728   1.228  0.7091  0.5332  0.4798
  945MOL0     O24666   9.323   0.618   1.207  0.6661  0.4669 -0.5068
  945MOL0     C24667   9.351   0.520   1.103 -0.0049 -0.1985 -1.5228
  945MOL0     C24668   9.218   0.441   1.075 -0.2615  1.1073 -0.0598
  945MOL0     C24669   9.123   0.494   0.972 -0.1771  1.4449  0.6684
  945MOL0     C24670   9.055   0.622   1.022  0.2442  0.6101 -0.4980
  945MOL0     C24671   8.948   0.600   1.117 -0.2408 -0.5960 -0.1104
  945MOL0     C24672   8.874   0.593   1.210  0.4490 -0.1447  0.0643
  945MOL0     C24673   9.526   0.746   1.173 -0.0818 -0.4440  1.2564
  945MOL0     C24674   9.584   0.869   1.180  0.1572  0.6884  0.0818
  945MOL0     H24675   9.975   1.153   1.169  1.7768 -0.1422 -1.0981
  945MOL0     H24676  10.070   1.383   1.130 -0.0161  0.8970  1.5102
  945MOL0     H24677  10.131   1.581   1.000 -0.3589 -1.1083  0.5995
  945MOL0     H24678  10.137   1.609   1.178 -2.1736 -2.9481  0.4822
  945MOL0     H24679  10.077   1.827   0.979  0.3363  0.0842 -0.6388
  945MOL0     H24680  10.225   1.815   1.059 -0.9026  4.6822  4.2382
  945MOL0     H24681  10.075   1.798   1.288  0.9924 -3.9693 -2.3485
  945MOL0     H24682   9.969   1.891   1.192  0.1889  1.8371 -3.0163
  945MOL0     H24683  10.127   2.040   1.333 -1.5653 -3.4052  0.9781
  945MOL0     H24684  10.267   1.974   1.241  0.8177 -1.0187 -4.1281
  945MOL0     H24685  10.045   2.093   1.088  0.2735  0.4955  0.0625
  945MOL0     H24686  10.219   2.063   1.046  0.9303  1.1349  0.1413
  945MOL0     H24687  10.280   2.236   1.217 -0.1155 -1.5264 -0.2518
  945MOL0     H24688  10.098   2.261   1.231  0.9377 -3.6593  2.4239
  945MOL0     H24689  10.289   2.321   0.983  0.9622  2.6521 -1.4719
  945MOL0     H24690  10.122   2.331   0.976 -0.6446 -0.9832  1.4650
  945MOL0     H24691  10.289   2.495   1.153 -2.4844  0.0985  2.9793
  945MOL0     H24692  10.103   2.481   1.138  0.7953  1.7691  1.0210
  945MOL0     H24693  10.419   2.623   0.960  0.6802  0.9600 -0.1266
  945MOL0     H24694  10.429   2.784   0.758  0.4862  0.7853  1.1870
  945MOL0     H24695  10.355   2.930   0.827 -1.4258  1.5089 -2.5452
  945MOL0     H24696  10.323   2.914   0.570  1.2550 -0.1742  1.7241
  945MOL0     H24697  10.168   2.899   0.653 -0.2901  0.9780 -1.0084
  945MOL0     H24698  10.158   2.680   0.611  3.2277 -5.0152  1.7965
  945MOL0     H24699  10.223   2.760   0.459  2.1390  1.8373  0.2892
  945MOL0     H24700  10.366   2.580   0.646 -1.6844 -1.4586 -0.5561
  945MOL0     H24701  10.456   2.666   0.512  0.4879 -1.9166 -1.3083
  945MOL0     H24702  10.520   2.548   0.276 -0.7595 -0.5127 -0.0459
  945MOL0     H24703  10.700   2.376   0.235 -1.2868 -2.7072 -1.1328
  945MOL0     H24704  11.009   2.146   0.466  0.6030 -0.4689 -1.5941
  945MOL0     H24705  11.213   1.995   0.507  1.4591 -3.3880 -1.1304
  945MOL0     H24706  11.188   1.666   0.752  0.3201 -1.0361 -1.6208
  945MOL0     H24707  11.232   1.844   0.748 -2.5312  0.7636 -2.3355
  945MOL0     H24708  11.422   1.682   0.609 -2.6559  2.4867 -1.5546
  945MOL0     H24709  11.420   1.666   0.786  0.3411 -0.1930 -0.0131
  945MOL0     H24710  11.410   1.926   0.788 -2.6135 -0.2955 -1.1594
  945MOL0     H24711  11.433   1.920   0.610 -1.2120  1.4584  0.1405
  945MOL0     H24712  11.632   1.960   0.757 -2.6248 -0.2800  0.6758
  945MOL0     H24713  11.635   1.785   0.782 -2.1098  0.4613  0.1097
  945MOL0     H24714  11.641   1.752   0.525  0.7497 -0.6957  1.1040
  945MOL0     H24715  11.786   1.813   0.610  0.0451  1.1291  3.0293
  945MOL0     H24716  11.710   2.039   0.552 -1.6897  0.4338  2.1686
  945MOL0     H24717  11.581   1.975   0.438 -0.7694 -0.1757  0.8231
  945MOL0     H24718  11.884   1.949   0.435  0.2358  0.1890  3.1762
  945MOL0     H24719  11.785   1.846   0.325  0.0542  0.3746  0.4076
  945MOL0     H24720  11.788   2.146   0.309 -0.6607  0.2922 -1.1365
  945MOL0     H24721  11.676   2.059   0.226 -0.7200 -1.4551 -0.1117
  945MOL0     H24722  10.946   1.671   0.579  2.5184 -0.9675 -0.8865
  945MOL0     H24723  10.765   1.813   0.525  0.8116 -2.4294 -1.8390
  945MOL0     H24724  10.531   2.123   0.522  2.0768  1.5632 -0.3577
  945MOL0     H24725  10.334   2.288   0.540 -2.3648  1.6788 -0.3432
  945MOL0     H24726   9.705   1.569   1.129 -2.4083 -1.9277 -3.0096
  945MOL0     H24727   9.589   1.346   1.194 -0.1436  1.6428 -0.3048
  945MOL0     H24728   9.348   1.017   1.389  2.3314 -0.9233  4.3798
  945MOL0     H24729   9.248   0.801   1.333 -0.2344  0.2127  1.0010
  945MOL0     H24730   9.416   0.452   1.159  0.1263  0.6637 -0.5975
  945MOL0     H24731   9.415   0.548   1.019  0.5733 -1.0754 -1.3891
  945MOL0     H24732   9.241   0.339   1.045 -4.2490  0.4015 -1.1517
  945MOL0     H24733   9.173   0.437   1.175  2.4357  0.9314  1.2430
  945MOL0     H24734   9.059   0.412   0.940  1.8714  0.9345 -2.5835
  945MOL0     H24735   9.187   0.516   0.886 -2.7429  1.0973 -1.4545
  945MOL0     H24736   9.128   0.685   1.073 -0.4707  0.5356  0.6512
  945MOL0     H24737   9.011   0.682   0.942 -2.4716 -2.5642 -1.6234
  945MOL0     H24738   8.805   0.589   1.291 -1.9600  1.2515 -1.7916
  945MOL0     H24739   9.576   0.663   1.125  1.4164  1.3794 -0.5358
  945MOL0     H24740   9.682   0.891   1.138  0.1090  0.5499 -0.1090
  946MOL0     O24741   0.757   7.736   3.864 -0.3248 -0.5570  0.2761
  946MOL0     C24742   0.729   7.636   3.802  0.1825  0.6097  0.3477
  946MOL0     O24743   0.603   7.571   3.808 -0.7232 -0.0421  0.2203
  946MOL0     C24744   0.489   7.629   3.834 -0.1114 -0.3370 -1.5754
  946MOL0     C24745   0.479   7.766   3.877 -0.7394 -0.1916  0.5394
  946MOL0     C24746   0.359   7.823   3.897  1.1552 -0.2238  0.6588
  946MOL0     C24747   0.235   7.759   3.868  0.5887 -0.1128 -0.1997
  946MOL0     O24748   0.116   7.827   3.888  0.6751 -0.2878 -0.0835
  946MOL0     C24749   0.092   7.867   4.027  0.4973  0.2065 -0.8850
  946MOL0     C24750  -0.002   7.772   4.107 -0.8536  0.3018  0.6463
  946MOL0     C24751  -0.128   7.761   4.017 -0.6655  0.0679 -0.1249
  946MOL0     C24752  -0.252   7.682   4.080  0.3325  0.1301 -0.2371
  946MOL0     C24753  -0.382   7.687   4.004  0.6185 -0.4325  0.1466
  946MOL0     C24754  -0.509   7.611   4.057  0.2214  0.4239 -0.4860
  946MOL0     C24755  -0.641   7.627   3.970  0.4717 -0.2495  0.3021
  946MOL0     C24756  -0.680   7.773   3.963 -0.0451  0.5655  0.3730
  946MOL0     N24757  -0.743   7.812   4.088  0.0740 -0.2703  0.6316
  946MOL0     C24758  -0.676   7.859   4.197  0.1143 -0.7253  0.5463
  946MOL0     C24759  -0.769   7.881   4.293  0.4655 -0.0567 -0.3668
  946MOL0     C24760  -0.767   7.941   4.432 -0.5271 -0.4796 -0.6435
  946MOL0     C24761  -0.749   7.824   4.537 -0.4975 -0.6300  0.6557
  946MOL0     C24762  -0.716   7.894   4.674 -0.2140 -0.0147  0.5220
  946MOL0     C24763  -0.574   7.858   4.714  0.0980 -0.3134  0.5298
  946MOL0     O24764  -0.486   7.906   4.611  0.0726  0.4984  0.2328
  946MOL0     C24765  -0.353   7.885   4.624  0.0723  0.5226  0.2335
  946MOL0     C24766  -0.275   7.918   4.521  0.1011 -0.6714  0.4843
  946MOL0     C24767  -0.137   7.916   4.524  0.2242 -0.0249  0.8545
  946MOL0     C24768  -0.067   7.877   4.641 -0.2671 -1.2099 -1.0901
  946MOL0     C24769   0.087   7.889   4.651  0.5245 -0.2640  0.7468
  946MOL0     O24770   0.148   7.859   4.770 -0.3428  0.0557  0.8512
  946MOL0     C24771   0.293   7.856   4.780 -0.5254 -0.2184 -0.5922
  946MOL0     C24772   0.351   7.907   4.903 -0.3163 -0.3450  0.4591
  946MOL0     C24773   0.490   7.910   4.901 -2.4784  0.4718  0.0053
  946MOL0     C24774   0.571   7.871   4.790 -0.3858  0.1506  0.6317
  946MOL0     O24775   0.701   7.878   4.805 -0.5461 -0.1190 -0.9043
  946MOL0     C24776   0.781   7.922   4.704 -0.2378 -0.3546  0.1773
  946MOL0     C24777   0.933   7.934   4.742 -0.7572  0.6888  1.0020
  946MOL0     C24778   1.015   8.023   4.645  0.8156  0.1737  0.3835
  946MOL0     C24779   1.146   8.064   4.712  1.0056  0.8763 -0.0858
  946MOL0     C24780   1.211   8.163   4.622  0.1247 -0.9710 -1.0886
  946MOL0     C24781   1.363   8.174   4.642  0.3145 -0.6313 -0.4456
  946MOL0     C24782   1.402   8.325   4.613  0.1066  0.1304 -0.1318
  946MOL0     C24783   1.365   8.380   4.489  0.4219  0.6884 -0.4441
  946MOL0    Cl24784   1.429   8.548   4.453 -0.2253 -0.0810 -0.3167
  946MOL0     C24785   0.515   7.804   4.686 -0.0762  0.0519  0.0927
  946MOL0     C24786   0.375   7.800   4.680  0.4024 -0.3737  0.2984
  946MOL0     O24787   0.140   7.915   4.545 -0.4259  0.0973 -0.1460
  946MOL0     C24788  -0.154   7.825   4.744  0.2304 -1.6044  0.4809
  946MOL0     C24789  -0.289   7.831   4.740  0.1971 -0.1667 -0.5086
  946MOL0     N24790  -0.893   7.840   4.243  0.0422  0.0362  0.0304
  946MOL0     N24791  -0.874   7.809   4.121  0.0335 -0.1937  0.4614
  946MOL0     C24792   0.238   7.627   3.847 -0.0232  0.8341  0.1611
  946MOL0     C24793   0.362   7.562   3.822  0.3504 -0.0340  0.4999
  946MOL0     C24794   0.833   7.579   3.711  0.4593  0.8430  1.3860
  946MOL0     C24795   0.959   7.642   3.694 -0.3144  0.3869  0.6746
  946MOL0     C24796   1.062   7.588   3.614  0.3970 -0.4707 -0.6954
  946MOL0     C24797   1.044   7.463   3.549 -0.2486  1.3431  1.2639
  946MOL0     O24798   1.147   7.410   3.471  0.0446 -0.0879  0.3664
  946MOL0     C24799   1.108   7.322   3.368  1.9976 -0.0570  0.2462
  946MOL0     C24800   1.234   7.305   3.272 -0.8006 -0.5060 -0.8022
  946MOL0     C24801   1.358   7.252   3.346  0.4801 -0.2508  0.5923
  946MOL0     C24802   1.440   7.360   3.425 -0.5148  0.9081 -0.5883
  946MOL0     C24803   1.580   7.320   3.450  0.7272 -0.0903  0.3132
  946MOL0     C24804   1.694   7.300   3.473  0.1021  0.3927 -0.0048
  946MOL0     C24805   0.933   7.384   3.579  0.6452 -0.9193  0.2697
  946MOL0     C24806   0.815   7.453   3.643  1.1251 -0.1120  0.3380
  946MOL0     H24807   0.566   7.830   3.882  0.8205 -2.1958  0.0697
  946MOL0     H24808   0.367   7.930   3.905 -2.2586  0.1574  0.3252
  946MOL0     H24809   0.041   7.964   4.027  2.1563  1.1265  0.0000
  946MOL0     H24810   0.185   7.876   4.082  0.8324 -0.4492 -1.3282
  946MOL0     H24811  -0.019   7.809   4.209  1.1936 -0.2640  1.2431
  946MOL0     H24812   0.033   7.669   4.120 -0.5597 -0.1635 -2.9492
  946MOL0     H24813  -0.091   7.712   3.926  2.2526  0.7102  0.6041
  946MOL0     H24814  -0.171   7.855   3.981 -0.5327  0.6216  1.1041
  946MOL0     H24815  -0.214   7.579   4.084 -1.1112 -0.4611  4.6988
  946MOL0     H24816  -0.265   7.700   4.187  1.4916 -2.7659  0.4895
  946MOL0     H24817  -0.352   7.646   3.907  1.3389 -1.2961  0.7206
  946MOL0     H24818  -0.400   7.793   3.982  0.2729 -1.0469 -3.0901
  946MOL0     H24819  -0.532   7.634   4.161 -0.3960  0.7244 -0.6821
  946MOL0     H24820  -0.480   7.506   4.059  1.4713  0.7519 -0.6848
  946MOL0     H24821  -0.623   7.596   3.866  2.5493 -2.5327  1.2405
  946MOL0     H24822  -0.725   7.568   4.008 -0.0573 -0.1448 -0.6758
  946MOL0     H24823  -0.752   7.786   3.882 -0.2225  3.5349  0.9088
  946MOL0     H24824  -0.596   7.841   3.945  1.8782 -1.8130 -0.2252
  946MOL0     H24825  -0.573   7.888   4.214 -0.2265  0.0440  1.4063
  946MOL0     H24826  -0.857   7.992   4.465  0.2161 -1.1022  2.7560
  946MOL0     H24827  -0.679   8.005   4.444 -0.0234 -1.2207 -0.2725
  946MOL0     H24828  -0.662   7.766   4.505 -2.2330 -2.1191 -1.6831
  946MOL0     H24829  -0.837   7.760   4.547 -0.5653 -0.5613  0.4886
  946MOL0     H24830  -0.735   8.002   4.669  0.8694  0.3558  2.6434
  946MOL0     H24831  -0.786   7.864   4.752 -1.0928  0.1158 -0.2116
  946MOL0     H24832  -0.569   7.752   4.740 -0.3270 -0.4342  0.1434
  946MOL0     H24833  -0.547   7.916   4.803  4.9710 -1.4333  0.0478
  946MOL0     H24834  -0.319   7.955   4.429  4.1013 -2.1662 -2.2985
  946MOL0     H24835  -0.076   7.971   4.453 -0.1547 -0.0572  0.4954
  946MOL0     H24836   0.302   7.938   4.995  0.2180 -2.6942  1.6315
  946MOL0     H24837   0.544   7.934   4.992  0.8483  0.6430 -1.8669
  946MOL0     H24838   0.740   8.018   4.671  1.0796 -0.1937 -1.1550
  946MOL0     H24839   0.766   7.843   4.629 -0.2642  0.0182 -0.2187
  946MOL0     H24840   0.980   7.837   4.721  0.6132  2.0378 -2.9810
  946MOL0     H24841   0.918   7.959   4.847 -3.3165 -4.5220  2.2224
  946MOL0     H24842   0.950   8.112   4.640  0.2469 -0.2880 -3.5277
  946MOL0     H24843   1.017   7.973   4.548  1.8701  0.7875  0.0753
  946MOL0     H24844   1.134   8.112   4.809 -2.2384 -1.3903  0.8136
  946MOL0     H24845   1.206   7.974   4.730  1.6076  1.0921 -0.9301
  946MOL0     H24846   1.178   8.265   4.648  3.7877  0.0861  0.0133
  946MOL0     H24847   1.198   8.152   4.514 -3.3040  0.2922 -0.9483
  946MOL0     H24848   1.426   8.108   4.581  0.2615 -2.3757  1.3035
  946MOL0     H24849   1.381   8.143   4.745 -0.9285  2.6137  0.8809
  946MOL0     H24850   1.364   8.387   4.695  3.1033  2.0637 -0.0135
  946MOL0     H24851   1.510   8.331   4.630  0.2600  0.0799 -1.0239
  946MOL0     H24852   1.257   8.394   4.475  0.7952  4.3765 -0.5365
  946MOL0     H24853   1.411   8.318   4.412 -1.7608 -1.3214 -0.2658
  946MOL0     H24854   0.575   7.763   4.606  0.3158  0.3309  0.2405
  946MOL0     H24855   0.319   7.751   4.601 -0.6069 -0.3193  0.9621
  946MOL0     H24856  -0.093   7.796   4.828  0.4271 -2.3701  0.0849
  946MOL0     H24857  -0.340   7.805   4.832  1.1608 -2.6207 -0.6160
  946MOL0     H24858   0.157   7.555   3.845  3.5074 -3.7025  1.3801
  946MOL0     H24859   0.371   7.461   3.784  0.1706  0.1140  0.0653
  946MOL0     H24860   0.976   7.731   3.753 -0.9867 -1.6421  4.2286
  946MOL0     H24861   1.168   7.608   3.628  0.9837 -3.5757  0.0930
  946MOL0     H24862   1.025   7.360   3.308 -0.0015 -0.5328  2.5422
  946MOL0     H24863   1.073   7.229   3.415  1.7823  0.3241  0.8556
  946MOL0     H24864   1.201   7.230   3.199 -0.2158 -0.7376 -0.8333
  946MOL0     H24865   1.257   7.396   3.216  2.3702 -1.7696 -1.7924
  946MOL0     H24866   1.421   7.196   3.276 -0.1045 -1.3708  0.9205
  946MOL0     H24867   1.321   7.171   3.411 -0.0992  1.1639  2.0923
  946MOL0     H24868   1.450   7.451   3.365  0.7494 -0.3100 -2.3263
  946MOL0     H24869   1.404   7.380   3.526  2.9372 -1.5813  1.3154
  946MOL0     H24870   1.796   7.281   3.501  0.0985  1.1080  0.5302
  946MOL0     H24871   0.916   7.300   3.512  0.1882  0.2079 -1.0768
  946MOL0     H24872   0.725   7.394   3.659  0.1527  1.1845 -0.1673
  947MOL0     O24873   9.315   7.303  10.966 -0.1719 -0.2354 -0.9391
  947MOL0     C24874   9.344   7.205  10.895 -0.7616  0.4945  0.3864
  947MOL0     O24875   9.470   7.167  10.847 -0.3836 -0.0947  0.3602
  947MOL0     C24876   9.588   7.245  10.851  0.1238  0.6236  0.3273
  947MOL0     C24877   9.700   7.189  10.789 -0.0379  0.1733 -0.2101
  947MOL0     C24878   9.828   7.246  10.788  0.0385  0.3011  0.4282
  947MOL0     C24879   9.836   7.379  10.825  0.1439 -0.2521 -0.1021
  947MOL0     O24880   9.942   7.471  10.805 -0.2526  0.3625 -0.1602
  947MOL0     C24881  10.067   7.404  10.764 -0.4100  1.0489  0.0983
  947MOL0     C24882  10.193   7.503  10.761  0.0968  0.8838  0.1420
  947MOL0     C24883  10.198   7.580  10.897 -0.3237  0.3708  1.0086
  947MOL0     C24884  10.301   7.697  10.902 -0.2943  0.6927 -0.2069
  947MOL0     C24885  10.314   7.764  11.043  0.1107  0.2315 -0.3734
  947MOL0     C24886  10.189   7.778  11.133  1.4291  0.3901 -0.0838
  947MOL0     C24887  10.211   7.865  11.248  0.0738  0.6162 -0.1216
  947MOL0     C24888  10.084   7.903  11.332 -0.1141  0.4572  0.6385
  947MOL0     N24889  10.110   7.921  11.475 -0.3156  0.6371 -1.3814
  947MOL0     C24890  10.134   7.809  11.549 -0.8633 -0.0620 -0.1292
  947MOL0     C24891  10.186   7.860  11.665  0.5830  0.3731 -0.4949
  947MOL0     C24892  10.216   7.772  11.783 -0.2058 -0.3329 -0.2645
  947MOL0     C24893  10.124   7.646  11.809  0.5019 -0.6765 -0.5389
  947MOL0     C24894   9.981   7.685  11.845  0.1876 -0.6378  0.2407
  947MOL0     C24895   9.924   7.584  11.949  0.2618  0.2167 -0.0648
  947MOL0     O24896   9.944   7.444  11.898  0.3884 -0.0707 -0.0664
  947MOL0     C24897   9.833   7.361  11.861 -0.6601  0.3028  0.6723
  947MOL0     C24898   9.850   7.281  11.742  0.8962 -0.0454 -0.7915
  947MOL0     C24899   9.758   7.188  11.696  0.7013 -1.0201 -0.2267
  947MOL0     C24900   9.641   7.165  11.771 -0.6907  0.3026 -0.1438
  947MOL0     C24901   9.553   7.045  11.731 -0.0963  1.1234 -1.5528
  947MOL0     O24902   9.617   6.944  11.661  0.1191  0.1133  0.6222
  947MOL0     C24903   9.547   6.839  11.616  0.2185  0.6311  1.3340
  947MOL0     C24904   9.610   6.712  11.627 -0.2835  0.3373 -1.0883
  947MOL0     C24905   9.551   6.584  11.622  1.0928  0.7005  0.3899
  947MOL0     C24906   9.412   6.574  11.591 -0.6905  0.1223  0.4475
  947MOL0     O24907   9.342   6.456  11.600 -0.7632 -0.4453 -0.1331
  947MOL0     C24908   9.407   6.338  11.638 -1.1209 -0.7361  1.1517
  947MOL0     C24909   9.311   6.208  11.626  0.5608 -1.0359  0.2417
  947MOL0     C24910   9.168   6.227  11.690  0.0585 -0.3871 -0.3349
  947MOL0     C24911   9.171   6.255  11.841  0.7893  0.1276 -0.7562
  947MOL0     C24912   9.041   6.215  11.920  1.2620 -0.1301  0.6488
  947MOL0     C24913   9.064   6.207  12.069  0.1271  0.3686 -0.1258
  947MOL0     C24914   9.111   6.333  12.141 -0.4556  0.1064 -0.2322
  947MOL0     C24915   9.140   6.312  12.293  0.4423 -0.2822 -0.3633
  947MOL0    Cl24916   9.291   6.205  12.315 -0.0134  0.2639 -0.4698
  947MOL0     C24917   9.345   6.696  11.563  0.2295 -0.9741  0.9356
  947MOL0     C24918   9.414   6.826  11.571  0.5355  0.1095  0.8122
  947MOL0     O24919   9.445   7.045  11.778 -0.5734  0.3949  0.4095
  947MOL0     C24920   9.624   7.249  11.892  0.1227 -0.0140  1.0195
  947MOL0     C24921   9.715   7.340  11.936 -0.3343 -0.3929  0.3510
  947MOL0     N24922  10.191   7.994  11.660 -0.2555 -1.1381  0.2993
  947MOL0     N24923  10.132   8.033  11.544 -0.3123 -0.1006  0.5749
  947MOL0     C24924   9.734   7.443  10.896  0.5265 -0.3251 -0.1870
  947MOL0     C24925   9.611   7.371  10.911  0.3462  0.5093  0.6865
  947MOL0     C24926   9.231   7.119  10.851  0.2997 -0.6462 -0.6934
  947MOL0     C24927   9.099   7.155  10.881 -0.2288  0.1565  0.9568
  947MOL0     C24928   8.991   7.082  10.826  0.6641  1.0955  0.2799
  947MOL0     C24929   9.011   6.960  10.770 -0.1101 -0.6797  0.0771
  947MOL0     O24930   8.900   6.888  10.749 -0.3475  0.0170  0.1818
  947MOL0     C24931   8.911   6.760  10.686 -0.2639  0.2622 -0.1469
  947MOL0     C24932   8.773   6.696  10.694 -0.8132 -0.4140 -0.4826
  947MOL0     C24933   8.776   6.552  10.643 -0.2827 -0.1035  0.4504
  947MOL0     C24934   8.631   6.508  10.641 -0.3178  0.2335 -1.3553
  947MOL0     C24935   8.623   6.368  10.634  0.7489 -0.1931  0.9889
  947MOL0     C24936   8.631   6.247  10.621  0.3132 -1.1207 -0.9024
  947MOL0     C24937   9.146   6.929  10.739  0.5863  0.6875 -0.6223
  947MOL0     C24938   9.250   7.005  10.768  0.3233 -0.6086  0.3007
  947MOL0     H24939   9.696   7.098  10.729 -0.8359  0.0974 -0.0501
  947MOL0     H24940   9.919   7.198  10.753  0.9266 -0.7327  3.7761
  947MOL0     H24941  10.046   7.354  10.669 -0.0706  2.5788 -0.8100
  947MOL0     H24942  10.099   7.326  10.834  2.9321  1.3821 -0.8592
  947MOL0     H24943  10.175   7.584  10.690 -1.8899  1.5297  1.2978
  947MOL0     H24944  10.280   7.440  10.741 -1.2509 -0.9803 -0.1075
  947MOL0     H24945  10.217   7.505  10.975  1.8784  3.5441  3.8185
  947MOL0     H24946  10.098   7.623  10.911 -0.5464  0.4621 -0.6696
  947MOL0     H24947  10.396   7.661  10.863 -1.2009 -4.3402  1.4180
  947MOL0     H24948  10.251   7.767  10.834 -0.8896  1.6381  1.1558
  947MOL0     H24949  10.345   7.868  11.030 -1.5327  0.8919  0.6209
  947MOL0     H24950  10.377   7.702  11.107 -1.4401 -1.5593 -0.4709
  947MOL0     H24951  10.157   7.682  11.173  2.0920 -0.4417 -1.4873
  947MOL0     H24952  10.112   7.824  11.071  0.8321  2.6590  2.1849
  947MOL0     H24953  10.291   7.823  11.310  1.4960  1.7521 -1.1013
  947MOL0     H24954  10.237   7.960  11.200 -0.0794  0.8813  0.3132
  947MOL0     H24955   9.991   7.851  11.310 -1.6533  3.7423 -1.3916
  947MOL0     H24956  10.067   8.000  11.286  1.2586 -0.8199 -2.8838
  947MOL0     H24957  10.113   7.709  11.516  2.3561 -1.0767  0.4806
  947MOL0     H24958  10.212   7.841  11.867 -1.9206  2.2594 -2.3341
  947MOL0     H24959  10.321   7.742  11.773  0.5285  2.4855 -2.6366
  947MOL0     H24960  10.164   7.601  11.900 -2.4081  0.7459  1.5934
  947MOL0     H24961  10.130   7.569  11.731  0.2851 -0.2607 -0.9764
  947MOL0     H24962   9.959   7.788  11.875 -0.7520  0.2619 -3.0261
  947MOL0     H24963   9.922   7.688  11.753 -1.5529  1.2657  1.3453
  947MOL0     H24964   9.816   7.603  11.949  0.4267  1.6479 -2.8006
  947MOL0     H24965   9.969   7.598  12.047 -0.9298 -2.3116  0.9463
  947MOL0     H24966   9.935   7.284  11.675  0.5348 -0.1379 -1.2600
  947MOL0     H24967   9.785   7.136  11.605 -1.0258  4.0750 -4.1574
  947MOL0     H24968   9.716   6.721  11.647 -0.8106  0.6527  2.0789
  947MOL0     H24969   9.598   6.491  11.652 -4.4558 -2.8269 -0.4326
  947MOL0     H24970   9.438   6.345  11.742  1.6762 -0.0063  0.3376
  947MOL0     H24971   9.481   6.312  11.563 -1.8197  1.0446 -0.2277
  947MOL0     H24972   9.358   6.122  11.674 -1.5084 -2.5926 -0.3899
  947MOL0     H24973   9.308   6.192  11.518  1.6085 -2.7072  0.4253
  947MOL0     H24974   9.114   6.135  11.663 -1.6037  1.0675 -2.2519
  947MOL0     H24975   9.106   6.298  11.634  0.7025  0.8986  0.5491
  947MOL0     H24976   9.257   6.202  11.884  1.1148  1.5731  0.4543
  947MOL0     H24977   9.190   6.357  11.877  0.1331  1.4089 -3.7223
  947MOL0     H24978   8.997   6.126  11.873  3.0123  0.3594 -2.2226
  947MOL0     H24979   8.963   6.285  11.889 -0.7227 -2.1551  0.8004
  947MOL0     H24980   9.137   6.134  12.104  1.0986  2.7575  3.4797
  947MOL0     H24981   8.964   6.184  12.109  1.8915 -0.1871  4.5688
  947MOL0     H24982   9.205   6.367  12.097 -0.2392 -0.3950 -0.1638
  947MOL0     H24983   9.063   6.430  12.129  2.8139  2.0921  1.3748
  947MOL0     H24984   9.054   6.278  12.351  0.0018  0.4156 -0.5982
  947MOL0     H24985   9.168   6.412  12.328 -2.8159  0.6441 -0.0994
  947MOL0     H24986   9.238   6.695  11.543  0.8391 -3.4732 -3.6789
  947MOL0     H24987   9.366   6.922  11.551  3.9703  1.9865  0.8521
  947MOL0     H24988   9.545   7.227  11.963  1.3058  0.7158  2.6516
  947MOL0     H24989   9.708   7.395  12.029 -0.2370  0.2123  0.0116
  947MOL0     H24990   9.740   7.549  10.916  2.7676 -0.3897 -0.2144
  947MOL0     H24991   9.530   7.402  10.977 -2.3111 -5.5626  1.0397
  947MOL0     H24992   9.076   7.237  10.949 -1.3048 -0.5360  1.4482
  947MOL0     H24993   8.890   7.112  10.851  0.5369 -1.8123  4.1556
  947MOL0     H24994   8.985   6.702  10.742 -2.0649 -0.6522  1.4086
  947MOL0     H24995   8.951   6.765  10.585  2.3464 -1.0872  0.7165
  947MOL0     H24996   8.737   6.695  10.797 -2.1399 -0.2438 -0.9272
  947MOL0     H24997   8.702   6.760  10.641 -1.5442  1.2161  2.2652
  947MOL0     H24998   8.850   6.501  10.706  3.5366  0.5843 -3.1077
  947MOL0     H24999   8.812   6.548  10.541  2.9183  1.0437  1.4266
  947MOL0     H25000   8.582   6.547  10.731  1.2971  2.3846 -1.3369
  947MOL0     H25001   8.573   6.556  10.561 -1.2512 -0.3730 -1.0563
  947MOL0     H25002   8.645   6.141  10.634  1.5725 -0.7833  0.9111
  947MOL0     H25003   9.159   6.834  10.687 -3.9644  0.6796 -2.2021
  947MOL0     H25004   9.344   6.973  10.723 -1.6100 -1.9114 -3.2172
  948MOL0     O25005  11.458   8.206   7.031  0.6771 -0.0904  0.3731
  948MOL0     C25006  11.541   8.186   6.941 -0.0673  0.1652 -0.2544
  948MOL0     O25007  11.674   8.195   6.952 -0.0537  0.4270  0.0801
  948MOL0     C25008  11.726   8.179   7.079 -0.1820  0.1466 -0.1131
  948MOL0     C25009  11.710   8.046   7.137 -0.1960 -1.1619 -0.2434
  948MOL0     C25010  11.748   8.034   7.272 -0.3653  0.2293 -0.0262
  948MOL0     C25011  11.816   8.126   7.348  0.4476 -1.3403 -0.5936
  948MOL0     O25012  11.848   8.081   7.470  0.3018  0.8280  0.7195
  948MOL0     C25013  11.930   8.166   7.550 -0.1038  0.5059  0.4566
  948MOL0     C25014  11.974   8.099   7.680 -0.6967 -0.4794  0.1014
  948MOL0     C25015  12.068   8.192   7.751 -0.6756 -0.2139 -0.2336
  948MOL0     C25016  12.074   8.176   7.907  0.5791 -0.4546  0.1826
  948MOL0     C25017  12.195   8.243   7.974 -0.7035 -0.8526 -0.3282
  948MOL0     C25018  12.195   8.221   8.129 -0.6155 -0.2939 -0.3404
  948MOL0     C25019  12.293   8.310   8.211  0.8021 -0.6891 -0.1023
  948MOL0     C25020  12.443   8.267   8.206 -0.1085  0.0045  1.6119
  948MOL0     N25021  12.531   8.311   8.315 -0.3968  0.3864 -0.4670
  948MOL0     C25022  12.556   8.441   8.350 -0.2834  0.4373  0.0833
  948MOL0     C25023  12.660   8.428   8.444  0.5406  0.5576  0.5719
  948MOL0     C25024  12.737   8.539   8.499 -0.0225 -0.5637 -0.6720
  948MOL0     C25025  12.754   8.525   8.653 -0.5693 -0.3687  0.5331
  948MOL0     C25026  12.627   8.520   8.736 -1.2762  0.3468 -0.0850
  948MOL0     C25027  12.649   8.548   8.888  0.6345 -0.3030 -0.2474
  948MOL0     O25028  12.537   8.503   8.973  0.9370 -0.0631 -0.7201
  948MOL0     C25029  12.548   8.480   9.107  0.7747 -0.0434 -0.6959
  948MOL0     C25030  12.655   8.526   9.177  1.1161  0.8762  0.2765
  948MOL0     C25031  12.672   8.509   9.315 -0.5575  0.1477 -0.5751
  948MOL0     C25032  12.572   8.443   9.386  0.0890  0.4182 -0.4811
  948MOL0     C25033  12.582   8.413   9.527 -0.0405  0.1253  0.0727
  948MOL0     O25034  12.470   8.364   9.591  0.5008  0.2249 -0.0496
  948MOL0     C25035  12.474   8.317   9.723  0.5170 -0.0523 -0.0268
  948MOL0     C25036  12.586   8.254   9.780 -0.9120 -0.5778  1.4382
  948MOL0     C25037  12.570   8.183   9.896  0.0373  1.5396  0.0638
  948MOL0     C25038  12.447   8.166   9.963 -0.1866 -0.0157 -1.5709
  948MOL0     O25039  12.448   8.104  10.095 -0.7396 -0.0195 -0.4134
  948MOL0     C25040  12.316   8.065  10.136  1.0625 -0.3008 -0.3106
  948MOL0     C25041  12.334   7.957  10.236 -1.1176  0.1256 -0.5336
  948MOL0     C25042  12.379   7.826  10.184 -0.0115 -0.2092  0.4755
  948MOL0     C25043  12.399   7.717  10.298  0.3561  0.5542 -0.1453
  948MOL0     C25044  12.374   7.570  10.242  0.1822  0.0514 -0.3032
  948MOL0     C25045  12.265   7.489  10.310  0.1524 -0.0138 -0.4065
  948MOL0     C25046  12.247   7.351  10.250  0.1912  0.1647  0.0262
  948MOL0     C25047  12.126   7.276  10.303  0.9889 -0.6030  0.1734
  948MOL0    Cl25048  12.138   7.105  10.263  0.0788 -0.3150 -0.2985
  948MOL0     C25049  12.344   8.236   9.909  0.1344  0.4425  0.0638
  948MOL0     C25050  12.354   8.310   9.789  0.0471 -0.8120 -0.9916
  948MOL0     O25051  12.692   8.443   9.577  0.3709  0.8236  0.0049
  948MOL0     C25052  12.464   8.388   9.313 -0.3408  0.2196 -0.5347
  948MOL0     C25053  12.458   8.398   9.173 -0.0456 -0.6134  1.1513
  948MOL0     N25054  12.689   8.292   8.459  0.5966 -0.1191  0.4206
  948MOL0     N25055  12.609   8.228   8.389  1.1911 -0.1422 -0.2433
  948MOL0     C25056  11.829   8.252   7.289 -0.4181  0.3823 -0.5899
  948MOL0     C25057  11.789   8.276   7.150  0.6854  0.1169 -0.4532
  948MOL0     C25058  11.480   8.176   6.809  0.0256 -0.8009 -0.0002
  948MOL0     C25059  11.345   8.169   6.781  0.3825 -0.5325  0.5872
  948MOL0     C25060  11.296   8.178   6.649 -0.8038 -0.4273 -0.4558
  948MOL0     C25061  11.379   8.183   6.549 -0.8332 -0.0559  0.3091
  948MOL0     O25062  11.348   8.195   6.417  0.8614  0.2931  0.1544
  948MOL0     C25063  11.226   8.260   6.368 -0.6030  0.0091  0.2052
  948MOL0     C25064  11.198   8.407   6.403 -1.2582 -0.0303 -0.2136
  948MOL0     C25065  11.323   8.496   6.389 -0.1738 -0.1174  0.1413
  948MOL0     C25066  11.354   8.544   6.257 -0.3362 -0.0100  0.2383
  948MOL0     C25067  11.488   8.610   6.252 -0.0387 -0.0026  0.1952
  948MOL0     C25068  11.583   8.683   6.247 -0.0895  0.4186 -0.5093
  948MOL0     C25069  11.516   8.207   6.571 -0.5739  0.5477 -0.0661
  948MOL0     C25070  11.566   8.197   6.697 -0.4435  0.6192 -0.0645
  948MOL0     H25071  11.678   7.955   7.089  3.1775 -1.7621 -1.6594
  948MOL0     H25072  11.726   7.931   7.300 -0.7699 -1.0132 -4.1253
  948MOL0     H25073  11.880   8.261   7.571  1.5767  1.3656  0.7935
  948MOL0     H25074  12.019   8.199   7.495 -0.3611  1.4736  0.6072
  948MOL0     H25075  12.027   8.008   7.652  0.2791  0.3147 -0.6757
  948MOL0     H25076  11.885   8.077   7.740 -0.8059  0.7005  0.3958
  948MOL0     H25077  12.050   8.298   7.733  3.5258  1.0609  1.7965
  948MOL0     H25078  12.171   8.167   7.723  0.3006 -0.7364  3.2774
  948MOL0     H25079  11.988   8.212   7.964 -0.4319 -0.9581 -0.9692
  948MOL0     H25080  12.099   8.071   7.923  3.2082  0.5651  3.7951
  948MOL0     H25081  12.196   8.350   7.952  3.4171 -0.3666  1.2192
  948MOL0     H25082  12.285   8.203   7.928  1.0989 -1.3701  3.2583
  948MOL0     H25083  12.217   8.122   8.170  1.9636  1.0789  1.9643
  948MOL0     H25084  12.092   8.244   8.160  0.2264  2.9332  0.4227
  948MOL0     H25085  12.279   8.416   8.186 -0.2811 -0.4616  1.2790
  948MOL0     H25086  12.277   8.290   8.318  3.8021  0.6289  0.6887
  948MOL0     H25087  12.488   8.302   8.113  0.0126 -0.5922  1.4413
  948MOL0     H25088  12.452   8.158   8.206  2.4026 -0.1884 -4.4088
  948MOL0     H25089  12.500   8.522   8.307  1.1411  2.4543  1.8262
  948MOL0     H25090  12.688   8.634   8.474  1.1128 -0.7914 -4.3621
  948MOL0     H25091  12.835   8.552   8.451 -0.8495  4.9980 -1.5436
  948MOL0     H25092  12.820   8.599   8.698 -0.3416  0.0387 -0.4536
  948MOL0     H25093  12.809   8.432   8.668 -0.9485 -0.6401  0.2710
  948MOL0     H25094  12.551   8.581   8.687 -3.3610 -3.2944 -1.8387
  948MOL0     H25095  12.584   8.420   8.728 -0.4901 -0.3133  2.6734
  948MOL0     H25096  12.665   8.656   8.897 -0.6152 -0.0590 -0.8295
  948MOL0     H25097  12.744   8.499   8.914  1.3241 -0.0266 -2.1180
  948MOL0     H25098  12.730   8.582   9.123  2.5162  0.5609  1.8000
  948MOL0     H25099  12.767   8.530   9.364 -0.3066 -0.3801 -0.8252
  948MOL0     H25100  12.673   8.247   9.714 -2.2740 -2.2023 -0.3163
  948MOL0     H25101  12.654   8.122   9.930 -3.2533 -1.6931  3.3866
  948MOL0     H25102  12.253   8.023  10.057  3.2366 -2.6817 -0.9183
  948MOL0     H25103  12.265   8.149  10.184  1.5016  0.1870 -0.6795
  948MOL0     H25104  12.241   7.938  10.290 -0.9374  2.5332  0.7434
  948MOL0     H25105  12.390   7.998  10.320 -1.4551  0.5584 -0.5171
  948MOL0     H25106  12.483   7.846  10.156 -0.1118  1.1329  0.9388
  948MOL0     H25107  12.325   7.789  10.097  0.4849  1.3059 -0.5234
  948MOL0     H25108  12.498   7.720  10.345  0.0810 -1.8711  0.7445
  948MOL0     H25109  12.318   7.731  10.371  0.2999 -2.0758  0.3774
  948MOL0     H25110  12.469   7.516  10.229  0.9125  1.3142 -0.3697
  948MOL0     H25111  12.340   7.580  10.139  0.6722  1.9207 -0.3188
  948MOL0     H25112  12.176   7.552  10.307  0.8679  1.0929  0.7880
  948MOL0     H25113  12.286   7.474  10.416  0.3066 -0.7832 -0.5366
  948MOL0     H25114  12.233   7.352  10.142  0.3728  2.3543 -0.0272
  948MOL0     H25115  12.329   7.285  10.279 -0.1397  0.6185  2.1563
  948MOL0     H25116  12.040   7.330  10.263 -2.1463 -3.0105  3.0559
  948MOL0     H25117  12.134   7.289  10.411 -0.9578  0.4625  0.2245
  948MOL0     H25118  12.261   8.259   9.974  1.9764  0.5911  2.5160
  948MOL0     H25119  12.272   8.365   9.745  0.7782  1.4502  0.3133
  948MOL0     H25120  12.390   8.324   9.360 -0.8021  0.7708 -0.4844
  948MOL0     H25121  12.384   8.361   9.102 -0.8464  2.1950  0.3974
  948MOL0     H25122  11.860   8.332   7.356 -0.7921  1.3076 -1.4946
  948MOL0     H25123  11.785   8.378   7.112 -1.4979  0.2141 -0.1036
  948MOL0     H25124  11.272   8.147   6.859 -3.4920 -0.0235 -2.5931
  948MOL0     H25125  11.189   8.158   6.647 -1.6609  3.0663  1.6006
  948MOL0     H25126  11.137   8.207   6.406 -0.5754  0.4066  0.8402
  948MOL0     H25127  11.204   8.261   6.261  0.9972  0.2908 -0.1496
  948MOL0     H25128  11.115   8.457   6.352 -1.0632  0.7874  0.2540
  948MOL0     H25129  11.184   8.410   6.511  3.9232  2.7879  0.7136
  948MOL0     H25130  11.404   8.433   6.428 -0.7815  0.6229  2.8418
  948MOL0     H25131  11.307   8.583   6.453  3.7690 -1.9895  4.2994
  948MOL0     H25132  11.352   8.455   6.193  0.1175 -0.6074  1.0370
  948MOL0     H25133  11.273   8.614   6.235 -1.4936  0.2378  4.3917
  948MOL0     H25134  11.665   8.751   6.254  1.1814 -0.9906 -1.2435
  948MOL0     H25135  11.574   8.225   6.482 -0.0050 -2.0503 -0.2886
  948MOL0     H25136  11.673   8.208   6.712 -0.4919  0.5803  0.3294
  949MOL0     O25137  11.196   9.627   8.685  1.0999 -0.5070  0.3106
  949MOL0     C25138  11.115   9.532   8.680 -0.1088 -0.9101  0.7308
  949MOL0     O25139  11.118   9.422   8.765 -1.0647 -0.2418  0.3676
  949MOL0     C25140  11.182   9.416   8.882  0.7200  0.3227 -0.5116
  949MOL0     C25141  11.253   9.515   8.949  0.2009 -0.2736 -0.8574
  949MOL0     C25142  11.284   9.495   9.087 -0.3592 -0.8261 -0.3162
  949MOL0     C25143  11.266   9.373   9.149 -0.0332  0.9807 -0.5256
  949MOL0     O25144  11.322   9.355   9.271 -0.6949  0.2585  0.0275
  949MOL0     C25145  11.426   9.259   9.289  0.6020 -0.0005  0.0083
  949MOL0     C25146  11.542   9.284   9.197  0.5607 -0.2682  0.4690
  949MOL0     C25147  11.624   9.401   9.216 -0.1685 -0.2752 -0.4655
  949MOL0     C25148  11.763   9.389   9.153 -0.2336  0.0541  0.1699
  949MOL0     C25149  11.748   9.397   9.003  0.1661  0.7681 -0.2275
  949MOL0     C25150  11.878   9.356   8.924  0.0725 -0.5639  0.1633
  949MOL0     C25151  11.861   9.350   8.773 -1.0423 -0.9984  0.5458
  949MOL0     C25152  11.779   9.236   8.719  0.3440 -0.1958 -0.0218
  949MOL0     N25153  11.791   9.250   8.574 -0.7176  0.0083 -0.3223
  949MOL0     C25154  11.689   9.282   8.486  0.8493  0.4977 -0.1917
  949MOL0     C25155  11.755   9.270   8.371 -0.0984  0.4936 -0.4470
  949MOL0     C25156  11.682   9.268   8.242  0.2248 -0.1005 -0.0793
  949MOL0     C25157  11.593   9.141   8.235 -0.1453  0.3596 -0.0576
  949MOL0     C25158  11.672   9.006   8.253  0.1563 -0.0436 -0.3329
  949MOL0     C25159  11.562   8.888   8.241 -0.3508 -0.5268 -0.3836
  949MOL0     O25160  11.502   8.885   8.371 -0.2539 -0.6924 -0.0627
  949MOL0     C25161  11.535   8.800   8.463  0.0625  0.6348  0.5665
  949MOL0     C25162  11.485   8.843   8.587  0.1413  0.4065  1.1097
  949MOL0     C25163  11.520   8.772   8.698  0.9865 -0.2218 -0.6015
  949MOL0     C25164  11.600   8.660   8.690  0.1536  0.4238  0.0739
  949MOL0     C25165  11.630   8.585   8.809  0.8347 -0.7571 -0.2672
  949MOL0     O25166  11.568   8.630   8.920  0.6379  0.3800  0.3040
  949MOL0     C25167  11.548   8.547   9.027 -0.0298 -0.4289 -0.2443
  949MOL0     C25168  11.627   8.561   9.132  0.2251  0.8186  0.0444
  949MOL0     C25169  11.613   8.466   9.237 -0.2372 -0.2719  0.3002
  949MOL0     C25170  11.527   8.356   9.218  0.0985  0.1213  1.1846
  949MOL0     O25171  11.505   8.259   9.307 -0.8749  0.0682  0.0463
  949MOL0     C25172  11.487   8.121   9.264  0.7804 -0.4608 -0.0142
  949MOL0     C25173  11.601   8.028   9.313 -0.9975 -0.0658  0.9998
  949MOL0     C25174  11.730   8.059   9.242  0.3264 -0.8385  0.6624
  949MOL0     C25175  11.808   8.169   9.307  0.9248 -0.0874  0.6404
  949MOL0     C25176  11.890   8.235   9.196 -0.3654  0.1088  0.7656
  949MOL0     C25177  11.993   8.324   9.255  0.3863  0.0506  0.0814
  949MOL0     C25178  12.092   8.369   9.148  0.9221  0.1425  0.6855
  949MOL0     C25179  12.026   8.482   9.063  0.6501  0.5314  0.0543
  949MOL0    Cl25180  12.131   8.527   8.931  0.1810  0.3114  0.3534
  949MOL0     C25181  11.436   8.366   9.109  0.6973 -0.8406 -0.5038
  949MOL0     C25182  11.447   8.460   9.014  0.1924  0.1917  0.3351
  949MOL0     O25183  11.704   8.481   8.806  1.2037 -0.4825 -0.5190
  949MOL0     C25184  11.654   8.625   8.564  0.2496 -0.5851 -0.0108
  949MOL0     C25185  11.622   8.691   8.451 -0.6180  0.7216 -0.5020
  949MOL0     N25186  11.891   9.245   8.384 -0.2311 -1.2349 -0.5655
  949MOL0     N25187  11.911   9.242   8.510 -0.6863 -0.1442  0.0360
  949MOL0     C25188  11.211   9.267   9.085  0.1757  0.1113  1.1873
  949MOL0     C25189  11.170   9.289   8.946 -0.1297  0.7677 -0.9084
  949MOL0     C25190  11.006   9.550   8.583 -0.3583  0.3859  0.0162
  949MOL0     C25191  10.900   9.463   8.590 -1.2851  0.3699 -0.8367
  949MOL0     C25192  10.804   9.473   8.499 -0.5456  0.3472  0.6007
  949MOL0     C25193  10.815   9.566   8.390  0.1258 -0.4742 -0.5468
  949MOL0     O25194  10.714   9.595   8.301 -0.0345  0.8382  0.2981
  949MOL0     C25195  10.609   9.491   8.287  1.1454  0.8776 -0.0451
  949MOL0     C25196  10.574   9.485   8.143  0.0871  0.0120  0.6829
  949MOL0     C25197  10.444   9.413   8.144 -0.4700 -0.7576 -0.6348
  949MOL0     C25198  10.392   9.388   7.995 -0.0188 -0.2585  0.2439
  949MOL0     C25199  10.266   9.306   7.987  0.0637  1.2440  0.4044
  949MOL0     C25200  10.162   9.251   7.974  0.8409  0.8542 -0.7191
  949MOL0     C25201  10.923   9.657   8.385 -0.0790  0.8274  0.9365
  949MOL0     C25202  11.019   9.640   8.477  0.0725 -0.8652 -0.7609
  949MOL0     H25203  11.287   9.611   8.911 -0.0091 -0.3534 -1.2531
  949MOL0     H25204  11.333   9.574   9.143  0.4579 -3.4119  2.8813
  949MOL0     H25205  11.386   9.158   9.273 -0.1796  0.4650 -1.1525
  949MOL0     H25206  11.465   9.256   9.391 -0.9992 -0.2041  0.6517
  949MOL0     H25207  11.504   9.274   9.095  2.1230 -2.1231  0.0075
  949MOL0     H25208  11.609   9.199   9.215 -0.4575 -1.0281  0.7599
  949MOL0     H25209  11.630   9.404   9.325  0.6712  0.6414 -0.5227
  949MOL0     H25210  11.573   9.491   9.179 -0.2798  1.2646  3.0610
  949MOL0     H25211  11.827   9.473   9.179  0.1570  0.4081 -1.7831
  949MOL0     H25212  11.810   9.293   9.177 -0.7572 -0.6745 -1.5431
  949MOL0     H25213  11.722   9.501   8.982  0.7713  0.5355 -2.3215
  949MOL0     H25214  11.671   9.325   8.973  1.2567 -0.1914 -0.8029
  949MOL0     H25215  11.917   9.264   8.969  0.8984 -0.7358 -0.8596
  949MOL0     H25216  11.953   9.436   8.933 -0.8003  0.3621 -0.6024
  949MOL0     H25217  11.819   9.443   8.733  0.2780 -0.6680 -0.1425
  949MOL0     H25218  11.955   9.364   8.718 -3.0161 -1.1397 -3.2571
  949MOL0     H25219  11.679   9.254   8.759 -0.9114 -2.9227 -1.5949
  949MOL0     H25220  11.810   9.137   8.755 -0.2458  0.0305  1.1444
  949MOL0     H25221  11.586   9.315   8.495  0.9379  0.7710 -0.1716
  949MOL0     H25222  11.758   9.266   8.163  1.8686  0.7703  1.4054
  949MOL0     H25223  11.625   9.359   8.225 -2.1649 -0.9171  2.7221
  949MOL0     H25224  11.555   9.127   8.134  6.2228 -6.0830 -2.4799
  949MOL0     H25225  11.515   9.140   8.312 -0.7250 -0.1493 -0.6449
  949MOL0     H25226  11.752   8.999   8.179 -0.2239 -3.5158 -0.5840
  949MOL0     H25227  11.725   9.003   8.348 -4.0661  2.2986  2.4571
  949MOL0     H25228  11.611   8.792   8.224  1.3306  0.3314 -0.5380
  949MOL0     H25229  11.489   8.911   8.163  0.7106  1.7666 -0.7717
  949MOL0     H25230  11.409   8.921   8.585 -0.6279 -0.2721 -1.5865
  949MOL0     H25231  11.481   8.811   8.791  2.5690  4.1624 -1.5220
  949MOL0     H25232  11.700   8.641   9.140 -0.3363  1.1465  3.5795
  949MOL0     H25233  11.670   8.472   9.329 -0.4694  1.1817  0.3788
  949MOL0     H25234  11.458   8.105   9.160 -1.5932 -0.3061  0.5856
  949MOL0     H25235  11.404   8.079   9.320  0.6719  2.5741  2.3572
  949MOL0     H25236  11.584   7.927   9.275 -0.4859  0.5623 -1.0483
  949MOL0     H25237  11.615   8.036   9.421 -2.3080 -1.3246  1.3040
  949MOL0     H25238  11.713   8.078   9.135  0.1430 -0.0133  0.8368
  949MOL0     H25239  11.796   7.973   9.223  0.8590  0.2848 -3.7717
  949MOL0     H25240  11.746   8.248   9.351  3.2826  2.6758 -0.6658
  949MOL0     H25241  11.866   8.137   9.393 -0.5876  1.0128  2.1239
  949MOL0     H25242  11.821   8.286   9.128  0.5087  0.8242  0.3837
  949MOL0     H25243  11.930   8.158   9.130  2.9295  1.9149  0.4189
  949MOL0     H25244  12.055   8.275   9.331  0.0326  0.8487  0.9044
  949MOL0     H25245  11.943   8.409   9.303  0.9373  1.2798 -1.4600
  949MOL0     H25246  12.175   8.423   9.193 -1.1344  3.2067  1.0898
  949MOL0     H25247  12.133   8.291   9.082 -1.3903  2.1039 -3.4883
  949MOL0     H25248  12.022   8.576   9.118 -1.1575 -1.4667  3.7059
  949MOL0     H25249  11.929   8.458   9.019  2.0949  0.9362 -3.8514
  949MOL0     H25250  11.356   8.292   9.106  0.6558 -0.7836 -2.8749
  949MOL0     H25251  11.374   8.447   8.934 -1.2787 -1.7326  1.8862
  949MOL0     H25252  11.703   8.530   8.546  0.3310 -0.6934  0.7717
  949MOL0     H25253  11.632   8.654   8.349 -0.2447  2.0450 -0.9783
  949MOL0     H25254  11.196   9.176   9.141 -0.7682  0.4497  1.5126
  949MOL0     H25255  11.131   9.197   8.905 -0.2610 -0.6639  2.1569
  949MOL0     H25256  10.896   9.382   8.662  1.3799  0.3439 -0.6119
  949MOL0     H25257  10.720   9.405   8.506 -0.2502 -0.2942 -1.3815
  949MOL0     H25258  10.522   9.517   8.348  1.0748 -1.0895  0.7469
  949MOL0     H25259  10.640   9.390   8.316 -3.2687 -0.3880  1.0500
  949MOL0     H25260  10.575   9.581   8.091  0.3097 -1.3164 -1.9348
  949MOL0     H25261  10.649   9.426   8.090 -2.5039 -0.1881 -3.1621
  949MOL0     H25262  10.368   9.463   8.204  0.1633 -0.9706  0.3589
  949MOL0     H25263  10.469   9.317   8.190  1.1137  0.3277  0.9022
  949MOL0     H25264  10.368   9.485   7.950 -3.6825 -2.2080 -2.6245
  949MOL0     H25265  10.472   9.346   7.934 -0.0729  1.2605 -0.9482
  949MOL0     H25266  10.060   9.219   7.965  0.5929  0.0463  3.1712
  949MOL0     H25267  10.942   9.737   8.314  5.7266  0.2475  1.3470
  949MOL0     H25268  11.102   9.710   8.471 -1.5508  1.2579  0.2753
  950MOL0     O25269   1.100  10.116   4.709 -0.1850 -0.2553  0.6406
  950MOL0     C25270   0.993  10.085   4.659 -0.2099  0.4698 -0.4916
  950MOL0     O25271   0.975  10.016   4.545  0.5528  0.3779 -0.2492
  950MOL0     C25272   1.085  10.022   4.462  0.5472 -0.4318 -0.4123
  950MOL0     C25273   1.072  10.071   4.329  0.2674  0.6502  0.0140
  950MOL0     C25274   1.185  10.063   4.242 -0.2615 -0.3150 -0.7442
  950MOL0     C25275   1.299   9.989   4.287  0.6508 -0.6889  0.0851
  950MOL0     O25276   1.379   9.958   4.183 -0.3396 -0.7596 -0.5560
  950MOL0     C25277   1.515   9.964   4.214 -0.7140  0.3641  0.0218
  950MOL0     C25278   1.592   9.950   4.083  0.5698 -0.6874 -0.1284
  950MOL0     C25279   1.738   9.927   4.107 -0.3248 -0.1108 -0.2617
  950MOL0     C25280   1.808   9.914   3.968 -0.5668  0.3882  0.2210
  950MOL0     C25281   1.967   9.904   3.996  0.4938  0.1685 -0.4641
  950MOL0     C25282   2.049   9.925   3.869 -0.3228 -0.0399  0.3741
  950MOL0     C25283   2.202   9.944   3.883  0.5681 -0.3709 -0.5554
  950MOL0     C25284   2.231  10.082   3.949 -0.6637 -0.2396  0.4814
  950MOL0     N25285   2.351  10.063   4.029 -0.1130 -0.0599  0.1795
  950MOL0     C25286   2.478  10.043   3.977  0.4495  0.8732 -0.2969
  950MOL0     C25287   2.540  10.016   4.091  1.0239  0.2099 -0.1463
  950MOL0     C25288   2.675   9.955   4.100  0.4070  0.3540 -0.1475
  950MOL0     C25289   2.678   9.864   4.225  0.1375 -0.1602  0.2894
  950MOL0     C25290   2.571   9.741   4.192 -0.3864  0.3673 -0.2810
  950MOL0     C25291   2.534   9.683   4.331  0.6231 -0.0309 -0.4360
  950MOL0     O25292   2.659   9.634   4.395 -0.3108  0.1070 -0.1735
  950MOL0     C25293   2.651   9.570   4.515  0.2617 -0.9210  0.1557
  950MOL0     C25294   2.524   9.546   4.578  0.0549 -0.2726 -0.9685
  950MOL0     C25295   2.533   9.485   4.702  0.2262 -0.2036  0.3740
  950MOL0     C25296   2.643   9.435   4.771  0.7865  0.3756  0.4503
  950MOL0     C25297   2.644   9.381   4.913 -0.5172 -0.2472  0.5486
  950MOL0     O25298   2.540   9.315   4.953  0.4731  0.9494  0.5272
  950MOL0     C25299   2.530   9.254   5.075  0.1230 -0.6491  0.5133
  950MOL0     C25300   2.456   9.143   5.086  0.2208  0.6058  0.1152
  950MOL0     C25301   2.414   9.088   5.204  0.6161 -0.5535  0.5059
  950MOL0     C25302   2.472   9.130   5.327  1.2873 -0.8197  1.8118
  950MOL0     O25303   2.459   9.071   5.447  0.3574 -0.5784 -0.6592
  950MOL0     C25304   2.407   8.934   5.438 -1.0819 -0.5658 -0.4293
  950MOL0     C25305   2.425   8.881   5.583 -0.4211  0.2922  0.1487
  950MOL0     C25306   2.384   8.723   5.600  0.2669  0.1279 -0.0017
  950MOL0     C25307   2.233   8.701   5.613  0.3458  1.2712  0.9364
  950MOL0     C25308   2.216   8.557   5.659  0.4785 -0.0587 -0.1870
  950MOL0     C25309   2.073   8.513   5.676  0.4146 -0.0776 -0.0245
  950MOL0     C25310   2.048   8.406   5.782 -0.5380  0.2447  0.6627
  950MOL0     C25311   1.895   8.396   5.812 -0.2685  0.6721 -0.0049
  950MOL0    Cl25312   1.861   8.238   5.903  0.0105  0.6135 -0.0507
  950MOL0     C25313   2.560   9.243   5.320 -0.2823  0.2064 -0.3774
  950MOL0     C25314   2.594   9.305   5.197 -0.6876 -0.0155  0.3778
  950MOL0     O25315   2.743   9.402   4.975 -0.3161 -0.0394  0.3096
  950MOL0     C25316   2.764   9.458   4.704 -0.1526 -0.5518 -0.0544
  950MOL0     C25317   2.772   9.535   4.581  0.6625 -0.8554  0.4255
  950MOL0     N25318   2.461  10.050   4.197  0.0959 -0.2167  0.3626
  950MOL0     N25319   2.350  10.087   4.161 -0.3434 -0.4856 -0.1815
  950MOL0     C25320   1.322   9.946   4.420 -0.2350 -0.1495  0.2737
  950MOL0     C25321   1.213   9.968   4.501 -0.3924  0.9985 -0.4614
  950MOL0     C25322   0.874  10.119   4.741  0.8073 -0.4580  0.2222
  950MOL0     C25323   0.746  10.054   4.716  1.3134  1.1617 -0.9252
  950MOL0     C25324   0.645  10.076   4.807  0.3262  1.2164  0.6494
  950MOL0     C25325   0.648  10.157   4.917  0.1180 -0.9415  0.7025
  950MOL0     O25326   0.534  10.180   4.991  0.1580 -0.4968  1.6280
  950MOL0     C25327   0.509  10.297   5.057 -0.3058 -0.0780 -0.9630
  950MOL0     C25328   0.399  10.264   5.157  0.5305 -0.9452  0.6859
  950MOL0     C25329   0.260  10.269   5.081  0.0775 -0.0160 -0.0284
  950MOL0     C25330   0.137  10.256   5.172  0.0609 -0.0241  1.1053
  950MOL0     C25331   0.113  10.119   5.229  0.0152 -0.4009  0.0658
  950MOL0     C25332   0.117   9.999   5.258  0.6366  0.6260  0.1665
  950MOL0     C25333   0.774  10.219   4.940 -0.3343  0.8439 -0.1131
  950MOL0     C25334   0.889  10.196   4.858 -0.4550  0.4190 -0.1246
  950MOL0     H25335   0.979  10.115   4.294 -0.3104 -0.4013  0.1952
  950MOL0     H25336   1.177  10.084   4.135  0.5424 -2.6622 -1.3216
  950MOL0     H25337   1.553   9.892   4.287 -0.5181 -1.4488 -1.7547
  950MOL0     H25338   1.553  10.058   4.255  3.8716 -0.6559 -1.3102
  950MOL0     H25339   1.577  10.041   4.025  0.2889  1.2144  2.7570
  950MOL0     H25340   1.553   9.867   4.023  0.7825 -0.1240 -1.0640
  950MOL0     H25341   1.760   9.836   4.164  0.4121 -1.8600 -3.0815
  950MOL0     H25342   1.769  10.013   4.167 -4.3878  2.6169 -1.6393
  950MOL0     H25343   1.773   9.820   3.924 -1.7128  0.5612  0.7255
  950MOL0     H25344   1.800  10.003   3.904 -0.8241 -2.2862 -3.8074
  950MOL0     H25345   1.980   9.802   4.034 -0.1244  0.8332  1.6713
  950MOL0     H25346   2.009   9.961   4.080 -0.1575 -1.5710  1.1188
  950MOL0     H25347   2.025  10.012   3.808  0.2922 -0.3556 -0.3268
  950MOL0     H25348   2.017   9.844   3.803 -1.9739  0.7459  0.1507
  950MOL0     H25349   2.243   9.868   3.949  0.6997 -0.6322 -0.9416
  950MOL0     H25350   2.251   9.936   3.786 -1.8928 -3.1790 -1.7226
  950MOL0     H25351   2.146  10.112   4.011  0.9314  0.2961  2.5218
  950MOL0     H25352   2.248  10.155   3.870  0.0425 -2.5484 -1.6205
  950MOL0     H25353   2.510  10.045   3.873 -0.4797  1.7335 -0.5794
  950MOL0     H25354   2.754  10.030   4.109  0.2693  0.2512  2.9749
  950MOL0     H25355   2.699   9.886   4.019  0.7503  0.2953  0.0026
  950MOL0     H25356   2.647   9.920   4.314  0.5169  1.4058 -0.5281
  950MOL0     H25357   2.776   9.815   4.229 -0.4769 -1.3417  1.7579
  950MOL0     H25358   2.485   9.780   4.138 -2.3418 -1.5865  1.2474
  950MOL0     H25359   2.630   9.675   4.129  1.4442  0.7344  0.9610
  950MOL0     H25360   2.465   9.601   4.311 -0.3552 -0.0768  2.6003
  950MOL0     H25361   2.477   9.757   4.389 -0.8056 -1.2738 -0.1953
  950MOL0     H25362   2.423   9.577   4.554 -0.1280  1.2985  1.4323
  950MOL0     H25363   2.439   9.477   4.755  1.4737  2.1145  3.2589
  950MOL0     H25364   2.428   9.099   4.991 -1.8852 -1.3460  1.5005
  950MOL0     H25365   2.342   9.009   5.185 -1.2795  1.8217 -3.2740
  950MOL0     H25366   2.471   8.870   5.376 -0.2473  0.5494 -0.7589
  950MOL0     H25367   2.304   8.919   5.404 -1.8275 -1.9032  2.2114
  950MOL0     H25368   2.372   8.945   5.653 -0.3825  0.5648 -0.0689
  950MOL0     H25369   2.530   8.895   5.610 -0.7977  2.2665  0.7004
  950MOL0     H25370   2.425   8.668   5.685 -2.7562  0.6926  1.9548
  950MOL0     H25371   2.418   8.684   5.504 -0.1534  0.8069 -0.4382
  950MOL0     H25372   2.182   8.774   5.676 -2.6044  1.1262 -1.0893
  950MOL0     H25373   2.189   8.714   5.514 -1.7937  1.8348  1.8883
  950MOL0     H25374   2.264   8.555   5.757  0.3559  0.1902 -0.1218
  950MOL0     H25375   2.267   8.489   5.590  2.2086  1.4268 -0.4314
  950MOL0     H25376   2.045   8.484   5.574  1.7712 -1.5735 -0.0020
  950MOL0     H25377   2.005   8.594   5.706  0.5680  0.4869 -1.1367
  950MOL0     H25378   2.062   8.303   5.749 -1.0402  0.5588 -0.5937
  950MOL0     H25379   2.111   8.415   5.871 -0.6723  0.2044  0.7625
  950MOL0     H25380   1.847   8.380   5.715  1.6892 -4.8319 -0.3740
  950MOL0     H25381   1.858   8.491   5.854  1.0148  2.7155 -3.0987
  950MOL0     H25382   2.585   9.297   5.411 -0.4050 -0.2810 -0.0513
  950MOL0     H25383   2.658   9.392   5.188 -0.0690 -0.6658 -3.3580
  950MOL0     H25384   2.851   9.414   4.751  0.0919  0.0058  0.0266
  950MOL0     H25385   2.868   9.571   4.546 -0.6732  3.4233  0.5329
  950MOL0     H25386   1.412   9.906   4.465 -1.8977 -1.8342  2.3104
  950MOL0     H25387   1.203   9.922   4.599 -1.2415 -0.4261 -1.1865
  950MOL0     H25388   0.707   9.987   4.640  1.3209 -1.8293  1.4861
  950MOL0     H25389   0.552  10.020   4.810 -0.8406  3.1098  1.4036
  950MOL0     H25390   0.472  10.377   4.992 -1.8609  0.7430  0.8302
  950MOL0     H25391   0.600  10.322   5.113  0.2205 -0.3466 -1.6806
  950MOL0     H25392   0.420  10.164   5.197  5.7031 -0.5554 -0.3733
  950MOL0     H25393   0.394  10.347   5.228  1.3323  2.8009 -3.2750
  950MOL0     H25394   0.264  10.188   5.007  0.8106 -1.6670  1.7466
  950MOL0     H25395   0.255  10.358   5.017 -2.3359 -0.5769 -0.7379
  950MOL0     H25396   0.155  10.323   5.257  1.3016 -0.2062  0.9956
  950MOL0     H25397   0.053  10.301   5.117  1.2038  1.9270  0.8593
  950MOL0     H25398   0.098   9.902   5.300 -1.4062 -0.2705 -2.5598
  950MOL0     H25399   0.793  10.285   5.024 -2.8336  0.5053  0.7903
  950MOL0     H25400   0.991  10.227   4.880  1.4626 -3.6450 -2.1155
  951MOL0     O25401   9.611   2.892   7.216  1.1063 -0.1880  0.3086
  951MOL0     C25402   9.716   2.847   7.173  0.1278 -0.3295 -0.0843
  951MOL0     O25403   9.844   2.898   7.191 -0.0663  0.1341  0.2682
  951MOL0     C25404   9.882   2.993   7.280  0.2631  0.2709  0.0707
  951MOL0     C25405  10.017   3.027   7.267 -0.3330  0.2969  0.0195
  951MOL0     C25406  10.078   3.113   7.370 -0.8376  0.3282  0.5718
  951MOL0     C25407  10.007   3.164   7.472  0.2607  0.8583  0.8201
  951MOL0     O25408  10.077   3.244   7.557  0.0738  0.0156  0.7110
  951MOL0     C25409  10.019   3.266   7.683 -0.9588 -0.5348  0.1495
  951MOL0     C25410  10.126   3.290   7.786 -0.7230  0.1231 -0.0010
  951MOL0     C25411  10.228   3.403   7.770  0.4275  0.0398  0.1970
  951MOL0     C25412  10.315   3.437   7.891  0.8947 -0.2951 -0.1358
  951MOL0     C25413  10.399   3.315   7.922 -0.5375 -0.8570 -0.6273
  951MOL0     C25414  10.508   3.347   8.028 -0.6468 -0.1077 -0.3225
  951MOL0     C25415  10.464   3.372   8.175  0.4891 -1.0032 -0.4982
  951MOL0     C25416  10.375   3.269   8.239 -0.4527  0.2629 -0.0505
  951MOL0     N25417  10.454   3.147   8.272  0.9058 -0.7058  1.0938
  951MOL0     C25418  10.440   3.029   8.193 -0.6127 -0.7178 -0.1583
  951MOL0     C25419  10.529   2.949   8.256 -0.3957 -0.4479  0.3246
  951MOL0     C25420  10.547   2.813   8.213  0.0180  0.1339 -1.3587
  951MOL0     C25421  10.475   2.713   8.305  0.0686 -0.0606  0.5749
  951MOL0     C25422  10.531   2.697   8.456  0.3609  0.0847  0.7144
  951MOL0     C25423  10.673   2.655   8.446 -0.7617  0.3562 -0.3022
  951MOL0     O25424  10.688   2.522   8.397 -0.2096  0.3715 -0.2118
  951MOL0     C25425  10.720   2.423   8.477  1.3459 -0.8853 -0.5593
  951MOL0     C25426  10.673   2.412   8.606  0.4032 -0.0503  0.3366
  951MOL0     C25427  10.690   2.285   8.672 -0.2068 -0.4084 -0.4349
  951MOL0     C25428  10.768   2.184   8.615 -1.2747  0.0114 -0.4358
  951MOL0     C25429  10.799   2.054   8.687  0.1301 -0.1289 -0.7320
  951MOL0     O25430  10.714   1.985   8.765  0.7173 -0.0738 -0.2610
  951MOL0     C25431  10.766   1.872   8.833 -0.3904 -0.2590 -0.1108
  951MOL0     C25432  10.817   1.760   8.763  0.6914 -0.8890  0.5238
  951MOL0     C25433  10.855   1.641   8.829  0.1338 -0.4345 -0.5072
  951MOL0     C25434  10.829   1.621   8.969  0.5167 -0.3728 -0.0154
  951MOL0     O25435  10.843   1.498   9.033  0.2223 -0.3051  0.3100
  951MOL0     C25436  10.760   1.455   9.146 -0.9390  0.2014  1.2120
  951MOL0     C25437  10.777   1.304   9.186  1.1079  0.3706  0.5520
  951MOL0     C25438  10.672   1.256   9.269  1.8405 -0.1994  0.0309
  951MOL0     C25439  10.701   1.122   9.328 -0.7321  1.3440 -1.1459
  951MOL0     C25440  10.611   1.071   9.449  0.4859 -0.0202 -0.0800
  951MOL0     C25441  10.636   0.939   9.528 -1.0245  0.0400  0.7467
  951MOL0     C25442  10.694   0.826   9.440  0.1327  1.0060 -0.1135
  951MOL0     C25443  10.687   0.678   9.484 -0.0449 -0.2689 -0.6275
  951MOL0    Cl25444  10.522   0.613   9.462 -0.6855  0.4245  0.5119
  951MOL0     C25445  10.779   1.738   9.035  0.0810  0.4511 -0.8196
  951MOL0     C25446  10.742   1.854   8.970 -0.8532  0.5345  0.3175
  951MOL0     O25447  10.914   2.018   8.664  0.5049 -0.1441 -0.3001
  951MOL0     C25448  10.826   2.204   8.482 -1.2538  0.2825 -0.4208
  951MOL0     C25449  10.791   2.322   8.419 -1.6730 -1.3181  0.1969
  951MOL0     N25450  10.593   3.016   8.355  0.0801 -0.4706  0.6180
  951MOL0     N25451  10.550   3.134   8.370  0.0726  0.2810  0.3659
  951MOL0     C25452   9.866   3.135   7.481 -1.5125 -0.5231  0.0054
  951MOL0     C25453   9.810   3.055   7.381 -0.4538 -0.3902  0.2800
  951MOL0     C25454   9.705   2.732   7.092 -0.3201 -0.5750 -0.2873
  951MOL0     C25455   9.819   2.674   7.028 -0.5155  0.2022 -0.5185
  951MOL0     C25456   9.811   2.558   6.953 -0.3946  0.5623 -0.4232
  951MOL0     C25457   9.680   2.491   6.939 -0.6946  0.4786  0.1263
  951MOL0     O25458   9.673   2.364   6.892  0.6979 -0.1458  0.4364
  951MOL0     C25459   9.767   2.323   6.798 -0.3094 -0.4451 -0.6307
  951MOL0     C25460   9.722   2.187   6.733  0.1558  0.0393  0.4421
  951MOL0     C25461   9.582   2.181   6.681 -0.4232 -1.0985  0.7155
  951MOL0     C25462   9.538   2.316   6.609  0.3247 -0.6524  0.4912
  951MOL0     C25463   9.614   2.350   6.487 -0.3699  0.3480 -0.4439
  951MOL0     C25464   9.656   2.382   6.377 -0.3675 -0.4615 -0.5823
  951MOL0     C25465   9.576   2.553   7.001  0.2964 -0.7243  0.2394
  951MOL0     C25466   9.584   2.671   7.073  0.2350 -0.7121  0.0531
  951MOL0     H25467  10.077   2.991   7.184  1.2780  1.1931  0.7515
  951MOL0     H25468  10.181   3.144   7.361 -0.2857 -1.2419  1.0401
  951MOL0     H25469   9.976   3.170   7.714  2.5314 -1.3464  3.1111
  951MOL0     H25470   9.949   3.350   7.677  2.3793  2.3581 -2.5740
  951MOL0     H25471  10.186   3.198   7.791  0.8572  1.0133 -1.5852
  951MOL0     H25472  10.080   3.312   7.883 -0.0287  2.6283 -0.1707
  951MOL0     H25473  10.169   3.493   7.747  0.4132  0.1648  0.7172
  951MOL0     H25474  10.276   3.374   7.676 -0.3995 -0.4171 -0.1002
  951MOL0     H25475  10.376   3.524   7.869  1.3185 -0.4027  0.5789
  951MOL0     H25476  10.250   3.466   7.974 -1.4490 -0.2535 -1.8777
  951MOL0     H25477  10.445   3.282   7.828 -0.9338 -1.7699 -0.5126
  951MOL0     H25478  10.341   3.227   7.954  0.3205 -1.1533  0.1583
  951MOL0     H25479  10.573   3.427   7.993  1.6605 -1.4546  0.6710
  951MOL0     H25480  10.562   3.252   8.035  0.1606  0.4090  0.5635
  951MOL0     H25481  10.551   3.390   8.238  0.7361 -0.1707 -1.0543
  951MOL0     H25482  10.411   3.468   8.177  2.2538  0.0512 -1.5358
  951MOL0     H25483  10.297   3.250   8.165  1.1227  3.8411 -2.9720
  951MOL0     H25484  10.324   3.300   8.331  0.3849 -1.9203  1.2183
  951MOL0     H25485  10.374   3.000   8.113  1.5484 -0.7435 -2.0193
  951MOL0     H25486  10.652   2.786   8.193  0.3322  0.5443 -0.3373
  951MOL0     H25487  10.495   2.804   8.118  2.0837 -0.4946 -2.4828
  951MOL0     H25488  10.483   2.608   8.276 -3.5725 -0.5501  0.8697
  951MOL0     H25489  10.370   2.742   8.306  0.4305  1.3854  2.1627
  951MOL0     H25490  10.513   2.791   8.510  1.5446  0.7424  0.0097
  951MOL0     H25491  10.481   2.617   8.510  0.9346  0.1337  1.3295
  951MOL0     H25492  10.718   2.658   8.546  1.8219 -3.1129 -1.1867
  951MOL0     H25493  10.726   2.732   8.389  0.6272  0.0806  0.5701
  951MOL0     H25494  10.618   2.491   8.657 -1.3085 -0.9879  0.0169
  951MOL0     H25495  10.643   2.284   8.770  0.2497  4.2024  0.0413
  951MOL0     H25496  10.817   1.747   8.655 -2.0969  1.1596  0.1631
  951MOL0     H25497  10.885   1.552   8.774  5.0040  0.5092  0.2370
  951MOL0     H25498  10.656   1.476   9.121  0.0481  0.6594 -3.4799
  951MOL0     H25499  10.783   1.513   9.236  0.3546 -0.0252  1.0427
  951MOL0     H25500  10.870   1.299   9.243  0.9942  1.5268  0.8592
  951MOL0     H25501  10.778   1.233   9.102 -0.0583 -1.3857  1.9360
  951MOL0     H25502  10.573   1.244   9.225  2.0596 -1.8889 -0.0875
  951MOL0     H25503  10.657   1.319   9.357 -2.0359  0.3383 -0.8424
  951MOL0     H25504  10.692   1.043   9.252 -3.6681  0.5012 -0.0470
  951MOL0     H25505  10.800   1.135   9.375 -0.7780  0.3476 -0.7443
  951MOL0     H25506  10.508   1.064   9.411  0.5728  2.3204 -0.9208
  951MOL0     H25507  10.603   1.151   9.524  0.4526  1.0595 -1.2061
  951MOL0     H25508  10.551   0.904   9.588 -1.1593  1.3399  1.3621
  951MOL0     H25509  10.715   0.969   9.597  0.6873 -1.9622 -0.2413
  951MOL0     H25510  10.653   0.827   9.338  1.3927  2.9449 -0.6592
  951MOL0     H25511  10.801   0.844   9.427  0.1945 -0.3285 -1.8519
  951MOL0     H25512  10.713   0.670   9.589  1.3579 -3.7124 -1.1095
  951MOL0     H25513  10.762   0.626   9.424  3.5023 -0.5669  3.5717
  951MOL0     H25514  10.761   1.728   9.142 -2.7757  0.4308 -1.2333
  951MOL0     H25515  10.690   1.932   9.024 -0.6424  2.0484 -1.5821
  951MOL0     H25516  10.893   2.130   8.440  0.8821  2.5498 -1.2683
  951MOL0     H25517  10.837   2.339   8.323  0.0260  1.0265  1.3250
  951MOL0     H25518   9.818   3.170   7.571 -3.8599 -0.8199 -1.0680
  951MOL0     H25519   9.703   3.038   7.387 -0.6930 -0.5525 -2.6762
  951MOL0     H25520   9.911   2.728   7.047  0.2420 -1.3245  0.3391
  951MOL0     H25521   9.907   2.521   6.919 -1.4438 -0.1478 -2.8311
  951MOL0     H25522   9.862   2.297   6.846 -0.1513  2.5990  1.0031
  951MOL0     H25523   9.778   2.401   6.722  1.6124 -1.2306 -1.2211
  951MOL0     H25524   9.794   2.176   6.651  0.8298 -3.4034  1.3146
  951MOL0     H25525   9.730   2.107   6.807  0.8803 -0.5012 -0.2003
  951MOL0     H25526   9.512   2.163   6.763 -1.1928  2.2139  0.9133
  951MOL0     H25527   9.574   2.102   6.605  2.5685 -0.0926 -0.8037
  951MOL0     H25528   9.432   2.299   6.587 -0.4837  1.7200  2.2029
  951MOL0     H25529   9.546   2.402   6.676  2.6085 -0.5318  0.1588
  951MOL0     H25530   9.699   2.426   6.289  0.0110 -2.5826 -1.5262
  951MOL0     H25531   9.480   2.504   6.987  0.7328 -1.1486 -1.5876
  951MOL0     H25532   9.495   2.712   7.119  0.3657 -1.5904  1.1487
  952MOL0     O25533   3.838   1.071   3.763 -0.6361 -0.2966  0.3544
  952MOL0     C25534   3.737   1.085   3.697  0.2775 -0.0301 -0.6726
  952MOL0     O25535   3.682   0.999   3.607 -0.2426  0.5081 -0.3246
  952MOL0     C25536   3.757   0.898   3.554 -0.2775  0.1204 -0.0168
  952MOL0     C25537   3.700   0.779   3.526 -0.2399  0.1269 -0.0111
  952MOL0     C25538   3.772   0.677   3.471 -0.4487  0.3692  0.3308
  952MOL0     C25539   3.916   0.688   3.446  0.8633  0.7525 -0.8016
  952MOL0     O25540   4.003   0.597   3.397  0.3988 -0.5327  0.6768
  952MOL0     C25541   3.955   0.469   3.373  0.1309  0.6121 -0.9097
  952MOL0     C25542   4.021   0.413   3.245  0.1755 -0.5399 -0.4030
  952MOL0     C25543   4.165   0.371   3.256 -0.5831  0.1165 -0.4904
  952MOL0     C25544   4.216   0.303   3.125  1.1128  0.2583 -0.6732
  952MOL0     C25545   4.367   0.293   3.136  0.0220 -0.0808 -0.0545
  952MOL0     C25546   4.428   0.258   2.998  0.8111 -0.3635  0.5781
  952MOL0     C25547   4.577   0.256   2.998 -0.0222  0.1642 -0.4426
  952MOL0     C25548   4.632   0.196   2.869 -0.1852 -0.3275 -0.1533
  952MOL0     N25549   4.738   0.282   2.829 -0.2063 -0.1936 -0.4920
  952MOL0     C25550   4.866   0.241   2.825  0.2035  0.1383 -0.9280
  952MOL0     C25551   4.918   0.316   2.735  0.5492  0.4465  0.3035
  952MOL0     C25552   5.062   0.316   2.686 -1.0351 -0.6103 -0.1276
  952MOL0     C25553   5.119   0.444   2.743  0.2088 -0.4112 -0.2117
  952MOL0     C25554   5.268   0.461   2.713 -0.5226 -0.5393 -0.2399
  952MOL0     C25555   5.318   0.584   2.808  0.0030 -0.2360  0.3622
  952MOL0     O25556   5.429   0.648   2.746 -0.1439 -0.0986 -0.8576
  952MOL0     C25557   5.499   0.743   2.818  0.1573 -0.3721 -0.4089
  952MOL0     C25558   5.493   0.780   2.959 -0.1270 -0.5074  0.5942
  952MOL0     C25559   5.570   0.883   3.015 -0.4906  0.4531  0.3825
  952MOL0     C25560   5.657   0.950   2.932  0.1741 -0.8065  0.1386
  952MOL0     C25561   5.731   1.067   2.990 -0.2345  0.2369 -0.1077
  952MOL0     O25562   5.773   1.168   2.913 -0.3283  0.5097  0.6617
  952MOL0     C25563   5.791   1.284   2.982  0.3490  0.0858  0.0880
  952MOL0     C25564   5.906   1.352   2.962 -0.6896 -0.2039  0.7006
  952MOL0     C25565   5.931   1.471   3.036  0.7045 -0.3893  0.3754
  952MOL0     C25566   5.846   1.529   3.130 -0.4652  0.6099 -0.1037
  952MOL0     O25567   5.838   1.659   3.178 -0.1197  0.5452  0.1112
  952MOL0     C25568   5.927   1.754   3.113 -0.9011  0.0295 -0.0162
  952MOL0     C25569   6.054   1.746   3.212 -0.0935  0.0966  0.4977
  952MOL0     C25570   6.052   1.843   3.330 -0.3379 -0.9554  0.8362
  952MOL0     C25571   5.953   1.806   3.434 -0.4792 -0.0509  0.2031
  952MOL0     C25572   5.989   1.843   3.582  0.0841 -0.0845 -1.1448
  952MOL0     C25573   5.873   1.825   3.671  0.4062 -0.5977 -0.3929
  952MOL0     C25574   5.892   1.854   3.819 -0.5821  0.6473 -0.0724
  952MOL0     C25575   5.802   1.787   3.922  0.7887 -0.7261  0.1699
  952MOL0    Cl25576   5.866   1.618   3.926 -0.6620  0.1233  0.5175
  952MOL0     C25577   5.727   1.458   3.145  1.0176 -0.1657 -0.0594
  952MOL0     C25578   5.694   1.336   3.079 -0.8053  0.1477 -0.2055
  952MOL0     O25579   5.740   1.065   3.115  0.1813 -0.6172 -0.1779
  952MOL0     C25580   5.667   0.930   2.793  0.9857  0.3802  0.0709
  952MOL0     C25581   5.592   0.822   2.747 -1.0021  0.6049  0.1072
  952MOL0     N25582   4.815   0.388   2.673  0.8954 -0.4190 -0.4784
  952MOL0     N25583   4.708   0.377   2.735 -0.5754  0.0508 -0.1266
  952MOL0     C25584   3.968   0.806   3.470 -1.4467 -0.4554  0.2152
  952MOL0     C25585   3.896   0.914   3.519 -0.0326 -0.0003 -0.1508
  952MOL0     C25586   3.652   1.201   3.738  0.0502 -0.4100  0.8998
  952MOL0     C25587   3.584   1.274   3.639 -0.4382  0.1058  1.5848
  952MOL0     C25588   3.519   1.392   3.666 -0.1174  0.4773  1.1598
  952MOL0     C25589   3.513   1.441   3.797 -0.2056 -0.7663 -0.1522
  952MOL0     O25590   3.441   1.555   3.806  0.4047  0.1114 -0.2071
  952MOL0     C25591   3.379   1.581   3.931  0.1556  0.3727  0.3198
  952MOL0     C25592   3.479   1.645   4.012 -0.0921 -0.6898  0.4307
  952MOL0     C25593   3.436   1.677   4.152  0.6576  0.0268 -0.4761
  952MOL0     C25594   3.481   1.818   4.193  0.2300 -0.5682 -0.0708
  952MOL0     C25595   3.430   1.841   4.328  0.3544  0.6275 -0.2962
  952MOL0     C25596   3.368   1.875   4.424  0.1130  0.5235 -0.0640
  952MOL0     C25597   3.560   1.357   3.903 -1.1421 -0.0103 -0.1975
  952MOL0     C25598   3.644   1.245   3.870  0.0002  0.0634 -0.5072
  952MOL0     H25599   3.592   0.779   3.538 -0.8130 -4.3103 -2.7177
  952MOL0     H25600   3.712   0.589   3.456 -2.8875  1.6424  1.9832
  952MOL0     H25601   3.847   0.465   3.354 -0.2723 -2.1058  1.2158
  952MOL0     H25602   3.976   0.398   3.454 -2.7831 -1.2160 -1.6074
  952MOL0     H25603   4.009   0.484   3.162 -1.0032 -0.2253  0.0126
  952MOL0     H25604   3.967   0.323   3.215  1.3063 -0.6054 -2.3861
  952MOL0     H25605   4.187   0.303   3.339  2.7779  1.3585 -0.1988
  952MOL0     H25606   4.222   0.462   3.278  1.0958  0.6140 -5.6313
  952MOL0     H25607   4.174   0.205   3.103  2.0284 -0.5878  1.1733
  952MOL0     H25608   4.192   0.354   3.031  1.6673 -0.3021 -1.1291
  952MOL0     H25609   4.397   0.209   3.199  0.1016 -1.1853 -1.5057
  952MOL0     H25610   4.413   0.384   3.175 -0.2295  0.9244 -1.9973
  952MOL0     H25611   4.391   0.331   2.925  5.4559  3.4390  1.5283
  952MOL0     H25612   4.393   0.161   2.963 -2.6010  0.6993  0.7438
  952MOL0     H25613   4.617   0.356   3.016 -1.1669  0.5548  0.0604
  952MOL0     H25614   4.613   0.200   3.085  1.2127  2.2307  0.4625
  952MOL0     H25615   4.562   0.195   2.784  1.3816 -1.7934 -1.4993
  952MOL0     H25616   4.662   0.094   2.895 -0.0611 -0.4986 -0.9418
  952MOL0     H25617   4.922   0.175   2.890  0.6794  0.1354 -1.3294
  952MOL0     H25618   5.060   0.330   2.578 -0.2080 -0.2239 -0.1012
  952MOL0     H25619   5.122   0.231   2.722  1.2820  1.5095  1.3725
  952MOL0     H25620   5.117   0.432   2.852  1.3520  0.9202 -0.0241
  952MOL0     H25621   5.070   0.529   2.695  1.0356 -1.0443 -2.3048
  952MOL0     H25622   5.323   0.370   2.742 -0.6002 -0.6207 -0.3478
  952MOL0     H25623   5.279   0.480   2.606  6.0044  1.1745  0.2974
  952MOL0     H25624   5.342   0.547   2.908 -1.2256  0.4328  0.9299
  952MOL0     H25625   5.241   0.661   2.814  2.7826  2.6339  1.9818
  952MOL0     H25626   5.431   0.726   3.030 -1.0079  5.6319  5.4079
  952MOL0     H25627   5.555   0.921   3.115 -2.2518  1.6750 -0.2938
  952MOL0     H25628   5.979   1.316   2.890 -0.3323 -0.7715  1.3309
  952MOL0     H25629   6.026   1.522   3.023  1.5754 -1.0497  3.3697
  952MOL0     H25630   5.887   1.855   3.128  1.2860  0.9490  0.1637
  952MOL0     H25631   5.940   1.726   3.008 -0.4801  0.3436 -0.0526
  952MOL0     H25632   6.149   1.759   3.159  0.1172 -0.1800  0.8102
  952MOL0     H25633   6.064   1.643   3.246 -2.4111  0.3400  2.1303
  952MOL0     H25634   6.013   1.941   3.302  0.7310 -1.3018 -2.2761
  952MOL0     H25635   6.152   1.855   3.372 -0.7338  0.3481  1.4447
  952MOL0     H25636   5.862   1.861   3.412  1.2170  3.4519  1.1920
  952MOL0     H25637   5.929   1.700   3.430 -0.8232 -0.1511  2.8377
  952MOL0     H25638   6.025   1.946   3.588 -0.3696  0.0718 -1.0611
  952MOL0     H25639   6.072   1.779   3.614 -0.1723  1.5231  3.4787
  952MOL0     H25640   5.831   1.727   3.648  0.4378 -0.4700 -1.0196
  952MOL0     H25641   5.797   1.899   3.646  0.6032 -0.1785  0.2309
  952MOL0     H25642   5.996   1.843   3.850 -0.0332 -3.2678 -2.5404
  952MOL0     H25643   5.857   1.956   3.836  0.3376  1.0531 -0.5147
  952MOL0     H25644   5.693   1.785   3.912  0.8358 -0.2585 -0.5053
  952MOL0     H25645   5.826   1.836   4.017 -0.1211 -0.6922  0.3998
  952MOL0     H25646   5.654   1.491   3.218 -0.9764  1.1315 -2.4814
  952MOL0     H25647   5.605   1.278   3.101 -2.3478  1.4714 -2.4818
  952MOL0     H25648   5.724   0.992   2.724  0.7820 -1.8754 -2.2961
  952MOL0     H25649   5.610   0.803   2.642 -4.0222 -1.4898 -0.1474
  952MOL0     H25650   4.073   0.821   3.444 -1.1589 -5.5121 -2.6660
  952MOL0     H25651   3.949   1.008   3.531 -1.9936  1.2769 -1.0376
  952MOL0     H25652   3.593   1.229   3.541 -1.2180  0.9941  1.0980
  952MOL0     H25653   3.486   1.459   3.588  1.4761  0.0089  0.0187
  952MOL0     H25654   3.355   1.488   3.982  0.2089  0.0279 -0.2757
  952MOL0     H25655   3.283   1.634   3.924 -0.6728 -0.6952  2.7373
  952MOL0     H25656   3.576   1.597   4.008  0.5351  0.6219 -0.7810
  952MOL0     H25657   3.493   1.735   3.951 -3.2340 -0.6460 -0.4011
  952MOL0     H25658   3.466   1.604   4.228 -0.4754 -1.6371 -1.5557
  952MOL0     H25659   3.328   1.691   4.140  0.6187 -0.3226 -0.5181
  952MOL0     H25660   3.589   1.832   4.205 -0.1091  1.5864  0.8915
  952MOL0     H25661   3.449   1.897   4.125 -4.4698 -0.5703  1.8172
  952MOL0     H25662   3.293   1.903   4.495 -1.1976 -4.1545  0.7608
  952MOL0     H25663   3.564   1.396   4.005 -0.2747  4.3108 -1.6574
  952MOL0     H25664   3.716   1.205   3.940  2.5432  0.8819 -2.5081
  953MOL0     O25665   6.114   8.178   5.246  0.6030  0.8281 -0.1363
  953MOL0     C25666   6.167   8.225   5.143 -0.3854 -1.8551  0.4565
  953MOL0     O25667   6.274   8.308   5.142  0.7849 -0.6052  0.1527
  953MOL0     C25668   6.346   8.320   5.264  0.0993  0.9326  0.2060
  953MOL0     C25669   6.413   8.212   5.319 -0.4243  0.5289 -1.2267
  953MOL0     C25670   6.491   8.213   5.441  0.3275  0.2021 -0.4166
  953MOL0     C25671   6.510   8.329   5.507  0.7786  0.1526 -0.1006
  953MOL0     O25672   6.594   8.323   5.622  0.7343 -0.1221  0.0750
  953MOL0     C25673   6.548   8.388   5.737  0.3024  0.6294  0.7458
  953MOL0     C25674   6.656   8.466   5.801  0.5183  0.2841 -0.3714
  953MOL0     C25675   6.700   8.585   5.722 -0.1756 -0.0813 -0.0170
  953MOL0     C25676   6.809   8.686   5.774 -0.0248 -0.9382 -0.4430
  953MOL0     C25677   6.833   8.793   5.673  0.9895 -0.1917  0.1266
  953MOL0     C25678   6.961   8.854   5.700 -1.0510 -0.4312 -0.3052
  953MOL0     C25679   6.986   8.972   5.601 -0.2916 -0.9842  0.0180
  953MOL0     C25680   6.894   9.097   5.634 -0.2561 -0.0663  0.2567
  953MOL0     N25681   6.963   9.222   5.593 -0.3361 -0.7197  1.1254
  953MOL0     C25682   7.007   9.261   5.468  0.1029 -0.0318  0.5642
  953MOL0     C25683   7.043   9.389   5.480 -0.8990 -0.9296  0.4804
  953MOL0     C25684   7.115   9.480   5.380  0.4513  0.2893 -0.4000
  953MOL0     C25685   7.215   9.582   5.448  0.2773  0.5946  0.3259
  953MOL0     C25686   7.321   9.631   5.335 -0.2223 -0.1229 -0.3039
  953MOL0     C25687   7.242   9.709   5.231  0.2258 -1.1954  0.5982
  953MOL0     O25688   7.330   9.761   5.137  0.2236  0.3728 -0.4557
  953MOL0     C25689   7.387   9.885   5.151 -0.3533  0.2475 -0.6267
  953MOL0     C25690   7.506   9.896   5.097  0.0592 -0.5059 -0.3651
  953MOL0     C25691   7.582  10.007   5.105 -0.0569 -0.3960 -0.1251
  953MOL0     C25692   7.552  10.120   5.177  1.9860 -0.4170  0.6461
  953MOL0     C25693   7.643  10.230   5.208  0.8528  0.4861 -0.1181
  953MOL0     O25694   7.747  10.259   5.123  0.1551  0.6570 -0.3124
  953MOL0     C25695   7.833  10.353   5.157 -1.2651 -0.3513  0.8061
  953MOL0     C25696   7.916  10.397   5.039 -0.0580  0.7688  0.8452
  953MOL0     C25697   8.011  10.492   5.050 -0.3317 -0.2285  1.2738
  953MOL0     C25698   8.025  10.555   5.173 -0.8703 -0.5468  0.3328
  953MOL0     O25699   8.106  10.669   5.190  0.8797 -0.2875  0.1163
  953MOL0     C25700   8.194  10.702   5.077  1.1020 -0.2074  0.0842
  953MOL0     C25701   8.241  10.849   5.107  0.4019  0.2555 -1.2575
  953MOL0     C25702   8.281  10.922   4.974 -0.6799  0.3172  0.5400
  953MOL0     C25703   8.390  10.859   4.888  0.7559  0.1106 -0.6711
  953MOL0     C25704   8.421  10.940   4.754  0.2572 -0.1726 -0.8563
  953MOL0     C25705   8.305  10.939   4.649  0.5197  0.5176  0.4956
  953MOL0     C25706   8.340  10.995   4.511  0.2978 -0.2236  0.4132
  953MOL0     C25707   8.425  10.897   4.418  0.4249 -0.2791  0.3296
  953MOL0    Cl25708   8.412  10.730   4.470  0.2900  0.0411  0.2731
  953MOL0     C25709   7.942  10.529   5.279  0.5139 -0.0238 -0.4494
  953MOL0     C25710   7.851  10.432   5.275  0.4337  1.1112 -0.1238
  953MOL0     O25711   7.615  10.288   5.317 -0.0266 -0.7969  0.5577
  953MOL0     C25712   7.432  10.105   5.251 -1.0360  0.2969 -0.2564
  953MOL0     C25713   7.346   9.994   5.237 -0.0954  0.4824 -0.2495
  953MOL0     N25714   7.006   9.433   5.604  0.0903 -0.4011 -0.3133
  953MOL0     N25715   6.975   9.330   5.675  0.3362  0.2650 -0.1356
  953MOL0     C25716   6.439   8.446   5.448 -0.1987 -0.1032 -0.7929
  953MOL0     C25717   6.354   8.440   5.332 -0.2833 -0.2499  0.8746
  953MOL0     C25718   6.089   8.206   5.022  0.0714  0.1163 -0.5067
  953MOL0     C25719   6.130   8.275   4.903 -0.5614 -0.7978 -0.1746
  953MOL0     C25720   6.065   8.247   4.788  0.0003  0.4287  0.8169
  953MOL0     C25721   5.956   8.155   4.779 -0.5028 -0.0824 -0.5279
  953MOL0     O25722   5.879   8.114   4.680 -0.2778 -0.3518 -0.1158
  953MOL0     C25723   5.910   8.164   4.554 -0.6214 -0.5720  0.3403
  953MOL0     C25724   5.832   8.101   4.442  0.3081 -0.5981  0.3499
  953MOL0     C25725   5.838   8.174   4.312  0.3780  0.1670 -0.2063
  953MOL0     C25726   5.765   8.319   4.304 -0.0979  0.0532 -0.3413
  953MOL0     C25727   5.788   8.376   4.169 -0.1050  1.0246 -0.1743
  953MOL0     C25728   5.786   8.419   4.055 -0.0540  0.5496 -0.5093
  953MOL0     C25729   5.924   8.081   4.899  0.9655 -0.6523 -1.3067
  953MOL0     C25730   5.982   8.108   5.021 -0.0339 -1.4929  1.1692
  953MOL0     H25731   6.411   8.116   5.269  2.6897 -0.6088  0.5871
  953MOL0     H25732   6.551   8.125   5.459 -0.9800 -0.0595  3.7609
  953MOL0     H25733   6.498   8.314   5.799  0.8854 -1.4729 -1.1567
  953MOL0     H25734   6.470   8.452   5.695  0.2350 -0.3866 -0.7473
  953MOL0     H25735   6.746   8.405   5.817 -0.6302 -1.0519  1.4079
  953MOL0     H25736   6.611   8.493   5.897 -1.9576  1.5386 -1.7905
  953MOL0     H25737   6.614   8.651   5.708 -1.0572 -1.1337  0.3383
  953MOL0     H25738   6.734   8.544   5.626  3.2007 -1.8751  1.7420
  953MOL0     H25739   6.779   8.725   5.872 -1.0792  0.3101 -1.2250
  953MOL0     H25740   6.899   8.627   5.793 -0.5694 -1.0779  2.1758
  953MOL0     H25741   6.752   8.865   5.678  1.1315  0.0092 -0.4343
  953MOL0     H25742   6.821   8.736   5.581 -2.2618 -4.1078  2.5748
  953MOL0     H25743   7.041   8.781   5.683  0.3018  0.9756 -0.2064
  953MOL0     H25744   6.965   8.887   5.804  1.5428  0.4745 -0.6228
  953MOL0     H25745   7.094   8.986   5.603 -0.4658  0.4253  0.9791
  953MOL0     H25746   6.966   8.950   5.495  0.8268  0.1730 -0.4547
  953MOL0     H25747   6.869   9.109   5.740 -1.1723 -1.0868  0.1729
  953MOL0     H25748   6.797   9.098   5.584 -1.4751  0.1969  2.4876
  953MOL0     H25749   7.013   9.198   5.380 -0.6510  0.2951  0.2715
  953MOL0     H25750   7.035   9.545   5.344  0.8506  0.0986 -1.6490
  953MOL0     H25751   7.160   9.422   5.299  0.4719 -0.6862  0.2869
  953MOL0     H25752   7.276   9.531   5.523  2.1074  3.4023  0.8760
  953MOL0     H25753   7.156   9.654   5.506 -0.2763  0.3581  0.0624
  953MOL0     H25754   7.404   9.687   5.379  2.5695 -4.9064  1.1928
  953MOL0     H25755   7.381   9.553   5.287  0.8896  1.6918 -2.0534
  953MOL0     H25756   7.180   9.788   5.275 -0.6824 -0.7974 -1.3118
  953MOL0     H25757   7.161   9.653   5.183  2.0579 -0.3735 -3.9260
  953MOL0     H25758   7.530   9.815   5.028 -1.1646  0.0155 -1.4404
  953MOL0     H25759   7.681  10.013   5.061  2.4182  1.1709  4.9233
  953MOL0     H25760   7.893  10.339   4.949 -0.4550  1.0640  0.7560
  953MOL0     H25761   8.081  10.507   4.968 -0.7226 -1.8293  0.6013
  953MOL0     H25762   8.144  10.690   4.981 -3.9907 -0.4515  2.4248
  953MOL0     H25763   8.281  10.636   5.072  0.3005 -1.1969 -1.9261
  953MOL0     H25764   8.323  10.848   5.180 -0.4088  0.3954 -0.3262
  953MOL0     H25765   8.160  10.895   5.163 -0.3792 -2.0070 -0.4166
  953MOL0     H25766   8.318  11.022   4.997 -3.8075  1.9484 -0.7784
  953MOL0     H25767   8.193  10.933   4.910 -0.2823 -0.8545 -0.2266
  953MOL0     H25768   8.482  10.873   4.947  0.0078 -0.7050  0.7427
  953MOL0     H25769   8.355  10.756   4.872  0.1089  0.2524 -0.2086
  953MOL0     H25770   8.506  10.891   4.706  0.7325  1.3276 -1.5812
  953MOL0     H25771   8.441  11.045   4.774 -3.0563  0.1916  1.5215
  953MOL0     H25772   8.221  11.000   4.682  0.1101  0.9186 -1.1723
  953MOL0     H25773   8.270  10.836   4.637  0.7395  0.6269 -1.3739
  953MOL0     H25774   8.243  11.014   4.463 -0.0567  3.4438  2.2063
  953MOL0     H25775   8.381  11.097   4.518 -1.7870  0.8184 -1.3156
  953MOL0     H25776   8.528  10.932   4.427 -0.3817  2.8627 -1.3202
  953MOL0     H25777   8.392  10.906   4.314  1.0372 -1.2108  0.0406
  953MOL0     H25778   7.960  10.592   5.365 -0.8021 -1.4562  0.9513
  953MOL0     H25779   7.792  10.410   5.363  1.9679  0.3822  0.7502
  953MOL0     H25780   7.401  10.174   5.329 -0.3709  1.8341 -1.2801
  953MOL0     H25781   7.257   9.982   5.299 -1.4655 -0.6623 -2.3159
  953MOL0     H25782   6.445   8.547   5.488  0.8149 -1.1432  1.9381
  953MOL0     H25783   6.299   8.522   5.288 -1.4730 -2.1662 -1.4619
  953MOL0     H25784   6.218   8.338   4.902 -0.8980 -0.2247  1.8420
  953MOL0     H25785   6.114   8.291   4.702  5.1355  0.1619  3.2343
  953MOL0     H25786   6.014   8.152   4.523 -0.7833  2.5298 -1.9122
  953MOL0     H25787   5.897   8.273   4.560  2.7530 -0.1183  2.0186
  953MOL0     H25788   5.880   8.003   4.432 -0.1135 -0.9603  1.6455
  953MOL0     H25789   5.726   8.092   4.469 -0.3275  2.2296 -0.9086
  953MOL0     H25790   5.805   8.109   4.230  1.8885 -1.3530  0.3127
  953MOL0     H25791   5.945   8.195   4.299  1.3664 -4.5997 -1.9185
  953MOL0     H25792   5.657   8.306   4.311 -0.3992  1.4445 -1.8071
  953MOL0     H25793   5.813   8.382   4.380  1.5827 -0.9924 -0.4743
  953MOL0     H25794   5.782   8.451   3.952 -0.4877 -1.9981 -1.3513
  953MOL0     H25795   5.848   8.003   4.901  0.1349  0.1349  0.7316
  953MOL0     H25796   5.948   8.048   5.106 -1.2604  0.3887  2.0594
  954MOL0     O25797   9.530   0.683   9.917  0.7592 -0.0791 -0.0878
  954MOL0     C25798   9.529   0.704  10.040 -0.3416 -0.3804  0.6012
  954MOL0     O25799   9.453   0.808  10.100 -0.7906 -0.1120  0.7623
  954MOL0     C25800   9.347   0.870  10.029 -0.3966 -0.6847  0.6710
  954MOL0     C25801   9.303   0.990  10.086 -0.1366  0.2705  0.0745
  954MOL0     C25802   9.215   1.082  10.025  0.6225  0.3671  0.4183
  954MOL0     C25803   9.148   1.039   9.910  0.9170 -0.7692  0.5981
  954MOL0     O25804   9.062   1.131   9.853 -0.3215 -0.4146  0.2535
  954MOL0     C25805   8.965   1.096   9.752 -0.6438  0.3366 -0.4374
  954MOL0     C25806   8.843   1.026   9.810 -0.4693 -1.0588  0.5740
  954MOL0     C25807   8.756   0.962   9.700  0.2554 -0.7862 -0.2846
  954MOL0     C25808   8.652   0.870   9.752  0.0474  1.1195 -0.8902
  954MOL0     C25809   8.525   0.945   9.779  0.3087  0.3959  0.5201
  954MOL0     C25810   8.439   0.995   9.652 -1.0552  0.9975 -0.8756
  954MOL0     C25811   8.425   0.886   9.538 -0.9937  0.2297 -0.1163
  954MOL0     C25812   8.553   0.858   9.447 -0.1078  0.1570 -1.1574
  954MOL0     N25813   8.630   0.970   9.390 -0.9953  0.3108  0.4721
  954MOL0     C25814   8.578   1.093   9.356  0.3203 -0.3065 -0.2167
  954MOL0     C25815   8.669   1.164   9.294 -0.1494 -0.9009  0.1008
  954MOL0     C25816   8.650   1.310   9.233 -0.6498 -0.3931 -0.4582
  954MOL0     C25817   8.747   1.414   9.297 -0.2763  0.3624 -0.8393
  954MOL0     C25818   8.718   1.474   9.432 -0.6484 -0.2946 -0.4756
  954MOL0     C25819   8.582   1.551   9.429  0.5148  0.7363 -0.0116
  954MOL0     O25820   8.461   1.470   9.441  0.9173  0.4978  0.1287
  954MOL0     C25821   8.386   1.436   9.544  0.3968 -0.5249  0.0739
  954MOL0     C25822   8.318   1.313   9.531  0.4950  0.4146 -1.0800
  954MOL0     C25823   8.251   1.256   9.645 -0.7653  0.2589 -0.5789
  954MOL0     C25824   8.255   1.322   9.770  0.0611  0.0208 -0.5204
  954MOL0     C25825   8.209   1.262   9.892  0.0913  0.7762  0.3379
  954MOL0     O25826   8.137   1.144   9.880 -0.0070 -0.8334  0.5336
  954MOL0     C25827   8.104   1.082   9.994 -0.7232 -0.3060  0.4971
  954MOL0     C25828   7.981   1.087  10.047 -0.5409 -0.4325 -0.8934
  954MOL0     C25829   7.944   0.995  10.150 -0.8388  0.1507  0.4656
  954MOL0     C25830   8.032   0.890  10.189  0.0542  0.0987 -0.7013
  954MOL0     O25831   8.003   0.789  10.290 -0.6067  0.5563 -0.1477
  954MOL0     C25832   7.934   0.839  10.404  0.1823  0.7216  0.5918
  954MOL0     C25833   7.919   0.723  10.496  0.2947 -0.0067  0.4216
  954MOL0     C25834   7.813   0.626  10.454  1.1346 -0.0534  0.2613
  954MOL0     C25835   7.808   0.505  10.561 -0.3074 -0.2528  0.4488
  954MOL0     C25836   7.782   0.365  10.502 -1.1087 -0.7748  0.1944
  954MOL0     C25837   7.640   0.349  10.450 -0.7795 -0.6282  0.4023
  954MOL0     C25838   7.626   0.215  10.389 -0.8015  0.0311  0.9825
  954MOL0     C25839   7.486   0.187  10.318  0.1860 -0.4579 -0.4468
  954MOL0    Cl25840   7.497   0.050  10.197 -0.1536 -0.0975 -0.3368
  954MOL0     C25841   8.152   0.878  10.127  1.1170  0.6202 -0.3594
  954MOL0     C25842   8.188   0.976  10.033 -0.7973 -0.9678  0.2671
  954MOL0     O25843   8.214   1.318   9.996 -0.5305  0.0478 -0.4842
  954MOL0     C25844   8.306   1.455   9.773  0.4640 -0.7644  0.4714
  954MOL0     C25845   8.368   1.512   9.660 -0.8485  0.4855  0.4656
  954MOL0     N25846   8.785   1.098   9.289 -0.6369  0.0756 -0.0015
  954MOL0     N25847   8.764   0.985   9.355  0.9912  0.0739  0.8013
  954MOL0     C25848   9.161   0.900   9.868 -0.8348  0.3108  0.9020
  954MOL0     C25849   9.268   0.821   9.921 -0.2111 -0.2298  0.6363
  954MOL0     C25850   9.584   0.608  10.125  0.8354  1.3986 -0.6449
  954MOL0     C25851   9.667   0.502  10.080  0.0533  0.3514  0.4329
  954MOL0     C25852   9.729   0.414  10.177  1.1821  1.3857 -0.9378
  954MOL0     C25853   9.721   0.431  10.313  0.7278 -0.7297 -1.4789
  954MOL0     O25854   9.794   0.341  10.393  0.0645  0.7877 -0.1002
  954MOL0     C25855   9.803   0.356  10.530 -0.6338 -0.4166 -0.3914
  954MOL0     C25856   9.904   0.239  10.550 -0.6590  0.2239 -0.3538
  954MOL0     C25857   9.974   0.236  10.692 -0.6505  0.0022  0.3454
  954MOL0     C25858  10.081   0.351  10.706  0.5001 -0.2595 -0.5426
  954MOL0     C25859  10.199   0.324  10.619  0.1549 -0.7081 -0.2729
  954MOL0     C25860  10.287   0.306  10.546 -0.0504  1.1820 -0.8693
  954MOL0     C25861   9.636   0.535  10.365  0.2732 -1.1348  0.1241
  954MOL0     C25862   9.565   0.621  10.267  1.6050 -0.2354  0.3019
  954MOL0     H25863   9.365   1.030  10.165 -1.8740  1.8967  0.6774
  954MOL0     H25864   9.190   1.177  10.071  1.7369 -0.2655  2.4523
  954MOL0     H25865   9.009   1.048   9.664 -0.2678  1.8868 -1.1351
  954MOL0     H25866   8.936   1.189   9.702 -2.0483 -2.1779 -4.8371
  954MOL0     H25867   8.782   1.095   9.869 -2.8038 -2.1180 -0.4927
  954MOL0     H25868   8.873   0.955   9.887 -2.6976  1.9634  4.5730
  954MOL0     H25869   8.818   0.893   9.643 -0.6511 -1.7956 -0.0872
  954MOL0     H25870   8.709   1.043   9.643  0.8401 -0.4393 -0.2781
  954MOL0     H25871   8.627   0.780   9.696 -4.1293  2.1614 -1.0553
  954MOL0     H25872   8.684   0.841   9.852  1.6907  3.5740 -0.6307
  954MOL0     H25873   8.546   1.030   9.846  0.2578  0.6588  0.2048
  954MOL0     H25874   8.459   0.881   9.838 -0.1807  0.1383 -0.2937
  954MOL0     H25875   8.472   1.094   9.618 -0.5363 -0.1260 -4.0141
  954MOL0     H25876   8.342   1.023   9.693 -0.9278  0.9630 -0.5468
  954MOL0     H25877   8.377   0.797   9.579 -3.8682  0.5966 -2.4109
  954MOL0     H25878   8.358   0.935   9.467 -0.9369  0.7810  0.2049
  954MOL0     H25879   8.507   0.813   9.359 -2.0370  0.6481 -0.4551
  954MOL0     H25880   8.621   0.790   9.498 -0.0250  1.1283  0.0858
  954MOL0     H25881   8.479   1.136   9.371  1.0096  2.4421 -2.7880
  954MOL0     H25882   8.547   1.343   9.251 -0.8580  0.0962 -2.3466
  954MOL0     H25883   8.667   1.310   9.125 -0.4171 -2.0487 -0.4540
  954MOL0     H25884   8.744   1.505   9.235  1.9948  0.7773 -0.4061
  954MOL0     H25885   8.847   1.370   9.302 -0.0839  0.9198  1.8277
  954MOL0     H25886   8.722   1.401   9.513  2.1762  1.5450  1.2400
  954MOL0     H25887   8.798   1.544   9.456  0.9757 -0.7164 -3.9430
  954MOL0     H25888   8.579   1.605   9.333  3.9483 -0.5388 -0.9871
  954MOL0     H25889   8.575   1.626   9.508 -0.3892 -1.1821  1.8240
  954MOL0     H25890   8.316   1.269   9.432  2.0981  0.7238 -1.2674
  954MOL0     H25891   8.199   1.161   9.637  1.0482 -0.8444  0.1712
  954MOL0     H25892   7.917   1.171  10.021  1.5232  2.0876  1.5145
  954MOL0     H25893   7.852   1.017  10.204 -2.1896 -0.9344 -1.2397
  954MOL0     H25894   7.839   0.874  10.363  0.8448 -2.4628 -4.5478
  954MOL0     H25895   7.991   0.919  10.451  1.7007 -0.4154  0.7583
  954MOL0     H25896   7.869   0.771  10.581 -3.3810 -0.0859 -1.5247
  954MOL0     H25897   8.009   0.668  10.527  1.3403 -0.1680 -2.5819
  954MOL0     H25898   7.825   0.575  10.359  1.1629 -0.9305  0.7284
  954MOL0     H25899   7.715   0.675  10.456  0.6395 -0.9580  3.3496
  954MOL0     H25900   7.907   0.499  10.607  0.5678 -1.1335 -1.4398
  954MOL0     H25901   7.725   0.522  10.629 -2.4323 -0.3080 -1.9664
  954MOL0     H25902   7.797   0.295  10.585  2.0456  1.8346  2.0770
  954MOL0     H25903   7.853   0.338  10.424 -0.9577 -3.2324  1.0977
  954MOL0     H25904   7.616   0.422  10.373 -0.9523 -0.6557  0.4285
  954MOL0     H25905   7.563   0.364  10.526  1.2888 -0.7283  2.6422
  954MOL0     H25906   7.707   0.204  10.317 -1.2851  0.3283  0.3787
  954MOL0     H25907   7.638   0.140  10.468  0.3200  1.2129  1.9712
  954MOL0     H25908   7.452   0.279  10.268 -0.9794 -0.7144 -0.1644
  954MOL0     H25909   7.407   0.164  10.391 -0.6357 -1.1193 -1.5211
  954MOL0     H25910   8.221   0.795  10.136 -0.7753 -1.1812 -1.5085
  954MOL0     H25911   8.292   0.962  10.002  0.2535  0.0450  3.0122
  954MOL0     H25912   8.327   1.512   9.863  2.6000 -0.6118 -0.0630
  954MOL0     H25913   8.429   1.600   9.674  1.9577 -1.0584 -1.0622
  954MOL0     H25914   9.110   0.848   9.787  1.5558  0.9666 -1.1602
  954MOL0     H25915   9.296   0.725   9.880  2.2674  0.7824 -0.2323
  954MOL0     H25916   9.684   0.492   9.973  1.1821  0.3438  0.5950
  954MOL0     H25917   9.798   0.334  10.152 -0.2717  0.1310 -1.0992
  954MOL0     H25918   9.702   0.340  10.569 -0.4729 -0.7156 -0.0935
  954MOL0     H25919   9.839   0.456  10.553 -1.0388  0.3325 -2.7247
  954MOL0     H25920   9.861   0.139  10.547  0.4951 -0.2870 -0.1269
  954MOL0     H25921   9.989   0.241  10.481  0.5088  0.9010  1.0621
  954MOL0     H25922  10.025   0.140  10.699 -2.5154 -1.0512  0.1246
  954MOL0     H25923   9.902   0.256  10.772  1.3369 -1.1534  2.5249
  954MOL0     H25924  10.030   0.443  10.675 -0.2735 -1.8218 -4.6265
  954MOL0     H25925  10.111   0.358  10.811 -0.6421  0.4366 -0.2386
  954MOL0     H25926  10.372   0.283  10.485  0.6669 -3.3400  1.4464
  954MOL0     H25927   9.628   0.556  10.471  2.8158  1.0592 -0.0233
  954MOL0     H25928   9.507   0.698  10.316  3.4385  2.4138 -1.4471
  955MOL0     O25929   7.966   8.991   2.815  0.4259 -0.1016  0.1156
  955MOL0     C25930   8.082   9.030   2.828  0.1604 -0.1141 -1.1216
  955MOL0     O25931   8.162   9.025   2.940 -0.0912  0.2813  0.9101
  955MOL0     C25932   8.109   8.973   3.056  0.6659 -0.5687 -0.2774
  955MOL0     C25933   8.103   9.058   3.171  0.6654  0.1002 -0.1053
  955MOL0     C25934   8.041   9.007   3.292  0.8357 -0.9170  0.0854
  955MOL0     C25935   8.013   8.871   3.305  0.3260 -0.8706 -0.2422
  955MOL0     O25936   7.975   8.840   3.433  0.7823  0.3206  0.4490
  955MOL0     C25937   8.010   8.716   3.500 -0.2900  0.2527 -0.2728
  955MOL0     C25938   7.967   8.735   3.634 -0.6760  0.7667 -0.0395
  955MOL0     C25939   8.014   8.617   3.728  0.8804  0.2410 -0.3606
  955MOL0     C25940   8.168   8.581   3.725  0.4471 -1.4652 -1.6579
  955MOL0     C25941   8.197   8.445   3.801  0.7599  0.2385  0.4198
  955MOL0     C25942   8.140   8.445   3.938 -0.2279 -0.2397 -0.1011
  955MOL0     C25943   8.194   8.313   4.009 -0.2341 -0.4733 -1.4104
  955MOL0     C25944   8.163   8.329   4.160 -0.2434 -0.5926  0.1816
  955MOL0     N25945   8.212   8.207   4.221 -0.3906  0.7123 -0.4871
  955MOL0     C25946   8.155   8.085   4.194  0.7268 -0.5995 -0.0711
  955MOL0     C25947   8.236   7.998   4.246 -0.6569  0.9936 -0.1484
  955MOL0     C25948   8.203   7.855   4.271 -0.1188 -0.8503 -0.3008
  955MOL0     C25949   8.129   7.843   4.406 -0.4171 -0.4771  0.5099
  955MOL0     C25950   7.981   7.881   4.404  1.1450 -0.3600 -0.0005
  955MOL0     C25951   7.935   7.915   4.545  0.0665 -0.1638 -0.1523
  955MOL0     O25952   8.022   8.013   4.615 -0.0032 -0.1027  0.6559
  955MOL0     C25953   8.035   8.148   4.589 -0.1918 -0.3370  0.2326
  955MOL0     C25954   8.174   8.196   4.587  0.0093 -0.5561  1.3260
  955MOL0     C25955   8.196   8.330   4.557  0.3680  0.1264  0.2625
  955MOL0     C25956   8.087   8.422   4.544  0.2827  0.4410 -0.6256
  955MOL0     C25957   8.108   8.573   4.545 -0.4980 -0.2395  0.0078
  955MOL0     O25958   8.246   8.617   4.535  0.4032  0.8823 -0.3149
  955MOL0     C25959   8.279   8.746   4.514 -0.4520 -0.8767  0.1616
  955MOL0     C25960   8.269   8.827   4.622 -0.4079 -0.1119 -0.2666
  955MOL0     C25961   8.296   8.963   4.594  0.0213  1.3951  1.3681
  955MOL0     C25962   8.343   9.013   4.471  0.1542  0.5725 -0.1947
  955MOL0     O25963   8.358   9.154   4.456 -0.3027  0.4951 -0.1545
  955MOL0     C25964   8.358   9.226   4.331 -0.3630  1.1244 -0.2955
  955MOL0     C25965   8.357   9.375   4.346 -0.4296 -1.1748 -0.3711
  955MOL0     C25966   8.480   9.441   4.404  0.0084 -0.4633 -0.4092
  955MOL0     C25967   8.451   9.590   4.444  0.1594  0.4114  0.4799
  955MOL0     C25968   8.574   9.633   4.521 -0.8332  0.3151 -1.0807
  955MOL0     C25969   8.549   9.761   4.596  0.6616  0.4161  0.6036
  955MOL0     C25970   8.468   9.753   4.721  0.3191 -0.2425  1.1727
  955MOL0     C25971   8.479   9.879   4.802  1.0270 -0.1169  0.3038
  955MOL0    Cl25972   8.400  10.024   4.711 -0.7050  0.2991 -0.2873
  955MOL0     C25973   8.367   8.920   4.364  1.3156  0.3164 -0.6688
  955MOL0     C25974   8.321   8.791   4.389  0.5911 -0.2544 -0.6661
  955MOL0     O25975   8.007   8.638   4.536  0.0125  0.2621  0.4060
  955MOL0     C25976   7.962   8.358   4.533  0.4290 -0.6101  0.0950
  955MOL0     C25977   7.933   8.228   4.558  0.3530  0.0646  0.4624
  955MOL0     N25978   8.342   8.063   4.310  0.1498  1.3238 -0.2507
  955MOL0     N25979   8.332   8.190   4.289  0.1015 -0.1344  0.8860
  955MOL0     C25980   8.033   8.789   3.202 -0.3519  0.0159 -0.1133
  955MOL0     C25981   8.088   8.833   3.080  0.3758 -0.4656 -0.6504
  955MOL0     C25982   8.125   9.129   2.733  0.3039  0.7352 -0.2291
  955MOL0     C25983   8.259   9.156   2.709  0.2627 -0.3871 -0.6690
  955MOL0     C25984   8.293   9.261   2.631  0.3908  0.0987  0.5191
  955MOL0     C25985   8.199   9.326   2.558  0.9931  0.1909  0.0515
  955MOL0     O25986   8.244   9.410   2.470 -0.0567  0.5490 -0.1019
  955MOL0     C25987   8.272   9.349   2.349 -0.0877 -0.1663  0.0794
  955MOL0     C25988   8.356   9.457   2.275 -0.5815  0.4544  0.1843
  955MOL0     C25989   8.496   9.491   2.333  0.9794 -0.4061  0.4973
  955MOL0     C25990   8.512   9.635   2.409 -0.0366  0.2643 -0.6356
  955MOL0     C25991   8.647   9.654   2.473 -0.2687  0.3213  0.2864
  955MOL0     C25992   8.755   9.681   2.514 -0.5182 -1.0357  0.1067
  955MOL0     C25993   8.063   9.303   2.579  0.5103 -0.1534  0.3179
  955MOL0     C25994   8.032   9.196   2.664  0.1009 -0.4508  0.2707
  955MOL0     H25995   8.116   9.165   3.153 -5.1754  1.0982 -0.5688
  955MOL0     H25996   8.029   9.056   3.388  1.7366 -1.2548  0.3776
  955MOL0     H25997   8.119   8.713   3.489 -0.2867 -1.8247 -0.0845
  955MOL0     H25998   7.960   8.631   3.454 -1.5797  1.3285 -0.9140
  955MOL0     H25999   7.859   8.751   3.639 -0.6163  0.7640  1.7591
  955MOL0     H26000   8.015   8.827   3.667  1.6877  0.4378 -2.2953
  955MOL0     H26001   7.957   8.525   3.713  1.4304 -0.0277 -0.8435
  955MOL0     H26002   7.999   8.651   3.831  2.9760 -0.6223  0.2838
  955MOL0     H26003   8.189   8.554   3.621  4.0502 -0.8194 -1.2255
  955MOL0     H26004   8.231   8.665   3.758 -2.5223 -0.8000  3.3686
  955MOL0     H26005   8.305   8.432   3.807  1.2004  3.2258  0.3067
  955MOL0     H26006   8.146   8.365   3.746  0.4100  0.5345  0.3139
  955MOL0     H26007   8.031   8.440   3.935 -0.5253  2.4128  1.8981
  955MOL0     H26008   8.162   8.527   4.007 -0.4165 -2.3525  2.6596
  955MOL0     H26009   8.155   8.221   3.965  0.2190 -0.0933 -2.6594
  955MOL0     H26010   8.303   8.317   4.009  0.1056 -2.7469  3.5182
  955MOL0     H26011   8.056   8.346   4.175 -0.2457  1.6462 -1.6208
  955MOL0     H26012   8.221   8.408   4.208 -0.2995  0.4596 -1.3860
  955MOL0     H26013   8.056   8.083   4.151 -0.0072 -2.9149  1.5572
  955MOL0     H26014   8.301   7.807   4.278  1.2466  1.3090 -2.6849
  955MOL0     H26015   8.152   7.804   4.188  1.5099 -1.1198 -1.1810
  955MOL0     H26016   8.194   7.896   4.477  2.9330 -1.1991 -1.8193
  955MOL0     H26017   8.135   7.740   4.443  1.8302  0.2010  2.3234
  955MOL0     H26018   7.979   7.973   4.345  1.3182 -0.0315  0.4954
  955MOL0     H26019   7.916   7.808   4.356  2.1013 -1.9816  1.0700
  955MOL0     H26020   7.934   7.823   4.604  2.4817 -1.7261 -2.3061
  955MOL0     H26021   7.831   7.947   4.555 -0.3414 -1.2932 -0.6243
  955MOL0     H26022   8.254   8.123   4.595 -1.8584 -2.6368  2.1038
  955MOL0     H26023   8.300   8.361   4.558  1.0445 -1.8721  2.4400
  955MOL0     H26024   8.222   8.788   4.712 -2.5328 -3.4291 -2.5679
  955MOL0     H26025   8.279   9.032   4.677  2.1886  2.8458  0.6908
  955MOL0     H26026   8.262   9.201   4.283  1.5281 -0.7465 -3.4296
  955MOL0     H26027   8.441   9.186   4.273  0.1271 -0.0570  1.1423
  955MOL0     H26028   8.277   9.407   4.412  1.7376  2.3839  0.7966
  955MOL0     H26029   8.346   9.430   4.252 -0.1847 -0.0248  0.2664
  955MOL0     H26030   8.564   9.440   4.333 -0.2290  3.9220 -1.0314
  955MOL0     H26031   8.507   9.387   4.495 -1.2695 -1.7473 -0.7590
  955MOL0     H26032   8.420   9.657   4.363 -2.0032  2.3966  2.7709
  955MOL0     H26033   8.361   9.577   4.505 -2.1092 -0.9203 -2.8674
  955MOL0     H26034   8.660   9.646   4.454  0.3733 -0.6464  0.2195
  955MOL0     H26035   8.604   9.554   4.591 -1.4627 -1.3815 -2.6528
  955MOL0     H26036   8.492   9.833   4.537  0.7044  0.5276  0.6987
  955MOL0     H26037   8.646   9.795   4.634  0.3479 -0.8918  2.7242
  955MOL0     H26038   8.364   9.729   4.698  1.2842 -2.2170 -1.5578
  955MOL0     H26039   8.501   9.663   4.773 -2.6734 -0.3433  3.2120
  955MOL0     H26040   8.582   9.913   4.823  1.2784 -0.2522 -0.6419
  955MOL0     H26041   8.444   9.870   4.905  0.2820 -0.8290 -0.0103
  955MOL0     H26042   8.385   8.955   4.263  0.5781 -0.4496 -1.0767
  955MOL0     H26043   8.328   8.729   4.300  2.6342  1.4611 -1.7787
  955MOL0     H26044   7.886   8.432   4.510  1.4598  0.9880  1.5350
  955MOL0     H26045   7.834   8.192   4.530  0.4206  1.9319 -2.5311
  955MOL0     H26046   8.010   8.684   3.215  2.5870 -1.5287 -4.7450
  955MOL0     H26047   8.114   8.762   3.002 -0.5737 -3.8270  1.8497
  955MOL0     H26048   8.346   9.109   2.755  1.5955  3.6753  1.5393
  955MOL0     H26049   8.399   9.273   2.615  0.6205  0.5454  2.1102
  955MOL0     H26050   8.176   9.335   2.299  1.4176  2.0263 -3.8467
  955MOL0     H26051   8.328   9.256   2.364  2.5927  1.0163 -1.8224
  955MOL0     H26052   8.389   9.399   2.188  0.9855 -1.0904  1.7414
  955MOL0     H26053   8.289   9.539   2.247  2.1762  2.7964 -0.0098
  955MOL0     H26054   8.561   9.478   2.246 -0.9539 -0.5346 -0.9917
  955MOL0     H26055   8.513   9.414   2.408 -1.3870 -0.6423  0.8676
  955MOL0     H26056   8.505   9.723   2.345 -0.9131  0.2076 -0.6334
  955MOL0     H26057   8.428   9.648   2.477  0.0431 -3.3321  0.3723
  955MOL0     H26058   8.849   9.705   2.559 -1.0179 -2.0930  1.8136
  955MOL0     H26059   7.982   9.355   2.528 -2.2577  1.7365  5.8217
  955MOL0     H26060   7.924   9.183   2.665 -0.7836  4.7238  0.4274
  956MOL0     O26061   7.680   3.434  10.258 -0.0557 -0.0780  0.9735
  956MOL0     C26062   7.786   3.483  10.266 -1.0246 -0.7563 -0.0683
  956MOL0     O26063   7.895   3.464  10.178  0.3382 -0.0838  0.0484
  956MOL0     C26064   7.868   3.366  10.082  0.1956  0.0879  0.4294
  956MOL0     C26065   7.937   3.244  10.067 -0.9802 -0.9913 -0.0649
  956MOL0     C26066   7.896   3.147   9.978 -0.6506 -0.6110  0.3760
  956MOL0     C26067   7.793   3.174   9.877 -1.1778 -0.4778  0.9559
  956MOL0     O26068   7.767   3.090   9.777  0.2718  0.2114 -0.0625
  956MOL0     C26069   7.774   2.956   9.825 -1.0307 -0.2711  0.9768
  956MOL0     C26070   7.664   2.871   9.760 -0.1765  1.0340 -0.2330
  956MOL0     C26071   7.528   2.920   9.812  0.2598 -0.7459 -0.3018
  956MOL0     C26072   7.459   3.028   9.719  0.7040 -0.8104  0.0193
  956MOL0     C26073   7.439   2.978   9.576 -0.2587 -0.3197 -0.1728
  956MOL0     C26074   7.345   2.859   9.553  1.3293  0.1045 -0.0898
  956MOL0     C26075   7.304   2.853   9.402  0.3621  0.2944  0.4377
  956MOL0     C26076   7.359   2.731   9.333  0.1064  0.4772  0.0837
  956MOL0     N26077   7.500   2.741   9.284  0.5760  0.0782 -0.4563
  956MOL0     C26078   7.611   2.763   9.359 -1.3202  0.0711  0.5325
  956MOL0     C26079   7.703   2.743   9.261 -0.1685 -0.4182 -0.7981
  956MOL0     C26080   7.846   2.753   9.286 -0.1520 -0.1736  0.4766
  956MOL0     C26081   7.889   2.880   9.348 -0.3148 -0.4902  0.5584
  956MOL0     C26082   8.028   2.932   9.297  0.7616  0.0632 -0.3986
  956MOL0     C26083   8.063   3.057   9.371  0.3755 -0.3581  0.4469
  956MOL0     O26084   8.111   3.037   9.508 -0.8860 -0.0812  0.0396
  956MOL0     C26085   8.109   3.143   9.606  0.5749 -0.1356  0.5878
  956MOL0     C26086   8.054   3.269   9.586  1.4307  0.4205  1.4353
  956MOL0     C26087   8.074   3.371   9.683 -0.2924  0.5559  0.8155
  956MOL0     C26088   8.157   3.352   9.788 -0.4094 -1.2404  0.3239
  956MOL0     C26089   8.199   3.461   9.884  1.0887 -0.1014 -0.7261
  956MOL0     O26090   8.186   3.592   9.847  0.0676  0.0900  0.6613
  956MOL0     C26091   8.216   3.693   9.934  0.1606  0.1507 -0.4805
  956MOL0     C26092   8.115   3.754  10.020 -1.9127 -0.7694 -0.0123
  956MOL0     C26093   8.164   3.851  10.107 -0.8741 -0.6973 -0.8655
  956MOL0     C26094   8.298   3.883  10.129 -0.1906  0.3714  1.3339
  956MOL0     O26095   8.345   3.987  10.211  0.1152  0.7917 -0.3807
  956MOL0     C26096   8.261   4.068  10.284  0.9080 -0.0601 -0.6236
  956MOL0     C26097   8.324   4.113  10.416  0.2594 -0.4168  0.5833
  956MOL0     C26098   8.428   4.007  10.463 -0.0174 -0.3228  0.3074
  956MOL0     C26099   8.482   4.049  10.593  0.1369 -0.5348 -0.3787
  956MOL0     C26100   8.583   3.969  10.675  0.3203 -0.1529 -0.1522
  956MOL0     C26101   8.707   3.946  10.596 -0.1690 -0.7626  0.3221
  956MOL0     C26102   8.826   3.879  10.668  0.7587  0.5101 -0.7288
  956MOL0     C26103   8.924   3.829  10.562 -0.4294  0.1971 -0.6726
  956MOL0    Cl26104   9.075   3.785  10.652  0.4006  0.2998  0.3123
  956MOL0     C26105   8.388   3.810  10.050  0.3308 -0.1555  0.0576
  956MOL0     C26106   8.350   3.716   9.961 -0.3343  0.1109  0.8148
  956MOL0     O26107   8.242   3.423   9.998  0.6187 -0.1921  0.7554
  956MOL0     C26108   8.204   3.223   9.804  0.2611  0.0557 -0.0952
  956MOL0     C26109   8.172   3.124   9.720  0.2884  0.5756  0.5278
  956MOL0     N26110   7.654   2.724   9.135 -0.7143 -0.4965  0.7548
  956MOL0     N26111   7.531   2.719   9.157 -0.1047  0.0683  0.3133
  956MOL0     C26112   7.725   3.301   9.882 -0.6225 -0.0649  1.1088
  956MOL0     C26113   7.767   3.400   9.979  0.0372  0.5941 -0.2427
  956MOL0     C26114   7.818   3.560  10.384 -0.9967 -0.8251 -0.4049
  956MOL0     C26115   7.741   3.553  10.502 -0.7146 -0.0665  1.1305
  956MOL0     C26116   7.788   3.619  10.617 -0.3970 -0.2117 -0.3100
  956MOL0     C26117   7.914   3.680  10.619 -1.0297 -0.5758 -0.2313
  956MOL0     O26118   7.945   3.745  10.729  0.2368 -0.0290 -0.4429
  956MOL0     C26119   8.065   3.825  10.753  0.5761  0.3481 -0.0020
  956MOL0     C26120   8.125   3.793  10.899 -0.0080  1.0401 -0.4840
  956MOL0     C26121   8.029   3.851  11.007 -0.3367  0.0044  0.3988
  956MOL0     C26122   8.088   3.851  11.150 -0.6448  0.5121  0.4049
  956MOL0     C26123   7.992   3.914  11.235  0.9130 -0.4112  0.6970
  956MOL0     C26124   7.918   3.976  11.302 -0.0944  0.9752 -0.9950
  956MOL0     C26125   7.985   3.690  10.496  0.0417  0.7179  0.4530
  956MOL0     C26126   7.940   3.628  10.386 -0.2402 -0.0685  0.4837
  956MOL0     H26127   8.014   3.225  10.141 -1.7370 -0.1054  0.9838
  956MOL0     H26128   7.964   3.064   9.962  1.4691  0.9361  0.8845
  956MOL0     H26129   7.775   2.941   9.934 -2.0468 -0.5279  0.9638
  956MOL0     H26130   7.875   2.923   9.802 -1.6545  0.2790 -3.3388
  956MOL0     H26131   7.693   2.774   9.800 -0.9265  0.0507 -1.9888
  956MOL0     H26132   7.665   2.870   9.651  1.7433 -2.4907 -0.3300
  956MOL0     H26133   7.544   2.965   9.910  0.4943  0.9999 -1.0888
  956MOL0     H26134   7.452   2.841   9.816  0.7141 -1.1448  0.9511
  956MOL0     H26135   7.364   3.059   9.764 -2.4718 -2.4922 -4.7140
  956MOL0     H26136   7.520   3.119   9.717 -0.5986  0.1402 -2.9937
  956MOL0     H26137   7.533   2.949   9.528 -0.2889 -1.5643  0.4843
  956MOL0     H26138   7.392   3.058   9.519 -3.2380 -0.6378  1.6491
  956MOL0     H26139   7.255   2.871   9.614  2.9878 -0.3957  2.6185
  956MOL0     H26140   7.400   2.773   9.593  1.3020  1.0225  2.0724
  956MOL0     H26141   7.195   2.854   9.394  0.3553  1.3313  0.4770
  956MOL0     H26142   7.347   2.940   9.350 -0.8793  1.3438  1.1145
  956MOL0     H26143   7.301   2.696   9.247 -1.5137 -0.2795  1.4318
  956MOL0     H26144   7.370   2.650   9.406  4.2148  0.7704 -0.0061
  956MOL0     H26145   7.634   2.780   9.464  1.4612 -1.4110  0.2449
  956MOL0     H26146   7.897   2.747   9.189  0.0919  1.9868  0.4073
  956MOL0     H26147   7.866   2.666   9.349 -2.9348 -0.5387  1.0087
  956MOL0     H26148   7.897   2.884   9.457 -0.1489  3.3296  0.5203
  956MOL0     H26149   7.811   2.954   9.329  1.9626  1.4556 -1.8746
  956MOL0     H26150   8.098   2.851   9.317  2.1421  0.8084 -1.8988
  956MOL0     H26151   8.014   2.948   9.189  1.6921 -4.2477 -1.3415
  956MOL0     H26152   7.971   3.116   9.372  1.4942  1.5698 -1.2172
  956MOL0     H26153   8.132   3.114   9.307 -0.5404 -3.0857 -3.3384
  956MOL0     H26154   7.988   3.284   9.501  3.0156 -0.4907  0.0006
  956MOL0     H26155   8.029   3.470   9.677 -2.6494 -0.5453 -2.2257
  956MOL0     H26156   8.011   3.722  10.029 -1.7493 -0.7168  3.4177
  956MOL0     H26157   8.078   3.895  10.157  0.5534 -1.9819  3.0087
  956MOL0     H26158   8.160   4.029  10.299 -0.1051  2.6892  0.3970
  956MOL0     H26159   8.235   4.156  10.225 -0.9124  1.2159  1.8337
  956MOL0     H26160   8.235   4.122  10.480  0.0016  1.8943 -0.0215
  956MOL0     H26161   8.371   4.210  10.400 -1.2702  0.5628  1.7326
  956MOL0     H26162   8.502   3.982  10.387 -3.0432 -3.9136 -1.8084
  956MOL0     H26163   8.379   3.912  10.484  0.1718 -0.5734 -0.3730
  956MOL0     H26164   8.513   4.154  10.589  3.0654 -1.2252  1.1194
  956MOL0     H26165   8.392   4.047  10.654  2.5645 -0.8001  3.5574
  956MOL0     H26166   8.533   3.878  10.708 -3.5844  1.4111 -1.2460
  956MOL0     H26167   8.616   4.028  10.761 -0.1022 -0.6989  0.3845
  956MOL0     H26168   8.740   4.044  10.562 -1.9215  0.3958  1.7488
  956MOL0     H26169   8.676   3.892  10.506 -0.6098  1.7043 -1.1090
  956MOL0     H26170   8.874   3.941  10.744 -2.0445  0.0096  1.6454
  956MOL0     H26171   8.785   3.796  10.727  1.6545 -0.3073 -1.2430
  956MOL0     H26172   8.946   3.916  10.499  1.0190  1.0729  0.9457
  956MOL0     H26173   8.878   3.743  10.511 -2.3258  0.0935  1.1042
  956MOL0     H26174   8.492   3.829  10.075  0.9416 -2.4579 -0.5218
  956MOL0     H26175   8.421   3.657   9.904 -2.2002 -2.1355  0.6690
  956MOL0     H26176   8.254   3.206   9.898 -2.0571  1.7657  1.5825
  956MOL0     H26177   8.222   3.028   9.728  0.9219  0.9807  1.6093
  956MOL0     H26178   7.658   3.320   9.799  1.9647 -1.3843 -1.4841
  956MOL0     H26179   7.721   3.495  10.000 -1.5873 -0.3544  0.6521
  956MOL0     H26180   7.637   3.522  10.500 -0.8547  0.3925  0.0553
  956MOL0     H26181   7.734   3.622  10.711 -1.1894 -1.5884 -0.7005
  956MOL0     H26182   8.051   3.934  10.747 -0.4426  0.5367  3.5116
  956MOL0     H26183   8.140   3.792  10.681  1.3681  1.2517  0.3769
  956MOL0     H26184   8.129   3.683  10.897 -1.8815  0.9555 -0.8023
  956MOL0     H26185   8.214   3.849  10.927 -0.9382  1.3841  2.0132
  956MOL0     H26186   7.930   3.806  11.000 -0.0574 -0.3848 -1.9837
  956MOL0     H26187   8.018   3.959  10.993 -1.3766  0.5530  4.4071
  956MOL0     H26188   8.097   3.746  11.179 -3.5956  1.1328  4.4555
  956MOL0     H26189   8.186   3.899  11.152 -0.8061  0.8304  1.0063
  956MOL0     H26190   7.849   4.020  11.370 -0.4487 -2.1230  0.8274
  956MOL0     H26191   8.079   3.743  10.501  1.3224 -1.5469  2.7652
  956MOL0     H26192   7.995   3.639  10.293  0.8805 -2.1663  0.8359
  957MOL0     O26193   9.906   2.278   7.962  0.9586  0.4198  0.2071
  957MOL0     C26194   9.931   2.200   7.864 -0.7966 -0.9664  0.1403
  957MOL0     O26195   9.828   2.148   7.787  0.1752 -0.4894 -0.3512
  957MOL0     C26196   9.689   2.173   7.820  0.1297 -0.0602  0.0459
  957MOL0     C26197   9.643   2.299   7.844  0.7373 -0.3177 -0.3973
  957MOL0     C26198   9.506   2.326   7.868  1.0399  0.7121 -0.3399
  957MOL0     C26199   9.415   2.211   7.861  0.3490  0.0372 -0.5868
  957MOL0     O26200   9.283   2.246   7.890 -0.7802  0.3843 -0.2119
  957MOL0     C26201   9.192   2.205   7.790  0.0389 -0.1693 -0.1022
  957MOL0     C26202   9.058   2.280   7.792 -0.1728  0.4786 -0.0252
  957MOL0     C26203   9.080   2.435   7.812  0.2547 -0.4723 -0.2262
  957MOL0     C26204   8.936   2.503   7.809 -0.1384 -0.5387 -1.1746
  957MOL0     C26205   8.946   2.653   7.804  0.3648 -0.4094 -0.3236
  957MOL0     C26206   9.011   2.701   7.917  0.9363  0.0160  0.1649
  957MOL0     C26207   9.015   2.865   7.918 -0.3067 -0.0800  0.4364
  957MOL0     C26208   8.882   2.940   7.968 -0.4478  0.5770 -0.2509
  957MOL0     N26209   8.863   3.085   7.941  0.8948 -0.1576  0.0625
  957MOL0     C26210   8.874   3.190   8.039  0.5697  0.8031  0.6891
  957MOL0     C26211   8.854   3.308   7.961  0.2089  0.2342 -0.3624
  957MOL0     C26212   8.884   3.446   7.998  0.8819 -0.3935  0.2966
  957MOL0     C26213   8.801   3.496   8.116 -0.5421  0.1773 -0.4868
  957MOL0     C26214   8.859   3.624   8.169 -0.0663  0.6812  0.0818
  957MOL0     C26215   8.773   3.673   8.284 -0.0972 -0.0988  0.4114
  957MOL0     O26216   8.853   3.762   8.361 -0.7880 -0.7706 -0.1098
  957MOL0     C26217   8.814   3.763   8.499  0.6634  0.0763 -0.2073
  957MOL0     C26218   8.903   3.797   8.598  0.2924 -0.4719 -0.3926
  957MOL0     C26219   8.878   3.818   8.731  0.1237 -0.5391  0.1204
  957MOL0     C26220   8.748   3.806   8.778  0.4846  0.7157  0.9882
  957MOL0     C26221   8.713   3.823   8.920  0.0628  0.3546  0.5422
  957MOL0     O26222   8.583   3.846   8.953 -0.3463  0.3783  0.1336
  957MOL0     C26223   8.571   3.906   9.082 -0.1325  0.2775 -0.1675
  957MOL0     C26224   8.524   4.042   9.091 -0.0856  0.2125 -0.5947
  957MOL0     C26225   8.508   4.103   9.215  0.3630 -0.9114 -0.4128
  957MOL0     C26226   8.539   4.034   9.335  0.3045  1.0903 -0.2818
  957MOL0     O26227   8.529   4.088   9.464 -0.1314 -0.7243 -0.6046
  957MOL0     C26228   8.496   4.227   9.488 -0.0461 -0.6820 -0.4312
  957MOL0     C26229   8.596   4.317   9.422 -0.3124 -0.8382  0.1939
  957MOL0     C26230   8.530   4.449   9.372 -0.4432 -0.2673 -0.3097
  957MOL0     C26231   8.461   4.530   9.480 -0.3361 -0.8134 -0.7678
  957MOL0     C26232   8.350   4.625   9.424 -0.0780  0.8600 -0.3372
  957MOL0     C26233   8.396   4.739   9.336  0.5710  0.2918 -0.1114
  957MOL0     C26234   8.418   4.866   9.415 -0.5978 -0.0578  0.6171
  957MOL0     C26235   8.489   4.969   9.319 -0.7869  0.3414 -0.2142
  957MOL0    Cl26236   8.638   4.930   9.233  0.1805  0.6295  0.5947
  957MOL0     C26237   8.572   3.897   9.327 -0.1256  0.2489  0.0145
  957MOL0     C26238   8.585   3.828   9.201 -0.8862 -0.8873  0.0739
  957MOL0     O26239   8.803   3.810   9.002 -0.1054  0.1149 -0.3190
  957MOL0     C26240   8.654   3.759   8.682  0.8952  0.4589 -0.2223
  957MOL0     C26241   8.689   3.732   8.550 -1.1068 -0.5791  1.4336
  957MOL0     N26242   8.830   3.267   7.831 -0.8481  0.4211 -0.1120
  957MOL0     N26243   8.815   3.137   7.829  0.0813 -0.0113 -0.2275
  957MOL0     C26244   9.465   2.079   7.832  0.0703 -0.0104 -0.7478
  957MOL0     C26245   9.604   2.069   7.813 -0.2546  0.6206  0.7330
  957MOL0     C26246  10.064   2.197   7.795 -0.0109 -0.7416 -0.3682
  957MOL0     C26247  10.172   2.259   7.850  0.6025 -0.0559 -1.1693
  957MOL0     C26248  10.300   2.259   7.792  0.3649 -0.0025  0.3538
  957MOL0     C26249  10.319   2.198   7.667 -0.1448  0.0234 -0.1512
  957MOL0     O26250  10.445   2.211   7.605  0.8742  0.9428 -0.2026
  957MOL0     C26251  10.566   2.243   7.675  1.0337  0.5419  0.2854
  957MOL0     C26252  10.674   2.290   7.581 -0.3107  0.6599  0.1498
  957MOL0     C26253  10.804   2.325   7.651  1.5738  0.5451  0.8948
  957MOL0     C26254  10.812   2.475   7.668 -0.8465 -0.5884  0.2574
  957MOL0     C26255  10.902   2.540   7.566 -0.2032  0.0976  0.2418
  957MOL0     C26256  10.970   2.598   7.488  0.1586 -0.4675 -0.0252
  957MOL0     C26257  10.211   2.145   7.598  1.2112 -0.3523 -0.4433
  957MOL0     C26258  10.086   2.144   7.660  1.1569 -0.5191 -0.4886
  957MOL0     H26259   9.708   2.385   7.854  0.6510 -0.2779 -0.1710
  957MOL0     H26260   9.476   2.425   7.903  0.0029  0.1021  0.5505
  957MOL0     H26261   9.175   2.097   7.783 -0.2184 -0.0278 -3.5330
  957MOL0     H26262   9.242   2.230   7.696  2.7003 -3.2441  0.3204
  957MOL0     H26263   9.003   2.242   7.879  2.0965 -2.0904  0.4067
  957MOL0     H26264   9.004   2.244   7.704  3.2717 -2.3644 -1.2141
  957MOL0     H26265   9.139   2.480   7.732 -4.5964  2.4999 -2.5850
  957MOL0     H26266   9.133   2.438   7.908 -0.0669  1.3372 -0.0697
  957MOL0     H26267   8.884   2.477   7.716 -2.4812  1.8303 -0.6483
  957MOL0     H26268   8.881   2.471   7.897  2.6202  0.0531  0.9210
  957MOL0     H26269   8.843   2.688   7.805  1.4099  3.0936 -1.4537
  957MOL0     H26270   9.002   2.689   7.718  2.9860  0.4898  1.6275
  957MOL0     H26271   9.115   2.669   7.931  0.5546 -0.8021  1.3535
  957MOL0     H26272   8.951   2.659   7.999 -2.8887 -1.4406 -3.0618
  957MOL0     H26273   9.092   2.893   7.990  0.0296  1.4911 -0.4828
  957MOL0     H26274   9.046   2.916   7.826 -3.1229 -1.9268 -1.7276
  957MOL0     H26275   8.878   2.916   8.074  1.4303 -3.9612 -0.9928
  957MOL0     H26276   8.793   2.900   7.919  0.1996 -3.4150  1.4583
  957MOL0     H26277   8.899   3.183   8.145  1.3117  2.1644  0.6251
  957MOL0     H26278   8.853   3.509   7.914 -0.7160 -0.7138  0.6150
  957MOL0     H26279   8.991   3.444   8.023  0.2579  0.1790  3.3813
  957MOL0     H26280   8.802   3.419   8.194  1.2136 -2.2079 -2.6970
  957MOL0     H26281   8.699   3.497   8.077 -1.2103 -0.6983  1.1167
  957MOL0     H26282   8.957   3.593   8.208  0.0449  3.6156  2.4947
  957MOL0     H26283   8.881   3.702   8.096  0.8937  1.4126  1.1116
  957MOL0     H26284   8.763   3.582   8.344  1.0894 -0.9939 -0.7030
  957MOL0     H26285   8.676   3.712   8.253  0.1011 -0.2365 -0.4252
  957MOL0     H26286   9.005   3.780   8.566 -0.1662 -3.4777 -0.5663
  957MOL0     H26287   8.956   3.843   8.803 -0.1944  1.9395 -0.2968
  957MOL0     H26288   8.493   4.095   9.001 -1.4986  1.0483  0.3268
  957MOL0     H26289   8.478   4.206   9.232  0.6250 -1.2093  2.2995
  957MOL0     H26290   8.493   4.267   9.589  2.5421 -0.9366 -0.1758
  957MOL0     H26291   8.398   4.241   9.440 -1.9594 -1.9770  2.8047
  957MOL0     H26292   8.659   4.281   9.341  0.2400  1.6415 -0.5716
  957MOL0     H26293   8.677   4.339   9.493 -2.6759 -0.4860  2.9932
  957MOL0     H26294   8.462   4.441   9.287  0.7096  1.8184 -1.5260
  957MOL0     H26295   8.614   4.511   9.341 -0.9257  0.2842 -0.5567
  957MOL0     H26296   8.413   4.477   9.562 -0.8129  0.3440 -0.2657
  957MOL0     H26297   8.546   4.585   9.523  1.4613 -3.5592 -0.5812
  957MOL0     H26298   8.294   4.674   9.505  1.2573  0.6750  0.7433
  957MOL0     H26299   8.280   4.571   9.361  0.7795 -1.4798  0.6226
  957MOL0     H26300   8.323   4.764   9.258 -1.3924 -1.3769  1.0780
  957MOL0     H26301   8.483   4.703   9.281  0.0637  0.5373 -1.1052
  957MOL0     H26302   8.327   4.911   9.458 -1.8637 -0.6482 -1.3169
  957MOL0     H26303   8.482   4.828   9.495 -0.5107 -2.2828 -0.4383
  957MOL0     H26304   8.515   5.050   9.388  1.3697 -0.2557 -0.2636
  957MOL0     H26305   8.416   4.992   9.241 -0.8738 -2.1602 -0.9513
  957MOL0     H26306   8.586   3.839   9.418  0.4961 -2.2644 -1.5777
  957MOL0     H26307   8.595   3.720   9.192  1.5024 -0.5603 -2.4008
  957MOL0     H26308   8.549   3.750   8.707  0.6181 -2.9946 -1.9940
  957MOL0     H26309   8.617   3.698   8.477 -0.1579  2.3333 -1.0376
  957MOL0     H26310   9.401   1.993   7.814  2.6371 -2.8637  2.2998
  957MOL0     H26311   9.641   1.973   7.779 -1.2743  1.4979 -3.4701
  957MOL0     H26312  10.151   2.304   7.947 -1.5195 -1.8184 -0.7146
  957MOL0     H26313  10.374   2.311   7.852  2.2425  0.8224 -2.4802
  957MOL0     H26314  10.598   2.151   7.725 -0.0591 -0.5668 -0.9654
  957MOL0     H26315  10.547   2.321   7.749  1.1883 -0.8712  1.8775
  957MOL0     H26316  10.674   2.207   7.509 -2.5284 -0.1880  1.0230
  957MOL0     H26317  10.637   2.373   7.521 -2.5208 -1.3019 -1.3552
  957MOL0     H26318  10.887   2.282   7.593 -0.1899 -0.5958 -0.9015
  957MOL0     H26319  10.816   2.279   7.749  1.3953  2.4990  1.8690
  957MOL0     H26320  10.715   2.523   7.651 -1.1706 -2.0444 -2.6738
  957MOL0     H26321  10.856   2.495   7.766  0.2128  0.3882 -0.3945
  957MOL0     H26322  11.034   2.629   7.408 -1.3054 -0.9262 -1.4308
  957MOL0     H26323  10.215   2.127   7.491 -1.2098 -0.0626 -0.6453
  957MOL0     H26324  10.003   2.115   7.596 -1.5020  1.1778  1.9546
  958MOL0     O26325  10.511  11.396   0.432 -0.0745  0.5430 -0.2968
  958MOL0     C26326  10.597  11.320   0.390  0.1340 -0.9232  0.9192
  958MOL0     O26327  10.665  11.337   0.269  0.3641  0.8011  0.1726
  958MOL0     C26328  10.608  11.402   0.160 -0.4776  0.0697  0.2301
  958MOL0     C26329  10.694  11.418   0.052 -0.8776  0.0085  0.1222
  958MOL0     C26330  10.663  11.476  -0.070 -0.1556 -0.4760  0.1426
  958MOL0     C26331  10.530  11.522  -0.091 -0.3087 -0.3285  0.2761
  958MOL0     O26332  10.489  11.597  -0.200  1.0742 -0.4190  0.5260
  958MOL0     C26333  10.396  11.710  -0.194  0.0787 -0.1227 -0.0989
  958MOL0     C26334  10.362  11.757  -0.336  0.7561  0.2514  0.7659
  958MOL0     C26335  10.252  11.868  -0.343 -0.7473 -0.8796 -0.5199
  958MOL0     C26336  10.115  11.822  -0.307 -0.0872  0.6064 -0.3372
  958MOL0     C26337  10.005  11.921  -0.343 -0.0846  0.4180 -0.2569
  958MOL0     C26338   9.867  11.843  -0.366 -0.6149 -0.5653 -0.2843
  958MOL0     C26339   9.812  11.770  -0.235 -0.0581  0.4216  0.2780
  958MOL0     C26340   9.657  11.772  -0.230  0.0023 -0.4660  0.4499
  958MOL0     N26341   9.601  11.707  -0.351  0.5003  0.3892  0.5087
  958MOL0     C26342   9.614  11.579  -0.393  0.5486  0.3846 -0.2191
  958MOL0     C26343   9.591  11.572  -0.520  0.7129  0.2522  0.4938
  958MOL0     C26344   9.605  11.444  -0.591 -0.4948 -0.4689  0.4138
  958MOL0     C26345   9.568  11.449  -0.747  0.6141  0.0525  0.3064
  958MOL0     C26346   9.414  11.419  -0.775 -0.4603  0.0511 -0.4987
  958MOL0     C26347   9.385  11.463  -0.913  0.1819  0.4790 -0.2394
  958MOL0     O26348   9.364  11.607  -0.932 -0.8341 -0.4174  0.1019
  958MOL0     C26349   9.333  11.643  -1.067  0.2247  1.2693 -0.0485
  958MOL0     C26350   9.319  11.780  -1.095 -0.4034  1.3215  0.1041
  958MOL0     C26351   9.305  11.827  -1.226  0.0192  0.2407  0.7315
  958MOL0     C26352   9.294  11.739  -1.332 -0.0858 -0.0150 -0.1444
  958MOL0     C26353   9.284  11.790  -1.472 -0.5466  0.9923  0.5826
  958MOL0     O26354   9.194  11.721  -1.549 -0.6619 -0.0426 -0.6050
  958MOL0     C26355   9.173  11.762  -1.682 -0.0362 -0.2777  0.0009
  958MOL0     C26356   9.274  11.773  -1.772  0.0789  0.3405  0.3596
  958MOL0     C26357   9.244  11.808  -1.906  0.2322  0.5845 -0.0287
  958MOL0     C26358   9.109  11.839  -1.952 -0.5361  0.1353  0.4429
  958MOL0     O26359   9.092  11.874  -2.082  0.0381 -0.4272  0.1659
  958MOL0     C26360   8.962  11.916  -2.132  0.6952  0.2103 -0.2907
  958MOL0     C26361   8.979  11.990  -2.264 -0.4383  0.0732  0.3681
  958MOL0     C26362   9.010  12.138  -2.223 -1.1452 -0.4089  1.4133
  958MOL0     C26363   9.012  12.219  -2.358  0.3696  0.8255  0.9058
  958MOL0     C26364   9.073  12.353  -2.324  0.5502 -0.3182 -0.0832
  958MOL0     C26365   9.084  12.451  -2.443  0.4239 -0.3921  0.4348
  958MOL0     C26366   9.112  12.592  -2.385  0.6341 -0.1941  0.1281
  958MOL0     C26367   9.139  12.701  -2.498 -0.7784  0.8051  0.0429
  958MOL0    Cl26368   9.184  12.848  -2.415 -0.1678 -0.3440 -0.3222
  958MOL0     C26369   9.002  11.824  -1.860 -0.0023  0.9554  0.9595
  958MOL0     C26370   9.040  11.795  -1.722 -0.3240  0.8719  0.1810
  958MOL0     O26371   9.334  11.894  -1.506  0.3049 -0.4473  0.4717
  958MOL0     C26372   9.307  11.601  -1.303  0.2515  1.1534 -0.1164
  958MOL0     C26373   9.331  11.556  -1.178 -0.4600  0.5697 -0.2193
  958MOL0     N26374   9.574  11.702  -0.569  0.2811  0.4278 -0.2134
  958MOL0     N26375   9.564  11.770  -0.462  0.1645  0.1911 -0.2830
  958MOL0     C26376  10.434  11.493   0.005  0.4220  0.3526 -0.3799
  958MOL0     C26377  10.471  11.429   0.130 -0.2631  0.3376 -0.0498
  958MOL0     C26378  10.654  11.203   0.475  0.9817  0.0430 -0.7843
  958MOL0     C26379  10.592  11.166   0.594  0.3845 -0.4243  0.0070
  958MOL0     C26380  10.650  11.066   0.677 -1.1143  0.3430 -0.2307
  958MOL0     C26381  10.767  10.999   0.644 -0.6107 -0.4281 -0.5226
  958MOL0     O26382  10.799  10.894   0.730 -0.5501 -0.0094  0.4426
  958MOL0     C26383  10.903  10.809   0.681  0.7216 -0.0536 -0.5668
  958MOL0     C26384  11.039  10.847   0.732 -0.3008  0.3641 -0.7280
  958MOL0     C26385  11.077  10.759   0.851  0.0146 -0.9625 -0.3681
  958MOL0     C26386  11.215  10.795   0.928 -0.3807  0.1535  0.1332
  958MOL0     C26387  11.259  10.672   0.992  1.0070 -0.3641  0.5786
  958MOL0     C26388  11.273  10.577   1.066 -0.4070 -0.3155  0.6819
  958MOL0     C26389  10.840  11.049   0.529  0.9034 -0.3328 -0.0664
  958MOL0     C26390  10.776  11.145   0.443 -0.8219 -0.0511 -0.6827
  958MOL0     H26391  10.792  11.372   0.058 -1.8105 -2.4798 -2.0200
  958MOL0     H26392  10.711  11.494  -0.165 -2.1034 -0.0149 -0.8186
  958MOL0     H26393  10.426  11.778  -0.114 -0.3920 -1.3290  1.1331
  958MOL0     H26394  10.299  11.670  -0.162  0.9853 -1.6009  0.9279
  958MOL0     H26395  10.341  11.665  -0.390 -0.2325  1.9630 -1.9461
  958MOL0     H26396  10.451  11.797  -0.385  2.1449 -1.0541  2.1030
  958MOL0     H26397  10.253  11.912  -0.444 -0.9313  2.2955  0.7329
  958MOL0     H26398  10.287  11.944  -0.272  0.5987 -1.6807 -0.3044
  958MOL0     H26399  10.099  11.726  -0.355  1.5813  0.0100  0.2006
  958MOL0     H26400  10.120  11.805  -0.199 -0.1079 -2.3317 -0.7248
  958MOL0     H26401  10.042  11.976  -0.429  2.9318 -2.0841 -0.7423
  958MOL0     H26402   9.985  11.992  -0.262 -0.4344 -0.3802  0.3748
  958MOL0     H26403   9.878  11.775  -0.451  0.3636 -1.5412  0.5966
  958MOL0     H26404   9.795  11.923  -0.382 -5.1973 -3.7308  2.0827
  958MOL0     H26405   9.849  11.667  -0.231 -3.2598 -0.9258 -1.3419
  958MOL0     H26406   9.862  11.823  -0.153 -0.8228 -0.3271  1.2427
  958MOL0     H26407   9.611  11.871  -0.234  0.3330 -0.2923  0.9008
  958MOL0     H26408   9.618  11.725  -0.139 -0.8635  0.9771  0.8617
  958MOL0     H26409   9.645  11.491  -0.339 -2.3213  0.4133  1.6585
  958MOL0     H26410   9.557  11.353  -0.554 -1.0887 -0.3353 -0.0066
  958MOL0     H26411   9.714  11.432  -0.591 -0.0138  2.7486 -1.4312
  958MOL0     H26412   9.616  11.371  -0.806 -1.7419 -0.4472 -1.0425
  958MOL0     H26413   9.588  11.546  -0.793 -2.9951 -0.1279 -1.9827
  958MOL0     H26414   9.387  11.313  -0.773 -0.4395  0.0122 -1.5687
  958MOL0     H26415   9.363  11.470  -0.693  3.7809 -2.3183  4.1589
  958MOL0     H26416   9.287  11.419  -0.932 -1.3167  2.7961  1.5502
  958MOL0     H26417   9.461  11.426  -0.982  1.7342 -2.7016  2.8045
  958MOL0     H26418   9.320  11.845  -1.008 -0.4386  0.6129  0.6447
  958MOL0     H26419   9.316  11.935  -1.227  2.7159  0.0866 -1.5546
  958MOL0     H26420   9.379  11.760  -1.746  0.6132  2.3573 -0.5400
  958MOL0     H26421   9.319  11.801  -1.983  1.8736 -3.7097  1.6483
  958MOL0     H26422   8.924  11.970  -2.045  4.4863  0.1639  1.5809
  958MOL0     H26423   8.917  11.817  -2.147  4.2181 -1.7073  0.6332
  958MOL0     H26424   8.883  11.980  -2.316 -1.5534 -3.8735  2.7877
  958MOL0     H26425   9.050  11.940  -2.330  0.9825  0.5558  1.5002
  958MOL0     H26426   9.113  12.139  -2.187 -0.9547  2.7286  1.0760
  958MOL0     H26427   8.949  12.172  -2.139 -0.0264 -1.1532  2.5425
  958MOL0     H26428   9.060  12.168  -2.442  0.7890 -0.1890  1.7348
  958MOL0     H26429   8.908  12.248  -2.376  0.9437  1.6052 -1.4477
  958MOL0     H26430   9.178  12.355  -2.292  0.1201  2.8640  1.4779
  958MOL0     H26431   9.020  12.406  -2.244  1.6344 -1.6048  1.5714
  958MOL0     H26432   8.993  12.458  -2.503  1.7818 -0.8793 -1.7740
  958MOL0     H26433   9.161  12.417  -2.512 -0.0276 -0.2539 -0.1508
  958MOL0     H26434   9.035  12.635  -2.320 -0.9447  0.4153 -2.0000
  958MOL0     H26435   9.202  12.587  -2.325 -0.9337  0.4545  2.6785
  958MOL0     H26436   9.051  12.713  -2.562 -0.2611  1.9346 -0.4905
  958MOL0     H26437   9.220  12.658  -2.558 -1.7810  0.4620 -1.1092
  958MOL0     H26438   8.898  11.831  -1.888 -0.4345  1.2054  2.5269
  958MOL0     H26439   8.961  11.778  -1.650  1.3074  0.0103  1.8644
  958MOL0     H26440   9.304  11.529  -1.384 -1.1490  1.7085 -0.6023
  958MOL0     H26441   9.357  11.452  -1.162 -0.4916 -0.1160 -3.7811
  958MOL0     H26442  10.331  11.521  -0.011  0.3278  0.0923 -0.2231
  958MOL0     H26443  10.391  11.403   0.198 -0.4787  3.4764  1.0745
  958MOL0     H26444  10.510  11.217   0.645  2.1617 -2.3239  5.3991
  958MOL0     H26445  10.593  11.038   0.765  2.7647  0.2827  2.5435
  958MOL0     H26446  10.902  10.817   0.572  1.1230  1.2862 -0.4897
  958MOL0     H26447  10.878  10.706   0.710 -1.2418  0.7220  0.6678
  958MOL0     H26448  11.107  10.820   0.650  0.6953 -0.0572  0.2191
  958MOL0     H26449  11.044  10.954   0.752  0.1393  0.1282  0.4863
  958MOL0     H26450  11.075  10.654   0.819 -1.8938 -0.5583 -1.7890
  958MOL0     H26451  11.002  10.770   0.931  0.7541 -1.7464  0.4551
  958MOL0     H26452  11.283  10.824   0.848  1.4844 -0.6093  1.3583
  958MOL0     H26453  11.202  10.876   1.001 -3.9042  0.6236 -0.8695
  958MOL0     H26454  11.259  10.490   1.128  3.4332 -1.7392 -0.1352
  958MOL0     H26455  10.942  11.017   0.511  1.6865  0.1739  2.8157
  958MOL0     H26456  10.833  11.176   0.356  2.3301 -0.1097  1.1856
  959MOL0     O26457   6.691  11.186   2.489 -0.1379  0.4528 -0.6518
  959MOL0     C26458   6.719  11.260   2.595  0.7675  0.5118  0.1915
  959MOL0     O26459   6.623  11.304   2.685 -1.2462  0.7255  0.5996
  959MOL0     C26460   6.501  11.246   2.710 -0.0857  0.2484  0.1848
  959MOL0     C26461   6.454  11.122   2.669  0.7762 -0.2314 -0.5914
  959MOL0     C26462   6.335  11.071   2.701 -0.5422  0.2207  0.4703
  959MOL0     C26463   6.248  11.140   2.777  1.6447 -0.4866  0.2809
  959MOL0     O26464   6.137  11.080   2.801  0.0978  0.4645 -0.0092
  959MOL0     C26465   6.039  11.139   2.887  0.0636 -0.0351 -0.1386
  959MOL0     C26466   5.936  11.035   2.882 -0.0918 -0.7464 -0.6167
  959MOL0     C26467   5.815  11.090   2.975  0.1892 -1.2371 -0.4142
  959MOL0     C26468   5.697  10.987   2.958 -0.1809 -0.0294  0.5139
  959MOL0     C26469   5.563  11.022   3.026  0.1633  0.0530  0.5849
  959MOL0     C26470   5.578  11.040   3.179 -0.4679 -0.8496 -0.8738
  959MOL0     C26471   5.444  11.040   3.249  0.7281  0.3449  0.1076
  959MOL0     C26472   5.461  11.066   3.402  1.6031  0.1298 -0.0064
  959MOL0     N26473   5.565  10.988   3.474 -0.4199 -0.3837  0.2965
  959MOL0     C26474   5.545  10.864   3.501 -0.9870 -0.3559 -0.4704
  959MOL0     C26475   5.662  10.822   3.552 -1.0074 -0.0294 -0.2708
  959MOL0     C26476   5.697  10.680   3.588  0.6237  0.6683 -0.0962
  959MOL0     C26477   5.609  10.574   3.517 -0.3252  0.0244  0.3199
  959MOL0     C26478   5.647  10.432   3.563  0.9408 -1.2857 -0.5246
  959MOL0     C26479   5.627  10.418   3.718 -0.7125 -0.5256  0.5271
  959MOL0     O26480   5.487  10.447   3.740 -0.3493 -0.2678  0.7475
  959MOL0     C26481   5.402  10.369   3.817 -0.6525 -0.4299 -0.4804
  959MOL0     C26482   5.436  10.277   3.920  0.2539  0.6810  0.4374
  959MOL0     C26483   5.339  10.210   3.994  0.2813 -0.0605  0.2816
  959MOL0     C26484   5.205  10.207   3.942  0.8481  0.2961  0.1426
  959MOL0     C26485   5.108  10.120   4.002  0.3602  0.5705 -0.1407
  959MOL0     O26486   5.141  10.073   4.132 -0.4828 -0.3858  0.1769
  959MOL0     C26487   5.069   9.967   4.187 -0.7082 -0.0711 -0.4134
  959MOL0     C26488   5.068   9.945   4.328 -1.0167 -0.3384  0.7478
  959MOL0     C26489   5.017   9.828   4.380  0.5151 -0.5389  0.1805
  959MOL0     C26490   4.966   9.736   4.295  0.8058 -0.1327  0.9694
  959MOL0     O26491   4.894   9.623   4.333  0.5707 -0.0900  0.4331
  959MOL0     C26492   4.913   9.558   4.463 -0.4194  0.3348 -0.0782
  959MOL0     C26493   4.854   9.418   4.480  0.2667 -0.5839 -0.5691
  959MOL0     C26494   4.913   9.329   4.375 -0.2634  0.4050  1.1194
  959MOL0     C26495   4.860   9.189   4.382 -1.2400  0.4306 -0.1811
  959MOL0     C26496   4.912   9.091   4.268 -0.2706 -0.7303 -0.0401
  959MOL0     C26497   4.885   8.943   4.286  0.0960 -0.0343  0.1416
  959MOL0     C26498   4.948   8.878   4.415  1.2469  0.8578 -0.3890
  959MOL0     C26499   4.945   8.721   4.420 -0.2043  0.6994  0.2210
  959MOL0    Cl26500   4.781   8.659   4.400 -0.1131 -0.3141  0.0895
  959MOL0     C26501   4.969   9.756   4.155  1.4373  1.0571  0.2390
  959MOL0     C26502   5.026   9.861   4.101  0.1612  0.6627 -0.0236
  959MOL0     O26503   5.019  10.089   3.940  0.2500  0.2151  0.4474
  959MOL0     C26504   5.178  10.291   3.834 -0.1538 -0.3644  0.4245
  959MOL0     C26505   5.272  10.376   3.784 -0.1243  0.5976 -0.8082
  959MOL0     N26506   5.737  10.934   3.566 -0.1583  0.6439 -1.0180
  959MOL0     N26507   5.683  11.033   3.515 -0.0770  0.6407  0.2175
  959MOL0     C26508   6.284  11.264   2.833 -0.4534 -0.4589 -0.2294
  959MOL0     C26509   6.408  11.313   2.794 -0.0283 -0.2020 -0.1585
  959MOL0     C26510   6.854  11.319   2.614 -0.2452  1.6532 -0.5742
  959MOL0     C26511   6.873  11.430   2.706 -0.0673 -0.1144  0.3606
  959MOL0     C26512   7.003  11.479   2.731 -0.2291  0.0129  0.2409
  959MOL0     C26513   7.117  11.424   2.664  0.1068 -0.9162  0.5599
  959MOL0     O26514   7.231  11.499   2.661  0.2852  0.1416  0.4329
  959MOL0     C26515   7.345  11.421   2.689 -0.6673 -0.9356 -0.1819
  959MOL0     C26516   7.458  11.520   2.722 -0.5553 -1.4366  0.1423
  959MOL0     C26517   7.603  11.473   2.692  0.4954 -0.1883 -0.4146
  959MOL0     C26518   7.641  11.482   2.543 -0.2267 -0.2887  0.6476
  959MOL0     C26519   7.673  11.620   2.500  0.1143 -0.3192 -0.5693
  959MOL0     C26520   7.706  11.731   2.472  0.3725  0.6675 -0.6896
  959MOL0     C26521   7.101  11.318   2.572  0.6063  1.0269  0.8825
  959MOL0     C26522   6.972  11.262   2.544  0.2288  0.6114  0.7246
  959MOL0     H26523   6.509  11.049   2.611  2.4578  0.1650  0.4357
  959MOL0     H26524   6.307  10.969   2.676 -1.0619  0.9287 -2.1368
  959MOL0     H26525   5.998  11.232   2.846  0.7284 -1.0418 -3.3159
  959MOL0     H26526   6.066  11.161   2.991  2.1535 -2.8192  0.0274
  959MOL0     H26527   5.977  10.947   2.932  0.3950 -0.0271  0.2744
  959MOL0     H26528   5.909  11.018   2.777 -1.2996 -0.5298 -0.3569
  959MOL0     H26529   5.794  11.196   2.956  0.2321 -1.0915  0.3204
  959MOL0     H26530   5.852  11.084   3.077  0.1979 -0.5077 -0.3650
  959MOL0     H26531   5.675  10.977   2.851  1.1900  1.8521 -0.0007
  959MOL0     H26532   5.729  10.890   2.997  1.9386  2.0187  4.5009
  959MOL0     H26533   5.498  10.935   3.013  1.3960 -0.5923 -1.7592
  959MOL0     H26534   5.518  11.109   2.978 -1.2964  0.4757  2.5900
  959MOL0     H26535   5.613  11.139   3.211 -3.5958 -0.0504  0.4819
  959MOL0     H26536   5.644  10.963   3.217 -1.9895 -2.8249 -2.0329
  959MOL0     H26537   5.386  11.123   3.209  1.3579  1.8017  2.0491
  959MOL0     H26538   5.404  10.938   3.250 -1.5114  1.1692  1.0391
  959MOL0     H26539   5.372  11.051   3.464  2.9118 -1.7434  1.5100
  959MOL0     H26540   5.476  11.174   3.399  1.0653  0.2763  1.6673
  959MOL0     H26541   5.454  10.811   3.477 -2.2814  0.1997  2.6543
  959MOL0     H26542   5.713  10.676   3.696  2.7169  0.6847 -0.3565
  959MOL0     H26543   5.800  10.658   3.559 -0.1141 -0.4025 -2.0867
  959MOL0     H26544   5.630  10.587   3.410  3.8758 -3.2317  0.4807
  959MOL0     H26545   5.503  10.599   3.525 -0.8043 -0.7757 -2.4478
  959MOL0     H26546   5.586  10.353   3.518 -3.2912  0.9193  0.7563
  959MOL0     H26547   5.753  10.418   3.539  1.1059 -2.4100  0.7344
  959MOL0     H26548   5.699  10.486   3.766  0.2541 -0.1293 -1.4039
  959MOL0     H26549   5.645  10.315   3.752 -1.2576  0.3637  3.9537
  959MOL0     H26550   5.540  10.258   3.945 -0.0938 -4.9238 -0.9955
  959MOL0     H26551   5.369  10.150   4.079 -0.1871 -1.4998 -0.5172
  959MOL0     H26552   5.124  10.019   4.385  0.6817 -1.1203  0.1694
  959MOL0     H26553   5.025   9.813   4.487  3.4793 -0.5682  0.0379
  959MOL0     H26554   4.866   9.623   4.538 -3.6808  0.1270 -1.7781
  959MOL0     H26555   5.019   9.551   4.491 -0.9591 -2.5501  1.6877
  959MOL0     H26556   4.747   9.433   4.461  0.2067 -0.7558 -0.3609
  959MOL0     H26557   4.880   9.391   4.583  1.2295  2.6229  0.1314
  959MOL0     H26558   5.021   9.323   4.386 -0.4309 -0.4113  2.6502
  959MOL0     H26559   4.885   9.360   4.274  3.0951  1.9349  0.5203
  959MOL0     H26560   4.883   9.143   4.478  0.3659 -0.0642 -0.7703
  959MOL0     H26561   4.752   9.178   4.375 -1.4111 -0.6013  2.6796
  959MOL0     H26562   5.019   9.107   4.247 -1.0731  1.9207 -2.8237
  959MOL0     H26563   4.870   9.126   4.174  1.8758  0.4258 -0.6370
  959MOL0     H26564   4.949   8.909   4.203  2.2151 -0.1918  1.7487
  959MOL0     H26565   4.778   8.927   4.271 -0.0870  1.3895 -0.2593
  959MOL0     H26566   5.052   8.912   4.421  2.3456 -1.8841 -2.1019
  959MOL0     H26567   4.888   8.909   4.501 -0.6810 -2.6075 -0.2912
  959MOL0     H26568   4.986   8.682   4.514  3.8873  5.1259  0.6650
  959MOL0     H26569   4.992   8.669   4.336  0.4995  0.5358  0.7116
  959MOL0     H26570   4.936   9.676   4.089  2.8274 -0.1093  0.9124
  959MOL0     H26571   5.047   9.866   3.995 -3.0276  0.2636 -0.7681
  959MOL0     H26572   5.081  10.296   3.787  0.1950  0.2531 -0.2544
  959MOL0     H26573   5.261  10.441   3.698  1.0792  1.2132 -0.5141
  959MOL0     H26574   6.245  11.317   2.919 -0.6737 -1.3389  0.2275
  959MOL0     H26575   6.425  11.414   2.830 -3.8644  1.4539 -2.3663
  959MOL0     H26576   6.784  11.482   2.742 -2.0185 -3.2188  0.3602
  959MOL0     H26577   6.998  11.573   2.785  0.7597 -0.6948  1.6138
  959MOL0     H26578   7.375  11.359   2.604 -0.8932 -1.3980  0.0693
  959MOL0     H26579   7.331  11.358   2.778  2.4435 -0.6927  0.5823
  959MOL0     H26580   7.452  11.607   2.656  1.8505 -1.4992 -0.2760
  959MOL0     H26581   7.448  11.546   2.827  1.4746 -0.4879  0.1637
  959MOL0     H26582   7.613  11.371   2.730 -0.8326  0.1711  0.9958
  959MOL0     H26583   7.674  11.530   2.753  1.0586 -1.7807  0.4880
  959MOL0     H26584   7.723  11.414   2.521 -0.2136  0.7579 -3.1536
  959MOL0     H26585   7.549  11.464   2.485 -0.2696  3.7650 -0.8304
  959MOL0     H26586   7.729  11.831   2.439  1.5574  0.2236 -1.2881
  959MOL0     H26587   7.182  11.291   2.506  0.4886  0.1057  1.1033
  959MOL0     H26588   6.966  11.170   2.487  2.1111 -1.5836  3.7453
  960MOL0     O26589   6.052   3.649   5.975  0.2176  0.1204  0.3845
  960MOL0     C26590   6.102   3.630   6.087  0.5653 -0.7005 -0.3288
  960MOL0     O26591   6.047   3.684   6.199 -0.5223  0.1826 -0.5061
  960MOL0     C26592   5.928   3.749   6.199  0.8595  1.1370 -0.2732
  960MOL0     C26593   5.810   3.677   6.170 -0.2629 -0.4995  0.1148
  960MOL0     C26594   5.682   3.735   6.169  0.2748  0.0255  0.2452
  960MOL0     C26595   5.673   3.868   6.221 -0.2351 -1.1164 -0.2144
  960MOL0     O26596   5.559   3.945   6.204 -0.2973  0.6046  0.3913
  960MOL0     C26597   5.457   3.897   6.122 -0.5328 -0.2885 -0.4982
  960MOL0     C26598   5.347   4.004   6.120 -0.6074  1.2126  0.1417
  960MOL0     C26599   5.241   3.970   6.015 -0.9374  0.1801 -0.1082
  960MOL0     C26600   5.110   4.031   6.051 -0.0748 -1.1152 -0.4849
  960MOL0     C26601   5.018   4.021   5.932  0.8390  0.1077 -0.6841
  960MOL0     C26602   4.870   4.061   5.963 -0.5261  0.1732 -1.4507
  960MOL0     C26603   4.783   4.036   5.840 -1.4625 -0.0582  0.5934
  960MOL0     C26604   4.642   4.090   5.850  0.1844  0.1251  0.1086
  960MOL0     N26605   4.551   4.015   5.936 -0.0523 -0.7313  0.4949
  960MOL0     C26606   4.508   4.078   6.056 -0.1751 -0.5000  0.7027
  960MOL0     C26607   4.423   3.982   6.106 -0.4251 -0.2717  0.9360
  960MOL0     C26608   4.372   3.993   6.244 -0.4524  0.7208  0.0872
  960MOL0     C26609   4.309   3.857   6.294 -0.0314 -0.5453 -0.3281
  960MOL0     C26610   4.263   3.863   6.444 -1.0179 -0.5243 -0.2983
  960MOL0     C26611   4.383   3.841   6.549  0.6407 -0.0868 -0.7575
  960MOL0     O26612   4.324   3.857   6.676  0.1349  0.7411  0.8900
  960MOL0     C26613   4.375   3.979   6.727  0.0020 -0.8925  0.9688
  960MOL0     C26614   4.509   3.996   6.740 -0.2670 -0.0750 -0.0367
  960MOL0     C26615   4.561   4.127   6.770 -0.2485  0.1791  0.2542
  960MOL0     C26616   4.481   4.235   6.804  0.3432  0.3889  0.8700
  960MOL0     C26617   4.531   4.372   6.804  0.3447  0.1351  0.3259
  960MOL0     O26618   4.629   4.405   6.716  0.1572  0.3358  0.3270
  960MOL0     C26619   4.703   4.521   6.736 -0.1465  0.8148 -0.1649
  960MOL0     C26620   4.776   4.578   6.634 -0.2317 -0.5351  0.6137
  960MOL0     C26621   4.865   4.688   6.653 -1.7030  0.8534  0.3896
  960MOL0     C26622   4.881   4.738   6.783  0.0680  0.0701 -1.1164
  960MOL0     O26623   4.974   4.840   6.785 -0.5618 -0.1573 -0.9178
  960MOL0     C26624   4.919   4.975   6.793  0.0139 -0.2652  0.3341
  960MOL0     C26625   4.872   5.010   6.942  0.2744 -0.9840  0.8317
  960MOL0     C26626   4.991   5.006   7.033  0.9876  0.9536  0.2522
  960MOL0     C26627   4.960   5.045   7.177 -0.8006 -1.0933  1.0715
  960MOL0     C26628   5.079   5.013   7.266  0.8008 -0.8271  0.2728
  960MOL0     C26629   5.050   5.070   7.406  0.1838 -0.1833  0.1959
  960MOL0     C26630   5.172   5.024   7.500  0.2008 -1.4581 -0.4275
  960MOL0     C26631   5.191   5.126   7.610  0.0918 -0.2039 -0.3501
  960MOL0    Cl26632   5.043   5.153   7.707  0.4041  0.1181 -0.4511
  960MOL0     C26633   4.802   4.688   6.886 -0.4964  0.2519 -0.1037
  960MOL0     C26634   4.721   4.571   6.869 -0.0700 -0.9490  0.5022
  960MOL0     O26635   4.473   4.449   6.879  0.6579 -0.1001  0.0117
  960MOL0     C26636   4.344   4.210   6.791 -0.3405 -0.1575  1.5183
  960MOL0     C26637   4.294   4.091   6.751  0.4188  0.4075 -1.0966
  960MOL0     N26638   4.415   3.873   6.017  0.9762 -0.4628 -0.2494
  960MOL0     N26639   4.488   3.894   5.919  0.6725 -0.3504 -0.6664
  960MOL0     C26640   5.782   3.943   6.261 -0.6583  0.0328  0.6172
  960MOL0     C26641   5.906   3.880   6.250  0.9364 -0.5237 -0.3436
  960MOL0     C26642   6.217   3.541   6.100 -0.6450  0.1214  0.0001
  960MOL0     C26643   6.301   3.494   5.998 -0.3860 -0.6218 -1.2981
  960MOL0     C26644   6.423   3.419   6.018  0.7155 -0.0034 -0.7080
  960MOL0     C26645   6.462   3.367   6.144  0.5169 -0.6070 -0.3533
  960MOL0     O26646   6.555   3.273   6.161 -0.0677 -0.3824  0.1999
  960MOL0     C26647   6.674   3.294   6.084 -0.6960 -0.1900  0.0171
  960MOL0     C26648   6.764   3.182   6.130 -0.7575 -0.5691  0.1410
  960MOL0     C26649   6.717   3.039   6.083  0.6722 -0.6462 -0.5499
  960MOL0     C26650   6.822   2.929   6.082  0.1833 -0.3006  0.1130
  960MOL0     C26651   6.905   2.962   5.958 -0.3417 -0.8420 -0.4712
  960MOL0     C26652   6.971   2.988   5.856  0.5157  0.5735  0.2861
  960MOL0     C26653   6.375   3.413   6.253 -0.3110 -1.2348  0.5821
  960MOL0     C26654   6.264   3.497   6.223  0.0874 -0.4333 -0.4974
  960MOL0     H26655   5.813   3.575   6.131 -2.6303  0.0191 -1.6100
  960MOL0     H26656   5.601   3.669   6.139  1.4366 -0.2067 -2.7713
  960MOL0     H26657   5.429   3.796   6.153 -0.9085  0.2943  1.1863
  960MOL0     H26658   5.486   3.890   6.016  2.1047  0.1698  0.1157
  960MOL0     H26659   5.387   4.100   6.086  1.5282 -0.6893 -3.3246
  960MOL0     H26660   5.307   3.999   6.222  1.9262 -1.9090  1.1406
  960MOL0     H26661   5.228   3.862   6.022 -0.2673  0.1950  2.2548
  960MOL0     H26662   5.273   4.009   5.918 -0.1345  2.2499  0.9166
  960MOL0     H26663   5.075   3.970   6.135  2.4362 -5.2022 -2.0574
  960MOL0     H26664   5.117   4.138   6.069 -3.5704 -0.8274 -0.0858
  960MOL0     H26665   5.024   3.923   5.884  2.5334 -0.6915  1.0223
  960MOL0     H26666   5.054   4.092   5.858 -3.1495  1.8991 -1.1869
  960MOL0     H26667   4.879   4.167   5.991  1.6488 -0.5171  0.8216
  960MOL0     H26668   4.836   4.006   6.051  2.6680  3.1079  1.9996
  960MOL0     H26669   4.829   4.087   5.755  1.7409 -3.2222  0.1678
  960MOL0     H26670   4.788   3.928   5.819  4.4143 -0.2931  1.5992
  960MOL0     H26671   4.596   4.097   5.751 -0.4642 -0.2077  0.3813
  960MOL0     H26672   4.651   4.195   5.878  2.0322  0.7443 -2.3696
  960MOL0     H26673   4.526   4.173   6.104 -3.5096  0.6661 -0.1245
  960MOL0     H26674   4.284   4.059   6.239 -1.8879 -1.2482 -2.4171
  960MOL0     H26675   4.449   4.032   6.311 -2.3590  3.9736  0.6175
  960MOL0     H26676   4.380   3.775   6.278  2.1813  1.7296 -3.1789
  960MOL0     H26677   4.218   3.847   6.235  0.3404  0.9902 -1.2170
  960MOL0     H26678   4.214   3.959   6.460  1.9638  1.1646 -0.4462
  960MOL0     H26679   4.193   3.779   6.450 -0.6207 -1.0320 -2.1447
  960MOL0     H26680   4.476   3.895   6.528  0.8516 -0.3182 -0.4189
  960MOL0     H26681   4.428   3.743   6.532 -2.5150 -1.4798 -1.8806
  960MOL0     H26682   4.577   3.916   6.713  1.9642  2.6533 -3.3796
  960MOL0     H26683   4.666   4.142   6.750 -0.0712  0.6077  1.3997
  960MOL0     H26684   4.751   4.527   6.541  1.7591 -1.2761  0.4283
  960MOL0     H26685   4.930   4.726   6.576  0.3549 -1.7318  0.7438
  960MOL0     H26686   4.834   4.976   6.725 -0.2432  1.2616  0.6397
  960MOL0     H26687   4.996   5.044   6.757  0.6935 -1.2331 -0.1438
  960MOL0     H26688   4.783   4.959   6.979 -0.8487 -0.6486 -1.2527
  960MOL0     H26689   4.827   5.109   6.928 -0.2725 -1.3067  0.2677
  960MOL0     H26690   5.073   5.066   6.991  2.9723 -0.3671  1.9997
  960MOL0     H26691   5.048   4.912   7.031 -2.2366 -1.2937  2.8328
  960MOL0     H26692   4.937   5.152   7.176 -2.6300 -1.4391  1.4337
  960MOL0     H26693   4.871   4.984   7.197  0.1124 -2.9820 -0.3210
  960MOL0     H26694   5.179   5.052   7.241  1.3643 -1.8261  0.8989
  960MOL0     H26695   5.090   4.904   7.264  2.9177 -0.6832  0.8696
  960MOL0     H26696   4.957   5.030   7.448 -1.9726  0.5683 -3.3486
  960MOL0     H26697   5.041   5.179   7.402 -0.8840 -0.2714 -0.1886
  960MOL0     H26698   5.153   4.923   7.538  2.5096 -1.9223 -0.3114
  960MOL0     H26699   5.260   5.039   7.437 -2.3561  3.6351 -3.4527
  960MOL0     H26700   5.225   5.213   7.554  1.3913 -1.0586 -0.9519
  960MOL0     H26701   5.270   5.085   7.675 -1.3735 -1.5335  0.6886
  960MOL0     H26702   4.809   4.724   6.988 -1.4931 -2.5172  1.0361
  960MOL0     H26703   4.689   4.531   6.965  0.1475 -0.2546  0.8716
  960MOL0     H26704   4.273   4.285   6.824 -0.4648  1.2654 -1.6395
  960MOL0     H26705   4.192   4.056   6.761  1.2337 -1.5713  1.7711
  960MOL0     H26706   5.781   4.048   6.290 -0.0971 -0.0568  0.9729
  960MOL0     H26707   5.998   3.935   6.269  0.3179  0.7208 -0.8407
  960MOL0     H26708   6.263   3.514   5.898 -0.8871  3.1587 -0.4757
  960MOL0     H26709   6.483   3.394   5.931  1.4297  2.6011 -1.0359
  960MOL0     H26710   6.717   3.392   6.106  2.3562 -0.9059 -2.1487
  960MOL0     H26711   6.654   3.293   5.977 -1.5537 -1.2451  0.1651
  960MOL0     H26712   6.861   3.196   6.081 -1.1870 -1.0004 -0.8599
  960MOL0     H26713   6.767   3.200   6.238 -1.1262  2.1223 -0.2186
  960MOL0     H26714   6.667   3.058   5.988 -2.1673  3.0880  1.4321
  960MOL0     H26715   6.641   3.001   6.152 -2.2071  2.0246 -1.9752
  960MOL0     H26716   6.881   2.942   6.173  2.1552 -0.3531 -1.1018
  960MOL0     H26717   6.775   2.832   6.064 -1.2408  0.5316 -0.8939
  960MOL0     H26718   7.050   2.994   5.783  0.9112 -2.2137  0.3670
  960MOL0     H26719   6.391   3.382   6.356  2.1538  0.2745  0.7153
  960MOL0     H26720   6.206   3.526   6.310 -4.6902  0.1774 -3.5208
  961MOL0     O26721  10.222   4.341   9.612 -0.4902  0.4524 -0.3546
  961MOL0     C26722  10.295   4.429   9.659  0.7183  0.5377 -0.1279
  961MOL0     O26723  10.420   4.411   9.712  0.6184  0.9265  0.9862
  961MOL0     C26724  10.493   4.295   9.739  0.1296  0.1517  0.5085
  961MOL0     C26725  10.602   4.289   9.837 -0.0682  0.0183  0.4949
  961MOL0     C26726  10.645   4.168   9.887 -0.1688 -0.6433 -0.4713
  961MOL0     C26727  10.577   4.047   9.868  0.3495 -0.6107 -0.2843
  961MOL0     O26728  10.612   3.932   9.938 -0.5712 -0.7922  0.1304
  961MOL0     C26729  10.515   3.824   9.957 -0.1514  0.1506  0.9920
  961MOL0     C26730  10.592   3.705  10.008  0.4596 -0.5048 -0.2802
  961MOL0     C26731  10.520   3.609  10.094 -0.7182 -0.0515 -0.4276
  961MOL0     C26732  10.610   3.532  10.190  1.0851 -0.0190  0.3641
  961MOL0     C26733  10.524   3.491  10.311 -0.3064 -0.2879  0.0103
  961MOL0     C26734  10.586   3.410  10.423  0.0428 -0.0617 -0.5329
  961MOL0     C26735  10.494   3.396  10.549 -0.3891 -0.2195 -0.2736
  961MOL0     C26736  10.517   3.263  10.624  1.0413 -0.0001 -0.1431
  961MOL0     N26737  10.421   3.160  10.569 -1.5030  0.0631 -0.1941
  961MOL0     C26738  10.295   3.148  10.615 -0.1658  0.0278 -0.4364
  961MOL0     C26739  10.240   3.054  10.536  0.4128  1.3143 -0.4310
  961MOL0     C26740  10.109   2.998  10.566 -0.9106 -0.2967  0.4278
  961MOL0     C26741  10.034   2.922  10.459 -1.1373  0.0682 -0.2153
  961MOL0     C26742   9.898   2.870  10.509  0.0664 -0.4017 -0.4264
  961MOL0     C26743   9.840   2.802  10.389  0.1599  0.5180  0.4009
  961MOL0     O26744   9.729   2.729  10.449  0.5196 -0.3427 -0.7948
  961MOL0     C26745   9.730   2.592  10.462  0.2288 -0.2388  0.7260
  961MOL0     C26746   9.611   2.529  10.455  0.0053  0.0125 -0.1800
  961MOL0     C26747   9.613   2.387  10.453  0.8509 -0.4284  0.2716
  961MOL0     C26748   9.729   2.313  10.465 -0.3177  0.2871  0.5484
  961MOL0     C26749   9.718   2.172  10.447 -0.3349 -0.4754  0.9785
  961MOL0     O26750   9.838   2.103  10.437  0.1773 -0.7934 -0.2923
  961MOL0     C26751   9.846   1.969  10.410 -0.2541 -0.3962 -0.3244
  961MOL0     C26752   9.758   1.876  10.468 -0.1903  0.3561 -0.1889
  961MOL0     C26753   9.790   1.738  10.454 -0.7441 -0.0041  0.7825
  961MOL0     C26754   9.916   1.701  10.405  0.7921  0.5078  0.2857
  961MOL0     O26755   9.959   1.568  10.413  0.2432  0.1061  0.6376
  961MOL0     C26756  10.048   1.514  10.307  0.2739  0.4844  0.2653
  961MOL0     C26757  10.046   1.365  10.322 -0.8162 -0.2503  1.2124
  961MOL0     C26758   9.981   1.315  10.454 -0.4995  0.3165  0.0808
  961MOL0     C26759  10.017   1.165  10.494  0.9583 -0.6767  0.1128
  961MOL0     C26760   9.984   1.128  10.639  0.5609  0.8089 -0.1814
  961MOL0     C26761  10.109   1.172  10.724  1.1242 -0.0452  0.6480
  961MOL0     C26762  10.072   1.143  10.872 -0.1011  0.8465 -1.1914
  961MOL0     C26763  10.194   1.132  10.959 -0.1803  0.1199 -0.5821
  961MOL0    Cl26764  10.171   1.219  11.113 -0.0950 -0.0002  0.1425
  961MOL0     C26765   9.999   1.801  10.363  0.5164 -0.7300  0.7100
  961MOL0     C26766   9.971   1.930  10.363  0.1402  0.4435  0.6800
  961MOL0     O26767   9.606   2.124  10.454  0.2962 -0.0425 -0.3766
  961MOL0     C26768   9.854   2.384  10.478 -0.2531 -0.2857 -1.1917
  961MOL0     C26769   9.853   2.528  10.484 -0.1863  0.5515 -0.0732
  961MOL0     N26770  10.341   3.017  10.444  0.3756 -0.7305 -0.3615
  961MOL0     N26771  10.448   3.085  10.462  0.6348 -0.2844 -0.4308
  961MOL0     C26772  10.471   4.046   9.772  0.6405 -0.3970 -0.8994
  961MOL0     C26773  10.434   4.166   9.709  0.2888  0.0918 -0.1641
  961MOL0     C26774  10.237   4.563   9.653 -0.4489 -0.8077 -0.5248
  961MOL0     C26775  10.296   4.680   9.706 -0.5750  0.1463 -0.1104
  961MOL0     C26776  10.234   4.802   9.695  0.2978 -1.0193  0.7738
  961MOL0     C26777  10.108   4.821   9.638  0.0300  0.0876  0.3139
  961MOL0     O26778  10.055   4.950   9.617 -0.0866 -0.1951 -0.1383
  961MOL0     C26779   9.926   4.975   9.567 -0.0127  1.1669  0.3132
  961MOL0     C26780   9.919   5.126   9.536  0.3984  0.0785 -0.6578
  961MOL0     C26781  10.031   5.191   9.455 -1.0009 -0.7869  0.4074
  961MOL0     C26782   9.992   5.205   9.307 -1.0047  0.0316  0.4170
  961MOL0     C26783  10.098   5.285   9.237  0.3736 -0.0327 -0.6586
  961MOL0     C26784  10.196   5.344   9.190 -0.3162  0.5756  0.5335
  961MOL0     C26785  10.044   4.705   9.581 -0.6096  1.1569  0.1294
  961MOL0     C26786  10.114   4.586   9.591  0.1767 -0.5852  0.1096
  961MOL0     H26787  10.649   4.376   9.883  3.3698 -1.0944 -0.5937
  961MOL0     H26788  10.722   4.178   9.962  0.8218 -1.3793 -1.3595
  961MOL0     H26789  10.468   3.802   9.860  0.2023  2.0252  0.3602
  961MOL0     H26790  10.433   3.856  10.023 -2.9812  2.0551 -3.0048
  961MOL0     H26791  10.663   3.753  10.076 -0.9196  2.9943 -1.1270
  961MOL0     H26792  10.645   3.673   9.918 -1.5420  0.4118 -1.8727
  961MOL0     H26793  10.457   3.538  10.039 -0.0588 -0.5963 -0.4880
  961MOL0     H26794  10.451   3.676  10.147  1.3464  3.6369 -2.0380
  961MOL0     H26795  10.642   3.445  10.132 -1.0006 -0.0355 -0.8659
  961MOL0     H26796  10.698   3.583  10.230 -0.4307  1.8262  1.5550
  961MOL0     H26797  10.427   3.452  10.279 -0.4240  1.1682 -1.5594
  961MOL0     H26798  10.495   3.579  10.370 -2.3263 -1.7786  1.3817
  961MOL0     H26799  10.667   3.474  10.459  0.3404 -0.9051  0.3671
  961MOL0     H26800  10.615   3.312  10.384 -1.3515  0.0652 -1.9778
  961MOL0     H26801  10.514   3.477  10.620 -2.0412  2.0314 -2.2738
  961MOL0     H26802  10.387   3.397  10.531 -1.0841 -2.3894  2.8074
  961MOL0     H26803  10.508   3.275  10.732  0.4693 -1.3535 -0.0275
  961MOL0     H26804  10.622   3.237  10.606  0.5217 -1.6069 -1.0637
  961MOL0     H26805  10.253   3.214  10.690  4.0780  4.6037 -1.5110
  961MOL0     H26806  10.039   3.077  10.596 -1.3301 -0.7725  0.6998
  961MOL0     H26807  10.114   2.939  10.657  1.7887 -1.3388 -0.2993
  961MOL0     H26808  10.100   2.841  10.427  3.4639  2.3844  2.4131
  961MOL0     H26809  10.021   2.989  10.373  3.3179 -0.4738 -1.5602
  961MOL0     H26810   9.902   2.801  10.593 -1.1080 -1.0956 -0.9232
  961MOL0     H26811   9.834   2.952  10.542  0.8830 -1.0000  3.0438
  961MOL0     H26812   9.914   2.735  10.345  1.5664  1.1252  1.7247
  961MOL0     H26813   9.814   2.870  10.307 -0.3650  3.1503  2.6134
  961MOL0     H26814   9.521   2.588  10.444  0.2623  0.5362  0.4688
  961MOL0     H26815   9.517   2.339  10.433 -0.6570  2.2356  0.5637
  961MOL0     H26816   9.672   1.905  10.527 -0.5201  2.4898 -1.6030
  961MOL0     H26817   9.726   1.659  10.493 -1.2391 -1.8374 -3.1891
  961MOL0     H26818  10.151   1.552  10.305 -0.2449  1.9806  0.3490
  961MOL0     H26819  10.001   1.537  10.211 -2.0011  1.2420  1.4722
  961MOL0     H26820  10.146   1.326  10.301 -0.6839  1.7993 -3.0654
  961MOL0     H26821   9.992   1.317  10.239 -0.4246  2.5685 -0.8192
  961MOL0     H26822   9.872   1.323  10.461 -0.5876 -1.8314  3.4068
  961MOL0     H26823  10.018   1.387  10.527 -0.0352 -0.2946  0.4559
  961MOL0     H26824   9.962   1.098  10.428 -2.1997  1.6870  0.1028
  961MOL0     H26825  10.121   1.155  10.462  1.3717 -0.0491  1.2048
  961MOL0     H26826   9.970   1.020  10.649 -2.3753  1.0222 -1.1275
  961MOL0     H26827   9.896   1.177  10.680 -0.2587 -0.1973 -0.6830
  961MOL0     H26828  10.124   1.280  10.711 -0.9752  0.1699 -0.5209
  961MOL0     H26829  10.200   1.117  10.699  1.3675 -0.4032  2.2190
  961MOL0     H26830  10.016   1.231  10.907  0.0825  0.4967  0.0102
  961MOL0     H26831  10.007   1.055  10.873 -1.0399  1.5139 -1.5562
  961MOL0     H26832  10.281   1.177  10.911 -0.2120 -2.3784 -3.2786
  961MOL0     H26833  10.223   1.026  10.971 -0.6470 -0.2096 -2.1685
  961MOL0     H26834  10.086   1.772  10.306  0.5250  0.3229  0.1552
  961MOL0     H26835  10.044   2.000  10.323  0.2645  0.1073  0.3048
  961MOL0     H26836   9.949   2.334  10.496  0.0568  1.4683  3.5189
  961MOL0     H26837   9.940   2.589  10.503 -1.6587  2.4044  1.1565
  961MOL0     H26838  10.412   3.959   9.745 -0.0310  0.3585 -1.9675
  961MOL0     H26839  10.347   4.153   9.645 -2.2823 -1.5892  3.3334
  961MOL0     H26840  10.387   4.666   9.763 -1.5000 -4.2653  0.6126
  961MOL0     H26841  10.286   4.890   9.731  0.8365 -0.8806 -0.3196
  961MOL0     H26842   9.848   4.946   9.638  2.2838  2.8181  3.7665
  961MOL0     H26843   9.912   4.908   9.481 -2.1051  0.4763  1.1373
  961MOL0     H26844   9.820   5.151   9.497 -1.2171 -3.1851  0.9521
  961MOL0     H26845   9.919   5.178   9.632  4.2214  0.2987 -0.6470
  961MOL0     H26846  10.115   5.121   9.455  0.4236  0.7793 -2.2376
  961MOL0     H26847  10.057   5.292   9.489 -0.4797 -0.4149 -1.0516
  961MOL0     H26848   9.994   5.104   9.267 -0.7579  1.0445 -2.2798
  961MOL0     H26849   9.903   5.260   9.275 -0.1651 -1.3852 -5.5127
  961MOL0     H26850  10.280   5.399   9.150  0.3412 -0.2953  0.6841
  961MOL0     H26851   9.948   4.716   9.532 -0.5364  1.1706 -0.0122
  961MOL0     H26852  10.067   4.500   9.546  2.4287 -2.2784  0.7820
  962MOL0     O26853   5.487   8.076   3.242 -0.1750  0.6260 -0.2811
  962MOL0     C26854   5.436   8.189   3.246 -0.1509  0.3751  0.7624
  962MOL0     O26855   5.306   8.211   3.260 -0.4990 -0.1190  0.2323
  962MOL0     C26856   5.231   8.107   3.299 -0.6826 -0.4071 -0.5891
  962MOL0     C26857   5.159   8.039   3.209 -0.1680  0.4709  1.5924
  962MOL0     C26858   5.067   7.933   3.236 -0.3089 -0.3800  0.6162
  962MOL0     C26859   5.055   7.902   3.373  0.3566 -0.5705  0.7557
  962MOL0     O26860   4.969   7.808   3.419 -0.4317  0.5165 -0.0089
  962MOL0     C26861   4.949   7.687   3.340 -0.5457 -0.4357  0.1082
  962MOL0     C26862   4.863   7.597   3.422  0.1391 -1.0812  0.0654
  962MOL0     C26863   4.712   7.586   3.368  0.7630 -0.6623  0.4345
  962MOL0     C26864   4.652   7.452   3.415  0.1211  0.1263 -0.1078
  962MOL0     C26865   4.501   7.436   3.399 -0.1780 -0.0597 -0.3872
  962MOL0     C26866   4.453   7.429   3.245  0.3746 -0.0610 -0.5974
  962MOL0     C26867   4.312   7.378   3.229 -0.4327  1.0572 -0.0344
  962MOL0     C26868   4.206   7.449   3.310  0.0943  0.0956  0.2262
  962MOL0     N26869   4.078   7.425   3.248 -0.2012  0.0804 -0.4143
  962MOL0     C26870   4.050   7.474   3.119  1.0758 -0.5959 -0.5215
  962MOL0     C26871   3.945   7.394   3.075 -0.7179  0.3721  1.2429
  962MOL0     C26872   3.872   7.416   2.938  0.0972  0.1821  0.6302
  962MOL0     C26873   3.721   7.430   2.956 -0.6645  0.2222  0.6547
  962MOL0     C26874   3.684   7.573   3.002  0.2675  0.4482  0.0790
  962MOL0     C26875   3.538   7.612   2.983  0.8339 -1.1228 -0.6107
  962MOL0     O26876   3.450   7.524   3.062 -0.5893 -0.6220  0.3345
  962MOL0     C26877   3.329   7.557   3.108 -0.2433 -0.4765  0.9122
  962MOL0     C26878   3.287   7.507   3.226  0.1057  0.3918 -0.4694
  962MOL0     C26879   3.157   7.537   3.281  0.1178 -0.2791  0.7524
  962MOL0     C26880   3.078   7.639   3.226 -0.8734  0.1017  0.8361
  962MOL0     C26881   2.945   7.680   3.279 -0.5236  0.2485 -0.1116
  962MOL0     O26882   2.910   7.612   3.390  0.0279 -0.3556  0.2844
  962MOL0     C26883   2.827   7.669   3.477 -0.1735 -0.1054 -1.1865
  962MOL0     C26884   2.883   7.769   3.568 -0.3795  0.1721 -0.7352
  962MOL0     C26885   2.803   7.823   3.665  0.2786 -1.1883  0.7547
  962MOL0     C26886   2.670   7.784   3.683 -0.1036  0.0467 -0.2162
  962MOL0     O26887   2.604   7.838   3.788 -0.5007  0.1859 -0.6565
  962MOL0     C26888   2.477   7.777   3.823  0.2317  0.1529  0.2184
  962MOL0     C26889   2.414   7.850   3.946  0.1037  0.1697 -1.6088
  962MOL0     C26890   2.371   7.751   4.050 -0.3571  0.5803 -0.3443
  962MOL0     C26891   2.256   7.660   4.015  0.4490  0.4516 -0.4274
  962MOL0     C26892   2.117   7.732   4.041 -0.0137  0.3075  0.0408
  962MOL0     C26893   2.007   7.633   3.999  0.4632 -0.2697 -0.6399
  962MOL0     C26894   1.864   7.701   4.008  0.1808  0.2728  0.1674
  962MOL0     C26895   1.827   7.761   4.141 -0.5402 -0.3260 -0.6512
  962MOL0    Cl26896   1.676   7.857   4.131 -0.2938 -0.6050 -0.1795
  962MOL0     C26897   2.618   7.687   3.602 -0.1017  0.5971  0.8916
  962MOL0     C26898   2.692   7.629   3.493 -0.1355 -0.3654 -0.1934
  962MOL0     O26899   2.886   7.777   3.224  0.5322  0.2193  0.4748
  962MOL0     C26900   3.122   7.693   3.101  0.7127  0.0584  0.3296
  962MOL0     C26901   3.241   7.650   3.044 -1.0945 -0.9865  0.3205
  962MOL0     N26902   3.924   7.292   3.169 -0.2313 -0.3025 -0.0706
  962MOL0     N26903   4.002   7.315   3.274  0.2245 -0.3081  0.0135
  962MOL0     C26904   5.131   7.974   3.472 -0.3079  0.5196 -0.8642
  962MOL0     C26905   5.218   8.072   3.434  0.6404  1.3035 -0.3660
  962MOL0     C26906   5.521   8.303   3.211 -0.6883 -0.6632 -0.2545
  962MOL0     C26907   5.662   8.286   3.211 -0.9221 -0.6793  0.2467
  962MOL0     C26908   5.744   8.398   3.186 -0.9841 -0.1734  0.8041
  962MOL0     C26909   5.693   8.518   3.152  0.9947 -0.5234  0.5230
  962MOL0     O26910   5.784   8.620   3.138  0.1069  0.8469  0.3185
  962MOL0     C26911   5.733   8.756   3.136 -0.5401  0.8818  0.0897
  962MOL0     C26912   5.811   8.851   3.049 -0.3000 -0.1870  0.6086
  962MOL0     C26913   5.804   8.813   2.900  0.1213  0.4311  0.5251
  962MOL0     C26914   5.812   8.931   2.811  1.2050  0.9026 -0.5734
  962MOL0     C26915   5.830   8.902   2.670  0.0364  0.1857 -0.7341
  962MOL0     C26916   5.861   8.870   2.562  0.3255  1.0186  0.3834
  962MOL0     C26917   5.552   8.534   3.137  0.1708  0.5731 -0.1013
  962MOL0     C26918   5.471   8.422   3.163 -0.1665  0.3137 -0.0208
  962MOL0     H26919   5.173   8.069   3.105 -1.3180 -2.8351  0.3575
  962MOL0     H26920   4.996   7.879   3.173 -0.5765  0.6236  0.0382
  962MOL0     H26921   5.048   7.645   3.318 -1.3033 -2.0509 -0.3122
  962MOL0     H26922   4.902   7.704   3.243 -1.7849 -2.2641  0.3516
  962MOL0     H26923   4.874   7.626   3.526  1.1934  2.6568 -0.9333
  962MOL0     H26924   4.910   7.499   3.408 -1.5022 -2.1778  1.8233
  962MOL0     H26925   4.705   7.597   3.259 -3.4064  1.5382  0.7373
  962MOL0     H26926   4.656   7.666   3.418 -1.9787 -1.8499 -0.5879
  962MOL0     H26927   4.686   7.364   3.361  1.1026  0.6540 -0.3801
  962MOL0     H26928   4.680   7.431   3.519 -1.3474 -2.2273 -0.1322
  962MOL0     H26929   4.467   7.524   3.455  3.3576 -0.2411  2.4312
  962MOL0     H26930   4.473   7.344   3.450 -0.4223 -0.7699 -1.7710
  962MOL0     H26931   4.524   7.365   3.193 -0.6968 -0.2686 -1.8772
  962MOL0     H26932   4.439   7.529   3.202 -0.4689  0.2175  0.2982
  962MOL0     H26933   4.290   7.389   3.122 -2.5305  1.7222  0.4415
  962MOL0     H26934   4.322   7.274   3.262  1.5002  0.8357 -1.1574
  962MOL0     H26935   4.229   7.555   3.322 -2.8424  0.5172  3.3630
  962MOL0     H26936   4.211   7.408   3.411  0.4238 -0.5367 -0.0391
  962MOL0     H26937   4.092   7.557   3.063 -0.7583  1.8528  1.4889
  962MOL0     H26938   3.900   7.329   2.878 -1.1477  0.0029  0.2796
  962MOL0     H26939   3.906   7.504   2.883 -2.0569  1.7417  1.6697
  962MOL0     H26940   3.704   7.354   3.033  0.6498 -1.1945 -0.4065
  962MOL0     H26941   3.677   7.409   2.858  1.2928  0.5321 -0.3436
  962MOL0     H26942   3.715   7.584   3.106 -0.1664 -1.2817  0.4118
  962MOL0     H26943   3.733   7.646   2.937 -0.3086  0.7462 -0.0317
  962MOL0     H26944   3.497   7.618   2.881 -3.6595  0.5850  1.0329
  962MOL0     H26945   3.528   7.717   3.012 -0.7158 -1.5153  0.3577
  962MOL0     H26946   3.351   7.428   3.262  1.1208  1.3464 -0.1179
  962MOL0     H26947   3.120   7.471   3.359  5.6886 -1.7936  2.5346
  962MOL0     H26948   2.984   7.805   3.555 -0.7635  2.1998  1.2361
  962MOL0     H26949   2.838   7.900   3.733 -1.2618 -2.1511  2.7837
  962MOL0     H26950   2.495   7.672   3.847 -0.4585 -0.2153 -0.8346
  962MOL0     H26951   2.408   7.776   3.738  0.4283 -0.7507  0.0612
  962MOL0     H26952   2.318   7.890   3.914 -1.6246  0.7811  3.4021
  962MOL0     H26953   2.484   7.923   3.986  1.6390 -0.4392 -3.0782
  962MOL0     H26954   2.344   7.799   4.145  2.0179  1.3345  0.0010
  962MOL0     H26955   2.464   7.697   4.070  0.7405  1.3983 -2.8609
  962MOL0     H26956   2.274   7.619   3.915  1.1439  0.8517 -0.4748
  962MOL0     H26957   2.267   7.579   4.088 -0.9296  1.7752  1.3264
  962MOL0     H26958   2.107   7.824   3.983  1.1825  1.2072  1.1771
  962MOL0     H26959   2.124   7.770   4.144  1.7878 -1.7379  0.7634
  962MOL0     H26960   2.011   7.538   4.054 -0.3717  0.9575  1.6717
  962MOL0     H26961   2.007   7.609   3.892 -1.8887 -2.8049 -0.1809
  962MOL0     H26962   1.872   7.791   3.946 -0.7162  1.0521  1.1378
  962MOL0     H26963   1.789   7.631   3.969  1.6885 -0.8162 -0.8605
  962MOL0     H26964   1.906   7.823   4.184  0.5858 -2.8187  1.1637
  962MOL0     H26965   1.821   7.666   4.195  3.8545  0.1791  1.1718
  962MOL0     H26966   2.515   7.653   3.612 -0.6826 -0.7209 -5.3910
  962MOL0     H26967   2.645   7.553   3.430 -3.7402 -1.4232  3.3886
  962MOL0     H26968   3.063   7.775   3.061  1.2332  0.1711 -0.2409
  962MOL0     H26969   3.264   7.701   2.951 -0.5733 -1.9555 -0.0882
  962MOL0     H26970   5.122   7.931   3.571 -1.4567 -2.3331 -2.1215
  962MOL0     H26971   5.290   8.112   3.505  3.8784  0.4921 -2.9415
  962MOL0     H26972   5.722   8.200   3.237  0.3210 -0.7505 -2.5755
  962MOL0     H26973   5.852   8.391   3.196 -0.8595  2.2290  1.9426
  962MOL0     H26974   5.740   8.778   3.243 -0.7218  1.6236 -0.0437
  962MOL0     H26975   5.632   8.764   3.096 -0.2293 -0.0837 -0.9296
  962MOL0     H26976   5.764   8.949   3.061  1.0328  0.3335  1.9679
  962MOL0     H26977   5.919   8.859   3.066  0.0047 -0.2806 -1.1034
  962MOL0     H26978   5.709   8.764   2.875 -1.1269  2.3740  1.2526
  962MOL0     H26979   5.889   8.747   2.880  0.3732  0.7374  0.5809
  962MOL0     H26980   5.718   8.988   2.808 -0.9205 -2.1772  1.4396
  962MOL0     H26981   5.898   8.985   2.851  1.6770  1.0331 -1.7200
  962MOL0     H26982   5.895   8.862   2.460 -2.1149 -1.7207 -0.3257
  962MOL0     H26983   5.489   8.618   3.111 -2.1269 -0.3421  2.0684
  962MOL0     H26984   5.363   8.424   3.167 -0.2352 -1.7106  0.7765
  963MOL0     O26985   1.712   3.522   6.574 -0.1224  0.9410  0.1317
  963MOL0     C26986   1.604   3.470   6.563  0.5429 -0.8724  0.5370
  963MOL0     O26987   1.507   3.482   6.651  0.2851  0.2208  0.4992
  963MOL0     C26988   1.551   3.476   6.783  0.3152  0.3869 -0.3620
  963MOL0     C26989   1.638   3.380   6.840 -0.0680  0.8841  0.4065
  963MOL0     C26990   1.685   3.402   6.971 -0.0244  0.7687  0.6326
  963MOL0     C26991   1.630   3.501   7.046  0.4328 -0.7212  0.8694
  963MOL0     O26992   1.681   3.517   7.176 -0.0930 -0.0269 -0.2084
  963MOL0     C26993   1.819   3.547   7.200  0.1236 -0.7172 -0.0053
  963MOL0     C26994   1.836   3.654   7.314  0.0418  0.7832 -0.3682
  963MOL0     C26995   1.984   3.677   7.327  0.7091  0.0614  0.3287
  963MOL0     C26996   2.020   3.782   7.444  0.2141  0.2042  0.2478
  963MOL0     C26997   2.165   3.830   7.446 -0.2981  0.0708  0.3970
  963MOL0     C26998   2.258   3.708   7.448 -1.1614 -0.2087 -0.2773
  963MOL0     C26999   2.409   3.763   7.447 -0.2158 -0.6201  0.2912
  963MOL0     C27000   2.516   3.661   7.473 -0.8837  0.5795  0.2703
  963MOL0     N27001   2.524   3.541   7.384  1.5405  0.0338  0.0175
  963MOL0     C27002   2.437   3.431   7.386 -0.4780 -0.4280 -0.0354
  963MOL0     C27003   2.457   3.363   7.269 -0.2012 -0.4501  0.2757
  963MOL0     C27004   2.373   3.244   7.231  0.2182 -0.3142  0.0225
  963MOL0     C27005   2.243   3.280   7.151  0.8901  0.3828 -0.4717
  963MOL0     C27006   2.149   3.152   7.147 -0.6543 -0.3391  1.0316
  963MOL0     C27007   2.011   3.171   7.104  0.4285  0.3561 -0.3977
  963MOL0     O27008   2.001   3.270   7.003  0.1543 -0.7400  0.2814
  963MOL0     C27009   1.995   3.232   6.869  0.7023  0.2259  0.5120
  963MOL0     C27010   1.991   3.350   6.787  0.6771  0.3308  1.0572
  963MOL0     C27011   1.983   3.336   6.641  0.6172 -0.2573  0.6529
  963MOL0     C27012   2.014   3.211   6.594 -0.0430  0.7744 -0.1850
  963MOL0     C27013   2.030   3.189   6.448 -0.1259 -0.0057 -0.0894
  963MOL0     O27014   2.025   3.301   6.372  0.1131 -0.4370 -0.4044
  963MOL0     C27015   2.041   3.298   6.236  0.3917  0.2661 -0.3597
  963MOL0     C27016   1.962   3.355   6.140 -0.5656 -0.7942  1.0243
  963MOL0     C27017   1.998   3.359   6.007 -0.4090  0.0098 -0.7726
  963MOL0     C27018   2.129   3.323   5.967 -0.4773 -0.0413 -0.4582
  963MOL0     O27019   2.164   3.321   5.839 -0.3418 -0.1292  0.2912
  963MOL0     C27020   2.151   3.454   5.783 -0.0817 -0.6718  0.3411
  963MOL0     C27021   2.084   3.456   5.640 -0.0099  0.2619  0.0917
  963MOL0     C27022   2.175   3.407   5.523 -0.1433 -1.1654  0.3373
  963MOL0     C27023   2.295   3.496   5.485  0.9161 -0.8133  0.3757
  963MOL0     C27024   2.255   3.605   5.374  0.1222 -0.5346  0.5372
  963MOL0     C27025   2.390   3.685   5.336 -0.0115  0.1180  0.2653
  963MOL0     C27026   2.367   3.807   5.250  0.5352  0.8004  0.1947
  963MOL0     C27027   2.486   3.855   5.179  0.8849  0.7851  0.1499
  963MOL0    Cl27028   2.444   4.011   5.090 -0.1432 -0.1414 -0.0479
  963MOL0     C27029   2.212   3.274   6.071 -0.1967  0.1727 -0.5271
  963MOL0     C27030   2.166   3.254   6.203 -0.2641  0.3359  0.7894
  963MOL0     O27031   2.069   3.079   6.413  0.4458 -0.1552  0.8693
  963MOL0     C27032   2.025   3.099   6.679  0.8489 -0.2490  0.2879
  963MOL0     C27033   1.997   3.105   6.812 -0.0594  0.6504  1.0468
  963MOL0     N27034   2.545   3.450   7.193  1.5936  0.8562 -1.0584
  963MOL0     N27035   2.578   3.548   7.263 -0.1909 -0.5097  0.5148
  963MOL0     C27036   1.543   3.586   6.991  0.4349 -0.3699  0.7382
  963MOL0     C27037   1.499   3.578   6.863  0.0358 -0.7505  0.1750
  963MOL0     C27038   1.564   3.434   6.426 -0.5412  0.1530 -1.1453
  963MOL0     C27039   1.641   3.462   6.318  0.1819 -0.5246  0.0498
  963MOL0     C27040   1.596   3.434   6.189  0.0985  0.4565  0.1225
  963MOL0     C27041   1.471   3.377   6.177  0.9343 -1.0984  0.2875
  963MOL0     O27042   1.414   3.368   6.051  0.3608  0.4801  0.7850
  963MOL0     C27043   1.308   3.456   6.015  0.2614 -1.0389  0.6369
  963MOL0     C27044   1.252   3.438   5.871 -0.3951 -0.2747  0.0107
  963MOL0     C27045   1.213   3.290   5.845 -0.5772 -0.9652  0.3861
  963MOL0     C27046   1.102   3.288   5.734 -0.4607 -0.6526  0.2791
  963MOL0     C27047   1.156   3.325   5.603 -0.0703  0.2659 -0.4246
  963MOL0     C27048   1.175   3.343   5.488 -0.9047  0.0060 -0.3736
  963MOL0     C27049   1.388   3.342   6.289 -0.2775  0.1758  0.2642
  963MOL0     C27050   1.443   3.369   6.412  0.5718 -0.5504  0.2126
  963MOL0     H27051   1.682   3.302   6.779  0.1529  2.2288 -1.2017
  963MOL0     H27052   1.753   3.327   7.011 -3.4200 -0.7480  4.1547
  963MOL0     H27053   1.852   3.594   7.106  1.3808 -2.0100 -0.2429
  963MOL0     H27054   1.869   3.452   7.221 -2.0165 -1.5844  1.5643
  963MOL0     H27055   1.796   3.623   7.410  1.9387  0.3716  0.3313
  963MOL0     H27056   1.775   3.735   7.273 -2.9432 -1.9336 -1.6598
  963MOL0     H27057   2.013   3.711   7.227 -0.9134 -1.3200 -0.6748
  963MOL0     H27058   2.039   3.585   7.350  0.7819 -1.1295 -3.7617
  963MOL0     H27059   1.946   3.862   7.440 -1.2016 -1.0166  0.9736
  963MOL0     H27060   2.009   3.733   7.541  1.6108 -0.5913  0.0411
  963MOL0     H27061   2.174   3.901   7.528  0.0822  1.3057 -0.6711
  963MOL0     H27062   2.175   3.880   7.349  1.3927 -2.8799 -1.1161
  963MOL0     H27063   2.237   3.662   7.351 -1.5862  1.6266 -1.0915
  963MOL0     H27064   2.249   3.648   7.539  2.8831 -1.4876 -0.5152
  963MOL0     H27065   2.421   3.814   7.351  0.0301 -1.5463 -0.1842
  963MOL0     H27066   2.434   3.835   7.525  1.1656 -1.4289  0.6316
  963MOL0     H27067   2.510   3.627   7.577  1.4484 -0.2811  0.1665
  963MOL0     H27068   2.614   3.707   7.465 -0.9229  0.5267 -0.6378
  963MOL0     H27069   2.376   3.405   7.472  1.3383 -0.7850  1.1993
  963MOL0     H27070   2.360   3.190   7.326  4.3708  0.4588  1.2136
  963MOL0     H27071   2.432   3.174   7.170  0.8906 -0.9656  1.3777
  963MOL0     H27072   2.267   3.323   7.054 -3.3175  1.7352 -1.1182
  963MOL0     H27073   2.195   3.362   7.204  3.3425  0.4677  1.8371
  963MOL0     H27074   2.185   3.085   7.069 -0.3099 -1.4127  2.0647
  963MOL0     H27075   2.151   3.091   7.238 -2.5169 -2.1065 -0.0383
  963MOL0     H27076   1.967   3.212   7.195  0.8562  2.7482 -1.2062
  963MOL0     H27077   1.965   3.075   7.080 -0.2991  0.0985  1.8561
  963MOL0     H27078   1.985   3.453   6.819  1.0559 -0.3603  3.5745
  963MOL0     H27079   1.968   3.415   6.569  1.6878 -0.6655 -0.0335
  963MOL0     H27080   1.862   3.383   6.170 -0.3915  1.4473 -0.3218
  963MOL0     H27081   1.934   3.414   5.940  1.1106  2.5722 -0.2469
  963MOL0     H27082   2.254   3.488   5.768  0.5636 -1.1072  3.1196
  963MOL0     H27083   2.097   3.527   5.843  1.4069  1.2520 -0.5374
  963MOL0     H27084   2.044   3.554   5.613  1.1808  1.0340  1.0352
  963MOL0     H27085   1.993   3.396   5.651 -0.5966  1.4653  2.2342
  963MOL0     H27086   2.108   3.382   5.441 -4.3832  0.2658  3.0384
  963MOL0     H27087   2.204   3.305   5.551 -2.9735 -2.3881 -0.8778
  963MOL0     H27088   2.339   3.538   5.576 -1.7238  0.9993  0.9411
  963MOL0     H27089   2.371   3.435   5.435  0.7996  0.1835 -1.0756
  963MOL0     H27090   2.182   3.677   5.414  1.4071  2.4153 -1.9973
  963MOL0     H27091   2.224   3.548   5.286 -0.5660  0.6334 -0.0021
  963MOL0     H27092   2.449   3.609   5.284 -1.2699  0.3417 -1.6002
  963MOL0     H27093   2.447   3.714   5.424  0.1202 -1.5707  0.7661
  963MOL0     H27094   2.298   3.781   5.169  2.1724 -4.8158  0.1755
  963MOL0     H27095   2.316   3.886   5.307 -2.2041 -0.7435  0.0733
  963MOL0     H27096   2.537   3.776   5.122 -1.0411  0.1630 -0.8018
  963MOL0     H27097   2.566   3.882   5.249  1.2104 -2.2037  1.0718
  963MOL0     H27098   2.313   3.247   6.043  0.5332  2.6893 -0.6123
  963MOL0     H27099   2.235   3.224   6.281  1.5182  2.4417  0.1313
  963MOL0     H27100   2.039   2.998   6.643  0.5682 -0.1939  0.0295
  963MOL0     H27101   1.983   3.020   6.878  0.6058  1.2168  1.9446
  963MOL0     H27102   1.501   3.661   7.058  2.7830  3.7708 -1.9644
  963MOL0     H27103   1.431   3.644   6.811  0.2477 -0.3692  0.3738
  963MOL0     H27104   1.743   3.501   6.323 -0.1679  0.5464 -0.7454
  963MOL0     H27105   1.651   3.442   6.096 -1.9076  2.5428 -0.9907
  963MOL0     H27106   1.362   3.551   6.011  1.2246 -1.6068 -0.2543
  963MOL0     H27107   1.229   3.448   6.091 -0.7891 -0.8476 -0.4033
  963MOL0     H27108   1.164   3.500   5.850 -0.0867 -0.4219 -1.9513
  963MOL0     H27109   1.331   3.470   5.802  0.8153 -2.8836  0.0766
  963MOL0     H27110   1.173   3.262   5.943  1.9830  2.1885  2.5560
  963MOL0     H27111   1.298   3.228   5.819  0.9465 -0.1020  2.9522
  963MOL0     H27112   1.073   3.182   5.726  0.4713 -0.7856 -2.1697
  963MOL0     H27113   1.017   3.348   5.766 -1.0173 -1.7194  0.8826
  963MOL0     H27114   1.205   3.361   5.387  2.0682  1.1762  0.6099
  963MOL0     H27115   1.300   3.280   6.280  0.5507 -0.9046 -0.6925
  963MOL0     H27116   1.382   3.350   6.499 -1.2257  0.2375 -0.8148
  964MOL0     O27117   5.345   0.627   2.061 -0.1360 -0.2418  0.6629
  964MOL0     C27118   5.326   0.513   2.038 -0.4958 -0.0339  0.4691
  964MOL0     O27119   5.415   0.410   2.040 -0.0145 -0.5740 -0.2947
  964MOL0     C27120   5.502   0.436   2.149  1.0971  0.2742  0.0047
  964MOL0     C27121   5.620   0.507   2.136  0.6377 -0.2410  0.3756
  964MOL0     C27122   5.700   0.533   2.247  0.3333  0.6444 -0.2379
  964MOL0     C27123   5.651   0.501   2.386  0.0501  0.5850  0.0967
  964MOL0     O27124   5.712   0.566   2.491 -0.0599  0.7008 -0.7941
  964MOL0     C27125   5.743   0.484   2.618 -0.1261  0.2039  0.2691
  964MOL0     C27126   5.893   0.516   2.660 -0.2261  0.1442  0.1832
  964MOL0     C27127   6.001   0.525   2.549 -0.1366  0.8430 -0.9921
  964MOL0     C27128   6.027   0.399   2.471  0.4462  0.6263  0.9011
  964MOL0     C27129   6.090   0.437   2.332  0.4359  0.1774 -0.4101
  964MOL0     C27130   6.136   0.320   2.238 -0.4060  0.2581 -0.6001
  964MOL0     C27131   6.018   0.235   2.198 -0.2596 -0.4335 -1.4720
  964MOL0     C27132   6.063   0.154   2.070  0.6237  0.2932 -0.2775
  964MOL0     N27133   5.968   0.054   2.033 -0.3372 -0.7502  0.1673
  964MOL0     C27134   5.882   0.063   1.924  0.3577  0.2102  0.4116
  964MOL0     C27135   5.777  -0.015   1.963 -0.7367 -0.1690  1.1888
  964MOL0     C27136   5.650  -0.037   1.877  0.4732  0.4857 -0.2284
  964MOL0     C27137   5.575   0.093   1.845 -0.0688  0.4448 -1.3093
  964MOL0     C27138   5.615   0.157   1.712 -0.5942  0.1779 -0.2469
  964MOL0     C27139   5.574   0.302   1.709  0.3709  0.1626 -0.3338
  964MOL0     O27140   5.675   0.385   1.770  0.7379 -0.1974  0.1566
  964MOL0     C27141   5.772   0.425   1.695 -0.5968  0.6548 -0.4567
  964MOL0     C27142   5.778   0.441   1.557 -0.8603  0.0598 -0.2385
  964MOL0     C27143   5.886   0.484   1.481 -0.5227 -0.4111 -0.6244
  964MOL0     C27144   5.996   0.525   1.549 -0.6204 -0.7345 -0.7851
  964MOL0     C27145   6.109   0.593   1.483  1.1172  0.7010  0.3023
  964MOL0     O27146   6.199   0.653   1.556 -0.0560  0.1767 -0.1181
  964MOL0     C27147   6.292   0.739   1.488  0.2951  0.1360  0.5757
  964MOL0     C27148   6.372   0.705   1.378  0.1758 -1.6180  0.4275
  964MOL0     C27149   6.441   0.804   1.305  0.4726  0.0196  0.0903
  964MOL0     C27150   6.428   0.939   1.339 -0.0314 -0.5003  1.1747
  964MOL0     O27151   6.492   1.035   1.277  0.5218  0.0578  1.0748
  964MOL0     C27152   6.484   1.036   1.134  0.6044  0.8645 -0.9932
  964MOL0     C27153   6.539   1.171   1.093 -0.1223  0.0449  0.3128
  964MOL0     C27154   6.691   1.155   1.082  0.5336  0.9083  1.6263
  964MOL0     C27155   6.745   1.301   1.068  0.6679  0.9919 -0.2261
  964MOL0     C27156   6.884   1.303   0.996 -0.5486  0.2686  0.2616
  964MOL0     C27157   6.991   1.257   1.103 -0.0047 -0.0477  1.2802
  964MOL0     C27158   7.127   1.277   1.041  0.2957 -0.3476  0.4251
  964MOL0     C27159   7.223   1.216   1.132 -0.3796 -0.3001  0.4696
  964MOL0    Cl27160   7.223   1.314   1.286  0.3456  0.0401 -0.4741
  964MOL0     C27161   6.368   0.966   1.460  0.9515 -0.1711 -0.1072
  964MOL0     C27162   6.293   0.867   1.533  0.3171  0.0644 -0.1713
  964MOL0     O27163   6.096   0.601   1.367 -0.5400 -0.3272 -0.2408
  964MOL0     C27164   5.996   0.512   1.684 -0.9540  1.0349  0.0348
  964MOL0     C27165   5.884   0.465   1.756  0.2586 -0.8026  0.1908
  964MOL0     N27166   5.801  -0.085   2.087  0.6807 -0.0221 -0.0638
  964MOL0     N27167   5.913  -0.034   2.124  0.5761  0.1988  0.2611
  964MOL0     C27168   5.537   0.421   2.387 -0.1947 -0.0968 -0.2929
  964MOL0     C27169   5.459   0.382   2.274 -0.9654  0.0746 -0.7311
  964MOL0     C27170   5.229   0.481   1.932  0.2513  0.3834  0.3139
  964MOL0     C27171   5.166   0.355   1.932 -0.1074  0.4010  0.0488
  964MOL0     C27172   5.086   0.303   1.825 -0.2340 -0.0781 -0.2829
  964MOL0     C27173   5.073   0.378   1.708 -0.0732  0.5378 -0.6275
  964MOL0     O27174   5.002   0.325   1.607  0.0847  1.1122 -0.3060
  964MOL0     C27175   4.892   0.387   1.547  0.5487  0.0248 -1.0701
  964MOL0     C27176   4.754   0.332   1.598 -0.3698  0.5864  0.0579
  964MOL0     C27177   4.760   0.186   1.649  0.4937 -0.0549  0.4203
  964MOL0     C27178   4.786   0.091   1.538 -0.5419  0.2445 -0.7059
  964MOL0     C27179   4.760  -0.041   1.587  0.3574  0.6549 -0.4183
  964MOL0     C27180   4.734  -0.158   1.612 -0.2400 -0.2211  0.0317
  964MOL0     C27181   5.135   0.503   1.706  0.9942 -0.4411  0.6120
  964MOL0     C27182   5.207   0.557   1.817  0.0021  1.0364 -0.4350
  964MOL0     H27183   5.653   0.539   2.038 -4.3602 -2.4559 -2.4397
  964MOL0     H27184   5.788   0.596   2.250  1.8328 -1.3829 -0.3544
  964MOL0     H27185   5.735   0.379   2.588  1.9102 -0.0868  0.5820
  964MOL0     H27186   5.675   0.498   2.703 -0.0932 -1.2884  0.5661
  964MOL0     H27187   5.921   0.443   2.737 -0.0907 -1.7647 -1.5788
  964MOL0     H27188   5.877   0.606   2.720  2.0180 -1.2686  3.1214
  964MOL0     H27189   6.089   0.555   2.607  0.5436 -0.9096 -1.0551
  964MOL0     H27190   5.975   0.605   2.479 -4.3182  2.3985  1.9488
  964MOL0     H27191   6.092   0.333   2.529 -1.3290 -1.5330  0.5689
  964MOL0     H27192   5.939   0.339   2.446  0.7565  0.7818 -0.6992
  964MOL0     H27193   6.186   0.488   2.344  1.7195 -1.4413 -2.8149
  964MOL0     H27194   6.015   0.493   2.276 -0.8469 -2.0289 -1.0117
  964MOL0     H27195   6.203   0.265   2.305 -1.3903  0.8471  0.9253
  964MOL0     H27196   6.186   0.357   2.149  1.8876 -0.4878  0.3167
  964MOL0     H27197   5.998   0.173   2.286  1.1078  0.9622 -0.1016
  964MOL0     H27198   5.925   0.287   2.175 -2.6136 -2.2122  2.8686
  964MOL0     H27199   6.153   0.096   2.092 -0.1301 -1.3252 -1.1869
  964MOL0     H27200   6.060   0.216   1.981 -2.7782  1.2805  0.3576
  964MOL0     H27201   5.876   0.127   1.837  0.5177 -0.6713 -0.2674
  964MOL0     H27202   5.587  -0.102   1.939  0.4932  1.3396  0.7025
  964MOL0     H27203   5.672  -0.101   1.791 -2.1323 -1.5254  0.4545
  964MOL0     H27204   5.581   0.163   1.929 -1.4150 -0.2285 -0.6065
  964MOL0     H27205   5.467   0.079   1.837 -0.1415  0.7451 -0.8909
  964MOL0     H27206   5.722   0.152   1.689  0.0695  0.2682  2.5025
  964MOL0     H27207   5.548   0.111   1.639 -2.3913 -1.5464  2.3248
  964MOL0     H27208   5.481   0.306   1.767  0.7192 -4.6367  1.0215
  964MOL0     H27209   5.545   0.335   1.609 -1.2377 -0.4570 -0.0988
  964MOL0     H27210   5.696   0.409   1.494  0.6501 -0.6623 -1.9213
  964MOL0     H27211   5.877   0.503   1.375  0.2994 -1.7328 -0.9603
  964MOL0     H27212   6.369   0.604   1.337 -3.2520 -1.5320  0.2113
  964MOL0     H27213   6.505   0.777   1.221 -1.0992  2.9440 -2.2027
  964MOL0     H27214   6.377   1.028   1.113  0.4745 -0.9281  0.1363
  964MOL0     H27215   6.535   0.952   1.087 -1.7744 -1.0692 -0.3196
  964MOL0     H27216   6.518   1.251   1.164 -0.9332 -0.2564  0.4267
  964MOL0     H27217   6.499   1.211   0.999  2.5230  0.7605 -0.6022
  964MOL0     H27218   6.719   1.082   1.006 -0.4448  0.5757  1.5680
  964MOL0     H27219   6.737   1.109   1.170 -0.7790 -1.2688  1.2413
  964MOL0     H27220   6.687   1.359   0.996  0.1539 -1.8043 -2.2364
  964MOL0     H27221   6.736   1.354   1.164 -0.5610 -1.7622  1.2902
  964MOL0     H27222   6.911   1.402   0.956 -3.3873  2.4694  3.2103
  964MOL0     H27223   6.878   1.234   0.912 -0.7338  1.8956 -1.1350
  964MOL0     H27224   6.980   1.152   1.130  1.0470 -0.1013  1.5607
  964MOL0     H27225   6.976   1.322   1.189  0.2436  4.6192 -1.8478
  964MOL0     H27226   7.134   1.221   0.947  1.7215  1.2245 -0.4450
  964MOL0     H27227   7.143   1.385   1.031 -2.8760  0.2961  1.1342
  964MOL0     H27228   7.328   1.203   1.104  0.0669  0.9800  1.4704
  964MOL0     H27229   7.196   1.116   1.167  0.6851 -0.1924  1.6871
  964MOL0     H27230   6.367   1.068   1.498 -3.5097 -0.8586  2.2658
  964MOL0     H27231   6.233   0.900   1.618  0.5532 -1.0386  0.4422
  964MOL0     H27232   6.081   0.548   1.740 -0.3220  1.5514 -1.2233
  964MOL0     H27233   5.888   0.456   1.864 -0.9194  1.9166  0.5417
  964MOL0     H27234   5.508   0.375   2.481 -0.3236 -1.3716 -0.9404
  964MOL0     H27235   5.370   0.321   2.269 -1.5532  0.4055  3.0479
  964MOL0     H27236   5.179   0.286   2.015  0.9217  2.2177  1.4741
  964MOL0     H27237   5.047   0.202   1.826  1.6588 -0.8643  2.1657
  964MOL0     H27238   4.890   0.369   1.439 -1.3113 -0.6967 -0.9608
  964MOL0     H27239   4.891   0.492   1.575 -2.5202 -0.4214  0.9560
  964MOL0     H27240   4.726   0.394   1.684 -1.7963  1.0703 -0.7111
  964MOL0     H27241   4.674   0.333   1.524  0.6233 -4.6521 -1.4806
  964MOL0     H27242   4.664   0.166   1.700  0.4983 -0.2950  0.3350
  964MOL0     H27243   4.837   0.175   1.726  0.4868  0.2933  0.4759
  964MOL0     H27244   4.730   0.112   1.447  1.2880  1.5111 -1.5999
  964MOL0     H27245   4.894   0.098   1.518 -0.6010  1.1559 -0.7600
  964MOL0     H27246   4.689  -0.253   1.632  0.2468 -0.2153  1.2213
  964MOL0     H27247   5.099   0.569   1.629 -0.0542 -0.2227  1.2625
  964MOL0     H27248   5.249   0.656   1.802  2.3701  0.2614  0.5867
  965MOL0     O27249   3.422   8.414  11.349  0.7087  0.5441 -0.2796
  965MOL0     C27250   3.375   8.517  11.297 -0.1935  0.7176  0.4982
  965MOL0     O27251   3.277   8.597  11.358  0.8071 -0.3493 -0.2956
  965MOL0     C27252   3.220   8.556  11.475  0.0641 -0.3099 -0.5256
  965MOL0     C27253   3.292   8.561  11.600  0.4809  0.4125 -0.0948
  965MOL0     C27254   3.238   8.497  11.713 -0.1693 -1.2074 -0.4887
  965MOL0     C27255   3.109   8.433  11.720 -0.7367 -0.3216  0.3316
  965MOL0     O27256   3.047   8.390  11.834  0.5172 -0.5509  0.7661
  965MOL0     C27257   3.072   8.461  11.955  0.1806  0.4044  0.3476
  965MOL0     C27258   2.957   8.427  12.053 -0.8071  0.2268 -0.6202
  965MOL0     C27259   2.831   8.515  12.022 -0.2191  1.1241 -0.3824
  965MOL0     C27260   2.736   8.512  12.137 -0.1382  0.6621 -0.2412
  965MOL0     C27261   2.616   8.600  12.135  1.3498 -1.0048  0.4512
  965MOL0     C27262   2.645   8.757  12.144  0.3871  0.1561 -0.1170
  965MOL0     C27263   2.522   8.830  12.182 -0.5542  0.6881 -0.6530
  965MOL0     C27264   2.461   8.793  12.321 -0.2564 -0.1024  0.3323
  965MOL0     N27265   2.390   8.914  12.365 -0.4124 -0.7447 -0.2838
  965MOL0     C27266   2.449   9.020  12.435 -0.1338 -0.2620 -0.6752
  965MOL0     C27267   2.362   9.125  12.421 -0.3660 -0.6478  0.6132
  965MOL0     C27268   2.361   9.257  12.502  0.2211  0.6244  0.1906
  965MOL0     C27269   2.278   9.369  12.431  0.3664 -0.1293  0.7164
  965MOL0     C27270   2.298   9.490  12.521 -0.3564  0.8605  0.6620
  965MOL0     C27271   2.238   9.609  12.454  1.1562 -0.4718  0.1260
  965MOL0     O27272   2.284   9.648  12.329  0.2844  1.0435  0.2490
  965MOL0     C27273   2.417   9.689  12.311 -0.3289 -0.1587  0.4329
  965MOL0     C27274   2.459   9.701  12.181 -0.5019 -1.0003  0.5960
  965MOL0     C27275   2.577   9.771  12.149  0.3975 -0.9234 -0.9228
  965MOL0     C27276   2.656   9.824  12.252  0.2600  0.4177 -0.4418
  965MOL0     C27277   2.789   9.893  12.225  0.5150  0.0172  0.3139
  965MOL0     O27278   2.859   9.850  12.119  0.6851  0.8836 -0.9894
  965MOL0     C27279   2.992   9.880  12.126  0.2911  0.4698  0.2074
  965MOL0     C27280   3.078   9.816  12.219  0.2881 -0.2088  0.9454
  965MOL0     C27281   3.214   9.823  12.208  0.1254  0.0200  0.4051
  965MOL0     C27282   3.276   9.884  12.103 -0.8506  0.0629 -0.4569
  965MOL0     O27283   3.413   9.865  12.088 -0.7037  0.1387 -0.5083
  965MOL0     C27284   3.439   9.797  11.965  0.7950  0.2044  0.8356
  965MOL0     C27285   3.593   9.778  11.961 -0.5427  0.5974 -0.7559
  965MOL0     C27286   3.644   9.702  11.843  0.4485 -1.4397  0.4382
  965MOL0     C27287   3.797   9.668  11.862  0.3887  0.2912 -0.0193
  965MOL0     C27288   3.855   9.606  11.747 -0.4502 -0.3394 -0.1751
  965MOL0     C27289   3.853   9.688  11.620  0.3067 -0.7642 -0.8555
  965MOL0     C27290   3.944   9.631  11.516  0.0382  0.2464  0.0683
  965MOL0     C27291   3.955   9.718  11.391  0.2330 -0.3033  0.0669
  965MOL0    Cl27292   3.975   9.603  11.244 -0.3753 -0.1833  0.0108
  965MOL0     C27293   3.197   9.962  12.010 -0.1926 -0.0965 -0.4250
  965MOL0     C27294   3.050   9.959  12.026 -0.4248  0.2626 -0.1676
  965MOL0     O27295   2.829   9.978  12.306  0.8404  0.3338  0.7055
  965MOL0     C27296   2.612   9.817  12.385 -0.0781 -0.1593  0.4253
  965MOL0     C27297   2.488   9.756  12.413 -0.6763  0.6711 -0.4324
  965MOL0     N27298   2.260   9.085  12.327  0.0770  0.0322 -0.1117
  965MOL0     N27299   2.279   8.959  12.310  1.1867  0.1000  0.5392
  965MOL0     C27300   3.030   8.442  11.604  0.5458  0.0910  0.4995
  965MOL0     C27301   3.086   8.503  11.484 -1.0808  0.8570 -0.5004
  965MOL0     C27302   3.392   8.548  11.152  0.5937  1.0293  0.0672
  965MOL0     C27303   3.305   8.640  11.087 -0.2927  0.9663  0.6177
  965MOL0     C27304   3.320   8.661  10.949 -1.4132 -0.4125  1.5150
  965MOL0     C27305   3.428   8.604  10.876 -0.2217  0.8010  0.4851
  965MOL0     O27306   3.480   8.633  10.746  0.7887 -0.1883 -0.7373
  965MOL0     C27307   3.398   8.717  10.659 -0.6201  0.1148 -0.2824
  965MOL0     C27308   3.473   8.768  10.535 -2.0999  0.4765  0.2645
  965MOL0     C27309   3.521   8.664  10.440 -0.7903 -0.0057 -0.3292
  965MOL0     C27310   3.572   8.715  10.304  0.4181  0.5596  0.2076
  965MOL0     C27311   3.621   8.593  10.228 -0.5006 -0.2837  0.3030
  965MOL0     C27312   3.643   8.508  10.145 -0.8225 -0.1501  0.7287
  965MOL0     C27313   3.511   8.515  10.946  0.4975 -0.0420  0.0543
  965MOL0     C27314   3.494   8.487  11.080 -0.5039  1.0632  1.1046
  965MOL0     H27315   3.392   8.602  11.600  1.2452 -1.3618 -1.2300
  965MOL0     H27316   3.299   8.503  11.802  1.9678 -0.5457 -1.9073
  965MOL0     H27317   3.072   8.569  11.939 -2.7741  0.2233 -1.6378
  965MOL0     H27318   3.163   8.414  11.993  2.0237  1.6729 -2.1837
  965MOL0     H27319   3.000   8.457  12.149  0.5753  0.4512 -1.2881
  965MOL0     H27320   2.931   8.321  12.058  1.1106 -0.4698 -3.1645
  965MOL0     H27321   2.777   8.459  11.944  1.2520  1.0070 -1.3477
  965MOL0     H27322   2.862   8.616  11.992 -0.2894  1.4799  0.7117
  965MOL0     H27323   2.697   8.410  12.147  0.7736  0.2202 -0.9873
  965MOL0     H27324   2.793   8.532  12.228  0.2982 -2.7870  0.3798
  965MOL0     H27325   2.548   8.574  12.217 -0.8203  0.9034 -0.6172
  965MOL0     H27326   2.559   8.587  12.043 -1.5444 -2.0089  2.2345
  965MOL0     H27327   2.673   8.785  12.042 -0.7511 -0.9393 -0.7606
  965MOL0     H27328   2.723   8.780  12.218 -0.8243  1.1314  0.9054
  965MOL0     H27329   2.544   8.936  12.168 -1.2741  0.4286 -4.9395
  965MOL0     H27330   2.450   8.816  12.101  1.2245  3.1055 -2.7906
  965MOL0     H27331   2.544   8.785  12.393  0.3704  1.7779 -0.1291
  965MOL0     H27332   2.388   8.713  12.310 -0.8723  0.3632  0.9273
  965MOL0     H27333   2.527   8.995  12.505 -2.5463 -1.0147  1.9612
  965MOL0     H27334   2.467   9.282  12.505  0.3930  0.0820 -0.8982
  965MOL0     H27335   2.325   9.247  12.605 -0.1603  0.1372  0.0165
  965MOL0     H27336   2.173   9.342  12.415  0.8819 -1.6472 -0.3677
  965MOL0     H27337   2.323   9.396  12.335 -0.7559 -0.4275  0.0993
  965MOL0     H27338   2.268   9.476  12.625  1.7853  1.7932  1.4758
  965MOL0     H27339   2.405   9.510  12.534 -0.1245  0.0797  0.0621
  965MOL0     H27340   2.244   9.691  12.525 -1.3799  0.3973 -0.5685
  965MOL0     H27341   2.135   9.575  12.444  0.9955  0.5408 -2.4007
  965MOL0     H27342   2.387   9.668  12.107 -2.6849 -0.4399  2.3733
  965MOL0     H27343   2.597   9.784  12.043  2.6189 -7.2014 -1.6944
  965MOL0     H27344   3.035   9.750  12.294 -1.7128 -0.2604 -0.1752
  965MOL0     H27345   3.285   9.773  12.274 -3.5442 -3.4333  2.1900
  965MOL0     H27346   3.401   9.838  11.871  0.0124 -3.2046 -0.4572
  965MOL0     H27347   3.381   9.705  11.970  0.8537  0.1869  1.2094
  965MOL0     H27348   3.629   9.722  12.048  0.5862  1.4962 -0.6269
  965MOL0     H27349   3.656   9.866  11.958 -1.0299  1.3066  3.6201
  965MOL0     H27350   3.620   9.767  11.758 -1.8273 -3.5483 -0.6402
  965MOL0     H27351   3.583   9.611  11.840 -2.3162  0.2577  1.0281
  965MOL0     H27352   3.837   9.769  11.875 -2.3371  1.7493 -1.9820
  965MOL0     H27353   3.828   9.630  11.960  0.7583  2.5237  0.7856
  965MOL0     H27354   3.794   9.514  11.741 -1.4762  0.2660  0.5962
  965MOL0     H27355   3.960   9.584  11.767 -0.2091  0.4562 -0.5299
  965MOL0     H27356   3.892   9.787  11.647  3.1663 -2.2238  0.8261
  965MOL0     H27357   3.750   9.683  11.584 -0.6196 -0.6220  1.6256
  965MOL0     H27358   4.045   9.609  11.551 -0.0157 -4.4944 -1.9254
  965MOL0     H27359   3.899   9.534  11.493  0.2769  0.2324 -0.3465
  965MOL0     H27360   4.031   9.796  11.398  1.2200 -1.3388  1.7982
  965MOL0     H27361   3.857   9.765  11.382 -0.6346 -1.6641  1.8584
  965MOL0     H27362   3.242  10.012  11.924  0.0404  2.7984  1.2368
  965MOL0     H27363   2.981  10.006  11.957 -0.0579 -1.1597 -1.5690
  965MOL0     H27364   2.675   9.873  12.453 -0.8660  2.6846 -1.0156
  965MOL0     H27365   2.459   9.744  12.517 -0.3038 -0.7614 -0.4738
  965MOL0     H27366   2.927   8.408  11.609 -0.1493  1.3506 -2.4759
  965MOL0     H27367   3.037   8.506  11.387  0.3016  1.4440 -1.2255
  965MOL0     H27368   3.224   8.692  11.137  3.0971  4.3418  3.2142
  965MOL0     H27369   3.248   8.718  10.891  2.2738  2.1025 -1.0999
  965MOL0     H27370   3.358   8.807  10.706 -0.2967  1.5378 -2.6117
  965MOL0     H27371   3.314   8.662  10.615  1.0574 -2.0167 -1.0120
  965MOL0     H27372   3.413   8.839  10.478 -0.1671 -0.5169 -3.2701
  965MOL0     H27373   3.563   8.811  10.581 -1.0607 -3.0902  1.9274
  965MOL0     H27374   3.433   8.600  10.429 -1.4206  0.0810  3.0850
  965MOL0     H27375   3.604   8.620  10.496 -0.6476 -0.7522 -1.1106
  965MOL0     H27376   3.486   8.758  10.251  2.2941  0.5906 -3.0666
  965MOL0     H27377   3.651   8.789  10.320 -0.1585  0.9216  1.5428
  965MOL0     H27378   3.656   8.427  10.077  0.7472 -0.5883  1.4987
  965MOL0     H27379   3.605   8.490  10.898  1.9937  1.5541  1.9389
  965MOL0     H27380   3.571   8.428  11.128  1.9268  3.7290  0.7569
  966MOL0     O27381   5.087  10.664   5.710 -0.3184 -0.4512  0.7586
  966MOL0     C27382   5.109  10.650   5.827 -0.1679  0.2943  1.0636
  966MOL0     O27383   5.188  10.721   5.899  0.8243  0.0987 -0.3201
  966MOL0     C27384   5.258  10.825   5.845 -0.1317  0.2634  0.0463
  966MOL0     C27385   5.223  10.952   5.888 -0.2433  0.1248 -0.0546
  966MOL0     C27386   5.280  11.064   5.826 -0.9675  0.0671 -0.2498
  966MOL0     C27387   5.380  11.049   5.730 -0.3993  0.3241  0.8261
  966MOL0     O27388   5.465  11.147   5.678 -0.4026 -0.0465 -0.7239
  966MOL0     C27389   5.429  11.281   5.677  0.0318 -0.4830  0.2629
  966MOL0     C27390   5.529  11.366   5.603 -0.0342 -0.4744  0.6607
  966MOL0     C27391   5.669  11.363   5.660 -0.1322  0.4646 -0.3608
  966MOL0     C27392   5.665  11.385   5.807  0.7989  0.0604 -0.4491
  966MOL0     C27393   5.796  11.438   5.873 -0.5476  0.2162  0.0144
  966MOL0     C27394   5.935  11.388   5.829  0.3131  0.4214  0.2279
  966MOL0     C27395   6.049  11.461   5.907 -0.3383  0.8931 -1.0442
  966MOL0     C27396   6.176  11.382   5.879 -0.0681  0.2932 -0.0228
  966MOL0     N27397   6.279  11.436   5.967  0.3334  0.4474  0.8761
  966MOL0     C27398   6.347  11.552   5.935 -0.5979  0.2090  0.2885
  966MOL0     C27399   6.401  11.598   6.046 -0.5711  0.7174  0.5092
  966MOL0     C27400   6.475  11.727   6.070  0.0097  1.7122 -0.6373
  966MOL0     C27401   6.630  11.716   6.052  0.1740 -0.9795  0.2016
  966MOL0     C27402   6.688  11.610   6.152  0.8866  0.8119 -0.4278
  966MOL0     C27403   6.838  11.621   6.172  1.1921 -0.1103 -0.0260
  966MOL0     O27404   6.897  11.603   6.034  0.1874  0.4348  0.0388
  966MOL0     C27405   7.036  11.599   6.027  0.1145  0.3289  0.1378
  966MOL0     C27406   7.096  11.567   5.902 -0.3612  1.1942 -0.6284
  966MOL0     C27407   7.234  11.553   5.900 -0.4367  0.5533  0.0321
  966MOL0     C27408   7.321  11.571   6.011  0.1961 -0.2838  0.0143
  966MOL0     C27409   7.464  11.556   5.999 -0.3786 -0.0158  0.3611
  966MOL0     O27410   7.546  11.639   6.063 -0.0362  0.2309  0.2422
  966MOL0     C27411   7.676  11.616   6.038 -1.1987  0.7000 -1.2578
  966MOL0     C27412   7.743  11.492   6.047  0.0118 -0.4034  0.0445
  966MOL0     C27413   7.883  11.479   6.021  0.1948  0.6039  0.4752
  966MOL0     C27414   7.948  11.596   5.982  0.8499  0.7791  0.8083
  966MOL0     O27415   8.080  11.606   5.936  0.6486  0.4573  0.2673
  966MOL0     C27416   8.148  11.482   5.910 -0.2280 -0.5168 -0.2357
  966MOL0     C27417   8.294  11.509   5.893 -0.6118  0.3509  0.0742
  966MOL0     C27418   8.321  11.620   5.789  1.0142  0.2584  0.3104
  966MOL0     C27419   8.458  11.621   5.732 -0.3181  0.7446  0.5049
  966MOL0     C27420   8.488  11.750   5.659  0.6823  0.1832  1.2442
  966MOL0     C27421   8.434  11.760   5.519 -0.3846  0.0994  0.8387
  966MOL0     C27422   8.450  11.902   5.457 -0.1504  0.8493 -0.0269
  966MOL0     C27423   8.605  11.931   5.446 -0.6531  0.5865  0.4716
  966MOL0    Cl27424   8.633  12.037   5.306  0.1356 -0.4107 -0.6187
  966MOL0     C27425   7.884  11.716   5.967 -0.1266 -0.3272 -0.2289
  966MOL0     C27426   7.746  11.729   6.013 -0.9147  0.4443  0.9971
  966MOL0     O27427   7.499  11.477   5.907  0.9390  0.4998 -0.4227
  966MOL0     C27428   7.260  11.609   6.128 -0.5463 -0.2400  0.0536
  966MOL0     C27429   7.117  11.629   6.135 -0.3474 -0.3280  0.5552
  966MOL0     N27430   6.376  11.505   6.152 -0.3132  0.2831  1.8062
  966MOL0     N27431   6.295  11.411   6.103 -0.3826 -0.1281  0.2016
  966MOL0     C27432   5.423  10.922   5.695 -1.2170  0.0419  0.6945
  966MOL0     C27433   5.354  10.809   5.740  1.0588 -0.1126 -1.0966
  966MOL0     C27434   5.065  10.519   5.889 -0.0639 -0.3507 -0.1766
  966MOL0     C27435   4.997  10.416   5.817  0.1822 -0.5340  0.8251
  966MOL0     C27436   4.951  10.304   5.876  0.2829  0.1732  0.0116
  966MOL0     C27437   4.965  10.292   6.017 -0.8755  0.2094 -0.1677
  966MOL0     O27438   4.899  10.185   6.079 -0.8448 -0.9353 -0.7754
  966MOL0     C27439   4.881  10.061   6.020 -0.6646  0.4607 -0.1062
  966MOL0     C27440   4.891   9.948   6.127 -0.1020  0.1048 -0.7582
  966MOL0     C27441   5.028   9.898   6.180 -0.4898 -0.1176  0.1740
  966MOL0     C27442   5.119  10.008   6.202 -0.1665  0.3316  0.7075
  966MOL0     C27443   5.253   9.943   6.229  0.7653 -0.3833  0.3844
  966MOL0     C27444   5.355   9.880   6.239  1.1998 -0.1514  0.3431
  966MOL0     C27445   5.016  10.392   6.093 -0.5133 -0.7505 -0.1285
  966MOL0     C27446   5.073  10.511   6.031  1.0716 -0.3245 -0.2021
  966MOL0     H27447   5.150  10.958   5.969  0.1204 -0.3835  0.3183
  966MOL0     H27448   5.248  11.157   5.874 -1.8508  1.3912 -3.1897
  966MOL0     H27449   5.416  11.321   5.779 -0.7126  0.6576 -0.2551
  966MOL0     H27450   5.339  11.294   5.616  0.7509  1.3294 -0.4757
  966MOL0     H27451   5.474  11.460   5.614 -0.2002 -0.3871 -0.6592
  966MOL0     H27452   5.545  11.351   5.496 -1.3273  2.7829 -0.1225
  966MOL0     H27453   5.726  11.448   5.621  0.2650  0.7207  0.7367
  966MOL0     H27454   5.710  11.268   5.624 -1.4308  0.3141 -1.5330
  966MOL0     H27455   5.575  11.445   5.822 -0.8890 -1.8766 -2.1419
  966MOL0     H27456   5.646  11.282   5.840  0.8613 -0.8726 -3.0591
  966MOL0     H27457   5.801  11.419   5.981  3.9554 -3.5056 -0.5107
  966MOL0     H27458   5.796  11.546   5.858  1.7459  0.4002  0.9455
  966MOL0     H27459   5.946  11.417   5.724 -0.4101  1.4498  0.4218
  966MOL0     H27460   5.942  11.279   5.835  0.8387  0.4187 -0.3115
  966MOL0     H27461   6.065  11.565   5.878 -2.9540  1.6893  0.0334
  966MOL0     H27462   6.032  11.460   6.015  2.6344  0.1005 -0.4987
  966MOL0     H27463   6.205  11.391   5.774 -2.4215 -3.1379 -1.1400
  966MOL0     H27464   6.162  11.274   5.888  1.4645 -0.3050 -3.3692
  966MOL0     H27465   6.346  11.603   5.839 -4.3566 -1.3876 -0.7050
  966MOL0     H27466   6.448  11.770   6.166 -1.0502 -1.1718  0.4652
  966MOL0     H27467   6.441  11.794   5.990 -0.1295  2.7488  0.2648
  966MOL0     H27468   6.676  11.812   6.079 -1.0609  0.3096 -1.9558
  966MOL0     H27469   6.654  11.689   5.949 -2.0903 -0.9255 -0.3867
  966MOL0     H27470   6.639  11.626   6.248  1.1794  2.3725 -0.5151
  966MOL0     H27471   6.673  11.509   6.111 -0.1037  0.8312 -0.1341
  966MOL0     H27472   6.856  11.529   6.230 -3.7235 -0.7777  0.9112
  966MOL0     H27473   6.872  11.711   6.223  1.9225  0.0986 -0.8682
  966MOL0     H27474   7.043  11.528   5.815 -0.3961  0.9780 -0.5111
  966MOL0     H27475   7.284  11.519   5.810 -2.4850  0.2004 -1.0554
  966MOL0     H27476   7.695  11.395   6.059  2.5369 -1.4590  2.9331
  966MOL0     H27477   7.944  11.389   6.029  0.1132  0.1385 -2.7565
  966MOL0     H27478   8.107  11.454   5.813 -0.4538 -0.0960 -0.2638
  966MOL0     H27479   8.135  11.404   5.986  3.6823 -0.5400  0.6175
  966MOL0     H27480   8.337  11.411   5.869 -0.1785  0.3198  0.9459
  966MOL0     H27481   8.342  11.527   5.989  0.3001 -0.9419 -0.1095
  966MOL0     H27482   8.322  11.717   5.840 -0.9367 -0.5772  2.1051
  966MOL0     H27483   8.249  11.618   5.706  0.6963  1.2909  0.5429
  966MOL0     H27484   8.533  11.603   5.810  0.7092  3.4604  0.2763
  966MOL0     H27485   8.472  11.540   5.659 -0.1814  2.6722 -1.7432
  966MOL0     H27486   8.597  11.751   5.655  0.8035  4.4067  1.0285
  966MOL0     H27487   8.454  11.840   5.709 -3.6407  0.4981 -1.7144
  966MOL0     H27488   8.327  11.738   5.518 -0.2897 -0.3894  1.2337
  966MOL0     H27489   8.477  11.684   5.453 -1.3660  1.3256 -1.2974
  966MOL0     H27490   8.410  11.894   5.356 -1.5318  1.3398  0.4504
  966MOL0     H27491   8.396  11.972   5.522  1.8910 -0.1887  3.0331
  966MOL0     H27492   8.674  11.847   5.434  1.3713  2.3709 -1.5179
  966MOL0     H27493   8.638  11.978   5.539 -1.2190 -0.1103  1.0328
  966MOL0     H27494   7.939  11.810   5.966 -2.2793  1.0073 -0.7170
  966MOL0     H27495   7.698  11.826   6.021 -0.2879  0.7751  0.8388
  966MOL0     H27496   7.317  11.634   6.217 -2.2702  0.5317  0.9962
  966MOL0     H27497   7.079  11.682   6.222 -1.1475  0.3324 -0.1852
  966MOL0     H27498   5.509  10.921   5.630 -0.6012  1.0598  1.4669
  966MOL0     H27499   5.387  10.715   5.698  2.1386  1.1938 -3.3649
  966MOL0     H27500   4.983  10.437   5.711  1.0864 -1.6947  0.4590
  966MOL0     H27501   4.899  10.228   5.819  3.6313 -2.1377 -0.2534
  966MOL0     H27502   4.958  10.025   5.950 -1.0701 -1.4018  0.3494
  966MOL0     H27503   4.786  10.051   5.968 -0.4959  3.6990 -1.2331
  966MOL0     H27504   4.832   9.986   6.211  0.2165 -0.7879 -0.1144
  966MOL0     H27505   4.844   9.855   6.095 -0.1067 -1.4482  3.1382
  966MOL0     H27506   5.072   9.827   6.110  0.1702 -1.3030  1.7224
  966MOL0     H27507   5.014   9.847   6.276  0.3871  3.2595  2.2883
  966MOL0     H27508   5.130  10.084   6.123  2.2807 -1.0171 -0.3701
  966MOL0     H27509   5.089  10.072   6.286  4.1340 -0.8341  3.4790
  966MOL0     H27510   5.443   9.822   6.257  2.4886  2.1349  1.9418
  966MOL0     H27511   5.011  10.369   6.199  0.4081 -0.8133 -0.0910
  966MOL0     H27512   5.117  10.585   6.097 -0.6203 -0.3155  0.9828
  967MOL0     O27513   2.390   3.586   8.316  0.1472  0.3456 -0.6031
  967MOL0     C27514   2.345   3.533   8.418 -0.3270  0.2084 -0.1694
  967MOL0     O27515   2.209   3.550   8.461 -0.0799 -0.2891  0.6236
  967MOL0     C27516   2.120   3.592   8.370  0.1765  0.2342  0.0841
  967MOL0     C27517   2.119   3.726   8.321 -0.0870  0.3770 -0.6560
  967MOL0     C27518   2.023   3.755   8.235 -0.6088 -0.5091  0.8676
  967MOL0     C27519   1.925   3.673   8.177 -0.1905  0.3905  0.4185
  967MOL0     O27520   1.833   3.700   8.079 -0.1687 -0.1006 -0.8168
  967MOL0     C27521   1.863   3.817   8.005 -0.1706 -0.6097  0.2345
  967MOL0     C27522   1.745   3.842   7.910  0.4073  0.2870 -0.2730
  967MOL0     C27523   1.755   3.984   7.857 -0.3292  0.8153  0.3728
  967MOL0     C27524   1.627   4.018   7.777  0.4797  0.3483  0.3620
  967MOL0     C27525   1.632   3.927   7.643  1.1606 -0.4703  0.2861
  967MOL0     C27526   1.507   3.955   7.553  0.0844  0.1736 -1.4133
  967MOL0     C27527   1.529   3.934   7.405 -0.3406 -0.6075 -0.2493
  967MOL0     C27528   1.394   3.897   7.341 -0.1810  0.0850  0.4136
  967MOL0     N27529   1.343   3.767   7.380 -0.6778 -0.3091  0.6856
  967MOL0     C27530   1.211   3.738   7.417 -0.0796 -0.2991 -0.7924
  967MOL0     C27531   1.221   3.607   7.435 -0.8250 -0.6044 -1.0197
  967MOL0     C27532   1.107   3.513   7.459 -0.4186 -0.3055  0.4825
  967MOL0     C27533   1.087   3.486   7.610  0.7754 -0.5434  1.1152
  967MOL0     C27534   0.944   3.457   7.664  0.1718 -0.2568 -0.1299
  967MOL0     C27535   0.893   3.318   7.615 -1.3625  0.0712  0.5130
  967MOL0     O27536   0.784   3.272   7.695  0.1761 -0.0913 -0.1425
  967MOL0     C27537   0.702   3.170   7.648  0.2066  0.2687 -0.2603
  967MOL0     C27538   0.711   3.116   7.521 -0.4339  0.4527  1.2297
  967MOL0     C27539   0.610   3.023   7.470 -0.1551  0.5040 -0.2114
  967MOL0     C27540   0.518   2.970   7.564 -0.3801 -0.5806  0.2360
  967MOL0     C27541   0.415   2.878   7.514  0.0067  0.8308 -0.3114
  967MOL0     O27542   0.410   2.847   7.379  0.4484 -0.3610 -0.5700
  967MOL0     C27543   0.331   2.746   7.335 -0.1694 -1.1084  0.0221
  967MOL0     C27544   0.234   2.773   7.236 -0.8113  0.1398 -0.4524
  967MOL0     C27545   0.148   2.673   7.190  0.6878 -0.2442  0.8809
  967MOL0     C27546   0.168   2.544   7.234 -0.4970 -0.1728  0.0417
  967MOL0     O27547   0.097   2.443   7.185 -0.4373  0.1062 -0.7887
  967MOL0     C27548  -0.038   2.481   7.148  0.1056  0.8151  0.0479
  967MOL0     C27549  -0.123   2.358   7.105  0.2218  0.3827  0.0875
  967MOL0     C27550  -0.258   2.395   7.040  0.9268 -0.5915 -0.4230
  967MOL0     C27551  -0.334   2.269   6.999 -0.9039 -0.5311 -0.9965
  967MOL0     C27552  -0.484   2.281   7.011  0.5466  0.4046  0.6439
  967MOL0     C27553  -0.565   2.145   7.019 -0.8328  0.3266 -0.8817
  967MOL0     C27554  -0.708   2.166   7.053 -0.2365  0.8036  0.5390
  967MOL0     C27555  -0.739   2.252   7.185 -0.0804 -0.2805  0.3612
  967MOL0    Cl27556  -0.912   2.234   7.215  0.6142 -0.9975 -0.6376
  967MOL0     C27557   0.260   2.523   7.332  0.3598 -0.1633  0.8090
  967MOL0     C27558   0.336   2.621   7.402  0.0561 -0.1240  0.3989
  967MOL0     O27559   0.333   2.847   7.602 -0.6896 -0.0433  0.2475
  967MOL0     C27560   0.520   3.024   7.690 -0.5653  0.1797 -0.4000
  967MOL0     C27561   0.597   3.129   7.732 -0.5209 -0.4830 -0.3153
  967MOL0     N27562   1.346   3.560   7.409  0.0494 -0.4537 -0.6392
  967MOL0     N27563   1.421   3.655   7.384  0.9604 -0.1870  0.3220
  967MOL0     C27564   1.921   3.544   8.237 -0.0360  0.7083 -0.6306
  967MOL0     C27565   2.014   3.506   8.332  0.4055  0.1833 -0.6394
  967MOL0     C27566   2.448   3.473   8.501 -0.9137  0.1215 -1.1214
  967MOL0     C27567   2.421   3.466   8.637  0.6737  0.1571 -0.3745
  967MOL0     C27568   2.514   3.432   8.737 -0.0774  1.0148 -0.0030
  967MOL0     C27569   2.641   3.410   8.703 -0.7305 -0.7790  0.6937
  967MOL0     O27570   2.729   3.371   8.810 -0.1544  0.7313 -0.6457
  967MOL0     C27571   2.846   3.445   8.822  0.5301 -0.0463  0.3524
  967MOL0     C27572   2.940   3.342   8.874 -0.6685 -0.5720  0.9246
  967MOL0     C27573   3.084   3.413   8.879  0.8610  0.0922  0.3379
  967MOL0     C27574   3.166   3.363   9.000 -0.5078 -0.5938  0.2092
  967MOL0     C27575   3.200   3.228   8.975 -0.4491  0.6873 -0.1603
  967MOL0     C27576   3.228   3.105   8.977 -0.8050  0.1635 -1.1486
  967MOL0     C27577   2.672   3.410   8.575 -0.3699  0.2288  0.2989
  967MOL0     C27578   2.585   3.458   8.476 -0.0975 -0.3959  0.8025
  967MOL0     H27579   2.205   3.787   8.347  0.7981 -1.5905  1.3575
  967MOL0     H27580   2.031   3.850   8.185 -2.3480 -1.4944 -1.4900
  967MOL0     H27581   1.951   3.798   7.943 -0.5787  0.3899 -0.6872
  967MOL0     H27582   1.872   3.906   8.067 -1.6407 -1.1647  1.2799
  967MOL0     H27583   1.648   3.827   7.959  1.0398  0.1531  0.9795
  967MOL0     H27584   1.750   3.772   7.826 -0.5161  3.7147 -3.3831
  967MOL0     H27585   1.833   3.991   7.781  0.1806 -1.6398  0.5722
  967MOL0     H27586   1.770   4.056   7.937  2.4169  0.9851 -0.1855
  967MOL0     H27587   1.540   4.010   7.842  0.1971  2.8266  0.3754
  967MOL0     H27588   1.619   4.124   7.750 -0.4868  0.6108  1.6011
  967MOL0     H27589   1.634   3.818   7.657 -0.1944 -0.5723 -0.1206
  967MOL0     H27590   1.722   3.952   7.586  1.4186 -2.5796 -0.3241
  967MOL0     H27591   1.478   4.060   7.557 -1.2318 -0.2009  0.4979
  967MOL0     H27592   1.426   3.894   7.594 -0.1308 -2.1314 -4.8425
  967MOL0     H27593   1.583   4.023   7.371  1.8705 -1.1129  1.6626
  967MOL0     H27594   1.600   3.855   7.380  0.6910 -0.3948  1.7755
  967MOL0     H27595   1.403   3.910   7.233 -0.0335 -0.8846  0.2966
  967MOL0     H27596   1.319   3.966   7.381  3.1016  3.0918  1.9669
  967MOL0     H27597   1.122   3.800   7.423  1.5471  2.0253  0.8406
  967MOL0     H27598   1.107   3.423   7.397 -1.3362  0.3526 -0.4952
  967MOL0     H27599   1.016   3.565   7.429 -2.4283 -3.0625  1.3142
  967MOL0     H27600   1.120   3.570   7.671  0.9349  0.6513 -0.5591
  967MOL0     H27601   1.157   3.404   7.633 -0.3890 -1.6358  0.8559
  967MOL0     H27602   0.943   3.452   7.773 -0.9805  1.7766  0.0001
  967MOL0     H27603   0.876   3.539   7.639 -1.3527 -1.6364 -0.6737
  967MOL0     H27604   0.976   3.247   7.624 -0.2550  1.4714  2.2269
  967MOL0     H27605   0.868   3.329   7.509 -1.1483 -2.0558  0.2135
  967MOL0     H27606   0.795   3.135   7.456 -1.2825 -0.5663 -0.2195
  967MOL0     H27607   0.623   2.965   7.379  0.2914 -2.2145  1.4781
  967MOL0     H27608   0.215   2.874   7.203  0.5663  0.4685 -0.3184
  967MOL0     H27609   0.075   2.699   7.114 -0.0323 -3.6483  0.2608
  967MOL0     H27610  -0.038   2.546   7.061 -1.8279 -0.0175 -0.6228
  967MOL0     H27611  -0.086   2.528   7.234  1.5946  0.1930  1.2737
  967MOL0     H27612  -0.139   2.289   7.189 -0.0680 -0.1388 -0.3943
  967MOL0     H27613  -0.069   2.299   7.030 -4.9130  0.5142 -4.3341
  967MOL0     H27614  -0.259   2.451   6.946 -4.9067 -0.4158 -0.6203
  967MOL0     H27615  -0.313   2.463   7.105  1.5244  0.4600 -1.0006
  967MOL0     H27616  -0.316   2.232   6.899  2.4856  2.5537 -1.7443
  967MOL0     H27617  -0.319   2.192   7.075 -0.9385  1.4866  1.2067
  967MOL0     H27618  -0.522   2.349   6.935 -0.6754  0.3447  1.1867
  967MOL0     H27619  -0.488   2.333   7.107 -2.3501  0.0484  0.8044
  967MOL0     H27620  -0.527   2.080   7.098 -0.0674  2.4236  0.5495
  967MOL0     H27621  -0.552   2.091   6.924 -1.4673 -2.3435  0.4490
  967MOL0     H27622  -0.769   2.206   6.971 -3.2133  1.7970  2.9989
  967MOL0     H27623  -0.734   2.062   7.070  0.3740  0.1884 -1.9353
  967MOL0     H27624  -0.715   2.356   7.160 -0.6644  0.2995  2.0827
  967MOL0     H27625  -0.677   2.226   7.272  2.4741  4.1441  0.1430
  967MOL0     H27626   0.277   2.418   7.353 -0.5331  0.2446  4.2807
  967MOL0     H27627   0.413   2.591   7.473 -0.7836 -1.9628  0.5958
  967MOL0     H27628   0.450   2.996   7.768  1.4812  1.0146  1.8453
  967MOL0     H27629   0.608   3.153   7.837 -2.2567 -1.8857  0.2310
  967MOL0     H27630   1.857   3.465   8.201  0.6424  0.7292 -1.9670
  967MOL0     H27631   2.009   3.401   8.358 -1.1395 -0.0547 -1.7292
  967MOL0     H27632   2.322   3.488   8.677  1.3116  1.3674  0.6246
  967MOL0     H27633   2.490   3.385   8.832 -1.1392 -0.6188 -1.0384
  967MOL0     H27634   2.826   3.523   8.896 -5.9057  0.4048 -1.2491
  967MOL0     H27635   2.880   3.490   8.728 -1.3490  0.1962 -0.2477
  967MOL0     H27636   2.907   3.305   8.972  0.5513 -1.5592  0.9888
  967MOL0     H27637   2.951   3.251   8.813 -1.4737  1.1315 -1.9287
  967MOL0     H27638   3.075   3.522   8.885 -0.5468 -0.0628  1.5888
  967MOL0     H27639   3.138   3.401   8.784  0.1954 -1.1488  0.1014
  967MOL0     H27640   3.241   3.434   9.036 -2.9604  0.6779  3.2919
  967MOL0     H27641   3.089   3.375   9.077 -4.7573 -0.9750 -3.5732
  967MOL0     H27642   3.229   2.997   8.974 -2.1994 -0.1236  2.5482
  967MOL0     H27643   2.765   3.363   8.545  1.3450  2.1215  2.2967
  967MOL0     H27644   2.612   3.461   8.371 -2.5563  0.8995  0.1208
  968MOL0     O27645   5.625   5.745   1.328 -0.9597  0.1931  0.1763
  968MOL0     C27646   5.683   5.712   1.217  0.0863  0.7026  0.4664
  968MOL0     O27647   5.616   5.663   1.108  0.1289 -1.0542 -1.2264
  968MOL0     C27648   5.484   5.633   1.112 -0.6223  0.0827 -0.2088
  968MOL0     C27649   5.383   5.672   1.198 -0.2316 -0.1211 -0.2762
  968MOL0     C27650   5.251   5.624   1.188  0.6490 -0.2637 -0.8067
  968MOL0     C27651   5.224   5.522   1.097  0.2323  0.1854  0.6135
  968MOL0     O27652   5.100   5.459   1.105 -0.5880 -0.0045 -0.8186
  968MOL0     C27653   5.020   5.470   0.984 -0.6656 -0.0756 -0.0309
  968MOL0     C27654   4.888   5.403   1.033 -0.4111  0.4881 -0.1498
  968MOL0     C27655   4.766   5.411   0.937 -0.9460 -0.4871  0.0534
  968MOL0     C27656   4.640   5.382   1.021 -0.1786 -0.0251 -0.6061
  968MOL0     C27657   4.510   5.379   0.946 -0.6698 -0.3788  0.2161
  968MOL0     C27658   4.395   5.347   1.033  0.6128  0.2891  0.3685
  968MOL0     C27659   4.261   5.375   0.944 -1.6944 -0.1647 -0.2406
  968MOL0     C27660   4.151   5.382   1.044 -1.2815  0.4006 -0.3396
  968MOL0     N27661   4.030   5.403   0.970 -0.4427  0.5732  0.7236
  968MOL0     C27662   3.968   5.313   0.884 -0.3425 -0.1019 -0.6471
  968MOL0     C27663   3.864   5.381   0.838 -0.2193 -0.5323 -0.9918
  968MOL0     C27664   3.745   5.339   0.760 -0.6064  0.2440  0.8509
  968MOL0     C27665   3.784   5.224   0.664  0.9549  0.1722 -0.7001
  968MOL0     C27666   3.672   5.210   0.557 -0.2416  0.2169  1.0524
  968MOL0     C27667   3.666   5.337   0.461 -0.0761 -0.1747 -1.4226
  968MOL0     O27668   3.610   5.284   0.341  0.3357  0.1828 -0.2995
  968MOL0     C27669   3.617   5.355   0.221 -0.0790 -1.0485  0.0056
  968MOL0     C27670   3.615   5.285   0.099  0.4759 -0.2540  0.0723
  968MOL0     C27671   3.583   5.347  -0.020  0.7525 -0.8592 -0.1164
  968MOL0     C27672   3.576   5.490  -0.023 -0.1574 -0.5535 -0.8362
  968MOL0     C27673   3.550   5.552  -0.146 -0.5052 -0.5332  0.4390
  968MOL0     O27674   3.559   5.691  -0.142 -0.1235 -0.1193 -0.3736
  968MOL0     C27675   3.491   5.769  -0.233  0.0776  0.6118 -0.3178
  968MOL0     C27676   3.401   5.734  -0.331  0.0692 -0.5498  0.5064
  968MOL0     C27677   3.326   5.835  -0.405  0.9880 -0.4535  0.3370
  968MOL0     C27678   3.353   5.968  -0.376  0.5883 -0.5254  0.1357
  968MOL0     O27679   3.287   6.078  -0.429 -0.5145 -0.2108  0.3697
  968MOL0     C27680   3.157   6.060  -0.484  0.6087  0.9124 -0.2329
  968MOL0     C27681   3.111   6.181  -0.552  0.1902 -0.4602  0.0687
  968MOL0     C27682   3.174   6.210  -0.683  0.5656  0.4667 -0.2213
  968MOL0     C27683   3.318   6.252  -0.676  0.6807 -0.1830 -0.7024
  968MOL0     C27684   3.334   6.315  -0.820 -0.1584 -0.0228 -0.3223
  968MOL0     C27685   3.481   6.321  -0.838  0.1142 -0.2026  0.9203
  968MOL0     C27686   3.521   6.410  -0.967  0.6181  0.0810  0.0098
  968MOL0     C27687   3.613   6.320  -1.052 -0.9901 -0.7382  0.5560
  968MOL0    Cl27688   3.650   6.398  -1.213 -0.3055 -0.2910  0.1987
  968MOL0     C27689   3.448   6.000  -0.282  0.0981 -0.4666 -0.6813
  968MOL0     C27690   3.508   5.899  -0.207 -0.9147 -0.1763 -0.8487
  968MOL0     O27691   3.511   5.482  -0.239  0.1132  0.0111 -0.2335
  968MOL0     C27692   3.585   5.566   0.098  0.3949  0.2787 -0.8261
  968MOL0     C27693   3.609   5.493   0.217  0.3846  0.0816  0.6473
  968MOL0     N27694   3.858   5.506   0.898 -0.5536 -0.3821 -0.6706
  968MOL0     N27695   3.947   5.520   0.984  0.0602 -0.4069  0.4940
  968MOL0     C27696   5.330   5.471   1.010  0.3983 -0.4063 -0.0715
  968MOL0     C27697   5.447   5.538   1.013 -0.4661  0.1465  0.2379
  968MOL0     C27698   5.829   5.698   1.217  0.3493  0.1437 -0.2330
  968MOL0     C27699   5.890   5.661   1.099 -0.7946  1.2705  0.1493
  968MOL0     C27700   6.032   5.640   1.102 -0.5740  1.1523  0.5303
  968MOL0     C27701   6.108   5.659   1.219 -0.0227 -0.0651  0.0674
  968MOL0     O27702   6.242   5.629   1.229  0.7023 -0.6982  0.7920
  968MOL0     C27703   6.309   5.550   1.125  1.1223 -0.5613  0.4875
  968MOL0     C27704   6.446   5.510   1.179  0.1987 -0.2458 -0.1654
  968MOL0     C27705   6.429   5.409   1.283 -0.2733  0.7930 -0.4240
  968MOL0     C27706   6.569   5.344   1.324  0.1739 -0.8736 -0.0401
  968MOL0     C27707   6.655   5.451   1.379 -1.4314  0.6540 -0.4736
  968MOL0     C27708   6.733   5.540   1.418  0.7912  0.4089  0.1320
  968MOL0     C27709   6.046   5.689   1.339  0.7954 -0.4664 -0.2279
  968MOL0     C27710   5.904   5.718   1.334  0.5258  0.5781 -0.0808
  968MOL0     H27711   5.385   5.741   1.282  0.6634 -2.3971  1.6710
  968MOL0     H27712   5.170   5.644   1.257 -0.4472  1.3541 -2.4760
  968MOL0     H27713   5.070   5.427   0.897  1.2142 -0.4426  1.1569
  968MOL0     H27714   5.009   5.578   0.966  0.9392  0.1293  0.0900
  968MOL0     H27715   4.864   5.431   1.136 -0.4554  1.6782 -0.4652
  968MOL0     H27716   4.905   5.295   1.043  0.6530  0.8059  2.0875
  968MOL0     H27717   4.765   5.349   0.847 -0.3539 -1.6762  0.8358
  968MOL0     H27718   4.747   5.507   0.888  0.1159  0.5705  1.6085
  968MOL0     H27719   4.649   5.283   1.066 -1.2809 -0.1240 -0.5787
  968MOL0     H27720   4.634   5.463   1.094 -2.0099  2.3836 -3.2440
  968MOL0     H27721   4.506   5.297   0.873  0.1247 -0.9508  0.7973
  968MOL0     H27722   4.490   5.481   0.912  0.6900  0.4013  1.6388
  968MOL0     H27723   4.386   5.405   1.125 -0.7011  3.7308 -1.7039
  968MOL0     H27724   4.386   5.243   1.065 -0.6819 -0.3576 -1.8520
  968MOL0     H27725   4.271   5.459   0.875 -4.0635 -1.2217 -1.9917
  968MOL0     H27726   4.259   5.281   0.887  0.5619 -3.4359  4.3768
  968MOL0     H27727   4.160   5.442   1.134 -2.0021  0.9540 -0.6297
  968MOL0     H27728   4.142   5.281   1.086  1.2592 -1.8042 -4.3412
  968MOL0     H27729   3.997   5.212   0.857 -0.4220 -0.1736 -0.4669
  968MOL0     H27730   3.712   5.424   0.701 -0.1997 -2.1857 -3.3073
  968MOL0     H27731   3.668   5.314   0.834 -1.3961  1.3210  0.4186
  968MOL0     H27732   3.796   5.131   0.721 -1.1391 -2.2950 -3.9378
  968MOL0     H27733   3.881   5.248   0.620  0.5134  3.0408 -0.3379
  968MOL0     H27734   3.688   5.116   0.503  1.9372  0.8658  0.4194
  968MOL0     H27735   3.579   5.191   0.610 -2.0822  0.4134 -1.8674
  968MOL0     H27736   3.763   5.381   0.434 -0.9189  1.2760 -2.2305
  968MOL0     H27737   3.612   5.416   0.515  1.1820  1.6317 -2.7071
  968MOL0     H27738   3.613   5.177   0.092 -2.1315 -0.2119 -0.6532
  968MOL0     H27739   3.571   5.296  -0.116 -1.3979 -1.0789  0.2216
  968MOL0     H27740   3.381   5.630  -0.356 -2.4022 -0.1235  0.4752
  968MOL0     H27741   3.266   5.806  -0.490 -0.5527  0.9698  0.8678
  968MOL0     H27742   3.084   6.015  -0.416 -0.8236  0.1063 -2.2227
  968MOL0     H27743   3.172   5.985  -0.562 -1.2562 -0.7396  0.8923
  968MOL0     H27744   3.130   6.257  -0.476 -0.9550 -0.7384  0.6530
  968MOL0     H27745   3.002   6.174  -0.558  0.2632 -1.0000 -0.7978
  968MOL0     H27746   3.107   6.288  -0.721 -2.0008 -1.5795 -0.2002
  968MOL0     H27747   3.171   6.128  -0.756  2.9877  1.7120 -1.8360
  968MOL0     H27748   3.334   6.330  -0.601 -4.1789  0.1161  0.2901
  968MOL0     H27749   3.386   6.168  -0.656  0.4234  0.0195  1.1827
  968MOL0     H27750   3.276   6.407  -0.818 -0.9031 -0.2781  5.1017
  968MOL0     H27751   3.291   6.255  -0.901 -1.7756  2.1832 -1.1916
  968MOL0     H27752   3.521   6.222  -0.862 -1.9942 -0.2377 -3.5573
  968MOL0     H27753   3.534   6.359  -0.750 -1.2798  2.4969  0.7255
  968MOL0     H27754   3.433   6.417  -1.031  0.6911 -5.7645 -1.2892
  968MOL0     H27755   3.565   6.508  -0.950 -1.0591  0.6411  1.4828
  968MOL0     H27756   3.555   6.229  -1.070 -0.1483 -1.2914  0.5533
  968MOL0     H27757   3.701   6.289  -0.994  0.6195  2.6737  0.2106
  968MOL0     H27758   3.464   6.106  -0.265 -0.2421 -0.3444 -1.1032
  968MOL0     H27759   3.574   5.940  -0.131 -0.8441  2.0532 -2.0101
  968MOL0     H27760   3.562   5.672   0.102  0.7624  0.3681 -1.0232
  968MOL0     H27761   3.598   5.541   0.313  0.0322 -2.6277  2.0587
  968MOL0     H27762   5.302   5.390   0.943 -1.8669 -0.2104  0.5419
  968MOL0     H27763   5.533   5.495   0.962  0.0295  1.1127  0.2285
  968MOL0     H27764   5.832   5.626   1.014 -0.2108 -3.4896  1.4413
  968MOL0     H27765   6.070   5.602   1.008 -3.3177 -0.4757 -0.0309
  968MOL0     H27766   6.337   5.598   1.031  0.4819 -1.0520  0.0309
  968MOL0     H27767   6.255   5.460   1.093  3.3021 -1.2816 -1.4056
  968MOL0     H27768   6.501   5.467   1.095  1.4530  0.2563  0.3683
  968MOL0     H27769   6.508   5.590   1.221  1.8911 -2.7621  2.5227
  968MOL0     H27770   6.352   5.332   1.270 -1.8037  1.2469  4.0463
  968MOL0     H27771   6.394   5.469   1.368 -1.1905  0.9011 -0.8655
  968MOL0     H27772   6.549   5.253   1.382 -3.0244 -0.2855  0.0039
  968MOL0     H27773   6.614   5.306   1.232  1.0290  1.3214 -0.5983
  968MOL0     H27774   6.809   5.606   1.456  1.5695  1.1613 -2.5072
  968MOL0     H27775   6.101   5.708   1.430  3.7254 -0.9919 -1.7652
  968MOL0     H27776   5.855   5.752   1.425 -0.1439  0.2943 -0.3323
  969MOL0     O27777   9.857   5.899  10.260 -0.3621 -1.8742  0.4338
  969MOL0     C27778   9.742   5.873  10.236 -0.4338 -0.4701 -0.8915
  969MOL0     O27779   9.667   5.920  10.127 -0.1689 -0.5987  0.1199
  969MOL0     C27780   9.723   6.014  10.052  0.6119  0.3386  0.1626
  969MOL0     C27781   9.680   5.997   9.926  0.9086  0.0045 -0.3281
  969MOL0     C27782   9.723   6.077   9.821 -1.1185 -0.3533 -0.1314
  969MOL0     C27783   9.800   6.193   9.841  0.0013  0.0813  0.5515
  969MOL0     O27784   9.829   6.283   9.743  0.4729  0.2021  0.5653
  969MOL0     C27785   9.816   6.235   9.607 -0.2602 -0.2599 -0.0242
  969MOL0     C27786   9.897   6.344   9.521  0.5042  0.7401 -0.8543
  969MOL0     C27787  10.045   6.311   9.532  0.2915  1.2632 -0.0252
  969MOL0     C27788  10.134   6.416   9.482 -0.0749  0.1633 -0.1600
  969MOL0     C27789  10.273   6.381   9.511  0.4533 -1.3047  1.0049
  969MOL0     C27790  10.361   6.500   9.467  0.7572 -0.3408 -0.0019
  969MOL0     C27791  10.498   6.468   9.502  0.5334 -1.4647  0.2564
  969MOL0     C27792  10.597   6.569   9.427  0.2547 -0.2000 -0.1108
  969MOL0     N27793  10.734   6.561   9.480 -0.3832 -0.0193  0.0132
  969MOL0     C27794  10.835   6.494   9.403  1.0848  0.8813 -0.3968
  969MOL0     C27795  10.944   6.521   9.468 -0.8375  0.0682 -0.0801
  969MOL0     C27796  11.081   6.482   9.425  0.6786 -0.0303  0.4531
  969MOL0     C27797  11.141   6.371   9.512 -0.1162  0.6925 -0.7147
  969MOL0     C27798  11.234   6.432   9.620 -0.9974 -0.2592 -0.4466
  969MOL0     C27799  11.279   6.327   9.718 -1.2149  0.2524  0.0784
  969MOL0     O27800  11.383   6.387   9.802 -0.0352  0.0327 -0.6739
  969MOL0     C27801  11.419   6.332   9.922  0.4894 -0.2212 -0.5174
  969MOL0     C27802  11.360   6.220   9.976  0.3238  0.4513  0.0211
  969MOL0     C27803  11.390   6.172  10.109 -0.6484  0.1423  0.1964
  969MOL0     C27804  11.478   6.249  10.186  0.1058  0.5980 -0.0332
  969MOL0     C27805  11.519   6.207  10.329 -0.0253  0.8074  1.7096
  969MOL0     O27806  11.585   6.284  10.423 -0.7630  0.4761  0.7984
  969MOL0     C27807  11.611   6.224  10.545  0.3174 -0.4146 -0.6526
  969MOL0     C27808  11.686   6.119  10.563 -1.0484  0.0689 -0.8377
  969MOL0     C27809  11.706   6.061  10.692  0.2260 -0.0958  0.7123
  969MOL0     C27810  11.654   6.119  10.808 -0.2958 -0.2122  0.4918
  969MOL0     O27811  11.668   6.068  10.936 -1.3177  0.0185 -0.5062
  969MOL0     C27812  11.802   6.021  10.970  0.3407  0.2588 -1.0507
  969MOL0     C27813  11.794   5.950  11.106 -0.4970 -0.3666 -0.6350
  969MOL0     C27814  11.744   5.806  11.082 -0.0640 -1.0004 -0.3169
  969MOL0     C27815  11.698   5.749  11.208  0.1143 -1.0051  0.6118
  969MOL0     C27816  11.686   5.600  11.195  0.5220  0.1898  0.4230
  969MOL0     C27817  11.586   5.555  11.315  0.0631  0.9006 -0.5151
  969MOL0     C27818  11.583   5.403  11.337  0.1968  0.1958  0.3284
  969MOL0     C27819  11.505   5.360  11.459  0.4182 -0.6565  0.8329
  969MOL0    Cl27820  11.336   5.332  11.416  0.6551 -0.2197  0.3118
  969MOL0     C27821  11.567   6.229  10.787 -0.7211 -0.2307  0.3390
  969MOL0     C27822  11.546   6.279  10.656  0.6797 -0.5664  1.0657
  969MOL0     O27823  11.481   6.091  10.351  0.6792 -0.1106  0.3113
  969MOL0     C27824  11.554   6.349  10.125 -0.0112 -0.4152  0.6783
  969MOL0     C27825  11.521   6.394   9.999 -0.1411 -0.5973 -0.2809
  969MOL0     N27826  10.919   6.594   9.574 -0.3180 -0.9249 -0.8549
  969MOL0     N27827  10.795   6.631   9.579  0.2922  0.8057 -0.3252
  969MOL0     C27828   9.842   6.214   9.971 -0.1693  0.1107 -0.0580
  969MOL0     C27829   9.811   6.130  10.073 -0.3955  0.9816 -0.6817
  969MOL0     C27830   9.663   5.801  10.345  1.0616  0.5379  0.6272
  969MOL0     C27831   9.531   5.771  10.315  0.3358  0.9289  0.0016
  969MOL0     C27832   9.452   5.696  10.406  0.1894 -0.5299  0.6995
  969MOL0     C27833   9.506   5.631  10.519 -0.1232 -0.6732 -0.6397
  969MOL0     O27834   9.428   5.539  10.585 -0.3447 -0.4901  0.1279
  969MOL0     C27835   9.455   5.515  10.719 -0.0978 -0.2461  0.1461
  969MOL0     C27836   9.362   5.400  10.766 -1.0201 -0.2142  0.1477
  969MOL0     C27837   9.380   5.382  10.909 -0.8214 -0.6567 -0.1096
  969MOL0     C27838   9.525   5.346  10.962 -0.0478  0.9609 -0.1679
  969MOL0     C27839   9.512   5.335  11.105  0.3154 -0.4017  0.3505
  969MOL0     C27840   9.491   5.319  11.224  0.3107 -0.1343  0.0065
  969MOL0     C27841   9.643   5.671  10.548 -0.5081 -0.2366  0.4627
  969MOL0     C27842   9.725   5.754  10.466  0.1353 -0.7247  0.2279
  969MOL0     H27843   9.596   5.932   9.904  2.0091 -1.4897 -0.2082
  969MOL0     H27844   9.686   6.053   9.722 -1.7818  0.3886 -0.0723
  969MOL0     H27845   9.710   6.228   9.579 -0.2116 -2.8758  0.1938
  969MOL0     H27846   9.861   6.136   9.594 -5.1924 -2.8230 -0.0785
  969MOL0     H27847   9.878   6.440   9.569 -1.3376  0.9654 -1.9500
  969MOL0     H27848   9.865   6.354   9.417 -0.8805  3.8576 -0.2337
  969MOL0     H27849  10.065   6.216   9.481 -0.0060  0.1895  1.7817
  969MOL0     H27850  10.064   6.296   9.638 -0.9525  1.0422  0.1816
  969MOL0     H27851  10.117   6.423   9.374 -0.7311 -3.4468 -0.4318
  969MOL0     H27852  10.110   6.511   9.531 -0.0334  1.1973 -2.0619
  969MOL0     H27853  10.305   6.284   9.471  2.3047  0.2301 -1.4717
  969MOL0     H27854  10.300   6.380   9.617  1.7724  2.2083  0.8156
  969MOL0     H27855  10.326   6.584   9.527  0.7162 -2.4412  3.1193
  969MOL0     H27856  10.351   6.512   9.359  0.9594 -0.1527 -0.0025
  969MOL0     H27857  10.507   6.453   9.610 -3.8992  0.8669  1.1713
  969MOL0     H27858  10.530   6.379   9.447  3.5106 -0.6220  0.4310
  969MOL0     H27859  10.557   6.669   9.443  1.3922  0.5449 -1.6314
  969MOL0     H27860  10.609   6.550   9.320  3.8889 -2.3271  0.5041
  969MOL0     H27861  10.810   6.434   9.317 -4.2734 -0.1588  1.4620
  969MOL0     H27862  11.139   6.574   9.433 -0.3309  0.4918  2.6435
  969MOL0     H27863  11.080   6.452   9.320 -0.9212  2.0658 -0.2114
  969MOL0     H27864  11.208   6.301   9.460  0.7660 -0.2953  1.5925
  969MOL0     H27865  11.062   6.324   9.571  1.8747 -0.1784  1.4248
  969MOL0     H27866  11.330   6.455   9.574 -1.3845 -0.6955 -1.5132
  969MOL0     H27867  11.186   6.516   9.670 -0.5742  0.0242 -0.5140
  969MOL0     H27868  11.323   6.248   9.657 -1.4751  2.3865 -3.1890
  969MOL0     H27869  11.190   6.292   9.770 -0.8265 -0.9679 -0.0440
  969MOL0     H27870  11.294   6.155   9.920  0.9596 -3.6052  3.4718
  969MOL0     H27871  11.342   6.081  10.143  2.5366 -0.6255  3.2244
  969MOL0     H27872  11.741   6.087  10.475 -2.3166  0.4413 -1.8090
  969MOL0     H27873  11.769   5.974  10.705  1.8349  1.1909  2.1573
  969MOL0     H27874  11.873   6.102  10.989  0.0108 -0.0407  1.9719
  969MOL0     H27875  11.846   5.943  10.907 -0.6389 -1.8853  0.7704
  969MOL0     H27876  11.730   6.012  11.170 -2.3375 -0.4322 -2.2903
  969MOL0     H27877  11.894   5.945  11.150 -0.2222  1.1261 -1.0124
  969MOL0     H27878  11.826   5.748  11.037  1.8174  2.4338 -1.7695
  969MOL0     H27879  11.664   5.803  11.007  1.8718 -0.2719 -2.5700
  969MOL0     H27880  11.778   5.762  11.281  0.5637 -0.2742  0.0057
  969MOL0     H27881  11.604   5.799  11.237 -0.8732  0.1236 -3.8235
  969MOL0     H27882  11.781   5.549  11.212 -0.2670 -0.7188  2.4132
  969MOL0     H27883  11.656   5.570  11.094  1.6209 -0.4124  0.2609
  969MOL0     H27884  11.485   5.596  11.305 -1.0215 -1.1150  1.1262
  969MOL0     H27885  11.631   5.592  11.407  2.9239 -2.8668 -0.1413
  969MOL0     H27886  11.537   5.367  11.244  2.4268  0.3905 -0.9184
  969MOL0     H27887  11.686   5.368  11.330  0.8020  2.1952 -3.6428
  969MOL0     H27888  11.529   5.442  11.527 -1.9125  0.6963  0.1176
  969MOL0     H27889  11.545   5.266  11.499  0.4327  0.3033  3.2836
  969MOL0     H27890  11.524   6.278  10.874 -1.6695 -0.7878  0.2010
  969MOL0     H27891  11.477   6.362  10.643 -1.7982 -2.2731  2.4714
  969MOL0     H27892  11.633   6.410  10.168 -0.6906  0.7668  0.3244
  969MOL0     H27893  11.583   6.480   9.973 -1.9603  1.3106  1.3186
  969MOL0     H27894   9.908   6.295  10.002  0.7399 -0.6174 -0.0271
  969MOL0     H27895   9.845   6.148  10.174 -0.3461  0.5419 -0.6205
  969MOL0     H27896   9.486   5.795  10.219 -0.4187 -0.6119 -0.0475
  969MOL0     H27897   9.350   5.676  10.373  0.5102  0.8510 -1.3092
  969MOL0     H27898   9.430   5.604  10.777 -1.0053  1.9057 -3.2387
  969MOL0     H27899   9.561   5.491  10.717  0.5404  1.9347 -4.6076
  969MOL0     H27900   9.256   5.420  10.748 -1.3434 -1.5073  0.5549
  969MOL0     H27901   9.392   5.309  10.711  0.3248 -0.0636  0.5857
  969MOL0     H27902   9.303   5.312  10.943  0.3238 -1.5472  0.7171
  969MOL0     H27903   9.356   5.478  10.956  1.1594  0.2605 -0.8796
  969MOL0     H27904   9.564   5.249  10.929 -4.4313 -1.6222  1.4001
  969MOL0     H27905   9.597   5.428  10.954  1.2504 -0.0977  0.3067
  969MOL0     H27906   9.491   5.294  11.328 -3.7193 -0.1483  0.1652
  969MOL0     H27907   9.694   5.630  10.634 -1.0067  0.9483  1.3533
  969MOL0     H27908   9.828   5.765  10.499  0.7348 -2.9207 -0.6491
  970MOL0     O27909  10.146   3.468  11.468  0.5418 -0.6365  0.1752
  970MOL0     C27910  10.191   3.435  11.580 -0.1661  0.1007 -0.0618
  970MOL0     O27911  10.187   3.307  11.627  0.1912  0.1297 -0.1746
  970MOL0     C27912  10.110   3.214  11.560 -0.0113 -0.1451  0.4455
  970MOL0     C27913  10.169   3.117  11.484  0.4073  0.4473  0.6011
  970MOL0     C27914  10.091   3.020  11.422  0.1138 -0.3455 -0.6829
  970MOL0     C27915   9.948   3.017  11.434 -0.4619 -0.2404  0.0678
  970MOL0     O27916   9.884   2.917  11.363  0.4209 -0.5297 -0.8750
  970MOL0     C27917   9.832   2.811  11.436  0.4127 -0.8244  0.2033
  970MOL0     C27918   9.706   2.747  11.372 -0.1024  0.8680 -0.6497
  970MOL0     C27919   9.655   2.622  11.450  0.2692 -1.2248 -0.9852
  970MOL0     C27920   9.534   2.550  11.382 -0.6476 -0.5695 -0.1597
  970MOL0     C27921   9.483   2.425  11.461 -0.5037  0.1722 -0.1681
  970MOL0     C27922   9.405   2.454  11.588  0.7058  0.6641  0.1859
  970MOL0     C27923   9.281   2.548  11.578 -0.4233  0.8687  0.6152
  970MOL0     C27924   9.203   2.536  11.713  0.5254 -0.7900  0.8817
  970MOL0     N27925   9.139   2.407  11.743 -0.3239 -0.7805 -0.1959
  970MOL0     C27926   9.047   2.353  11.668  0.6363 -0.2821 -1.0545
  970MOL0     C27927   9.017   2.243  11.739 -0.3721  0.4084  0.1803
  970MOL0     C27928   8.933   2.132  11.685 -0.6681 -0.3348  0.3201
  970MOL0     C27929   8.796   2.150  11.739 -0.0248 -0.0650 -0.0952
  970MOL0     C27930   8.717   2.251  11.655 -0.3471  0.5370  0.1835
  970MOL0     C27931   8.570   2.251  11.687  0.4873  0.0620 -0.1896
  970MOL0     O27932   8.522   2.140  11.622  0.4335  0.4891  0.1293
  970MOL0     C27933   8.444   2.056  11.696  0.0077 -1.0111  0.3871
  970MOL0     C27934   8.344   2.093  11.799  0.2024  0.1687  0.3972
  970MOL0     C27935   8.280   1.991  11.868 -0.3933 -0.1598  0.1436
  970MOL0     C27936   8.310   1.859  11.841  0.5909  0.2954 -1.7738
  970MOL0     C27937   8.242   1.751  11.912 -0.2410  0.4410 -0.8172
  970MOL0     O27938   8.114   1.777  11.958 -0.2776 -0.3396  0.3182
  970MOL0     C27939   8.057   1.682  12.036 -0.7220  1.1245 -0.2589
  970MOL0     C27940   8.059   1.544  12.000  0.6134  0.8673 -0.8496
  970MOL0     C27941   8.006   1.441  12.087  0.1940  0.0122  0.6782
  970MOL0     C27942   7.952   1.482  12.206 -0.6699 -0.9413  0.3627
  970MOL0     O27943   7.893   1.397  12.293 -0.9475 -0.8001  0.6074
  970MOL0     C27944   7.972   1.281  12.341 -0.3033  0.4790 -0.5981
  970MOL0     C27945   7.947   1.252  12.495 -0.1181  0.8317 -0.0995
  970MOL0     C27946   7.807   1.187  12.515  0.1555  0.3547 -0.7175
  970MOL0     C27947   7.787   1.148  12.662 -0.3315  0.0462 -0.0608
  970MOL0     C27948   7.637   1.133  12.684 -0.0706 -0.8271  1.2815
  970MOL0     C27949   7.632   1.050  12.808 -0.0444 -0.2169 -1.2788
  970MOL0     C27950   7.490   1.053  12.880  0.8667  1.3121 -0.1507
  970MOL0     C27951   7.473   0.955  12.991 -0.0291 -0.1763 -1.2293
  970MOL0    Cl27952   7.387   1.049  13.120  0.1680 -0.0414  0.4189
  970MOL0     C27953   7.953   1.614  12.246 -0.2097 -0.1076 -0.0576
  970MOL0     C27954   8.000   1.717  12.162  0.7693 -0.2018  1.6114
  970MOL0     O27955   8.299   1.642  11.915 -0.2621 -1.2721  0.2745
  970MOL0     C27956   8.407   1.831  11.739  1.2232 -0.0474  0.4966
  970MOL0     C27957   8.474   1.924  11.667  0.3168 -0.0479  0.4347
  970MOL0     N27958   9.098   2.246  11.853  0.2533 -1.3197 -0.2201
  970MOL0     N27959   9.169   2.342  11.852  0.9103  0.3203  0.1806
  970MOL0     C27960   9.893   3.123  11.512 -0.1565  0.6224  0.5147
  970MOL0     C27961   9.964   3.225  11.572  0.2836  0.5513  0.4683
  970MOL0     C27962  10.267   3.530  11.645  0.0282 -0.3246 -0.0590
  970MOL0     C27963  10.333   3.497  11.761  0.7319  0.0012  0.3797
  970MOL0     C27964  10.438   3.569  11.803  0.4213  0.7763  0.4476
  970MOL0     C27965  10.478   3.691  11.747  0.3007  0.3261  0.5719
  970MOL0     O27966  10.596   3.743  11.782 -0.0036 -0.2834  0.8268
  970MOL0     C27967  10.632   3.871  11.712  0.0833  0.2246 -0.2879
  970MOL0     C27968  10.746   3.946  11.776 -0.1672 -0.0206  1.1713
  970MOL0     C27969  10.713   3.982  11.920 -1.3510 -0.4144  0.0791
  970MOL0     C27970  10.795   4.108  11.969  1.1896 -0.9852  0.2545
  970MOL0     C27971  10.938   4.074  11.950 -0.0732  0.3534  0.2160
  970MOL0     C27972  11.052   4.033  11.948 -0.0335  0.3703 -0.5453
  970MOL0     C27973  10.407   3.731  11.627  0.3647 -0.5840  0.0741
  970MOL0     C27974  10.299   3.652  11.588  0.0660  0.7566  0.0965
  970MOL0     H27975  10.276   3.127  11.468  0.9473 -0.9796  2.7972
  970MOL0     H27976  10.139   2.948  11.356  0.2294 -0.2532 -0.6996
  970MOL0     H27977   9.800   2.842  11.536  1.3935  0.6801  0.0824
  970MOL0     H27978   9.909   2.736  11.454  0.2279 -0.7374  1.4910
  970MOL0     H27979   9.729   2.713  11.270  3.2963  1.7890 -0.3077
  970MOL0     H27980   9.631   2.824  11.356  0.8620  2.0593  0.3472
  970MOL0     H27981   9.636   2.667  11.548  1.1526  1.3100 -1.8713
  970MOL0     H27982   9.741   2.555  11.450 -0.0284 -1.6935 -3.3889
  970MOL0     H27983   9.456   2.623  11.355  0.4169 -0.7090 -4.3524
  970MOL0     H27984   9.575   2.515  11.287  2.0596  1.0198  0.3277
  970MOL0     H27985   9.575   2.374  11.490 -0.4048 -0.4743 -1.5712
  970MOL0     H27986   9.431   2.353  11.398 -2.3562  0.2295  1.1986
  970MOL0     H27987   9.472   2.501  11.660 -0.2947 -0.3655  1.8352
  970MOL0     H27988   9.378   2.355  11.627 -2.0800  1.7102  1.1566
  970MOL0     H27989   9.305   2.651  11.552  2.8637  0.7191  2.4613
  970MOL0     H27990   9.217   2.505  11.500  0.3317 -1.6113  1.2502
  970MOL0     H27991   9.127   2.614  11.723 -1.2838 -2.7140  3.6425
  970MOL0     H27992   9.272   2.574  11.790 -2.4483  1.6356  2.5569
  970MOL0     H27993   9.015   2.393  11.572  1.4977  2.2063 -0.3725
  970MOL0     H27994   8.969   2.035  11.719 -3.6243 -1.2622  1.0866
  970MOL0     H27995   8.934   2.134  11.575  0.1830  3.2228  0.2529
  970MOL0     H27996   8.807   2.190  11.841  3.5791  1.0448 -0.7807
  970MOL0     H27997   8.742   2.055  11.739 -0.3572  0.0309  2.8454
  970MOL0     H27998   8.754   2.353  11.664 -4.4280  2.6445 -3.0190
  970MOL0     H27999   8.724   2.239  11.546  0.0062  0.2424  0.2381
  970MOL0     H28000   8.526   2.336  11.636 -1.5781  0.5471  2.2008
  970MOL0     H28001   8.552   2.261  11.794  3.4861  0.5777  0.3573
  970MOL0     H28002   8.324   2.199  11.817 -1.2032 -0.0227  0.1357
  970MOL0     H28003   8.215   2.022  11.949  1.4593  0.6252  1.4116
  970MOL0     H28004   8.099   1.522  11.901  1.8160 -2.1919  0.1919
  970MOL0     H28005   8.005   1.340  12.047 -1.1496  0.1113  0.3966
  970MOL0     H28006   8.075   1.317  12.334 -0.4439  0.6502 -2.0688
  970MOL0     H28007   7.951   1.185  12.293  1.4927 -0.6036  0.6562
  970MOL0     H28008   7.957   1.342  12.556  2.4382 -0.8324  2.1561
  970MOL0     H28009   8.032   1.190  12.524  1.3263  1.4232 -2.7563
  970MOL0     H28010   7.807   1.096  12.454 -2.7970  1.8318 -3.1984
  970MOL0     H28011   7.720   1.244  12.481 -0.6313 -1.5047 -2.0010
  970MOL0     H28012   7.841   1.053  12.675 -1.8078 -0.8294 -0.1432
  970MOL0     H28013   7.822   1.228  12.727  2.1964 -1.5002  0.6175
  970MOL0     H28014   7.591   1.078  12.602 -0.4184 -1.3544  1.8188
  970MOL0     H28015   7.602   1.236  12.694 -1.8514 -1.4966  2.3561
  970MOL0     H28016   7.697   1.096  12.883 -1.3465  0.8213 -0.7394
  970MOL0     H28017   7.666   0.952  12.774 -1.6875 -1.0470 -0.6565
  970MOL0     H28018   7.460   1.151  12.919 -2.7128 -1.1800  4.3442
  970MOL0     H28019   7.421   1.032  12.798  1.1425  3.9564 -1.1816
  970MOL0     H28020   7.569   0.923  13.032 -1.2919  0.9162  3.1429
  970MOL0     H28021   7.413   0.874  12.950 -0.0535 -0.3222 -0.9045
  970MOL0     H28022   7.900   1.635  12.338 -1.1923  0.3177 -0.6983
  970MOL0     H28023   7.998   1.820  12.198  1.4655  0.0068  1.0622
  970MOL0     H28024   8.422   1.725  11.717 -0.0316 -0.3682  1.1205
  970MOL0     H28025   8.552   1.895  11.598 -1.4407 -1.3746 -1.1098
  970MOL0     H28026   9.787   3.137  11.528  0.2754  4.9623  0.7658
  970MOL0     H28027   9.917   3.296  11.638  1.1940 -2.5426  4.9177
  970MOL0     H28028  10.324   3.404  11.815 -3.4927  0.7283  1.2946
  970MOL0     H28029  10.480   3.528  11.894 -1.6922  1.6533  1.9017
  970MOL0     H28030  10.549   3.941  11.697  0.7194  0.3263 -4.4699
  970MOL0     H28031  10.663   3.850  11.609  1.2482 -1.9061  0.4251
  970MOL0     H28032  10.840   3.890  11.770  1.1919  2.2367 -0.8985
  970MOL0     H28033  10.760   4.039  11.720  0.1440 -1.0230 -0.5185
  970MOL0     H28034  10.743   3.897  11.982  0.4389 -1.8147 -2.5230
  970MOL0     H28035  10.607   4.001  11.938 -1.4140 -1.8907  1.5782
  970MOL0     H28036  10.763   4.190  11.905  2.9978 -0.5947 -0.1966
  970MOL0     H28037  10.767   4.124  12.074  0.8127 -0.1452  0.0297
  970MOL0     H28038  11.150   3.993  11.961  0.2188  0.6190 -1.5618
  970MOL0     H28039  10.426   3.816  11.563 -3.5415  0.9015  0.6178
  970MOL0     H28040  10.261   3.678  11.490  1.0223  1.2594 -0.1566
  971MOL0     O28041   4.649   5.909   7.795 -0.5796  0.3380 -0.2143
  971MOL0     C28042   4.580   5.913   7.894  0.5514 -0.0788 -0.0652
  971MOL0     O28043   4.473   5.837   7.922 -0.4315 -0.1116 -0.3051
  971MOL0     C28044   4.422   5.761   7.826 -0.6307  0.4406  0.0383
  971MOL0     C28045   4.407   5.797   7.693  0.1261  0.2277 -0.3326
  971MOL0     C28046   4.355   5.701   7.602  0.1873 -0.2989 -0.4718
  971MOL0     C28047   4.331   5.569   7.645  0.9536  0.6793  0.2848
  971MOL0     O28048   4.278   5.479   7.566 -0.0333  0.4057 -0.6584
  971MOL0     C28049   4.141   5.502   7.524 -0.9323 -0.1137  0.4402
  971MOL0     C28050   4.147   5.531   7.378  0.2281 -0.0584 -0.0499
  971MOL0     C28051   4.003   5.553   7.327 -0.3910 -0.5873 -0.0237
  971MOL0     C28052   3.996   5.625   7.195  0.0219 -0.0320 -0.1038
  971MOL0     C28053   3.865   5.595   7.132  0.3626 -0.5983  0.9740
  971MOL0     C28054   3.833   5.693   7.012 -0.4827 -0.8806  0.8381
  971MOL0     C28055   3.926   5.673   6.891 -0.5083  0.7203 -0.9339
  971MOL0     C28056   3.863   5.719   6.774  0.0883  0.0665  0.6190
  971MOL0     N28057   3.739   5.654   6.729 -0.3869  0.4654 -0.1728
  971MOL0     C28058   3.736   5.521   6.697  0.4146  0.3770  0.3681
  971MOL0     C28059   3.603   5.511   6.657 -0.3386  0.3765 -0.6460
  971MOL0     C28060   3.542   5.385   6.601 -0.4083 -0.6244 -0.3801
  971MOL0     C28061   3.602   5.361   6.465  0.0524 -0.1481  0.2448
  971MOL0     C28062   3.607   5.483   6.356  0.3664  0.4423  0.2550
  971MOL0     C28063   3.469   5.515   6.291  0.4085 -0.5126  0.2047
  971MOL0     O28064   3.421   5.387   6.241  0.3138  1.0396  0.2032
  971MOL0     C28065   3.325   5.382   6.148  0.4433  0.3130 -0.2936
  971MOL0     C28066   3.300   5.256   6.079  0.3646 -0.7262  0.0038
  971MOL0     C28067   3.209   5.243   5.979  0.5623 -0.5888 -0.1130
  971MOL0     C28068   3.137   5.354   5.935  0.6016 -1.1932 -0.1525
  971MOL0     C28069   3.038   5.333   5.829  0.1845 -0.7281  0.4516
  971MOL0     O28070   3.035   5.214   5.768 -0.2929 -0.2721  0.4543
  971MOL0     C28071   2.929   5.189   5.679  0.8514 -0.4643 -0.7567
  971MOL0     C28072   2.852   5.079   5.717 -0.0076  0.7328 -1.1587
  971MOL0     C28073   2.763   5.035   5.620 -1.0220  0.0310  0.2256
  971MOL0     C28074   2.733   5.108   5.501 -0.0387  0.2997  0.9149
  971MOL0     O28075   2.633   5.047   5.419  0.0868 -0.4624  0.3521
  971MOL0     C28076   2.567   5.129   5.322 -0.5396 -0.1481 -0.4647
  971MOL0     C28077   2.412   5.075   5.300  0.2605 -0.0973 -0.2256
  971MOL0     C28078   2.355   5.135   5.171 -0.5043 -0.2311 -0.4259
  971MOL0     C28079   2.216   5.095   5.154  0.2809 -0.5095 -0.6040
  971MOL0     C28080   2.141   5.196   5.077 -0.4798  0.0406  0.2215
  971MOL0     C28081   2.206   5.235   4.942 -0.2110 -0.7431  0.0136
  971MOL0     C28082   2.219   5.108   4.858 -0.9633  0.5826  0.3803
  971MOL0     C28083   2.280   5.139   4.719  0.5387 -0.3954 -0.0920
  971MOL0    Cl28084   2.157   5.228   4.635 -0.0629 -0.0013 -0.0628
  971MOL0     C28085   2.816   5.215   5.470 -0.2351  1.1685 -1.1989
  971MOL0     C28086   2.913   5.260   5.561  0.0573  0.3903  0.1736
  971MOL0     O28087   2.960   5.431   5.804 -0.0401  0.6360  0.3021
  971MOL0     C28088   3.160   5.479   5.990  0.7741 -0.7303  0.4296
  971MOL0     C28089   3.236   5.490   6.105  0.4333  0.5352  0.5370
  971MOL0     N28090   3.529   5.626   6.687 -1.0460 -1.2759  0.8803
  971MOL0     N28091   3.614   5.709   6.727  0.1708  0.8864  0.2686
  971MOL0     C28092   4.335   5.542   7.780  0.0009 -0.4156 -0.3561
  971MOL0     C28093   4.391   5.628   7.874  0.1033 -0.0393 -1.0513
  971MOL0     C28094   4.601   6.039   7.971 -0.3741 -0.2078 -0.5514
  971MOL0     C28095   4.553   6.057   8.096  0.8260  1.0216  0.6689
  971MOL0     C28096   4.575   6.175   8.169  0.0518  0.9900 -0.6418
  971MOL0     C28097   4.655   6.276   8.123 -0.2334  0.1857 -0.1049
  971MOL0     O28098   4.673   6.392   8.198 -0.3530  0.3857 -0.8179
  971MOL0     C28099   4.729   6.519   8.141  0.4257 -0.0086  0.1948
  971MOL0     C28100   4.679   6.637   8.228  0.5502  0.1565  0.5574
  971MOL0     C28101   4.728   6.620   8.367 -0.1715  0.2553  0.4703
  971MOL0     C28102   4.877   6.620   8.384 -1.3860  0.1495 -0.6949
  971MOL0     C28103   4.902   6.582   8.522 -0.0663 -0.3091 -0.2413
  971MOL0     C28104   4.933   6.546   8.629  0.4029 -0.9829  0.1412
  971MOL0     C28105   4.716   6.253   7.997  0.1550 -0.9701  0.9751
  971MOL0     C28106   4.680   6.145   7.913  0.3354 -0.4710 -0.6459
  971MOL0     H28107   4.450   5.892   7.663 -0.5095  0.5509 -0.2502
  971MOL0     H28108   4.329   5.747   7.508 -2.1709 -1.9472 -0.7343
  971MOL0     H28109   4.089   5.584   7.574  1.7356  1.1020  1.4094
  971MOL0     H28110   4.082   5.412   7.547 -0.8852 -0.4331 -0.6431
  971MOL0     H28111   4.207   5.453   7.330 -1.3064 -1.5761  0.4103
  971MOL0     H28112   4.210   5.618   7.356  1.2338 -0.1131  2.3607
  971MOL0     H28113   3.929   5.589   7.399 -0.5522 -3.7751  1.5892
  971MOL0     H28114   3.949   5.458   7.325 -2.4574  0.4949  0.5696
  971MOL0     H28115   3.994   5.733   7.211 -1.2461 -0.0047 -0.3133
  971MOL0     H28116   4.075   5.602   7.124  1.7540 -2.5531  2.3909
  971MOL0     H28117   3.781   5.605   7.201 -0.2044  4.9086 -0.0815
  971MOL0     H28118   3.859   5.499   7.080 -1.8823 -0.4762  0.9128
  971MOL0     H28119   3.838   5.796   7.048 -4.6574 -0.1250 -0.2577
  971MOL0     H28120   3.734   5.667   6.973 -0.5657 -1.9641  1.6907
  971MOL0     H28121   4.016   5.732   6.910  0.9033 -0.1003 -4.3219
  971MOL0     H28122   3.948   5.568   6.869  0.8563  0.4526  1.4155
  971MOL0     H28123   3.927   5.719   6.685 -0.4969  1.2104  0.1754
  971MOL0     H28124   3.858   5.828   6.787  1.6360  0.1679  0.5463
  971MOL0     H28125   3.813   5.449   6.672 -2.3330 -2.4290 -0.7650
  971MOL0     H28126   3.439   5.415   6.582 -0.0010 -0.6297 -2.8738
  971MOL0     H28127   3.555   5.297   6.665 -1.3419 -0.5840 -0.1235
  971MOL0     H28128   3.561   5.277   6.408  3.1926 -0.9513 -1.0882
  971MOL0     H28129   3.707   5.329   6.471  0.4870  1.0344 -0.6309
  971MOL0     H28130   3.641   5.574   6.406  0.7145  1.6113 -1.9826
  971MOL0     H28131   3.679   5.460   6.278 -0.0809  2.6484 -0.8886
  971MOL0     H28132   3.488   5.580   6.205  2.7947 -3.5409 -1.7996
  971MOL0     H28133   3.398   5.568   6.355  0.7077  1.3911 -0.9618
  971MOL0     H28134   3.375   5.179   6.094  0.9756 -0.0393  0.5864
  971MOL0     H28135   3.212   5.143   5.937  0.7614 -1.7385  2.4501
  971MOL0     H28136   2.875   5.022   5.807 -0.6264 -0.5540 -1.7988
  971MOL0     H28137   2.703   4.946   5.633  1.4952 -1.4821  2.4360
  971MOL0     H28138   2.634   5.113   5.237 -2.0392  2.7126 -2.3282
  971MOL0     H28139   2.585   5.234   5.345  0.1812 -0.6165  1.3056
  971MOL0     H28140   2.353   5.114   5.384  3.8302  3.7952  0.8047
  971MOL0     H28141   2.401   4.966   5.293 -0.7730 -0.0364  0.2182
  971MOL0     H28142   2.424   5.100   5.093  0.7430  2.0035 -0.4125
  971MOL0     H28143   2.353   5.243   5.184  1.6824  0.1339 -2.4499
  971MOL0     H28144   2.220   4.999   5.102  0.8595 -1.9689  1.9419
  971MOL0     H28145   2.160   5.083   5.247 -0.5931  0.6725 -0.9677
  971MOL0     H28146   2.125   5.288   5.134 -5.2073 -1.2236  1.3465
  971MOL0     H28147   2.041   5.154   5.071 -0.3743 -0.4397  1.5138
  971MOL0     H28148   2.307   5.273   4.962  0.1497 -2.1272  0.9613
  971MOL0     H28149   2.154   5.315   4.889 -0.1862  0.6291  1.9397
  971MOL0     H28150   2.282   5.035   4.910 -2.4552 -3.6542 -3.2146
  971MOL0     H28151   2.119   5.067   4.842 -1.8776  2.9018 -0.2731
  971MOL0     H28152   2.310   5.045   4.672 -0.4549 -1.1430  0.7285
  971MOL0     H28153   2.369   5.203   4.723  0.5199 -0.2275 -1.7507
  971MOL0     H28154   2.792   5.265   5.376 -3.2450 -0.7581 -1.5930
  971MOL0     H28155   2.965   5.353   5.540 -0.3453 -0.2279 -4.4845
  971MOL0     H28156   3.109   5.569   5.957  1.3287  0.6160  2.9906
  971MOL0     H28157   3.237   5.591   6.144 -0.4844  0.2787  1.2522
  971MOL0     H28158   4.314   5.440   7.812  3.2568 -1.1478 -0.1467
  971MOL0     H28159   4.407   5.607   7.979 -0.4060  0.7476 -0.8099
  971MOL0     H28160   4.488   5.984   8.143 -0.8601  2.0561  0.0182
  971MOL0     H28161   4.529   6.185   8.267  1.7162 -3.1359  0.7789
  971MOL0     H28162   4.696   6.530   8.037 -1.1077 -0.1718  0.6372
  971MOL0     H28163   4.838   6.525   8.140  0.4941  0.7705  3.4482
  971MOL0     H28164   4.727   6.723   8.181  0.8843  0.0842  0.7669
  971MOL0     H28165   4.571   6.652   8.231  0.6392  1.2551 -0.5705
  971MOL0     H28166   4.677   6.529   8.399 -1.6033  1.1416  0.7839
  971MOL0     H28167   4.688   6.701   8.428  0.7945  1.0359  0.0967
  971MOL0     H28168   4.923   6.551   8.313 -0.9832 -0.0296 -0.2608
  971MOL0     H28169   4.912   6.720   8.355  0.5989 -1.3233 -3.8904
  971MOL0     H28170   4.964   6.533   8.731  2.5415  2.4221  0.0841
  971MOL0     H28171   4.792   6.305   7.939  0.1961 -2.8794 -0.7896
  971MOL0     H28172   4.710   6.122   7.812  0.6737  1.3976 -1.0060
  972MOL0     O28173   3.605   3.439   4.196  0.8015  0.1648 -0.3897
  972MOL0     C28174   3.489   3.418   4.225 -0.4405  0.8328 -0.2161
  972MOL0     O28175   3.454   3.340   4.336 -0.2120  0.1075 -0.5111
  972MOL0     C28176   3.545   3.276   4.417 -0.8143 -0.0851  0.3430
  972MOL0     C28177   3.526   3.267   4.554 -0.9609 -0.9864  0.0185
  972MOL0     C28178   3.626   3.197   4.630  0.4131  0.6255  0.5373
  972MOL0     C28179   3.740   3.137   4.571 -0.4302  0.4991  1.0255
  972MOL0     O28180   3.838   3.097   4.658  0.2434  1.2465 -0.7555
  972MOL0     C28181   3.973   3.083   4.618  0.4474  0.8012 -0.2430
  972MOL0     C28182   4.055   3.030   4.738  0.5451 -0.3767 -0.5054
  972MOL0     C28183   4.063   3.135   4.844  0.0719 -0.2750 -0.1205
  972MOL0     C28184   4.182   3.097   4.938 -0.5785  0.2687 -1.2784
  972MOL0     C28185   4.180   3.188   5.067 -0.1702  1.4671  0.3529
  972MOL0     C28186   4.230   3.113   5.189 -0.4898 -0.8633 -0.3173
  972MOL0     C28187   4.146   2.999   5.236  0.3554  0.0462 -0.1164
  972MOL0     C28188   4.181   2.955   5.376  0.3217 -0.2981 -0.0910
  972MOL0     N28189   4.087   2.848   5.419  0.2380 -0.6563  0.0491
  972MOL0     C28190   3.951   2.865   5.422 -0.4121  0.9077  0.2546
  972MOL0     C28191   3.903   2.757   5.484  0.9421 -0.1237 -0.6887
  972MOL0     C28192   3.760   2.723   5.508  0.0959 -0.5319 -0.0766
  972MOL0     C28193   3.704   2.751   5.649 -0.3265 -0.8697  0.1105
  972MOL0     C28194   3.715   2.900   5.668 -0.7283 -0.6201 -0.3148
  972MOL0     C28195   3.629   2.948   5.786  0.4604  0.7064  0.3207
  972MOL0     O28196   3.487   2.913   5.774  0.4883 -0.7355  0.7395
  972MOL0     C28197   3.398   2.976   5.866 -0.3538  0.1555 -0.0628
  972MOL0     C28198   3.262   2.947   5.860  0.0757  0.7415 -0.4097
  972MOL0     C28199   3.184   2.977   5.968  0.4568 -0.9006 -1.4113
  972MOL0     C28200   3.232   3.028   6.087  0.3574 -0.3994  0.1493
  972MOL0     C28201   3.145   3.084   6.191  0.0264 -0.3323  0.5398
  972MOL0     O28202   3.016   3.032   6.192  0.0386 -0.5795 -0.2227
  972MOL0     C28203   2.924   3.075   6.297  0.4890  0.6077 -0.6939
  972MOL0     C28204   2.940   3.118   6.430 -0.3580  0.4316  0.8001
  972MOL0     C28205   2.839   3.170   6.505  0.0079 -0.0918 -0.3916
  972MOL0     C28206   2.708   3.186   6.457  0.1723 -0.1142 -0.4484
  972MOL0     O28207   2.619   3.239   6.548  0.5129 -0.6309 -0.3084
  972MOL0     C28208   2.493   3.294   6.504  0.2131  0.3427  0.0766
  972MOL0     C28209   2.512   3.396   6.388 -1.2239  0.3048 -0.2461
  972MOL0     C28210   2.404   3.508   6.396 -0.5268  0.0167 -0.3812
  972MOL0     C28211   2.376   3.576   6.267 -0.3406 -0.3770  1.1145
  972MOL0     C28212   2.267   3.682   6.290 -0.9569  1.1706 -0.3302
  972MOL0     C28213   2.249   3.769   6.172 -0.1345  0.0451  0.4053
  972MOL0     C28214   2.173   3.698   6.057 -0.4810  0.9736 -0.1525
  972MOL0     C28215   2.109   3.801   5.966  0.5264  0.2573 -0.6765
  972MOL0    Cl28216   2.244   3.866   5.852  0.3826 -0.1678  0.0404
  972MOL0     C28217   2.682   3.131   6.339  0.2622 -0.5452 -0.5257
  972MOL0     C28218   2.789   3.078   6.259 -1.6228 -0.6336 -0.9227
  972MOL0     O28219   3.179   3.180   6.265 -1.1325  0.0636 -0.4023
  972MOL0     C28220   3.364   3.050   6.095  0.8793 -0.0361 -0.7746
  972MOL0     C28221   3.446   3.022   5.986 -1.0201 -0.7235 -0.8961
  972MOL0     N28222   4.007   2.683   5.532 -0.6233  0.5181  0.2014
  972MOL0     N28223   4.119   2.742   5.492 -0.0152  0.8114  0.1578
  972MOL0     C28224   3.756   3.133   4.430  0.5401  0.3739  0.3120
  972MOL0     C28225   3.652   3.202   4.360  1.0429 -0.1296  0.5940
  972MOL0     C28226   3.397   3.484   4.128 -0.7136  0.0165  0.1053
  972MOL0     C28227   3.445   3.570   4.021  1.0445  0.3551  0.2082
  972MOL0     C28228   3.357   3.655   3.958 -0.0351 -0.6664 -0.3996
  972MOL0     C28229   3.215   3.647   3.984 -0.9231 -0.3032  0.4568
  972MOL0     O28230   3.136   3.726   3.901 -0.0825  0.5127 -0.0576
  972MOL0     C28231   2.998   3.718   3.921 -0.3445  0.0623 -1.2472
  972MOL0     C28232   2.952   3.583   3.850  0.5033 -0.4680  0.1196
  972MOL0     C28233   2.950   3.599   3.700 -0.6425  1.3273 -0.7996
  972MOL0     C28234   2.878   3.474   3.633  0.5227 -0.1866  0.3218
  972MOL0     C28235   2.837   3.518   3.495 -0.6354  0.1517  0.4236
  972MOL0     C28236   2.776   3.553   3.397  0.2331  0.5461 -0.6859
  972MOL0     C28237   3.163   3.564   4.091  0.0116 -0.4776  0.6658
  972MOL0     C28238   3.263   3.491   4.161  0.3843  0.6298 -0.0318
  972MOL0     H28239   3.439   3.313   4.600 -2.6966 -3.5200 -0.5649
  972MOL0     H28240   3.621   3.192   4.739 -1.9316  1.8629  0.5684
  972MOL0     H28241   4.015   3.171   4.569  1.5250 -0.3368 -1.3890
  972MOL0     H28242   3.975   3.019   4.530 -2.0711  0.6373 -0.2745
  972MOL0     H28243   4.157   3.003   4.708  0.4347 -2.3320  0.6609
  972MOL0     H28244   4.007   2.938   4.774  0.4419  0.4665  1.6521
  972MOL0     H28245   3.970   3.140   4.900 -0.2169  0.5558 -0.6540
  972MOL0     H28246   4.072   3.233   4.796  0.4798  0.7709  2.0119
  972MOL0     H28247   4.174   2.991   4.965  0.5995  1.1257  3.4367
  972MOL0     H28248   4.285   3.102   4.902  1.0673 -2.3304  2.4267
  972MOL0     H28249   4.079   3.225   5.084 -1.3992 -1.5051  0.2901
  972MOL0     H28250   4.237   3.278   5.046  1.7718  0.0105 -1.0395
  972MOL0     H28251   4.232   3.179   5.276 -1.5676 -3.1176  1.5477
  972MOL0     H28252   4.332   3.075   5.178 -0.6125 -0.8971 -1.3884
  972MOL0     H28253   4.040   3.023   5.222  0.5324  0.5183 -0.6530
  972MOL0     H28254   4.158   2.916   5.166 -4.7441 -0.8554 -0.3291
  972MOL0     H28255   4.172   3.036   5.449 -2.4883 -2.0177  1.6900
  972MOL0     H28256   4.285   2.924   5.368  0.2646 -0.0911 -2.8914
  972MOL0     H28257   3.892   2.944   5.378  2.2091  2.3911 -0.8300
  972MOL0     H28258   3.749   2.618   5.480  1.9574 -0.6460 -0.5228
  972MOL0     H28259   3.691   2.773   5.440  1.1892 -0.9367 -1.5348
  972MOL0     H28260   3.774   2.705   5.719  1.2047 -0.6676 -1.2350
  972MOL0     H28261   3.607   2.702   5.667  0.7077 -2.2882  2.2058
  972MOL0     H28262   3.817   2.919   5.701 -1.7684 -2.2560  4.9010
  972MOL0     H28263   3.678   2.955   5.581 -2.8381  0.9519  1.4537
  972MOL0     H28264   3.637   3.051   5.821  0.4011  0.1936  1.9254
  972MOL0     H28265   3.665   2.898   5.877  1.6393  0.5146 -0.2276
  972MOL0     H28266   3.222   2.890   5.777  3.3600 -0.8106 -1.0682
  972MOL0     H28267   3.076   2.966   5.964 -0.2525  1.9743  2.8288
  972MOL0     H28268   3.038   3.128   6.476  2.2111 -1.2575 -3.6192
  972MOL0     H28269   2.851   3.202   6.608  0.0172 -2.0673  0.2513
  972MOL0     H28270   2.433   3.327   6.589  1.7691  1.8003  0.6765
  972MOL0     H28271   2.442   3.207   6.462 -0.5579  0.5188  0.6324
  972MOL0     H28272   2.506   3.350   6.289  1.9092  0.0965 -0.4517
  972MOL0     H28273   2.613   3.438   6.395  0.5026 -2.7285 -3.5116
  972MOL0     H28274   2.443   3.587   6.460 -3.2313  1.4019 -0.3039
  972MOL0     H28275   2.306   3.471   6.430 -1.3090  3.1012  1.1060
  972MOL0     H28276   2.466   3.631   6.237 -2.0035  2.6693  1.2687
  972MOL0     H28277   2.351   3.505   6.188 -2.9796 -0.7973  2.2081
  972MOL0     H28278   2.312   3.749   6.364  1.5020  1.3479 -1.8700
  972MOL0     H28279   2.174   3.634   6.320 -0.0891  0.5196  1.4532
  972MOL0     H28280   2.348   3.804   6.141  1.6755 -0.5475  4.8327
  972MOL0     H28281   2.195   3.856   6.212  0.6658  0.3550  0.8153
  972MOL0     H28282   2.250   3.646   5.999  0.1785  2.6224 -0.8155
  972MOL0     H28283   2.100   3.625   6.093  0.9495  1.4539  4.3625
  972MOL0     H28284   2.070   3.875   6.036  0.9820 -2.3094  2.5178
  972MOL0     H28285   2.028   3.763   5.904 -0.0237  2.8871 -1.6674
  972MOL0     H28286   2.581   3.105   6.311 -0.2006  2.1613 -1.6260
  972MOL0     H28287   2.762   3.040   6.160  0.5116 -1.2864 -1.3147
  972MOL0     H28288   3.400   3.070   6.196 -3.2468  1.2411  0.6619
  972MOL0     H28289   3.548   3.036   6.022  0.0552  1.9830 -4.4233
  972MOL0     H28290   3.828   3.072   4.376 -0.5699  1.7177 -2.8984
  972MOL0     H28291   3.640   3.189   4.253 -1.9445 -1.5312  1.0100
  972MOL0     H28292   3.550   3.576   3.993  1.4898 -1.3167  1.3440
  972MOL0     H28293   3.393   3.733   3.892  1.3483  1.1716  2.3843
  972MOL0     H28294   2.965   3.805   3.864 -0.4169  1.1684  0.4177
  972MOL0     H28295   2.969   3.732   4.026  5.1847  1.0402  0.4864
  972MOL0     H28296   3.008   3.497   3.887 -0.3060 -0.3029  1.8059
  972MOL0     H28297   2.849   3.576   3.885  0.2443  2.2148  0.0925
  972MOL0     H28298   3.055   3.602   3.670  0.7644  1.4309  3.4454
  972MOL0     H28299   2.903   3.694   3.671  0.4782  1.5341 -2.0405
  972MOL0     H28300   2.947   3.390   3.640  0.2407 -0.5121 -0.6709
  972MOL0     H28301   2.782   3.452   3.683 -0.4464  1.8263 -0.5310
  972MOL0     H28302   2.726   3.604   3.317 -0.4856  3.3121  1.4004
  972MOL0     H28303   3.059   3.540   4.108  0.1125 -0.9907  0.5721
  972MOL0     H28304   3.219   3.428   4.237 -0.1750 -0.4960 -1.2364
  973MOL0     O28305   9.112   0.906  10.879 -0.1629 -0.6026 -0.6940
  973MOL0     C28306   9.047   0.901  10.988  1.0556 -0.6602 -0.1886
  973MOL0     O28307   8.944   0.811  11.010  0.9396 -0.1037  0.3335
  973MOL0     C28308   8.923   0.711  10.914 -0.6975 -0.7045 -0.0609
  973MOL0     C28309   9.012   0.604  10.913  0.8100  0.3915  0.7116
  973MOL0     C28310   8.978   0.505  10.809 -0.7765 -0.9119 -0.0526
  973MOL0     C28311   8.893   0.527  10.708  0.1567 -0.7685  0.6012
  973MOL0     O28312   8.867   0.447  10.596 -0.0645  0.6832 -0.6385
  973MOL0     C28313   8.929   0.321  10.580  1.2910 -0.6618 -0.5205
  973MOL0     C28314   8.852   0.255  10.465  0.5328 -0.9850  0.1690
  973MOL0     C28315   8.877   0.321  10.330  0.3494  0.9939  0.4420
  973MOL0     C28316   8.828   0.240  10.211  0.4284  0.0997 -0.3161
  973MOL0     C28317   8.915   0.125  10.175  0.4597 -0.1709  0.0601
  973MOL0     C28318   8.839   0.047  10.067  0.1708 -0.6339  0.4413
  973MOL0     C28319   8.894  -0.090  10.021 -0.1445  0.0828  0.4826
  973MOL0     C28320   8.860  -0.190  10.134 -0.7150 -0.4671  0.2961
  973MOL0     N28321   8.723  -0.205  10.161 -0.0948 -1.1876 -0.7672
  973MOL0     C28322   8.635  -0.289  10.097 -0.4740 -0.5560 -0.8599
  973MOL0     C28323   8.530  -0.296  10.179  0.0592  0.2478 -0.5007
  973MOL0     C28324   8.399  -0.364  10.162  0.7687  0.1466  0.6743
  973MOL0     C28325   8.316  -0.346  10.026  0.0711  0.5425 -0.7319
  973MOL0     C28326   8.196  -0.438  10.023  0.9621 -0.1252 -0.4120
  973MOL0     C28327   8.119  -0.436   9.892 -0.4442 -0.9663 -0.2807
  973MOL0     O28328   8.108  -0.302   9.845 -0.5669 -0.5062 -0.5895
  973MOL0     C28329   8.126  -0.269   9.712  0.2128  0.4126 -0.8251
  973MOL0     C28330   8.074  -0.348   9.606 -0.4839  0.8466  0.1092
  973MOL0     C28331   8.103  -0.319   9.475 -0.4616 -0.0988  0.5151
  973MOL0     C28332   8.186  -0.210   9.442 -0.2073  0.1738 -0.3374
  973MOL0     C28333   8.211  -0.192   9.296 -0.6644 -0.4358  0.5554
  973MOL0     O28334   8.096  -0.199   9.219 -0.2030  0.3844  0.2017
  973MOL0     C28335   8.102  -0.199   9.082 -0.3732 -0.3704  0.3223
  973MOL0     C28336   8.216  -0.241   9.003  0.9314 -0.0202 -0.9543
  973MOL0     C28337   8.198  -0.228   8.866 -0.8760 -0.0013  0.7055
  973MOL0     C28338   8.082  -0.191   8.803  0.3144  0.0318  0.5086
  973MOL0     O28339   8.077  -0.183   8.669  0.3192  0.0676 -0.2389
  973MOL0     C28340   7.961  -0.206   8.600  0.8528 -0.5116 -0.3507
  973MOL0     C28341   7.965  -0.143   8.455 -0.6498  0.3227 -0.2988
  973MOL0     C28342   7.850  -0.197   8.371  0.0016  0.3078  1.1565
  973MOL0     C28343   7.823  -0.116   8.243  0.7629  0.7541 -0.3449
  973MOL0     C28344   7.731  -0.187   8.136 -0.4719 -1.0281  0.3124
  973MOL0     C28345   7.592  -0.196   8.177  0.0407  0.3725  0.0968
  973MOL0     C28346   7.510  -0.249   8.055 -0.2075  0.0846  0.5807
  973MOL0     C28347   7.362  -0.278   8.101  1.1154 -0.3791 -0.0464
  973MOL0    Cl28348   7.270  -0.115   8.121  0.0353  0.5390 -0.0875
  973MOL0     C28349   7.977  -0.164   8.883  0.9511 -0.3723  0.1996
  973MOL0     C28350   7.986  -0.162   9.025 -0.3891 -0.0743 -0.2225
  973MOL0     O28351   8.326  -0.170   9.250  0.0461 -0.1408  0.2495
  973MOL0     C28352   8.252  -0.147   9.547 -0.7813 -0.3191  0.5188
  973MOL0     C28353   8.221  -0.169   9.678 -0.6262 -0.7056 -0.8264
  973MOL0     N28354   8.542  -0.208  10.287 -0.3307  0.9060  0.0286
  973MOL0     N28355   8.661  -0.158  10.267  0.2219 -0.1805 -1.1911
  973MOL0     C28356   8.828   0.651  10.705 -0.0564 -0.0325 -0.6018
  973MOL0     C28357   8.840   0.736  10.808 -0.3071 -0.4949  0.0642
  973MOL0     C28358   9.074   1.011  11.088 -0.8228  1.0948 -0.6804
  973MOL0     C28359   9.194   1.078  11.109 -0.3838 -0.7358 -0.4343
  973MOL0     C28360   9.201   1.165  11.225 -0.2226  1.3498  0.4902
  973MOL0     C28361   9.094   1.187  11.312 -0.0690  0.5407  0.3740
  973MOL0     O28362   9.112   1.293  11.406  0.2448  0.1955 -0.5199
  973MOL0     C28363   9.041   1.303  11.527  0.4887  0.4127  0.4381
  973MOL0     C28364   9.082   1.440  11.586  0.4970 -0.1852 -0.6966
  973MOL0     C28365   8.994   1.559  11.526 -0.1121 -0.0717  0.2248
  973MOL0     C28366   9.022   1.686  11.594  0.4543  0.8898 -0.4144
  973MOL0     C28367   8.970   1.800  11.517 -0.5085 -0.5128 -0.0598
  973MOL0     C28368   8.928   1.892  11.445 -0.3354 -0.5842 -0.0311
  973MOL0     C28369   8.975   1.115  11.293  0.4824  0.4021 -0.5089
  973MOL0     C28370   8.963   1.031  11.182  0.4838  0.3193  0.0887
  973MOL0     H28371   9.074   0.582  10.999 -1.3323  3.9234  3.4215
  973MOL0     H28372   9.035   0.414  10.826 -0.4532 -0.4387  1.4796
  973MOL0     H28373   8.910   0.255  10.665 -0.5614  0.1958 -0.2232
  973MOL0     H28374   9.038   0.331  10.577  1.8092 -2.9641  3.2218
  973MOL0     H28375   8.744   0.249  10.481 -0.5931  3.6925 -3.4247
  973MOL0     H28376   8.889   0.153  10.469  0.2806 -1.1785 -1.7936
  973MOL0     H28377   8.986   0.334  10.326  1.1904 -2.6955  4.2681
  973MOL0     H28378   8.818   0.413  10.336 -0.1765  0.6517  0.5096
  973MOL0     H28379   8.723   0.221  10.232  0.3203 -0.0378 -0.9652
  973MOL0     H28380   8.827   0.302  10.120 -0.8424  0.5791  0.0000
  973MOL0     H28381   8.937   0.062  10.261 -2.3067  2.8675  3.2584
  973MOL0     H28382   9.012   0.150  10.130  1.3047 -3.8943 -0.4992
  973MOL0     H28383   8.861   0.111   9.981 -0.5808 -1.9417 -0.7751
  973MOL0     H28384   8.730   0.055  10.067  0.2773  1.4518 -0.0300
  973MOL0     H28385   8.843  -0.128   9.932  1.0990 -1.0224  0.2290
  973MOL0     H28386   8.999  -0.083   9.993 -0.3962 -0.5714 -0.6666
  973MOL0     H28387   8.909  -0.159  10.227 -0.1737 -2.7708  0.8526
  973MOL0     H28388   8.915  -0.284  10.118 -2.1784 -1.6078  1.6463
  973MOL0     H28389   8.640  -0.332   9.997  2.3078 -2.1351 -0.1227
  973MOL0     H28390   8.340  -0.325  10.246  2.6512  0.1504  2.0485
  973MOL0     H28391   8.425  -0.470  10.172 -0.6779 -0.2207  0.8083
  973MOL0     H28392   8.375  -0.367   9.936  0.0698 -2.3956 -0.1516
  973MOL0     H28393   8.285  -0.242  10.032  0.7736  0.7059  0.3330
  973MOL0     H28394   8.222  -0.544  10.029  1.0924 -0.3311 -3.3046
  973MOL0     H28395   8.134  -0.405  10.106  2.6546 -0.5520  1.0796
  973MOL0     H28396   8.022  -0.480   9.914 -0.3750 -0.0095  2.2203
  973MOL0     H28397   8.177  -0.490   9.817  0.5295 -0.1607 -0.1372
  973MOL0     H28398   8.021  -0.439   9.632  3.5151 -1.5473  0.7033
  973MOL0     H28399   8.047  -0.375   9.400 -2.9005  1.2345  1.2173
  973MOL0     H28400   8.311  -0.275   9.044  1.6742  2.8035 -0.0899
  973MOL0     H28401   8.273  -0.264   8.796 -1.0770  0.2014  0.3786
  973MOL0     H28402   7.868  -0.172   8.648 -0.3064  0.8559 -3.2829
  973MOL0     H28403   7.948  -0.314   8.598 -0.4280 -0.5956  3.4613
  973MOL0     H28404   8.065  -0.150   8.409 -2.0161  0.0549 -3.5151
  973MOL0     H28405   7.949  -0.036   8.468 -0.8038  0.2105  0.4610
  973MOL0     H28406   7.749  -0.199   8.413 -1.8951 -2.0105 -2.9525
  973MOL0     H28407   7.873  -0.303   8.356 -0.6524 -0.0440  2.5024
  973MOL0     H28408   7.790  -0.016   8.270  0.0689  1.1393 -2.4752
  973MOL0     H28409   7.920  -0.101   8.193  0.3305 -1.3805 -2.0199
  973MOL0     H28410   7.774  -0.287   8.121  0.7394 -0.1986 -2.5207
  973MOL0     H28411   7.732  -0.137   8.039  2.2421  1.3872  1.4205
  973MOL0     H28412   7.570  -0.093   8.206 -1.6318  0.0816 -0.0554
  973MOL0     H28413   7.583  -0.260   8.266  2.3760 -2.3221 -1.4176
  973MOL0     H28414   7.512  -0.174   7.976 -0.6836 -1.7302 -1.2397
  973MOL0     H28415   7.549  -0.342   8.012  0.7447  1.3975 -1.5470
  973MOL0     H28416   7.351  -0.323   8.200 -1.9298 -0.4567 -0.3289
  973MOL0     H28417   7.313  -0.335   8.022 -1.6958  3.9258 -1.8235
  973MOL0     H28418   7.893  -0.116   8.833  0.6260  0.7686  1.7583
  973MOL0     H28419   7.903  -0.114   9.076 -0.4184  2.1625 -2.1989
  973MOL0     H28420   8.326  -0.075   9.515 -3.2222  2.4069  0.5930
  973MOL0     H28421   8.264  -0.100   9.750 -0.0886 -1.6389 -0.2367
  973MOL0     H28422   8.754   0.676  10.630 -0.5061 -1.3636 -0.6290
  973MOL0     H28423   8.778   0.825  10.815  2.6243  2.0336 -2.7704
  973MOL0     H28424   9.286   1.064  11.053 -0.4927 -2.4154 -0.2512
  973MOL0     H28425   9.290   1.221  11.254  1.8134 -0.3979 -1.9582
  973MOL0     H28426   9.076   1.214  11.580  1.1932 -1.3451 -2.7162
  973MOL0     H28427   8.934   1.292  11.508  0.8726  0.9832 -2.5507
  973MOL0     H28428   9.074   1.443  11.695  3.5266  2.8771 -0.3842
  973MOL0     H28429   9.191   1.448  11.575  0.5126  1.8301  0.5089
  973MOL0     H28430   8.889   1.543  11.551 -0.5700  1.8510 -0.2567
  973MOL0     H28431   9.009   1.570  11.418  0.7619 -1.1128  0.2230
  973MOL0     H28432   8.959   1.698  11.682  1.3151 -1.5060  0.6069
  973MOL0     H28433   9.128   1.685  11.622  0.3437 -0.4951  0.0361
  973MOL0     H28434   8.888   1.959  11.371 -0.7951  0.3271  1.0134
  973MOL0     H28435   8.887   1.111  11.358  0.6892 -0.3834 -0.2706
  973MOL0     H28436   8.875   0.970  11.163  0.6633  0.0562  0.0982
  974MOL0     O28437   2.106   1.426   6.035  0.6234  0.3916  0.1523
  974MOL0     C28438   2.225   1.409   6.003  0.3395 -0.3261  0.5116
  974MOL0     O28439   2.322   1.341   6.073 -1.5011 -0.0388  0.8726
  974MOL0     C28440   2.286   1.285   6.190  1.3477  0.2035 -0.1239
  974MOL0     C28441   2.312   1.152   6.234  0.1799  0.2921 -0.7926
  974MOL0     C28442   2.280   1.098   6.358 -0.8236  0.3260 -1.1044
  974MOL0     C28443   2.224   1.186   6.455  0.3419  0.3465 -0.3906
  974MOL0     O28444   2.225   1.137   6.586 -0.0993  0.3781  0.0255
  974MOL0     C28445   2.300   1.221   6.675  1.1053  0.2181 -0.3514
  974MOL0     C28446   2.238   1.209   6.815  0.1723 -0.1981  0.9303
  974MOL0     C28447   2.274   1.076   6.885 -0.5591  0.2728 -0.1349
  974MOL0     C28448   2.245   1.075   7.035  0.5611 -0.0515  0.4857
  974MOL0     C28449   2.257   0.930   7.080  0.9613  0.3938 -0.5084
  974MOL0     C28450   2.401   0.888   7.107 -0.0600  0.4791 -0.3379
  974MOL0     C28451   2.415   0.736   7.126  0.0094  0.7504 -0.2766
  974MOL0     C28452   2.558   0.683   7.163 -0.7613 -0.8535  0.2965
  974MOL0     N28453   2.663   0.709   7.059  0.5497  0.3063  0.0365
  974MOL0     C28454   2.752   0.628   7.012 -0.4411  0.8336 -1.1417
  974MOL0     C28455   2.823   0.690   6.911  0.3273  0.3637  0.6963
  974MOL0     C28456   2.957   0.640   6.847 -0.0272 -0.4348  0.9831
  974MOL0     C28457   2.952   0.606   6.703  0.6044 -0.3490 -0.4772
  974MOL0     C28458   3.101   0.592   6.647 -0.3084 -1.0994  0.0801
  974MOL0     C28459   3.112   0.553   6.500 -0.0021  0.1363  0.4312
  974MOL0     O28460   3.048   0.639   6.412  0.7804 -0.3349  0.5189
  974MOL0     C28461   3.048   0.605   6.275  0.3129  0.2762 -0.4400
  974MOL0     C28462   2.939   0.666   6.206  0.1241  1.0404  0.7717
  974MOL0     C28463   2.908   0.632   6.069  0.3569  0.4826  0.6331
  974MOL0     C28464   2.992   0.527   6.004  0.2226  0.3618  0.1371
  974MOL0     C28465   2.947   0.473   5.874  0.1189  0.0599 -0.2760
  974MOL0     O28466   3.031   0.392   5.806 -0.9024 -0.0291  0.3181
  974MOL0     C28467   2.996   0.326   5.690  1.0474  0.5795 -0.2852
  974MOL0     C28468   3.099   0.305   5.597 -0.0836  0.4611  0.0085
  974MOL0     C28469   3.066   0.249   5.471  0.0525  0.2352  0.1353
  974MOL0     C28470   2.933   0.213   5.432 -0.4585 -0.1353  0.1849
  974MOL0     O28471   2.919   0.137   5.321 -0.8600 -0.1243 -0.6816
  974MOL0     C28472   2.890   0.000   5.341  0.0893  1.5404 -0.1007
  974MOL0     C28473   2.877  -0.077   5.217 -0.1890  0.0796  0.5202
  974MOL0     C28474   2.781  -0.010   5.121  0.5212  0.7173  0.4834
  974MOL0     C28475   2.734  -0.113   5.016  0.6342  0.4344 -0.0230
  974MOL0     C28476   2.632  -0.038   4.927 -0.5750 -0.5110  0.9471
  974MOL0     C28477   2.587  -0.151   4.816 -0.0553 -0.6027 -0.0471
  974MOL0     C28478   2.448  -0.113   4.763  0.6133  0.9474  0.0046
  974MOL0     C28479   2.392  -0.237   4.686  0.3765 -0.4656  0.0597
  974MOL0    Cl28480   2.510  -0.309   4.575  0.1101  0.1103  0.3401
  974MOL0     C28481   2.839   0.227   5.535 -0.0488  0.7593 -0.3448
  974MOL0     C28482   2.866   0.286   5.653 -0.5663 -0.5710 -0.4501
  974MOL0     O28483   2.839   0.509   5.832  0.0499  0.3734 -0.8141
  974MOL0     C28484   3.102   0.471   6.077  0.6622  0.4944 -0.8956
  974MOL0     C28485   3.130   0.511   6.213  0.3883  0.2987 -0.0263
  974MOL0     N28486   2.763   0.806   6.901  0.3011  0.2299  0.2875
  974MOL0     N28487   2.668   0.813   6.981 -0.0472 -0.6741  0.5633
  974MOL0     C28488   2.190   1.321   6.422  0.6082 -0.2532 -0.3211
  974MOL0     C28489   2.210   1.365   6.287  0.0349  0.3196  1.3594
  974MOL0     C28490   2.276   1.476   5.883 -0.4153  0.0909 -0.4544
  974MOL0     C28491   2.414   1.499   5.864  0.6549  0.3622 -1.4489
  974MOL0     C28492   2.459   1.537   5.740 -0.0308  0.2947 -0.1913
  974MOL0     C28493   2.380   1.563   5.635  0.0842 -0.1727  0.8477
  974MOL0     O28494   2.418   1.605   5.509 -0.1837  0.1788 -0.1268
  974MOL0     C28495   2.551   1.567   5.470  0.6309 -0.2092 -0.4179
  974MOL0     C28496   2.561   1.415   5.454  0.7146  0.3122 -0.2667
  974MOL0     C28497   2.454   1.362   5.360 -0.6429  0.3038  0.2816
  974MOL0     C28498   2.486   1.220   5.315  0.3925  0.2036 -0.2073
  974MOL0     C28499   2.569   1.203   5.198 -0.1262  0.4577  0.0440
  974MOL0     C28500   2.631   1.199   5.096  0.5313  0.5318  0.8668
  974MOL0     C28501   2.241   1.555   5.653  0.0273 -1.2849  1.0513
  974MOL0     C28502   2.190   1.506   5.774  0.2212 -1.1075 -1.3591
  974MOL0     H28503   2.362   1.092   6.160 -1.1082 -0.4275 -1.1143
  974MOL0     H28504   2.316   1.000   6.389 -1.7511  0.6706  1.3134
  974MOL0     H28505   2.308   1.325   6.640  1.4630  0.1634 -0.4419
  974MOL0     H28506   2.404   1.187   6.676  0.7765 -0.8863  2.0237
  974MOL0     H28507   2.129   1.216   6.811  0.2240  4.3739  2.1929
  974MOL0     H28508   2.266   1.291   6.882 -0.2981  1.3992 -0.7533
  974MOL0     H28509   2.381   1.058   6.869  0.0441  1.6778  1.9030
  974MOL0     H28510   2.230   0.984   6.844 -0.2320 -2.4090  4.7874
  974MOL0     H28511   2.322   1.140   7.078  1.0255 -0.8700  0.9033
  974MOL0     H28512   2.139   1.098   7.045 -0.2918 -0.7600 -4.4398
  974MOL0     H28513   2.206   0.864   7.008  1.0499 -2.9376  2.2105
  974MOL0     H28514   2.195   0.944   7.169  1.0891  0.2222 -0.3922
  974MOL0     H28515   2.453   0.943   7.186  0.7042  1.0512 -1.2020
  974MOL0     H28516   2.457   0.927   7.021  1.9049  5.8631  2.8902
  974MOL0     H28517   2.351   0.700   7.207 -2.0029  0.9558 -1.7006
  974MOL0     H28518   2.368   0.696   7.036 -1.3111  1.1225  0.2181
  974MOL0     H28519   2.564   0.581   7.202  2.4074 -1.1680 -0.7946
  974MOL0     H28520   2.584   0.733   7.257 -2.3796 -2.8513  1.9129
  974MOL0     H28521   2.768   0.523   7.038  1.6973  1.2008 -0.7911
  974MOL0     H28522   2.989   0.545   6.891  0.6793 -1.1830 -1.0201
  974MOL0     H28523   3.029   0.718   6.871 -0.7878 -0.1470  2.4342
  974MOL0     H28524   2.891   0.675   6.643 -1.3554 -0.1707  1.5553
  974MOL0     H28525   2.908   0.508   6.687 -2.8911  1.4107 -2.9938
  974MOL0     H28526   3.156   0.687   6.653 -0.0513 -1.2701  0.4940
  974MOL0     H28527   3.169   0.528   6.704  2.6251  0.0378 -1.8888
  974MOL0     H28528   3.073   0.451   6.490  0.7643 -0.0309 -1.0792
  974MOL0     H28529   3.220   0.537   6.489  0.0896 -0.7743  2.2566
  974MOL0     H28530   2.866   0.732   6.250 -1.7580 -0.5027  0.0988
  974MOL0     H28531   2.826   0.676   6.014 -1.6216 -2.4850  1.0021
  974MOL0     H28532   3.198   0.344   5.620  0.1265 -1.4580  2.8466
  974MOL0     H28533   3.138   0.259   5.390  0.4443  2.0793  0.6694
  974MOL0     H28534   2.793  -0.000   5.392  0.3772 -1.1749  0.5886
  974MOL0     H28535   2.975  -0.033   5.400 -0.0581  3.8767  1.5529
  974MOL0     H28536   2.862  -0.185   5.230  0.7535 -0.4340 -2.1028
  974MOL0     H28537   2.976  -0.087   5.171 -0.0726 -4.0964  1.2574
  974MOL0     H28538   2.831   0.073   5.070 -1.6305  1.7057 -0.1134
  974MOL0     H28539   2.693   0.023   5.177  2.1328  2.3133  2.2207
  974MOL0     H28540   2.811  -0.166   4.959  0.1481  0.7537 -0.9894
  974MOL0     H28541   2.675  -0.186   5.072 -1.3601  0.2269 -2.2379
  974MOL0     H28542   2.693   0.044   4.887 -0.5900 -0.6018  0.7394
  974MOL0     H28543   2.545   0.002   4.979 -0.5266 -0.3038  0.8730
  974MOL0     H28544   2.577  -0.251   4.858  1.2348 -0.2790  1.1191
  974MOL0     H28545   2.672  -0.161   4.748  1.0763 -0.4978  1.3152
  974MOL0     H28546   2.376  -0.087   4.841  0.6027  0.9407 -0.0029
  974MOL0     H28547   2.458  -0.026   4.696  0.1788  0.4495 -0.7197
  974MOL0     H28548   2.308  -0.194   4.631  2.4641 -1.5151 -4.4531
  974MOL0     H28549   2.356  -0.313   4.755  0.1181  0.8383  1.4014
  974MOL0     H28550   2.735   0.206   5.514 -0.5645  2.7358  0.0239
  974MOL0     H28551   2.791   0.293   5.731  0.5202 -1.3696  0.7005
  974MOL0     H28552   3.169   0.403   6.025  0.4717  0.5083 -1.1614
  974MOL0     H28553   3.214   0.468   6.266  0.9938  1.6161  0.1221
  974MOL0     H28554   2.127   1.381   6.488  1.3471  1.9860 -1.5191
  974MOL0     H28555   2.165   1.458   6.256  1.3465  0.0783 -1.5773
  974MOL0     H28556   2.483   1.476   5.945  0.1415 -1.4095 -1.4855
  974MOL0     H28557   2.565   1.535   5.719 -0.1370  1.9614 -1.0185
  974MOL0     H28558   2.624   1.607   5.542  0.4017 -2.4701  1.1709
  974MOL0     H28559   2.583   1.605   5.373  1.6757 -1.9807 -0.7950
  974MOL0     H28560   2.656   1.397   5.403 -0.8851 -1.0918 -3.0230
  974MOL0     H28561   2.568   1.364   5.551 -3.7531  0.1994  0.2219
  974MOL0     H28562   2.446   1.432   5.277 -2.5635 -2.0159 -1.6582
  974MOL0     H28563   2.354   1.352   5.403 -1.6353 -1.7064 -2.2639
  974MOL0     H28564   2.519   1.165   5.404  1.2540 -2.5252 -2.1049
  974MOL0     H28565   2.396   1.164   5.290  0.1677  0.5377 -0.1541
  974MOL0     H28566   2.688   1.193   5.006  0.7744  3.0602  0.7682
  974MOL0     H28567   2.170   1.565   5.572 -1.5235 -0.8370  2.4095
  974MOL0     H28568   2.082   1.498   5.778 -0.1892  3.0436  0.2703
  975MOL0     O28569   3.065   6.473   3.916  0.6631 -0.0463 -0.7702
  975MOL0     C28570   3.049   6.394   4.010 -0.8037 -0.8154  0.4299
  975MOL0     O28571   3.157   6.337   4.083  0.7772  0.7856 -0.8523
  975MOL0     C28572   3.287   6.338   4.042 -0.3984  0.0887 -0.4799
  975MOL0     C28573   3.348   6.460   4.017  0.2046  1.1476  0.4608
  975MOL0     C28574   3.486   6.455   3.977 -0.4075  0.4770 -0.7014
  975MOL0     C28575   3.562   6.335   3.976 -0.4677  0.2593 -0.4420
  975MOL0     O28576   3.680   6.367   3.930 -0.9772  0.4412 -0.1364
  975MOL0     C28577   3.730   6.263   3.849  0.0989  0.4449 -0.5276
  975MOL0     C28578   3.870   6.287   3.788  0.6643 -0.1633  0.1004
  975MOL0     C28579   3.862   6.227   3.646  0.5849 -0.3686 -0.3898
  975MOL0     C28580   3.999   6.242   3.582  0.1102  0.1130  0.6518
  975MOL0     C28581   4.111   6.155   3.629  0.3698  0.1187 -0.4275
  975MOL0     C28582   4.247   6.182   3.552 -0.9712 -0.4842  0.0649
  975MOL0     C28583   4.364   6.083   3.577  0.4183 -0.4879 -0.0217
  975MOL0     C28584   4.422   6.124   3.713  0.7313  0.1797 -0.4560
  975MOL0     N28585   4.513   6.025   3.756  0.3446 -0.5389  0.0341
  975MOL0     C28586   4.650   6.032   3.749  0.1629  0.3932  1.0432
  975MOL0     C28587   4.694   5.905   3.789 -1.0001  0.1315 -0.1557
  975MOL0     C28588   4.836   5.864   3.824 -0.1178 -0.9358  0.9140
  975MOL0     C28589   4.918   5.824   3.699  0.8011 -0.2471 -0.5170
  975MOL0     C28590   4.850   5.735   3.599  0.4550 -0.2593 -0.0057
  975MOL0     C28591   4.812   5.594   3.646 -0.1474  0.1830 -0.2461
  975MOL0     O28592   4.706   5.582   3.740 -0.3405 -0.0315  0.5459
  975MOL0     C28593   4.705   5.492   3.843 -0.1526  0.1175  0.7649
  975MOL0     C28594   4.625   5.528   3.951 -1.2268 -0.5368 -0.0424
  975MOL0     C28595   4.618   5.445   4.068 -0.8259 -0.5733  0.0415
  975MOL0     C28596   4.692   5.322   4.071 -0.4444  0.8799 -0.2583
  975MOL0     C28597   4.673   5.245   4.195 -0.0916  1.5862 -0.2765
  975MOL0     O28598   4.625   5.305   4.307 -0.5775  0.0902 -0.0661
  975MOL0     C28599   4.539   5.229   4.383  0.5886  0.2411 -1.0085
  975MOL0     C28600   4.576   5.214   4.520  0.4061 -0.6313  0.4256
  975MOL0     C28601   4.483   5.142   4.605 -0.3565 -0.1619 -0.4530
  975MOL0     C28602   4.365   5.086   4.556 -0.7570  0.8142 -0.2348
  975MOL0     O28603   4.266   5.041   4.634  1.1814  0.5828 -0.7238
  975MOL0     C28604   4.265   5.107   4.765 -0.5850  0.0763 -0.0709
  975MOL0     C28605   4.118   5.120   4.803  0.7286 -0.8582 -1.2551
  975MOL0     C28606   4.045   4.984   4.819  0.3007 -0.2942  0.5231
  975MOL0     C28607   3.903   4.990   4.844  0.2813 -0.0272 -0.6683
  975MOL0     C28608   3.819   5.086   4.759 -0.3943 -0.6687  0.1778
  975MOL0     C28609   3.672   5.073   4.797  0.2296 -1.0403 -0.4410
  975MOL0     C28610   3.580   5.155   4.703 -0.2245  0.4828 -0.5819
  975MOL0     C28611   3.439   5.161   4.759  0.3902  0.3057 -0.2278
  975MOL0    Cl28612   3.350   5.016   4.703 -0.1005 -0.0417  0.3449
  975MOL0     C28613   4.330   5.098   4.418  0.4082 -1.0142  1.0686
  975MOL0     C28614   4.425   5.173   4.335 -0.3106 -0.1056 -0.0002
  975MOL0     O28615   4.722   5.132   4.191  0.2218  0.4715 -0.3412
  975MOL0     C28616   4.768   5.291   3.956  0.5760  0.2887 -0.2669
  975MOL0     C28617   4.767   5.367   3.845 -0.3252 -0.3456 -0.0568
  975MOL0     N28618   4.580   5.829   3.817  0.1110  0.2835  0.3353
  975MOL0     N28619   4.480   5.908   3.805  0.2358  0.3310  0.2167
  975MOL0     C28620   3.498   6.215   4.018 -0.4473  0.1632 -0.5610
  975MOL0     C28621   3.361   6.219   4.047  0.3049 -0.7672 -0.6454
  975MOL0     C28622   2.918   6.348   4.053  0.5764  0.3127  0.1581
  975MOL0     C28623   2.801   6.417   4.029 -0.4902 -0.6127 -1.2428
  975MOL0     C28624   2.671   6.377   4.079  1.1166  0.7908 -0.8436
  975MOL0     C28625   2.664   6.255   4.138 -0.2687  0.1748  0.2612
  975MOL0     O28626   2.539   6.199   4.167 -0.0910  0.0469  0.6985
  975MOL0     C28627   2.431   6.215   4.070 -0.0543 -0.2468  0.2147
  975MOL0     C28628   2.311   6.132   4.113 -0.6109 -0.6788  0.0572
  975MOL0     C28629   2.174   6.155   4.038  0.0042  0.2960 -0.5391
  975MOL0     C28630   2.090   6.032   4.034  0.1129  0.3467 -0.6825
  975MOL0     C28631   1.946   6.053   4.009  0.4012  0.3957 -0.4332
  975MOL0     C28632   1.825   6.051   3.994  0.9596 -0.2716  1.2211
  975MOL0     C28633   2.778   6.178   4.170 -0.0935  0.2072 -0.1284
  975MOL0     C28634   2.907   6.230   4.129  0.1567 -0.8077 -0.6959
  975MOL0     H28635   3.295   6.554   4.025 -1.5865  0.7713 -3.8941
  975MOL0     H28636   3.552   6.538   3.956  2.5361 -1.5722 -0.2289
  975MOL0     H28637   3.653   6.243   3.775 -2.0683  1.4897  1.3262
  975MOL0     H28638   3.750   6.178   3.915  0.7897  0.2411 -0.9897
  975MOL0     H28639   3.944   6.243   3.855 -1.3090  0.9248  3.2348
  975MOL0     H28640   3.892   6.393   3.776  2.0600 -0.4234  0.2451
  975MOL0     H28641   3.785   6.267   3.579  0.8595 -0.2745 -0.6485
  975MOL0     H28642   3.836   6.122   3.662 -1.8895  0.0988 -0.9642
  975MOL0     H28643   3.992   6.224   3.474  0.1632 -1.8182  0.9395
  975MOL0     H28644   4.018   6.350   3.587  1.1542 -0.0316  0.1590
  975MOL0     H28645   4.080   6.051   3.613 -2.1804  0.7560 -0.1446
  975MOL0     H28646   4.121   6.162   3.738  1.7746 -0.3766 -0.5062
  975MOL0     H28647   4.291   6.277   3.585  0.5434 -1.2944  0.4433
  975MOL0     H28648   4.227   6.199   3.445 -1.8294  3.0191  0.6592
  975MOL0     H28649   4.325   5.980   3.572  1.5593 -0.8916 -1.4778
  975MOL0     H28650   4.441   6.080   3.499  3.3157  2.2046  2.4961
  975MOL0     H28651   4.344   6.143   3.787  2.3971  2.9335  0.7316
  975MOL0     H28652   4.474   6.219   3.699  1.6965 -0.3953 -0.8358
  975MOL0     H28653   4.713   6.118   3.726  0.9044 -1.2267 -4.1572
  975MOL0     H28654   4.832   5.782   3.896  0.2525 -2.3164 -0.5874
  975MOL0     H28655   4.889   5.949   3.867 -4.1470  2.3251  0.1094
  975MOL0     H28656   5.016   5.782   3.724  0.8414 -0.0113 -0.2715
  975MOL0     H28657   4.958   5.905   3.638  0.0008 -0.1455 -0.9118
  975MOL0     H28658   4.756   5.781   3.565 -0.6952 -2.6455 -0.3282
  975MOL0     H28659   4.917   5.722   3.513  0.2218  1.6433 -0.5235
  975MOL0     H28660   4.895   5.550   3.700 -2.1648  0.1682  3.1298
  975MOL0     H28661   4.804   5.528   3.559  2.1376 -1.1998  0.5304
  975MOL0     H28662   4.582   5.627   3.950  2.1944  1.0618 -0.6312
  975MOL0     H28663   4.554   5.476   4.150  0.9490  0.7827  0.9806
  975MOL0     H28664   4.667   5.257   4.561 -0.4365  2.7725 -0.9251
  975MOL0     H28665   4.499   5.139   4.712 -2.6389  0.6351 -0.0328
  975MOL0     H28666   4.306   5.208   4.759 -0.6802  0.1459  0.4561
  975MOL0     H28667   4.321   5.050   4.840  0.6483 -1.8809 -2.3316
  975MOL0     H28668   4.069   5.189   4.734 -1.4542  2.4334  3.0155
  975MOL0     H28669   4.116   5.165   4.903  1.0467 -3.4434  0.0038
  975MOL0     H28670   4.092   4.928   4.900 -1.1579  0.1255  1.7032
  975MOL0     H28671   4.058   4.933   4.723  2.9377  0.1990  0.5442
  975MOL0     H28672   3.857   4.891   4.851 -1.9379  1.0524  2.5245
  975MOL0     H28673   3.886   5.032   4.944  2.3609  0.0706 -0.3083
  975MOL0     H28674   3.836   5.057   4.655  1.6253  2.1785 -0.4090
  975MOL0     H28675   3.852   5.190   4.766 -0.3173 -0.7179  0.5103
  975MOL0     H28676   3.669   5.111   4.899  1.6650  0.2289 -0.8405
  975MOL0     H28677   3.642   4.970   4.816  1.5295 -1.1301  1.4257
  975MOL0     H28678   3.615   5.259   4.711  2.3756 -0.4661  3.3842
  975MOL0     H28679   3.582   5.108   4.604 -1.0723 -3.3139  1.0188
  975MOL0     H28680   3.390   5.251   4.722 -1.0568 -1.0852 -1.9205
  975MOL0     H28681   3.439   5.164   4.868 -0.4453  1.8014 -0.2533
  975MOL0     H28682   4.247   5.060   4.359 -1.0994  1.1026  1.7122
  975MOL0     H28683   4.402   5.172   4.229 -2.2569  1.9160  0.3279
  975MOL0     H28684   4.823   5.198   3.950  0.2996  0.2012 -1.8081
  975MOL0     H28685   4.817   5.320   3.760 -1.0719 -3.2024  0.9668
  975MOL0     H28686   3.552   6.120   4.013 -2.6888 -1.1269 -1.4723
  975MOL0     H28687   3.305   6.133   4.085 -4.3162  2.1487  0.0383
  975MOL0     H28688   2.809   6.510   3.975  2.1334 -0.5522 -0.8739
  975MOL0     H28689   2.583   6.436   4.054 -0.5447 -1.3970 -0.4743
  975MOL0     H28690   2.463   6.184   3.970  3.7519  0.5890  1.0213
  975MOL0     H28691   2.410   6.321   4.054  1.9453  0.1078 -0.3711
  975MOL0     H28692   2.336   6.026   4.122  0.7465 -0.6083 -2.2816
  975MOL0     H28693   2.303   6.168   4.216  1.5947  1.7674 -0.5223
  975MOL0     H28694   2.197   6.173   3.933  4.9653  0.0204  0.2949
  975MOL0     H28695   2.125   6.240   4.085 -0.0384  0.5527 -1.0370
  975MOL0     H28696   2.133   5.977   3.949 -1.7235  0.5569 -1.7899
  975MOL0     H28697   2.110   5.971   4.123 -0.4674  2.7364  1.1949
  975MOL0     H28698   1.719   6.065   3.987  1.0851  1.2353  1.9473
  975MOL0     H28699   2.783   6.091   4.234  2.8402  0.0673 -0.4217
  975MOL0     H28700   2.992   6.168   4.153 -1.3446 -2.4148  0.7618
  976MOL0     O28701   4.158   9.147   0.851 -0.2276  0.4833 -0.0893
  976MOL0     C28702   4.226   9.172   0.752 -0.4175  0.0871  0.5634
  976MOL0     O28703   4.192   9.201   0.627  0.0525 -0.7078  0.9979
  976MOL0     C28704   4.069   9.243   0.597  1.3204 -0.4488  0.5296
  976MOL0     C28705   4.022   9.200   0.472 -0.4534  0.1286 -0.3815
  976MOL0     C28706   3.901   9.248   0.420 -0.5599 -0.1697 -0.5028
  976MOL0     C28707   3.816   9.330   0.499 -0.0930 -0.3330 -0.2193
  976MOL0     O28708   3.691   9.364   0.459 -0.5976  0.6170  0.0019
  976MOL0     C28709   3.637   9.286   0.350 -0.0958  0.0450 -0.2955
  976MOL0     C28710   3.509   9.344   0.300  1.2100 -0.5462 -0.6732
  976MOL0     C28711   3.389   9.331   0.404  0.4935  0.3785 -0.0049
  976MOL0     C28712   3.266   9.410   0.350  1.2920 -0.6176 -0.1817
  976MOL0     C28713   3.153   9.416   0.460  0.3349 -0.1612 -0.4320
  976MOL0     C28714   3.053   9.540   0.462 -0.1881 -0.3678  0.6707
  976MOL0     C28715   2.949   9.531   0.353  0.6279 -1.2843 -0.4120
  976MOL0     C28716   2.872   9.668   0.339  0.1651 -0.3304  0.1389
  976MOL0     N28717   2.724   9.642   0.335  0.0204  0.5298  0.2570
  976MOL0     C28718   2.641   9.662   0.222  1.3712  0.0876 -0.2310
  976MOL0     C28719   2.515   9.626   0.257 -0.7313 -0.3910  0.7308
  976MOL0     C28720   2.390   9.628   0.173 -0.4204  0.1687 -0.0978
  976MOL0     C28721   2.278   9.704   0.240  0.0156  0.3465 -0.0174
  976MOL0     C28722   2.253   9.854   0.233 -0.6132 -0.0746  0.6643
  976MOL0     C28723   2.237   9.902   0.087  0.5303  1.1712 -0.5908
  976MOL0     O28724   2.196  10.039   0.071  0.0101  0.6725 -0.5322
  976MOL0     C28725   2.198  10.099  -0.053  0.5244  0.5401 -0.1300
  976MOL0     C28726   2.195  10.240  -0.052  1.2997  0.4948  0.0847
  976MOL0     C28727   2.193  10.315  -0.176 -0.0644 -0.0013 -0.8281
  976MOL0     C28728   2.203  10.246  -0.302  0.3013 -0.5828 -1.0089
  976MOL0     C28729   2.210  10.328  -0.427 -0.2717 -0.1497  0.6191
  976MOL0     O28730   2.258  10.456  -0.408  0.4050  0.3348 -0.3522
  976MOL0     C28731   2.298  10.538  -0.507  1.3695  0.6454 -1.1279
  976MOL0     C28732   2.314  10.510  -0.642  0.4441 -0.9975  0.1940
  976MOL0     C28733   2.377  10.593  -0.729 -0.7008  0.3571 -0.3396
  976MOL0     C28734   2.443  10.703  -0.688  0.2917 -0.2852  0.2910
  976MOL0     O28735   2.528  10.761  -0.778 -1.0028  0.3801  0.1089
  976MOL0     C28736   2.623  10.861  -0.735 -0.0559 -0.1146 -0.1546
  976MOL0     C28737   2.754  10.870  -0.815  0.6850 -0.0332 -0.2598
  976MOL0     C28738   2.839  10.743  -0.806  0.6252  0.7954 -1.0781
  976MOL0     C28739   2.808  10.625  -0.902 -0.1470  0.4941 -0.1968
  976MOL0     C28740   2.906  10.505  -0.899 -1.1196 -1.0429 -0.3862
  976MOL0     C28741   2.850  10.385  -0.963  0.7807 -0.0883 -0.2324
  976MOL0     C28742   2.937  10.264  -0.926 -0.3156 -0.5344  0.0944
  976MOL0     C28743   2.896  10.141  -1.008 -0.5396 -0.1618 -0.8332
  976MOL0    Cl28744   2.742  10.061  -0.955 -0.0929 -0.4425 -0.2173
  976MOL0     C28745   2.408  10.755  -0.560 -1.2428  0.5953 -0.0005
  976MOL0     C28746   2.336  10.667  -0.473 -0.1595 -0.4797 -0.1761
  976MOL0     O28747   2.184  10.276  -0.534  0.0437  0.0195 -0.7890
  976MOL0     C28748   2.203  10.105  -0.294 -0.9560 -0.2872  0.2369
  976MOL0     C28749   2.199  10.030  -0.174  0.1503  0.0212  0.2574
  976MOL0     N28750   2.520   9.579   0.381 -0.4556 -0.5090 -0.0668
  976MOL0     N28751   2.645   9.585   0.432  0.6877 -0.0353  0.0640
  976MOL0     C28752   3.864   9.367   0.627 -0.1264  0.2297 -0.4129
  976MOL0     C28753   3.990   9.331   0.678 -0.1894  0.7838 -1.1698
  976MOL0     C28754   4.377   9.193   0.783  0.8231  0.3710  1.1291
  976MOL0     C28755   4.454   9.245   0.672 -1.5583 -0.8885  0.4926
  976MOL0     C28756   4.602   9.269   0.693 -0.8474  1.4635  0.9598
  976MOL0     C28757   4.647   9.263   0.824  1.2117  0.4690 -0.8555
  976MOL0     O28758   4.763   9.308   0.871 -0.2167 -0.2113  0.8149
  976MOL0     C28759   4.866   9.317   0.770  1.1287  0.3903  0.6845
  976MOL0     C28760   4.997   9.318   0.845  0.4160 -0.0550 -0.2883
  976MOL0     C28761   5.050   9.192   0.912 -0.2466  0.0198  0.1700
  976MOL0     C28762   5.192   9.198   0.971 -0.2974 -0.7496  0.0684
  976MOL0     C28763   5.250   9.066   0.975 -0.0171  0.4730 -0.0907
  976MOL0     C28764   5.285   8.953   0.974 -1.1138  1.2215  1.1624
  976MOL0     C28765   4.566   9.215   0.931  0.4536  1.1123  0.6303
  976MOL0     C28766   4.432   9.184   0.910 -0.5482  0.6975 -0.5156
  976MOL0     H28767   4.098   9.152   0.411 -0.2574 -0.4580  0.3146
  976MOL0     H28768   3.871   9.213   0.321 -2.9628  0.5860 -0.1061
  976MOL0     H28769   3.624   9.181   0.377  1.1038 -0.7864 -2.7195
  976MOL0     H28770   3.693   9.297   0.257 -1.2803  1.0312 -0.9296
  976MOL0     H28771   3.483   9.305   0.202  0.5451  2.2968 -1.7251
  976MOL0     H28772   3.526   9.450   0.278 -2.9133  1.6224  4.1880
  976MOL0     H28773   3.407   9.384   0.498  1.1520  1.4066 -0.6860
  976MOL0     H28774   3.369   9.225   0.421  1.3401  0.5339  2.3904
  976MOL0     H28775   3.298   9.508   0.313 -1.0010 -0.2465 -1.3817
  976MOL0     H28776   3.213   9.359   0.269  0.4068 -1.9857  1.2140
  976MOL0     H28777   3.198   9.411   0.560 -1.1250  0.8894  0.3024
  976MOL0     H28778   3.094   9.325   0.470 -0.1435  0.3789  2.7265
  976MOL0     H28779   3.105   9.636   0.463 -0.2616 -0.2854  3.1680
  976MOL0     H28780   2.999   9.533   0.557 -1.6247  3.5239  0.3158
  976MOL0     H28781   2.984   9.501   0.254 -2.0976 -1.6576 -1.3373
  976MOL0     H28782   2.877   9.452   0.373 -0.6219 -1.1265 -3.6510
  976MOL0     H28783   2.896   9.723   0.247 -1.6383 -2.7233 -1.9387
  976MOL0     H28784   2.893   9.731   0.425  3.3632 -2.2583  0.9278
  976MOL0     H28785   2.674   9.702   0.126  0.8457  0.5473 -0.2212
  976MOL0     H28786   2.371   9.521   0.162  2.4072 -0.2761 -1.7378
  976MOL0     H28787   2.413   9.657   0.070  0.7138 -5.0372 -1.6051
  976MOL0     H28788   2.266   9.673   0.344 -1.6303  0.2480 -0.2201
  976MOL0     H28789   2.182   9.666   0.206 -0.8607  1.0507  1.5349
  976MOL0     H28790   2.157   9.877   0.279 -0.6373 -1.8633  1.6133
  976MOL0     H28791   2.342   9.902   0.275  0.1798 -0.8953 -0.0370
  976MOL0     H28792   2.174   9.831   0.032 -0.3496 -0.3340  2.1590
  976MOL0     H28793   2.332   9.899   0.033  0.9607 -4.4921 -0.1684
  976MOL0     H28794   2.199  10.282   0.048 -1.1591 -2.8974  1.8233
  976MOL0     H28795   2.206  10.423  -0.178  5.1409 -0.2805  1.4708
  976MOL0     H28796   2.290  10.412  -0.683  0.7522 -0.3411 -1.6426
  976MOL0     H28797   2.389  10.556  -0.830 -2.5295 -2.1431  0.2748
  976MOL0     H28798   2.650  10.843  -0.631 -1.1338  0.1250  0.1770
  976MOL0     H28799   2.580  10.962  -0.737  2.5677  1.1375  1.4000
  976MOL0     H28800   2.810  10.961  -0.790  0.8699 -0.5955  1.5238
  976MOL0     H28801   2.729  10.893  -0.919  2.6953  1.1219 -0.5526
  976MOL0     H28802   2.834  10.702  -0.705 -0.3794 -3.0154 -2.5149
  976MOL0     H28803   2.942  10.769  -0.834  0.3982  3.6331  0.3573
  976MOL0     H28804   2.703  10.595  -0.891  0.4115 -2.8009 -2.4348
  976MOL0     H28805   2.815  10.665  -1.004  0.3241 -1.8833 -1.1702
  976MOL0     H28806   2.937  10.494  -0.795  1.3030  2.6925 -0.5533
  976MOL0     H28807   2.998  10.543  -0.944 -1.9098  0.2757 -0.9331
  976MOL0     H28808   2.854  10.401  -1.072  2.6481 -0.9212 -0.3148
  976MOL0     H28809   2.747  10.382  -0.925  0.4559 -0.4532 -1.1034
  976MOL0     H28810   3.041  10.282  -0.954  0.4512 -1.3502  2.2212
  976MOL0     H28811   2.939  10.237  -0.820 -0.9732  1.3898  0.6271
  976MOL0     H28812   2.971  10.062  -1.001  1.0722  1.1814 -2.0987
  976MOL0     H28813   2.897  10.169  -1.114  2.2518 -1.6826 -1.3126
  976MOL0     H28814   2.446  10.850  -0.524  2.6160  0.7010 -3.5390
  976MOL0     H28815   2.329  10.695  -0.368  3.2920 -2.1711  0.6461
  976MOL0     H28816   2.211  10.066  -0.395 -1.8666  0.1730 -0.0306
  976MOL0     H28817   2.204   9.922  -0.176 -0.2351 -0.0044 -2.0899
  976MOL0     H28818   3.800   9.441   0.674 -1.9850 -2.1151  0.9310
  976MOL0     H28819   4.028   9.349   0.779 -0.4234 -3.0009 -0.2496
  976MOL0     H28820   4.417   9.275   0.574  0.0046  0.7335  0.3508
  976MOL0     H28821   4.662   9.297   0.606 -2.9224  1.3208 -0.6039
  976MOL0     H28822   4.855   9.405   0.706  1.0565  0.2645  0.5217
  976MOL0     H28823   4.864   9.224   0.712  1.6837  1.0366 -0.4013
  976MOL0     H28824   5.072   9.367   0.782 -2.9419  1.2175 -3.6673
  976MOL0     H28825   4.977   9.390   0.925  0.2182 -0.9713  0.5055
  976MOL0     H28826   5.045   9.115   0.835 -1.3608  1.9451 -1.8029
  976MOL0     H28827   4.975   9.161   0.986 -0.1901  2.9889  1.6597
  976MOL0     H28828   5.261   9.271   0.928 -2.9698  1.8784 -0.0624
  976MOL0     H28829   5.178   9.240   1.071  2.0754  1.6753 -0.4994
  976MOL0     H28830   5.291   8.847   0.986 -1.8596  0.7162 -2.0300
  976MOL0     H28831   4.616   9.209   1.027 -2.7631  1.7515  2.5290
  976MOL0     H28832   4.361   9.174   0.992 -0.7429  0.9566 -0.6484
  977MOL0     O28833   5.084   6.969   8.894  0.7468 -0.2385  0.6319
  977MOL0     C28834   5.152   6.867   8.909  0.1903  1.0165  0.2344
  977MOL0     O28835   5.210   6.801   8.804  0.1611  0.3867 -0.3839
  977MOL0     C28836   5.180   6.839   8.672 -0.0529 -0.6849 -0.0269
  977MOL0     C28837   5.154   6.963   8.614  0.7510  0.4094 -0.5967
  977MOL0     C28838   5.122   6.976   8.478  0.6467 -0.3209 -0.5574
  977MOL0     C28839   5.123   6.869   8.395  0.2692 -0.7214 -0.0061
  977MOL0     O28840   5.076   6.875   8.266 -0.8302 -0.1303 -0.0217
  977MOL0     C28841   5.102   6.977   8.182 -0.8039 -1.1720  0.0603
  977MOL0     C28842   5.088   6.943   8.030  0.2166 -0.1029  0.5856
  977MOL0     C28843   5.184   7.025   7.941  1.1507 -0.2852  0.4410
  977MOL0     C28844   5.164   6.983   7.794 -0.5075  0.0372 -1.0875
  977MOL0     C28845   5.208   7.089   7.690  0.7508  0.5861 -0.4950
  977MOL0     C28846   5.122   7.224   7.705 -0.1730  0.0213 -0.2790
  977MOL0     C28847   5.125   7.309   7.574 -0.3138  0.0005 -0.4694
  977MOL0     C28848   5.262   7.323   7.506  0.4301  0.6453  0.5275
  977MOL0     N28849   5.253   7.424   7.396  0.1507  0.5737 -0.3287
  977MOL0     C28850   5.183   7.427   7.281 -0.1875  1.0402 -0.0041
  977MOL0     C28851   5.198   7.552   7.237 -0.9302  0.0071  0.0439
  977MOL0     C28852   5.149   7.617   7.113 -1.1749 -0.0045 -0.4616
  977MOL0     C28853   5.030   7.701   7.110  0.2343 -0.1014 -0.3998
  977MOL0     C28854   4.902   7.638   7.168  0.3426  0.2298 -0.6939
  977MOL0     C28855   4.859   7.520   7.075 -0.7547 -1.7406  0.8284
  977MOL0     O28856   4.914   7.396   7.114 -0.7252 -0.5410  0.1160
  977MOL0     C28857   4.843   7.285   7.075 -1.1366  0.2800 -0.8727
  977MOL0     C28858   4.706   7.277   7.058  0.1422  0.4095  0.1839
  977MOL0     C28859   4.645   7.150   7.050 -0.4707 -0.3704  0.0386
  977MOL0     C28860   4.722   7.031   7.052  0.7442 -0.7782  0.7815
  977MOL0     C28861   4.653   6.898   7.030  1.2829 -0.7665 -0.8664
  977MOL0     O28862   4.713   6.785   7.071 -0.4853  0.7734  0.3969
  977MOL0     C28863   4.650   6.663   7.042 -0.4260  0.0354 -0.0282
  977MOL0     C28864   4.507   6.638   7.052 -0.4948  0.4751  0.0302
  977MOL0     C28865   4.464   6.513   7.016  0.5375  0.1341 -0.3803
  977MOL0     C28866   4.535   6.403   6.981 -0.6730 -0.5143 -0.2287
  977MOL0     O28867   4.472   6.280   6.956 -0.1810 -0.0070  0.1022
  977MOL0     C28868   4.523   6.168   6.877 -1.0325  0.3939  0.1802
  977MOL0     C28869   4.421   6.059   6.839  0.6006 -0.2268 -0.1141
  977MOL0     C28870   4.324   6.092   6.723  0.0270 -1.0455 -0.3886
  977MOL0     C28871   4.200   5.993   6.698  0.0314 -0.1447 -0.3643
  977MOL0     C28872   4.229   5.847   6.693  0.6057 -0.2812  0.5510
  977MOL0     C28873   4.322   5.818   6.572  0.0142 -1.1940 -0.2600
  977MOL0     C28874   4.325   5.675   6.537 -0.5087  0.5502 -0.3923
  977MOL0     C28875   4.326   5.652   6.383  0.2096 -0.9616 -0.9416
  977MOL0    Cl28876   4.322   5.469   6.344  0.0563  0.2131  0.0006
  977MOL0     C28877   4.676   6.433   6.970 -0.4913 -0.0689 -0.1340
  977MOL0     C28878   4.735   6.562   7.002  0.5726  0.5719  1.1484
  977MOL0     O28879   4.542   6.910   6.974 -0.2538 -0.8250 -0.5404
  977MOL0     C28880   4.863   7.046   7.079  0.7503 -0.0426  0.7497
  977MOL0     C28881   4.921   7.170   7.078 -0.3254  0.0505 -0.3881
  977MOL0     N28882   5.253   7.629   7.330  0.0651  0.7011  0.0644
  977MOL0     N28883   5.292   7.548   7.422 -0.0184 -0.4662  0.8827
  977MOL0     C28884   5.149   6.745   8.453 -0.8060  0.2694  0.3186
  977MOL0     C28885   5.190   6.733   8.587 -0.0082  0.3403 -0.4113
  977MOL0     C28886   5.196   6.814   9.034  1.4413  0.1673  0.0740
  977MOL0     C28887   5.238   6.903   9.131 -0.0128 -0.9471  0.0193
  977MOL0     C28888   5.289   6.850   9.249 -0.3377 -0.0111 -0.6836
  977MOL0     C28889   5.306   6.715   9.279  0.2496  0.0267 -0.3782
  977MOL0     O28890   5.368   6.684   9.395 -0.0409 -0.5128 -0.1805
  977MOL0     C28891   5.433   6.557   9.400 -1.0761  0.4563  0.2940
  977MOL0     C28892   5.498   6.537   9.541 -0.8666 -0.8519  0.1313
  977MOL0     C28893   5.406   6.474   9.644  0.9114 -0.3161 -0.4501
  977MOL0     C28894   5.465   6.488   9.783 -0.0612  0.1556  0.1583
  977MOL0     C28895   5.434   6.362   9.852 -0.6137  0.2527  0.1590
  977MOL0     C28896   5.410   6.251   9.890  0.0437 -0.5906  0.2095
  977MOL0     C28897   5.251   6.628   9.188  0.7173 -0.4740  0.3782
  977MOL0     C28898   5.184   6.677   9.074  0.4156  0.5260  1.0962
  977MOL0     H28899   5.148   7.050   8.677  1.4648 -0.5955  0.8982
  977MOL0     H28900   5.095   7.076   8.444  3.0925  0.1559 -1.3406
  977MOL0     H28901   5.207   7.005   8.197 -1.0620  1.6280 -2.4539
  977MOL0     H28902   5.041   7.063   8.209  0.7685  0.5057 -1.4420
  977MOL0     H28903   4.985   6.959   7.995 -0.1192 -4.6271 -1.2241
  977MOL0     H28904   5.106   6.839   8.002 -1.8096  0.0629 -1.7367
  977MOL0     H28905   5.289   7.015   7.972  0.7579  0.6145  2.1703
  977MOL0     H28906   5.158   7.131   7.939 -2.5870 -1.0957 -1.2254
  977MOL0     H28907   5.226   6.894   7.775 -1.0539 -0.3184 -1.2185
  977MOL0     H28908   5.059   6.958   7.781 -1.0722  0.2932  2.1284
  977MOL0     H28909   5.191   7.036   7.596 -2.7660 -2.0977  1.3670
  977MOL0     H28910   5.314   7.108   7.704  0.6760 -0.4128  2.0420
  977MOL0     H28911   5.156   7.277   7.794 -2.0185 -0.3985  0.7277
  977MOL0     H28912   5.015   7.215   7.723  0.1190  0.3890  1.8817
  977MOL0     H28913   5.052   7.269   7.502 -0.8417 -0.9516  0.5504
  977MOL0     H28914   5.097   7.414   7.589 -0.8109  0.0327 -1.5137
  977MOL0     H28915   5.276   7.225   7.460 -1.8945  1.6107 -2.6401
  977MOL0     H28916   5.335   7.346   7.584  0.2673  1.0224  0.5727
  977MOL0     H28917   5.130   7.348   7.230  1.3799  0.5845 -0.9870
  977MOL0     H28918   5.130   7.540   7.037 -3.9645 -2.5856  2.5928
  977MOL0     H28919   5.241   7.669   7.082  0.0650 -0.4626  2.1596
  977MOL0     H28920   5.009   7.720   7.004  1.2304  4.5174 -0.0126
  977MOL0     H28921   5.048   7.794   7.165 -2.6971 -1.8155  3.9951
  977MOL0     H28922   4.916   7.602   7.270  2.5404  0.7641 -0.7521
  977MOL0     H28923   4.817   7.706   7.163 -1.5034 -1.8223  0.8910
  977MOL0     H28924   4.893   7.545   6.974 -1.8985  1.0069  1.0359
  977MOL0     H28925   4.750   7.516   7.078 -0.9099  0.8413  3.6514
  977MOL0     H28926   4.637   7.361   7.059 -1.4296 -0.7987  2.5686
  977MOL0     H28927   4.538   7.147   7.032 -0.5872  0.4090  0.5401
  977MOL0     H28928   4.434   6.715   7.075 -1.7501 -0.5623 -0.3858
  977MOL0     H28929   4.356   6.506   7.022  0.5073  0.7863 -0.1282
  977MOL0     H28930   4.601   6.122   6.938 -1.0939  1.6745  1.2441
  977MOL0     H28931   4.567   6.202   6.783 -2.5848 -1.6360 -1.3828
  977MOL0     H28932   4.356   6.026   6.920 -0.1403  0.1447 -0.5451
  977MOL0     H28933   4.474   5.971   6.801 -0.1927 -1.0482  0.6281
  977MOL0     H28934   4.396   6.097   6.642  2.4540 -2.4904  1.5430
  977MOL0     H28935   4.281   6.190   6.749 -0.7900 -1.3601 -0.5058
  977MOL0     H28936   4.133   6.019   6.781  0.3164 -0.9085  0.1149
  977MOL0     H28937   4.151   6.019   6.603  0.3620  1.6517 -0.0613
  977MOL0     H28938   4.135   5.793   6.686  1.2043 -1.8500  3.1708
  977MOL0     H28939   4.271   5.816   6.789 -0.1330 -1.2058  0.5835
  977MOL0     H28940   4.423   5.844   6.606 -0.7724  0.0218  1.2556
  977MOL0     H28941   4.296   5.881   6.486  1.4469  1.1933  0.9679
  977MOL0     H28942   4.419   5.633   6.575 -0.0242  1.6922 -0.2973
  977MOL0     H28943   4.248   5.616   6.588  0.4736  0.0129  0.4991
  977MOL0     H28944   4.415   5.700   6.341  0.3420 -1.4255 -1.1903
  977MOL0     H28945   4.236   5.700   6.343  1.4199  3.4319  0.9370
  977MOL0     H28946   4.741   6.364   6.917 -0.0946 -2.2686  2.9589
  977MOL0     H28947   4.838   6.577   6.969  0.4506  0.2734  0.6199
  977MOL0     H28948   4.921   6.955   7.091  1.6372 -0.2369 -3.4084
  977MOL0     H28949   5.028   7.168   7.097  0.0269 -0.3106 -2.2200
  977MOL0     H28950   5.153   6.667   8.379  2.1702 -0.1262  0.7772
  977MOL0     H28951   5.211   6.640   8.639 -0.9857  0.9072  1.0583
  977MOL0     H28952   5.235   7.007   9.103 -0.4213 -1.9415 -4.3750
  977MOL0     H28953   5.324   6.924   9.320 -3.5360  2.2444 -1.2675
  977MOL0     H28954   5.512   6.547   9.325 -1.2800  0.7242  0.0386
  977MOL0     H28955   5.362   6.473   9.400 -0.0711 -0.5345  3.1630
  977MOL0     H28956   5.588   6.475   9.535 -2.4819 -3.3632  0.7063
  977MOL0     H28957   5.518   6.638   9.578 -3.4555  0.0832 -0.7869
  977MOL0     H28958   5.389   6.369   9.620 -1.3990 -0.4241  1.3676
  977MOL0     H28959   5.309   6.522   9.634  1.6182  1.0552 -1.1518
  977MOL0     H28960   5.574   6.500   9.789 -0.3763  3.5667  2.1216
  977MOL0     H28961   5.432   6.582   9.830  0.5351 -0.3247  1.5973
  977MOL0     H28962   5.392   6.155   9.934  1.6755 -1.1622 -0.2937
  977MOL0     H28963   5.265   6.523   9.214 -0.2500 -1.1748 -1.7094
  977MOL0     H28964   5.134   6.608   9.006  0.5773  0.7751  0.7199
  978MOL0     O28965   0.295  10.752  10.674 -0.3700  0.1795  0.0404
  978MOL0     C28966   0.283  10.806  10.560  0.5437  0.2373  0.8944
  978MOL0     O28967   0.383  10.866  10.496 -0.2568 -0.7602  0.6306
  978MOL0     C28968   0.510  10.867  10.547 -0.7992 -0.6375 -0.4047
  978MOL0     C28969   0.580  10.757  10.588 -0.0176  0.1050 -0.2919
  978MOL0     C28970   0.713  10.763  10.622 -0.2016 -0.7866 -0.1084
  978MOL0     C28971   0.781  10.884  10.624 -0.3625  0.6099  0.2639
  978MOL0     O28972   0.903  10.886  10.688  0.1171  0.8767 -0.1774
  978MOL0     C28973   0.920  11.001  10.782 -0.2046  0.8714  0.1958
  978MOL0     C28974   1.049  10.997  10.869 -0.0023 -0.3980  0.4912
  978MOL0     C28975   1.026  10.873  10.974 -0.5832 -0.0215  0.0245
  978MOL0     C28976   1.130  10.888  11.085 -0.5747 -0.5688 -0.7518
  978MOL0     C28977   1.119  10.799  11.211 -0.7945 -0.3075  0.0804
  978MOL0     C28978   1.008  10.851  11.302 -0.3303  0.1491  0.1896
  978MOL0     C28979   0.988  10.766  11.427  0.1302 -0.0004  0.3067
  978MOL0     C28980   0.887  10.826  11.516 -0.1798  0.6097  0.2684
  978MOL0     N28981   0.932  10.952  11.582 -0.1137 -0.4965  0.3271
  978MOL0     C28982   1.046  10.974  11.659  0.5198  0.3970  0.8129
  978MOL0     C28983   1.062  11.109  11.665  0.0166  0.8480  0.2013
  978MOL0     C28984   1.170  11.165  11.755 -0.4743 -0.1464 -0.2065
  978MOL0     C28985   1.288  11.213  11.673  0.4610 -0.0793 -0.9701
  978MOL0     C28986   1.383  11.096  11.636 -1.0671 -0.3043 -1.0684
  978MOL0     C28987   1.447  11.019  11.758  0.0876  0.1360  0.2538
  978MOL0     O28988   1.373  10.916  11.823  0.5807  0.9900  0.4220
  978MOL0     C28989   1.334  10.801  11.751  0.5212  0.3479 -0.4091
  978MOL0     C28990   1.274  10.691  11.817 -0.9233 -0.4833 -0.7720
  978MOL0     C28991   1.251  10.570  11.761 -0.1438 -0.4762  0.5636
  978MOL0     C28992   1.279  10.545  11.625 -0.9179  0.2272  0.0878
  978MOL0     C28993   1.267  10.412  11.561 -1.0887  0.2100 -0.4906
  978MOL0     O28994   1.191  10.322  11.629  0.2995 -0.1703  0.2747
  978MOL0     C28995   1.145  10.206  11.579  0.3509 -0.5195  0.0976
  978MOL0     C28996   1.202  10.132  11.476 -0.4394 -0.3584 -0.2279
  978MOL0     C28997   1.145  10.013  11.424  0.0035 -0.1392 -0.3663
  978MOL0     C28998   1.033   9.960  11.488 -0.1351  0.8716 -0.1335
  978MOL0     O28999   0.980   9.847  11.437 -0.0775  0.3141  0.5302
  978MOL0     C29000   1.035   9.734  11.517 -1.0055  0.0559 -0.2091
  978MOL0     C29001   0.916   9.676  11.610 -0.2500 -1.1355  0.5252
  978MOL0     C29002   0.813   9.601  11.523  0.3778  0.1594  0.7715
  978MOL0     C29003   0.875   9.482  11.445  0.5596  0.3757  0.1772
  978MOL0     C29004   0.775   9.399  11.355 -0.3125  0.3787  0.4007
  978MOL0     C29005   0.665   9.324  11.426 -1.8191 -1.0655 -0.3824
  978MOL0     C29006   0.568   9.270  11.327 -0.3996  0.6461 -1.1043
  978MOL0     C29007   0.627   9.160  11.236 -0.3052  0.5333 -0.3313
  978MOL0    Cl29008   0.695   9.015  11.319 -0.0417 -0.1063 -0.3718
  978MOL0     C29009   0.968  10.035  11.585  0.3000  0.6138 -0.3276
  978MOL0     C29010   1.032  10.150  11.644 -0.6270  0.3003  0.8412
  978MOL0     O29011   1.304  10.397  11.446 -0.4778 -0.5192  0.2445
  978MOL0     C29012   1.338  10.655  11.555  1.0027  0.8194 -0.5248
  978MOL0     C29013   1.365  10.777  11.615 -0.2748  0.6938  0.4612
  978MOL0     N29014   0.964  11.175  11.589 -1.5320  0.1026 -0.1969
  978MOL0     N29015   0.891  11.075  11.542 -0.9671  0.6341 -0.3927
  978MOL0     C29016   0.717  11.001  10.581 -0.8013 -0.6118  0.5037
  978MOL0     C29017   0.586  10.984  10.528  0.3647 -0.1255  0.4180
  978MOL0     C29018   0.151  10.784  10.483 -0.2622  0.3602 -0.2319
  978MOL0     C29019   0.053  10.718  10.552 -0.1577  0.0509  0.1365
  978MOL0     C29020  -0.072  10.684  10.495  0.4949  0.0569  0.5759
  978MOL0     C29021  -0.094  10.714  10.357  0.0398  1.2600  0.2635
  978MOL0     O29022  -0.211  10.711  10.292 -0.4444  0.5378  0.7410
  978MOL0     C29023  -0.330  10.688  10.372 -0.3439 -0.4408  0.6823
  978MOL0     C29024  -0.450  10.672  10.280  0.6030  0.5341  0.2116
  978MOL0     C29025  -0.569  10.645  10.362 -0.3556  0.0138 -0.5367
  978MOL0     C29026  -0.692  10.704  10.304  0.4644  0.2549  0.4722
  978MOL0     C29027  -0.805  10.635  10.371 -0.1394 -0.0827  0.4981
  978MOL0     C29028  -0.894  10.573  10.434 -0.9780 -0.3760  0.8617
  978MOL0     C29029   0.017  10.759  10.280  0.7604  0.3599 -0.1418
  978MOL0     C29030   0.135  10.807  10.344  0.1080  0.1800 -0.0541
  978MOL0     H29031   0.528  10.662  10.593 -0.1644  0.2453  2.4117
  978MOL0     H29032   0.777  10.678  10.644 -0.0689 -0.8864 -0.8347
  978MOL0     H29033   0.836  11.003  10.852 -0.9393 -0.4980 -0.6186
  978MOL0     H29034   0.918  11.090  10.718  2.0736 -0.6368 -2.1988
  978MOL0     H29035   1.071  11.087  10.927 -0.6911 -0.2191  0.4788
  978MOL0     H29036   1.125  10.979  10.793 -0.3847  0.1699 -0.0329
  978MOL0     H29037   1.046  10.778  10.923  0.0911  1.0904 -1.8994
  978MOL0     H29038   0.925  10.866  11.015  0.0799 -0.8643  1.5668
  978MOL0     H29039   1.231  10.869  11.048 -0.8239 -1.7102 -0.8994
  978MOL0     H29040   1.142  10.985  11.133 -0.8621 -2.7836  4.5152
  978MOL0     H29041   1.215  10.788  11.261  0.2408 -2.9725 -2.2050
  978MOL0     H29042   1.086  10.699  11.180  1.3432 -0.4018 -2.1250
  978MOL0     H29043   0.910  10.860  11.254  0.1500  1.3158 -0.6148
  978MOL0     H29044   1.030  10.956  11.323  1.5502  0.5661 -3.0675
  978MOL0     H29045   0.932  10.675  11.406 -0.6472  0.6635 -0.6160
  978MOL0     H29046   1.084  10.755  11.478 -0.3550 -1.7422  0.9212
  978MOL0     H29047   0.871  10.753  11.596 -0.8748 -1.5686 -1.7575
  978MOL0     H29048   0.792  10.836  11.465 -0.0381  2.5395  0.3207
  978MOL0     H29049   1.102  10.898  11.713  1.3396 -1.7334 -2.7384
  978MOL0     H29050   1.206  11.085  11.821  0.8072  0.2550 -0.3972
  978MOL0     H29051   1.124  11.246  11.813  1.3976  1.7710 -1.2878
  978MOL0     H29052   1.359  11.269  11.734 -0.1439 -0.2732 -0.0815
  978MOL0     H29053   1.267  11.255  11.574  4.2617 -1.2960 -2.4808
  978MOL0     H29054   1.349  11.021  11.564 -0.6051 -2.4535  0.8438
  978MOL0     H29055   1.472  11.148  11.599 -2.6127  2.4575 -1.1697
  978MOL0     H29056   1.475  11.089  11.838  0.4130 -1.0341  1.1982
  978MOL0     H29057   1.552  10.993  11.738  0.0158 -0.6057  0.7711
  978MOL0     H29058   1.244  10.707  11.921 -0.8243 -1.0507 -0.6504
  978MOL0     H29059   1.219  10.489  11.827 -0.5734 -0.2687  0.6144
  978MOL0     H29060   1.280  10.165  11.408 -0.9439 -0.2443 -0.7656
  978MOL0     H29061   1.188   9.954  11.344  1.8586  2.3749 -1.3380
  978MOL0     H29062   1.117   9.761  11.585 -1.5100  0.8642  0.0857
  978MOL0     H29063   1.094   9.669  11.451 -3.0994  0.0320 -2.1735
  978MOL0     H29064   0.852   9.757  11.646 -1.5516 -1.5303 -0.7929
  978MOL0     H29065   0.957   9.607  11.684 -0.9968 -0.1409  1.9076
  978MOL0     H29066   0.774   9.656  11.437  1.5357  1.1580  0.8439
  978MOL0     H29067   0.735   9.566  11.591  2.1983 -0.7399  2.4970
  978MOL0     H29068   0.954   9.507  11.374  1.7007 -1.8749  0.5443
  978MOL0     H29069   0.921   9.411  11.514  0.4399  2.9332  3.0958
  978MOL0     H29070   0.840   9.336  11.294 -1.5974 -2.7540  2.0590
  978MOL0     H29071   0.722   9.468  11.288 -0.2698 -0.0184 -0.0459
  978MOL0     H29072   0.611   9.392  11.493  1.3149  2.4747 -1.1794
  978MOL0     H29073   0.713   9.248  11.489  3.5509  2.8231  0.9495
  978MOL0     H29074   0.484   9.223  11.379  2.4685 -3.3736  0.4765
  978MOL0     H29075   0.528   9.355  11.272 -1.6375  0.2441 -0.8563
  978MOL0     H29076   0.703   9.190  11.163  0.2072 -0.3182 -0.1591
  978MOL0     H29077   0.555   9.127  11.161  1.1187  2.4484 -2.6691
  978MOL0     H29078   0.875   9.996  11.625  0.6178 -2.2908 -2.1581
  978MOL0     H29079   0.994  10.209  11.727 -1.4299 -0.4772  1.0437
  978MOL0     H29080   1.362  10.636  11.451 -0.0134 -2.3346 -0.2925
  978MOL0     H29081   1.437  10.833  11.557 -0.6989 -1.7256 -2.6740
  978MOL0     H29082   0.769  11.096  10.568 -0.3771 -0.9137 -0.0213
  978MOL0     H29083   0.552  11.075  10.479  0.7004  0.1346  0.6765
  978MOL0     H29084   0.061  10.702  10.659 -1.6618  0.7346  0.3849
  978MOL0     H29085  -0.144  10.631  10.557  1.9925 -3.0998 -0.1967
  978MOL0     H29086  -0.339  10.774  10.440  0.7637  1.2607 -1.1981
  978MOL0     H29087  -0.325  10.592  10.425 -0.3467  0.0947  1.6818
  978MOL0     H29088  -0.472  10.766  10.228  1.4148  0.1689 -0.8308
  978MOL0     H29089  -0.439  10.588  10.210 -1.1207 -0.7819  1.4285
  978MOL0     H29090  -0.550  10.695  10.457 -3.4448  0.4701 -0.0415
  978MOL0     H29091  -0.586  10.538  10.377 -2.0367  0.3029 -0.1451
  978MOL0     H29092  -0.700  10.810  10.332 -0.8747 -0.0560  1.3936
  978MOL0     H29093  -0.688  10.684  10.197  1.6208 -2.6439  0.9558
  978MOL0     H29094  -0.965  10.528  10.501  0.9995 -3.0615  1.3463
  978MOL0     H29095  -0.005  10.766  10.174 -0.5941  1.5737  0.1860
  978MOL0     H29096   0.214  10.854  10.285  0.7922  0.0058  0.7030
  979MOL0     O29097   5.237   2.900   7.826  0.1637 -0.7714  1.4612
  979MOL0     C29098   5.352   2.936   7.855  0.1502  0.5631  0.1005
  979MOL0     O29099   5.458   2.915   7.779 -0.2074 -0.4866 -0.3631
  979MOL0     C29100   5.461   2.805   7.698  0.6076  0.4027 -0.0848
  979MOL0     C29101   5.517   2.824   7.572 -0.1104  0.7901  0.2073
  979MOL0     C29102   5.535   2.712   7.487  0.0313  0.4768 -0.9273
  979MOL0     C29103   5.489   2.584   7.531  0.1989 -1.1710 -0.4179
  979MOL0     O29104   5.504   2.477   7.448 -0.8084  1.1357  1.3133
  979MOL0     C29105   5.397   2.375   7.450 -0.9300  1.1244 -0.5920
  979MOL0     C29106   5.410   2.286   7.325  0.2608 -0.5113  0.0654
  979MOL0     C29107   5.365   2.360   7.191 -0.2896  0.2348  0.3580
  979MOL0     C29108   5.489   2.452   7.141  0.5313  0.1914 -0.6973
  979MOL0     C29109   5.489   2.451   6.981  0.2755 -0.1531  0.5586
  979MOL0     C29110   5.625   2.523   6.940 -0.1323  0.4223 -0.3184
  979MOL0     C29111   5.642   2.514   6.792 -0.3979  0.0885  1.2785
  979MOL0     C29112   5.696   2.383   6.727 -0.6210  0.6948 -0.2085
  979MOL0     N29113   5.781   2.414   6.599 -0.0494 -0.0014  0.1903
  979MOL0     C29114   5.756   2.506   6.500 -0.1745 -0.4799 -0.7846
  979MOL0     C29115   5.861   2.495   6.419 -0.6728 -0.0443 -0.1836
  979MOL0     C29116   5.898   2.581   6.293 -0.1271 -0.2902  0.5172
  979MOL0     C29117   5.778   2.672   6.250 -0.2266  0.0212 -0.0062
  979MOL0     C29118   5.836   2.762   6.145  0.2223  0.2454 -0.0781
  979MOL0     C29119   5.736   2.846   6.076 -0.9785  0.7194  0.2287
  979MOL0     O29120   5.695   2.759   5.969 -0.2030  0.2576 -0.1078
  979MOL0     C29121   5.639   2.827   5.869  0.4165  1.1202 -0.0326
  979MOL0     C29122   5.633   2.750   5.749  0.1198  0.2583 -0.0203
  979MOL0     C29123   5.562   2.786   5.631  1.1050  1.0837  0.4464
  979MOL0     C29124   5.485   2.903   5.629 -0.9786 -0.8038  1.1979
  979MOL0     C29125   5.404   2.941   5.502 -1.0721  0.1567  0.4845
  979MOL0     O29126   5.436   2.882   5.385 -0.7652 -0.0393  0.5189
  979MOL0     C29127   5.376   2.912   5.265 -0.7018 -0.3143  0.5715
  979MOL0     C29128   5.331   3.039   5.225 -0.5579  0.6607  0.0095
  979MOL0     C29129   5.279   3.059   5.099  0.0288  0.5516  0.2827
  979MOL0     C29130   5.269   2.950   5.010  0.8847  0.3675 -0.6005
  979MOL0     O29131   5.219   2.987   4.892 -0.2417  1.1975  0.4753
  979MOL0     C29132   5.194   2.876   4.799  0.7601  0.3128 -0.3552
  979MOL0     C29133   5.233   2.916   4.656  0.4566  0.2748 -0.1188
  979MOL0     C29134   5.286   2.796   4.577 -0.4523  0.6234  0.5164
  979MOL0     C29135   5.341   2.841   4.446  0.8241  0.1538  0.0186
  979MOL0     C29136   5.377   2.736   4.346  0.1815  0.2834 -0.5437
  979MOL0     C29137   5.470   2.793   4.231  0.2594  0.7080  0.3541
  979MOL0     C29138   5.472   2.696   4.120  0.8381  0.2136  0.8051
  979MOL0     C29139   5.543   2.565   4.151  1.0959 -0.0637 -0.6178
  979MOL0    Cl29140   5.719   2.581   4.146 -0.0614  0.0858  0.1473
  979MOL0     C29141   5.322   2.822   5.047  0.1564 -0.3576  0.4901
  979MOL0     C29142   5.382   2.804   5.172 -0.2948  0.6847  0.2437
  979MOL0     O29143   5.330   3.036   5.514 -0.4507 -0.5094  0.0331
  979MOL0     C29144   5.497   2.988   5.746  0.2945  0.2820 -0.4915
  979MOL0     C29145   5.572   2.953   5.862 -0.5977  0.8201  0.5372
  979MOL0     N29146   5.947   2.393   6.464 -0.5694 -0.9258  0.7363
  979MOL0     N29147   5.894   2.346   6.569  0.1429  0.4155  0.5667
  979MOL0     C29148   5.437   2.571   7.661 -0.1027 -0.1746  1.2373
  979MOL0     C29149   5.415   2.681   7.746  0.0795 -0.7230  0.1718
  979MOL0     C29150   5.366   3.019   7.973  0.2828 -0.2808  0.2808
  979MOL0     C29151   5.490   3.032   8.043 -0.9672 -0.7435 -0.1795
  979MOL0     C29152   5.502   3.126   8.150  0.7020  0.2545  0.1754
  979MOL0     C29153   5.391   3.205   8.178  0.5337  0.3182 -0.1838
  979MOL0     O29154   5.394   3.295   8.279  1.0879 -0.3794 -0.2827
  979MOL0     C29155   5.510   3.369   8.297 -0.2631  0.6230 -0.9417
  979MOL0     C29156   5.496   3.498   8.204  0.2128 -1.0611 -0.5712
  979MOL0     C29157   5.625   3.576   8.184 -0.0920 -0.4361  0.0815
  979MOL0     C29158   5.619   3.718   8.133  0.3829  0.6365  0.8963
  979MOL0     C29159   5.749   3.775   8.108  0.5905 -0.7820 -0.5103
  979MOL0     C29160   5.868   3.813   8.094  0.0405  0.5734 -0.2789
  979MOL0     C29161   5.268   3.181   8.124  0.7767 -0.1040  0.5384
  979MOL0     C29162   5.253   3.088   8.019 -0.0264  0.2943 -0.6380
  979MOL0     H29163   5.560   2.919   7.544  2.7329 -0.8910 -1.6618
  979MOL0     H29164   5.586   2.717   7.392  0.0586 -1.9298 -1.0957
  979MOL0     H29165   5.301   2.427   7.457 -1.3363  0.2965  0.0616
  979MOL0     H29166   5.413   2.303   7.530  0.2761 -0.6197 -2.2964
  979MOL0     H29167   5.338   2.204   7.337 -1.9035  1.6736  3.6398
  979MOL0     H29168   5.508   2.237   7.324 -0.3169 -2.2763  4.5545
  979MOL0     H29169   5.267   2.408   7.205 -3.4931 -5.4240  0.6560
  979MOL0     H29170   5.340   2.282   7.118 -2.9670 -0.7349  2.1581
  979MOL0     H29171   5.470   2.546   7.193  2.0687 -0.1539  0.5701
  979MOL0     H29172   5.582   2.416   7.187  0.0726 -1.2520 -0.8316
  979MOL0     H29173   5.403   2.508   6.945 -1.0618 -3.2649 -1.5631
  979MOL0     H29174   5.490   2.353   6.933  0.0176 -0.5016  1.2459
  979MOL0     H29175   5.710   2.487   6.999  1.3429  3.7747 -0.2041
  979MOL0     H29176   5.618   2.626   6.975  0.4227  0.4619 -0.3137
  979MOL0     H29177   5.552   2.550   6.741 -0.2654  0.5700  1.3753
  979MOL0     H29178   5.722   2.587   6.775  0.1275 -0.8204 -0.4316
  979MOL0     H29179   5.598   2.348   6.695 -2.1597  3.6677  0.8680
  979MOL0     H29180   5.748   2.315   6.795  0.0613  2.5097  1.1629
  979MOL0     H29181   5.671   2.573   6.502  0.7971  0.8619 -2.2110
  979MOL0     H29182   5.925   2.508   6.217  0.8159 -0.3073  0.8565
  979MOL0     H29183   5.991   2.638   6.305  1.1187 -2.1912  0.4122
  979MOL0     H29184   5.751   2.739   6.333  1.4623  2.6378 -1.4263
  979MOL0     H29185   5.697   2.607   6.214  0.6649 -1.3877  0.4457
  979MOL0     H29186   5.910   2.830   6.188  1.5759  0.1979 -2.1806
  979MOL0     H29187   5.879   2.694   6.071 -0.2796 -1.4022  1.0772
  979MOL0     H29188   5.784   2.940   6.047 -1.5582  1.4043  1.4081
  979MOL0     H29189   5.649   2.857   6.141 -0.1083 -2.3462  2.1376
  979MOL0     H29190   5.660   2.645   5.759  0.0414  0.3905  1.8794
  979MOL0     H29191   5.562   2.731   5.537 -0.2857  0.3383  0.8499
  979MOL0     H29192   5.331   3.123   5.293 -2.1987  0.4715  0.2997
  979MOL0     H29193   5.245   3.157   5.067 -1.2846 -0.1962 -0.6966
  979MOL0     H29194   5.088   2.847   4.799  0.5780  0.9489 -0.0322
  979MOL0     H29195   5.252   2.785   4.814  0.1582 -0.2404 -1.2862
  979MOL0     H29196   5.313   2.990   4.669 -1.5117  2.3332  1.2010
  979MOL0     H29197   5.151   2.956   4.596  1.1391 -0.0983 -1.3124
  979MOL0     H29198   5.200   2.729   4.572 -0.2421  0.3295  0.8349
  979MOL0     H29199   5.363   2.740   4.631 -0.1614  0.3263 -0.1807
  979MOL0     H29200   5.266   2.908   4.403 -1.0253 -2.2809 -0.8005
  979MOL0     H29201   5.436   2.892   4.462 -0.6110  2.6648  1.2563
  979MOL0     H29202   5.283   2.694   4.309  0.8426 -2.3772  0.5467
  979MOL0     H29203   5.435   2.655   4.392 -2.1974 -1.4799 -0.4877
  979MOL0     H29204   5.570   2.811   4.271  0.4197 -0.6211  0.5930
  979MOL0     H29205   5.423   2.881   4.186 -1.0119  0.1391  0.5215
  979MOL0     H29206   5.367   2.693   4.090  0.8009  2.9635  0.4409
  979MOL0     H29207   5.518   2.752   4.038  0.3841 -1.0058 -0.3214
  979MOL0     H29208   5.516   2.497   4.069  1.8889 -0.7077 -0.3661
  979MOL0     H29209   5.498   2.525   4.243  1.5440  1.2091  0.1770
  979MOL0     H29210   5.308   2.735   4.985 -1.8655 -1.2875  2.0980
  979MOL0     H29211   5.418   2.704   5.190 -1.8950 -1.2278 -5.1893
  979MOL0     H29212   5.446   3.084   5.744 -2.4385 -0.9321  2.5613
  979MOL0     H29213   5.583   3.009   5.955 -2.2721  0.3711  1.0470
  979MOL0     H29214   5.411   2.469   7.689  4.0820 -2.4492 -2.0931
  979MOL0     H29215   5.377   2.667   7.847  1.1380 -1.3399  0.5062
  979MOL0     H29216   5.578   2.975   8.019  0.1632  1.0952 -0.5981
  979MOL0     H29217   5.590   3.131   8.213  2.5062  0.4061 -2.2067
  979MOL0     H29218   5.603   3.314   8.283 -1.3751 -1.4305 -0.7698
  979MOL0     H29219   5.525   3.381   8.405  0.2591 -1.3745 -0.7552
  979MOL0     H29220   5.471   3.444   8.112 -0.5300 -0.8538 -0.4943
  979MOL0     H29221   5.418   3.568   8.233  2.9171  1.2442  1.8293
  979MOL0     H29222   5.678   3.520   8.106  2.3574 -0.2172  1.4919
  979MOL0     H29223   5.683   3.575   8.277  0.3507  0.7197 -0.1737
  979MOL0     H29224   5.566   3.730   8.038  2.0200 -0.8680 -0.2538
  979MOL0     H29225   5.558   3.773   8.206  0.0774  0.3849  0.8338
  979MOL0     H29226   5.963   3.861   8.088  0.9855 -0.9457  1.4201
  979MOL0     H29227   5.187   3.247   8.150  0.3967 -1.0030  1.6735
  979MOL0     H29228   5.154   3.086   7.975 -0.2357 -0.4625 -0.1521
  980MOL0     O29229   9.962   8.801   9.323  0.0660  0.0518 -0.4296
  980MOL0     C29230   9.967   8.781   9.442  0.5331  0.1325 -0.4698
  980MOL0     O29231   9.861   8.741   9.529  0.1501  0.2502  0.7001
  980MOL0     C29232   9.743   8.717   9.460 -0.0075  0.0683 -0.1938
  980MOL0     C29233   9.693   8.804   9.354 -0.0126  0.1181  0.1640
  980MOL0     C29234   9.562   8.763   9.310 -0.8581 -0.1398  0.4305
  980MOL0     C29235   9.487   8.652   9.363  0.2190 -0.0491 -0.1112
  980MOL0     O29236   9.362   8.646   9.322 -0.4628  0.3776 -0.6465
  980MOL0     C29237   9.265   8.692   9.412 -1.0385 -0.5658 -0.4316
  980MOL0     C29238   9.164   8.583   9.445 -0.3362 -0.0223  1.1139
  980MOL0     C29239   9.214   8.475   9.539 -0.2079  0.6139 -0.1655
  980MOL0     C29240   9.109   8.365   9.583  0.6944  0.2014  0.6373
  980MOL0     C29241   9.181   8.249   9.653  0.1743 -0.0687  0.2288
  980MOL0     C29242   9.089   8.134   9.680 -0.6624  0.6938 -0.0356
  980MOL0     C29243   9.153   8.004   9.646  0.4608  0.0783 -0.1233
  980MOL0     C29244   9.069   7.888   9.683 -0.0160  0.3543  0.3967
  980MOL0     N29245   9.137   7.767   9.619 -0.8477  0.5017  0.7502
  980MOL0     C29246   9.264   7.763   9.565  0.3235  0.5569 -1.2755
  980MOL0     C29247   9.283   7.636   9.517 -0.4144 -0.4064 -0.0902
  980MOL0     C29248   9.395   7.563   9.439 -0.3758 -0.0041  1.1778
  980MOL0     C29249   9.375   7.542   9.284 -0.1226 -0.8752 -0.2627
  980MOL0     C29250   9.347   7.676   9.210 -0.0780 -0.4663 -0.4596
  980MOL0     C29251   9.474   7.758   9.177  0.1513 -0.3528 -0.2640
  980MOL0     O29252   9.556   7.683   9.080 -0.2207 -0.1141  0.3964
  980MOL0     C29253   9.683   7.734   9.062  0.4306  0.1122  0.4407
  980MOL0     C29254   9.717   7.859   9.099 -0.1160  0.4383 -1.2574
  980MOL0     C29255   9.837   7.906   9.055  0.9098  0.3512 -0.2890
  980MOL0     C29256   9.937   7.829   9.003  0.6399  0.9435 -1.1762
  980MOL0     C29257  10.076   7.882   8.975 -0.7048 -0.0258 -0.0336
  980MOL0     O29258  10.165   7.798   8.914  0.3744  0.3741  0.1092
  980MOL0     C29259  10.284   7.859   8.881  0.1934  0.6257 -0.1765
  980MOL0     C29260  10.305   7.894   8.744  0.1716 -0.2855 -0.3174
  980MOL0     C29261  10.433   7.953   8.715 -0.0038  0.0567  1.1225
  980MOL0     C29262  10.544   7.948   8.801  0.0095  0.1681 -0.4727
  980MOL0     O29263  10.675   7.988   8.777 -0.1839  0.1603 -1.2620
  980MOL0     C29264  10.698   8.031   8.638 -0.7123  0.5085  0.2388
  980MOL0     C29265  10.836   8.095   8.622  0.3034  0.1577  0.6087
  980MOL0     C29266  10.889   8.104   8.477  0.3100 -0.4020 -0.6197
  980MOL0     C29267  11.000   8.006   8.444 -0.3558 -0.0422  0.2977
  980MOL0     C29268  11.072   8.041   8.318 -0.1331  0.0651  1.5827
  980MOL0     C29269  11.221   7.995   8.332 -0.2586 -0.8654  0.4794
  980MOL0     C29270  11.277   7.926   8.200  0.0237  0.9006 -0.5344
  980MOL0     C29271  11.382   7.818   8.233 -0.4508 -0.7054  0.8504
  980MOL0    Cl29272  11.294   7.658   8.282  0.8832 -0.1712 -0.0102
  980MOL0     C29273  10.509   7.906   8.926  0.2958 -0.2728  0.1920
  980MOL0     C29274  10.383   7.871   8.972 -0.2311 -0.3785 -0.0410
  980MOL0     O29275  10.108   7.995   9.013  0.7190  0.1123  0.3061
  980MOL0     C29276   9.908   7.694   8.977 -0.0103 -0.1492 -0.2073
  980MOL0     C29277   9.774   7.649   8.993  0.0775  0.5920  0.8544
  980MOL0     N29278   9.164   7.563   9.530 -0.0660 -0.4879 -0.4825
  980MOL0     N29279   9.080   7.652   9.585 -0.8394 -0.0540  0.3191
  980MOL0     C29280   9.548   8.578   9.462 -0.0749  0.6726  0.0324
  980MOL0     C29281   9.668   8.616   9.516 -0.8849 -0.1131 -0.9441
  980MOL0     C29282  10.093   8.818   9.504  0.0617 -0.3124 -1.1053
  980MOL0     C29283  10.108   8.825   9.645  0.4881 -0.1614  0.0795
  980MOL0     C29284  10.233   8.871   9.698  0.3834  0.1964 -0.1339
  980MOL0     C29285  10.344   8.900   9.629 -0.5239  0.0012  0.1784
  980MOL0     O29286  10.469   8.933   9.684 -0.1651 -0.0578  0.2236
  980MOL0     C29287  10.475   8.985   9.813 -1.1361  0.7760  0.2449
  980MOL0     C29288  10.613   9.047   9.837 -0.3053 -0.0086 -0.0860
  980MOL0     C29289  10.720   8.952   9.891  0.0809  0.1032  0.0577
  980MOL0     C29290  10.727   8.837   9.804 -0.4427  0.4107 -0.7197
  980MOL0     C29291  10.856   8.768   9.827 -0.7209  0.9034  0.7514
  980MOL0     C29292  10.969   8.721   9.843 -0.7126 -0.0745 -0.5338
  980MOL0     C29293  10.324   8.903   9.489  0.1144  0.8676  0.3042
  980MOL0     C29294  10.201   8.869   9.431 -0.5292 -0.6729  0.4826
  980MOL0     H29295   9.738   8.899   9.326  1.1122 -0.5989 -0.5458
  980MOL0     H29296   9.506   8.826   9.241 -0.9039 -0.9846 -0.3175
  980MOL0     H29297   9.211   8.777   9.369 -1.9133  0.5584  2.6119
  980MOL0     H29298   9.313   8.732   9.501 -0.2911  2.3539 -2.0208
  980MOL0     H29299   9.135   8.530   9.354 -1.6344 -1.8257  2.5049
  980MOL0     H29300   9.080   8.643   9.482 -1.4442 -0.7470 -0.1281
  980MOL0     H29301   9.268   8.536   9.612 -1.3440  4.7217 -2.4474
  980MOL0     H29302   9.294   8.416   9.493  0.7094  0.8443  1.0876
  980MOL0     H29303   9.040   8.412   9.653 -1.1277 -0.5322 -0.6093
  980MOL0     H29304   9.054   8.334   9.494  0.0701  0.5944  0.8842
  980MOL0     H29305   9.227   8.281   9.747  2.0070  1.1559 -1.0341
  980MOL0     H29306   9.267   8.224   9.591 -2.1766  0.0303 -3.3207
  980MOL0     H29307   8.998   8.134   9.618 -2.3127  0.0113  2.2414
  980MOL0     H29308   9.047   8.137   9.781 -1.7280  1.5626 -0.4779
  980MOL0     H29309   9.177   8.005   9.539 -0.8390  0.5452 -0.4393
  980MOL0     H29310   9.246   8.004   9.703  0.5659 -1.2550 -0.2591
  980MOL0     H29311   8.965   7.906   9.656 -1.1268 -1.2126  3.2664
  980MOL0     H29312   9.057   7.879   9.791 -0.4286 -1.1188  0.2485
  980MOL0     H29313   9.337   7.843   9.558 -0.0129  0.8930 -0.9534
  980MOL0     H29314   9.405   7.462   9.478 -0.7457 -1.7842 -2.8462
  980MOL0     H29315   9.495   7.608   9.446 -0.4615  0.5066 -0.4373
  980MOL0     H29316   9.290   7.474   9.276 -1.0044  0.3432 -1.8938
  980MOL0     H29317   9.459   7.488   9.239  1.2949  0.3296  0.8442
  980MOL0     H29318   9.301   7.650   9.114 -1.2130  1.0061 -0.3417
  980MOL0     H29319   9.272   7.727   9.271  1.2435  3.1365 -1.6098
  980MOL0     H29320   9.539   7.781   9.263  0.0621  3.0956 -0.9952
  980MOL0     H29321   9.454   7.855   9.130  2.2776  0.3836  0.2245
  980MOL0     H29322   9.642   7.921   9.147  0.2954  0.5087 -0.6918
  980MOL0     H29323   9.868   8.009   9.075  2.8755 -0.4732  1.2584
  980MOL0     H29324  10.220   7.904   8.677 -0.9797  1.4679  1.2853
  980MOL0     H29325  10.446   7.991   8.614  1.8570 -0.8070  0.9841
  980MOL0     H29326  10.627   8.109   8.612 -0.2107  2.1073  3.2191
  980MOL0     H29327  10.680   7.952   8.564 -2.6528  1.4017 -0.3055
  980MOL0     H29328  10.904   8.030   8.677 -2.0476 -1.5648  1.6299
  980MOL0     H29329  10.835   8.200   8.652 -2.1938 -0.2198  2.0903
  980MOL0     H29330  10.913   8.209   8.455  0.3471 -0.2586  0.0725
  980MOL0     H29331  10.810   8.078   8.405 -0.9687 -2.9092  1.5166
  980MOL0     H29332  11.075   8.031   8.520 -1.0540 -0.2142  1.0533
  980MOL0     H29333  10.962   7.905   8.462 -1.5491  1.0304  5.1553
  980MOL0     H29334  11.063   8.145   8.285  0.6597 -0.9380 -2.4329
  980MOL0     H29335  11.037   7.975   8.237 -0.9265  1.6995  0.5433
  980MOL0     H29336  11.230   7.920   8.410  1.4921 -1.5064 -0.2971
  980MOL0     H29337  11.287   8.078   8.361 -2.1358  0.3471  1.4961
  980MOL0     H29338  11.203   7.892   8.127 -0.4448 -1.0168  0.7826
  980MOL0     H29339  11.336   8.005   8.152  3.1128 -0.8120  0.1562
  980MOL0     H29340  11.453   7.874   8.295 -1.1544  0.3952  0.6987
  980MOL0     H29341  11.448   7.794   8.149 -1.7161 -1.6117  0.0869
  980MOL0     H29342  10.597   7.916   8.989 -0.3474  2.5921  0.8016
  980MOL0     H29343  10.366   7.852   9.077 -1.3084  0.4542 -0.0509
  980MOL0     H29344   9.978   7.629   8.927 -0.0725  2.1654 -3.6635
  980MOL0     H29345   9.745   7.547   8.969 -1.0723  1.0070  0.4049
  980MOL0     H29346   9.488   8.496   9.501 -1.6182  1.2152 -1.0870
  980MOL0     H29347   9.704   8.552   9.597  2.6580  1.2751 -1.2686
  980MOL0     H29348  10.018   8.811   9.704 -1.5182  1.3482 -2.4164
  980MOL0     H29349  10.233   8.876   9.806 -0.3742 -1.9689  0.0242
  980MOL0     H29350  10.448   8.910   9.888  1.4361  0.5846  1.0888
  980MOL0     H29351  10.393   9.055   9.826 -1.0187  1.0966 -0.6480
  980MOL0     H29352  10.640   9.100   9.746 -1.0215  1.4305  0.5013
  980MOL0     H29353  10.602   9.127   9.911 -2.4288  0.5931 -0.9947
  980MOL0     H29354  10.693   8.912   9.989 -1.6625  1.6383  0.2538
  980MOL0     H29355  10.816   9.002   9.876  0.0420 -0.5481 -3.1782
  980MOL0     H29356  10.643   8.767   9.814 -1.2052  1.4944  0.9484
  980MOL0     H29357  10.738   8.865   9.699  1.9429 -0.2549 -0.6906
  980MOL0     H29358  11.059   8.670   9.868 -3.1641 -3.4200  2.7046
  980MOL0     H29359  10.395   8.921   9.409  0.7241 -0.4304  0.5271
  980MOL0     H29360  10.195   8.887   9.324  0.7306  0.0429  0.5113
  981MOL0     O29361   8.226  10.149  10.221  0.3131 -0.2650 -0.5871
  981MOL0     C29362   8.185  10.070  10.131  0.1358  0.8235 -0.4657
  981MOL0     O29363   8.096   9.970  10.154 -0.6623 -0.6827  0.1172
  981MOL0     C29364   8.035   9.942  10.277 -0.6562  0.8861 -0.5882
  981MOL0     C29365   7.939   9.844  10.280  0.1055  0.1808 -0.3426
  981MOL0     C29366   7.885   9.789  10.398  0.5811 -0.7940 -0.2712
  981MOL0     C29367   7.924   9.838  10.518 -0.3376 -0.2253 -0.1440
  981MOL0     O29368   7.879   9.787  10.636  0.3287 -0.0915 -0.4803
  981MOL0     C29369   7.782   9.867  10.706 -0.5437 -0.3483 -0.3810
  981MOL0     C29370   7.840   9.904  10.842  0.9328  0.0989 -0.0718
  981MOL0     C29371   7.749   9.884  10.961  0.6778 -0.2569  0.0535
  981MOL0     C29372   7.629   9.986  10.946  0.5408 -0.0617 -0.1358
  981MOL0     C29373   7.540   9.992  11.075 -0.2417  0.3651  1.0332
  981MOL0     C29374   7.608  10.045  11.193 -0.3813 -0.1121  0.6966
  981MOL0     C29375   7.518  10.022  11.312  0.5970  0.4993 -0.0017
  981MOL0     C29376   7.365  10.052  11.303  0.2586 -0.5303  0.0587
  981MOL0     N29377   7.320  10.192  11.279 -0.2196 -0.6164  0.4438
  981MOL0     C29378   7.388  10.315  11.271  0.2983 -0.2866 -0.8069
  981MOL0     C29379   7.305  10.414  11.240  0.1284 -0.5055  0.1007
  981MOL0     C29380   7.319  10.569  11.248 -0.6811  1.2449  0.3337
  981MOL0     C29381   7.375  10.599  11.381 -0.6723 -1.0633 -0.3331
  981MOL0     C29382   7.364  10.754  11.398  0.4910 -0.6553 -0.4037
  981MOL0     C29383   7.406  10.799  11.536  0.1187  1.1909  0.4080
  981MOL0     O29384   7.409  10.938  11.563  0.6502 -0.0964 -0.2261
  981MOL0     C29385   7.308  11.002  11.636 -0.1323  0.3934  0.7870
  981MOL0     C29386   7.229  10.945  11.737 -0.5471 -0.6425 -0.0250
  981MOL0     C29387   7.120  11.029  11.778 -0.8351  0.1292  1.0573
  981MOL0     C29388   7.110  11.165  11.759  0.3742 -0.1865  0.1805
  981MOL0     C29389   7.018  11.242  11.830  0.1402  0.0359  0.7813
  981MOL0     O29390   6.982  11.367  11.785 -0.2037  1.0277  0.3898
  981MOL0     C29391   6.907  11.467  11.849 -0.2600  1.1344 -0.3217
  981MOL0     C29392   6.829  11.543  11.772  0.2795  0.0378 -0.5625
  981MOL0     C29393   6.762  11.656  11.822 -0.2082 -0.2292 -0.3890
  981MOL0     C29394   6.774  11.682  11.961  0.0365 -0.0848  0.6458
  981MOL0     O29395   6.724  11.784  12.030  1.0524 -0.7359  0.1793
  981MOL0     C29396   6.596  11.845  11.994 -0.1010  0.2283  0.6375
  981MOL0     C29397   6.537  11.937  12.103 -0.2618 -0.4551 -0.3906
  981MOL0     C29398   6.486  11.871  12.231  0.2164 -0.5474 -0.1515
  981MOL0     C29399   6.353  11.816  12.236  0.8977 -0.0878 -0.4509
  981MOL0     C29400   6.286  11.790  12.372 -1.0133  0.0795  0.4512
  981MOL0     C29401   6.241  11.914  12.456 -1.1231 -0.4855 -0.0464
  981MOL0     C29402   6.170  12.037  12.378  0.0256  0.7626  0.0092
  981MOL0     C29403   6.262  12.132  12.307 -0.3332 -1.2185  0.0183
  981MOL0    Cl29404   6.395  12.174  12.416  0.3943 -0.3523 -0.2019
  981MOL0     C29405   6.856  11.599  12.034 -0.5118  0.3370  0.4113
  981MOL0     C29406   6.926  11.489  11.981 -0.0057 -0.6545 -0.6496
  981MOL0     O29407   6.961  11.198  11.937 -0.2756 -0.0074  0.6114
  981MOL0     C29408   7.196  11.216  11.675 -0.0721  0.1985  0.5941
  981MOL0     C29409   7.299  11.146  11.611 -0.0944  0.3386 -0.7662
  981MOL0     N29410   7.184  10.352  11.214  1.7353  0.7182 -0.2279
  981MOL0     N29411   7.187  10.224  11.242 -0.3261  0.3774  0.4044
  981MOL0     C29412   8.025   9.934  10.525 -0.2453 -0.5537 -0.6637
  981MOL0     C29413   8.082   9.987  10.405  0.9116 -0.6594 -0.2306
  981MOL0     C29414   8.209  10.095   9.986  0.3839  0.9534 -0.8582
  981MOL0     C29415   8.280  10.214   9.961  1.1146  0.8285 -0.1075
  981MOL0     C29416   8.312  10.248   9.826  0.9475  0.1773 -0.7402
  981MOL0     C29417   8.278  10.161   9.724 -0.1129  0.6276 -0.3846
  981MOL0     O29418   8.313  10.174   9.598 -0.1353 -0.6280  0.7299
  981MOL0     C29419   8.362  10.305   9.560 -0.2237  0.1083  0.5772
  981MOL0     C29420   8.413  10.283   9.423 -0.2667 -0.9850 -0.2473
  981MOL0     C29421   8.294  10.240   9.328 -0.2057 -0.9207  0.1628
  981MOL0     C29422   8.363  10.189   9.197  0.4155  0.4287  0.2038
  981MOL0     C29423   8.268  10.119   9.117  0.3480  1.1178  0.3219
  981MOL0     C29424   8.204  10.049   9.048 -0.3326 -0.3139  0.5375
  981MOL0     C29425   8.194  10.056   9.752  0.0014 -0.0461  0.2058
  981MOL0     C29426   8.166  10.017   9.878 -0.0739 -0.6749  0.9748
  981MOL0     H29427   7.891   9.817  10.186  0.1655 -0.3117 -0.2343
  981MOL0     H29428   7.811   9.710  10.399  0.0632 -0.4542  3.7233
  981MOL0     H29429   7.693   9.804  10.714  0.4046 -1.6560  0.2624
  981MOL0     H29430   7.753   9.959  10.655  0.3290  0.6278  0.8324
  981MOL0     H29431   7.892  10.000  10.842 -0.3344  0.8169 -0.9514
  981MOL0     H29432   7.924   9.835  10.853  2.6631  2.0425 -0.5352
  981MOL0     H29433   7.805   9.894  11.055  0.3152  1.1172  0.1470
  981MOL0     H29434   7.702   9.786  10.968 -1.2658  0.5972 -0.5069
  981MOL0     H29435   7.669  10.088  10.937 -2.1333  1.1902  1.0297
  981MOL0     H29436   7.564   9.958  10.863  3.3511  2.9604 -3.7101
  981MOL0     H29437   7.518   9.886  11.091  0.5066  0.2191  1.1212
  981MOL0     H29438   7.454  10.053  11.045  0.0786 -0.8769 -3.0498
  981MOL0     H29439   7.631  10.152  11.185 -1.9867  0.1530 -1.4744
  981MOL0     H29440   7.701   9.993  11.215  0.5908 -0.0531 -2.6882
  981MOL0     H29441   7.530   9.921  11.352 -1.6202  0.5320  0.8992
  981MOL0     H29442   7.559  10.079  11.397  0.3114 -3.0597  2.7590
  981MOL0     H29443   7.330  10.036  11.405  1.4129 -3.0106  0.1410
  981MOL0     H29444   7.322   9.979  11.234 -2.9303 -0.6843  2.0214
  981MOL0     H29445   7.483  10.333  11.319  0.6523 -0.4919 -1.4186
  981MOL0     H29446   7.217  10.609  11.243 -0.3722  1.9615 -0.6077
  981MOL0     H29447   7.375  10.616  11.166  0.9151  0.1424  0.7541
  981MOL0     H29448   7.481  10.575  11.390 -0.3000  0.4219 -0.4301
  981MOL0     H29449   7.316  10.557  11.463 -1.9634  2.2386  0.5739
  981MOL0     H29450   7.423  10.806  11.321  2.7999 -1.0840  0.9574
  981MOL0     H29451   7.263  10.795  11.396  0.8842  0.6735  2.4307
  981MOL0     H29452   7.508  10.758  11.541  0.1311  1.1774  0.0344
  981MOL0     H29453   7.344  10.743  11.607  2.4826  1.5082  2.9447
  981MOL0     H29454   7.234  10.848  11.785 -0.6745 -0.8854 -0.5000
  981MOL0     H29455   7.062  10.981  11.856  0.3117 -2.2438  0.5330
  981MOL0     H29456   6.822  11.513  11.668  1.8382  2.5330 -1.4748
  981MOL0     H29457   6.699  11.721  11.761  0.9091  0.4640 -0.8501
  981MOL0     H29458   6.515  11.771  11.987 -1.6702  1.8081  1.1612
  981MOL0     H29459   6.604  11.905  11.902 -2.0785  0.4411  0.5481
  981MOL0     H29460   6.456  11.996  12.059 -2.2534 -2.0951  0.8676
  981MOL0     H29461   6.610  12.011  12.137  0.7734 -1.9802  0.8701
  981MOL0     H29462   6.479  11.942  12.315 -6.0365  0.8371 -1.3662
  981MOL0     H29463   6.558  11.795  12.263 -0.3816 -1.5010 -1.0427
  981MOL0     H29464   6.283  11.883  12.186 -3.4252 -1.2317  3.4255
  981MOL0     H29465   6.347  11.727  12.173 -0.3829  1.7017 -3.0585
  981MOL0     H29466   6.338  11.727  12.445 -0.2736  1.8908  1.5706
  981MOL0     H29467   6.192  11.741  12.349 -1.0224  0.1276  0.3853
  981MOL0     H29468   6.329  11.948  12.512 -1.0611 -1.8294  0.7213
  981MOL0     H29469   6.171  11.868  12.527  0.3867 -0.1549  1.7253
  981MOL0     H29470   6.091  11.996  12.314  0.9544  0.5977 -1.0602
  981MOL0     H29471   6.114  12.082  12.461  1.5619 -0.3179  1.6851
  981MOL0     H29472   6.203  12.221  12.283  2.8054  0.9791 -0.1877
  981MOL0     H29473   6.302  12.099  12.210 -1.0740 -1.3321 -0.2618
  981MOL0     H29474   6.857  11.608  12.142 -1.8250 -1.5961  0.6285
  981MOL0     H29475   6.978  11.424  12.051 -0.1978 -0.5460 -0.4056
  981MOL0     H29476   7.195  11.322  11.650 -3.0400  0.7457  2.4701
  981MOL0     H29477   7.364  11.179  11.530  2.9941 -5.2253 -1.0536
  981MOL0     H29478   8.056   9.950  10.627 -2.2095 -2.2555  0.2668
  981MOL0     H29479   8.172  10.047  10.416 -0.3385  1.5715 -1.5444
  981MOL0     H29480   8.310  10.289  10.034 -3.9024  4.2976 -1.1145
  981MOL0     H29481   8.372  10.332   9.795 -0.9270  1.1669 -1.8409
  981MOL0     H29482   8.452  10.336   9.613 -0.1806  1.7615 -0.3792
  981MOL0     H29483   8.290  10.388   9.566  1.1955  1.4800 -0.5167
  981MOL0     H29484   8.458  10.379   9.395 -0.6558 -0.2652  1.4706
  981MOL0     H29485   8.496  10.212   9.416  0.3456 -0.5173  1.6995
  981MOL0     H29486   8.222  10.320   9.309  1.0178 -0.6062 -4.4265
  981MOL0     H29487   8.243  10.156   9.376  0.9019 -0.0329  3.0361
  981MOL0     H29488   8.408  10.277   9.148 -3.2229  2.7164  0.5921
  981MOL0     H29489   8.449  10.129   9.228  0.9481 -0.2030 -2.2677
  981MOL0     H29490   8.156   9.981   8.980 -0.1016  0.0659 -0.0172
  981MOL0     H29491   8.168   9.985   9.674  1.5014 -1.3716  0.8526
  981MOL0     H29492   8.105   9.928   9.891 -4.3968  1.9481  0.4305
  982MOL0     O29493   7.317   2.713   3.219  0.1741 -0.6072  0.0601
  982MOL0     C29494   7.230   2.648   3.177  0.4691 -0.2983  0.2158
  982MOL0     O29495   7.100   2.679   3.178  1.0339  0.0308 -0.4897
  982MOL0     C29496   7.042   2.794   3.230  1.2388  0.0195  0.0240
  982MOL0     C29497   6.901   2.793   3.236 -0.4725  0.0017 -0.0746
  982MOL0     C29498   6.829   2.912   3.265 -0.6779 -0.8716 -0.1884
  982MOL0     C29499   6.888   3.032   3.293 -0.2869  0.6839  0.4127
  982MOL0     O29500   6.838   3.153   3.321 -0.4050 -0.8907  0.6294
  982MOL0     C29501   6.718   3.189   3.274  0.5113  0.2981  0.4706
  982MOL0     C29502   6.716   3.339   3.251  0.1653 -0.0682 -0.5590
  982MOL0     C29503   6.692   3.366   3.103  0.6396  0.2276 -0.4391
  982MOL0     C29504   6.708   3.518   3.084  0.6453 -0.3353 -0.5660
  982MOL0     C29505   6.640   3.552   2.951 -0.6541 -1.8224 -0.5662
  982MOL0     C29506   6.688   3.699   2.912  0.1127  0.0444  0.7460
  982MOL0     C29507   6.640   3.738   2.773 -0.3993  0.0558  0.5414
  982MOL0     C29508   6.725   3.672   2.672 -0.1663  0.4025 -0.0034
  982MOL0     N29509   6.708   3.715   2.534 -0.5769  0.0801  1.1540
  982MOL0     C29510   6.659   3.837   2.494  0.1049  0.6924 -0.2431
  982MOL0     C29511   6.654   3.840   2.363  0.4065  1.3578 -0.2744
  982MOL0     C29512   6.574   3.931   2.281 -0.6755  0.2951  0.3041
  982MOL0     C29513   6.428   3.968   2.320 -0.4081  0.1937 -0.7656
  982MOL0     C29514   6.379   4.075   2.224 -0.6585 -0.6853 -0.0833
  982MOL0     C29515   6.447   4.218   2.250 -0.5672  0.1632 -0.2700
  982MOL0     O29516   6.420   4.258   2.386  0.0984 -0.7587 -0.7694
  982MOL0     C29517   6.484   4.370   2.441  0.3274 -0.3767 -0.5279
  982MOL0     C29518   6.452   4.417   2.574 -0.9427 -0.1537 -0.0224
  982MOL0     C29519   6.506   4.534   2.627  0.0904  0.5953  0.0555
  982MOL0     C29520   6.604   4.606   2.566 -0.1265  0.5022  0.0244
  982MOL0     C29521   6.685   4.714   2.633 -1.0370 -0.3701  1.3422
  982MOL0     O29522   6.688   4.710   2.770 -0.4666 -0.2113  0.3978
  982MOL0     C29523   6.706   4.828   2.832  0.5351  0.3001  0.3966
  982MOL0     C29524   6.680   4.960   2.786 -0.8153 -0.9485  0.2463
  982MOL0     C29525   6.706   5.067   2.868  0.1620  0.3376 -0.2346
  982MOL0     C29526   6.755   5.053   2.998  0.5882 -0.9127  0.4152
  982MOL0     O29527   6.762   5.174   3.070 -0.5742  0.3719  0.0364
  982MOL0     C29528   6.872   5.188   3.156 -0.0908 -1.8304  0.0893
  982MOL0     C29529   6.877   5.330   3.218 -0.4031 -0.0233  0.3157
  982MOL0     C29530   6.884   5.449   3.125  0.0420 -0.5110  0.4475
  982MOL0     C29531   7.015   5.445   3.045 -0.3838  0.4464  0.2234
  982MOL0     C29532   7.022   5.560   2.944 -0.2812 -0.1834  0.2205
  982MOL0     C29533   6.959   5.525   2.813  1.1302  0.5183 -0.0866
  982MOL0     C29534   6.971   5.655   2.735 -0.1071 -0.4493 -0.0269
  982MOL0     C29535   6.915   5.649   2.590 -1.0227  0.5215  0.2323
  982MOL0    Cl29536   6.919   5.812   2.518  0.1015  0.2587 -0.2648
  982MOL0     C29537   6.777   4.925   3.043 -0.9775  0.7474  0.2636
  982MOL0     C29538   6.749   4.813   2.962 -1.2878 -0.0269  0.7068
  982MOL0     O29539   6.753   4.793   2.562 -0.7967  0.5903 -0.1983
  982MOL0     C29540   6.632   4.569   2.433 -0.4341  0.1105 -0.1770
  982MOL0     C29541   6.577   4.451   2.376 -0.4339 -0.3251  0.1117
  982MOL0     N29542   6.702   3.715   2.319 -0.4910 -0.5491 -0.2132
  982MOL0     N29543   6.732   3.642   2.420  0.7411  0.3274  0.2609
  982MOL0     C29544   7.031   3.023   3.307 -0.3784  0.8247 -0.3863
  982MOL0     C29545   7.100   2.902   3.281 -0.6699 -0.2397  0.8690
  982MOL0     C29546   7.264   2.526   3.114  0.1410  0.0840 -0.8300
  982MOL0     C29547   7.371   2.435   3.148 -0.4937  0.2679 -0.0619
  982MOL0     C29548   7.405   2.318   3.079 -0.0041 -0.9847 -0.1755
  982MOL0     C29549   7.330   2.290   2.962  0.2976  0.7866  0.2893
  982MOL0     O29550   7.340   2.156   2.906  0.3409 -0.3130  0.7283
  982MOL0     C29551   7.430   2.054   2.963 -0.3561  0.1944  0.3717
  982MOL0     C29552   7.413   1.919   2.893 -0.8929 -0.0247 -0.4032
  982MOL0     C29553   7.490   1.926   2.765 -0.3531  0.0835 -0.2813
  982MOL0     C29554   7.497   1.792   2.688 -0.9450 -0.5034 -1.3082
  982MOL0     C29555   7.401   1.791   2.588  0.2228 -0.1338  1.1157
  982MOL0     C29556   7.312   1.777   2.506  0.3162  0.9278 -0.5588
  982MOL0     C29557   7.220   2.373   2.929  0.0632 -0.3650  0.3673
  982MOL0     C29558   7.194   2.493   2.999 -0.3197  0.3795 -0.5421
  982MOL0     H29559   6.852   2.699   3.211  2.2093 -1.9270  1.4008
  982MOL0     H29560   6.722   2.915   3.281 -0.6475  1.4176 -0.1086
  982MOL0     H29561   6.648   3.154   3.351  1.5613 -0.2883  1.1989
  982MOL0     H29562   6.675   3.132   3.191 -1.5608  0.4008  1.4139
  982MOL0     H29563   6.813   3.385   3.270  0.7383 -0.7504 -1.7449
  982MOL0     H29564   6.637   3.388   3.310 -0.1462 -0.8221 -0.3421
  982MOL0     H29565   6.584   3.350   3.095  0.7543 -0.2826 -1.0195
  982MOL0     H29566   6.753   3.310   3.032  1.5091  2.0425 -1.1758
  982MOL0     H29567   6.670   3.570   3.172  1.9460 -0.1300 -0.1078
  982MOL0     H29568   6.815   3.538   3.080  1.5030 -4.1815 -0.5887
  982MOL0     H29569   6.530   3.550   2.955 -1.0287  2.9534 -1.8491
  982MOL0     H29570   6.669   3.478   2.877  2.5428 -1.1579 -0.1035
  982MOL0     H29571   6.797   3.699   2.918  0.0667  2.1208  4.5419
  982MOL0     H29572   6.655   3.770   2.989  4.3371 -0.3229  3.2220
  982MOL0     H29573   6.539   3.697   2.765 -1.1301  1.3539  2.3926
  982MOL0     H29574   6.647   3.847   2.767 -4.5028  0.4150 -1.8377
  982MOL0     H29575   6.714   3.563   2.677 -0.3256  0.4716  2.0072
  982MOL0     H29576   6.832   3.684   2.687 -0.1900  2.0803 -0.9948
  982MOL0     H29577   6.604   3.899   2.564 -1.0725 -1.3151  0.7135
  982MOL0     H29578   6.562   3.897   2.178  0.4357  1.6590 -0.2987
  982MOL0     H29579   6.640   4.017   2.275 -2.5547  2.1791  3.5199
  982MOL0     H29580   6.435   4.016   2.419  0.9538 -1.1625 -0.1495
  982MOL0     H29581   6.362   3.883   2.301 -1.9894  1.7563 -2.6570
  982MOL0     H29582   6.410   4.049   2.122  1.3931  0.8774  0.0903
  982MOL0     H29583   6.271   4.090   2.229 -0.7105 -0.9530 -0.3760
  982MOL0     H29584   6.420   4.292   2.175  1.8435 -0.0337 -1.4534
  982MOL0     H29585   6.554   4.208   2.227 -1.1139 -2.0043 -2.2722
  982MOL0     H29586   6.387   4.361   2.640  2.4681 -1.2250  2.7257
  982MOL0     H29587   6.486   4.548   2.733  1.3038  0.7597  0.2815
  982MOL0     H29588   6.621   4.978   2.697 -2.2598  3.4229  1.8391
  982MOL0     H29589   6.680   5.167   2.834  1.0411  0.8609  0.6026
  982MOL0     H29590   6.963   5.169   3.099 -0.1454 -0.6812 -0.4107
  982MOL0     H29591   6.867   5.134   3.251 -0.2318  2.1990  2.5962
  982MOL0     H29592   6.952   5.347   3.296  0.3409 -2.6433  0.3007
  982MOL0     H29593   6.780   5.339   3.266 -1.4479 -1.0893 -1.4753
  982MOL0     H29594   6.904   5.542   3.180  2.1770  0.1503 -1.2956
  982MOL0     H29595   6.809   5.464   3.046  1.8656 -1.2211 -1.5300
  982MOL0     H29596   7.100   5.438   3.114 -1.6081 -0.6914  1.6740
  982MOL0     H29597   7.019   5.348   2.993 -0.7740 -1.3698  3.3211
  982MOL0     H29598   7.129   5.584   2.935  0.5104 -1.9956  3.2848
  982MOL0     H29599   6.969   5.635   3.004 -0.1090 -0.9672  1.3696
  982MOL0     H29600   6.857   5.486   2.815  1.5792 -0.7127 -0.2854
  982MOL0     H29601   7.014   5.446   2.761 -0.0810  1.7763 -3.5899
  982MOL0     H29602   6.930   5.741   2.788 -2.1640 -1.7059  0.5646
  982MOL0     H29603   7.078   5.679   2.731 -0.2295  0.5552  1.8338
  982MOL0     H29604   6.814   5.608   2.582  0.3493 -2.9055 -1.8453
  982MOL0     H29605   6.987   5.587   2.535 -1.8090  0.5892 -0.9187
  982MOL0     H29606   6.828   4.908   3.137  1.5024 -0.3626 -1.1673
  982MOL0     H29607   6.788   4.720   3.002  1.6911  1.0368  0.5159
  982MOL0     H29608   6.698   4.624   2.367  2.2640 -2.3513  0.3131
  982MOL0     H29609   6.593   4.450   2.269  2.0042  0.0277  0.4186
  982MOL0     H29610   7.097   3.097   3.352 -0.1031 -1.1935  2.8423
  982MOL0     H29611   7.208   2.908   3.289 -0.5007  1.9472 -1.6250
  982MOL0     H29612   7.426   2.475   3.232 -0.8663  3.3528 -1.1576
  982MOL0     H29613   7.482   2.249   3.110  0.1161  0.5018  3.3489
  982MOL0     H29614   7.388   2.036   3.062 -1.9651  3.0548  0.3203
  982MOL0     H29615   7.536   2.079   2.974 -0.0710 -0.3628 -0.9202
  982MOL0     H29616   7.461   1.842   2.955 -0.0277  1.2635  0.5809
  982MOL0     H29617   7.308   1.898   2.873 -0.7928 -0.1580 -0.7951
  982MOL0     H29618   7.594   1.955   2.783  0.4480 -2.9179  0.4888
  982MOL0     H29619   7.442   2.004   2.705 -0.3879  1.1907  1.1494
  982MOL0     H29620   7.589   1.772   2.633  0.6256 -0.4722  1.2039
  982MOL0     H29621   7.483   1.707   2.756 -0.9138  1.1614  0.8447
  982MOL0     H29622   7.230   1.750   2.442 -1.5541  0.7734  1.7756
  982MOL0     H29623   7.142   2.339   2.861 -3.6756  2.1817  2.9676
  982MOL0     H29624   7.110   2.544   2.952 -0.6355 -0.2111 -0.6335
  983MOL0     O29625  10.762   3.088   3.777 -0.1485 -0.4226  0.3057
  983MOL0     C29626  10.661   3.136   3.826 -0.3657 -0.0425  0.1682
  983MOL0     O29627  10.610   3.117   3.949 -0.0439  0.8772 -0.7998
  983MOL0     C29628  10.661   3.002   4.008  0.8708  0.5670 -0.6851
  983MOL0     C29629  10.648   2.875   3.942 -0.1879 -0.2124  0.5157
  983MOL0     C29630  10.702   2.758   4.001 -0.6260 -0.6393 -0.0022
  983MOL0     C29631  10.776   2.778   4.118  0.0193  0.0737  0.5285
  983MOL0     O29632  10.862   2.686   4.166  0.1098  0.7350  0.6202
  983MOL0     C29633  10.877   2.564   4.092  1.0473  0.2283  0.9128
  983MOL0     C29634  11.006   2.485   4.155  0.2369 -0.0291  0.9006
  983MOL0     C29635  11.021   2.340   4.094  0.6118  0.9827 -0.2600
  983MOL0     C29636  11.114   2.246   4.161  0.1914 -0.1044  0.6308
  983MOL0     C29637  11.121   2.106   4.091 -0.0022  0.1995  0.2746
  983MOL0     C29638  10.993   2.016   4.098  0.2739 -0.8624  0.0564
  983MOL0     C29639  11.001   1.882   4.042  0.0865 -0.8255 -0.1192
  983MOL0     C29640  11.002   1.878   3.882  1.0426 -0.0305  0.3675
  983MOL0     N29641  10.863   1.908   3.837 -1.1157  0.5866 -1.0178
  983MOL0     C29642  10.772   1.810   3.803 -0.9980 -0.2220  0.5006
  983MOL0     C29643  10.664   1.874   3.750 -0.1261 -0.2465 -0.4623
  983MOL0     C29644  10.530   1.821   3.697  0.0513 -0.2669 -0.4883
  983MOL0     C29645  10.439   1.772   3.814  0.4715  0.2772 -0.3659
  983MOL0     C29646  10.293   1.805   3.799  0.3908 -0.1148 -0.6127
  983MOL0     C29647  10.253   1.943   3.847 -0.0120  0.1598 -0.3281
  983MOL0     O29648  10.117   1.986   3.805  0.6525 -0.0589  0.5015
  983MOL0     C29649  10.056   2.086   3.881 -0.7162 -0.4337 -0.6330
  983MOL0     C29650  10.129   2.182   3.959 -0.0454  0.2230  0.2702
  983MOL0     C29651  10.062   2.274   4.042  0.8396 -0.3519  0.5013
  983MOL0     C29652   9.916   2.274   4.054  0.3931  1.2406  1.0280
  983MOL0     C29653   9.838   2.368   4.137  0.5409 -0.5480  0.5281
  983MOL0     O29654   9.904   2.428   4.236  0.0826  0.0194 -0.9516
  983MOL0     C29655   9.836   2.522   4.305  0.1159 -0.1571 -0.2560
  983MOL0     C29656   9.890   2.658   4.307 -0.3845 -0.4945 -0.7883
  983MOL0     C29657   9.830   2.738   4.399  0.6582  0.3979 -0.0368
  983MOL0     C29658   9.711   2.697   4.473 -0.8686  0.2950  0.0089
  983MOL0     O29659   9.646   2.773   4.568  0.3991 -0.1254  0.0469
  983MOL0     C29660   9.677   2.917   4.575 -0.2247 -0.2014  0.9673
  983MOL0     C29661   9.578   2.975   4.681 -0.4674  0.5768 -0.6037
  983MOL0     C29662   9.611   3.112   4.734  0.2085  1.1752 -1.3054
  983MOL0     C29663   9.547   3.143   4.877  0.4260  0.9438 -0.4811
  983MOL0     C29664   9.563   3.288   4.931  0.7477 -0.6632 -0.0163
  983MOL0     C29665   9.713   3.320   4.962  0.9851  0.0396  0.5168
  983MOL0     C29666   9.781   3.242   5.082  0.6950  0.5156 -0.5227
  983MOL0     C29667   9.852   3.324   5.183 -0.3052  0.3511 -0.4728
  983MOL0    Cl29668  10.024   3.285   5.157  0.1177 -0.1702 -0.1581
  983MOL0     C29669   9.653   2.574   4.457 -0.8156  0.2125 -0.2484
  983MOL0     C29670   9.719   2.486   4.373 -0.5485  0.6065 -0.6073
  983MOL0     O29671   9.718   2.384   4.106 -0.8636 -0.6886  0.2181
  983MOL0     C29672   9.844   2.177   3.971 -0.1128 -0.5610  1.1374
  983MOL0     C29673   9.913   2.085   3.889 -1.0910  0.5976  0.7420
  983MOL0     N29674  10.693   2.014   3.752  0.5547 -0.1346 -0.3850
  983MOL0     N29675  10.817   2.033   3.807  0.0204 -0.1338 -0.4661
  983MOL0     C29676  10.776   2.898   4.189  0.6998  0.6012 -0.0393
  983MOL0     C29677  10.705   3.008   4.145 -0.1036  0.8549  0.5028
  983MOL0     C29678  10.582   3.224   3.739 -0.2546  0.2710 -0.2361
  983MOL0     C29679  10.617   3.232   3.608  0.4583  1.0076  0.8290
  983MOL0     C29680  10.540   3.295   3.523 -0.2839 -0.2618 -0.1325
  983MOL0     C29681  10.428   3.370   3.560 -1.2014  0.6419  0.2220
  983MOL0     O29682  10.339   3.426   3.474 -0.3057 -0.2106 -0.7656
  983MOL0     C29683  10.365   3.421   3.334 -0.2647  0.7543  0.0919
  983MOL0     C29684  10.250   3.459   3.250  0.7347  0.2969  0.3225
  983MOL0     C29685  10.127   3.359   3.271  0.7527 -0.2102 -1.0429
  983MOL0     C29686  10.003   3.380   3.180  0.4367  0.9173  0.6243
  983MOL0     C29687   9.905   3.273   3.199  0.0150  0.1792  0.3373
  983MOL0     C29688   9.843   3.170   3.216 -0.9754 -0.4764  0.0046
  983MOL0     C29689  10.398   3.377   3.701  0.0865 -0.0998 -0.6094
  983MOL0     C29690  10.475   3.303   3.788 -0.4918  0.6695 -0.1860
  983MOL0     H29691  10.591   2.874   3.849  0.5286  0.5894  0.0514
  983MOL0     H29692  10.687   2.659   3.960  2.1002 -1.0566 -0.1497
  983MOL0     H29693  10.889   2.573   3.984 -0.7216 -0.5721  0.6273
  983MOL0     H29694  10.794   2.497   4.116  0.3384  0.1286 -1.5688
  983MOL0     H29695  10.985   2.475   4.261 -0.3674 -0.6804  0.7251
  983MOL0     H29696  11.105   2.532   4.145 -0.0962  0.4336 -0.4986
  983MOL0     H29697  11.036   2.337   3.986 -2.3584  1.7010 -0.7800
  983MOL0     H29698  10.921   2.297   4.107  0.8641  0.6365  0.6489
  983MOL0     H29699  11.215   2.286   4.148  0.3949 -0.6486  0.4885
  983MOL0     H29700  11.100   2.238   4.269 -2.7327  2.8360  0.6119
  983MOL0     H29701  11.196   2.046   4.143  0.4334 -1.0965 -1.7575
  983MOL0     H29702  11.165   2.119   3.992  3.7760 -2.7207  1.3287
  983MOL0     H29703  10.908   2.074   4.062  0.8939  0.7702  1.1343
  983MOL0     H29704  10.965   2.006   4.203 -2.5432 -0.8351 -0.6108
  983MOL0     H29705  11.092   1.841   4.087 -1.9631 -0.3670  5.1050
  983MOL0     H29706  10.919   1.827   4.089 -0.9558  0.8150  0.0590
  983MOL0     H29707  11.035   1.784   3.836  3.2959  2.0406 -2.6593
  983MOL0     H29708  11.076   1.944   3.835  1.7374 -2.2225 -1.8153
  983MOL0     H29709  10.772   1.703   3.823 -0.8128 -0.2463  0.3749
  983MOL0     H29710  10.555   1.740   3.629  2.1149  0.0091 -0.1188
  983MOL0     H29711  10.460   1.888   3.646 -1.2489  0.0842  1.6016
  983MOL0     H29712  10.458   1.817   3.912 -4.1211  0.3363  0.7618
  983MOL0     H29713  10.453   1.664   3.823  0.4712  0.2448 -0.7248
  983MOL0     H29714  10.263   1.808   3.694  1.7749  3.9891 -1.0774
  983MOL0     H29715  10.227   1.731   3.844 -0.8395 -0.4572 -2.8333
  983MOL0     H29716  10.331   2.010   3.808 -1.2185  0.3788 -2.5233
  983MOL0     H29717  10.259   1.948   3.957  1.7200  0.6956 -0.4083
  983MOL0     H29718  10.237   2.187   3.963  0.0874 -1.7290  3.7460
  983MOL0     H29719  10.115   2.360   4.080  0.8313  0.1890 -0.6732
  983MOL0     H29720   9.988   2.678   4.264  0.0466  3.0964  1.4209
  983MOL0     H29721   9.880   2.833   4.415 -0.9057  1.7060 -2.3084
  983MOL0     H29722   9.664   2.969   4.479 -3.8348  0.4266  1.6522
  983MOL0     H29723   9.781   2.934   4.604 -0.4836  1.4559  1.0668
  983MOL0     H29724   9.578   2.899   4.759  0.2882  1.6620  0.4703
  983MOL0     H29725   9.477   2.973   4.638 -2.2958  0.4907  3.3206
  983MOL0     H29726   9.568   3.190   4.670  0.0041  0.2519 -2.3151
  983MOL0     H29727   9.718   3.127   4.746 -0.4201  4.1276  5.1446
  983MOL0     H29728   9.441   3.136   4.851 -0.2241  0.9162  1.9391
  983MOL0     H29729   9.585   3.075   4.954  1.8220  2.5175  0.2882
  983MOL0     H29730   9.502   3.305   5.019 -2.4987  0.6442 -2.3134
  983MOL0     H29731   9.510   3.350   4.858 -3.1143 -2.1845  1.2483
  983MOL0     H29732   9.708   3.426   4.987 -4.9050  0.3518 -0.5084
  983MOL0     H29733   9.782   3.317   4.877  0.1450  1.6164 -0.2775
  983MOL0     H29734   9.706   3.180   5.132  0.9549 -0.5624 -1.4150
  983MOL0     H29735   9.854   3.176   5.033 -0.2635 -0.1585 -1.0772
  983MOL0     H29736   9.827   3.285   5.282  2.4716  4.5579  2.2194
  983MOL0     H29737   9.823   3.429   5.173  1.0944  0.5663 -3.7373
  983MOL0     H29738   9.566   2.546   4.515  0.4853  2.6778  3.1986
  983MOL0     H29739   9.697   2.382   4.351  1.3385  0.2775 -1.1844
  983MOL0     H29740   9.737   2.161   3.975 -0.0740 -0.9382  0.7307
  983MOL0     H29741   9.864   2.010   3.827 -0.4137  0.7658 -0.0037
  983MOL0     H29742  10.842   2.894   4.276  0.3619  0.1011  0.1970
  983MOL0     H29743  10.701   3.096   4.209  4.7941  1.7624  0.0183
  983MOL0     H29744  10.709   3.183   3.578 -1.1521 -2.9198  1.6810
  983MOL0     H29745  10.584   3.292   3.424  1.1971 -0.1479  0.5017
  983MOL0     H29746  10.398   3.323   3.301 -0.3683  0.8156 -0.2000
  983MOL0     H29747  10.454   3.482   3.314  1.2859 -0.9442  1.4282
  983MOL0     H29748  10.229   3.566   3.252  1.4838  0.4941 -1.0196
  983MOL0     H29749  10.281   3.453   3.145 -0.9029 -1.8923 -0.1090
  983MOL0     H29750  10.113   3.362   3.379  2.9461 -1.1232 -0.6719
  983MOL0     H29751  10.186   3.271   3.241  2.3994  1.3398 -2.6485
  983MOL0     H29752   9.952   3.474   3.201  2.2852  1.9466  0.7674
  983MOL0     H29753  10.043   3.389   3.079  1.3848  0.9225  0.9890
  983MOL0     H29754   9.782   3.082   3.218  0.8649 -2.0943 -3.8657
  983MOL0     H29755  10.312   3.432   3.737 -0.5784 -2.4315  1.6892
  983MOL0     H29756  10.453   3.300   3.895  1.0147  4.1733  0.3746
  984MOL0     O29757  10.418   2.448   3.812  0.4713  0.2887 -0.3758
  984MOL0     C29758  10.477   2.534   3.742 -0.6193  0.5364 -0.2574
  984MOL0     O29759  10.409   2.648   3.700 -0.1339 -0.7602 -0.4899
  984MOL0     C29760  10.283   2.677   3.745 -0.7396 -0.8250  0.4755
  984MOL0     C29761  10.164   2.637   3.677 -0.0379 -1.0234 -0.5155
  984MOL0     C29762  10.045   2.643   3.747 -0.5867 -0.6769 -0.1323
  984MOL0     C29763  10.038   2.705   3.873  0.2389  0.0741 -1.0377
  984MOL0     O29764   9.932   2.754   3.928  0.1546 -0.3872 -0.3689
  984MOL0     C29765   9.809   2.691   3.919 -0.0057 -0.4796 -0.4971
  984MOL0     C29766   9.704   2.797   3.914 -1.7296  0.4968  0.4745
  984MOL0     C29767   9.692   2.885   4.031  0.6804  0.6171 -0.7177
  984MOL0     C29768   9.601   2.997   4.005  0.2165 -0.8750  0.3795
  984MOL0     C29769   9.566   3.084   4.122 -0.0308 -0.4927 -0.1821
  984MOL0     C29770   9.674   3.178   4.169  0.4189 -0.4963  0.4199
  984MOL0     C29771   9.613   3.271   4.270  0.3933 -1.3624 -0.3670
  984MOL0     C29772   9.703   3.392   4.298  0.2897  0.0757 -0.1579
  984MOL0     N29773   9.795   3.367   4.410 -0.3219  0.9806  0.1950
  984MOL0     C29774   9.910   3.439   4.423 -0.5308  0.0686 -1.0568
  984MOL0     C29775   9.988   3.353   4.492 -0.4923  0.5078 -0.8852
  984MOL0     C29776  10.138   3.387   4.528 -0.0254  0.7629  0.2537
  984MOL0     C29777  10.155   3.426   4.673 -1.2487 -0.7924  0.2527
  984MOL0     C29778  10.209   3.314   4.766  0.2928 -0.0209 -0.8188
  984MOL0     C29779  10.105   3.201   4.781  0.4107  0.1205  0.2989
  984MOL0     O29780  10.137   3.129   4.891 -0.6372 -0.5051  0.4752
  984MOL0     C29781  10.059   3.017   4.927 -0.6968  1.1564 -0.0586
  984MOL0     C29782   9.978   2.961   4.831 -0.3872 -0.7649  0.0685
  984MOL0     C29783   9.901   2.844   4.855 -0.5915 -0.6154  0.4606
  984MOL0     C29784   9.907   2.794   4.989 -0.1152 -0.5168 -0.0190
  984MOL0     C29785   9.834   2.667   5.017 -0.6954  0.2168 -0.2150
  984MOL0     O29786   9.816   2.588   4.906  0.3601  0.3531  0.7054
  984MOL0     C29787   9.760   2.466   4.917 -0.6150  0.1308  0.5976
  984MOL0     C29788   9.678   2.428   4.811 -0.6070 -0.6278  0.6739
  984MOL0     C29789   9.647   2.298   4.798  0.2619 -0.4482  0.6762
  984MOL0     C29790   9.685   2.204   4.888 -0.3889  0.2142  0.1399
  984MOL0     O29791   9.651   2.069   4.873 -0.4636  0.8952  0.6975
  984MOL0     C29792   9.548   2.019   4.955  0.2549  0.0251 -0.1865
  984MOL0     C29793   9.411   1.991   4.895 -0.7455  0.3209 -0.1347
  984MOL0     C29794   9.433   1.885   4.789 -1.0625 -0.0997 -0.2725
  984MOL0     C29795   9.307   1.818   4.721  0.1857  0.0261  0.8262
  984MOL0     C29796   9.231   1.726   4.815  0.9595  0.0620  0.4790
  984MOL0     C29797   9.288   1.580   4.821  0.5964 -0.5804  0.6881
  984MOL0     C29798   9.175   1.486   4.886  0.2849 -0.0596  0.3672
  984MOL0     C29799   9.224   1.354   4.945 -0.3272 -0.3982 -0.1088
  984MOL0    Cl29800   9.259   1.237   4.806 -0.0778  0.6888  0.2324
  984MOL0     C29801   9.775   2.240   4.997 -0.3862  0.1939 -0.7959
  984MOL0     C29802   9.811   2.369   5.008  0.2441 -0.0547  0.3416
  984MOL0     O29803   9.804   2.641   5.141  0.1018 -0.1243  0.2371
  984MOL0     C29804   9.990   2.846   5.088  1.0747  0.8074  0.1753
  984MOL0     C29805  10.069   2.947   5.053 -0.4453  0.6951 -0.0776
  984MOL0     N29806   9.917   3.246   4.544 -1.1402  0.4875  1.0141
  984MOL0     N29807   9.794   3.256   4.495 -1.4470 -0.0570 -0.8283
  984MOL0     C29808  10.158   2.756   3.936  0.8244  0.3873  0.1861
  984MOL0     C29809  10.283   2.729   3.878  0.2655  0.9316 -0.1452
  984MOL0     C29810  10.618   2.521   3.715  0.3075  0.3505 -0.2091
  984MOL0     C29811  10.688   2.630   3.659  0.0887  0.1895  0.1893
  984MOL0     C29812  10.825   2.630   3.637 -0.0737  0.9971  1.2109
  984MOL0     C29813  10.897   2.516   3.671  0.2956  0.3039 -0.4355
  984MOL0     O29814  11.035   2.522   3.639  1.0607  0.3790 -0.6095
  984MOL0     C29815  11.123   2.422   3.695 -0.4706  1.5253  0.2194
  984MOL0     C29816  11.211   2.474   3.803 -0.3284 -0.3047  0.1433
  984MOL0     C29817  11.293   2.603   3.760 -0.9248 -0.6050 -0.7844
  984MOL0     C29818  11.320   2.686   3.896  0.2227 -0.0558  0.4332
  984MOL0     C29819  11.386   2.614   4.000  0.7264 -0.0448  0.4225
  984MOL0     C29820  11.439   2.543   4.086 -0.7823 -0.7952 -0.2578
  984MOL0     C29821  10.828   2.407   3.720  0.7092 -0.1200  0.3173
  984MOL0     C29822  10.690   2.405   3.732 -0.2612 -0.8087 -0.0356
  984MOL0     H29823  10.167   2.589   3.580  4.4208  0.0824 -1.1257
  984MOL0     H29824   9.954   2.599   3.708 -2.4045  1.2327  1.6297
  984MOL0     H29825   9.795   2.625   4.005 -0.5655  0.2163 -0.0481
  984MOL0     H29826   9.814   2.640   3.822  6.2911 -0.9017 -0.3546
  984MOL0     H29827   9.608   2.749   3.896 -1.0226 -0.2560 -1.6998
  984MOL0     H29828   9.718   2.852   3.820  2.9569 -2.3038 -0.8182
  984MOL0     H29829   9.778   2.931   4.081 -0.0744 -1.1451  2.5190
  984MOL0     H29830   9.652   2.823   4.112  0.9260 -0.7048 -1.5684
  984MOL0     H29831   9.636   3.067   3.928 -2.0724  2.2010  1.9170
  984MOL0     H29832   9.506   2.958   3.968  0.0496  1.6992 -2.3019
  984MOL0     H29833   9.535   3.012   4.199 -0.3268  0.0158  0.1811
  984MOL0     H29834   9.473   3.131   4.087 -0.7019 -1.9151 -0.4045
  984MOL0     H29835   9.702   3.240   4.083  0.4890  3.0030  2.7714
  984MOL0     H29836   9.762   3.131   4.213  0.5409  2.1085  3.2954
  984MOL0     H29837   9.521   3.320   4.236  0.1204  2.8190  4.9550
  984MOL0     H29838   9.578   3.214   4.357  1.1465 -0.2099  0.7260
  984MOL0     H29839   9.644   3.474   4.341 -2.2218 -1.6521 -0.0643
  984MOL0     H29840   9.745   3.429   4.204  3.4841 -1.2795  0.6135
  984MOL0     H29841   9.943   3.541   4.401  2.8604 -0.6322  0.0925
  984MOL0     H29842  10.169   3.474   4.469  0.5395  0.8268  0.6323
  984MOL0     H29843  10.188   3.297   4.491  2.6094  2.4128 -0.5205
  984MOL0     H29844  10.058   3.448   4.721  0.0015  2.0443  1.7542
  984MOL0     H29845  10.213   3.517   4.693 -2.5799 -0.0139  0.7266
  984MOL0     H29846  10.299   3.263   4.730  2.5261  2.8430  0.3616
  984MOL0     H29847  10.230   3.359   4.863  0.4364  2.2797 -1.8677
  984MOL0     H29848  10.105   3.142   4.689 -3.4373  0.2095  0.0803
  984MOL0     H29849  10.010   3.247   4.809  1.4194  0.5867  3.3543
  984MOL0     H29850   9.970   3.010   4.735 -0.5913  5.5708  2.8075
  984MOL0     H29851   9.849   2.799   4.771  1.1134  3.6477 -3.3258
  984MOL0     H29852   9.637   2.508   4.749  0.6803 -1.1734 -0.9664
  984MOL0     H29853   9.592   2.267   4.709  0.2100 -0.2591  0.6421
  984MOL0     H29854   9.539   2.079   5.046  0.5818 -0.4161  0.1414
  984MOL0     H29855   9.589   1.929   5.003 -0.0126  1.8122  3.8714
  984MOL0     H29856   9.389   2.090   4.852 -3.2802  1.1921  2.7964
  984MOL0     H29857   9.338   1.968   4.973  0.0031 -1.4102  0.1030
  984MOL0     H29858   9.494   1.806   4.834 -0.1178  0.1772 -1.0421
  984MOL0     H29859   9.500   1.930   4.715  1.4486  1.8272  2.9032
  984MOL0     H29860   9.238   1.896   4.689  2.0305  1.5159  0.2600
  984MOL0     H29861   9.345   1.760   4.636 -4.8602 -0.2933 -1.5323
  984MOL0     H29862   9.131   1.719   4.770  1.6354  0.8753 -1.2042
  984MOL0     H29863   9.222   1.771   4.914  0.5127 -1.9923  1.4228
  984MOL0     H29864   9.383   1.583   4.876  3.3086  4.2939 -3.4249
  984MOL0     H29865   9.308   1.548   4.718 -3.2718 -2.3676  0.3074
  984MOL0     H29866   9.143   1.546   4.971 -2.3055  1.0911 -1.2950
  984MOL0     H29867   9.095   1.447   4.822  1.2979 -1.8181  0.1254
  984MOL0     H29868   9.142   1.319   5.008  1.1585 -2.1312  0.9551
  984MOL0     H29869   9.316   1.376   5.000 -0.8843  1.1033  0.2713
  984MOL0     H29870   9.809   2.157   5.058 -1.0771  0.7353  0.3724
  984MOL0     H29871   9.891   2.397   5.076  1.7447 -3.3575  0.1669
  984MOL0     H29872   9.993   2.798   5.186 -2.0519 -0.9964 -0.4798
  984MOL0     H29873  10.128   2.975   5.139 -0.3419  1.0082 -0.2491
  984MOL0     H29874  10.147   2.798   4.036  0.0102  2.0036 -0.5469
  984MOL0     H29875  10.375   2.755   3.931  2.3379 -3.8867 -0.7611
  984MOL0     H29876  10.636   2.723   3.637  3.0517  2.0188  0.3680
  984MOL0     H29877  10.866   2.724   3.602  0.3699  0.5532  0.4998
  984MOL0     H29878  11.186   2.388   3.611 -1.4749  0.7108 -0.2287
  984MOL0     H29879  11.068   2.338   3.737 -0.8274  2.0906  0.8952
  984MOL0     H29880  11.145   2.497   3.887  4.7099  0.0418  4.5923
  984MOL0     H29881  11.275   2.392   3.838 -0.2091 -0.8550 -1.3004
  984MOL0     H29882  11.245   2.668   3.686 -1.5024  0.9832  0.9099
  984MOL0     H29883  11.390   2.576   3.717  1.1038  3.7475  0.5122
  984MOL0     H29884  11.377   2.774   3.866 -1.8947  1.8073  1.5488
  984MOL0     H29885  11.222   2.719   3.933 -0.9140 -1.1509 -1.4455
  984MOL0     H29886  11.490   2.484   4.159  1.5249  3.7371  2.2383
  984MOL0     H29887  10.866   2.309   3.744 -1.0499 -1.8459 -3.1636
  984MOL0     H29888  10.629   2.323   3.767  1.4813 -1.5376  1.4923
  985MOL0     O29889  10.763   2.301   9.105 -0.3351  1.1966  0.3881
  985MOL0     C29890  10.759   2.419   9.109  0.8234  0.0033  0.2332
  985MOL0     O29891  10.808   2.498   9.209  0.7340  0.5472  0.1934
  985MOL0     C29892  10.902   2.431   9.278 -0.6580  0.2165  0.5797
  985MOL0     C29893  10.879   2.353   9.392 -0.1004 -0.7744 -0.4284
  985MOL0     C29894  10.989   2.298   9.469  1.1931 -0.2903 -0.2131
  985MOL0     C29895  11.118   2.324   9.425  0.2397 -0.3431  0.8977
  985MOL0     O29896  11.234   2.305   9.495 -0.0992  0.1469 -0.0872
  985MOL0     C29897  11.201   2.345   9.632  0.1298  0.1642 -0.1935
  985MOL0     C29898  11.310   2.288   9.721 -0.1836  0.2773 -0.5234
  985MOL0     C29899  11.253   2.287   9.863  1.4810  0.2448 -0.1750
  985MOL0     C29900  11.342   2.226   9.970 -0.1474 -1.0129 -0.0748
  985MOL0     C29901  11.409   2.324  10.067 -0.2795 -0.0956  0.0500
  985MOL0     C29902  11.428   2.254  10.202 -0.3690 -0.2747  0.2729
  985MOL0     C29903  11.487   2.355  10.304  0.0781  0.8054 -0.2864
  985MOL0     C29904  11.637   2.389  10.279  0.0419  0.4511 -0.0861
  985MOL0     N29905  11.682   2.474  10.390  0.1803 -0.4404  0.2697
  985MOL0     C29906  11.676   2.429  10.518  0.0891  0.4965  0.8977
  985MOL0     C29907  11.745   2.515  10.592 -0.5687  0.3509  0.2938
  985MOL0     C29908  11.748   2.498  10.740 -0.1084  0.1717 -0.1138
  985MOL0     C29909  11.757   2.639  10.807 -0.0597  0.6966 -0.6805
  985MOL0     C29910  11.776   2.644  10.956  1.0613  0.3783 -0.2788
  985MOL0     C29911  11.666   2.582  11.043 -0.6476 -0.2832  0.2480
  985MOL0     O29912  11.538   2.650  11.013  0.2385 -0.0542 -0.4773
  985MOL0     C29913  11.436   2.632  11.103 -0.1844 -0.7674  0.3736
  985MOL0     C29914  11.461   2.660  11.238 -0.3814 -1.1244  0.9899
  985MOL0     C29915  11.368   2.639  11.334  1.1478 -0.6461 -0.0645
  985MOL0     C29916  11.238   2.596  11.305 -0.7265  0.1924  0.9373
  985MOL0     C29917  11.138   2.597  11.422  0.2579  0.2451  1.0448
  985MOL0     O29918  11.192   2.621  11.552  1.0560  0.7821  0.7951
  985MOL0     C29919  11.103   2.612  11.658  0.2168  0.0996  0.3933
  985MOL0     C29920  10.987   2.688  11.674 -0.2624  0.1187  0.4126
  985MOL0     C29921  10.904   2.673  11.791 -0.4856  0.3028 -0.2077
  985MOL0     C29922  10.945   2.588  11.902  0.3853  0.4574  0.1544
  985MOL0     O29923  10.879   2.558  12.016  0.0595 -0.0513  0.0291
  985MOL0     C29924  10.807   2.657  12.089 -0.3024 -0.5386 -1.2843
  985MOL0     C29925  10.729   2.589  12.213 -0.3840 -0.7125 -0.4655
  985MOL0     C29926  10.668   2.454  12.178  0.3607 -0.3316  0.5623
  985MOL0     C29927  10.606   2.398  12.308  0.7528  0.6442 -0.1623
  985MOL0     C29928  10.556   2.243  12.299  0.5950 -0.4374 -0.2631
  985MOL0     C29929  10.684   2.155  12.325  0.0682  0.5249 -0.4084
  985MOL0     C29930  10.661   2.009  12.285  0.1840 -0.3107  0.3722
  985MOL0     C29931  10.775   1.916  12.336 -0.4700 -0.4631  0.7331
  985MOL0    Cl29932  10.738   1.883  12.504 -0.0955 -0.0812  0.5024
  985MOL0     C29933  11.068   2.518  11.875  0.0836 -0.4524 -0.5847
  985MOL0     C29934  11.140   2.531  11.762  0.6960  0.6994  0.3660
  985MOL0     O29935  11.018   2.581  11.384 -0.0311  0.7970  0.4100
  985MOL0     C29936  11.208   2.573  11.168 -0.2386 -0.2852  1.2858
  985MOL0     C29937  11.309   2.597  11.066 -0.0836  0.0919 -0.0249
  985MOL0     N29938  11.786   2.627  10.511 -0.0805  0.7877  0.9372
  985MOL0     N29939  11.744   2.603  10.392 -0.2004  0.9997  0.0912
  985MOL0     C29940  11.139   2.395   9.304  0.0495 -0.4610  0.4139
  985MOL0     C29941  11.030   2.441   9.227 -1.2219 -1.0609 -0.3324
  985MOL0     C29942  10.667   2.493   9.013 -0.7168  0.1823  1.0410
  985MOL0     C29943  10.687   2.630   8.974  0.5576  0.0458  0.1117
  985MOL0     C29944  10.597   2.710   8.901  0.3287  1.1392  0.5070
  985MOL0     C29945  10.480   2.647   8.877  0.3015  0.7487  0.8100
  985MOL0     O29946  10.392   2.729   8.799 -0.0108 -0.2848 -0.0243
  985MOL0     C29947  10.256   2.697   8.780 -0.4908  0.6651  1.2275
  985MOL0     C29948  10.171   2.753   8.890  0.6115  0.5877 -0.5019
  985MOL0     C29949  10.025   2.703   8.863  0.3245 -0.1576 -0.6528
  985MOL0     C29950   9.904   2.791   8.906  0.0741  0.7587  0.4403
  985MOL0     C29951   9.914   2.924   8.874 -1.1850 -0.5552  0.2144
  985MOL0     C29952   9.946   3.044   8.866 -1.0197 -0.5647 -1.2142
  985MOL0     C29953  10.449   2.511   8.915 -0.5776  0.1678  0.1715
  985MOL0     C29954  10.547   2.439   8.978  0.0922 -0.5840 -0.3551
  985MOL0     H29955  10.772   2.351   9.409 -1.4126  4.6513 -4.9699
  985MOL0     H29956  10.963   2.230   9.549  0.1288 -1.3155 -1.3943
  985MOL0     H29957  11.107   2.300   9.664 -0.0492  1.6371  1.4819
  985MOL0     H29958  11.201   2.454   9.640 -0.7601  0.0167  3.0864
  985MOL0     H29959  11.408   2.334   9.706 -0.9292  1.7248 -1.2316
  985MOL0     H29960  11.330   2.187   9.685 -1.2060  0.1923 -0.8836
  985MOL0     H29961  11.165   2.221   9.861  0.6813  1.2109  1.2445
  985MOL0     H29962  11.227   2.391   9.884 -1.2305 -0.2471 -0.6668
  985MOL0     H29963  11.277   2.159  10.026 -1.3355  1.7756  2.1229
  985MOL0     H29964  11.422   2.167   9.923  0.9759  0.6676 -0.3625
  985MOL0     H29965  11.347   2.411  10.087 -0.0458 -0.0463  0.5698
  985MOL0     H29966  11.500   2.365  10.023 -0.2798  1.2140  1.2003
  985MOL0     H29967  11.486   2.164  10.181  1.4266  1.0643 -0.7571
  985MOL0     H29968  11.335   2.227  10.254  1.2090  0.3610  3.7231
  985MOL0     H29969  11.426   2.444  10.290 -2.6108 -1.1106 -1.6143
  985MOL0     H29970  11.486   2.305  10.402  0.2111 -0.6339 -0.9919
  985MOL0     H29971  11.669   2.432  10.183  2.0858 -2.1975 -0.7060
  985MOL0     H29972  11.686   2.291  10.284 -2.0454 -0.6944 -1.1784
  985MOL0     H29973  11.632   2.339  10.560  1.4762 -1.7270 -2.0818
  985MOL0     H29974  11.829   2.433  10.777 -1.7493  0.4626  4.7100
  985MOL0     H29975  11.657   2.449  10.774 -0.6901 -0.1126 -1.9800
  985MOL0     H29976  11.677   2.709  10.782 -2.5098 -0.8676  2.1256
  985MOL0     H29977  11.848   2.685  10.767  1.0914 -1.2416 -0.4514
  985MOL0     H29978  11.865   2.583  10.974  0.6425 -0.6772 -1.5768
  985MOL0     H29979  11.794   2.744  10.996  2.1994 -0.9920  2.9314
  985MOL0     H29980  11.688   2.587  11.150 -0.8086 -1.9173  0.3760
  985MOL0     H29981  11.656   2.480  11.005 -4.6573 -0.4072  1.1860
  985MOL0     H29982  11.555   2.705  11.268 -2.0565  0.5801  4.4052
  985MOL0     H29983  11.411   2.642  11.434 -2.5146 -1.0340  1.6780
  985MOL0     H29984  10.949   2.756  11.598 -0.6022 -0.9615 -0.4256
  985MOL0     H29985  10.818   2.734  11.815 -0.3512  0.0460  0.9771
  985MOL0     H29986  10.748   2.725  12.026  0.7038  2.4690  0.8168
  985MOL0     H29987  10.888   2.719  12.128 -0.3431 -0.1905 -1.7431
  985MOL0     H29988  10.661   2.658  12.263 -2.2435 -2.4012 -0.5502
  985MOL0     H29989  10.801   2.575  12.294 -1.0086  0.8793  0.3993
  985MOL0     H29990  10.743   2.380  12.146 -1.8671 -2.3524 -0.2442
  985MOL0     H29991  10.597   2.475  12.098  1.1900  2.5550  0.4764
  985MOL0     H29992  10.667   2.417  12.397  0.5756  1.2005 -0.1566
  985MOL0     H29993  10.518   2.462  12.310  0.5506  0.3958  2.1730
  985MOL0     H29994  10.509   2.228  12.202  1.6383 -3.7489 -0.3719
  985MOL0     H29995  10.478   2.234  12.375  0.2071  1.4613 -0.3780
  985MOL0     H29996  10.714   2.167  12.429 -0.0752  2.9834 -0.6038
  985MOL0     H29997  10.771   2.193  12.270 -1.1115  0.8359 -2.1542
  985MOL0     H29998  10.567   1.977  12.331  0.2558  2.4422  2.7379
  985MOL0     H29999  10.658   1.991  12.177 -0.3501 -2.9438  0.7794
  985MOL0     H30000  10.877   1.954  12.325 -0.4455 -0.0973  1.9894
  985MOL0     H30001  10.769   1.819  12.286 -0.7724 -1.6481  2.9221
  985MOL0     H30002  11.110   2.448  11.946 -0.3248 -1.9045 -1.7200
  985MOL0     H30003  11.230   2.471  11.750 -0.6436 -1.0414 -1.8101
  985MOL0     H30004  11.102   2.557  11.146  0.4815 -2.0842 -1.3187
  985MOL0     H30005  11.298   2.585  10.959 -4.1847 -0.8848  0.3436
  985MOL0     H30006  11.240   2.402   9.263  0.7544 -2.8907  1.5217
  985MOL0     H30007  11.046   2.507   9.143 -2.4537 -2.2652 -1.5608
  985MOL0     H30008  10.777   2.672   9.015  1.2931 -2.9315  1.8679
  985MOL0     H30009  10.617   2.816   8.885  4.0975  0.7557  1.7554
  985MOL0     H30010  10.239   2.589   8.771  0.1092  0.6121  0.6874
  985MOL0     H30011  10.222   2.744   8.686 -1.4264 -1.7899  0.2443
  985MOL0     H30012  10.203   2.715   8.988  1.7798 -0.2587 -1.1770
  985MOL0     H30013  10.181   2.861   8.893 -1.7008  0.8873 -1.5241
  985MOL0     H30014  10.017   2.601   8.902 -0.9204  1.9113  5.5682
  985MOL0     H30015  10.013   2.683   8.756 -0.5465 -2.5699 -0.1863
  985MOL0     H30016   9.812   2.740   8.873  1.2445 -0.9541 -0.3479
  985MOL0     H30017   9.915   2.781   9.014  4.0145 -2.8000 -0.0242
  985MOL0     H30018   9.986   3.143   8.852  0.2676 -0.9601 -0.4959
  985MOL0     H30019  10.354   2.459   8.912  1.0270 -3.0151  0.1727
  985MOL0     H30020  10.532   2.342   9.024  0.4374 -1.0096 -1.1063
  986MOL0     O30021   9.529   4.993   5.716 -0.7545 -0.2866  0.1834
  986MOL0     C30022   9.558   5.035   5.606 -0.0490 -0.0198 -0.9150
  986MOL0     O30023   9.501   5.152   5.551 -0.3901 -0.6737  0.2994
  986MOL0     C30024   9.407   5.228   5.608  0.2671  0.5107  0.0467
  986MOL0     C30025   9.351   5.225   5.741  0.2980  0.4901  0.4815
  986MOL0     C30026   9.262   5.320   5.775  0.3456 -0.3137  0.1711
  986MOL0     C30027   9.216   5.422   5.683 -1.6726 -0.2341  0.3292
  986MOL0     O30028   9.128   5.512   5.721 -0.4128 -0.0283  0.8007
  986MOL0     C30029   9.053   5.589   5.623 -0.0945  0.1690  1.2681
  986MOL0     C30030   8.945   5.665   5.684 -0.8925 -0.4258  0.1625
  986MOL0     C30031   8.828   5.578   5.720  0.2747 -0.3994 -0.9509
  986MOL0     C30032   8.770   5.645   5.848 -1.0485  0.4587 -0.6440
  986MOL0     C30033   8.627   5.585   5.883 -0.6624 -0.3969  0.0778
  986MOL0     C30034   8.520   5.607   5.775 -0.5308 -0.8954  0.4264
  986MOL0     C30035   8.374   5.575   5.817  0.1160  0.0402  0.0946
  986MOL0     C30036   8.244   5.593   5.732 -0.6815 -0.2434 -0.2619
  986MOL0     N30037   8.223   5.484   5.643  0.4757  0.0969  0.2668
  986MOL0     C30038   8.141   5.373   5.663  0.0463 -0.9497 -0.4553
  986MOL0     C30039   8.166   5.300   5.554 -0.1534  0.0412  0.9243
  986MOL0     C30040   8.081   5.172   5.546  0.3428  0.4441  0.3877
  986MOL0     C30041   8.135   5.089   5.424 -0.7700  0.1762 -0.2425
  986MOL0     C30042   8.252   5.008   5.479  1.3458 -1.0040  0.3796
  986MOL0     C30043   8.329   4.961   5.358 -0.0803 -0.3537 -0.2097
  986MOL0     O30044   8.259   4.870   5.277  0.1570  0.0752  0.4822
  986MOL0     C30045   8.330   4.786   5.189  0.4624 -0.3866  1.4275
  986MOL0     C30046   8.255   4.688   5.129 -0.1456 -0.0038 -0.0446
  986MOL0     C30047   8.303   4.608   5.022 -0.8060  0.4146 -0.6551
  986MOL0     C30048   8.432   4.618   4.978  0.6328 -0.5264 -0.0928
  986MOL0     C30049   8.489   4.520   4.883  0.3883  0.4334  0.6174
  986MOL0     O30050   8.631   4.509   4.895  0.4782 -0.8884 -0.2239
  986MOL0     C30051   8.706   4.441   4.801  0.0040 -0.1298  0.3770
  986MOL0     C30052   8.710   4.478   4.665  0.1699  0.0334 -1.0779
  986MOL0     C30053   8.781   4.401   4.575  0.7595 -0.4185  0.9159
  986MOL0     C30054   8.871   4.300   4.618  0.5944 -0.8374 -0.7220
  986MOL0     O30055   8.944   4.242   4.524  0.2326  0.2829 -0.4543
  986MOL0     C30056   9.057   4.162   4.565 -0.2603 -0.0773 -0.0571
  986MOL0     C30057   9.163   4.190   4.469 -0.1500  0.4827  0.4238
  986MOL0     C30058   9.234   4.319   4.499  0.4100 -0.2436 -0.2917
  986MOL0     C30059   9.355   4.347   4.413 -0.0559 -0.7350 -1.2050
  986MOL0     C30060   9.316   4.424   4.280 -1.0290 -0.1619  0.6486
  986MOL0     C30061   9.449   4.486   4.219  0.1165  0.9699  0.6943
  986MOL0     C30062   9.421   4.617   4.141 -0.1516 -0.2080  0.0810
  986MOL0     C30063   9.515   4.656   4.027  0.0074  0.7329  0.0319
  986MOL0    Cl30064   9.463   4.815   3.934 -0.1940 -0.3443  0.0323
  986MOL0     C30065   8.859   4.257   4.756  0.3545 -0.5756  0.5992
  986MOL0     C30066   8.780   4.334   4.840 -0.5689  0.2751 -0.0474
  986MOL0     O30067   8.420   4.452   4.802 -0.1166  0.8079  0.0171
  986MOL0     C30068   8.509   4.717   5.044  0.4801 -0.3285  0.8292
  986MOL0     C30069   8.454   4.804   5.139 -0.0397  0.3539  0.1367
  986MOL0     N30070   8.261   5.365   5.464 -0.3473 -0.1708 -0.4117
  986MOL0     N30071   8.295   5.476   5.523  0.5049 -0.5191 -0.2101
  986MOL0     C30072   9.271   5.410   5.553 -0.4862 -0.7797  0.6826
  986MOL0     C30073   9.362   5.308   5.507  0.3216 -0.3727 -0.0787
  986MOL0     C30074   9.661   4.966   5.539  0.3823  0.5976  0.8490
  986MOL0     C30075   9.684   4.829   5.571 -0.9935  0.6669  0.3863
  986MOL0     C30076   9.779   4.756   5.511 -0.2512  0.0095 -1.1472
  986MOL0     C30077   9.856   4.812   5.405 -0.0591  0.0482  0.1372
  986MOL0     O30078   9.942   4.743   5.322 -0.1348  0.3581  1.1335
  986MOL0     C30079   9.956   4.600   5.333 -0.1513  0.1217  0.4475
  986MOL0     C30080  10.074   4.567   5.247 -0.1404  0.0036  0.0388
  986MOL0     C30081  10.109   4.417   5.221 -0.6246  0.4882  0.1412
  986MOL0     C30082  10.235   4.370   5.146 -0.4604  1.0249 -0.8622
  986MOL0     C30083  10.365   4.415   5.206 -0.1222  0.2083  0.2309
  986MOL0     C30084  10.465   4.417   5.272  0.2098  0.0865  0.4026
  986MOL0     C30085   9.835   4.947   5.371  0.6092  0.3518 -0.6605
  986MOL0     C30086   9.735   5.025   5.436 -0.9590  0.5181  0.3716
  986MOL0     H30087   9.366   5.144   5.812  0.0555 -1.3596 -1.4784
  986MOL0     H30088   9.219   5.325   5.875 -0.4199 -0.1168 -0.1692
  986MOL0     H30089   9.020   5.527   5.539  0.1511  0.0729  1.2401
  986MOL0     H30090   9.112   5.673   5.585 -0.0423 -0.7392 -0.7924
  986MOL0     H30091   8.909   5.728   5.602 -0.9407 -1.0100 -0.2736
  986MOL0     H30092   8.995   5.719   5.765  0.5494 -1.9466  0.3387
  986MOL0     H30093   8.871   5.485   5.758 -0.1541 -0.3609 -0.3534
  986MOL0     H30094   8.760   5.556   5.638 -2.2409 -1.5715  1.2951
  986MOL0     H30095   8.830   5.618   5.935  0.8725 -3.9415 -2.9853
  986MOL0     H30096   8.771   5.755   5.842 -0.1079  0.4938 -0.0607
  986MOL0     H30097   8.606   5.635   5.978  1.1886 -0.0888  0.3626
  986MOL0     H30098   8.622   5.477   5.901 -1.0277 -0.0939  1.9790
  986MOL0     H30099   8.543   5.543   5.689  0.5473 -0.9277  0.7225
  986MOL0     H30100   8.525   5.715   5.759  0.5430 -1.2072 -1.5783
  986MOL0     H30101   8.366   5.475   5.862 -0.1986 -0.0799 -0.2241
  986MOL0     H30102   8.356   5.646   5.898 -0.9570  2.4558 -2.1010
  986MOL0     H30103   8.240   5.692   5.684 -2.0129  1.2365  2.6168
  986MOL0     H30104   8.164   5.623   5.800  2.4784 -0.3964  3.9335
  986MOL0     H30105   8.069   5.355   5.743  1.5961  1.5153  1.6519
  986MOL0     H30106   7.981   5.204   5.516 -0.3093 -2.1751 -0.5751
  986MOL0     H30107   8.081   5.110   5.636  0.4896 -0.8236 -0.4507
  986MOL0     H30108   8.176   5.155   5.348 -0.3374  1.6238  1.1725
  986MOL0     H30109   8.063   5.020   5.380  0.3288 -0.9440 -0.3138
  986MOL0     H30110   8.314   5.073   5.542  0.1802 -0.3926  0.9150
  986MOL0     H30111   8.217   4.921   5.535  0.1736  0.6832  2.3902
  986MOL0     H30112   8.418   4.917   5.404  0.8767  3.3829  1.9003
  986MOL0     H30113   8.366   5.041   5.293  0.1624 -1.1424 -1.0604
  986MOL0     H30114   8.157   4.671   5.172 -0.2052  1.7395  0.5822
  986MOL0     H30115   8.235   4.533   4.983 -0.6482 -0.3172  0.4534
  986MOL0     H30116   8.651   4.560   4.624 -1.6341 -1.8607 -2.4624
  986MOL0     H30117   8.788   4.419   4.469 -1.4738 -1.0000  0.6189
  986MOL0     H30118   9.036   4.055   4.569 -2.3123  0.3148  1.7686
  986MOL0     H30119   9.096   4.184   4.665 -0.3560 -2.2904  0.5074
  986MOL0     H30120   9.115   4.195   4.370 -0.8835  1.6892  0.8148
  986MOL0     H30121   9.238   4.112   4.457  0.9713  1.8426 -2.1178
  986MOL0     H30122   9.272   4.316   4.601 -0.0489 -0.5443 -0.1258
  986MOL0     H30123   9.161   4.400   4.493  2.3525  1.6198 -0.1819
  986MOL0     H30124   9.420   4.408   4.476 -0.0973 -0.1378 -1.7305
  986MOL0     H30125   9.403   4.251   4.389 -0.8551 -1.2435 -0.8084
  986MOL0     H30126   9.241   4.498   4.310  0.2759  1.4297  0.0955
  986MOL0     H30127   9.270   4.363   4.202 -0.9688  1.9929 -1.1583
  986MOL0     H30128   9.495   4.417   4.147 -1.8500  0.7083 -0.3784
  986MOL0     H30129   9.510   4.512   4.306  1.1214 -1.9090  0.9770
  986MOL0     H30130   9.323   4.614   4.092 -0.0410 -1.6506 -0.0715
  986MOL0     H30131   9.430   4.697   4.216 -1.3234 -1.5338  1.7163
  986MOL0     H30132   9.524   4.578   3.951 -0.3343 -1.6847  2.2943
  986MOL0     H30133   9.617   4.666   4.064  0.1132 -2.4437  0.9218
  986MOL0     H30134   8.902   4.169   4.803 -2.3106 -0.4313  3.6594
  986MOL0     H30135   8.796   4.319   4.947  0.6740 -0.0494 -0.2563
  986MOL0     H30136   8.611   4.736   5.013 -0.5590  2.4026 -1.3307
  986MOL0     H30137   8.503   4.896   5.170 -1.5988  1.1103  0.4126
  986MOL0     H30138   9.239   5.486   5.482  0.5684  0.0959  1.1013
  986MOL0     H30139   9.406   5.295   5.409  0.2033  1.7972 -0.4673
  986MOL0     H30140   9.629   4.788   5.654 -1.2290  1.9721  0.8870
  986MOL0     H30141   9.784   4.655   5.550  0.2678  0.7664  0.8836
  986MOL0     H30142   9.868   4.550   5.293 -1.9817  0.4647  3.7037
  986MOL0     H30143   9.980   4.564   5.434 -1.1418 -2.3148 -0.1157
  986MOL0     H30144  10.051   4.614   5.151 -1.6533  1.0564  0.8903
  986MOL0     H30145  10.163   4.615   5.289 -0.8431 -0.2426  1.9104
  986MOL0     H30146  10.022   4.366   5.179 -2.6456  1.3599  2.9027
  986MOL0     H30147  10.114   4.365   5.318 -4.0887 -0.9743 -0.2978
  986MOL0     H30148  10.229   4.261   5.148  0.9105  0.8951 -1.8529
  986MOL0     H30149  10.221   4.410   5.045  1.7583  4.1269 -0.0812
  986MOL0     H30150  10.551   4.423   5.335  0.2146 -0.9608  0.5148
  986MOL0     H30151   9.894   4.992   5.292  0.2030 -0.8268 -1.6577
  986MOL0     H30152   9.731   5.128   5.401 -1.2417  0.1640 -0.6839
  987MOL0     O30153   6.500   9.161   3.034 -0.4718 -0.2012 -0.5177
  987MOL0     C30154   6.521   9.101   3.135 -0.4002 -0.8064  0.0221
  987MOL0     O30155   6.444   9.112   3.243 -0.4941 -0.4806 -0.3192
  987MOL0     C30156   6.350   9.212   3.257 -0.5428  0.2940 -0.2190
  987MOL0     C30157   6.382   9.336   3.313 -0.8229 -0.5052  0.1172
  987MOL0     C30158   6.284   9.440   3.320 -0.7243 -0.6212 -0.7967
  987MOL0     C30159   6.154   9.405   3.294 -0.3749  0.0830 -0.0763
  987MOL0     O30160   6.052   9.493   3.313  0.9937  0.1481 -0.0190
  987MOL0     C30161   6.049   9.600   3.408  0.0146  0.8972 -0.3294
  987MOL0     C30162   5.953   9.558   3.522  0.6118 -0.5782  0.0301
  987MOL0     C30163   6.000   9.453   3.630  0.2244 -0.5103  0.0782
  987MOL0     C30164   5.893   9.427   3.734  0.1815  0.2857 -0.4557
  987MOL0     C30165   5.762   9.397   3.677 -1.5032 -0.2462 -0.0175
  987MOL0     C30166   5.753   9.276   3.579  0.6273 -0.8147  0.0150
  987MOL0     C30167   5.627   9.289   3.484 -0.2462 -0.6316 -0.3448
  987MOL0     C30168   5.504   9.340   3.559  0.1280  0.0890 -0.0891
  987MOL0     N30169   5.396   9.368   3.466 -1.0426  0.1020  0.1430
  987MOL0     C30170   5.270   9.331   3.486  0.2010 -0.3951  0.1084
  987MOL0     C30171   5.205   9.339   3.368  0.3118  0.1434  0.3728
  987MOL0     C30172   5.071   9.298   3.329  0.4037  0.3676 -0.5888
  987MOL0     C30173   4.994   9.221   3.443  0.0352 -0.0656 -0.4142
  987MOL0     C30174   4.849   9.194   3.408 -0.3272  0.5198  0.4697
  987MOL0     C30175   4.833   9.128   3.273  0.1437 -0.2464  0.5435
  987MOL0     O30176   4.703   9.064   3.270  0.7773  0.1462 -0.7377
  987MOL0     C30177   4.582   9.128   3.266 -0.0770 -0.0615  1.0590
  987MOL0     C30178   4.473   9.044   3.275  0.4716 -0.0739 -0.4343
  987MOL0     C30179   4.346   9.099   3.306 -0.5972  0.3494 -0.0858
  987MOL0     C30180   4.322   9.237   3.286  0.2714  0.3172 -0.4915
  987MOL0     C30181   4.190   9.289   3.295 -0.7672  0.2494 -0.3795
  987MOL0     O30182   4.173   9.410   3.238 -0.0096  0.1675 -0.1376
  987MOL0     C30183   4.045   9.459   3.245 -0.7716 -0.1308 -0.2737
  987MOL0     C30184   3.967   9.473   3.127  0.9806 -0.3531 -0.3528
  987MOL0     C30185   3.836   9.531   3.130 -0.7094 -0.5125 -0.0095
  987MOL0     C30186   3.791   9.594   3.248  0.5131 -0.4531  0.1308
  987MOL0     O30187   3.666   9.649   3.240 -0.1911 -0.0476  0.4298
  987MOL0     C30188   3.581   9.654   3.363  0.3459 -0.2581  1.1660
  987MOL0     C30189   3.433   9.681   3.333  0.0470 -0.0282  0.2460
  987MOL0     C30190   3.409   9.829   3.348  0.4709  0.3436 -0.0080
  987MOL0     C30191   3.467   9.906   3.234 -0.1065 -0.4981  0.2359
  987MOL0     C30192   3.473  10.042   3.278 -0.4722  0.2603 -1.4900
  987MOL0     C30193   3.540  10.142   3.175 -0.1300 -0.2814  0.7005
  987MOL0     C30194   3.548  10.282   3.230  0.0007 -1.3892  0.8732
  987MOL0     C30195   3.669  10.350   3.174 -1.2559 -0.0910 -0.0349
  987MOL0    Cl30196   3.645  10.529   3.186 -0.9047  0.3726 -0.1063
  987MOL0     C30197   3.864   9.579   3.365 -0.2206  0.3206  0.3994
  987MOL0     C30198   3.990   9.503   3.363 -0.1472  0.7524  0.4157
  987MOL0     O30199   4.103   9.215   3.336 -0.0159  0.2465  0.1449
  987MOL0     C30200   4.435   9.321   3.256 -1.2710  0.3769  0.3045
  987MOL0     C30201   4.560   9.266   3.247  0.0692 -0.7090  0.5981
  987MOL0     N30202   5.297   9.397   3.276  0.5254 -0.0955  0.1765
  987MOL0     N30203   5.407   9.411   3.335 -0.2164 -1.1780 -0.6783
  987MOL0     C30204   6.122   9.271   3.255  0.1407  0.7854 -0.6321
  987MOL0     C30205   6.221   9.174   3.240  0.0180  0.0326  0.6278
  987MOL0     C30206   6.632   9.012   3.131  0.5711  0.2722 -0.2795
  987MOL0     C30207   6.669   8.955   3.247  0.5754  0.4288 -0.7575
  987MOL0     C30208   6.782   8.862   3.249  0.7708 -0.6339  1.4934
  987MOL0     C30209   6.838   8.827   3.128 -0.1439 -0.8107  0.3919
  987MOL0     O30210   6.938   8.737   3.134 -0.6549  0.1625 -0.2501
  987MOL0     C30211   6.921   8.610   3.069  0.3526  0.2586 -0.1208
  987MOL0     C30212   6.995   8.501   3.141  0.3001  0.2248 -0.2953
  987MOL0     C30213   7.157   8.527   3.159 -0.1566  0.0774  0.1333
  987MOL0     C30214   7.181   8.598   3.298  0.4903  0.8589  1.0169
  987MOL0     C30215   7.208   8.508   3.419 -1.7081  0.0121  0.4779
  987MOL0     C30216   7.225   8.432   3.512  0.1826  0.6336  0.3705
  987MOL0     C30217   6.805   8.902   3.008  0.8916  0.9861 -0.3057
  987MOL0     C30218   6.694   8.970   3.013 -0.5492 -0.1455 -0.2891
  987MOL0     H30219   6.483   9.357   3.347 -0.7320  3.6028 -2.0047
  987MOL0     H30220   6.311   9.540   3.350 -2.0942 -1.1053  2.5029
  987MOL0     H30221   6.019   9.686   3.348  0.4409 -0.9267 -3.3588
  987MOL0     H30222   6.148   9.618   3.452 -1.2250  0.0674  3.1485
  987MOL0     H30223   5.878   9.499   3.470  1.1661 -0.2572 -1.1715
  987MOL0     H30224   5.923   9.649   3.575  0.1150 -0.9506  0.3835
  987MOL0     H30225   6.089   9.498   3.675  0.5862  0.2492 -1.3337
  987MOL0     H30226   6.020   9.355   3.585 -3.7506 -0.8056 -1.4534
  987MOL0     H30227   5.921   9.337   3.790 -2.0973 -0.8072 -0.9473
  987MOL0     H30228   5.886   9.499   3.816 -0.1209  0.6946 -0.8344
  987MOL0     H30229   5.734   9.489   3.623  2.8320  0.1661 -1.9606
  987MOL0     H30230   5.694   9.374   3.759  0.8904 -2.7342  1.4028
  987MOL0     H30231   5.741   9.193   3.649 -1.0972  0.5157  1.3694
  987MOL0     H30232   5.840   9.264   3.514  2.1972 -0.2191  1.9150
  987MOL0     H30233   5.645   9.362   3.405 -2.2801  0.4635  0.1097
  987MOL0     H30234   5.604   9.190   3.443 -0.4029 -0.4372 -0.7277
  987MOL0     H30235   5.533   9.431   3.612  1.3021  0.1875 -0.8645
  987MOL0     H30236   5.467   9.267   3.632  0.4157  0.0620  0.0296
  987MOL0     H30237   5.232   9.294   3.580  2.7950 -1.2487  0.9089
  987MOL0     H30238   5.082   9.225   3.248  5.4972  1.1481 -0.8993
  987MOL0     H30239   5.016   9.388   3.300 -0.5784 -0.3189 -0.9527
  987MOL0     H30240   4.987   9.281   3.534  3.4472  0.9456 -0.6960
  987MOL0     H30241   5.047   9.136   3.486  0.7434 -0.4603 -2.0250
  987MOL0     H30242   4.801   9.126   3.478  0.8502 -1.2287 -0.3425
  987MOL0     H30243   4.798   9.291   3.402 -1.2878 -0.0389 -1.3187
  987MOL0     H30244   4.897   9.041   3.261  3.1124  1.2951  3.6292
  987MOL0     H30245   4.849   9.198   3.191  2.3333 -2.8314 -1.3939
  987MOL0     H30246   4.502   8.941   3.298  2.5020  0.4897 -0.3156
  987MOL0     H30247   4.273   9.032   3.349  0.4007 -1.7811 -1.5457
  987MOL0     H30248   4.018   9.443   3.035 -3.3707  0.9268 -3.5125
  987MOL0     H30249   3.784   9.554   3.038 -1.2492  0.6732  0.5661
  987MOL0     H30250   3.627   9.741   3.410 -2.4540  2.8324 -1.3731
  987MOL0     H30251   3.604   9.559   3.412 -0.4698 -1.2495 -0.2820
  987MOL0     H30252   3.370   9.624   3.403 -1.7006  1.0389 -0.3781
  987MOL0     H30253   3.403   9.639   3.236 -0.7504 -2.9431  1.6469
  987MOL0     H30254   3.449   9.858   3.446 -0.2055  0.7307  0.1597
  987MOL0     H30255   3.301   9.838   3.357  0.3365 -1.8910  1.5140
  987MOL0     H30256   3.567   9.874   3.201  0.6773  2.5311 -0.6818
  987MOL0     H30257   3.396   9.895   3.152 -1.1103  0.2687  0.9786
  987MOL0     H30258   3.527  10.042   3.374 -0.8038 -1.4974 -1.2808
  987MOL0     H30259   3.370  10.067   3.307 -0.0549 -1.1739  1.7194
  987MOL0     H30260   3.467  10.134   3.093 -4.7951 -3.7102  4.5602
  987MOL0     H30261   3.642  10.117   3.143  1.2349  3.0684  2.0598
  987MOL0     H30262   3.459  10.343   3.215  0.8027 -0.1596  0.9542
  987MOL0     H30263   3.571  10.275   3.337  2.2983  1.7786  0.7181
  987MOL0     H30264   3.689  10.319   3.072  0.1978  0.0790  0.1709
  987MOL0     H30265   3.756  10.315   3.230 -0.2059 -0.2146 -1.6842
  987MOL0     H30266   3.845   9.626   3.461 -1.3652 -0.3220  0.5001
  987MOL0     H30267   4.034   9.476   3.458 -1.0434 -1.3312  0.2896
  987MOL0     H30268   4.429   9.428   3.240  0.0082  0.0538 -3.3207
  987MOL0     H30269   4.646   9.331   3.236 -0.6801  0.2227  0.0422
  987MOL0     H30270   6.018   9.246   3.234  0.1769  0.4430 -0.4054
  987MOL0     H30271   6.201   9.070   3.219 -0.6058  0.9267 -4.3449
  987MOL0     H30272   6.618   8.966   3.342  1.2152 -2.5148  0.0184
  987MOL0     H30273   6.830   8.817   3.335 -1.0914 -2.8436  1.4751
  987MOL0     H30274   6.958   8.614   2.966 -0.3601 -2.5959 -0.5705
  987MOL0     H30275   6.815   8.595   3.048  0.5742 -0.4716 -0.7489
  987MOL0     H30276   6.956   8.483   3.242  4.7340 -1.7113  1.3170
  987MOL0     H30277   6.988   8.409   3.083  1.0705 -0.0213 -0.0084
  987MOL0     H30278   7.207   8.594   3.089 -0.9283  1.6217  1.0010
  987MOL0     H30279   7.204   8.429   3.151 -0.8001 -0.1083 -2.3123
  987MOL0     H30280   7.259   8.673   3.282  1.5376 -0.2095  0.9122
  987MOL0     H30281   7.091   8.654   3.325 -1.0861 -1.8074  1.6942
  987MOL0     H30282   7.242   8.364   3.593 -0.0254 -0.1953 -0.2723
  987MOL0     H30283   6.865   8.885   2.919 -2.5900 -0.7727 -2.5412
  987MOL0     H30284   6.648   9.007   2.922 -0.7647  1.2713  0.3745
  988MOL0     O30285   6.117   7.562   8.324 -0.4278  0.3247  0.1282
  988MOL0     C30286   6.009   7.590   8.368  0.7666 -0.5808 -0.3009
  988MOL0     O30287   5.884   7.539   8.330 -0.4484  0.0021 -0.4752
  988MOL0     C30288   5.854   7.433   8.250  0.7594  0.5990 -1.1798
  988MOL0     C30289   5.732   7.363   8.265 -0.4169 -0.7564  0.0682
  988MOL0     C30290   5.707   7.254   8.183 -1.1826 -0.4212 -0.5321
  988MOL0     C30291   5.807   7.191   8.100  0.7908  0.8169  0.0351
  988MOL0     O30292   5.775   7.087   8.018 -0.1782 -0.2703 -0.3544
  988MOL0     C30293   5.802   6.950   8.056  0.8007  0.1232 -0.5481
  988MOL0     C30294   5.744   6.910   8.194  0.7176  0.4134  0.4454
  988MOL0     C30295   5.589   6.888   8.185 -0.3966  0.4810  0.4584
  988MOL0     C30296   5.549   6.787   8.071  0.5834  0.0866  1.0509
  988MOL0     C30297   5.426   6.699   8.128 -0.8503 -0.4004  0.0061
  988MOL0     C30298   5.354   6.651   7.999  0.1991  0.9508  0.2172
  988MOL0     C30299   5.242   6.552   8.039 -0.2846 -0.2371  0.3063
  988MOL0     C30300   5.153   6.498   7.915  0.0468  0.3774 -0.6768
  988MOL0     N30301   5.223   6.473   7.796 -0.7775  0.0487  0.8965
  988MOL0     C30302   5.319   6.378   7.790 -0.0864 -0.0669 -0.3307
  988MOL0     C30303   5.391   6.425   7.679 -0.3688 -0.6566 -0.2859
  988MOL0     C30304   5.503   6.358   7.616 -0.6215  0.3485 -0.8113
  988MOL0     C30305   5.544   6.416   7.483  0.1940  0.1801  0.2766
  988MOL0     C30306   5.444   6.366   7.367 -0.5766 -0.3294 -0.7834
  988MOL0     C30307   5.480   6.442   7.245 -0.1110 -1.0575 -0.2175
  988MOL0     O30308   5.606   6.388   7.184  0.3585  0.7741 -0.1985
  988MOL0     C30309   5.715   6.462   7.156 -0.1445  0.2640  0.2159
  988MOL0     C30310   5.728   6.588   7.214  0.2755  0.7340 -0.1443
  988MOL0     C30311   5.842   6.659   7.195  0.0434 -0.1710 -0.3149
  988MOL0     C30312   5.948   6.600   7.126 -0.7247 -0.5489  0.0419
  988MOL0     C30313   6.075   6.673   7.113 -0.9058 -1.1111 -0.2400
  988MOL0     O30314   6.114   6.764   7.205  0.1082 -0.3396 -0.0101
  988MOL0     C30315   6.199   6.865   7.158  0.1167  0.3318  0.1277
  988MOL0     C30316   6.320   6.884   7.225 -0.8097  0.4519  0.1175
  988MOL0     C30317   6.407   6.984   7.183  0.0270  0.5000  0.2959
  988MOL0     C30318   6.366   7.075   7.084 -0.6444 -0.0026  0.2083
  988MOL0     O30319   6.450   7.178   7.049  0.2955 -0.1676  0.1984
  988MOL0     C30320   6.508   7.168   6.919  0.2915  0.4932 -0.1968
  988MOL0     C30321   6.598   7.289   6.878  1.4953 -0.1110 -0.1732
  988MOL0     C30322   6.707   7.313   6.983  0.5556  0.0699 -0.9137
  988MOL0     C30323   6.789   7.441   6.952 -0.3253  0.0710 -0.2370
  988MOL0     C30324   6.898   7.476   7.059 -0.3738 -0.1698 -0.3892
  988MOL0     C30325   7.007   7.578   7.021 -0.5034 -1.2346 -0.7307
  988MOL0     C30326   6.954   7.719   6.969  0.6942 -0.0894 -0.4695
  988MOL0     C30327   6.857   7.801   7.046  0.4711  0.0337 -1.4349
  988MOL0    Cl30328   6.819   7.957   6.971  0.1171  0.1289  0.7731
  988MOL0     C30329   6.245   7.064   7.022  0.1090 -0.1832 -0.8369
  988MOL0     C30330   6.160   6.959   7.050 -0.1893  0.9660 -0.0881
  988MOL0     O30331   6.136   6.649   7.010 -0.4586  0.4450  0.2070
  988MOL0     C30332   5.938   6.473   7.070 -0.0623  0.0291  0.9615
  988MOL0     C30333   5.822   6.397   7.094 -0.0792 -0.2782  0.1414
  988MOL0     N30334   5.353   6.549   7.637 -0.4266  0.2519  0.1833
  988MOL0     N30335   5.241   6.574   7.706 -0.2933 -0.9844  0.1454
  988MOL0     C30336   5.917   7.274   8.078 -0.7716  0.2419 -0.0172
  988MOL0     C30337   5.940   7.389   8.150 -0.2807 -0.5636 -0.7469
  988MOL0     C30338   6.008   7.706   8.464 -0.2207  0.7380 -0.1802
  988MOL0     C30339   5.901   7.712   8.558 -0.3098  0.9157 -0.1990
  988MOL0     C30340   5.899   7.816   8.656  0.5113  0.5161  0.3254
  988MOL0     C30341   5.992   7.923   8.641 -0.2633  1.0907 -0.3639
  988MOL0     O30342   5.981   8.031   8.729  0.2405  0.3275  0.2630
  988MOL0     C30343   6.101   8.107   8.762  0.4768 -0.4227  0.6953
  988MOL0     C30344   6.194   8.048   8.864  1.0105 -0.1184 -0.3539
  988MOL0     C30345   6.290   8.147   8.934 -0.0166 -0.5593 -0.2386
  988MOL0     C30346   6.408   8.188   8.840  0.4282  0.0413  0.3955
  988MOL0     C30347   6.377   8.269   8.722 -0.5069 -0.2879 -0.4420
  988MOL0     C30348   6.369   8.354   8.634 -0.4089  0.8662 -0.0036
  988MOL0     C30349   6.084   7.921   8.539  0.2906 -0.2699 -0.6674
  988MOL0     C30350   6.089   7.817   8.450  0.3553 -1.8340 -0.3375
  988MOL0     H30351   5.657   7.425   8.312  1.6501  1.8616  0.1886
  988MOL0     H30352   5.617   7.196   8.202  0.2881 -2.2202  1.3709
  988MOL0     H30353   5.910   6.929   8.057  1.0809  1.5209  0.3832
  988MOL0     H30354   5.765   6.885   7.976 -0.4610 -1.5308  1.2788
  988MOL0     H30355   5.770   6.987   8.266  0.8607  0.3443  0.4673
  988MOL0     H30356   5.785   6.817   8.236  0.8788  1.2099  2.1193
  988MOL0     H30357   5.535   6.983   8.178 -1.4608  0.0481  2.1263
  988MOL0     H30358   5.565   6.840   8.280  1.3616 -0.9898  0.2122
  988MOL0     H30359   5.509   6.847   7.988 -2.1973  0.0039  2.2156
  988MOL0     H30360   5.634   6.725   8.041  0.1070  0.2326 -0.7437
  988MOL0     H30361   5.362   6.736   8.208  0.2458  0.9013  0.3046
  988MOL0     H30362   5.474   6.614   8.177  0.9286 -1.6024 -3.5028
  988MOL0     H30363   5.430   6.604   7.936 -0.3781  0.3599 -0.0531
  988MOL0     H30364   5.321   6.746   7.954  1.5806  1.2355 -0.2397
  988MOL0     H30365   5.299   6.476   8.094 -1.9365 -2.3072 -0.7074
  988MOL0     H30366   5.174   6.599   8.110  0.0965 -0.4049  0.7832
  988MOL0     H30367   5.071   6.570   7.903  0.4265  0.9463  0.0120
  988MOL0     H30368   5.100   6.408   7.948 -1.8114  1.7523  0.3084
  988MOL0     H30369   5.333   6.297   7.861 -0.7832  0.6296  0.6289
  988MOL0     H30370   5.486   6.251   7.598  3.0823 -1.0964  2.7265
  988MOL0     H30371   5.595   6.353   7.676  0.4832 -0.1377 -2.4775
  988MOL0     H30372   5.646   6.387   7.458  0.5717  0.3230  1.5682
  988MOL0     H30373   5.548   6.525   7.490 -0.0261  0.2357 -0.4498
  988MOL0     H30374   5.444   6.261   7.338  0.0312  0.0658 -2.2807
  988MOL0     H30375   5.342   6.398   7.390 -0.4994  0.8886 -2.0013
  988MOL0     H30376   5.480   6.548   7.269 -0.0722 -0.6305 -1.9960
  988MOL0     H30377   5.396   6.420   7.178 -1.4499 -4.2066  2.2135
  988MOL0     H30378   5.650   6.650   7.255  1.7450  2.8638 -0.4330
  988MOL0     H30379   5.832   6.758   7.239  0.0212 -1.6591  3.2979
  988MOL0     H30380   6.359   6.827   7.309 -1.7301  0.8746  0.8360
  988MOL0     H30381   6.510   6.995   7.215  1.5299 -1.4576 -3.2495
  988MOL0     H30382   6.435   7.153   6.839 -2.0020  1.9180  1.5076
  988MOL0     H30383   6.575   7.082   6.928 -0.0707  0.3703  1.8281
  988MOL0     H30384   6.546   7.385   6.866  1.0612 -0.4477 -0.9960
  988MOL0     H30385   6.640   7.258   6.782  2.5623  0.8334 -0.0347
  988MOL0     H30386   6.773   7.226   6.970 -1.1371 -1.2306 -1.2136
  988MOL0     H30387   6.680   7.311   7.089 -3.2063  0.6741 -1.7420
  988MOL0     H30388   6.831   7.423   6.853 -0.1115 -0.3596 -0.0715
  988MOL0     H30389   6.727   7.531   6.943  0.0137  0.5445  1.6580
  988MOL0     H30390   6.953   7.384   7.079  0.8385  0.6610  0.2416
  988MOL0     H30391   6.841   7.510   7.146 -0.7711  0.5642 -0.9265
  988MOL0     H30392   7.050   7.532   6.932  1.8161 -1.0601  0.2196
  988MOL0     H30393   7.089   7.592   7.091 -1.0288  2.6707 -0.6295
  988MOL0     H30394   7.040   7.785   6.950 -1.5981  2.7551 -1.6962
  988MOL0     H30395   6.918   7.710   6.866 -1.4827 -0.2085  0.2553
  988MOL0     H30396   6.898   7.812   7.147 -0.1040 -1.7482 -0.9750
  988MOL0     H30397   6.768   7.740   7.061 -0.9050  2.4346  1.4898
  988MOL0     H30398   6.230   7.140   6.945 -1.5188  1.2845  0.8434
  988MOL0     H30399   6.069   6.958   6.991  1.5457  1.8930 -2.9984
  988MOL0     H30400   6.021   6.431   7.015  0.9463  0.5584  2.0401
  988MOL0     H30401   5.813   6.292   7.068  2.2842 -0.3995 -0.4087
  988MOL0     H30402   5.988   7.246   8.001  0.8550 -2.8327  2.3551
  988MOL0     H30403   6.034   7.442   8.142 -0.6379  0.7647  2.2807
  988MOL0     H30404   5.828   7.632   8.565 -0.3549  0.9708 -0.0560
  988MOL0     H30405   5.825   7.816   8.735  1.2617 -0.2250  1.0595
  988MOL0     H30406   6.052   8.202   8.787 -2.7553 -1.3562 -1.4595
  988MOL0     H30407   6.153   8.139   8.671  0.7239 -1.2508  0.5395
  988MOL0     H30408   6.129   8.007   8.942  0.3551  3.4844  1.1647
  988MOL0     H30409   6.251   7.976   8.803 -0.2525 -1.1172 -0.3923
  988MOL0     H30410   6.336   8.086   9.013  0.2519 -2.6965 -1.9444
  988MOL0     H30411   6.234   8.232   8.973  1.1447  1.9824 -3.6135
  988MOL0     H30412   6.481   8.244   8.899  0.4293 -0.9453  1.3514
  988MOL0     H30413   6.457   8.098   8.802 -0.2437 -1.2473  2.3956
  988MOL0     H30414   6.337   8.417   8.553 -1.4535 -0.5117 -0.6967
  988MOL0     H30415   6.162   7.997   8.536  0.1761  0.0570  1.9590
  988MOL0     H30416   6.169   7.808   8.377  0.7389 -5.0421  0.3073
  989MOL0     O30417   4.033   0.857   0.328 -0.7594  0.0862 -0.6039
  989MOL0     C30418   4.046   0.943   0.416  0.2143 -0.3930 -0.0283
  989MOL0     O30419   4.080   0.929   0.546  0.0003  0.2103  0.0217
  989MOL0     C30420   4.048   0.804   0.597 -0.7204 -0.1125 -0.8378
  989MOL0     C30421   4.128   0.687   0.560 -0.1458  0.5381  0.3622
  989MOL0     C30422   4.100   0.563   0.616 -0.3064 -0.0382 -0.2048
  989MOL0     C30423   3.987   0.543   0.690 -0.2873  0.0688 -0.6778
  989MOL0     O30424   3.958   0.414   0.731 -0.1894 -0.3595  0.5230
  989MOL0     C30425   3.820   0.388   0.776 -0.4753  0.9314  1.4432
  989MOL0     C30426   3.791   0.233   0.764  0.5469 -0.3344 -0.2241
  989MOL0     C30427   3.795   0.177   0.614 -0.1679 -0.3139 -0.2293
  989MOL0     C30428   3.681   0.245   0.528 -0.3538 -0.9545  0.3832
  989MOL0     C30429   3.693   0.202   0.382 -0.1536 -0.9687 -0.1604
  989MOL0     C30430   3.602   0.264   0.282 -0.2941 -0.4338 -0.2009
  989MOL0     C30431   3.606   0.423   0.270  0.9575 -0.0177 -0.6633
  989MOL0     C30432   3.528   0.482   0.150 -0.2991 -0.0072  0.0994
  989MOL0     N30433   3.385   0.457   0.149  0.1837 -0.0091 -0.0946
  989MOL0     C30434   3.292   0.546   0.108  0.5944 -0.6657  0.4258
  989MOL0     C30435   3.177   0.480   0.098 -0.5110  0.1899 -0.0284
  989MOL0     C30436   3.037   0.539   0.065 -0.1577 -0.3102 -0.4053
  989MOL0     C30437   2.948   0.569   0.187  0.0593 -0.6126  0.5992
  989MOL0     C30438   2.850   0.450   0.237  0.6079 -0.3283 -0.3932
  989MOL0     C30439   2.716   0.511   0.296  0.9754  0.9075  0.2474
  989MOL0     O30440   2.639   0.418   0.376 -0.4310  0.6558  0.8781
  989MOL0     C30441   2.517   0.464   0.421 -0.6177  1.0236  0.0316
  989MOL0     C30442   2.488   0.462   0.555  0.1576  1.1157 -0.4893
  989MOL0     C30443   2.372   0.511   0.607  0.3881  0.0089 -0.3980
  989MOL0     C30444   2.274   0.564   0.535  0.4475  0.2880  1.0159
  989MOL0     C30445   2.143   0.612   0.587 -0.5396  0.6441 -0.0257
  989MOL0     O30446   2.123   0.598   0.715 -0.2032  0.4542 -0.9499
  989MOL0     C30447   2.005   0.639   0.770  0.2604 -0.2376 -0.3655
  989MOL0     C30448   1.899   0.728   0.723  0.1431 -0.2950 -0.4606
  989MOL0     C30449   1.777   0.747   0.800 -0.1750  0.1001  0.5044
  989MOL0     C30450   1.770   0.686   0.923 -0.0466  0.4431  0.3607
  989MOL0     O30451   1.675   0.708   1.014  0.9233  0.1283  0.0469
  989MOL0     C30452   1.534   0.711   0.982  0.0214 -0.6199  0.1605
  989MOL0     C30453   1.474   0.823   1.064  0.7808 -0.4924 -0.4302
  989MOL0     C30454   1.474   0.799   1.215  0.8999 -0.7109 -0.2014
  989MOL0     C30455   1.432   0.926   1.292  0.0587 -0.6129  0.1505
  989MOL0     C30456   1.449   0.912   1.448 -0.7772 -0.4421  0.2266
  989MOL0     C30457   1.321   0.845   1.502  0.0012 -0.3024 -0.4550
  989MOL0     C30458   1.327   0.851   1.652  1.1762  0.2275 -0.2022
  989MOL0     C30459   1.355   0.719   1.710  0.3300 -1.1772  0.6729
  989MOL0    Cl30460   1.415   0.730   1.875  0.2638 -0.2357 -0.1071
  989MOL0     C30461   1.872   0.594   0.965  1.0410  0.3081 -0.4487
  989MOL0     C30462   1.979   0.578   0.895  0.0599 -0.2676  0.2751
  989MOL0     O30463   2.060   0.655   0.513  0.1469  0.1025 -0.3420
  989MOL0     C30464   2.286   0.551   0.397 -0.6653  1.3717 -0.1406
  989MOL0     C30465   2.405   0.499   0.342 -0.6346  0.6975 -0.2118
  989MOL0     N30466   3.198   0.347   0.136  0.7664  0.0929 -0.3619
  989MOL0     N30467   3.321   0.339   0.173  0.1338  0.0394 -0.1064
  989MOL0     C30468   3.904   0.656   0.721  0.4762  0.6243 -0.5511
  989MOL0     C30469   3.939   0.785   0.684  0.3707  0.0875 -0.7219
  989MOL0     C30470   4.048   1.079   0.359 -0.2042 -0.1623  0.2456
  989MOL0     C30471   4.116   1.177   0.419  0.1757 -0.9134  0.2402
  989MOL0     C30472   4.146   1.297   0.346 -0.3752 -1.1860 -0.4391
  989MOL0     C30473   4.081   1.316   0.221 -0.6242 -1.2368  0.2827
  989MOL0     O30474   4.085   1.419   0.141  0.6327  0.2312  0.5207
  989MOL0     C30475   4.166   1.532   0.161 -0.2657  0.3248 -0.3844
  989MOL0     C30476   4.108   1.627   0.258 -0.6224 -0.5208 -0.0418
  989MOL0     C30477   4.191   1.762   0.256  1.4977 -0.3255  0.5946
  989MOL0     C30478   4.151   1.840   0.377  1.1405  0.4547  0.1516
  989MOL0     C30479   4.235   1.954   0.385 -0.2408 -0.5318 -0.8787
  989MOL0     C30480   4.299   2.060   0.413 -0.2037  0.1520 -0.2518
  989MOL0     C30481   4.010   1.219   0.167  0.2382  1.6002 -0.6033
  989MOL0     C30482   3.997   1.099   0.230  0.2951  0.9750 -1.0958
  989MOL0     H30483   4.221   0.699   0.506  0.1282 -0.3011  0.6285
  989MOL0     H30484   4.160   0.476   0.596  1.3144  0.5463  1.7871
  989MOL0     H30485   3.757   0.439   0.703  0.5012 -1.0939 -0.9560
  989MOL0     H30486   3.819   0.430   0.877  1.4033  1.0955  1.4177
  989MOL0     H30487   3.696   0.217   0.815  0.1242  0.6350 -0.6853
  989MOL0     H30488   3.863   0.179   0.826  2.9398  0.5889 -2.0366
  989MOL0     H30489   3.778   0.070   0.626 -0.1773 -0.3344 -0.4281
  989MOL0     H30490   3.889   0.206   0.567  0.2310  1.4731  1.5358
  989MOL0     H30491   3.583   0.217   0.570 -1.2624  1.3796 -0.0211
  989MOL0     H30492   3.681   0.354   0.540 -1.4738 -1.1176  2.3680
  989MOL0     H30493   3.681   0.095   0.363 -2.0750 -0.5106 -1.8877
  989MOL0     H30494   3.790   0.235   0.344 -0.2515 -1.8485 -1.1995
  989MOL0     H30495   3.509   0.222   0.323  0.7790 -1.6808  1.0537
  989MOL0     H30496   3.644   0.226   0.188  3.6326  0.5717  0.9726
  989MOL0     H30497   3.570   0.473   0.360  2.7114 -0.7751  0.5325
  989MOL0     H30498   3.711   0.449   0.257  1.2495 -0.0752  1.2832
  989MOL0     H30499   3.570   0.436   0.061 -0.6693 -2.1282  0.9546
  989MOL0     H30500   3.553   0.588   0.155 -1.6150  0.3161  0.1964
  989MOL0     H30501   3.307   0.653   0.098  2.5295 -0.8697  0.7495
  989MOL0     H30502   2.986   0.468  -0.001 -0.2441  0.0871 -0.7683
  989MOL0     H30503   3.037   0.637   0.017  0.3374  0.2047  0.6182
  989MOL0     H30504   2.901   0.662   0.154  3.0590  0.0128 -2.4949
  989MOL0     H30505   3.027   0.588   0.260  2.6419 -0.8737 -1.9827
  989MOL0     H30506   2.819   0.392   0.149 -0.8035  3.4165 -2.5812
  989MOL0     H30507   2.895   0.387   0.314  0.1546  1.9028  1.8062
  989MOL0     H30508   2.652   0.554   0.218  0.1752  0.0698  0.4286
  989MOL0     H30509   2.732   0.603   0.353 -2.0048  1.8064 -0.1956
  989MOL0     H30510   2.571   0.431   0.618 -1.2381  0.4368  1.0970
  989MOL0     H30511   2.372   0.516   0.716  2.7479  1.9233 -0.4119
  989MOL0     H30512   1.909   0.777   0.627 -2.2593 -0.1333 -0.6812
  989MOL0     H30513   1.698   0.817   0.773  0.8494  0.4436 -1.8011
  989MOL0     H30514   1.485   0.615   1.000 -1.1797 -0.4534 -1.9447
  989MOL0     H30515   1.511   0.741   0.879 -1.3413 -1.9449  0.0560
  989MOL0     H30516   1.372   0.842   1.027  1.2845 -2.2728 -3.0067
  989MOL0     H30517   1.524   0.917   1.038  0.6503 -0.9709 -2.6534
  989MOL0     H30518   1.565   0.754   1.257 -1.2855 -1.8548  3.9002
  989MOL0     H30519   1.402   0.718   1.227  1.0089 -0.6308  1.2356
  989MOL0     H30520   1.492   1.017   1.276 -1.1412  0.2934  0.6075
  989MOL0     H30521   1.326   0.947   1.278 -0.2885 -3.0630 -1.5598
  989MOL0     H30522   1.461   1.012   1.491 -1.1059 -1.1391  2.0236
  989MOL0     H30523   1.546   0.864   1.469  1.0529  3.1005  0.6606
  989MOL0     H30524   1.307   0.741   1.471 -0.2777 -0.6446  0.7727
  989MOL0     H30525   1.237   0.906   1.467  1.6862  1.9056 -0.8928
  989MOL0     H30526   1.397   0.929   1.684  2.6092 -0.8866 -0.5064
  989MOL0     H30527   1.232   0.891   1.689  2.3896  0.1480  3.3743
  989MOL0     H30528   1.439   0.677   1.654  1.6164  1.5908  0.3636
  989MOL0     H30529   1.262   0.661   1.714 -0.2009 -0.2804  1.7463
  989MOL0     H30530   1.859   0.539   1.058 -1.7488 -1.2885 -1.6564
  989MOL0     H30531   2.052   0.520   0.950  2.3398 -2.2273 -4.3513
  989MOL0     H30532   2.204   0.585   0.334 -4.9614 -2.1809  2.8560
  989MOL0     H30533   2.414   0.498   0.234  2.1534  1.4855 -0.0583
  989MOL0     H30534   3.819   0.654   0.789 -0.1389  0.7735 -1.3013
  989MOL0     H30535   3.884   0.875   0.712  1.9850  1.0944 -0.6866
  989MOL0     H30536   4.166   1.157   0.513 -1.5725  0.3822  1.5196
  989MOL0     H30537   4.197   1.371   0.406 -1.8184 -1.7813  1.6077
  989MOL0     H30538   4.186   1.589   0.070 -1.8296  1.6077  0.0352
  989MOL0     H30539   4.259   1.497   0.206  0.1200 -0.6019 -1.8153
  989MOL0     H30540   4.005   1.653   0.235 -0.0585  0.0942 -2.0981
  989MOL0     H30541   4.120   1.579   0.355  0.2479  2.2696  1.3361
  989MOL0     H30542   4.165   1.826   0.171 -2.4319  1.5190  2.8710
  989MOL0     H30543   4.298   1.745   0.267  1.2296 -1.1916  2.1165
  989MOL0     H30544   4.051   1.881   0.360  2.5402  4.3358  0.3673
  989MOL0     H30545   4.158   1.773   0.463 -1.4280  1.0039  0.8753
  989MOL0     H30546   4.347   2.150   0.445  0.6198 -0.4025  0.0729
  989MOL0     H30547   3.967   1.243   0.070 -0.5673  3.5263  0.1851
  989MOL0     H30548   3.940   1.013   0.194  0.7077 -0.2836  1.0724
  990MOL0     O30549   3.034   1.807   6.161 -0.3251  0.6999 -0.1283
  990MOL0     C30550   2.972   1.736   6.235 -1.4585  1.0571 -0.0018
  990MOL0     O30551   2.934   1.606   6.210 -0.0851 -0.2979 -0.1844
  990MOL0     C30552   2.925   1.569   6.076  0.4412 -0.0840  0.3027
  990MOL0     C30553   2.822   1.499   6.019  0.0845 -0.4412  0.0498
  990MOL0     C30554   2.806   1.464   5.881 -0.1805 -0.6753 -0.5888
  990MOL0     C30555   2.904   1.492   5.794  0.1094 -0.7552 -0.0886
  990MOL0     O30556   2.887   1.451   5.662  0.0983  0.4300  0.4329
  990MOL0     C30557   3.010   1.425   5.601 -0.4290  0.5846  0.0684
  990MOL0     C30558   2.999   1.362   5.460 -0.1956  0.1161  0.6434
  990MOL0     C30559   3.150   1.347   5.397 -0.6401 -0.1974  0.4882
  990MOL0     C30560   3.151   1.265   5.269  0.3462 -0.4779 -0.2148
  990MOL0     C30561   3.081   1.312   5.142 -0.2716 -0.0276 -0.7961
  990MOL0     C30562   3.043   1.192   5.055  0.0451 -0.1532 -0.3641
  990MOL0     C30563   3.168   1.110   5.022  0.3221 -0.1202  0.0720
  990MOL0     C30564   3.124   1.014   4.910  0.1026 -0.2995 -0.4374
  990MOL0     N30565   3.246   0.966   4.853  0.4812 -0.5643 -0.1305
  990MOL0     C30566   3.320   0.851   4.867  1.5404 -0.0258 -1.2272
  990MOL0     C30567   3.421   0.856   4.777  0.0318 -0.5605  0.5250
  990MOL0     C30568   3.520   0.748   4.756  0.3215  0.0261 -0.5903
  990MOL0     C30569   3.472   0.626   4.674 -0.2371  0.3870 -0.8301
  990MOL0     C30570   3.552   0.507   4.723  0.5013 -0.6613 -0.3101
  990MOL0     C30571   3.578   0.404   4.618  0.0637 -0.0424 -0.9001
  990MOL0     O30572   3.470   0.311   4.593 -0.2945 -0.0025 -0.4418
  990MOL0     C30573   3.478   0.196   4.517 -0.4780 -0.5414  0.7824
  990MOL0     C30574   3.364   0.137   4.461  0.4282 -0.0177  0.3655
  990MOL0     C30575   3.378   0.026   4.379  0.3101 -0.3090 -0.0748
  990MOL0     C30576   3.496  -0.034   4.365  0.0708 -0.5363 -0.2551
  990MOL0     C30577   3.505  -0.162   4.289  0.3780 -0.8397 -1.0398
  990MOL0     O30578   3.390  -0.203   4.210 -0.9088  0.4735 -0.5763
  990MOL0     C30579   3.380  -0.330   4.160  0.5889 -1.2111 -0.2355
  990MOL0     C30580   3.298  -0.334   4.050  1.0812  0.2150  0.2375
  990MOL0     C30581   3.260  -0.462   4.004  0.2917  0.4401  0.5660
  990MOL0     C30582   3.299  -0.582   4.055 -0.9773  0.6787  0.1276
  990MOL0     O30583   3.270  -0.708   4.008  0.3698  0.5503  0.2998
  990MOL0     C30584   3.376  -0.807   4.007  0.0527  0.6464  0.2819
  990MOL0     C30585   3.325  -0.925   3.917 -0.1836  0.3333  0.0369
  990MOL0     C30586   3.282  -0.873   3.775 -0.0415  0.5155  0.6494
  990MOL0     C30587   3.282  -0.988   3.664 -0.7272  0.4169 -0.2718
  990MOL0     C30588   3.138  -1.016   3.616 -0.1721  0.6490  0.4289
  990MOL0     C30589   3.137  -1.158   3.548 -0.7220 -1.0164 -0.5618
  990MOL0     C30590   3.008  -1.183   3.464 -0.2899 -0.6786  0.7751
  990MOL0     C30591   2.988  -1.329   3.413  0.4547 -0.5138  0.3914
  990MOL0    Cl30592   3.076  -1.350   3.268 -0.0088 -0.1156 -0.0332
  990MOL0     C30593   3.389  -0.572   4.170  0.4474 -0.1671 -0.1345
  990MOL0     C30594   3.425  -0.444   4.218  0.7195  0.1816  0.8090
  990MOL0     O30595   3.606  -0.227   4.299  0.1321 -0.4655 -0.6066
  990MOL0     C30596   3.614   0.014   4.418  0.2249 -0.5724 -0.1307
  990MOL0     C30597   3.605   0.134   4.491  0.4349 -0.4535  0.7515
  990MOL0     N30598   3.411   0.973   4.701  0.1604 -0.0301  0.3507
  990MOL0     N30599   3.302   1.037   4.750  0.9862 -0.2527 -0.4017
  990MOL0     C30600   3.018   1.564   5.846  0.0508  0.0328 -0.4958
  990MOL0     C30601   3.022   1.596   5.979 -0.9475  0.0013 -0.0429
  990MOL0     C30602   2.931   1.799   6.367  1.1102 -0.1742  0.0889
  990MOL0     C30603   2.963   1.936   6.386  0.5733 -0.7885 -0.5578
  990MOL0     C30604   2.912   1.999   6.510 -0.1419  0.2399  0.4043
  990MOL0     C30605   2.837   1.927   6.607 -0.4669  0.3388  0.0394
  990MOL0     O30606   2.800   1.993   6.724  0.4630  0.0487 -0.3931
  990MOL0     C30607   2.745   1.932   6.837  0.1913  0.0838  0.3428
  990MOL0     C30608   2.599   1.888   6.828 -0.5255  1.2511 -0.2112
  990MOL0     C30609   2.519   1.916   6.956  0.0597 -0.6363  0.4547
  990MOL0     C30610   2.366   1.913   6.944 -0.0256  0.4139  0.6166
  990MOL0     C30611   2.312   1.774   6.909  0.3687  0.0286  0.6574
  990MOL0     C30612   2.271   1.665   6.889  0.0223  0.0825  0.1991
  990MOL0     C30613   2.794   1.801   6.574 -0.2578 -1.3311  0.7205
  990MOL0     C30614   2.844   1.735   6.456 -0.2848  0.8003 -1.0768
  990MOL0     H30615   2.753   1.453   6.089  1.2521 -0.2487  1.3813
  990MOL0     H30616   2.724   1.402   5.845 -1.4735 -1.2834  2.9849
  990MOL0     H30617   3.064   1.360   5.670  0.0637  2.1485  1.1989
  990MOL0     H30618   3.065   1.518   5.585  3.2953 -1.6842 -1.5089
  990MOL0     H30619   2.927   1.427   5.410 -3.0800 -2.5292  1.0573
  990MOL0     H30620   2.960   1.260   5.465  0.7478 -0.3234 -0.3524
  990MOL0     H30621   3.221   1.305   5.468 -0.7285  0.9803  1.2920
  990MOL0     H30622   3.193   1.446   5.379  1.1731 -1.3583 -2.2200
  990MOL0     H30623   3.257   1.252   5.244 -0.4518 -1.8667 -3.3500
  990MOL0     H30624   3.121   1.168   5.310  0.3082 -0.1262  0.6131
  990MOL0     H30625   3.151   1.375   5.086 -1.4367  1.5024 -0.6017
  990MOL0     H30626   2.996   1.380   5.156  0.1011  0.3800 -0.4958
  990MOL0     H30627   2.996   1.235   4.966 -0.0441  0.3656 -0.0731
  990MOL0     H30628   2.966   1.129   5.103 -2.2725  0.5145 -2.9588
  990MOL0     H30629   3.252   1.164   4.976  0.9443 -0.0258  1.2936
  990MOL0     H30630   3.206   1.058   5.110  3.1836  1.6957  0.0428
  990MOL0     H30631   3.061   1.070   4.841  1.6444  1.8006 -0.2161
  990MOL0     H30632   3.062   0.932   4.949  2.1252 -2.2917 -1.1428
  990MOL0     H30633   3.309   0.775   4.944 -0.5296  0.1479 -1.2893
  990MOL0     H30634   3.564   0.718   4.852  1.6147  0.5830 -0.9798
  990MOL0     H30635   3.601   0.795   4.698 -0.1794  0.5298 -0.8880
  990MOL0     H30636   3.487   0.658   4.570  1.4151  1.2128 -0.3640
  990MOL0     H30637   3.367   0.600   4.689 -0.3216  1.3059  0.2154
  990MOL0     H30638   3.652   0.527   4.761 -0.3813 -1.3668  2.6207
  990MOL0     H30639   3.491   0.462   4.802  1.5385 -1.2273  0.1845
  990MOL0     H30640   3.669   0.356   4.653  2.1348  4.2632  0.3172
  990MOL0     H30641   3.615   0.451   4.526  3.1582  0.1560  0.3314
  990MOL0     H30642   3.265   0.176   4.484  0.4058  0.3460 -0.3244
  990MOL0     H30643   3.287  -0.016   4.337  1.9203 -2.7691 -1.3229
  990MOL0     H30644   3.262  -0.241   4.007  2.8782  0.6616 -0.3924
  990MOL0     H30645   3.201  -0.474   3.914  0.0831  4.9356 -0.1360
  990MOL0     H30646   3.405  -0.842   4.106  2.6050  1.9226  0.0558
  990MOL0     H30647   3.465  -0.758   3.965 -1.1418  3.0852  0.4220
  990MOL0     H30648   3.243  -0.984   3.957 -0.9881  2.3850  1.5774
  990MOL0     H30649   3.408  -0.995   3.901  1.3153  1.4935  2.1907
  990MOL0     H30650   3.343  -0.792   3.733  3.5634 -2.9827 -1.5510
  990MOL0     H30651   3.179  -0.836   3.777 -0.0799  0.3642  2.0893
  990MOL0     H30652   3.340  -0.961   3.575 -1.3368  0.5565 -0.6261
  990MOL0     H30653   3.316  -1.080   3.712 -2.2090 -0.5821 -1.0623
  990MOL0     H30654   3.112  -0.932   3.551  1.5581  0.5394 -0.4561
  990MOL0     H30655   3.071  -1.017   3.703 -0.3110  0.7034  0.3234
  990MOL0     H30656   3.139  -1.226   3.633  4.2893 -2.6490 -1.6996
  990MOL0     H30657   3.224  -1.168   3.484 -0.8594  1.7529 -1.3339
  990MOL0     H30658   2.922  -1.147   3.520  1.1455  0.2058  2.5315
  990MOL0     H30659   3.000  -1.124   3.372 -2.9817  3.7296  3.4734
  990MOL0     H30660   2.883  -1.342   3.384 -0.2178  1.2914  1.7794
  990MOL0     H30661   3.013  -1.389   3.501 -4.1098 -2.0847  0.8685
  990MOL0     H30662   3.436  -0.655   4.221 -1.3431 -0.1180  1.7629
  990MOL0     H30663   3.501  -0.442   4.294  1.9948  3.7923 -0.3546
  990MOL0     H30664   3.706  -0.044   4.415 -1.0547 -3.1734  3.6172
  990MOL0     H30665   3.693   0.178   4.538  1.3524  0.9197 -1.9808
  990MOL0     H30666   3.092   1.596   5.774  0.2539  2.2852  0.6416
  990MOL0     H30667   3.108   1.649   6.019 -1.3469  0.0036  0.8194
  990MOL0     H30668   3.012   1.986   6.303  0.3267  0.2290 -0.1016
  990MOL0     H30669   2.953   2.092   6.548 -0.4444  1.4879 -2.0929
  990MOL0     H30670   2.767   2.001   6.919  1.1821 -1.4680  1.4397
  990MOL0     H30671   2.809   1.844   6.850 -0.2488 -0.4839 -1.1392
  990MOL0     H30672   2.561   1.934   6.736 -0.9258 -1.5575 -1.5521
  990MOL0     H30673   2.592   1.780   6.814 -3.3725  1.2334  0.5900
  990MOL0     H30674   2.550   2.016   6.987 -0.0389 -0.6948  0.7517
  990MOL0     H30675   2.547   1.857   7.044  1.4822 -0.0675  0.4052
  990MOL0     H30676   2.319   1.951   7.035 -0.0530  0.3670  0.6227
  990MOL0     H30677   2.348   1.977   6.857 -0.6195  1.7228  1.6627
  990MOL0     H30678   2.236   1.565   6.874 -3.1318  0.6254  2.8470
  990MOL0     H30679   2.719   1.754   6.637 -2.9327  1.6652  0.0302
  990MOL0     H30680   2.822   1.630   6.441  1.8146 -0.1690  1.7220
  991MOL0     O30681   5.345   8.604   9.921  0.5571 -0.4063  0.0618
  991MOL0     C30682   5.252   8.545   9.975  0.5359 -0.3758 -0.1805
  991MOL0     O30683   5.166   8.449   9.919  0.1784  0.7644 -0.3192
  991MOL0     C30684   5.202   8.381   9.807 -0.3258  0.4030  0.3086
  991MOL0     C30685   5.103   8.363   9.713  0.0328 -0.6397 -0.4113
  991MOL0     C30686   5.128   8.325   9.580 -0.2999  1.1078 -0.2792
  991MOL0     C30687   5.261   8.277   9.548  0.7989 -0.9952 -0.0376
  991MOL0     O30688   5.288   8.218   9.422  0.4600 -0.2883 -0.9143
  991MOL0     C30689   5.420   8.205   9.373 -1.0167  0.7614  0.1220
  991MOL0     C30690   5.423   8.158   9.224  0.9603  0.3510  0.0845
  991MOL0     C30691   5.557   8.113   9.165 -0.7312 -0.0929 -0.0523
  991MOL0     C30692   5.640   8.237   9.137 -0.3677  0.0840  0.2315
  991MOL0     C30693   5.747   8.201   9.033  0.0260  0.5471 -0.4886
  991MOL0     C30694   5.820   8.311   8.983  0.3250 -1.3114  0.1138
  991MOL0     C30695   5.904   8.379   9.090 -0.0079 -0.5850 -0.4523
  991MOL0     C30696   6.011   8.486   9.037 -0.7851 -0.4113  0.0224
  991MOL0     N30697   5.943   8.586   8.969 -0.5033 -0.1428  0.2464
  991MOL0     C30698   5.891   8.581   8.844 -0.4021 -0.1922 -0.2431
  991MOL0     C30699   5.841   8.709   8.818 -1.4472  0.8026 -0.3462
  991MOL0     C30700   5.775   8.762   8.694 -0.0685  0.5446 -0.2121
  991MOL0     C30701   5.625   8.767   8.703  0.2488  0.9171  0.2043
  991MOL0     C30702   5.551   8.805   8.578 -0.1516  0.3205  0.5201
  991MOL0     C30703   5.612   8.927   8.512 -0.1226  0.2133 -0.4613
  991MOL0     O30704   5.541   8.960   8.394  0.1722 -0.0215  0.6121
  991MOL0     C30705   5.531   9.092   8.351  0.2816 -0.1669  0.4463
  991MOL0     C30706   5.467   9.118   8.227  0.1599  0.3907 -0.7503
  991MOL0     C30707   5.441   9.242   8.176  0.6088  0.8770  0.2114
  991MOL0     C30708   5.472   9.358   8.250  0.0543  1.0225  0.5226
  991MOL0     C30709   5.451   9.489   8.202  0.4384  0.2248 -0.4451
  991MOL0     O30710   5.422   9.488   8.068  1.0184  0.1270  0.2915
  991MOL0     C30711   5.404   9.606   7.993  0.0213  0.5861  0.8189
  991MOL0     C30712   5.474   9.727   8.012 -0.7062 -0.2537  0.0983
  991MOL0     C30713   5.440   9.839   7.931 -0.9787 -0.4850 -0.5922
  991MOL0     C30714   5.325   9.838   7.845 -0.6988  0.5561 -0.4932
  991MOL0     O30715   5.304   9.950   7.772  0.0167  0.3997  0.3294
  991MOL0     C30716   5.300  10.083   7.831 -0.5082 -0.4440  0.2161
  991MOL0     C30717   5.423  10.173   7.802  0.0620  0.5958  0.8293
  991MOL0     C30718   5.400  10.282   7.684 -0.2020 -0.6442  1.2216
  991MOL0     C30719   5.383  10.230   7.542 -0.3047  0.1426  0.1832
  991MOL0     C30720   5.346  10.320   7.424 -0.6185 -0.8735 -0.2285
  991MOL0     C30721   5.220  10.411   7.436 -0.1707  1.0145  0.0853
  991MOL0     C30722   5.230  10.508   7.323 -0.0794 -0.1105 -0.6295
  991MOL0     C30723   5.103  10.597   7.313 -0.4480 -0.2494  0.8594
  991MOL0    Cl30724   5.119  10.705   7.170 -0.2326  0.6409  0.1924
  991MOL0     C30725   5.250   9.719   7.836  0.7895  0.5027 -1.0432
  991MOL0     C30726   5.300   9.603   7.899 -0.6870 -0.5909  0.5530
  991MOL0     O30727   5.454   9.589   8.272  0.2023 -0.5249 -0.2537
  991MOL0     C30728   5.535   9.328   8.373  0.1781 -0.6405  0.2448
  991MOL0     C30729   5.572   9.198   8.423  0.5829 -0.0383  0.1987
  991MOL0     N30730   5.887   8.788   8.924 -0.4942  0.1859  0.3085
  991MOL0     N30731   5.945   8.715   9.014 -1.0715  0.1610 -0.0119
  991MOL0     C30732   5.357   8.284   9.644 -0.8577 -1.0015 -0.4995
  991MOL0     C30733   5.332   8.334   9.770 -0.2753 -0.3926  0.1513
  991MOL0     C30734   5.210   8.593  10.103  0.5238  0.2355 -0.1770
  991MOL0     C30735   5.071   8.577  10.145 -1.0200  0.5033  0.0392
  991MOL0     C30736   5.035   8.619  10.275 -0.1475 -0.5731  0.0495
  991MOL0     C30737   5.117   8.699  10.350  0.3860  0.3345 -0.1728
  991MOL0     O30738   5.075   8.760  10.470  0.3554  0.0098 -0.2654
  991MOL0     C30739   5.059   8.903  10.477 -0.3182 -0.6193  0.3104
  991MOL0     C30740   5.043   8.945  10.631  0.8298  0.8230 -0.6236
  991MOL0     C30741   4.889   8.914  10.670  0.4394  0.2965 -0.5093
  991MOL0     C30742   4.862   8.936  10.819  0.4980 -0.6393 -0.1214
  991MOL0     C30743   4.754   8.850  10.884 -0.6749 -0.3220  0.9803
  991MOL0     C30744   4.650   8.807  10.918  0.0824 -0.3223 -0.1435
  991MOL0     C30745   5.248   8.713  10.312 -0.8427 -0.2727 -0.0985
  991MOL0     C30746   5.299   8.654  10.198  0.1913 -0.0325  0.2947
  991MOL0     H30747   5.008   8.369   9.767  2.0137 -2.1052  3.6670
  991MOL0     H30748   5.041   8.324   9.515  0.0751  0.3148 -0.7774
  991MOL0     H30749   5.480   8.137   9.435  2.5523  1.6511 -2.0158
  991MOL0     H30750   5.474   8.301   9.368  1.5672 -0.6514 -3.3650
  991MOL0     H30751   5.391   8.235   9.154  2.3912 -0.2297 -1.2845
  991MOL0     H30752   5.360   8.069   9.214  1.1156 -0.1278  2.6510
  991MOL0     H30753   5.540   8.057   9.072  1.9444  2.2217 -2.1012
  991MOL0     H30754   5.617   8.059   9.239  0.3017  3.3001  1.8106
  991MOL0     H30755   5.574   8.319   9.107 -1.1489 -0.9174 -0.8329
  991MOL0     H30756   5.690   8.267   9.229 -0.4109 -1.2534  0.7063
  991MOL0     H30757   5.700   8.148   8.949 -1.2746 -1.3256  1.3173
  991MOL0     H30758   5.827   8.137   9.071 -0.6189  1.3276  2.4431
  991MOL0     H30759   5.741   8.380   8.953 -2.8415 -4.5024  0.4554
  991MOL0     H30760   5.883   8.293   8.896 -0.3531  2.3287 -1.3272
  991MOL0     H30761   5.824   8.435   9.139 -0.1209 -0.0377 -1.2378
  991MOL0     H30762   5.952   8.309   9.158 -1.9940 -0.4410  1.2076
  991MOL0     H30763   6.073   8.432   8.964 -1.6575  1.4692 -2.2366
  991MOL0     H30764   6.081   8.518   9.114 -0.9336  1.1829 -0.4716
  991MOL0     H30765   5.900   8.496   8.777  2.0818 -1.6883  1.8207
  991MOL0     H30766   5.791   8.702   8.604 -0.1718 -1.2185  0.9126
  991MOL0     H30767   5.819   8.861   8.677 -0.0838  0.5673 -0.1201
  991MOL0     H30768   5.593   8.835   8.782 -0.4153  0.0581  0.6814
  991MOL0     H30769   5.606   8.665   8.736  5.0320  0.3407  1.9009
  991MOL0     H30770   5.565   8.730   8.500 -0.9331  0.9750 -0.2665
  991MOL0     H30771   5.443   8.816   8.593 -0.2558 -0.2311  0.1824
  991MOL0     H30772   5.720   8.914   8.500 -0.0936  0.3535 -0.3635
  991MOL0     H30773   5.597   8.999   8.593 -2.1079 -1.8903  1.1965
  991MOL0     H30774   5.439   9.024   8.179  0.5102 -0.4475  0.6416
  991MOL0     H30775   5.386   9.248   8.083 -3.0696 -1.1186  2.0127
  991MOL0     H30776   5.553   9.718   8.087 -0.4184 -1.6123 -0.3329
  991MOL0     H30777   5.501   9.927   7.944 -0.1266 -1.0639 -0.5402
  991MOL0     H30778   5.283  10.087   7.939 -3.0009  0.6285 -0.1460
  991MOL0     H30779   5.215  10.141   7.796 -0.2677  0.5113  1.1702
  991MOL0     H30780   5.500  10.108   7.760 -0.7185 -1.7772  2.8367
  991MOL0     H30781   5.477  10.215   7.887  0.5181 -0.2489  0.9675
  991MOL0     H30782   5.475  10.362   7.683 -2.6696  1.8131 -0.1032
  991MOL0     H30783   5.303  10.329   7.704 -0.9902 -2.2723  1.3774
  991MOL0     H30784   5.477  10.181   7.513  1.0445  1.1084  2.5809
  991MOL0     H30785   5.307  10.152   7.548 -0.5830  0.0916 -2.5122
  991MOL0     H30786   5.336  10.276   7.325 -2.0516  0.8708 -0.9080
  991MOL0     H30787   5.427  10.394   7.422 -0.2864 -1.0053  2.8173
  991MOL0     H30788   5.221  10.464   7.532  1.4204 -1.9976  1.8987
  991MOL0     H30789   5.137  10.340   7.426  1.6681 -0.9929 -1.8226
  991MOL0     H30790   5.321  10.568   7.329 -1.0746  1.3107  1.8734
  991MOL0     H30791   5.235  10.441   7.236 -0.0720  1.2236 -1.6939
  991MOL0     H30792   5.093  10.673   7.392 -0.6700  0.7212 -0.0715
  991MOL0     H30793   5.005  10.550   7.304 -1.4827  2.1163 -1.8403
  991MOL0     H30794   5.163   9.716   7.771 -0.2714  2.3202  0.2021
  991MOL0     H30795   5.233   9.519   7.885 -2.1555  0.2130  2.3702
  991MOL0     H30796   5.567   9.417   8.428  0.8134 -0.1696 -0.8424
  991MOL0     H30797   5.632   9.199   8.513  1.7513 -1.1709 -0.5369
  991MOL0     H30798   5.460   8.258   9.622  0.2062  1.8079  0.6524
  991MOL0     H30799   5.414   8.332   9.841  0.3171 -1.7380 -0.5419
  991MOL0     H30800   5.002   8.524  10.080 -1.1416  0.9362 -0.1886
  991MOL0     H30801   4.935   8.614  10.317  1.2445 -2.4193  3.5947
  991MOL0     H30802   4.967   8.927  10.423 -0.1735  1.1669  0.8125
  991MOL0     H30803   5.146   8.948  10.429 -0.1102 -1.0980  0.2280
  991MOL0     H30804   5.107   8.895  10.704 -3.3133 -1.1356  2.0418
  991MOL0     H30805   5.061   9.052  10.647 -1.9300  1.5738 -1.8801
  991MOL0     H30806   4.847   8.817  10.644 -1.7499  0.9375  0.4327
  991MOL0     H30807   4.822   8.977  10.611  2.1598  1.3693 -1.4009
  991MOL0     H30808   4.951   8.933  10.883  0.7780 -2.1868 -0.5480
  991MOL0     H30809   4.832   9.041  10.824  1.2672 -0.4456  0.7008
  991MOL0     H30810   4.570   8.743  10.949  1.5992 -2.6224 -0.7835
  991MOL0     H30811   5.315   8.761  10.383  0.1062 -2.6482  0.6944
  991MOL0     H30812   5.396   8.689  10.165  0.2480 -1.7096 -1.5500
  992MOL0     O30813   8.194   3.456  11.076 -0.2872 -0.1362  0.4104
  992MOL0     C30814   8.175   3.348  11.130  0.5235  0.3526 -0.5180
  992MOL0     O30815   8.092   3.332  11.242 -0.1825  0.0435  0.3029
  992MOL0     C30816   8.064   3.437  11.329  0.7041 -0.0035 -0.2997
  992MOL0     C30817   8.097   3.413  11.467  0.4365 -0.7365 -0.7705
  992MOL0     C30818   8.055   3.504  11.567 -0.8406  0.6782 -0.0420
  992MOL0     C30819   7.986   3.615  11.538  0.3494 -0.3716  0.0815
  992MOL0     O30820   7.952   3.696  11.643 -0.5369 -0.1570 -0.5063
  992MOL0     C30821   7.820   3.694  11.702 -0.4156 -0.3265  0.7491
  992MOL0     C30822   7.810   3.581  11.811  0.1414 -0.1534 -0.1620
  992MOL0     C30823   7.658   3.578  11.877 -0.0449 -0.1607  0.2644
  992MOL0     C30824   7.638   3.451  11.969  0.1390  0.2820  0.0620
  992MOL0     C30825   7.494   3.428  11.997 -1.0332 -0.2949 -0.0814
  992MOL0     C30826   7.478   3.347  12.122 -0.6088  0.2485 -0.5174
  992MOL0     C30827   7.341   3.316  12.183 -0.1110 -0.7840 -0.0575
  992MOL0     C30828   7.254   3.201  12.124  0.3350 -0.1934 -0.6253
  992MOL0     N30829   7.345   3.084  12.095  0.3825  0.2263  0.1386
  992MOL0     C30830   7.420   3.063  11.981 -0.5136  0.7438  0.4725
  992MOL0     C30831   7.463   2.940  11.992  0.4750 -0.2416  0.0052
  992MOL0     C30832   7.544   2.863  11.897  0.5496  0.5599 -0.3406
  992MOL0     C30833   7.617   2.946  11.784  0.2741  0.0695 -0.2985
  992MOL0     C30834   7.666   2.848  11.664  0.0510  0.7175  0.0008
  992MOL0     C30835   7.790   2.767  11.697  0.9916  0.3764 -0.1979
  992MOL0     O30836   7.825   2.708  11.563 -0.4433  0.1193 -0.5955
  992MOL0     C30837   7.784   2.580  11.526  0.0876 -0.4611 -0.0922
  992MOL0     C30838   7.708   2.495  11.606 -0.3180  0.3290  0.0017
  992MOL0     C30839   7.674   2.363  11.562 -0.7572  0.3279 -0.2004
  992MOL0     C30840   7.721   2.308  11.435  0.0701 -0.5741  0.4082
  992MOL0     C30841   7.697   2.172  11.391 -0.7870 -0.0153 -0.2228
  992MOL0     O30842   7.646   2.093  11.477  0.2589 -0.6703 -0.3109
  992MOL0     C30843   7.631   1.964  11.433  0.7075 -0.1827 -0.0241
  992MOL0     C30844   7.723   1.869  11.454 -0.7112 -0.5280  0.3720
  992MOL0     C30845   7.709   1.741  11.417  0.1341 -0.7349  0.4224
  992MOL0     C30846   7.592   1.709  11.340 -0.8676  0.8021 -0.0424
  992MOL0     O30847   7.596   1.574  11.295 -0.2149  0.6590  0.0889
  992MOL0     C30848   7.476   1.498  11.263 -0.5612 -0.2457  0.6311
  992MOL0     C30849   7.528   1.354  11.242  0.3717  0.4574 -0.3552
  992MOL0     C30850   7.574   1.281  11.376  0.0909  0.4114  0.4055
  992MOL0     C30851   7.582   1.129  11.360 -0.0102  1.0547 -0.6484
  992MOL0     C30852   7.470   1.049  11.413  0.1882 -0.2979 -0.2296
  992MOL0     C30853   7.338   1.076  11.341  0.9503  0.3450 -0.8935
  992MOL0     C30854   7.215   0.998  11.370  0.9493 -0.1192 -0.6291
  992MOL0     C30855   7.089   1.065  11.311  0.3386 -0.1934 -0.1190
  992MOL0    Cl30856   7.048   1.205  11.411 -0.1802 -0.1640 -0.2964
  992MOL0     C30857   7.489   1.801  11.314 -0.0215 -0.1209  0.6969
  992MOL0     C30858   7.510   1.935  11.357  0.2006 -0.1067  0.3373
  992MOL0     O30859   7.751   2.136  11.292 -0.1860 -0.6601  0.2866
  992MOL0     C30860   7.785   2.407  11.350 -0.2557 -0.4029  0.7435
  992MOL0     C30861   7.812   2.533  11.398  0.8703 -0.1099  0.2654
  992MOL0     N30862   7.394   2.869  12.091 -0.8993  0.4368  0.5036
  992MOL0     N30863   7.322   2.960  12.153 -1.3872 -0.6215  1.5240
  992MOL0     C30864   7.950   3.648  11.402 -0.5409  0.5265 -0.3380
  992MOL0     C30865   7.992   3.561  11.298 -0.4080  0.5045 -1.5947
  992MOL0     C30866   8.228   3.227  11.073 -0.7720 -0.6275  0.1243
  992MOL0     C30867   8.226   3.105  11.147  0.1448  1.1198  0.2158
  992MOL0     C30868   8.255   2.985  11.081  0.1731 -0.9577  0.1310
  992MOL0     C30869   8.306   2.988  10.951 -0.3707 -0.5761 -0.2997
  992MOL0     O30870   8.353   2.886  10.877 -0.1789  0.4043 -0.3645
  992MOL0     C30871   8.362   2.757  10.949 -0.3723 -0.1765 -0.3211
  992MOL0     C30872   8.385   2.644  10.848  0.8566  0.5262 -0.7940
  992MOL0     C30873   8.504   2.648  10.756  0.5236 -0.6023 -0.4917
  992MOL0     C30874   8.539   2.519  10.678 -0.4734  0.1263 -0.8286
  992MOL0     C30875   8.452   2.489  10.567  0.5173  0.0289  0.2087
  992MOL0     C30876   8.373   2.471  10.481  0.2590  0.1493 -0.7543
  992MOL0     C30877   8.329   3.112  10.886  0.6442  0.2117 -0.2924
  992MOL0     C30878   8.284   3.229  10.939  0.3229 -0.1009  0.0546
  992MOL0     H30879   8.139   3.313  11.478 -2.0879 -1.7944 -0.1036
  992MOL0     H30880   8.086   3.470  11.666 -1.4751 -2.0843 -0.7173
  992MOL0     H30881   7.751   3.666  11.621  0.3931  2.3605 -0.9747
  992MOL0     H30882   7.788   3.792  11.737 -2.8837 -1.5533  2.2794
  992MOL0     H30883   7.882   3.596  11.892 -2.4158 -2.4280  2.7502
  992MOL0     H30884   7.833   3.479  11.779 -2.4298 -1.4303  1.7378
  992MOL0     H30885   7.586   3.570  11.795  1.9101  0.8855 -1.6646
  992MOL0     H30886   7.627   3.668  11.929 -0.7320  1.0096 -2.0209
  992MOL0     H30887   7.680   3.365  11.916 -2.5738 -1.0003 -0.1383
  992MOL0     H30888   7.697   3.482  12.056 -0.7918 -0.3708  0.9304
  992MOL0     H30889   7.434   3.379  11.920  2.0354 -2.0158 -1.5726
  992MOL0     H30890   7.448   3.526  12.010 -2.3430 -0.1232 -4.4067
  992MOL0     H30891   7.515   3.399  12.211 -2.5922 -0.8267  1.0420
  992MOL0     H30892   7.537   3.255  12.115  4.3842  3.0594  0.4801
  992MOL0     H30893   7.360   3.289  12.287 -3.0205  1.0510  1.0712
  992MOL0     H30894   7.284   3.409  12.180  0.9552  0.0004  2.2401
  992MOL0     H30895   7.205   3.237  12.033  0.4848  0.0624 -0.6092
  992MOL0     H30896   7.189   3.174  12.208 -1.0353 -1.1959 -1.9563
  992MOL0     H30897   7.446   3.135  11.904  0.6361 -0.9329 -0.7604
  992MOL0     H30898   7.485   2.784  11.850  1.5055 -1.7018  2.0776
  992MOL0     H30899   7.608   2.799  11.958  0.7192  0.6301 -0.4445
  992MOL0     H30900   7.689   3.025  11.805 -0.4364  0.6055  0.1697
  992MOL0     H30901   7.530   3.004  11.752 -0.5179 -0.7710  0.2730
  992MOL0     H30902   7.580   2.782  11.650 -0.7995  1.5900  0.9347
  992MOL0     H30903   7.681   2.910  11.575 -3.2912 -0.6426 -1.6662
  992MOL0     H30904   7.772   2.698  11.780 -2.6167 -1.8228 -2.5067
  992MOL0     H30905   7.877   2.827  11.725  0.6850  1.3106 -1.1683
  992MOL0     H30906   7.669   2.528  11.702 -0.2127 -0.2943  0.2598
  992MOL0     H30907   7.604   2.305  11.621 -2.4804  1.4691 -1.0469
  992MOL0     H30908   7.816   1.904  11.498 -0.3949 -0.6841 -0.1528
  992MOL0     H30909   7.788   1.669  11.432  0.7506 -0.4487 -1.2564
  992MOL0     H30910   7.425   1.535  11.174  0.1831  1.4726  0.8720
  992MOL0     H30911   7.406   1.484  11.346  0.2272 -0.1431  1.3358
  992MOL0     H30912   7.585   1.347  11.149  1.7486 -0.5813  0.5185
  992MOL0     H30913   7.431   1.307  11.227 -0.5383  2.2073 -0.2106
  992MOL0     H30914   7.509   1.307  11.460  0.9281  0.2709  1.1180
  992MOL0     H30915   7.671   1.322  11.406  0.9489  0.5441 -2.3270
  992MOL0     H30916   7.593   1.098  11.256  1.7689 -2.2374  0.3793
  992MOL0     H30917   7.667   1.098  11.422 -2.1144  0.8303  2.3295
  992MOL0     H30918   7.460   1.067  11.521 -0.3935 -0.2850 -0.2851
  992MOL0     H30919   7.483   0.941  11.406  2.1508 -0.1165  0.0109
  992MOL0     H30920   7.355   1.052  11.235  0.5945 -0.0122 -0.8727
  992MOL0     H30921   7.315   1.182  11.335 -0.6832 -0.0624 -2.9189
  992MOL0     H30922   7.224   0.895  11.334  0.7514 -0.1183 -0.6841
  992MOL0     H30923   7.212   0.995  11.479  0.2452 -1.0169 -0.6623
  992MOL0     H30924   6.997   1.006  11.318  1.2638 -1.5257  2.6400
  992MOL0     H30925   7.105   1.097  11.208  2.9154  1.3065  0.6724
  992MOL0     H30926   7.405   1.766  11.254 -0.4037  1.8090  0.0079
  992MOL0     H30927   7.432   2.012  11.357  1.9484  1.7777 -0.9514
  992MOL0     H30928   7.801   2.385  11.245  3.4476 -3.2088  1.6779
  992MOL0     H30929   7.860   2.601  11.329 -0.5043  0.6937  0.0718
  992MOL0     H30930   7.888   3.732  11.371 -2.2928 -0.5186  0.1802
  992MOL0     H30931   7.966   3.584  11.196 -2.9869 -1.8216 -1.5815
  992MOL0     H30932   8.199   3.104  11.252  0.9601 -0.0280  0.4294
  992MOL0     H30933   8.250   2.889  11.131  0.9217 -1.5952 -0.9434
  992MOL0     H30934   8.274   2.741  11.012 -0.2786 -1.3116 -0.4581
  992MOL0     H30935   8.447   2.762  11.018  2.2230 -4.4059 -2.8070
  992MOL0     H30936   8.392   2.559  10.916 -1.5737  0.9332  0.0767
  992MOL0     H30937   8.294   2.630  10.789  0.5030 -1.9820  0.2342
  992MOL0     H30938   8.585   2.679  10.823  1.8188  0.2542 -2.3843
  992MOL0     H30939   8.484   2.726  10.682  1.2879  0.2284  0.1516
  992MOL0     H30940   8.642   2.503  10.644  0.6044  2.7857  0.8333
  992MOL0     H30941   8.522   2.431  10.741 -0.3880 -0.6653 -1.9033
  992MOL0     H30942   8.298   2.461  10.406 -1.2582 -0.2035  0.7446
  992MOL0     H30943   8.368   3.106  10.784  1.1664 -0.2250 -0.0743
  992MOL0     H30944   8.284   3.310  10.866  2.8462 -1.8167 -2.0275
  993MOL0     O30945   6.638  10.526   6.007 -0.2359  0.9405  0.8008
  993MOL0     C30946   6.744  10.471   5.981  0.0729  0.1764 -0.7133
  993MOL0     O30947   6.755  10.366   5.899  0.0599  1.0501  0.2351
  993MOL0     C30948   6.651  10.309   5.821  0.1476 -0.3264  0.4158
  993MOL0     C30949   6.528  10.286   5.884  0.2425 -0.1401 -1.0719
  993MOL0     C30950   6.411  10.250   5.810  0.1905  1.2003 -0.4668
  993MOL0     C30951   6.412  10.235   5.678 -0.1948  0.4793  0.1183
  993MOL0     O30952   6.286  10.218   5.620 -0.5585  0.3237 -0.1098
  993MOL0     C30953   6.278  10.287   5.497 -1.1531 -0.9678  0.6532
  993MOL0     C30954   6.240  10.439   5.530  0.4300  0.2613  0.3396
  993MOL0     C30955   6.349  10.548   5.483 -0.1595  0.4267 -0.6972
  993MOL0     C30956   6.293  10.682   5.464 -0.1074  0.1314 -0.3756
  993MOL0     C30957   6.407  10.782   5.441 -0.1434  1.0408 -0.1453
  993MOL0     C30958   6.516  10.802   5.550  0.0500 -0.3423  0.1383
  993MOL0     C30959   6.456  10.812   5.688  0.0359  0.3976 -0.5950
  993MOL0     C30960   6.374  10.938   5.712 -0.4171 -0.1823 -0.1263
  993MOL0     N30961   6.470  11.049   5.718  0.8470  0.2488  0.4287
  993MOL0     C30962   6.517  11.094   5.839 -0.1004 -1.3740 -0.2193
  993MOL0     C30963   6.580  11.211   5.800 -0.1906  0.2664 -0.6106
  993MOL0     C30964   6.652  11.307   5.896  0.3395 -0.6098  0.1710
  993MOL0     C30965   6.776  11.336   5.822 -0.2533  0.6713 -0.3136
  993MOL0     C30966   6.872  11.202   5.821 -0.9718 -0.5052  0.5296
  993MOL0     C30967   7.014  11.231   5.760 -0.2032 -0.0963 -0.7353
  993MOL0     O30968   7.002  11.295   5.631  0.1683  0.3010 -0.5437
  993MOL0     C30969   6.979  11.211   5.524 -0.5615  0.4169 -0.2013
  993MOL0     C30970   6.942  11.282   5.409  0.0027 -0.3057 -0.3709
  993MOL0     C30971   6.912  11.214   5.286  0.2552  0.7832 -1.1299
  993MOL0     C30972   6.915  11.075   5.300 -0.7233  0.4676  1.4013
  993MOL0     C30973   6.886  11.007   5.164 -0.0288 -0.0317  0.1405
  993MOL0     O30974   6.829  10.877   5.180 -0.1804  0.0703  0.2183
  993MOL0     C30975   6.830  10.799   5.065 -0.3650 -0.0069  0.1803
  993MOL0     C30976   6.712  10.760   5.003  0.3787  0.4895 -0.0236
  993MOL0     C30977   6.707  10.677   4.890 -0.0366  0.4490  0.4448
  993MOL0     C30978   6.827  10.641   4.822  0.2283  0.5979  0.5425
  993MOL0     O30979   6.829  10.562   4.711 -0.7476  0.3845  0.5526
  993MOL0     C30980   6.702  10.531   4.638 -0.0310 -0.5370 -0.4490
  993MOL0     C30981   6.719  10.455   4.509 -0.2096 -0.1060  0.0973
  993MOL0     C30982   6.784  10.314   4.543  0.3509 -0.5317  0.8531
  993MOL0     C30983   6.842  10.245   4.416  0.0662 -0.4112 -0.0614
  993MOL0     C30984   6.856  10.102   4.435 -0.6469 -0.1795  0.7281
  993MOL0     C30985   6.734  10.019   4.452  0.1448 -0.3767 -0.3848
  993MOL0     C30986   6.757   9.873   4.475 -0.2304 -0.9135 -0.4466
  993MOL0     C30987   6.657   9.773   4.419 -1.1246  0.0184 -0.1540
  993MOL0    Cl30988   6.483   9.801   4.485  0.1461  0.6418  0.4376
  993MOL0     C30989   6.947  10.698   4.875 -0.5839 -0.6402 -0.8055
  993MOL0     C30990   6.946  10.773   4.997  0.0628 -0.6361 -0.2348
  993MOL0     O30991   6.936  11.058   5.059  0.2921  0.2617  0.3854
  993MOL0     C30992   6.940  11.005   5.416 -0.5874  0.6636  0.4788
  993MOL0     C30993   6.972  11.070   5.530  0.6484 -0.2051 -0.9398
  993MOL0     N30994   6.562  11.234   5.662  0.3063  0.3394  0.9652
  993MOL0     N30995   6.498  11.138   5.614  0.9123  0.4497 -0.0902
  993MOL0     C30996   6.546  10.244   5.616  0.1431  0.1373  0.2113
  993MOL0     C30997   6.658  10.280   5.688 -0.2782  0.9312 -0.6703
  993MOL0     C30998   6.844  10.500   6.080 -0.0216 -0.2811 -0.0854
  993MOL0     C30999   6.957  10.413   6.099  0.7111 -0.1703  1.0997
  993MOL0     C31000   7.066  10.449   6.175  0.2007 -0.5643 -0.9266
  993MOL0     C31001   7.080  10.569   6.239 -0.6077 -0.0048  0.4140
  993MOL0     O31002   7.198  10.590   6.317  0.1013  0.0124 -0.0311
  993MOL0     C31003   7.217  10.715   6.379 -0.5707 -0.3595  0.1949
  993MOL0     C31004   7.362  10.738   6.406 -0.4418 -0.1112 -0.2461
  993MOL0     C31005   7.397  10.865   6.491 -0.1592 -0.2566  0.3290
  993MOL0     C31006   7.544  10.877   6.526 -0.4545 -0.4516 -0.7255
  993MOL0     C31007   7.568  10.982   6.616 -0.1042 -1.2689  0.4989
  993MOL0     C31008   7.598  11.070   6.701  0.3208  0.4908 -0.6313
  993MOL0     C31009   6.964  10.657   6.240  0.2380  0.0962 -0.1334
  993MOL0     C31010   6.849  10.620   6.158 -0.9474 -1.2694  1.3464
  993MOL0     H31011   6.523  10.301   5.991  2.3709  3.2029 -1.3081
  993MOL0     H31012   6.315  10.233   5.857 -0.5094  0.0383 -2.2034
  993MOL0     H31013   6.198  10.237   5.442 -0.2869  0.4853 -2.0992
  993MOL0     H31014   6.369  10.283   5.436 -1.8024  1.7979 -0.6526
  993MOL0     H31015   6.219  10.447   5.637  0.4065  0.6636  0.3079
  993MOL0     H31016   6.139  10.450   5.488 -1.6042 -0.2413  4.5552
  993MOL0     H31017   6.389  10.528   5.384 -0.1273  1.2427 -0.8520
  993MOL0     H31018   6.432  10.543   5.555  0.6132  3.1985 -1.2657
  993MOL0     H31019   6.216  10.687   5.386 -2.4639  5.3876  1.8303
  993MOL0     H31020   6.229  10.712   5.547 -1.9438  1.3756 -2.1266
  993MOL0     H31021   6.368  10.884   5.444 -0.0027  1.0813  1.0174
  993MOL0     H31022   6.456  10.777   5.343  1.2082 -1.7267  0.5564
  993MOL0     H31023   6.577  10.890   5.527  0.7981 -0.4367  1.6381
  993MOL0     H31024   6.580  10.714   5.552  2.4511  1.3279  1.1146
  993MOL0     H31025   6.403  10.720   5.712  0.1937  0.7655  1.2824
  993MOL0     H31026   6.539  10.800   5.759 -0.5779  1.1601  0.2668
  993MOL0     H31027   6.326  10.933   5.810  2.4533  2.8823  1.6352
  993MOL0     H31028   6.296  10.957   5.637 -1.5984 -0.4799  1.0089
  993MOL0     H31029   6.514  11.033   5.929 -3.5237 -1.6906 -0.4167
  993MOL0     H31030   6.678  11.279   5.998 -0.1146  3.9000  1.7535
  993MOL0     H31031   6.596  11.401   5.901 -1.8534 -1.7383 -1.3114
  993MOL0     H31032   6.831  11.420   5.864  5.2393 -1.5026 -2.1513
  993MOL0     H31033   6.755  11.356   5.716  0.8181 -3.4194 -1.4688
  993MOL0     H31034   6.886  11.165   5.923  0.9032 -1.4258 -0.0083
  993MOL0     H31035   6.825  11.126   5.759  1.5368 -1.7672  0.0320
  993MOL0     H31036   7.072  11.139   5.768 -1.7088 -0.9459  1.5489
  993MOL0     H31037   7.065  11.298   5.829 -2.1330 -1.5723  2.3712
  993MOL0     H31038   6.930  11.390   5.408 -1.0703 -0.3655  1.5669
  993MOL0     H31039   6.889  11.271   5.196  0.1985 -2.1049 -3.0576
  993MOL0     H31040   6.618  10.792   5.047 -1.2511 -2.1757 -1.2935
  993MOL0     H31041   6.609  10.662   4.845  1.2699 -2.3032 -1.7157
  993MOL0     H31042   6.643  10.623   4.630  1.6898  0.9697  2.7099
  993MOL0     H31043   6.642  10.468   4.705 -0.1604  2.2904  2.3047
  993MOL0     H31044   6.786  10.515   4.448  0.2180 -1.3135 -0.6452
  993MOL0     H31045   6.625  10.446   4.453  1.5704  1.3023 -3.4146
  993MOL0     H31046   6.708  10.247   4.585  0.9720 -1.6193  0.2817
  993MOL0     H31047   6.866  10.319   4.616  0.9586 -1.9539  0.2938
  993MOL0     H31048   6.786  10.267   4.325 -2.2146 -3.9287  0.3090
  993MOL0     H31049   6.938  10.297   4.402 -0.5009  0.5654 -0.3911
  993MOL0     H31050   6.917  10.089   4.524  1.0296 -1.4542 -0.5468
  993MOL0     H31051   6.919  10.073   4.350  0.8283  5.1767 -0.3908
  993MOL0     H31052   6.673  10.031   4.362  0.4744 -0.4641 -0.6233
  993MOL0     H31053   6.681  10.047   4.543 -0.2980 -3.9320  0.6206
  993MOL0     H31054   6.850   9.859   4.419  0.8668  2.4833  0.2759
  993MOL0     H31055   6.783   9.869   4.582 -1.6454  1.7681  0.1115
  993MOL0     H31056   6.690   9.675   4.455  0.8488 -0.1183 -2.1030
  993MOL0     H31057   6.653   9.754   4.311 -0.8781  0.6237 -0.2775
  993MOL0     H31058   7.038  10.673   4.823 -1.2114 -0.7460 -1.8717
  993MOL0     H31059   7.038  10.812   5.040  0.7833 -0.0955 -2.1586
  993MOL0     H31060   6.934  10.896   5.410  1.0238  0.6091 -4.1537
  993MOL0     H31061   6.999  11.012   5.618 -1.8730 -2.2606 -1.4128
  993MOL0     H31062   6.560  10.210   5.514 -0.2016 -6.5176  1.8932
  993MOL0     H31063   6.758  10.277   5.647  0.0199 -0.6631  0.0977
  993MOL0     H31064   6.956  10.319   6.044  0.5628  1.4688 -1.8797
  993MOL0     H31065   7.153  10.384   6.181 -0.3559 -1.5756 -3.0362
  993MOL0     H31066   7.158  10.716   6.471  1.4066  1.1866  1.5376
  993MOL0     H31067   7.178  10.789   6.308  3.9071 -0.0600 -2.3719
  993MOL0     H31068   7.395  10.656   6.471  1.9268  1.1246  0.2628
  993MOL0     H31069   7.425  10.728   6.317  1.5092 -1.2253  1.1850
  993MOL0     H31070   7.337  10.854   6.581 -0.7957  1.1497  0.1059
  993MOL0     H31071   7.360  10.951   6.435  1.5832 -0.6083 -1.5043
  993MOL0     H31072   7.582  10.784   6.569  0.9923  1.3878  2.2917
  993MOL0     H31073   7.613  10.877   6.440  1.2543 -1.3506  0.5714
  993MOL0     H31074   7.635  11.136   6.777 -0.7992 -1.0608  1.3631
  993MOL0     H31075   6.956  10.750   6.296 -0.1228  0.4783 -0.8091
  993MOL0     H31076   6.778  10.702   6.167  0.1538 -0.1872  0.5072
  994MOL0     O31077  10.943   8.777   1.614  0.7119  0.3649 -0.4089
  994MOL0     C31078  10.917   8.767   1.495 -0.9612 -0.5016  0.4582
  994MOL0     O31079  10.792   8.749   1.445  0.7850  0.0281 -0.4574
  994MOL0     C31080  10.683   8.765   1.525 -0.2007  0.0076  0.6094
  994MOL0     C31081  10.631   8.680   1.624  0.0161 -0.8917  0.3810
  994MOL0     C31082  10.520   8.707   1.704  0.5608  0.0477  0.0607
  994MOL0     C31083  10.450   8.828   1.691 -0.5443 -1.0086 -0.0740
  994MOL0     O31084  10.335   8.866   1.765 -0.4057 -0.0477  0.2531
  994MOL0     C31085  10.273   8.754   1.833  0.2351 -0.5150 -0.8871
  994MOL0     C31086  10.146   8.825   1.895  0.2740 -0.2420 -0.0768
  994MOL0     C31087  10.200   8.920   2.008  0.4048 -0.8554  0.2208
  994MOL0     C31088  10.095   9.001   2.083  0.2452  0.8123 -0.2217
  994MOL0     C31089  10.161   9.097   2.176  0.1737 -0.3407  0.0648
  994MOL0     C31090  10.114   9.239   2.155  1.3153  0.1724  0.5830
  994MOL0     C31091  10.169   9.332   2.254  0.1719 -0.4164 -0.0128
  994MOL0     C31092  10.119   9.473   2.243  0.8904 -0.8721  0.2878
  994MOL0     N31093  10.015   9.525   2.338 -0.6120 -0.0729 -0.2198
  994MOL0     C31094  10.021   9.518   2.476 -0.3862 -0.0747 -0.7233
  994MOL0     C31095   9.906   9.570   2.515  1.1345 -0.2501  1.1761
  994MOL0     C31096   9.862   9.581   2.660  1.5165  0.4296  0.1417
  994MOL0     C31097   9.935   9.689   2.735 -0.6497  0.1581 -0.0877
  994MOL0     C31098   9.865   9.687   2.868 -0.3562 -0.0688  0.4761
  994MOL0     C31099   9.945   9.749   2.978  0.0798 -0.2565  0.0539
  994MOL0     O31100   9.874   9.860   3.034  0.0704 -0.8345 -0.6424
  994MOL0     C31101   9.915   9.981   2.983  0.2087  0.7051  0.6327
  994MOL0     C31102  10.041  10.032   2.977  0.2195 -0.3230 -0.3774
  994MOL0     C31103  10.067  10.151   2.912 -0.1352  0.1754  0.5249
  994MOL0     C31104   9.963  10.217   2.832  0.0963 -0.2044 -0.3661
  994MOL0     C31105  10.000  10.340   2.743 -0.5434  0.3692 -0.1509
  994MOL0     O31106   9.923  10.357   2.627 -0.1563  1.1350  0.2252
  994MOL0     C31107   9.920  10.481   2.566 -0.1716  0.2707 -0.2167
  994MOL0     C31108   9.955  10.606   2.644 -0.0258  0.1768  0.4932
  994MOL0     C31109   9.922  10.731   2.595 -0.9867 -0.0602 -0.1352
  994MOL0     C31110   9.871  10.733   2.465  0.8007 -0.2772  0.7575
  994MOL0     O31111   9.843  10.850   2.382 -0.6630 -0.1368  0.3132
  994MOL0     C31112   9.838  10.980   2.451 -0.3479 -0.3370 -0.3794
  994MOL0     C31113   9.827  11.103   2.358 -0.7418  0.0345 -0.3829
  994MOL0     C31114   9.710  11.079   2.262 -0.0173  0.5872  0.3433
  994MOL0     C31115   9.716  11.179   2.144  0.2682 -0.1293 -0.0618
  994MOL0     C31116   9.583  11.190   2.063 -0.2646  0.0510 -0.2987
  994MOL0     C31117   9.627  11.264   1.933  0.1227 -0.2422 -0.2412
  994MOL0     C31118   9.499  11.329   1.861  0.8519 -0.9989  0.2985
  994MOL0     C31119   9.549  11.381   1.726 -0.3104  0.1261 -0.5278
  994MOL0    Cl31120   9.417  11.370   1.605  0.1339 -0.0991 -0.1966
  994MOL0     C31121   9.837  10.619   2.387 -0.1545  0.1749  0.7058
  994MOL0     C31122   9.859  10.498   2.441 -0.5377  0.0585  0.5841
  994MOL0     O31123  10.118  10.375   2.764  0.0977  1.3795 -0.4737
  994MOL0     C31124   9.832  10.163   2.833  0.3446  1.0446 -0.1945
  994MOL0     C31125   9.810  10.043   2.908 -1.1322 -0.3798  0.0870
  994MOL0     N31126   9.835   9.621   2.406  0.0789  0.5124 -0.1775
  994MOL0     N31127   9.902   9.588   2.299 -0.1659  0.4593 -0.6158
  994MOL0     C31128  10.492   8.914   1.583  0.1905 -0.6587 -0.0548
  994MOL0     C31129  10.604   8.880   1.500 -0.0073  0.3016  0.0373
  994MOL0     C31130  11.032   8.766   1.407 -0.4803 -0.3305 -0.0804
  994MOL0     C31131  11.019   8.700   1.289 -0.3092 -0.4126  1.0072
  994MOL0     C31132  11.121   8.681   1.205  0.1037  0.1821  0.6303
  994MOL0     C31133  11.250   8.738   1.237 -0.7565 -0.1345 -0.0927
  994MOL0     O31134  11.366   8.717   1.168 -0.9458  0.1070  0.3555
  994MOL0     C31135  11.384   8.743   1.025 -0.2386  0.3626 -1.4189
  994MOL0     C31136  11.515   8.811   1.000 -1.2163 -0.2309 -0.5626
  994MOL0     C31137  11.537   8.932   1.089  0.1391 -0.0334  0.9755
  994MOL0     C31138  11.629   9.012   1.006 -0.2356  0.6404 -0.1001
  994MOL0     C31139  11.680   9.129   1.076  0.1496 -0.7904 -0.5648
  994MOL0     C31140  11.733   9.223   1.133 -1.5165  0.4896 -0.8062
  994MOL0     C31141  11.269   8.788   1.368 -0.0921 -0.0928 -0.1348
  994MOL0     C31142  11.156   8.807   1.447 -0.8197 -0.2646  0.4743
  994MOL0     H31143  10.679   8.588   1.656 -0.9985 -1.1297  1.2836
  994MOL0     H31144  10.473   8.646   1.781 -3.7545  1.8776 -0.7845
  994MOL0     H31145  10.334   8.722   1.918  3.4363  2.8848 -1.6226
  994MOL0     H31146  10.258   8.667   1.769 -2.6867 -1.9828  1.5709
  994MOL0     H31147  10.075   8.756   1.941 -2.0653  2.5009  0.7645
  994MOL0     H31148  10.091   8.879   1.817 -1.6545 -0.6254  0.9517
  994MOL0     H31149  10.268   8.995   1.966  2.7574 -0.6292  3.9739
  994MOL0     H31150  10.257   8.863   2.082 -0.5617  2.6853  4.0893
  994MOL0     H31151  10.027   9.056   2.017  0.3135  0.1747 -0.8337
  994MOL0     H31152  10.036   8.924   2.133 -0.5448  1.7351  0.3043
  994MOL0     H31153  10.269   9.098   2.159 -0.1845  1.0156 -2.6147
  994MOL0     H31154  10.140   9.060   2.277 -2.8599  1.4854  0.2205
  994MOL0     H31155  10.005   9.233   2.165  1.5030 -0.1856  3.1000
  994MOL0     H31156  10.135   9.259   2.050  0.3184 -1.9158 -0.0650
  994MOL0     H31157  10.147   9.277   2.346 -0.4202 -1.1293 -0.5708
  994MOL0     H31158  10.278   9.333   2.244  0.2124 -0.5674  0.4042
  994MOL0     H31159  10.083   9.505   2.145 -4.3935 -1.6099  1.6764
  994MOL0     H31160  10.207   9.528   2.276  0.2018  0.5580 -0.1591
  994MOL0     H31161  10.096   9.464   2.533  0.6598  0.9572 -1.0776
  994MOL0     H31162   9.860   9.488   2.718 -5.0100  1.0599  1.8401
  994MOL0     H31163   9.755   9.603   2.658  1.2845 -0.5973 -2.9947
  994MOL0     H31164   9.926   9.784   2.682 -2.8635 -0.1092 -0.2841
  994MOL0     H31165  10.038   9.652   2.742 -0.1892  0.7603 -2.6273
  994MOL0     H31166   9.776   9.749   2.852 -2.4122 -2.7832  0.6806
  994MOL0     H31167   9.842   9.588   2.908  0.2810 -1.8831 -3.1657
  994MOL0     H31168  10.044   9.774   2.938 -1.7036  3.6163 -2.5900
  994MOL0     H31169   9.961   9.674   3.056 -1.0302 -1.0404 -0.4464
  994MOL0     H31170  10.120   9.975   3.023 -0.1728  1.0920  2.2322
  994MOL0     H31171  10.168  10.191   2.913  1.0014 -2.5023  1.1627
  994MOL0     H31172  10.015  10.600   2.735  1.6165  4.0880 -0.1371
  994MOL0     H31173   9.947  10.823   2.647  0.9840 -0.2882 -0.5982
  994MOL0     H31174   9.910  10.983   2.533 -0.4486  1.1668 -0.3073
  994MOL0     H31175   9.742  10.979   2.503 -1.5148 -3.0353 -2.3554
  994MOL0     H31176   9.917  11.119   2.298 -1.7341  0.3290 -1.8803
  994MOL0     H31177   9.827  11.199   2.411  2.2764 -1.1502  2.0051
  994MOL0     H31178   9.624  11.077   2.329 -0.7200  1.8044 -0.4900
  994MOL0     H31179   9.719  10.977   2.224 -1.1630  1.0329 -1.2176
  994MOL0     H31180   9.743  11.276   2.187  0.0614  0.4169 -1.1524
  994MOL0     H31181   9.802  11.159   2.080 -2.3468 -2.3353 -3.1952
  994MOL0     H31182   9.513  11.251   2.121 -2.4349 -1.2147 -1.4276
  994MOL0     H31183   9.541  11.089   2.057 -1.7073  0.3161  3.1771
  994MOL0     H31184   9.677  11.195   1.865  0.7781 -1.0456  1.0129
  994MOL0     H31185   9.702  11.338   1.961 -0.0223  0.3384 -1.3662
  994MOL0     H31186   9.416  11.261   1.841  1.1654 -1.1040 -0.7085
  994MOL0     H31187   9.458  11.413   1.917 -0.2915 -1.4543  0.1787
  994MOL0     H31188   9.630  11.328   1.675 -0.0110 -1.2009  1.2275
  994MOL0     H31189   9.577  11.486   1.739 -2.9789  0.6653  2.1976
  994MOL0     H31190   9.785  10.619   2.292  2.6907 -0.3572 -0.9788
  994MOL0     H31191   9.833  10.414   2.378  0.7566  0.9210 -1.1986
  994MOL0     H31192   9.748  10.216   2.790 -0.4380 -1.2299 -1.6824
  994MOL0     H31193   9.711   9.998   2.906 -1.5452  0.4987  0.1502
  994MOL0     H31194  10.427   9.000   1.570  1.3267  0.0083 -1.6066
  994MOL0     H31195  10.625   8.952   1.421  0.5013  0.6360  0.4692
  994MOL0     H31196  10.925   8.654   1.261 -0.2054 -0.3469  0.5261
  994MOL0     H31197  11.109   8.623   1.114  0.7051  0.9222  0.0608
  994MOL0     H31198  11.299   8.803   0.993 -0.9122  1.9858  2.6901
  994MOL0     H31199  11.377   8.647   0.974  0.8792  0.0504 -1.0276
  994MOL0     H31200  11.591   8.733   1.017 -0.9108  0.4601  1.4217
  994MOL0     H31201  11.518   8.840   0.894 -1.8847 -1.1258 -0.8383
  994MOL0     H31202  11.568   8.909   1.191 -2.8498 -2.0872  1.5465
  994MOL0     H31203  11.439   8.979   1.078 -0.5768 -2.0362 -3.6535
  994MOL0     H31204  11.717   8.947   1.001  0.5495  1.5646  0.9985
  994MOL0     H31205  11.591   9.046   0.909  1.0040  4.7018  0.6280
  994MOL0     H31206  11.780   9.316   1.159 -0.3207 -0.2384 -0.2280
  994MOL0     H31207  11.370   8.819   1.391 -0.7777  0.9073  1.7353
  994MOL0     H31208  11.179   8.844   1.547  0.0098 -2.6833  1.2366
  995MOL0     O31209   1.856   0.105   1.707  0.9321 -0.2354 -0.4839
  995MOL0     C31210   1.946   0.057   1.644 -0.0746  0.2013  0.1419
  995MOL0     O31211   2.079   0.099   1.641 -0.4996 -0.6853 -0.2021
  995MOL0     C31212   2.124   0.207   1.717  0.0094 -0.5152 -0.0627
  995MOL0     C31213   2.062   0.333   1.695  0.0181 -0.3394 -0.2586
  995MOL0     C31214   2.123   0.454   1.735 -0.1166 -0.0435  0.5084
  995MOL0     C31215   2.232   0.446   1.818  0.0997 -0.0502 -0.7099
  995MOL0     O31216   2.296   0.555   1.877 -0.1549 -0.8943 -0.4002
  995MOL0     C31217   2.273   0.684   1.819 -0.2570  0.0156 -0.1088
  995MOL0     C31218   2.321   0.710   1.679 -0.3820  0.7345  0.3148
  995MOL0     C31219   2.477   0.685   1.674 -0.4940  0.1192  0.0926
  995MOL0     C31220   2.532   0.685   1.531 -0.7272  0.5860 -0.3254
  995MOL0     C31221   2.681   0.650   1.535 -0.6069 -0.0055  0.8238
  995MOL0     C31222   2.750   0.687   1.400  0.4400  0.0142  0.2224
  995MOL0     C31223   2.895   0.639   1.386 -1.0149  1.0107  0.3526
  995MOL0     C31224   2.916   0.483   1.402  0.1775  0.0470  0.0947
  995MOL0     N31225   3.058   0.447   1.397  0.0766  0.1550 -0.6237
  995MOL0     C31226   3.127   0.397   1.299  0.1765  0.4635  0.0555
  995MOL0     C31227   3.252   0.369   1.351 -0.4326  0.1902 -0.7166
  995MOL0     C31228   3.376   0.307   1.281  0.6452 -0.5112 -0.1103
  995MOL0     C31229   3.372   0.157   1.281  0.1754 -0.1036  0.8490
  995MOL0     C31230   3.500   0.098   1.205  0.9382  0.0999 -1.2238
  995MOL0     C31231   3.627   0.079   1.281  1.0565 -0.4389  0.0713
  995MOL0     O31232   3.622  -0.013   1.392 -0.3979 -0.4431 -0.8961
  995MOL0     C31233   3.615  -0.148   1.377  0.1975  0.3816  1.1684
  995MOL0     C31234   3.637  -0.219   1.253 -0.5595 -0.9817  0.1542
  995MOL0     C31235   3.620  -0.354   1.249  0.0315 -0.1522 -0.4869
  995MOL0     C31236   3.603  -0.432   1.369 -0.0981 -0.1150  0.4393
  995MOL0     C31237   3.597  -0.582   1.371  0.1520 -0.3940  0.7554
  995MOL0     O31238   3.570  -0.645   1.486  0.6020  0.4784  0.0506
  995MOL0     C31239   3.598  -0.774   1.496  0.3827  0.2713  0.0639
  995MOL0     C31240   3.713  -0.810   1.568 -0.0207  0.4765  0.0233
  995MOL0     C31241   3.742  -0.948   1.571  0.0214 -0.2556 -0.1514
  995MOL0     C31242   3.658  -1.047   1.515  0.6958  0.0820 -0.6611
  995MOL0     O31243   3.708  -1.174   1.519 -0.2257 -0.4239  0.3819
  995MOL0     C31244   3.685  -1.240   1.394 -0.6203  0.6893  0.2397
  995MOL0     C31245   3.681  -1.394   1.407 -0.6173  0.6308 -0.7173
  995MOL0     C31246   3.558  -1.438   1.487 -0.1882 -1.1154  0.4200
  995MOL0     C31247   3.550  -1.591   1.499 -0.2194  0.0521  0.0910
  995MOL0     C31248   3.404  -1.646   1.510  0.2589 -0.0377 -1.6395
  995MOL0     C31249   3.319  -1.594   1.626  0.2415 -0.5549  0.3975
  995MOL0     C31250   3.200  -1.679   1.653 -0.3994 -0.0471  0.8512
  995MOL0     C31251   3.099  -1.619   1.746  0.0365 -0.3746 -0.1450
  995MOL0    Cl31252   3.167  -1.601   1.914 -0.7134 -0.1721  0.1701
  995MOL0     C31253   3.537  -1.004   1.453 -0.5858 -1.1941 -0.1145
  995MOL0     C31254   3.504  -0.870   1.456  0.1629  0.0820  0.8728
  995MOL0     O31255   3.637  -0.641   1.267  0.0249 -0.1571  0.0044
  995MOL0     C31256   3.585  -0.355   1.486 -0.5409 -0.2147  0.2632
  995MOL0     C31257   3.591  -0.217   1.494  0.1869  0.1563 -0.2335
  995MOL0     N31258   3.247   0.378   1.485  0.5724  0.2217 -0.9369
  995MOL0     N31259   3.134   0.424   1.512 -0.1070  0.3740  0.4085
  995MOL0     C31260   2.293   0.326   1.848 -0.2143  0.9147 -0.4415
  995MOL0     C31261   2.239   0.203   1.797  0.0233  0.5237  0.6851
  995MOL0     C31262   1.915  -0.072   1.582 -1.2177 -0.1659 -0.2206
  995MOL0     C31263   2.015  -0.156   1.530 -0.5725  0.3804  0.1291
  995MOL0     C31264   2.000  -0.288   1.487  0.0539 -0.4732 -0.8207
  995MOL0     C31265   1.869  -0.342   1.466  0.9880 -0.4789 -0.4456
  995MOL0     O31266   1.862  -0.459   1.397  0.6022  0.1911  0.3490
  995MOL0     C31267   1.727  -0.509   1.362  0.9658 -0.8562 -0.2439
  995MOL0     C31268   1.753  -0.652   1.325 -0.1526 -0.6835 -0.0451
  995MOL0     C31269   1.822  -0.737   1.436 -0.8622  0.2308  0.1505
  995MOL0     C31270   1.776  -0.892   1.451 -0.4072 -0.2688 -0.2438
  995MOL0     C31271   1.626  -0.895   1.467 -0.1616 -0.3661 -0.2886
  995MOL0     C31272   1.511  -0.916   1.481 -0.9213 -0.9051  0.5035
  995MOL0     C31273   1.763  -0.257   1.512 -0.4817  0.3019 -0.0146
  995MOL0     C31274   1.791  -0.134   1.568  1.0311  0.0026 -0.4173
  995MOL0     H31275   1.975   0.336   1.630 -0.1712 -0.2715 -0.0039
  995MOL0     H31276   2.064   0.545   1.725 -3.9548 -2.3227  0.4281
  995MOL0     H31277   2.324   0.756   1.884 -0.9815  2.1147 -1.7343
  995MOL0     H31278   2.169   0.712   1.834 -0.8566  0.8957 -4.5403
  995MOL0     H31279   2.304   0.816   1.656  0.3823  1.2335  1.8976
  995MOL0     H31280   2.263   0.656   1.603  0.1366  1.9508 -0.9935
  995MOL0     H31281   2.488   0.582   1.710  1.3553 -0.0874 -0.9372
  995MOL0     H31282   2.532   0.754   1.739  0.3646 -1.0521  0.6466
  995MOL0     H31283   2.479   0.606   1.477 -0.2083 -1.1216  1.5689
  995MOL0     H31284   2.507   0.785   1.493 -0.0306 -0.1815 -3.0804
  995MOL0     H31285   2.685   0.542   1.553  0.6924 -0.6713 -2.6591
  995MOL0     H31286   2.740   0.704   1.610  1.7602 -0.2742 -0.7138
  995MOL0     H31287   2.737   0.793   1.380  0.1692  0.4130  2.2898
  995MOL0     H31288   2.691   0.638   1.322 -0.2816  2.8765 -1.1602
  995MOL0     H31289   2.929   0.676   1.289 -1.4288 -0.4819 -0.3916
  995MOL0     H31290   2.960   0.691   1.457 -0.5529  2.1019 -0.8419
  995MOL0     H31291   2.869   0.445   1.311 -1.0807  0.7920  0.4097
  995MOL0     H31292   2.876   0.445   1.497 -0.7620  1.7839  0.4376
  995MOL0     H31293   3.105   0.399   1.192  4.2600  2.5886 -0.9423
  995MOL0     H31294   3.462   0.345   1.338 -0.2697 -0.4847  1.3141
  995MOL0     H31295   3.389   0.346   1.180  1.9069  0.7043  0.4744
  995MOL0     H31296   3.290   0.129   1.213  1.9341  1.0637 -1.9065
  995MOL0     H31297   3.352   0.107   1.377 -0.2468 -4.2689 -1.1632
  995MOL0     H31298   3.464  -0.000   1.174  2.9302 -0.2171 -2.7273
  995MOL0     H31299   3.522   0.157   1.116  1.4306 -0.3823 -1.4287
  995MOL0     H31300   3.665   0.178   1.306  2.5278 -0.1890 -2.7274
  995MOL0     H31301   3.694   0.037   1.206  0.1834  0.5223 -1.2964
  995MOL0     H31302   3.684  -0.164   1.172  0.0863  0.3595  1.3762
  995MOL0     H31303   3.647  -0.406   1.158 -0.3270 -0.8756 -0.1881
  995MOL0     H31304   3.780  -0.729   1.598 -1.0504  1.8352 -1.1797
  995MOL0     H31305   3.835  -0.983   1.613  0.8058 -0.9699 -2.3066
  995MOL0     H31306   3.762  -1.223   1.318 -0.3371 -2.0637 -0.2106
  995MOL0     H31307   3.592  -1.208   1.345  0.2609 -0.1164 -2.1432
  995MOL0     H31308   3.773  -1.422   1.459 -0.9509  0.8406 -0.0037
  995MOL0     H31309   3.679  -1.456   1.316 -1.1841 -2.6515  1.3723
  995MOL0     H31310   3.464  -1.416   1.436  0.2260 -1.2235 -0.4033
  995MOL0     H31311   3.564  -1.391   1.586 -0.3607 -1.1104  0.4280
  995MOL0     H31312   3.592  -1.637   1.409 -3.6578  1.0749 -2.2290
  995MOL0     H31313   3.609  -1.617   1.588  1.5521  1.9774 -0.4169
  995MOL0     H31314   3.427  -1.752   1.528  2.4981  0.6179 -0.1829
  995MOL0     H31315   3.341  -1.641   1.421 -2.6724 -2.2170  0.0888
  995MOL0     H31316   3.278  -1.495   1.605  0.6068 -0.3290  0.7582
  995MOL0     H31317   3.383  -1.590   1.714 -1.9113  1.7053  1.9935
  995MOL0     H31318   3.143  -1.691   1.560  0.0609  1.0143  0.4132
  995MOL0     H31319   3.234  -1.774   1.695 -1.3869 -0.3395  1.0254
  995MOL0     H31320   3.010  -1.681   1.748  0.0333 -0.3451  0.8331
  995MOL0     H31321   3.071  -1.517   1.716  0.9790 -0.2566 -0.6848
  995MOL0     H31322   3.454  -1.066   1.421 -2.0517  0.1412  1.0041
  995MOL0     H31323   3.409  -0.843   1.413  0.2584 -1.1448 -0.1499
  995MOL0     H31324   3.568  -0.401   1.583 -1.2536  1.7148  1.1248
  995MOL0     H31325   3.601  -0.161   1.587 -0.9822  2.2407 -1.2938
  995MOL0     H31326   2.388   0.315   1.901 -0.9311 -0.0270  0.6922
  995MOL0     H31327   2.290   0.110   1.822  1.8359  1.7880  1.9595
  995MOL0     H31328   2.110  -0.106   1.521 -0.4897  0.8947  3.0927
  995MOL0     H31329   2.087  -0.343   1.456 -1.0084 -2.0628 -1.0931
  995MOL0     H31330   1.684  -0.454   1.277  0.7524 -1.8194 -0.7780
  995MOL0     H31331   1.663  -0.515   1.450  1.8013 -5.1676  0.3006
  995MOL0     H31332   1.661  -0.706   1.298  0.1870  0.5585 -4.4177
  995MOL0     H31333   1.808  -0.641   1.231 -0.0842  0.9175  0.1464
  995MOL0     H31334   1.807  -0.685   1.531 -2.8192  0.1902 -0.0954
  995MOL0     H31335   1.925  -0.737   1.399 -0.9299  1.4136 -0.0682
  995MOL0     H31336   1.803  -0.961   1.370  0.2016 -0.3178 -0.0050
  995MOL0     H31337   1.832  -0.930   1.537  0.5152 -0.2419 -0.8086
  995MOL0     H31338   1.406  -0.937   1.480 -0.2953 -4.8443 -0.8401
  995MOL0     H31339   1.664  -0.300   1.517 -0.7995  1.1928  2.6727
  995MOL0     H31340   1.702  -0.088   1.609  0.5723 -2.2022  1.2110
  996MOL0     O31341   3.796   9.188   3.951 -0.3612  0.6953  0.0405
  996MOL0     C31342   3.883   9.141   4.026  0.3750 -0.2680 -0.4607
  996MOL0     O31343   3.926   9.200   4.142  0.2207  0.3484  0.0911
  996MOL0     C31344   3.888   9.320   4.190 -0.6751 -0.0920 -0.3458
  996MOL0     C31345   3.774   9.395   4.159 -0.2778 -0.3667 -0.6546
  996MOL0     C31346   3.756   9.528   4.202  0.4242  0.3394  0.3469
  996MOL0     C31347   3.853   9.590   4.280 -0.1834 -0.1906  0.4075
  996MOL0     O31348   3.865   9.731   4.326 -0.0710 -0.3296 -0.1102
  996MOL0     C31349   3.754   9.811   4.273 -0.4029  0.3111  0.0133
  996MOL0     C31350   3.804   9.959   4.283  0.4314  0.2146  0.2500
  996MOL0     C31351   3.937   9.998   4.216 -0.4273  0.2271  0.2425
  996MOL0     C31352   3.931  10.144   4.194  0.0356  0.7458 -0.0459
  996MOL0     C31353   4.070  10.190   4.145  0.7992 -0.4130  0.1870
  996MOL0     C31354   4.068  10.187   3.984  0.0628  0.3605  0.7871
  996MOL0     C31355   4.216  10.207   3.938  0.2794 -0.6240 -0.3814
  996MOL0     C31356   4.263  10.350   3.961 -0.3887  0.1935  0.4853
  996MOL0     N31357   4.200  10.444   3.869 -0.0398 -0.2820  0.8956
  996MOL0     C31358   4.200  10.441   3.727 -0.0931 -1.1320  0.3151
  996MOL0     C31359   4.138  10.557   3.700  0.4389  0.2211 -0.5637
  996MOL0     C31360   4.091  10.618   3.566  0.0652  0.9243 -0.8777
  996MOL0     C31361   4.131  10.537   3.446 -0.3494 -0.4068  1.2308
  996MOL0     C31362   4.083  10.604   3.309 -0.2880  0.4077  0.2456
  996MOL0     C31363   4.133  10.517   3.187  0.5492 -0.5279  0.3315
  996MOL0     O31364   4.114  10.594   3.065 -0.2813  0.0923 -0.8336
  996MOL0     C31365   4.072  10.523   2.955 -0.2242 -0.5247 -1.1626
  996MOL0     C31366   3.953  10.462   2.959 -0.0492 -0.3000  0.9805
  996MOL0     C31367   3.926  10.366   2.866 -0.8969  0.7177 -0.2506
  996MOL0     C31368   4.018  10.334   2.777 -0.3749  0.3769  0.1924
  996MOL0     C31369   3.990  10.229   2.678  0.4306  0.2092 -0.3004
  996MOL0     O31370   3.857  10.201   2.656  0.2117  0.4240 -0.2849
  996MOL0     C31371   3.819  10.126   2.554  0.1969  0.5173 -0.0370
  996MOL0     C31372   3.893  10.015   2.510  0.0977  0.1983 -0.3228
  996MOL0     C31373   3.852   9.944   2.398  0.6430 -0.5512 -0.5286
  996MOL0     C31374   3.742   9.988   2.323  1.0277  0.4872  0.1901
  996MOL0     O31375   3.701   9.924   2.201 -0.4604 -0.4189  0.7111
  996MOL0     C31376   3.798   9.936   2.090  0.2545 -1.0349 -0.1879
  996MOL0     C31377   3.740   9.980   1.962  0.4206 -0.7633  0.1482
  996MOL0     C31378   3.740  10.132   1.970  0.5198 -1.0976  0.0776
  996MOL0     C31379   3.691  10.192   1.842  0.5011  0.1227  0.1139
  996MOL0     C31380   3.644  10.340   1.846 -1.2189 -0.2108  0.0187
  996MOL0     C31381   3.569  10.367   1.976  1.1058 -0.1873 -0.9584
  996MOL0     C31382   3.490  10.501   1.979 -0.2681 -0.8385  0.4000
  996MOL0     C31383   3.570  10.621   2.039 -0.0901  0.2030 -0.8392
  996MOL0    Cl31384   3.524  10.776   1.962 -0.1709 -0.1398  0.8421
  996MOL0     C31385   3.674  10.104   2.350 -1.1965  0.3037 -0.4607
  996MOL0     C31386   3.710  10.167   2.472  0.2383 -1.0455 -0.1988
  996MOL0     O31387   4.082  10.191   2.615  0.3024 -0.2359  0.2801
  996MOL0     C31388   4.147  10.392   2.773 -0.3765  0.2574  0.0444
  996MOL0     C31389   4.177  10.500   2.863 -0.2734  0.1581  1.1551
  996MOL0     N31390   4.075  10.609   3.815 -0.0689  0.5273  0.4970
  996MOL0     N31391   4.119  10.549   3.916 -0.0971  0.5201 -0.4436
  996MOL0     C31392   3.961   9.516   4.326 -0.0144 -0.4212 -0.2122
  996MOL0     C31393   3.973   9.387   4.281 -0.3057  0.1903 -0.9743
  996MOL0     C31394   3.948   9.010   3.984  0.0624  1.0961 -0.4193
  996MOL0     C31395   3.914   8.930   3.868 -0.9243 -0.0860 -0.7884
  996MOL0     C31396   3.999   8.822   3.838  1.4173 -0.9809 -0.5772
  996MOL0     C31397   4.107   8.777   3.925  0.1300  0.3182 -0.5430
  996MOL0     O31398   4.183   8.667   3.901  0.0050 -0.2099 -0.3337
  996MOL0     C31399   4.177   8.587   3.781 -0.9167 -0.0717  0.1569
  996MOL0     C31400   4.220   8.444   3.820  0.1761 -0.0031  0.2253
  996MOL0     C31401   4.184   8.344   3.708 -0.0042  0.3474  0.1217
  996MOL0     C31402   4.196   8.199   3.758  0.2181  0.1891 -0.0642
  996MOL0     C31403   4.332   8.149   3.749 -0.2096 -0.2018 -0.1178
  996MOL0     C31404   4.441   8.105   3.734 -0.3632 -0.7120 -0.1607
  996MOL0     C31405   4.133   8.849   4.034  0.2136 -0.5163  0.6242
  996MOL0     C31406   4.061   8.959   4.068  0.1809 -0.4379 -0.5094
  996MOL0     H31407   3.708   9.356   4.082 -0.8624  2.4256 -1.7186
  996MOL0     H31408   3.667   9.579   4.166  0.4404 -0.6383 -1.2023
  996MOL0     H31409   3.660   9.802   4.328 -1.8732  0.5847 -2.2958
  996MOL0     H31410   3.722   9.788   4.171 -1.8066 -0.6135  0.6403
  996MOL0     H31411   3.810   9.986   4.389 -2.2638  1.7554  0.0762
  996MOL0     H31412   3.731  10.022   4.233 -2.5871 -2.3745  1.0768
  996MOL0     H31413   3.941   9.952   4.116  5.8670 -0.9329  0.6742
  996MOL0     H31414   4.027   9.963   4.267 -0.1828 -1.7059 -1.3801
  996MOL0     H31415   3.855  10.185   4.127 -0.1250 -0.6196 -0.7369
  996MOL0     H31416   3.919  10.178   4.298  2.6783 -0.5379  0.7456
  996MOL0     H31417   4.141  10.118   4.187 -0.9226 -1.7526  0.9468
  996MOL0     H31418   4.093  10.285   4.195 -0.2668 -0.5475  0.9911
  996MOL0     H31419   4.001  10.263   3.942 -0.9346 -2.5873 -3.6377
  996MOL0     H31420   4.035  10.086   3.958  0.1878  0.4610  0.2215
  996MOL0     H31421   4.278  10.148   4.006 -1.3240 -0.0484  1.6514
  996MOL0     H31422   4.228  10.177   3.833 -1.4053  0.8264 -1.0302
  996MOL0     H31423   4.371  10.364   3.952 -0.5897  1.1543 -0.7371
  996MOL0     H31424   4.228  10.381   4.060  0.8654  1.2501  0.6338
  996MOL0     H31425   4.235  10.366   3.656  0.1462 -1.2070  0.5128
  996MOL0     H31426   4.138  10.715   3.551 -2.5286  2.3480 -0.2862
  996MOL0     H31427   3.986  10.645   3.573  0.0401  0.8054 -0.7767
  996MOL0     H31428   4.084  10.439   3.456 -0.0702 -0.3886  3.0302
  996MOL0     H31429   4.239  10.520   3.446  0.3430  3.0379  2.3755
  996MOL0     H31430   3.974  10.611   3.300 -0.0991  0.3541 -3.6589
  996MOL0     H31431   4.128  10.703   3.301 -0.6546  0.8936  3.2367
  996MOL0     H31432   4.076  10.424   3.194 -0.8076  0.3337  1.0572
  996MOL0     H31433   4.239  10.493   3.199  0.7409  0.6198  1.0303
  996MOL0     H31434   3.873  10.477   3.031  0.2284 -3.9790  2.3042
  996MOL0     H31435   3.828  10.320   2.869  0.6680 -2.9454  0.1617
  996MOL0     H31436   3.969   9.964   2.568  0.0753 -1.7951 -1.8963
  996MOL0     H31437   3.901   9.852   2.370 -2.4947 -1.6041 -3.3321
  996MOL0     H31438   3.834   9.837   2.058  0.3504 -1.1473  0.2554
  996MOL0     H31439   3.891   9.990   2.109 -0.4389  0.0340  0.2282
  996MOL0     H31440   3.637   9.943   1.961 -0.2748  1.0809 -0.4399
  996MOL0     H31441   3.802   9.952   1.877  0.5879  1.9342 -0.6993
  996MOL0     H31442   3.841  10.175   1.978 -0.4625  1.1269  1.5889
  996MOL0     H31443   3.675  10.164   2.052  2.9064  0.5539  1.4586
  996MOL0     H31444   3.774  10.183   1.771  2.1654 -0.1156  2.0069
  996MOL0     H31445   3.605  10.138   1.800  0.7678  0.6816 -1.1878
  996MOL0     H31446   3.579  10.358   1.760 -0.2267  1.7101 -0.3855
  996MOL0     H31447   3.730  10.408   1.844 -1.1788 -0.1599  2.0934
  996MOL0     H31448   3.645  10.378   2.054  0.8902  1.4838 -0.9484
  996MOL0     H31449   3.513  10.276   1.997  0.7356 -0.1280 -1.6495
  996MOL0     H31450   3.450  10.526   1.880 -1.9694  1.5032  1.5819
  996MOL0     H31451   3.398  10.499   2.038 -0.4803 -2.9042  0.0796
  996MOL0     H31452   3.676  10.608   2.012  0.5843 -0.8668  1.9453
  996MOL0     H31453   3.574  10.613   2.148 -0.6427 -0.7278 -0.8814
  996MOL0     H31454   3.586  10.149   2.306 -2.1178 -1.4363 -0.4757
  996MOL0     H31455   3.670  10.267   2.489  1.0782 -0.7986  0.3640
  996MOL0     H31456   4.226  10.368   2.703 -2.0627 -2.1572 -1.1349
  996MOL0     H31457   4.277  10.541   2.857 -0.9856  1.8841  0.2802
  996MOL0     H31458   4.030   9.560   4.397 -0.2109  0.5325 -0.5922
  996MOL0     H31459   4.060   9.333   4.318 -1.0077  0.3748  1.1011
  996MOL0     H31460   3.826   8.953   3.808  0.5808  3.2336 -1.9919
  996MOL0     H31461   3.978   8.762   3.750  0.6070 -0.1197 -0.9884
  996MOL0     H31462   4.236   8.626   3.698  0.1279 -0.0567  0.8745
  996MOL0     H31463   4.074   8.575   3.746 -0.4614 -2.3141 -0.5660
  996MOL0     H31464   4.329   8.438   3.828 -0.0112 -2.4642  1.9417
  996MOL0     H31465   4.165   8.403   3.905 -0.2304 -3.3131 -1.4981
  996MOL0     H31466   4.247   8.366   3.620 -4.0551 -3.3911 -4.2799
  996MOL0     H31467   4.076   8.347   3.690  0.1555 -2.2565 -1.8768
  996MOL0     H31468   4.177   8.215   3.865 -2.2176  3.3345 -0.8153
  996MOL0     H31469   4.131   8.121   3.719 -1.6258  2.0816 -0.9658
  996MOL0     H31470   4.544   8.076   3.732  0.4484  1.6501  1.5551
  996MOL0     H31471   4.214   8.840   4.106 -0.3331  0.3025  1.3744
  996MOL0     H31472   4.099   9.020   4.149  2.3923  0.2834 -1.9974
  997MOL0     O31473  10.041   1.057   5.053  0.2062 -0.8683  0.3231
  997MOL0     C31474  10.006   0.979   4.955 -0.7765 -0.5671  0.3148
  997MOL0     O31475   9.878   0.955   4.917 -0.5625 -0.5168  0.6359
  997MOL0     C31476   9.782   1.020   4.990 -0.0044 -0.8993 -0.7093
  997MOL0     C31477   9.723   1.135   4.935  0.2886 -0.3779  0.8556
  997MOL0     C31478   9.606   1.187   4.989 -0.5061 -0.1562 -0.6865
  997MOL0     C31479   9.556   1.138   5.110 -0.0378 -0.6184  0.7057
  997MOL0     O31480   9.450   1.211   5.160 -0.2864 -0.4605 -0.0717
  997MOL0     C31481   9.374   1.135   5.255  0.2547  0.0927  0.5083
  997MOL0     C31482   9.235   1.203   5.282 -0.1014  0.2060 -0.7596
  997MOL0     C31483   9.153   1.116   5.375  0.5306  0.3645  0.2516
  997MOL0     C31484   9.009   1.162   5.396  0.3926  0.0214  0.4663
  997MOL0     C31485   8.935   1.085   5.505 -0.6198 -0.7708  0.6482
  997MOL0     C31486   8.921   0.934   5.484 -1.2038 -0.0783 -0.2034
  997MOL0     C31487   8.872   0.868   5.609  0.8887 -1.1489  0.2836
  997MOL0     C31488   8.798   0.738   5.560  0.0309  0.1139 -0.6353
  997MOL0     N31489   8.857   0.623   5.628  0.6930 -0.1430 -0.3837
  997MOL0     C31490   8.977   0.573   5.590  0.4323 -1.2012  0.7582
  997MOL0     C31491   8.992   0.466   5.666 -0.5758 -1.1131  0.1286
  997MOL0     C31492   9.110   0.363   5.676  0.4473  0.2917  0.3265
  997MOL0     C31493   9.075   0.235   5.739 -0.6814 -0.5644 -0.8993
  997MOL0     C31494   8.962   0.154   5.666  0.2311 -1.0859 -0.9478
  997MOL0     C31495   8.931   0.026   5.750 -0.1354  0.3154  0.0545
  997MOL0     O31496   8.822  -0.037   5.690  0.6977 -0.1548 -0.1599
  997MOL0     C31497   8.799  -0.160   5.749  0.4369 -0.2463  0.7862
  997MOL0     C31498   8.884  -0.240   5.817  0.1625 -1.0485 -0.1925
  997MOL0     C31499   8.860  -0.373   5.856  0.0878  0.8373  0.2726
  997MOL0     C31500   8.737  -0.433   5.828 -0.1106  0.6605  0.0316
  997MOL0     C31501   8.712  -0.578   5.863 -0.2370  0.2511  0.5874
  997MOL0     O31502   8.596  -0.637   5.828 -0.0408 -0.5148  0.0765
  997MOL0     C31503   8.569  -0.767   5.844 -2.4443  0.8145 -0.1428
  997MOL0     C31504   8.444  -0.793   5.885  1.0436 -0.0033  1.1304
  997MOL0     C31505   8.383  -0.918   5.902  0.0121 -0.3459  0.2887
  997MOL0     C31506   8.472  -1.033   5.890 -0.3640 -0.3998 -0.0405
  997MOL0     O31507   8.411  -1.159   5.912 -0.4072 -0.1937  0.2448
  997MOL0     C31508   8.438  -1.194   6.046 -0.1700  0.3157 -0.2070
  997MOL0     C31509   8.426  -1.343   6.061  0.3634 -0.4190  1.1485
  997MOL0     C31510   8.279  -1.385   6.068  0.1225  0.5739  0.2173
  997MOL0     C31511   8.258  -1.532   6.101  0.0077  0.1443  0.1028
  997MOL0     C31512   8.105  -1.573   6.072  0.3459 -0.5770  0.4387
  997MOL0     C31513   8.062  -1.575   5.922 -0.6050  0.1878 -0.5963
  997MOL0     C31514   8.147  -1.656   5.835  0.0085 -0.7913  0.4677
  997MOL0     C31515   8.262  -1.585   5.772  0.6308 -0.8602  0.7052
  997MOL0    Cl31516   8.326  -1.674   5.630  0.0113  0.3105  0.3567
  997MOL0     C31517   8.616  -1.010   5.864  0.9999  0.0812  0.2492
  997MOL0     C31518   8.659  -0.876   5.845  0.0278  0.3014 -0.2023
  997MOL0     O31519   8.800  -0.635   5.923 -0.0580  0.7984 -1.0421
  997MOL0     C31520   8.645  -0.352   5.758  0.7016 -0.1455 -0.5746
  997MOL0     C31521   8.675  -0.216   5.723  0.1292  0.0876  0.4770
  997MOL0     N31522   8.878   0.456   5.746  0.2913  0.4086 -0.0018
  997MOL0     N31523   8.796   0.554   5.732  0.3284  0.4996 -0.1606
  997MOL0     C31524   9.612   1.026   5.167  0.2033  0.8399  0.5595
  997MOL0     C31525   9.728   0.969   5.110 -1.1964 -0.2157  0.4983
  997MOL0     C31526  10.118   0.926   4.879 -1.1905 -0.9726 -0.0299
  997MOL0     C31527  10.092   0.834   4.769  0.2536 -0.6553 -0.4927
  997MOL0     C31528  10.197   0.785   4.691  1.0655 -0.0010  0.6019
  997MOL0     C31529  10.328   0.840   4.695  1.0240 -0.6854  0.1913
  997MOL0     O31530  10.435   0.820   4.605  0.6068 -0.1264  0.4065
  997MOL0     C31531  10.432   0.698   4.527 -0.0879  0.9394 -0.0180
  997MOL0     C31532  10.572   0.642   4.496  0.4248 -0.3251  0.1630
  997MOL0     C31533  10.571   0.495   4.439  0.5328  1.0508  0.7257
  997MOL0     C31534  10.465   0.400   4.492  0.1504  0.8410 -0.5505
  997MOL0     C31535  10.520   0.265   4.472 -0.6471 -0.0850  0.8709
  997MOL0     C31536  10.586   0.160   4.454  0.1712 -0.0759  0.0052
  997MOL0     C31537  10.346   0.936   4.792  0.3372  0.2825 -0.2392
  997MOL0     C31538  10.248   0.978   4.889  0.9203  1.3308 -0.1040
  997MOL0     H31539   9.771   1.161   4.841 -0.9200 -2.1100 -0.3023
  997MOL0     H31540   9.549   1.253   4.924 -2.1043 -2.8027 -2.1511
  997MOL0     H31541   9.435   1.126   5.345 -0.8756 -0.7202  1.2109
  997MOL0     H31542   9.344   1.033   5.230 -3.3750  0.6410  1.9796
  997MOL0     H31543   9.190   1.213   5.183  0.5570 -0.0547 -1.0893
  997MOL0     H31544   9.239   1.305   5.322 -1.9180  0.6192 -1.5099
  997MOL0     H31545   9.201   1.098   5.472 -0.1792  0.5728  0.6538
  997MOL0     H31546   9.155   1.020   5.322 -1.8684  1.0366 -1.2125
  997MOL0     H31547   8.988   1.269   5.408 -2.5719  0.2286 -4.0091
  997MOL0     H31548   8.953   1.155   5.302  0.8933  1.0865  0.0702
  997MOL0     H31549   8.831   1.118   5.505 -0.4278  0.0166  2.6923
  997MOL0     H31550   8.983   1.108   5.601  0.1159 -0.9351  0.3221
  997MOL0     H31551   9.016   0.891   5.453 -0.0174  2.7459 -0.8118
  997MOL0     H31552   8.847   0.915   5.406 -1.0772 -1.4779  0.0013
  997MOL0     H31553   8.953   0.850   5.679  1.4663  1.4862  0.3635
  997MOL0     H31554   8.804   0.934   5.664  3.0967 -0.6097  2.5155
  997MOL0     H31555   8.798   0.717   5.453 -3.4053 -0.1261 -0.7058
  997MOL0     H31556   8.695   0.754   5.592  0.4007  0.9554  0.1862
  997MOL0     H31557   9.037   0.608   5.507 -1.8320 -0.5560 -0.6877
  997MOL0     H31558   9.202   0.406   5.718  0.8166  0.3944 -0.5572
  997MOL0     H31559   9.138   0.328   5.576  2.2567  0.4115  0.7442
  997MOL0     H31560   9.031   0.250   5.838 -0.8515  0.3244 -1.0994
  997MOL0     H31561   9.168   0.181   5.756 -0.5507 -1.1504 -3.0766
  997MOL0     H31562   8.868   0.208   5.661 -1.0155 -3.0883 -0.4687
  997MOL0     H31563   8.977   0.138   5.559 -4.8488  0.2995 -2.1225
  997MOL0     H31564   8.906   0.044   5.855 -0.2737 -1.0407  0.2713
  997MOL0     H31565   9.021  -0.034   5.760 -0.0913  0.5792  1.4936
  997MOL0     H31566   8.982  -0.213   5.855  0.6113  1.0927 -2.6494
  997MOL0     H31567   8.940  -0.407   5.922 -0.2245  0.3378  0.3959
  997MOL0     H31568   8.378  -0.707   5.892 -0.5722 -1.1805  0.7378
  997MOL0     H31569   8.279  -0.921   5.934  0.1350  2.6163  1.2156
  997MOL0     H31570   8.360  -1.139   6.099 -0.6535  1.1161 -1.7013
  997MOL0     H31571   8.541  -1.168   6.072  0.9307 -1.8863 -2.0590
  997MOL0     H31572   8.483  -1.391   6.141  4.0518  0.6609 -0.6224
  997MOL0     H31573   8.468  -1.387   5.970 -0.8647  0.1613  0.2724
  997MOL0     H31574   8.221  -1.349   5.983  1.3436  1.9057 -0.0990
  997MOL0     H31575   8.227  -1.330   6.147  0.1400  3.0538 -1.3917
  997MOL0     H31576   8.325  -1.600   6.048  1.1396  2.0471 -0.9985
  997MOL0     H31577   8.283  -1.535   6.207  0.0100 -0.7630  0.0901
  997MOL0     H31578   8.045  -1.496   6.121  0.2398  0.2416 -0.9291
  997MOL0     H31579   8.109  -1.669   6.123  0.1292  0.1805  1.9398
  997MOL0     H31580   8.064  -1.469   5.894  0.7255 -0.3535 -2.7957
  997MOL0     H31581   7.960  -1.612   5.919  0.7935 -4.1856 -0.7382
  997MOL0     H31582   8.179  -1.752   5.878 -1.2663 -2.0766 -1.3059
  997MOL0     H31583   8.072  -1.686   5.761  0.9714 -2.3861  0.0720
  997MOL0     H31584   8.342  -1.559   5.842  0.4081 -0.2368  0.7344
  997MOL0     H31585   8.213  -1.497   5.730  0.7991 -1.2358 -0.2930
  997MOL0     H31586   8.683  -1.095   5.870  2.0157  0.6715 -1.8714
  997MOL0     H31587   8.763  -0.867   5.816  0.4477 -1.8163  0.4918
  997MOL0     H31588   8.551  -0.391   5.720 -0.5667  2.5862 -0.4055
  997MOL0     H31589   8.597  -0.172   5.661 -2.2390 -2.3006  1.5571
  997MOL0     H31590   9.566   0.973   5.250  0.4934 -2.2406 -1.0803
  997MOL0     H31591   9.775   0.886   5.161  0.9463  0.2120 -0.6461
  997MOL0     H31592   9.990   0.797   4.760 -0.2075  0.2712  0.7035
  997MOL0     H31593  10.181   0.713   4.612 -0.7625  0.4433  0.5254
  997MOL0     H31594  10.380   0.726   4.435  0.2638  0.4671 -0.3662
  997MOL0     H31595  10.372   0.620   4.573  1.6850 -0.7914 -0.4882
  997MOL0     H31596  10.623   0.693   4.414 -0.4200 -0.5196 -0.4898
  997MOL0     H31597  10.635   0.651   4.586 -1.0098  0.1107  1.1571
  997MOL0     H31598  10.670   0.451   4.429  1.1793  2.2087  1.6962
  997MOL0     H31599  10.549   0.517   4.334  3.2011  1.4785  0.1914
  997MOL0     H31600  10.445   0.417   4.598  1.4849 -3.4210  0.5704
  997MOL0     H31601  10.370   0.404   4.439 -1.3614 -0.7134  1.8188
  997MOL0     H31602  10.645   0.072   4.443 -3.2376 -2.2430 -3.7408
  997MOL0     H31603  10.441   0.988   4.790 -0.1219  1.1358 -0.2828
  997MOL0     H31604  10.276   1.044   4.971  0.8318 -1.7768  2.6493
  998MOL0     O31605  10.279   7.850   1.955 -0.1757  0.2085 -0.0271
  998MOL0     C31606  10.317   7.768   1.868 -0.1011 -0.7296 -0.6038
  998MOL0     O31607  10.253   7.649   1.846  0.3968 -0.8815 -0.5034
  998MOL0     C31608  10.140   7.618   1.910 -0.1402 -0.1390  0.2706
  998MOL0     C31609  10.036   7.551   1.844 -0.3579  0.0004 -0.5836
  998MOL0     C31610   9.922   7.507   1.906 -0.2446 -0.1418  0.4709
  998MOL0     C31611   9.897   7.534   2.040  0.4103  0.0331  0.2954
  998MOL0     O31612   9.782   7.488   2.098 -0.0343 -0.1862  0.4503
  998MOL0     C31613   9.757   7.522   2.235 -0.5302 -0.3532 -0.2147
  998MOL0     C31614   9.623   7.473   2.285  0.2773 -0.4027 -0.3694
  998MOL0     C31615   9.604   7.324   2.300  1.6083  0.4690 -0.2903
  998MOL0     C31616   9.695   7.273   2.414  0.7494 -0.1874  0.0361
  998MOL0     C31617   9.633   7.150   2.467 -0.0436  0.3294 -0.3252
  998MOL0     C31618   9.678   7.108   2.603 -0.5475  1.0651 -0.2465
  998MOL0     C31619   9.614   6.971   2.638 -0.1863  1.1270 -0.0553
  998MOL0     C31620   9.693   6.890   2.740  0.5478  0.1075  0.2529
  998MOL0     N31621   9.751   6.975   2.846 -0.7874 -0.7529 -0.0066
  998MOL0     C31622   9.880   6.994   2.885  0.1737  0.4774  1.0707
  998MOL0     C31623   9.871   7.071   2.997  0.3815 -0.1469  0.1477
  998MOL0     C31624   9.984   7.121   3.068 -0.2425  0.1232 -1.2010
  998MOL0     C31625   9.938   7.188   3.202 -0.1854  0.3632  0.3009
  998MOL0     C31626   9.889   7.082   3.292 -0.4938 -0.4219 -0.4847
  998MOL0     C31627   9.837   7.158   3.415  0.3636  0.3370 -1.3982
  998MOL0     O31628   9.904   7.280   3.455 -0.9450  0.1950 -0.7118
  998MOL0     C31629   9.939   7.302   3.584  0.3781  0.2993  0.2016
  998MOL0     C31630   9.841   7.265   3.686 -1.0142  0.0601  0.9796
  998MOL0     C31631   9.895   7.256   3.822  0.2642 -0.0569  0.5360
  998MOL0     C31632  10.032   7.287   3.855  0.6536 -0.0034 -0.0532
  998MOL0     C31633  10.057   7.324   3.997  0.0072 -0.6990  0.3970
  998MOL0     O31634   9.999   7.254   4.098  0.2485 -0.5504  0.7382
  998MOL0     C31635  10.046   7.284   4.221  0.1969 -0.4250 -1.0996
  998MOL0     C31636   9.988   7.384   4.307  0.6183 -0.4625 -0.3045
  998MOL0     C31637  10.037   7.406   4.439  0.2978  0.4340  0.2380
  998MOL0     C31638  10.138   7.318   4.493  0.6061 -0.3878 -0.0849
  998MOL0     O31639  10.177   7.338   4.617 -0.3330 -0.3883  0.4773
  998MOL0     C31640  10.258   7.239   4.684  1.0537 -0.0492  0.6558
  998MOL0     C31641  10.301   7.296   4.814  0.3457  0.7714  0.3990
  998MOL0     C31642  10.382   7.420   4.795  0.4253 -0.3114 -0.1267
  998MOL0     C31643  10.444   7.463   4.929  0.0042  0.1363  0.1520
  998MOL0     C31644  10.529   7.594   4.917  0.2033 -0.6942 -0.1178
  998MOL0     C31645  10.597   7.634   5.055  2.0051 -0.3023  0.3849
  998MOL0     C31646  10.489   7.688   5.160 -0.4058  0.8743 -0.2061
  998MOL0     C31647  10.545   7.657   5.295  0.5167  1.3377 -0.5231
  998MOL0    Cl31648  10.701   7.757   5.316 -0.2382  0.0441 -0.6944
  998MOL0     C31649  10.191   7.217   4.400 -0.6141 -0.2186 -0.3790
  998MOL0     C31650  10.145   7.198   4.270  0.7813 -0.4666  0.6153
  998MOL0     O31651  10.120   7.434   4.015 -0.0454  0.4638  0.7528
  998MOL0     C31652  10.115   7.332   3.748 -0.0575  0.4926  0.2257
  998MOL0     C31653  10.067   7.340   3.615 -1.0076 -0.1301  1.0120
  998MOL0     N31654   9.731   7.096   3.018 -0.3875  0.0225  0.0297
  998MOL0     N31655   9.660   7.044   2.924 -0.2632  0.0094  1.2329
  998MOL0     C31656   9.998   7.600   2.112 -0.8129 -0.2399 -0.2188
  998MOL0     C31657  10.113   7.632   2.045 -0.5850 -0.0079  0.1748
  998MOL0     C31658  10.424   7.816   1.777 -0.5010 -1.4331 -1.1320
  998MOL0     C31659  10.458   7.740   1.666 -0.4395 -0.5055  0.1330
  998MOL0     C31660  10.557   7.777   1.568 -0.2303  0.4902 -0.5406
  998MOL0     C31661  10.629   7.902   1.597  0.0476 -0.4234  0.4597
  998MOL0     O31662  10.730   7.943   1.515  0.6090 -0.4632  0.2279
  998MOL0     C31663  10.837   8.027   1.560  0.3866  1.0337  0.2933
  998MOL0     C31664  10.958   7.992   1.478 -0.5255  0.8648  0.5434
  998MOL0     C31665  10.995   7.843   1.512 -0.3812 -0.5840  0.5004
  998MOL0     C31666  11.133   7.813   1.441  0.9551  0.3023  0.4497
  998MOL0     C31667  11.172   7.678   1.487  1.1235  0.2396  0.1189
  998MOL0     C31668  11.200   7.559   1.510  0.3869  0.2692  0.7377
  998MOL0     C31669  10.600   7.976   1.719  0.7260  0.9041 -0.4951
  998MOL0     C31670  10.506   7.926   1.812  0.8674 -0.5549  0.1584
  998MOL0     H31671  10.046   7.541   1.736 -0.3926 -1.9025 -0.4458
  998MOL0     H31672   9.834   7.481   1.847  0.8273 -1.6457 -0.5456
  998MOL0     H31673   9.764   7.629   2.255 -1.2168 -0.1469 -1.0824
  998MOL0     H31674   9.830   7.481   2.307  0.4618  0.4482 -0.7413
  998MOL0     H31675   9.546   7.517   2.220  1.6043  3.4052  0.3949
  998MOL0     H31676   9.614   7.526   2.380 -0.1578  0.2864 -0.7906
  998MOL0     H31677   9.634   7.267   2.212 -0.8119 -1.0287 -0.2451
  998MOL0     H31678   9.498   7.313   2.325  1.0012 -0.9221 -3.0890
  998MOL0     H31679   9.797   7.252   2.381 -0.0939 -2.2223 -1.4754
  998MOL0     H31680   9.710   7.354   2.486  1.1458 -0.6916  0.5286
  998MOL0     H31681   9.651   7.078   2.386  0.4973 -0.4583  0.4712
  998MOL0     H31682   9.526   7.161   2.482  0.1376  2.6612 -0.4277
  998MOL0     H31683   9.652   7.193   2.668  0.8174 -0.4885  2.5041
  998MOL0     H31684   9.785   7.089   2.605 -0.8808 -1.1130 -0.6386
  998MOL0     H31685   9.511   6.999   2.664 -0.3040  0.2432  0.4440
  998MOL0     H31686   9.614   6.910   2.547  0.3761  1.1649 -0.0838
  998MOL0     H31687   9.774   6.829   2.699  2.6723  0.7583  3.1504
  998MOL0     H31688   9.630   6.815   2.789  0.6606  2.6172  4.8664
  998MOL0     H31689   9.970   6.971   2.828 -1.7282 -0.8747 -1.5928
  998MOL0     H31690  10.029   7.204   3.013  0.8718  0.9859  0.9032
  998MOL0     H31691  10.057   7.043   3.092  0.8441  0.9742 -1.6518
  998MOL0     H31692   9.849   7.249   3.185  1.3584  2.8138  0.5568
  998MOL0     H31693  10.014   7.255   3.243 -1.0085  1.9056 -0.6131
  998MOL0     H31694   9.815   7.017   3.245 -0.4879  0.2687 -1.4748
  998MOL0     H31695   9.977   7.023   3.317  0.4091  2.1754  3.2981
  998MOL0     H31696   9.852   7.081   3.491  1.0212  1.0818 -0.7444
  998MOL0     H31697   9.731   7.180   3.407  0.2478  0.2644 -0.2284
  998MOL0     H31698   9.740   7.244   3.652 -0.6439  1.6148 -1.2322
  998MOL0     H31699   9.835   7.241   3.912  0.0465  2.9786  1.0119
  998MOL0     H31700   9.898   7.434   4.271  0.6909 -0.2740 -0.2299
  998MOL0     H31701   9.996   7.481   4.506 -0.8673 -0.1105  0.1666
  998MOL0     H31702  10.344   7.220   4.618  0.4271  2.2706 -0.9920
  998MOL0     H31703  10.197   7.150   4.702 -0.3089  1.1974  2.5694
  998MOL0     H31704  10.362   7.212   4.851 -1.7426 -2.4703 -2.7903
  998MOL0     H31705  10.216   7.314   4.880  1.2104  2.4012  1.1273
  998MOL0     H31706  10.313   7.495   4.755 -0.3867 -2.2101 -2.5409
  998MOL0     H31707  10.455   7.412   4.714  1.4661  3.7448  0.1787
  998MOL0     H31708  10.354   7.484   4.988 -2.5206 -1.2802 -2.9050
  998MOL0     H31709  10.507   7.385   4.972  3.8398  1.0474 -3.2229
  998MOL0     H31710  10.469   7.672   4.870 -2.8008 -2.0617  1.1876
  998MOL0     H31711  10.622   7.581   4.862  1.2922  2.1285  0.8682
  998MOL0     H31712  10.677   7.706   5.037  4.0545 -3.3510 -5.5247
  998MOL0     H31713  10.650   7.545   5.090  1.4984 -1.0994 -0.7721
  998MOL0     H31714  10.461   7.793   5.152 -1.7887  0.7074  1.7504
  998MOL0     H31715  10.401   7.624   5.154  0.6492 -0.6326 -0.1361
  998MOL0     H31716  10.577   7.552   5.301 -1.6157  0.6632 -0.0421
  998MOL0     H31717  10.476   7.675   5.378 -0.6935  0.2714 -1.2599
  998MOL0     H31718  10.276   7.161   4.438 -1.8645 -0.5209  2.1246
  998MOL0     H31719  10.198   7.119   4.218  1.4706 -1.8109  3.1672
  998MOL0     H31720  10.208   7.383   3.773 -0.4894  1.7611 -0.6159
  998MOL0     H31721  10.140   7.363   3.537 -0.7300 -1.5082  0.8506
  998MOL0     H31722   9.989   7.631   2.216 -2.2247  0.4679 -0.5220
  998MOL0     H31723  10.186   7.685   2.106 -0.5244  0.5759 -0.3978
  998MOL0     H31724  10.409   7.646   1.647  1.2333 -1.5209  0.6224
  998MOL0     H31725  10.604   7.740   1.477  0.8847  3.4558 -1.2947
  998MOL0     H31726  10.871   8.013   1.663 -0.0263 -0.8070  0.2116
  998MOL0     H31727  10.795   8.126   1.541 -2.1746  0.1152  0.7972
  998MOL0     H31728  10.934   7.988   1.372  1.5874  2.6035 -0.0616
  998MOL0     H31729  11.042   8.060   1.495 -0.8416  0.7840  2.7783
  998MOL0     H31730  10.916   7.773   1.484  2.1810 -3.9404  1.1340
  998MOL0     H31731  11.009   7.841   1.620  0.4359 -1.4184  0.3911
  998MOL0     H31732  11.119   7.804   1.333 -1.7471 -2.7890  0.8978
  998MOL0     H31733  11.217   7.879   1.465 -0.9036  2.8708  0.3017
  998MOL0     H31734  11.225   7.455   1.512  0.6194  0.3158  3.6971
  998MOL0     H31735  10.650   8.067   1.748  2.0439 -0.2986  1.2319
  998MOL0     H31736  10.491   7.976   1.907  0.0533 -2.7526  1.2571
  999MOL0     O31737   6.044   9.969   1.200  0.3501  0.1300  0.2501
  999MOL0     C31738   6.131  10.045   1.170 -0.3923 -0.8610  0.0860
  999MOL0     O31739   6.114  10.176   1.126  0.8749  0.6881  0.1829
  999MOL0     C31740   5.980  10.207   1.092  0.4365 -1.0742 -0.1187
  999MOL0     C31741   5.940  10.339   1.117  0.3683  0.5273  0.8051
  999MOL0     C31742   5.809  10.387   1.086 -1.0977 -0.3708  0.6420
  999MOL0     C31743   5.720  10.300   1.025 -0.2591 -0.8591 -1.0564
  999MOL0     O31744   5.585  10.329   0.996 -0.4398 -0.6036 -0.3260
  999MOL0     C31745   5.520  10.445   1.051  0.4915 -0.0652  0.0745
  999MOL0     C31746   5.502  10.440   1.211  0.5408  0.7441  0.8105
  999MOL0     C31747   5.429  10.312   1.254 -1.3319 -0.6191 -0.3478
  999MOL0     C31748   5.407  10.324   1.409  0.2876 -0.2460 -1.1501
  999MOL0     C31749   5.384  10.178   1.463  1.3888 -0.6893 -0.6651
  999MOL0     C31750   5.316  10.161   1.606 -0.2347  0.5121 -0.6988
  999MOL0     C31751   5.405  10.235   1.710  0.1065 -0.5244 -0.2116
  999MOL0     C31752   5.372  10.188   1.850 -0.2894 -0.5525 -0.5808
  999MOL0     N31753   5.228  10.185   1.876 -1.2164 -0.2839  0.3031
  999MOL0     C31754   5.156  10.078   1.888 -0.7256 -0.2771  0.5468
  999MOL0     C31755   5.036  10.129   1.929 -0.0766 -1.0528  0.6547
  999MOL0     C31756   4.898  10.063   1.944 -0.2913 -0.3102 -0.1808
  999MOL0     C31757   4.864  10.066   2.086 -0.1764 -0.1567 -0.5470
  999MOL0     C31758   4.952   9.985   2.185 -0.4049  0.6052 -0.4477
  999MOL0     C31759   4.960   9.827   2.169  0.1210 -0.8466 -0.1987
  999MOL0     O31760   4.983   9.770   2.304  0.2962  0.4506  0.6897
  999MOL0     C31761   4.882   9.729   2.388 -0.5654 -0.1564  0.8516
  999MOL0     C31762   4.917   9.732   2.523 -0.0861 -0.6235 -0.7657
  999MOL0     C31763   4.829   9.701   2.622 -0.3239  0.7177 -0.7151
  999MOL0     C31764   4.698   9.666   2.592 -0.0446  0.1028  0.8410
  999MOL0     C31765   4.586   9.661   2.691 -0.1454  0.4085  1.1971
  999MOL0     O31766   4.617   9.633   2.820  0.3213  0.6085  0.2079
  999MOL0     C31767   4.537   9.678   2.922  0.3173  0.5715 -1.7134
  999MOL0     C31768   4.463   9.591   3.008  1.4416 -0.0632 -0.3754
  999MOL0     C31769   4.362   9.639   3.092  0.4370  0.7544  1.0985
  999MOL0     C31770   4.356   9.781   3.106  0.6708  0.2078  0.0866
  999MOL0     O31771   4.252   9.856   3.162  0.5351  0.0462  0.4570
  999MOL0     C31772   4.122   9.818   3.134 -0.5220  0.1397  0.0661
  999MOL0     C31773   4.084   9.868   2.999 -0.0267  0.1331  1.2491
  999MOL0     C31774   3.936   9.830   2.965  0.5662 -0.7233 -0.6264
  999MOL0     C31775   3.861   9.930   2.877  1.6872 -0.1174  0.9078
  999MOL0     C31776   3.716   9.895   2.835 -0.2529 -0.4059  0.5563
  999MOL0     C31777   3.724   9.772   2.740  0.3548 -0.4042 -0.1047
  999MOL0     C31778   3.588   9.725   2.706 -0.2994  0.3812 -0.4096
  999MOL0     C31779   3.479   9.693   2.814  0.7477  0.1077 -0.2717
  999MOL0    Cl31780   3.401   9.844   2.881  0.3993  0.0207 -0.1813
  999MOL0     C31781   4.443   9.859   3.038  0.8609  0.1417 -0.7825
  999MOL0     C31782   4.537   9.803   2.948 -0.1775 -0.2845 -0.0748
  999MOL0     O31783   4.481   9.716   2.661 -0.0821  0.1466  0.4515
  999MOL0     C31784   4.660   9.669   2.457  0.4552 -0.3685  0.1315
  999MOL0     C31785   4.744   9.703   2.356  1.2051  1.7566  1.2949
  999MOL0     N31786   5.040  10.263   1.934  0.0063  0.8718 -0.0750
  999MOL0     N31787   5.158  10.296   1.901  0.2524 -0.7152  0.7221
  999MOL0     C31788   5.761  10.184   0.979  0.7110  0.1991  0.0897
  999MOL0     C31789   5.887  10.129   1.024  0.3183 -0.1016  0.6018
  999MOL0     C31790   6.266  10.002   1.179 -0.1896 -0.1048 -1.0012
  999MOL0     C31791   6.313   9.901   1.273  0.3513 -0.6251 -1.2327
  999MOL0     C31792   6.441   9.861   1.295  0.5722 -0.2681  0.0207
  999MOL0     C31793   6.536   9.907   1.208  0.9640 -0.6579  0.7061
  999MOL0     O31794   6.666   9.873   1.204  0.0486 -0.1793 -0.0852
  999MOL0     C31795   6.735   9.785   1.291  0.8992 -0.3361 -0.3304
  999MOL0     C31796   6.789   9.878   1.398 -0.3414  0.2813 -0.5325
  999MOL0     C31797   6.840  10.029   1.362  0.4560 -0.7517  1.3260
  999MOL0     C31798   6.958  10.075   1.453 -0.0985 -0.1283  0.3685
  999MOL0     C31799   7.092  10.053   1.390  0.4639 -0.1210 -0.7668
  999MOL0     C31800   7.208  10.061   1.354  0.2696  0.0815  0.1471
  999MOL0     C31801   6.496  10.005   1.119 -0.8678 -0.0075  0.6393
  999MOL0     C31802   6.367  10.050   1.103 -0.2685  0.9686 -0.1302
  999MOL0     H31803   6.020  10.393   1.168  1.5793 -1.1561  0.8057
  999MOL0     H31804   5.781  10.491   1.096  3.3827  0.8305  3.6599
  999MOL0     H31805   5.421  10.437   1.005  0.4368 -1.9266  0.4098
  999MOL0     H31806   5.567  10.537   1.018  2.9171 -0.7473  1.4311
  999MOL0     H31807   5.455  10.535   1.235  1.3058  1.1603  0.7009
  999MOL0     H31808   5.601  10.438   1.257  0.8920 -2.3677  0.1532
  999MOL0     H31809   5.494  10.224   1.241 -3.5464 -2.3358 -0.4305
  999MOL0     H31810   5.344  10.291   1.189 -3.2715 -2.5877  2.5702
  999MOL0     H31811   5.493  10.374   1.453  1.1183  1.8223 -4.6998
  999MOL0     H31812   5.323  10.388   1.439  0.7208 -1.0732  2.1989
  999MOL0     H31813   5.476  10.119   1.467  1.3058 -0.7761  0.2425
  999MOL0     H31814   5.313  10.140   1.389 -0.7804  1.8426 -0.0522
  999MOL0     H31815   5.312  10.055   1.634  2.6493  0.6846  0.7401
  999MOL0     H31816   5.214  10.198   1.609 -0.8042 -1.0237  0.8863
  999MOL0     H31817   5.511  10.244   1.687  0.0511  1.4580  0.1068
  999MOL0     H31818   5.377  10.341   1.714  1.8802  0.1203 -2.4445
  999MOL0     H31819   5.419  10.245   1.931 -0.9362 -3.6168  2.1653
  999MOL0     H31820   5.405  10.084   1.860 -2.0989 -1.1657 -0.6959
  999MOL0     H31821   5.172   9.973   1.864  0.8181  0.1515 -0.4221
  999MOL0     H31822   4.916   9.960   1.910  1.7230 -1.0852  2.8162
  999MOL0     H31823   4.820  10.108   1.882  0.8337  2.0988  0.0285
  999MOL0     H31824   4.759  10.035   2.094 -0.1492  0.1775  2.2020
  999MOL0     H31825   4.872  10.171   2.116 -1.4298 -0.4720  1.0055
  999MOL0     H31826   5.053  10.024   2.199  0.0196 -0.8981  0.8770
  999MOL0     H31827   4.899   9.992   2.280 -0.7493  1.2130 -0.6773
  999MOL0     H31828   5.048   9.797   2.112  1.1165 -0.5445  1.1269
  999MOL0     H31829   4.860   9.813   2.128 -0.5440  0.3649  0.9171
  999MOL0     H31830   5.020   9.754   2.550 -0.4865 -1.6473  1.8514
  999MOL0     H31831   4.873   9.702   2.721  1.5837  1.2692 -1.5186
  999MOL0     H31832   4.462   9.487   2.976 -2.8315 -0.6854  1.2004
  999MOL0     H31833   4.287   9.578   3.141  0.8754  0.3372  1.2655
  999MOL0     H31834   4.052   9.867   3.203 -0.3971  2.4469 -1.3561
  999MOL0     H31835   4.114   9.709   3.127  1.8306  0.0098 -4.9584
  999MOL0     H31836   4.150   9.831   2.920  0.7598  0.6336  1.6629
  999MOL0     H31837   4.102   9.976   2.988 -0.2185  0.4251  3.4767
  999MOL0     H31838   3.885   9.837   3.062  1.5333  0.7885 -0.1821
  999MOL0     H31839   3.940   9.733   2.914  1.3198 -0.7459 -0.5324
  999MOL0     H31840   3.854  10.022   2.937 -4.8670  0.4090  0.0440
  999MOL0     H31841   3.925   9.947   2.790 -1.0726  1.7145 -0.9198
  999MOL0     H31842   3.686   9.984   2.780  0.6330  0.5017  1.5074
  999MOL0     H31843   3.656   9.878   2.925  1.1513  0.1560  1.6346
  999MOL0     H31844   3.782   9.688   2.779  0.0185  0.2521  1.8954
  999MOL0     H31845   3.780   9.791   2.648  0.2033  1.8599  0.2216
  999MOL0     H31846   3.553   9.788   2.624  4.3222  2.1126 -1.3361
  999MOL0     H31847   3.605   9.633   2.650 -0.3522  0.6017 -0.7866
  999MOL0     H31848   3.527   9.639   2.896 -0.2012  1.7250  1.4299
  999MOL0     H31849   3.405   9.638   2.754  0.0234  4.6876 -4.1936
  999MOL0     H31850   4.442   9.966   3.053  2.3451  0.8004 -4.3517
  999MOL0     H31851   4.602   9.867   2.889 -0.1742  1.2585  1.5453
  999MOL0     H31852   4.556   9.649   2.433 -1.2507  1.8545  4.5380
  999MOL0     H31853   4.698   9.701   2.257  1.2507  2.1990  1.2609
  999MOL0     H31854   5.686  10.130   0.922 -2.0049  1.1062  2.5894
  999MOL0     H31855   5.912  10.027   0.995 -2.8195 -0.3412 -1.7712
  999MOL0     H31856   6.237   9.876   1.347  2.6904  1.8002  2.3107
  999MOL0     H31857   6.458   9.790   1.376  0.7844  2.4754  2.5483
  999MOL0     H31858   6.814   9.730   1.238  1.7865 -0.0832  0.6861
  999MOL0     H31859   6.670   9.705   1.325  0.5095  0.6004  1.2070
  999MOL0     H31860   6.703   9.890   1.464 -0.8068 -3.7525 -0.1751
  999MOL0     H31861   6.876   9.829   1.443  1.6433  1.2826 -2.9975
  999MOL0     H31862   6.756  10.098   1.372  1.6779  1.2024 -0.8379
  999MOL0     H31863   6.874  10.033   1.258  2.3042  1.4952  1.9239
  999MOL0     H31864   6.942  10.180   1.477 -1.7205 -0.3774  0.5048
  999MOL0     H31865   6.957  10.024   1.550  1.9138  1.7964  1.4727
  999MOL0     H31866   7.310  10.049   1.324 -0.6272 -6.0329 -1.7792
  999MOL0     H31867   6.576  10.039   1.053 -1.7823 -0.4271 -0.7266
  999MOL0     H31868   6.352  10.112   1.015 -0.3257  1.3434  0.1434
 1000MOL0     O31869   2.673   7.564   4.610 -0.5406 -0.5011 -0.2959
 1000MOL0     C31870   2.612   7.642   4.694  0.0135 -1.2794 -0.4224
 1000MOL0     O31871   2.624   7.655   4.824  0.0688  0.0674 -0.5307
 1000MOL0     C31872   2.723   7.578   4.881 -0.7051  0.3682  0.0518
 1000MOL0     C31873   2.716   7.492   4.988 -0.0241  0.1434 -0.5158
 1000MOL0     C31874   2.832   7.441   5.058 -0.9109  0.8013  0.3768
 1000MOL0     C31875   2.963   7.466   5.008 -0.1969 -0.6054  0.3349
 1000MOL0     O31876   3.066   7.410   5.080 -0.1294 -1.0400  0.1727
 1000MOL0     C31877   3.139   7.501   5.160 -0.3804 -0.3230  0.5763
 1000MOL0     C31878   3.206   7.419   5.272  0.0001 -0.4288 -0.1510
 1000MOL0     C31879   3.303   7.504   5.347  0.0680 -0.1893  0.2048
 1000MOL0     C31880   3.239   7.588   5.464  0.5686 -0.1091  0.0397
 1000MOL0     C31881   3.202   7.498   5.584  0.3741 -0.1603 -0.6152
 1000MOL0     C31882   3.122   7.569   5.705 -0.1065 -0.2764  0.1938
 1000MOL0     C31883   3.064   7.481   5.816 -0.3452 -0.2399 -0.1570
 1000MOL0     C31884   3.179   7.410   5.890  0.0442  0.7651 -0.5589
 1000MOL0     N31885   3.140   7.323   5.999  0.1001  0.0604  0.5765
 1000MOL0     C31886   3.016   7.275   6.026 -0.3036 -0.1963 -0.0883
 1000MOL0     C31887   3.035   7.201   6.133 -0.4481  0.4974  0.8595
 1000MOL0     C31888   2.918   7.143   6.202  0.0551 -0.9812  0.4378
 1000MOL0     C31889   2.851   7.022   6.128  0.2405 -1.2586 -0.4353
 1000MOL0     C31890   2.738   7.050   6.032 -0.1228  0.5540  0.0597
 1000MOL0     C31891   2.615   7.116   6.076 -0.1656  0.2471 -0.3897
 1000MOL0     O31892   2.542   7.025   6.163  0.2413 -1.0284 -0.1058
 1000MOL0     C31893   2.412   7.067   6.203  0.6891  0.1680  0.1857
 1000MOL0     C31894   2.350   6.976   6.282 -0.2889 -0.1581  0.6882
 1000MOL0     C31895   2.227   7.014   6.339  0.9884 -0.6162 -0.5149
 1000MOL0     C31896   2.154   7.120   6.291  0.1127 -0.1903  0.5252
 1000MOL0     C31897   2.015   7.144   6.330 -0.4585 -0.6762 -0.5007
 1000MOL0     O31898   1.949   7.058   6.406  0.3312  1.7343 -0.8720
 1000MOL0     C31899   1.812   7.087   6.430  0.5824  0.8476 -1.0665
 1000MOL0     C31900   1.716   7.080   6.329  0.2442  0.2240  0.2189
 1000MOL0     C31901   1.576   7.101   6.355 -0.1594 -0.5557  0.3851
 1000MOL0     C31902   1.537   7.112   6.485 -0.6025 -0.6905  0.3509
 1000MOL0     O31903   1.404   7.125   6.504  0.0638  0.0459 -0.1150
 1000MOL0     C31904   1.349   7.151   6.633  0.4986 -0.7701  0.2881
 1000MOL0     C31905   1.366   7.299   6.668 -0.1849 -0.6828 -0.5245
 1000MOL0     C31906   1.315   7.389   6.553 -0.5135 -0.1850 -0.6869
 1000MOL0     C31907   1.168   7.371   6.526 -0.5762 -0.5116 -0.1424
 1000MOL0     C31908   1.133   7.442   6.399 -0.3109  0.7988 -0.0513
 1000MOL0     C31909   0.982   7.447   6.388  0.1601 -0.1121  0.3362
 1000MOL0     C31910   0.947   7.520   6.260 -1.1007  0.1828  1.1685
 1000MOL0     C31911   0.793   7.532   6.245  1.3046 -0.5491  0.3139
 1000MOL0    Cl31912   0.718   7.624   6.377 -0.4566  0.2344  0.2051
 1000MOL0     C31913   1.634   7.096   6.589 -0.6378  0.9859 -0.0968
 1000MOL0     C31914   1.774   7.087   6.563 -1.9384 -0.9421 -0.2239
 1000MOL0     O31915   1.965   7.235   6.266  0.1109 -1.1664 -0.5611
 1000MOL0     C31916   2.225   7.211   6.211 -0.4389 -0.2193  0.7625
 1000MOL0     C31917   2.354   7.179   6.163 -1.0195 -1.5027  0.5276
 1000MOL0     N31918   3.162   7.214   6.179 -0.5336 -0.0566  0.1733
 1000MOL0     N31919   3.227   7.285   6.101  0.5302 -0.4860  0.5822
 1000MOL0     C31920   2.970   7.557   4.905  0.4527  0.4284  0.6469
 1000MOL0     C31921   2.853   7.609   4.838  0.2976  0.2647  0.8570
 1000MOL0     C31922   2.524   7.739   4.630  0.1669  0.7171 -0.3849
 1000MOL0     C31923   2.510   7.745   4.492  0.7965 -0.5185 -0.9827
 1000MOL0     C31924   2.430   7.838   4.432  0.2111  0.2938  0.3888
 1000MOL0     C31925   2.364   7.941   4.510  0.3285  0.5533  0.6902
 1000MOL0     O31926   2.291   8.039   4.446  0.2692  0.6108 -0.1215
 1000MOL0     C31927   2.224   8.136   4.526 -0.0628  0.2366 -0.3596
 1000MOL0     C31928   2.188   8.255   4.436 -1.0502 -0.0674  0.6170
 1000MOL0     C31929   2.301   8.345   4.365  0.2846 -0.5633 -0.5829
 1000MOL0     C31930   2.413   8.364   4.471  0.1701 -0.7616  0.8188
 1000MOL0     C31931   2.530   8.433   4.419  0.1250  0.9252  0.3365
 1000MOL0     C31932   2.623   8.490   4.367 -0.1913  0.0656 -0.6808
 1000MOL0     C31933   2.369   7.924   4.654 -0.7015 -0.8701 -1.1331
 1000MOL0     C31934   2.437   7.819   4.703  0.9152 -0.1016 -0.0060
 1000MOL0     H31935   2.616   7.464   5.020 -0.9366  1.7856 -1.7503
 1000MOL0     H31936   2.821   7.369   5.139  2.5953 -0.4542 -0.0712
 1000MOL0     H31937   3.070   7.564   5.215 -0.5129 -1.5242  1.8223
 1000MOL0     H31938   3.223   7.549   5.108  0.7793 -2.5733  0.1895
 1000MOL0     H31939   3.272   7.343   5.229  0.7977  0.3908 -0.3959
 1000MOL0     H31940   3.134   7.372   5.339 -0.4959  1.8098  0.9627
 1000MOL0     H31941   3.359   7.569   5.279 -1.6652 -0.4308 -1.5199
 1000MOL0     H31942   3.378   7.435   5.386 -0.4610 -3.1938 -3.5461
 1000MOL0     H31943   3.305   7.665   5.505  2.0276 -1.0725 -0.3873
 1000MOL0     H31944   3.149   7.637   5.427  0.3302  0.3226  1.1483
 1000MOL0     H31945   3.292   7.455   5.628 -0.5631 -0.4090  1.1186
 1000MOL0     H31946   3.129   7.422   5.557 -0.3870  0.4078 -0.2122
 1000MOL0     H31947   3.042   7.632   5.665  1.3285  2.7114  1.7446
 1000MOL0     H31948   3.179   7.649   5.753 -2.5323 -0.3222  3.5527
 1000MOL0     H31949   3.023   7.547   5.893  1.4076 -0.7407  1.2730
 1000MOL0     H31950   2.980   7.419   5.783  0.8666 -0.6636 -2.6691
 1000MOL0     H31951   3.255   7.484   5.917  1.8761 -1.3407  0.3464
 1000MOL0     H31952   3.215   7.334   5.820  0.8783 -1.2533  1.9173
 1000MOL0     H31953   2.926   7.288   5.966 -0.0999 -3.9133 -1.4654
 1000MOL0     H31954   2.858   7.233   6.221  2.0487 -0.3422  5.2149
 1000MOL0     H31955   2.956   7.127   6.304  0.7137  0.7292  0.4953
 1000MOL0     H31956   2.821   6.952   6.206  2.5645 -2.0302 -0.1486
 1000MOL0     H31957   2.934   6.978   6.072  0.3716 -2.2554  0.5073
 1000MOL0     H31958   2.773   7.100   5.941 -2.2322  0.3566 -0.9177
 1000MOL0     H31959   2.704   6.953   5.994  2.6008 -0.1076 -0.9368
 1000MOL0     H31960   2.555   7.153   5.993  0.9546 -0.1776 -1.4232
 1000MOL0     H31961   2.639   7.207   6.131 -0.8292  0.8786 -1.1258
 1000MOL0     H31962   2.408   6.896   6.328  0.0653  0.1027  0.6959
 1000MOL0     H31963   2.198   6.954   6.424  1.1071  0.7394  0.5163
 1000MOL0     H31964   1.743   7.078   6.224 -0.1981 -3.4285  0.0246
 1000MOL0     H31965   1.503   7.112   6.275  0.7044 -2.1675 -0.6763
 1000MOL0     H31966   1.397   7.082   6.703  0.5814  1.2063  2.3039
 1000MOL0     H31967   1.245   7.118   6.631  0.4458 -0.7283  1.4811
 1000MOL0     H31968   1.472   7.321   6.686 -0.2450 -2.3326  2.5982
 1000MOL0     H31969   1.297   7.303   6.752 -2.1721 -1.0162 -2.0610
 1000MOL0     H31970   1.381   7.365   6.469 -0.6109  0.0053 -0.8178
 1000MOL0     H31971   1.347   7.488   6.587 -0.0250 -0.6495  0.2541
 1000MOL0     H31972   1.143   7.265   6.517  0.2129 -0.5385 -4.3904
 1000MOL0     H31973   1.101   7.412   6.602 -0.4959  1.1390 -0.9118
 1000MOL0     H31974   1.176   7.387   6.315 -0.2391 -2.3074  1.8669
 1000MOL0     H31975   1.165   7.547   6.397  1.6520  0.2239 -0.9639
 1000MOL0     H31976   0.941   7.503   6.473 -1.7690  1.5028 -1.5532
 1000MOL0     H31977   0.942   7.346   6.385  2.5413 -1.1077  0.5306
 1000MOL0     H31978   0.996   7.617   6.254 -1.4286  0.3077  0.3797
 1000MOL0     H31979   0.978   7.458   6.175 -1.7829  0.1930  0.9093
 1000MOL0     H31980   0.753   7.430   6.253  1.9774 -0.9449 -1.0180
 1000MOL0     H31981   0.765   7.586   6.154 -2.7943  2.6062  3.0840
 1000MOL0     H31982   1.593   7.065   6.685 -1.4236 -0.0174 -0.7282
 1000MOL0     H31983   1.847   7.083   6.643 -1.1084  0.6865 -0.8592
 1000MOL0     H31984   2.183   7.304   6.175  1.8088  1.0464  1.1951
 1000MOL0     H31985   2.416   7.245   6.104  0.2937 -3.3407 -0.2630
 1000MOL0     H31986   3.072   7.579   4.874  0.2566  0.9564  0.3570
 1000MOL0     H31987   2.872   7.660   4.744 -0.7725 -0.3742  0.2839
 1000MOL0     H31988   2.560   7.675   4.426  0.7457 -2.3050  0.7870
 1000MOL0     H31989   2.413   7.841   4.325  1.9699  1.8652  0.0951
 1000MOL0     H31990   2.283   8.161   4.614  1.2304 -1.8551 -0.5776
 1000MOL0     H31991   2.134   8.080   4.555  1.6563 -4.5826 -3.1617
 1000MOL0     H31992   2.129   8.225   4.350  0.1293  2.2655 -1.1093
 1000MOL0     H31993   2.128   8.326   4.494  1.1570  0.9609  1.8025
 1000MOL0     H31994   2.258   8.439   4.330  1.2857 -0.7452 -2.4333
 1000MOL0     H31995   2.345   8.286   4.283  2.8027 -0.4290  0.5808
 1000MOL0     H31996   2.381   8.427   4.555  0.4688  1.5370 -0.6895
 1000MOL0     H31997   2.441   8.261   4.494 -1.4055 -2.2055 -2.8710
 1000MOL0     H31998   2.707   8.540   4.323 -0.1559  0.1125 -0.5629
 1000MOL0     H31999   2.309   7.983   4.723 -0.5295  0.2606 -1.9127
 1000MOL0     H32000   2.407   7.786   4.802 -2.7621  2.5821 -0.0154
 1001MOL0     O32001   8.151   9.441   8.721 -0.4976  0.6876 -0.0145
 1001MOL0     C32002   8.152   9.565   8.707 -0.8130  0.1574 -0.6706
 1001MOL0     O32003   8.069   9.631   8.625  0.1750 -0.0126  0.2878
 1001MOL0     C32004   7.988   9.562   8.541 -0.3495  1.3348  0.2405
 1001MOL0     C32005   7.880   9.506   8.595 -0.1083 -0.6413 -0.4966
 1001MOL0     C32006   7.780   9.463   8.509  0.5732  0.2595  0.4410
 1001MOL0     C32007   7.791   9.472   8.372 -0.6472  0.3946 -0.3669
 1001MOL0     O32008   7.698   9.410   8.291  0.2040  0.1745  0.5908
 1001MOL0     C32009   7.681   9.466   8.160  0.4443  0.2549 -0.5012
 1001MOL0     C32010   7.590   9.374   8.079  0.1854  0.2200  0.0440
 1001MOL0     C32011   7.531   9.451   7.961  0.1414 -0.6756  0.8136
 1001MOL0     C32012   7.636   9.464   7.843  0.7088 -0.0707  0.8806
 1001MOL0     C32013   7.566   9.514   7.712  0.1111  0.6143  0.5134
 1001MOL0     C32014   7.663   9.491   7.592 -0.2409  0.6756  0.1157
 1001MOL0     C32015   7.597   9.506   7.456  0.2430  0.0492 -0.2505
 1001MOL0     C32016   7.692   9.451   7.352 -0.2370 -0.0043  0.3556
 1001MOL0     N32017   7.624   9.420   7.216 -0.4049 -0.1083 -0.3651
 1001MOL0     C32018   7.555   9.308   7.182  0.3126 -0.6644 -0.0898
 1001MOL0     C32019   7.520   9.336   7.052  0.0544 -0.8632  0.4015
 1001MOL0     C32020   7.423   9.255   6.971 -0.2121  1.3078  0.4364
 1001MOL0     C32021   7.282   9.319   6.959  0.0628  0.8936  0.1595
 1001MOL0     C32022   7.179   9.224   6.880  0.7122  1.1118  0.4302
 1001MOL0     C32023   7.039   9.245   6.936  0.9025 -0.2828  0.9234
 1001MOL0     O32024   7.015   9.385   6.934 -0.6141  0.3097 -0.0298
 1001MOL0     C32025   6.886   9.417   6.962 -0.8683  0.2117  0.6083
 1001MOL0     C32026   6.802   9.334   7.038 -0.0146  0.5438 -0.1971
 1001MOL0     C32027   6.671   9.369   7.075 -0.1896 -0.5296  0.7903
 1001MOL0     C32028   6.631   9.497   7.048 -0.0434 -0.9547  1.9281
 1001MOL0     C32029   6.503   9.529   7.096 -0.1158 -0.2708  0.5595
 1001MOL0     O32030   6.427   9.596   7.006 -0.5938 -0.0901 -0.3848
 1001MOL0     C32031   6.304   9.627   7.055 -0.9259 -0.6773  1.5982
 1001MOL0     C32032   6.199   9.536   7.037 -0.0092  1.4082 -0.2195
 1001MOL0     C32033   6.069   9.575   7.083  0.3534  0.2823 -0.0096
 1001MOL0     C32034   6.044   9.695   7.146 -1.4128  0.6838 -0.5479
 1001MOL0     O32035   5.925   9.737   7.198 -0.4681 -0.0956  0.6565
 1001MOL0     C32036   5.820   9.642   7.236 -0.7971 -0.6237 -0.4021
 1001MOL0     C32037   5.738   9.637   7.108  1.2199 -0.2579  0.3809
 1001MOL0     C32038   5.617   9.542   7.133  0.0233 -0.0798 -0.2791
 1001MOL0     C32039   5.529   9.523   7.010  0.0304  1.1606  0.6338
 1001MOL0     C32040   5.396   9.470   7.040 -0.0698  0.8209  0.5605
 1001MOL0     C32041   5.313   9.470   6.914  1.5387 -0.0128  0.4881
 1001MOL0     C32042   5.187   9.393   6.940 -0.1937 -0.3530 -0.6420
 1001MOL0     C32043   5.080   9.396   6.817 -0.4429  0.4316 -0.5570
 1001MOL0    Cl32044   4.989   9.543   6.791  0.2720  0.4923  0.2055
 1001MOL0     C32045   6.159   9.783   7.164 -0.4047 -0.4769  0.2776
 1001MOL0     C32046   6.284   9.752   7.107  0.0589  0.2995 -0.5818
 1001MOL0     O32047   6.480   9.497   7.209  0.1038  0.6727  0.2343
 1001MOL0     C32048   6.713   9.586   6.976  0.8564 -0.1320 -0.3787
 1001MOL0     C32049   6.830   9.546   6.925  0.4417  0.1421  0.5627
 1001MOL0     N32050   7.573   9.453   7.011 -0.0648  0.2542 -0.9859
 1001MOL0     N32051   7.638   9.505   7.110 -0.1463 -0.1982 -0.5531
 1001MOL0     C32052   7.907   9.529   8.325 -0.1256 -0.3200 -0.1898
 1001MOL0     C32053   8.010   9.577   8.410  1.2695 -0.6928 -0.0758
 1001MOL0     C32054   8.261   9.641   8.776  0.4338  0.9038  0.0423
 1001MOL0     C32055   8.354   9.569   8.852 -0.7239  0.2707  0.3497
 1001MOL0     C32056   8.454   9.632   8.917  1.0963  0.2243 -0.2044
 1001MOL0     C32057   8.456   9.768   8.919 -0.7107 -0.4989  0.9583
 1001MOL0     O32058   8.559   9.821   8.985 -0.2972  0.5103  0.4782
 1001MOL0     C32059   8.537   9.823   9.131 -0.5558 -0.1588  0.4238
 1001MOL0     C32060   8.634   9.900   9.214 -0.5629 -0.6045  0.1035
 1001MOL0     C32061   8.632   9.884   9.364  0.8219  0.0876  0.6987
 1001MOL0     C32062   8.495   9.889   9.425  0.8304 -0.4110 -0.6687
 1001MOL0     C32063   8.517   9.877   9.574  0.5873  0.1570  0.1223
 1001MOL0     C32064   8.515   9.888   9.693  0.3195 -0.3209  0.2447
 1001MOL0     C32065   8.376   9.851   8.832  0.0636 -0.4564 -0.7650
 1001MOL0     C32066   8.279   9.782   8.764 -0.1551  0.5294  0.5766
 1001MOL0     H32067   7.889   9.503   8.704  0.2966 -0.3708 -0.5182
 1001MOL0     H32068   7.694   9.422   8.562  1.1802  0.3167  1.5054
 1001MOL0     H32069   7.775   9.485   8.109  2.2488  0.1029  2.4879
 1001MOL0     H32070   7.636   9.565   8.166 -0.8808 -0.0650 -3.5454
 1001MOL0     H32071   7.508   9.346   8.146  0.0447 -0.6742 -0.4799
 1001MOL0     H32072   7.661   9.292   8.061  2.4505  1.6309  1.9845
 1001MOL0     H32073   7.494   9.548   7.994  0.2414 -1.4165  3.3051
 1001MOL0     H32074   7.445   9.396   7.921  0.9149  0.7894 -3.3772
 1001MOL0     H32075   7.707   9.545   7.862 -1.0887  1.7887  0.0697
 1001MOL0     H32076   7.667   9.361   7.823 -3.1439 -2.1258  3.9785
 1001MOL0     H32077   7.538   9.619   7.723  2.3786  1.6336 -2.1780
 1001MOL0     H32078   7.477   9.451   7.705  0.7656 -0.5738  2.0877
 1001MOL0     H32079   7.689   9.385   7.601 -2.1625  0.2220  0.9511
 1001MOL0     H32080   7.756   9.548   7.592  1.2748 -1.6332  0.8060
 1001MOL0     H32081   7.503   9.451   7.460 -0.7464  1.6974  2.5526
 1001MOL0     H32082   7.582   9.613   7.437 -0.9473  0.2584  1.5691
 1001MOL0     H32083   7.753   9.363   7.378 -1.1120 -0.6346  0.3197
 1001MOL0     H32084   7.761   9.532   7.328 -0.6371  0.1189 -0.4393
 1001MOL0     H32085   7.506   9.238   7.248 -2.0011  0.4557 -0.5236
 1001MOL0     H32086   7.419   9.161   7.026 -0.2321  1.6855  1.0937
 1001MOL0     H32087   7.469   9.243   6.873 -0.3852 -1.3294  0.6246
 1001MOL0     H32088   7.286   9.415   6.907 -1.2097  1.9235  1.8589
 1001MOL0     H32089   7.226   9.336   7.052 -0.4964  1.7717 -0.3190
 1001MOL0     H32090   7.169   9.248   6.774 -2.3343 -2.0019 -0.1888
 1001MOL0     H32091   7.212   9.120   6.890  0.3518  0.9846  0.3348
 1001MOL0     H32092   7.033   9.196   7.033 -1.9948  1.3964  1.7310
 1001MOL0     H32093   6.973   9.190   6.868 -2.2422  3.6415  0.3814
 1001MOL0     H32094   6.840   9.237   7.069  1.5291  2.0107  2.8130
 1001MOL0     H32095   6.597   9.293   7.099 -1.3671 -0.5763 -2.5562
 1001MOL0     H32096   6.221   9.443   6.985 -0.7815  1.1949 -0.1771
 1001MOL0     H32097   5.987   9.505   7.076  2.3237 -2.0113 -1.7696
 1001MOL0     H32098   5.773   9.686   7.325  2.4238  0.0797  1.0781
 1001MOL0     H32099   5.862   9.551   7.279  2.9875  1.3736  0.4795
 1001MOL0     H32100   5.788   9.598   7.019  0.0926  1.1883 -0.9378
 1001MOL0     H32101   5.698   9.732   7.072  1.1297 -0.3850  0.1386
 1001MOL0     H32102   5.566   9.582   7.221 -2.2181  0.1467 -1.5954
 1001MOL0     H32103   5.649   9.439   7.155 -1.0581 -0.9283 -2.4397
 1001MOL0     H32104   5.509   9.624   6.974 -0.8787  0.7366 -0.1069
 1001MOL0     H32105   5.588   9.466   6.937 -1.6913 -0.2693  0.2717
 1001MOL0     H32106   5.350   9.532   7.118  0.9707 -0.5216  2.3065
 1001MOL0     H32107   5.419   9.368   7.071 -1.1870  0.9481  1.8965
 1001MOL0     H32108   5.359   9.435   6.822  2.1286  1.1869  0.2959
 1001MOL0     H32109   5.280   9.568   6.877  1.1773 -1.5499 -3.6813
 1001MOL0     H32110   5.217   9.288   6.944  0.7184 -0.1102  3.8350
 1001MOL0     H32111   5.144   9.417   7.038 -2.5942 -0.0594 -1.6804
 1001MOL0     H32112   5.019   9.308   6.838 -0.1488  0.2574 -0.4252
 1001MOL0     H32113   5.131   9.380   6.721  0.7607 -1.6090  0.3626
 1001MOL0     H32114   6.153   9.872   7.225 -2.1156 -0.8052  0.6442
 1001MOL0     H32115   6.370   9.817   7.118 -0.5628  0.8013  1.8415
 1001MOL0     H32116   6.669   9.683   6.955 -2.3117 -1.6392 -1.3737
 1001MOL0     H32117   6.890   9.618   6.870  0.4225 -1.9289 -2.3780
 1001MOL0     H32118   7.933   9.535   8.220  2.8709 -1.7111  0.3731
 1001MOL0     H32119   8.091   9.636   8.369  3.1506 -2.7344  0.4836
 1001MOL0     H32120   8.357   9.461   8.857 -2.0623  0.0317 -2.4071
 1001MOL0     H32121   8.529   9.575   8.970 -0.5523 -1.3016  0.6253
 1001MOL0     H32122   8.549   9.719   9.164  3.4265  0.2797  0.7792
 1001MOL0     H32123   8.432   9.838   9.156 -0.7567 -1.2813  0.3329
 1001MOL0     H32124   8.736   9.881   9.181 -0.4197 -0.1193  0.2521
 1001MOL0     H32125   8.621  10.004   9.180  2.6589 -0.2162 -0.2358
 1001MOL0     H32126   8.702   9.957   9.403  4.5961 -1.1911 -2.9014
 1001MOL0     H32127   8.674   9.784   9.382  0.5807 -0.5464 -1.8691
 1001MOL0     H32128   8.449   9.986   9.404 -3.2223 -1.9694 -0.0271
 1001MOL0     H32129   8.440   9.801   9.390  5.7368 -4.1842 -0.0279
 1001MOL0     H32130   8.522   9.890   9.800  2.5954  2.0091  0.1564
 1001MOL0     H32131   8.398   9.957   8.824  0.3110 -0.5779 -1.9982
 1001MOL0     H32132   8.210   9.840   8.703 -1.0570  0.7263  1.7598
 1002MOL0     O32133   9.092   3.793   1.403  0.9024 -0.0169 -0.3842
 1002MOL0     C32134   9.087   3.851   1.291  0.6645 -0.4723 -0.3894
 1002MOL0     O32135   9.190   3.879   1.207  0.4286  0.4367  0.1741
 1002MOL0     C32136   9.275   3.770   1.184  0.3453 -0.0464  0.1601
 1002MOL0     C32137   9.215   3.643   1.156 -0.2961  1.4247  0.0290
 1002MOL0     C32138   9.298   3.527   1.158  0.1674  0.1076 -0.7591
 1002MOL0     C32139   9.435   3.538   1.173  0.0435 -0.4322  0.8072
 1002MOL0     O32140   9.515   3.428   1.176 -0.0418  0.2035  0.2457
 1002MOL0     C32141   9.593   3.422   1.055 -0.5446  0.3966  0.2154
 1002MOL0     C32142   9.550   3.293   0.977 -0.1684  1.0790  0.1759
 1002MOL0     C32143   9.639   3.248   0.857  0.8979  1.1554 -0.3201
 1002MOL0     C32144   9.699   3.364   0.779  0.5326 -0.0932  0.1353
 1002MOL0     C32145   9.578   3.444   0.724 -0.3121 -0.0800  0.4777
 1002MOL0     C32146   9.487   3.368   0.633  0.9447  0.3553 -0.0611
 1002MOL0     C32147   9.369   3.444   0.566 -0.9102  0.4939  0.4745
 1002MOL0     C32148   9.267   3.335   0.527 -1.2087 -1.4083 -0.1779
 1002MOL0     N32149   9.152   3.396   0.475  0.9810  0.2167 -0.5062
 1002MOL0     C32150   9.116   3.394   0.346 -0.6207  1.0139  1.3475
 1002MOL0     C32151   8.990   3.438   0.336 -0.0708 -0.1981  0.5097
 1002MOL0     C32152   8.904   3.453   0.218  0.8395  0.4398 -0.2790
 1002MOL0     C32153   8.867   3.307   0.166  0.2634 -0.6574 -0.5138
 1002MOL0     C32154   8.798   3.219   0.278 -0.2888  0.3777 -0.4716
 1002MOL0     C32155   8.789   3.082   0.230  1.2664  0.5873 -0.3541
 1002MOL0     O32156   8.906   3.027   0.188 -0.1693  0.5250  0.1076
 1002MOL0     C32157   8.889   2.899   0.136 -0.1737  0.7994 -0.6231
 1002MOL0     C32158   8.999   2.853   0.059 -0.1546  0.0666 -1.2991
 1002MOL0     C32159   9.000   2.741  -0.021  0.6551  0.8125  0.7147
 1002MOL0     C32160   8.887   2.649  -0.012  0.6963 -1.2137 -0.0145
 1002MOL0     C32161   8.891   2.528  -0.084 -0.0075  0.4268  0.0954
 1002MOL0     O32162   9.012   2.485  -0.133 -0.6116 -0.3640 -0.1681
 1002MOL0     C32163   9.032   2.367  -0.190  0.4245  0.9184 -0.3364
 1002MOL0     C32164   9.145   2.289  -0.155  0.1210 -1.0532  0.5185
 1002MOL0     C32165   9.172   2.172  -0.227  0.1477  1.1608 -0.7964
 1002MOL0     C32166   9.083   2.112  -0.319  1.2595  0.4279 -0.8187
 1002MOL0     O32167   9.107   1.987  -0.356  0.1305  0.5151 -0.1016
 1002MOL0     C32168   9.007   1.900  -0.405 -0.4496  0.4128  0.2735
 1002MOL0     C32169   9.043   1.754  -0.397  0.0075 -0.0583  0.7117
 1002MOL0     C32170   8.927   1.658  -0.393  0.2439 -1.2715  0.0471
 1002MOL0     C32171   8.972   1.513  -0.368  0.5935 -0.2300 -0.5022
 1002MOL0     C32172   8.857   1.412  -0.369 -0.0826 -0.5544  0.2972
 1002MOL0     C32173   8.770   1.435  -0.250 -1.5059  0.1075 -0.4627
 1002MOL0     C32174   8.668   1.323  -0.231 -0.2690 -0.1393 -0.0874
 1002MOL0     C32175   8.616   1.319  -0.091 -1.3350  1.1998 -0.1371
 1002MOL0    Cl32176   8.525   1.461  -0.051 -0.5523 -0.1046 -0.5729
 1002MOL0     C32177   8.969   2.195  -0.351  0.6536  0.8485 -0.1810
 1002MOL0     C32178   8.945   2.317  -0.295 -0.3256 -0.3951 -0.9186
 1002MOL0     O32179   8.782   2.466  -0.087 -0.4130 -0.1401  1.2849
 1002MOL0     C32180   8.788   2.680   0.083 -0.6586 -0.1602 -0.1689
 1002MOL0     C32181   8.782   2.805   0.145 -0.3032 -0.2364 -0.1005
 1002MOL0     N32182   8.944   3.460   0.465 -0.6265 -0.3133  0.7742
 1002MOL0     N32183   9.042   3.437   0.549  0.4439 -0.1188 -0.2583
 1002MOL0     C32184   9.488   3.663   1.208  1.4813  0.2461 -0.0396
 1002MOL0     C32185   9.409   3.779   1.215 -0.2981 -0.0534 -0.3325
 1002MOL0     C32186   8.955   3.882   1.235  0.7474  0.4164  1.1579
 1002MOL0     C32187   8.940   3.978   1.133  0.1421  0.8283 -0.1033
 1002MOL0     C32188   8.812   4.008   1.084 -1.1725  0.1156  0.5972
 1002MOL0     C32189   8.700   3.934   1.109  0.9884  0.2124  0.5622
 1002MOL0     O32190   8.582   3.963   1.041 -0.7383  0.6312  0.1204
 1002MOL0     C32191   8.465   3.898   1.077  0.0933  0.6201 -1.0617
 1002MOL0     C32192   8.416   3.934   1.216 -0.2526  0.1074  0.6917
 1002MOL0     C32193   8.321   3.830   1.264  0.0733  0.5009  0.3439
 1002MOL0     C32194   8.192   3.828   1.194 -0.1416  0.2068 -0.8204
 1002MOL0     C32195   8.090   3.740   1.252  0.5408 -0.1832 -0.5401
 1002MOL0     C32196   7.995   3.675   1.297 -0.7723  0.5038 -0.2123
 1002MOL0     C32197   8.716   3.823   1.197 -0.5941  0.4965 -0.5772
 1002MOL0     C32198   8.835   3.799   1.262  0.3758 -0.3393 -1.0541
 1002MOL0     H32199   9.108   3.631   1.145 -0.1477  1.0780 -1.1569
 1002MOL0     H32200   9.258   3.427   1.143 -1.6484  0.9932 -2.4246
 1002MOL0     H32201   9.696   3.412   1.092 -1.6046  1.2529  3.7700
 1002MOL0     H32202   9.580   3.513   0.997  0.2051 -0.2905 -1.0605
 1002MOL0     H32203   9.442   3.297   0.957 -0.0180 -0.2035 -1.1022
 1002MOL0     H32204   9.556   3.219   1.057 -0.0552  1.6868  0.7349
 1002MOL0     H32205   9.592   3.173   0.793 -0.7208 -0.0325  2.0860
 1002MOL0     H32206   9.714   3.193   0.914 -1.1007 -0.0232  1.3007
 1002MOL0     H32207   9.751   3.428   0.851 -0.0851 -0.9661  1.4194
 1002MOL0     H32208   9.759   3.330   0.694 -3.3853  1.5954 -3.6523
 1002MOL0     H32209   9.608   3.533   0.667 -2.9096  1.6821  1.6464
 1002MOL0     H32210   9.521   3.490   0.806  0.8825  0.5011  1.0098
 1002MOL0     H32211   9.452   3.280   0.687  1.2326  0.6854  0.6965
 1002MOL0     H32212   9.545   3.337   0.546 -1.0284 -1.4651 -0.7935
 1002MOL0     H32213   9.324   3.518   0.633  1.4800  1.6879  0.8388
 1002MOL0     H32214   9.400   3.499   0.476 -2.3890  1.2787  0.4101
 1002MOL0     H32215   9.232   3.290   0.621 -1.1354  0.6637  0.9091
 1002MOL0     H32216   9.311   3.259   0.462 -1.6285  1.7468 -4.5093
 1002MOL0     H32217   9.176   3.364   0.261 -1.0218  1.5047  0.8802
 1002MOL0     H32218   8.945   3.518   0.139  0.8904  1.8288  0.8422
 1002MOL0     H32219   8.824   3.514   0.262  2.2798  1.5462  0.9335
 1002MOL0     H32220   8.954   3.259   0.119  1.2317  1.0111 -0.5103
 1002MOL0     H32221   8.789   3.322   0.091  0.4521  3.4507 -0.0883
 1002MOL0     H32222   8.854   3.228   0.372  0.6331 -0.1354 -0.9531
 1002MOL0     H32223   8.694   3.251   0.284 -1.1235 -1.4711 -3.3075
 1002MOL0     H32224   8.719   3.081   0.146  1.3075  1.7987 -0.4168
 1002MOL0     H32225   8.735   3.025   0.307  1.4803 -0.7897 -1.1927
 1002MOL0     H32226   9.073   2.928   0.034  0.3474  0.0105 -0.0729
 1002MOL0     H32227   9.079   2.724  -0.095 -1.6342 -0.5095 -1.6025
 1002MOL0     H32228   9.205   2.330  -0.074  2.7218  2.5590 -2.8452
 1002MOL0     H32229   9.263   2.117  -0.205 -0.4851 -0.4190 -1.9885
 1002MOL0     H32230   8.974   1.933  -0.504 -2.3624 -2.1329 -0.0369
 1002MOL0     H32231   8.923   1.921  -0.339 -1.9291  3.1147 -2.2485
 1002MOL0     H32232   9.108   1.737  -0.310  1.4979  0.2250 -0.3009
 1002MOL0     H32233   9.103   1.724  -0.484  0.7672  0.0709  1.1826
 1002MOL0     H32234   8.866   1.661  -0.484  0.2681 -0.6711  0.0482
 1002MOL0     H32235   8.844   1.689  -0.329  2.0451  0.5702  1.5976
 1002MOL0     H32236   9.041   1.492  -0.451 -0.8949  1.1197 -2.1632
 1002MOL0     H32237   9.027   1.526  -0.274  1.1178  3.3909 -1.1571
 1002MOL0     H32238   8.894   1.310  -0.359  1.0242 -0.0017  2.7266
 1002MOL0     H32239   8.801   1.422  -0.462  1.7118 -1.8863 -1.0025
 1002MOL0     H32240   8.720   1.530  -0.229 -2.3361 -0.6180  0.9493
 1002MOL0     H32241   8.836   1.422  -0.165 -1.3383  2.4418 -0.1744
 1002MOL0     H32242   8.590   1.348  -0.303 -0.6850 -4.7237 -1.5596
 1002MOL0     H32243   8.708   1.223  -0.252  1.8736  0.5928  0.2672
 1002MOL0     H32244   8.684   1.307  -0.007 -3.1014 -0.8198  1.1021
 1002MOL0     H32245   8.554   1.230  -0.079 -0.4176  0.8588  2.6156
 1002MOL0     H32246   8.893   2.155  -0.418  3.1327 -2.4571 -1.2798
 1002MOL0     H32247   8.857   2.370  -0.330 -0.2177  0.8384  0.5536
 1002MOL0     H32248   8.712   2.614   0.122 -0.1526 -0.4491  0.3490
 1002MOL0     H32249   8.705   2.833   0.217  2.1116  5.1971  0.8274
 1002MOL0     H32250   9.592   3.665   1.239  1.2350 -0.4830  0.8576
 1002MOL0     H32251   9.461   3.874   1.226  0.6250 -0.2525 -2.3881
 1002MOL0     H32252   9.018   4.047   1.103 -0.1700  0.6040 -1.4776
 1002MOL0     H32253   8.809   4.091   1.014 -1.7393 -0.0586  0.4043
 1002MOL0     H32254   8.478   3.790   1.063 -0.8220 -0.3278  3.7035
 1002MOL0     H32255   8.386   3.932   1.010 -3.1992 -1.6129  1.3396
 1002MOL0     H32256   8.499   3.953   1.285  0.0370 -0.2745  0.4539
 1002MOL0     H32257   8.365   4.030   1.215 -0.2453  0.1364  1.6354
 1002MOL0     H32258   8.313   3.856   1.370  1.4962  3.6221 -0.1826
 1002MOL0     H32259   8.365   3.729   1.268 -0.3500  0.1891 -1.8916
 1002MOL0     H32260   8.155   3.931   1.191  1.6763  0.9124 -0.3193
 1002MOL0     H32261   8.222   3.791   1.096  2.3830 -1.8422  0.5945
 1002MOL0     H32262   7.924   3.612   1.347 -0.4503 -0.2955 -0.7389
 1002MOL0     H32263   8.631   3.765   1.231  0.5162 -0.5211  0.5562
 1002MOL0     H32264   8.837   3.712   1.328 -0.3792  0.1428 -0.3709
 1003MOL0     O32265   1.306   7.230   1.873  0.7196 -0.1637  1.0556
 1003MOL0     C32266   1.300   7.137   1.954  0.3059 -1.0092  0.5001
 1003MOL0     O32267   1.401   7.077   2.017 -0.3707 -0.2948  0.6793
 1003MOL0     C32268   1.522   7.117   1.968  0.2037  1.1429 -0.3872
 1003MOL0     C32269   1.582   7.053   1.860  0.3708 -0.1586 -0.4202
 1003MOL0     C32270   1.710   7.083   1.804 -0.1235  1.2651  0.3237
 1003MOL0     C32271   1.788   7.170   1.877  0.5940  0.0199 -0.5295
 1003MOL0     O32272   1.920   7.185   1.834  0.3825  1.3262 -0.3838
 1003MOL0     C32273   1.984   7.294   1.894  0.1720  0.1673  0.9823
 1003MOL0     C32274   2.131   7.303   1.829  0.2637  0.2864  0.2353
 1003MOL0     C32275   2.209   7.439   1.855  0.0140  0.6135 -0.2510
 1003MOL0     C32276   2.210   7.454   2.010  0.2726  0.7182 -0.7332
 1003MOL0     C32277   2.288   7.577   2.066  0.3043  0.1186  0.7924
 1003MOL0     C32278   2.443   7.551   2.025 -1.4088 -0.8322 -0.5773
 1003MOL0     C32279   2.524   7.673   2.080 -0.3326  0.5884  0.4332
 1003MOL0     C32280   2.651   7.692   1.992  0.0600 -0.0067 -0.7242
 1003MOL0     N32281   2.759   7.591   2.024 -0.1232 -0.7049 -0.5492
 1003MOL0     C32282   2.862   7.603   2.120  1.0537 -0.5484 -0.0952
 1003MOL0     C32283   2.942   7.501   2.105  0.0924  0.8334  0.1944
 1003MOL0     C32284   3.071   7.478   2.169 -0.4435  0.4547  0.6841
 1003MOL0     C32285   3.152   7.356   2.105 -0.1332  0.3938 -0.1879
 1003MOL0     C32286   3.137   7.239   2.196  1.0413 -0.0358 -0.3221
 1003MOL0     C32287   3.219   7.125   2.143 -0.4049  0.0645 -0.6574
 1003MOL0     O32288   3.345   7.118   2.208  0.0029 -0.7179  0.3016
 1003MOL0     C32289   3.446   7.041   2.161  0.8216  0.5421 -0.1760
 1003MOL0     C32290   3.565   7.039   2.230  0.6942  0.1606 -0.9952
 1003MOL0     C32291   3.676   6.957   2.219 -0.8625 -0.0095  0.4067
 1003MOL0     C32292   3.679   6.876   2.111  0.1333  0.1452 -0.0794
 1003MOL0     C32293   3.797   6.788   2.079 -0.8850  0.6802 -0.2073
 1003MOL0     O32294   3.927   6.846   2.105  0.2695  0.5670 -0.3623
 1003MOL0     C32295   4.028   6.781   2.030 -0.5585 -0.2676  0.0671
 1003MOL0     C32296   4.082   6.661   2.057 -0.2603  0.0711  1.1001
 1003MOL0     C32297   4.173   6.600   1.964 -0.6392  0.6954 -0.6603
 1003MOL0     C32298   4.202   6.671   1.848  0.1397  0.7722  0.3260
 1003MOL0     O32299   4.308   6.617   1.781 -0.4143  0.4808  0.4034
 1003MOL0     C32300   4.371   6.689   1.673  0.3163  0.6803 -0.5019
 1003MOL0     C32301   4.482   6.596   1.619 -0.1685  0.1620  1.2097
 1003MOL0     C32302   4.427   6.485   1.534  0.6185  1.5543  0.9700
 1003MOL0     C32303   4.534   6.421   1.448 -0.1771 -0.4144 -0.3244
 1003MOL0     C32304   4.484   6.293   1.380  0.2546 -0.0021 -0.2936
 1003MOL0     C32305   4.353   6.316   1.296 -0.1645  0.5019 -0.5185
 1003MOL0     C32306   4.293   6.180   1.244  0.1683  0.5437 -0.2901
 1003MOL0     C32307   4.182   6.207   1.143 -1.0106  0.3603 -0.3786
 1003MOL0    Cl32308   4.017   6.236   1.209 -0.3128  0.1893  0.0638
 1003MOL0     C32309   4.147   6.795   1.823  0.0089  0.0194  0.5198
 1003MOL0     C32310   4.063   6.857   1.914  0.5517  0.6060  0.6649
 1003MOL0     O32311   3.781   6.691   2.003  0.5103 -0.5316 -0.5813
 1003MOL0     C32312   3.556   6.863   2.038 -0.1103 -0.7435  1.1993
 1003MOL0     C32313   3.444   6.952   2.056 -1.1690 -0.0488 -0.0345
 1003MOL0     N32314   2.871   7.402   2.023  0.1436 -0.1029 -0.0433
 1003MOL0     N32315   2.760   7.461   1.979  0.2632  0.2187  0.9582
 1003MOL0     C32316   1.722   7.250   1.981 -0.4007  0.4391  0.7202
 1003MOL0     C32317   1.590   7.213   2.028  0.6464  0.8009  0.0784
 1003MOL0     C32318   1.172   7.106   2.009 -0.4750  0.3273 -0.3022
 1003MOL0     C32319   1.065   7.183   1.973  0.4183 -0.4612 -0.3227
 1003MOL0     C32320   0.933   7.141   2.015  0.2268 -0.5163 -0.2197
 1003MOL0     C32321   0.906   7.020   2.082  0.5428 -0.8553 -0.8066
 1003MOL0     O32322   0.779   6.975   2.115  0.5624 -0.1757 -0.0695
 1003MOL0     C32323   0.668   7.064   2.090 -0.2979 -1.5447 -0.4798
 1003MOL0     C32324   0.529   7.009   2.101 -0.2461  0.1285 -0.4363
 1003MOL0     C32325   0.425   7.092   2.036  0.0825  0.7931  0.7808
 1003MOL0     C32326   0.290   7.012   2.041 -0.6675 -0.2387  0.4191
 1003MOL0     C32327   0.217   7.054   2.166 -0.1266  0.2806  0.4410
 1003MOL0     C32328   0.159   7.086   2.268  0.2303  0.1856 -0.9254
 1003MOL0     C32329   1.014   6.940   2.102  1.5633 -0.4648  0.2837
 1003MOL0     C32330   1.148   6.979   2.076  1.2629  0.1937 -0.1324
 1003MOL0     H32331   1.522   6.976   1.813  1.8665 -2.3350  1.0481
 1003MOL0     H32332   1.741   7.020   1.722 -2.3660  0.8038 -0.2536
 1003MOL0     H32333   1.973   7.277   2.002 -0.5854 -0.6638  0.7825
 1003MOL0     H32334   1.937   7.388   1.863  1.9625  1.8808  3.0436
 1003MOL0     H32335   2.125   7.292   1.721  0.7099  1.0503  0.1241
 1003MOL0     H32336   2.196   7.222   1.861  2.7841  1.2077 -2.1969
 1003MOL0     H32337   2.152   7.523   1.814  0.3410 -0.4498 -3.0445
 1003MOL0     H32338   2.310   7.444   1.812  0.1807 -0.6745 -0.0400
 1003MOL0     H32339   2.108   7.478   2.042 -0.9278 -1.6642 -2.4715
 1003MOL0     H32340   2.247   7.360   2.051 -0.9132 -0.5398 -2.3998
 1003MOL0     H32341   2.288   7.591   2.174 -1.3652 -3.5455  1.4055
 1003MOL0     H32342   2.241   7.663   2.018 -1.8497 -2.2733 -1.7676
 1003MOL0     H32343   2.464   7.536   1.919 -1.3188 -1.7174 -0.4412
 1003MOL0     H32344   2.493   7.468   2.075  0.0241 -1.0664 -2.3198
 1003MOL0     H32345   2.466   7.766   2.080 -0.8617  0.2723  1.2956
 1003MOL0     H32346   2.555   7.649   2.182  0.4846  0.9931  0.2952
 1003MOL0     H32347   2.687   7.793   2.013 -1.7236  0.2665  1.3760
 1003MOL0     H32348   2.621   7.691   1.886 -0.2761  1.4095 -0.6599
 1003MOL0     H32349   2.880   7.689   2.183  1.3293  0.5018 -1.5441
 1003MOL0     H32350   3.076   7.471   2.278 -0.8132  1.7407  0.8033
 1003MOL0     H32351   3.138   7.563   2.148 -0.3392 -0.0632 -1.3572
 1003MOL0     H32352   3.260   7.368   2.090 -0.6735  1.4667 -4.6042
 1003MOL0     H32353   3.111   7.331   2.007  1.4483 -2.7756 -0.1552
 1003MOL0     H32354   3.165   7.256   2.301 -0.5886 -0.2707  0.1945
 1003MOL0     H32355   3.031   7.212   2.188  0.3004  2.5941 -0.4123
 1003MOL0     H32356   3.224   7.129   2.034  3.1400 -1.9345 -0.7325
 1003MOL0     H32357   3.166   7.035   2.175 -0.4513  1.2356  3.0951
 1003MOL0     H32358   3.571   7.103   2.317  1.1228  1.6571 -2.0962
 1003MOL0     H32359   3.748   6.952   2.300 -0.1187  2.0319 -0.0437
 1003MOL0     H32360   4.050   6.612   2.149 -1.0650  0.6758  1.1464
 1003MOL0     H32361   4.222   6.510   2.001  2.1753  3.6307  3.7285
 1003MOL0     H32362   4.424   6.771   1.721  1.2848 -2.0917  3.7129
 1003MOL0     H32363   4.296   6.719   1.599  1.7176 -0.8009 -2.6278
 1003MOL0     H32364   4.549   6.566   1.701  1.1220 -1.8432 -0.4586
 1003MOL0     H32365   4.540   6.671   1.564 -1.5231 -0.3858 -1.1008
 1003MOL0     H32366   4.347   6.530   1.474  0.2492 -0.1011  0.1517
 1003MOL0     H32367   4.391   6.401   1.593  1.6667 -0.2183 -0.7775
 1003MOL0     H32368   4.574   6.496   1.378 -0.9479  2.7695  2.3686
 1003MOL0     H32369   4.615   6.391   1.514  0.4342  1.8587  0.0669
 1003MOL0     H32370   4.467   6.220   1.459  2.1255 -0.2844 -0.0885
 1003MOL0     H32371   4.561   6.258   1.310  1.0737  1.8952 -0.3888
 1003MOL0     H32372   4.370   6.391   1.218 -1.2502 -0.3050 -1.5634
 1003MOL0     H32373   4.290   6.352   1.378  4.3210  1.1346  3.0637
 1003MOL0     H32374   4.382   6.139   1.195 -0.1728 -1.0486  0.3950
 1003MOL0     H32375   4.270   6.114   1.327  0.5667  1.7125  0.7896
 1003MOL0     H32376   4.175   6.115   1.084 -3.5380 -0.0520  0.4287
 1003MOL0     H32377   4.200   6.294   1.079  0.0389  0.4740  0.0553
 1003MOL0     H32378   4.181   6.862   1.745  1.0078 -0.7357  0.2833
 1003MOL0     H32379   4.028   6.960   1.907  2.8753  1.4059  0.0926
 1003MOL0     H32380   3.565   6.818   1.940 -0.6851  3.8528 -1.2563
 1003MOL0     H32381   3.360   6.939   1.989 -2.7377 -0.0700  1.8455
 1003MOL0     H32382   1.767   7.329   2.041 -0.7550  1.2524 -0.0645
 1003MOL0     H32383   1.543   7.263   2.112  0.0719  0.5705 -0.1012
 1003MOL0     H32384   1.080   7.270   1.909 -0.5325 -0.2358 -0.2601
 1003MOL0     H32385   0.844   7.202   2.011 -0.2796 -0.3665  5.2870
 1003MOL0     H32386   0.660   7.104   1.989 -3.2662 -2.7868 -0.8437
 1003MOL0     H32387   0.677   7.144   2.164 -2.1988 -1.2056 -0.5645
 1003MOL0     H32388   0.527   6.916   2.044 -1.9440 -0.8121  1.0168
 1003MOL0     H32389   0.509   6.989   2.207  1.9459  0.2535  0.0350
 1003MOL0     H32390   0.444   7.112   1.931  1.5008 -1.8371  0.4553
 1003MOL0     H32391   0.412   7.186   2.090 -2.1967 -0.6534  2.9956
 1003MOL0     H32392   0.219   7.045   1.965  0.3995  0.0056 -0.4829
 1003MOL0     H32393   0.298   6.904   2.028 -0.5935  0.0905 -3.3781
 1003MOL0     H32394   0.121   7.087   2.368 -1.4411 -2.2993 -1.4307
 1003MOL0     H32395   0.995   6.846   2.153 -1.3292  1.1038  2.4435
 1003MOL0     H32396   1.227   6.914   2.111  2.4446  1.7227  0.1342
 1004MOL0     O32397  10.943   7.780  10.067  1.0295  0.1893 -0.7430
 1004MOL0     C32398  10.882   7.715  10.158 -0.1139 -0.3082  0.2334
 1004MOL0     O32399  10.754   7.661  10.141 -0.1561  0.0436 -0.7541
 1004MOL0     C32400  10.662   7.718  10.063 -1.2900  0.1966  0.4463
 1004MOL0     C32401  10.642   7.850  10.040  0.0598 -0.1277 -0.2128
 1004MOL0     C32402  10.528   7.903   9.973  0.0330 -0.4541  0.4710
 1004MOL0     C32403  10.432   7.816   9.927 -0.7194 -0.0080  0.3421
 1004MOL0     O32404  10.320   7.851   9.863  0.0299  0.4676 -1.0893
 1004MOL0     C32405  10.233   7.940   9.957 -0.4152  0.4010  0.0924
 1004MOL0     C32406  10.143   8.019   9.861  0.7102  0.5957  0.0314
 1004MOL0     C32407  10.035   8.067   9.957 -0.6410 -0.7894  0.1674
 1004MOL0     C32408   9.940   8.171   9.881  0.0288 -0.1046  0.2130
 1004MOL0     C32409   9.833   8.101   9.804 -0.2766 -0.5330 -0.7988
 1004MOL0     C32410   9.738   8.203   9.734  0.8608  0.6970 -1.3812
 1004MOL0     C32411   9.673   8.137   9.620 -0.5818  0.3706 -0.4877
 1004MOL0     C32412   9.584   8.243   9.550 -0.0935 -0.6146 -0.8268
 1004MOL0     N32413   9.507   8.195   9.437 -0.6465  0.0648  0.6347
 1004MOL0     C32414   9.431   8.265   9.343  0.2787  0.1134  0.0498
 1004MOL0     C32415   9.361   8.169   9.271 -0.2848 -0.6649 -0.7315
 1004MOL0     C32416   9.283   8.189   9.147 -0.3107 -0.1065 -1.1382
 1004MOL0     C32417   9.350   8.149   9.022 -1.0746  0.6773  0.5463
 1004MOL0     C32418   9.501   8.190   9.011  0.3959 -0.1494 -0.5609
 1004MOL0     C32419   9.579   8.141   8.893  0.3916 -0.1764  0.8328
 1004MOL0     O32420   9.710   8.205   8.891  0.8109 -0.2762 -0.3164
 1004MOL0     C32421   9.790   8.162   8.789  0.0337  0.0254  0.1928
 1004MOL0     C32422   9.744   8.107   8.671  0.9272  0.3490  0.4218
 1004MOL0     C32423   9.824   8.077   8.564  0.1024 -0.0809 -0.3749
 1004MOL0     C32424   9.962   8.083   8.577 -0.3613  0.3644 -0.0642
 1004MOL0     C32425  10.049   8.066   8.463  0.3520  1.1906  0.7231
 1004MOL0     O32426   9.996   8.067   8.343  0.8971  0.6520 -0.5080
 1004MOL0     C32427  10.061   8.060   8.224  0.6573  0.9574  0.2472
 1004MOL0     C32428   9.974   8.101   8.124 -0.2230  0.4294  0.6291
 1004MOL0     C32429  10.029   8.103   7.990  0.0804  0.6878 -0.3331
 1004MOL0     C32430  10.166   8.076   7.964  0.2579  0.7597  0.0368
 1004MOL0     O32431  10.202   8.099   7.833  0.1328  0.0844 -0.5243
 1004MOL0     C32432  10.327   8.040   7.772  0.2436 -0.5844 -0.4582
 1004MOL0     C32433  10.307   7.968   7.642  0.2954 -0.6453 -0.4515
 1004MOL0     C32434  10.221   7.837   7.666  0.7509 -0.2484  0.4424
 1004MOL0     C32435  10.187   7.750   7.546  0.1936  0.7807  0.6880
 1004MOL0     C32436  10.111   7.626   7.593  0.0735 -0.7365 -1.1174
 1004MOL0     C32437  10.086   7.498   7.503  0.0793 -1.0094  0.7527
 1004MOL0     C32438  10.065   7.547   7.360  0.6103  0.2906  0.4088
 1004MOL0     C32439  10.052   7.421   7.265  0.0711  1.6724  0.0123
 1004MOL0    Cl32440   9.900   7.327   7.293 -0.2025  0.1474 -0.0802
 1004MOL0     C32441  10.256   8.037   8.071  0.5092  0.3990  0.0395
 1004MOL0     C32442  10.202   8.028   8.204 -0.2529  0.0287  0.1582
 1004MOL0     O32443  10.168   8.048   8.489  0.7432  1.1604  1.5301
 1004MOL0     C32444  10.012   8.143   8.693  0.7731  0.3120 -0.7777
 1004MOL0     C32445   9.924   8.176   8.797 -0.6568  0.4801  0.8642
 1004MOL0     N32446   9.386   8.048   9.331  0.5651 -0.8814  0.1068
 1004MOL0     N32447   9.455   8.069   9.432 -0.3927  0.1341  0.0340
 1004MOL0     C32448  10.456   7.675   9.938  0.4540  0.0328  0.3335
 1004MOL0     C32449  10.574   7.628  10.000 -0.5626 -0.1807 -0.1033
 1004MOL0     C32450  10.959   7.693  10.280 -0.1489 -0.4899 -1.1093
 1004MOL0     C32451  11.098   7.709  10.282 -0.4639 -0.2305  0.7608
 1004MOL0     C32452  11.172   7.709  10.400  0.5937 -0.6249 -0.4078
 1004MOL0     C32453  11.101   7.681  10.518  0.4349 -1.6336 -0.5104
 1004MOL0     O32454  11.156   7.690  10.644  0.1244 -0.9380 -0.5581
 1004MOL0     C32455  11.275   7.759  10.653  0.2101 -0.8128  0.4913
 1004MOL0     C32456  11.289   7.801  10.802  0.2986  0.7066  0.0118
 1004MOL0     C32457  11.156   7.859  10.851  0.2826 -0.0921 -1.4018
 1004MOL0     C32458  11.099   7.987  10.790 -0.4142  0.0634 -0.7509
 1004MOL0     C32459  11.177   8.104  10.796  0.0299  0.6671 -0.5480
 1004MOL0     C32460  11.244   8.206  10.798 -0.0301  0.3125  0.9447
 1004MOL0     C32461  10.967   7.648  10.518  0.4817 -0.5462 -1.0422
 1004MOL0     C32462  10.898   7.649  10.401  0.4383 -0.0681 -0.0246
 1004MOL0     H32463  10.711   7.922  10.083 -0.6209 -0.0964  0.8702
 1004MOL0     H32464  10.517   8.009   9.954 -1.7323 -0.7280 -0.2149
 1004MOL0     H32465  10.286   8.007  10.025 -1.3322 -0.4762  1.7114
 1004MOL0     H32466  10.188   7.871  10.028  1.0393  2.5115  3.2963
 1004MOL0     H32467  10.099   7.963   9.778  0.5887 -0.5229  0.8158
 1004MOL0     H32468  10.194   8.109   9.826  1.8377  1.3164  3.1768
 1004MOL0     H32469  10.079   8.128  10.036 -0.2201  3.1162 -2.7923
 1004MOL0     H32470   9.983   7.977   9.991  0.5306 -3.4586 -4.2816
 1004MOL0     H32471   9.893   8.235   9.956 -2.5062  1.4157 -2.4903
 1004MOL0     H32472   9.995   8.232   9.808 -0.6583 -0.9258 -1.0109
 1004MOL0     H32473   9.768   8.046   9.872  0.1045  0.7450  0.6601
 1004MOL0     H32474   9.880   8.028   9.737 -1.0176 -0.1127 -1.8016
 1004MOL0     H32475   9.810   8.274   9.694  1.3036  0.1449 -1.5826
 1004MOL0     H32476   9.662   8.240   9.803  1.3866  1.2260 -1.0859
 1004MOL0     H32477   9.749   8.119   9.544  0.3943  0.1785  0.5023
 1004MOL0     H32478   9.625   8.044   9.652  0.2034 -0.3569 -1.3755
 1004MOL0     H32479   9.646   8.329   9.523 -0.8309  0.0889 -0.3227
 1004MOL0     H32480   9.527   8.274   9.638  0.0527 -1.7599 -0.3094
 1004MOL0     H32481   9.434   8.369   9.310 -1.1599 -0.0593 -0.7372
 1004MOL0     H32482   9.257   8.294   9.129 -3.3162 -0.8784 -1.9688
 1004MOL0     H32483   9.182   8.148   9.155 -0.9522  1.3520 -1.3955
 1004MOL0     H32484   9.301   8.191   8.934  0.9232 -0.4529 -1.1782
 1004MOL0     H32485   9.355   8.040   9.010  3.1716  0.5791  1.6139
 1004MOL0     H32486   9.493   8.298   9.005 -0.2872  0.1387  3.2759
 1004MOL0     H32487   9.554   8.160   9.102 -2.2543  0.2676  1.2278
 1004MOL0     H32488   9.522   8.172   8.804 -1.4392 -2.4831  1.1145
 1004MOL0     H32489   9.588   8.033   8.906  1.0547 -0.1573  0.5517
 1004MOL0     H32490   9.638   8.100   8.649  0.6363 -0.4466  1.9264
 1004MOL0     H32491   9.777   8.047   8.470  1.9046 -1.5244 -0.8862
 1004MOL0     H32492   9.875   8.131   8.156 -0.5527 -0.9806  1.0021
 1004MOL0     H32493   9.968   8.119   7.902 -0.6308 -0.5507 -0.0885
 1004MOL0     H32494  10.375   7.982   7.851  0.9039  0.7247  0.1391
 1004MOL0     H32495  10.387   8.128   7.746 -3.2043  2.5968  1.2754
 1004MOL0     H32496  10.406   7.951   7.600  0.3987 -1.7232  0.1951
 1004MOL0     H32497  10.248   8.033   7.576 -2.2862 -1.3254  1.0209
 1004MOL0     H32498  10.135   7.851   7.733  1.2284 -1.9794  1.4926
 1004MOL0     H32499  10.291   7.777   7.724  2.6549  0.1820 -1.3295
 1004MOL0     H32500  10.141   7.814   7.470  4.0712  3.7003  0.4241
 1004MOL0     H32501  10.268   7.721   7.479 -2.7619 -2.2112 -1.9056
 1004MOL0     H32502  10.014   7.668   7.622 -0.4946 -1.2613 -2.1830
 1004MOL0     H32503  10.181   7.596   7.671  0.4748  0.1551 -1.1200
 1004MOL0     H32504   9.999   7.439   7.529 -0.9454 -0.0293 -0.3217
 1004MOL0     H32505  10.181   7.444   7.510  3.2385  3.7162 -0.7397
 1004MOL0     H32506   9.978   7.613   7.357  2.2769  2.6100  0.2772
 1004MOL0     H32507  10.143   7.613   7.321  1.8916 -1.1148  0.5317
 1004MOL0     H32508  10.132   7.348   7.280 -0.0385  0.8660 -2.7503
 1004MOL0     H32509  10.057   7.451   7.160  3.4313  3.8880  0.6488
 1004MOL0     H32510  10.357   8.013   8.038  0.6353  0.1682  0.5870
 1004MOL0     H32511  10.261   7.987   8.285 -2.1342  1.7990  2.6008
 1004MOL0     H32512  10.114   8.176   8.707  0.0116  1.7274  2.4708
 1004MOL0     H32513   9.975   8.205   8.889  1.9074  0.4807 -0.4646
 1004MOL0     H32514  10.385   7.613   9.884  1.8020 -1.1276 -0.1711
 1004MOL0     H32515  10.594   7.522  10.005 -1.8695 -0.4821 -0.8042
 1004MOL0     H32516  11.150   7.739  10.192 -1.5872  3.9451  1.2722
 1004MOL0     H32517  11.279   7.726  10.394  0.7207  1.5945  4.2089
 1004MOL0     H32518  11.275   7.849  10.591  1.9518 -1.3351 -0.3271
 1004MOL0     H32519  11.354   7.699  10.608 -0.6385 -1.4581 -0.1653
 1004MOL0     H32520  11.297   7.703  10.850 -1.3970  0.0930 -0.8594
 1004MOL0     H32521  11.370   7.870  10.823 -1.4709  2.8956  0.0558
 1004MOL0     H32522  11.159   7.881  10.958 -0.4255 -2.6202 -0.7742
 1004MOL0     H32523  11.083   7.777  10.843  0.9649 -0.9321  0.4254
 1004MOL0     H32524  11.098   7.969  10.682  4.6086 -2.5484 -0.6382
 1004MOL0     H32525  10.998   7.996  10.832  0.4655 -3.6188  2.6436
 1004MOL0     H32526  11.283   8.306  10.808  1.8479 -0.3114  0.3413
 1004MOL0     H32527  10.912   7.623  10.609 -0.0857 -0.8374 -1.4629
 1004MOL0     H32528  10.796   7.613  10.411  0.1687  1.0709  1.8533
 1005MOL0     O32529   7.038   9.917   7.661 -0.4929  0.2056  0.3243
 1005MOL0     C32530   7.157   9.896   7.621  0.7975 -0.4259 -0.1706
 1005MOL0     O32531   7.251   9.818   7.671  0.6398  0.5452  0.3384
 1005MOL0     C32532   7.243   9.779   7.804  0.5362 -0.4997  0.1048
 1005MOL0     C32533   7.294   9.871   7.896  1.1969  0.8626  0.2690
 1005MOL0     C32534   7.299   9.832   8.031  0.1587 -1.0329  1.5408
 1005MOL0     C32535   7.261   9.705   8.068 -0.7294  0.0745 -0.1311
 1005MOL0     O32536   7.256   9.690   8.205 -0.4666 -0.4182 -0.6252
 1005MOL0     C32537   7.384   9.692   8.277  0.2450  0.7986  0.8984
 1005MOL0     C32538   7.342   9.743   8.414 -0.0617 -0.5102  0.5597
 1005MOL0     C32539   7.457   9.720   8.512 -0.1342  0.1057 -0.3771
 1005MOL0     C32540   7.431   9.770   8.648 -0.1323 -0.3911 -0.2018
 1005MOL0     C32541   7.566   9.814   8.710 -0.2493  0.2533  0.3077
 1005MOL0     C32542   7.565   9.857   8.852 -0.0516  0.7934  0.7573
 1005MOL0     C32543   7.711   9.844   8.912 -0.1258 -0.2939 -0.2025
 1005MOL0     C32544   7.704   9.865   9.065  0.5032  0.5142  0.5598
 1005MOL0     N32545   7.682  10.009   9.080 -0.1153  0.5528 -1.4571
 1005MOL0     C32546   7.779  10.109   9.064 -0.6632 -0.0067 -0.5684
 1005MOL0     C32547   7.709  10.223   9.073  0.1565  0.9640 -0.0424
 1005MOL0     C32548   7.754  10.361   9.038  0.3239  1.2668  0.1769
 1005MOL0     C32549   7.770  10.384   8.885 -0.7029  0.1598  0.0465
 1005MOL0     C32550   7.647  10.420   8.799  0.3101 -0.6929 -0.9322
 1005MOL0     C32551   7.558  10.299   8.763  0.2965  0.3497  0.0925
 1005MOL0     O32552   7.445  10.340   8.698  0.3018 -0.5721 -0.1929
 1005MOL0     C32553   7.445  10.320   8.566  0.0769  0.3985 -1.0900
 1005MOL0     C32554   7.423  10.428   8.484 -0.1444 -0.8813 -0.4561
 1005MOL0     C32555   7.422  10.412   8.347  0.4160  0.7587 -0.1535
 1005MOL0     C32556   7.451  10.286   8.284 -0.8479 -0.1189 -0.8248
 1005MOL0     C32557   7.461  10.265   8.139  0.1129  0.1396  1.1263
 1005MOL0     O32558   7.524  10.365   8.076  0.9041 -0.3431  0.3398
 1005MOL0     C32559   7.527  10.351   7.937 -0.7157 -0.0206  0.5448
 1005MOL0     C32560   7.416  10.408   7.875  0.3152 -0.8118  0.1461
 1005MOL0     C32561   7.412  10.415   7.734 -1.3031 -0.6316  0.0673
 1005MOL0     C32562   7.514  10.361   7.655 -0.2351  0.0929 -0.8460
 1005MOL0     O32563   7.495  10.377   7.520  0.8074 -0.0646  0.4394
 1005MOL0     C32564   7.589  10.329   7.426 -0.2974  0.2213  0.1982
 1005MOL0     C32565   7.551  10.401   7.295 -1.2751  0.6817 -0.9772
 1005MOL0     C32566   7.668  10.373   7.197 -0.7453  0.9430 -1.0370
 1005MOL0     C32567   7.642  10.230   7.139 -0.2161  0.2230 -0.4183
 1005MOL0     C32568   7.710  10.236   7.001 -0.5836 -0.0342 -0.3128
 1005MOL0     C32569   7.864  10.239   7.005  1.2497  0.1190  0.1680
 1005MOL0     C32570   7.935  10.160   6.889 -0.3588 -1.0230 -0.3143
 1005MOL0     C32571   8.092  10.154   6.926  0.4757 -0.5214  0.2920
 1005MOL0    Cl32572   8.176  10.298   6.887  0.2201  0.3234 -0.1121
 1005MOL0     C32573   7.623  10.292   7.724 -0.5141 -0.0862  0.2546
 1005MOL0     C32574   7.632  10.297   7.865  0.6483 -0.9715 -0.3342
 1005MOL0     O32575   7.420  10.160   8.088  1.3091  0.0073  0.1078
 1005MOL0     C32576   7.465  10.169   8.362 -0.6748 -0.1461 -0.1162
 1005MOL0     C32577   7.456  10.188   8.511  0.4926 -0.3755 -0.0126
 1005MOL0     N32578   7.576  10.191   9.113 -0.2763  0.1360  0.4453
 1005MOL0     N32579   7.567  10.066   9.115  0.5229 -0.1199  1.5842
 1005MOL0     C32580   7.214   9.610   7.976  0.4949 -0.5965  0.4192
 1005MOL0     C32581   7.208   9.648   7.839 -0.3359  0.6523 -0.3664
 1005MOL0     C32582   7.189   9.960   7.490 -0.4569 -0.1937 -0.2336
 1005MOL0     C32583   7.097  10.047   7.426  0.0933 -1.0618 -1.2951
 1005MOL0     C32584   7.145  10.112   7.307 -1.1999  0.4178  0.0125
 1005MOL0     C32585   7.264  10.104   7.252 -0.8031 -0.0586 -0.0043
 1005MOL0     O32586   7.291  10.159   7.130 -0.1010  0.1267 -0.0057
 1005MOL0     C32587   7.201  10.173   7.023  0.3490 -0.4539  0.4958
 1005MOL0     C32588   7.274  10.188   6.892  0.1351  0.3004  0.7801
 1005MOL0     C32589   7.329  10.335   6.884 -0.4823  0.0672  1.1744
 1005MOL0     C32590   7.409  10.383   6.765  0.4914  0.2877  0.3373
 1005MOL0     C32591   7.334  10.364   6.645  0.4779 -0.3844  0.1027
 1005MOL0     C32592   7.240  10.353   6.569 -0.5881 -0.2466  0.0306
 1005MOL0     C32593   7.359  10.019   7.317 -0.2315 -0.1819 -0.3284
 1005MOL0     C32594   7.326   9.958   7.439 -0.6067  0.4226 -0.1795
 1005MOL0     H32595   7.321   9.973   7.872  0.1387  1.5531  1.8713
 1005MOL0     H32596   7.329   9.917   8.091 -0.5286  0.8119 -0.5632
 1005MOL0     H32597   7.461   9.754   8.230  4.4355 -3.4472  1.3621
 1005MOL0     H32598   7.426   9.592   8.290 -0.9638  0.3112  1.1720
 1005MOL0     H32599   7.244   9.702   8.438 -0.6659 -0.4625 -1.6114
 1005MOL0     H32600   7.328   9.852   8.415  0.4807 -0.4368  0.8660
 1005MOL0     H32601   7.543   9.773   8.470 -0.8766  1.6528 -0.0555
 1005MOL0     H32602   7.490   9.616   8.518 -1.7069 -0.4688 -1.1190
 1005MOL0     H32603   7.371   9.862   8.639  2.5181  1.2630 -2.7599
 1005MOL0     H32604   7.370   9.704   8.710 -2.0331  1.4056 -0.0286
 1005MOL0     H32605   7.618   9.897   8.660  2.0313 -1.1278  0.2426
 1005MOL0     H32606   7.633   9.729   8.705 -1.4552 -0.6483 -1.9064
 1005MOL0     H32607   7.489   9.805   8.912  0.2369  0.9479  1.2659
 1005MOL0     H32608   7.540   9.963   8.845  3.9972  1.7809 -2.6394
 1005MOL0     H32609   7.741   9.739   8.903  0.1466 -0.1705 -0.8387
 1005MOL0     H32610   7.785   9.901   8.855  1.9270 -3.3231 -0.8201
 1005MOL0     H32611   7.800   9.830   9.105 -0.3923  0.4180  2.7371
 1005MOL0     H32612   7.630   9.799   9.110 -2.9910  2.2344 -2.2196
 1005MOL0     H32613   7.882  10.099   9.032  0.7402  0.0243  3.3875
 1005MOL0     H32614   7.859  10.366   9.068  0.4847  0.7188 -0.2599
 1005MOL0     H32615   7.699  10.432   9.100  0.9973 -0.6042  3.1373
 1005MOL0     H32616   7.816  10.291   8.850  3.2586  2.1296 -0.5127
 1005MOL0     H32617   7.846  10.463   8.891  1.3087 -1.6059 -0.8005
 1005MOL0     H32618   7.585  10.505   8.830 -1.7975 -1.0785 -3.6813
 1005MOL0     H32619   7.684  10.462   8.705 -2.0302  3.0707 -0.4235
 1005MOL0     H32620   7.534  10.227   8.842  1.5203  0.5619  0.6914
 1005MOL0     H32621   7.633  10.241   8.708 -0.1337 -0.5887  0.4769
 1005MOL0     H32622   7.385  10.521   8.524 -2.2314 -2.2416  0.9176
 1005MOL0     H32623   7.408  10.505   8.293 -2.6982 -0.3824 -1.5361
 1005MOL0     H32624   7.335  10.466   7.918 -0.1381 -1.0839 -0.3197
 1005MOL0     H32625   7.338  10.477   7.685 -0.7203 -0.6079 -0.7988
 1005MOL0     H32626   7.579  10.223   7.397  1.1599 -0.2079  1.1841
 1005MOL0     H32627   7.689  10.357   7.458  0.0323  0.7925 -1.2415
 1005MOL0     H32628   7.535  10.508   7.314 -1.1461  0.5790 -0.2529
 1005MOL0     H32629   7.462  10.359   7.247 -2.6668  0.9105  1.2396
 1005MOL0     H32630   7.765  10.373   7.248 -1.0818  0.4522 -0.3775
 1005MOL0     H32631   7.682  10.458   7.129  0.8622  2.8685  1.5085
 1005MOL0     H32632   7.675  10.159   7.216  0.9253  0.8160 -0.3260
 1005MOL0     H32633   7.538  10.219   7.109 -0.6907  0.9734  0.8609
 1005MOL0     H32634   7.688  10.330   6.950  0.8950  1.7262  2.0778
 1005MOL0     H32635   7.683  10.149   6.940 -0.0886 -0.3975 -0.0228
 1005MOL0     H32636   7.898  10.218   7.107  0.5175  0.3535  0.4697
 1005MOL0     H32637   7.882  10.346   6.993  1.6020  0.0594  0.1442
 1005MOL0     H32638   7.906  10.055   6.881 -0.5522 -1.0431  0.5460
 1005MOL0     H32639   7.937  10.201   6.788  2.1244  2.1546  0.8348
 1005MOL0     H32640   8.127  10.074   6.860 -1.5295 -1.2659  0.0657
 1005MOL0     H32641   8.105  10.127   7.031 -1.8579 -4.7614 -0.2945
 1005MOL0     H32642   7.710  10.256   7.670  1.3738  2.8536  1.1238
 1005MOL0     H32643   7.702  10.261   7.939  2.5892  3.0637  0.0958
 1005MOL0     H32644   7.475  10.070   8.319 -1.7692  0.2380 -1.3390
 1005MOL0     H32645   7.470  10.105   8.580 -2.4796 -0.7853  0.2383
 1005MOL0     H32646   7.188   9.512   8.014  2.5878 -1.2711  0.2273
 1005MOL0     H32647   7.173   9.571   7.771  0.8239 -1.1522  0.9830
 1005MOL0     H32648   6.995  10.048   7.463  0.6956 -5.4348  1.2439
 1005MOL0     H32649   7.079  10.181   7.254  0.0688 -0.9277 -3.6858
 1005MOL0     H32650   7.124  10.246   7.050  2.0138  1.0632  1.3589
 1005MOL0     H32651   7.146  10.079   7.008 -2.6282  1.2437 -0.0857
 1005MOL0     H32652   7.361  10.125   6.872 -0.0753  0.9267 -2.9562
 1005MOL0     H32653   7.193  10.174   6.819  0.0311  0.1945  0.9176
 1005MOL0     H32654   7.401  10.338   6.967  1.7481  1.8242 -0.6566
 1005MOL0     H32655   7.252  10.404   6.919 -0.4923 -0.3368  1.9813
 1005MOL0     H32656   7.439  10.488   6.771 -0.5087  0.5054  1.9422
 1005MOL0     H32657   7.506  10.332   6.757  0.3381  0.2802 -2.2407
 1005MOL0     H32658   7.161  10.322   6.503 -1.9418  2.2932  0.3278
 1005MOL0     H32659   7.462  10.016   7.282  1.3349  1.8646  3.5264
 1005MOL0     H32660   7.394   9.900   7.500 -0.7243  1.4075  0.9291
 1006MOL0     O32661  10.979   7.670   2.561  0.3564 -0.3230  0.8330
 1006MOL0     C32662  10.930   7.782   2.599 -0.1219  0.2077 -0.9739
 1006MOL0     O32663  10.994   7.903   2.594  0.7962 -0.5241  0.3772
 1006MOL0     C32664  11.105   7.912   2.512 -0.0819  0.2526  0.2556
 1006MOL0     C32665  11.094   7.914   2.374  0.0215  1.0021  0.3587
 1006MOL0     C32666  11.213   7.930   2.311 -1.0086  0.4210 -0.0470
 1006MOL0     C32667  11.341   7.963   2.372  0.5423 -0.7391 -0.1274
 1006MOL0     O32668  11.456   8.007   2.310 -0.0668  0.4671 -0.2877
 1006MOL0     C32669  11.453   7.999   2.165  0.5705  0.2529  0.0087
 1006MOL0     C32670  11.582   8.049   2.117 -0.5008  0.0835 -0.6792
 1006MOL0     C32671  11.702   7.954   2.161 -0.6179 -0.1709 -0.5101
 1006MOL0     C32672  11.825   7.981   2.072  0.3081  1.2335 -0.1476
 1006MOL0     C32673  11.881   8.122   2.061  1.2043 -0.1372 -0.2573
 1006MOL0     C32674  12.013   8.149   1.985 -0.1793 -1.0226 -0.4970
 1006MOL0     C32675  12.076   8.288   2.003 -0.1828  0.0450 -0.7549
 1006MOL0     C32676  12.204   8.292   1.924  1.0545  0.1617 -0.7853
 1006MOL0     N32677  12.304   8.203   1.976 -0.2433  0.3443 -0.2682
 1006MOL0     C32678  12.381   8.222   2.081  0.4025 -0.3319 -0.4805
 1006MOL0     C32679  12.476   8.121   2.079  0.3597  0.2986 -0.3417
 1006MOL0     C32680  12.596   8.112   2.181  1.0419 -0.0648  0.3620
 1006MOL0     C32681  12.737   8.154   2.139  0.1964 -0.3720  0.2353
 1006MOL0     C32682  12.804   8.052   2.029 -0.1733  1.1573 -0.1957
 1006MOL0     C32683  12.951   8.080   2.012  0.5231  1.2063  0.0016
 1006MOL0     O32684  13.007   7.967   1.941  0.9369  0.5671 -0.3480
 1006MOL0     C32685  13.075   7.872   2.019 -0.1308  0.6979 -0.4983
 1006MOL0     C32686  13.188   7.802   1.963  0.7453 -0.7266 -0.1809
 1006MOL0     C32687  13.272   7.726   2.048 -0.4245  0.2114 -0.0259
 1006MOL0     C32688  13.244   7.707   2.183 -0.0247  0.1991 -0.2919
 1006MOL0     C32689  13.336   7.623   2.265  0.1963 -1.3091  0.1549
 1006MOL0     O32690  13.391   7.692   2.376  0.1213  0.8334  0.6255
 1006MOL0     C32691  13.460   7.615   2.464  0.2835 -0.7909 -0.6721
 1006MOL0     C32692  13.394   7.541   2.562  0.3081  0.5040 -0.9909
 1006MOL0     C32693  13.464   7.449   2.643  1.1147 -0.4589 -0.3873
 1006MOL0     C32694  13.604   7.437   2.618 -0.0059 -0.7740 -0.7205
 1006MOL0     O32695  13.697   7.355   2.685  0.3048  0.1377  0.3294
 1006MOL0     C32696  13.670   7.317   2.822  0.1548 -0.2721 -0.2278
 1006MOL0     C32697  13.805   7.309   2.903  0.1098 -0.6159  0.0920
 1006MOL0     C32698  13.875   7.450   2.908 -0.1943 -0.9558 -1.2753
 1006MOL0     C32699  13.795   7.557   2.994 -0.7242 -0.2035  0.5143
 1006MOL0     C32700  13.888   7.661   3.083  0.8343  0.5640  0.4012
 1006MOL0     C32701  13.952   7.755   2.981 -0.2303 -0.0599  0.3664
 1006MOL0     C32702  14.077   7.813   3.052  0.2143  0.5066  0.0858
 1006MOL0     C32703  14.177   7.892   2.960 -0.2519  0.4375 -0.4989
 1006MOL0    Cl32704  14.269   8.016   3.055  0.0271 -0.2176  0.0694
 1006MOL0     C32705  13.671   7.511   2.516 -0.2960  1.3304 -0.5069
 1006MOL0     C32706  13.596   7.605   2.440  0.4702  1.5933  0.3904
 1006MOL0     O32707  13.367   7.517   2.216  0.5035  0.0822  0.6119
 1006MOL0     C32708  13.129   7.762   2.242  0.1099  0.4223  0.1844
 1006MOL0     C32709  13.056   7.844   2.162 -0.0018 -1.0897 -0.5220
 1006MOL0     N32710  12.448   8.032   1.970  0.4205  0.2508  0.3081
 1006MOL0     N32711  12.353   8.090   1.909  0.4769 -0.0557 -0.4068
 1006MOL0     C32712  11.343   7.956   2.510 -0.2027 -0.3050 -0.3401
 1006MOL0     C32713  11.225   7.939   2.580 -0.3656  0.3945  0.2483
 1006MOL0     C32714  10.802   7.773   2.663 -1.0491  0.3667 -0.2703
 1006MOL0     C32715  10.761   7.645   2.711 -0.4878 -0.3376 -1.1148
 1006MOL0     C32716  10.645   7.636   2.781  0.5578 -0.2079 -0.9999
 1006MOL0     C32717  10.569   7.751   2.808  0.2965 -1.6523 -0.6233
 1006MOL0     O32718  10.465   7.763   2.896 -1.3880 -0.4348 -0.4660
 1006MOL0     C32719  10.421   7.632   2.948  1.1146  0.9288  0.9633
 1006MOL0     C32720  10.284   7.655   3.017 -0.0390 -0.6700 -1.2464
 1006MOL0     C32721  10.168   7.669   2.913  0.5623  1.0659 -0.0288
 1006MOL0     C32722  10.039   7.712   2.978 -0.8905  0.4409  0.0544
 1006MOL0     C32723   9.977   7.603   3.047  0.9042  0.6062  0.1523
 1006MOL0     C32724   9.912   7.525   3.115  0.0631  0.7858  0.0392
 1006MOL0     C32725  10.608   7.875   2.761 -1.2111 -0.4140  0.1850
 1006MOL0     C32726  10.725   7.887   2.681 -0.4942  0.0591  0.3349
 1006MOL0     H32727  10.998   7.897   2.325  0.3145  0.8582 -0.1754
 1006MOL0     H32728  11.229   7.918   2.204  1.8051 -0.3443  0.3760
 1006MOL0     H32729  11.373   8.067   2.132 -0.0119 -0.7004 -0.6072
 1006MOL0     H32730  11.436   7.903   2.117  0.9147  0.6609 -0.9439
 1006MOL0     H32731  11.611   8.144   2.162  2.7230 -1.5743  1.0506
 1006MOL0     H32732  11.581   8.055   2.007  2.7142 -4.6919 -1.2779
 1006MOL0     H32733  11.690   7.846   2.147  0.1190 -0.2037 -0.9603
 1006MOL0     H32734  11.721   7.974   2.267 -0.4803  0.0939 -0.5834
 1006MOL0     H32735  11.911   7.923   2.106  1.7135  3.3153  0.0242
 1006MOL0     H32736  11.801   7.941   1.973  1.1998 -1.5423  0.6712
 1006MOL0     H32737  11.900   8.150   2.165 -0.2024 -1.5644  0.4335
 1006MOL0     H32738  11.805   8.194   2.029  1.3454 -0.9897 -2.7021
 1006MOL0     H32739  11.986   8.141   1.879  1.4940  4.0590 -1.5734
 1006MOL0     H32740  12.077   8.071   2.028  0.3208 -0.1547  0.3484
 1006MOL0     H32741  12.017   8.370   1.962 -0.2512  0.0169 -0.7129
 1006MOL0     H32742  12.083   8.303   2.112 -3.2921 -0.0814 -0.4418
 1006MOL0     H32743  12.243   8.394   1.915  1.4668 -0.0206 -1.1198
 1006MOL0     H32744  12.176   8.248   1.827  0.0377 -0.1053 -0.3789
 1006MOL0     H32745  12.390   8.310   2.145 -0.8863 -2.0522  2.2784
 1006MOL0     H32746  12.607   8.008   2.212 -2.8228 -1.3531 -1.8584
 1006MOL0     H32747  12.573   8.177   2.266  0.7642  2.5568 -1.6066
 1006MOL0     H32748  12.795   8.164   2.231  0.2606  3.1732 -0.0411
 1006MOL0     H32749  12.728   8.249   2.086  2.0028 -0.2727  0.0432
 1006MOL0     H32750  12.790   7.952   2.072 -0.0093  1.0326 -0.4348
 1006MOL0     H32751  12.760   8.062   1.930 -0.4800 -3.1574 -0.6732
 1006MOL0     H32752  13.000   8.093   2.109  0.6831 -0.9038  0.2432
 1006MOL0     H32753  12.959   8.169   1.949 -0.8032  0.7037 -0.9168
 1006MOL0     H32754  13.206   7.816   1.857  2.4928 -0.7227  0.0863
 1006MOL0     H32755  13.362   7.687   2.001 -0.1779 -0.1836  0.7593
 1006MOL0     H32756  13.287   7.550   2.579 -0.0371 -0.6047 -2.3953
 1006MOL0     H32757  13.421   7.409   2.734  1.0329 -1.3899 -0.8282
 1006MOL0     H32758  13.631   7.215   2.831 -1.5950  0.3247 -0.5702
 1006MOL0     H32759  13.602   7.388   2.869  1.4417  2.3801 -2.1178
 1006MOL0     H32760  13.868   7.234   2.853  1.3004  0.6022 -0.2745
 1006MOL0     H32761  13.770   7.287   3.004  0.1596  0.5880  0.3858
 1006MOL0     H32762  13.897   7.484   2.806  2.7495 -5.0086 -2.2595
 1006MOL0     H32763  13.969   7.430   2.960 -0.3569  1.2048 -0.0509
 1006MOL0     H32764  13.740   7.616   2.920  1.4878 -1.0275 -1.9696
 1006MOL0     H32765  13.738   7.498   3.066  2.2852 -2.8945  0.9533
 1006MOL0     H32766  13.947   7.603   3.154 -1.5054 -1.3265  0.9632
 1006MOL0     H32767  13.815   7.716   3.144 -1.2460  0.5934 -1.9243
 1006MOL0     H32768  13.883   7.833   2.948 -0.7122 -0.3789  0.6137
 1006MOL0     H32769  13.980   7.698   2.892 -0.5331 -0.2497  0.3885
 1006MOL0     H32770  14.035   7.889   3.118 -3.3309 -1.2566  0.0899
 1006MOL0     H32771  14.125   7.730   3.104 -1.5498 -3.0968 -3.4637
 1006MOL0     H32772  14.128   7.942   2.877  0.0432  0.1884 -0.8306
 1006MOL0     H32773  14.257   7.828   2.920 -1.5124 -0.4100 -1.7178
 1006MOL0     H32774  13.771   7.487   2.481 -1.6266 -1.8602 -2.5984
 1006MOL0     H32775  13.638   7.660   2.356  1.5404  1.7308  0.9969
 1006MOL0     H32776  13.090   7.739   2.340 -0.3157  0.1586 -0.0458
 1006MOL0     H32777  12.974   7.899   2.207  0.3496 -0.5855 -0.4846
 1006MOL0     H32778  11.437   7.983   2.556 -1.8999  1.0156  2.6512
 1006MOL0     H32779  11.228   7.919   2.687  0.4235 -1.4205 -0.0673
 1006MOL0     H32780  10.800   7.544   2.698 -1.2465 -0.4818 -2.3950
 1006MOL0     H32781  10.623   7.535   2.815  3.0380  0.0654  1.8756
 1006MOL0     H32782  10.491   7.591   3.021 -1.5989  0.8455  3.6983
 1006MOL0     H32783  10.397   7.555   2.874 -2.0753  0.3689  2.4361
 1006MOL0     H32784  10.265   7.577   3.091  0.6136 -1.7230 -2.1582
 1006MOL0     H32785  10.299   7.746   3.076  3.3131 -2.2430  0.6256
 1006MOL0     H32786  10.139   7.589   2.844 -1.7769  3.7270 -2.3903
 1006MOL0     H32787  10.203   7.754   2.853  1.0267  1.9832  1.4765
 1006MOL0     H32788  10.052   7.801   3.040  2.3407  1.4428 -1.7913
 1006MOL0     H32789   9.972   7.748   2.899  0.0494  0.7512 -0.6238
 1006MOL0     H32790   9.869   7.463   3.191  3.9323 -1.5558  0.5409
 1006MOL0     H32791  10.544   7.960   2.780 -0.9694 -0.0262 -0.7060
 1006MOL0     H32792  10.745   7.988   2.649 -2.2362  0.1765 -0.5151
 1007MOL0     O32793   6.597   7.375  10.551  0.3280  0.4929  0.1494
 1007MOL0     C32794   6.508   7.319  10.482  0.8402  0.0967  1.2840
 1007MOL0     O32795   6.520   7.232  10.378  0.9168 -0.5426 -0.1419
 1007MOL0     C32796   6.634   7.207  10.315  0.3578 -0.1651 -0.1015
 1007MOL0     C32797   6.765   7.218  10.377  0.4097  0.1536 -0.3216
 1007MOL0     C32798   6.884   7.185  10.301  0.1180  0.9138 -0.1440
 1007MOL0     C32799   6.868   7.124  10.173 -0.0939 -0.8337 -0.1171
 1007MOL0     O32800   6.979   7.086  10.104  0.3682 -0.0743 -0.1845
 1007MOL0     C32801   7.096   7.045  10.181 -1.0831  1.3577 -1.3636
 1007MOL0     C32802   7.177   6.950  10.102 -0.1689 -0.5501 -0.0997
 1007MOL0     C32803   7.230   6.853  10.214  0.5908 -0.0657  0.6550
 1007MOL0     C32804   7.359   6.799  10.160 -0.0628  0.3972 -0.5565
 1007MOL0     C32805   7.414   6.676  10.240 -0.4272 -0.8866 -0.7380
 1007MOL0     C32806   7.520   6.606  10.163  0.1824  0.3977 -0.0161
 1007MOL0     C32807   7.599   6.501  10.242  0.5626  0.0373  0.1181
 1007MOL0     C32808   7.512   6.403  10.305 -0.2354  0.8598 -0.4058
 1007MOL0     N32809   7.487   6.295  10.214 -0.5162  1.2780 -0.1751
 1007MOL0     C32810   7.372   6.301  10.136 -0.2314  0.5896  0.2095
 1007MOL0     C32811   7.364   6.178  10.078  0.5183  0.0399 -0.1904
 1007MOL0     C32812   7.244   6.115  10.006 -0.0466  0.2408  0.0873
 1007MOL0     C32813   7.189   5.992  10.078  0.0525 -1.2869  0.7394
 1007MOL0     C32814   7.122   6.023  10.219 -0.1065 -0.1588 -0.5185
 1007MOL0     C32815   7.068   5.892  10.280 -0.0734 -0.7670  0.1597
 1007MOL0     O32816   7.162   5.787  10.303 -0.6742  0.1723 -0.4807
 1007MOL0     C32817   7.222   5.808  10.428  0.0517  1.0788  0.4235
 1007MOL0     C32818   7.353   5.860  10.431  0.4966  0.3057  0.2775
 1007MOL0     C32819   7.419   5.871  10.558 -0.3406 -0.1424  0.0879
 1007MOL0     C32820   7.348   5.848  10.682  0.1203 -0.5584 -0.3430
 1007MOL0     C32821   7.422   5.865  10.811  0.0728 -0.2360 -0.0415
 1007MOL0     O32822   7.545   5.920  10.795 -0.1591  0.5735 -0.6888
 1007MOL0     C32823   7.621   5.951  10.905  0.0836 -0.0202  1.3758
 1007MOL0     C32824   7.589   6.055  10.988  0.1153 -0.2011  0.1837
 1007MOL0     C32825   7.672   6.087  11.091  0.5722 -0.5001 -0.1489
 1007MOL0     C32826   7.790   6.023  11.115 -0.0362 -0.6229  0.7633
 1007MOL0     O32827   7.864   6.060  11.226  0.3260  0.3894  0.0474
 1007MOL0     C32828   7.998   5.996  11.246 -1.1559  0.6612 -0.1274
 1007MOL0     C32829   8.073   6.083  11.359  0.1612 -0.1583  0.0678
 1007MOL0     C32830   8.074   6.232  11.328 -0.0415 -0.7542 -0.1801
 1007MOL0     C32831   8.177   6.300  11.422 -0.0889  0.5181 -0.7424
 1007MOL0     C32832   8.142   6.449  11.428  1.2417  0.5822  0.3791
 1007MOL0     C32833   8.245   6.527  11.513  1.2501 -0.6504  0.0523
 1007MOL0     C32834   8.203   6.674  11.522  0.5463 -0.1786  1.6329
 1007MOL0     C32835   8.141   6.726  11.382  0.1503 -0.5126  0.0641
 1007MOL0    Cl32836   8.164   6.899  11.364 -0.0301  0.2678  0.3900
 1007MOL0     C32837   7.818   5.914  11.019 -0.9479 -0.6508  0.5981
 1007MOL0     C32838   7.738   5.881  10.914  1.0525 -0.1626  0.8221
 1007MOL0     O32839   7.374   5.825  10.914  0.1897 -0.7140 -0.5595
 1007MOL0     C32840   7.213   5.813  10.671 -0.2817 -0.3562 -0.6551
 1007MOL0     C32841   7.155   5.785  10.550 -0.1126 -0.5214 -0.0361
 1007MOL0     N32842   7.490   6.110  10.116  1.1795 -0.8503  0.2251
 1007MOL0     N32843   7.562   6.186  10.190  0.0986  0.3807  0.5253
 1007MOL0     C32844   6.742   7.110  10.120 -0.3203 -0.3490  0.8454
 1007MOL0     C32845   6.630   7.142  10.185  0.1192 -0.6250 -0.8994
 1007MOL0     C32846   6.380   7.369  10.511  0.2835  0.6603 -0.5076
 1007MOL0     C32847   6.268   7.301  10.465 -0.2082 -0.2746  0.6677
 1007MOL0     C32848   6.143   7.352  10.486  0.6517  0.2346 -0.5824
 1007MOL0     C32849   6.118   7.475  10.548 -0.1081 -1.0266 -0.1258
 1007MOL0     O32850   5.990   7.514  10.568 -0.1487  0.5347 -0.7372
 1007MOL0     C32851   5.952   7.583  10.682  0.4470  0.5738 -0.9202
 1007MOL0     C32852   5.992   7.529  10.823 -1.2695  0.0934  0.0443
 1007MOL0     C32853   5.904   7.614  10.922 -0.0780  0.0188  0.8448
 1007MOL0     C32854   5.936   7.588  11.069  0.0547 -0.6177  0.6456
 1007MOL0     C32855   5.887   7.455  11.108  0.1476  0.4116  0.9389
 1007MOL0     C32856   5.843   7.346  11.137  0.9056 -0.1985 -0.6246
 1007MOL0     C32857   6.228   7.548  10.585 -0.1897 -0.5573 -0.6977
 1007MOL0     C32858   6.359   7.497  10.572  0.0193  0.5017  0.3873
 1007MOL0     H32859   6.768   7.250  10.480  0.9933  0.2278 -0.3579
 1007MOL0     H32860   6.979   7.210  10.348  0.2263  4.4352 -1.9286
 1007MOL0     H32861   7.064   6.997  10.274  3.5036 -0.7329 -0.5859
 1007MOL0     H32862   7.163   7.125  10.214  0.8076 -0.0922 -1.4942
 1007MOL0     H32863   7.262   6.999  10.054 -0.7551 -0.6575 -1.2892
 1007MOL0     H32864   7.121   6.901  10.022 -0.3231  1.1987 -1.1132
 1007MOL0     H32865   7.159   6.771  10.228 -0.6884  0.9623  0.3944
 1007MOL0     H32866   7.235   6.910  10.307 -0.8717  0.2377  0.5732
 1007MOL0     H32867   7.353   6.764  10.057  3.3918 -0.1201 -0.6923
 1007MOL0     H32868   7.440   6.873  10.163 -0.1343  0.4652  1.8071
 1007MOL0     H32869   7.328   6.615  10.268  0.0330 -0.8138  0.9367
 1007MOL0     H32870   7.457   6.713  10.334 -1.4689 -1.7464  0.0987
 1007MOL0     H32871   7.594   6.676  10.125 -0.9635  1.1676 -0.9062
 1007MOL0     H32872   7.471   6.571  10.071 -0.7751  2.5435 -0.3761
 1007MOL0     H32873   7.687   6.456  10.196  1.7190  0.6484  1.6433
 1007MOL0     H32874   7.641   6.559  10.325 -0.9103  0.8685  0.3195
 1007MOL0     H32875   7.416   6.442  10.342 -1.4335 -3.5704  1.8156
 1007MOL0     H32876   7.560   6.353  10.390 -0.5077 -0.3649 -0.9488
 1007MOL0     H32877   7.285   6.366  10.137 -0.2990  0.5135  1.7682
 1007MOL0     H32878   7.269   6.096   9.902  2.4967 -3.8086  1.1949
 1007MOL0     H32879   7.173   6.198  10.000  0.7427  0.8618 -1.0117
 1007MOL0     H32880   7.267   5.917  10.092  2.2093  0.9895  1.8203
 1007MOL0     H32881   7.113   5.949  10.012  1.1523 -0.7145 -0.9686
 1007MOL0     H32882   7.197   6.058  10.290 -0.7623 -4.0398  2.3593
 1007MOL0     H32883   7.043   6.100  10.224  1.1587  1.0798  1.8858
 1007MOL0     H32884   6.988   5.856  10.214 -0.2187  0.3858 -0.3068
 1007MOL0     H32885   7.016   5.927  10.369 -0.8332  0.9698 -0.9217
 1007MOL0     H32886   7.404   5.872  10.336  1.6115 -3.8484  0.1902
 1007MOL0     H32887   7.516   5.918  10.558 -0.0893 -0.6304  1.1627
 1007MOL0     H32888   7.490   6.098  10.972 -0.1618 -0.3745  1.3293
 1007MOL0     H32889   7.642   6.166  11.159  1.0077 -0.7842  0.3892
 1007MOL0     H32890   8.065   5.987  11.160 -1.0678  0.8935 -0.0817
 1007MOL0     H32891   7.993   5.896  11.291  0.1944  0.5960 -0.0779
 1007MOL0     H32892   8.176   6.045  11.358  0.3056  0.1366 -2.4880
 1007MOL0     H32893   8.024   6.071  11.456 -2.7215 -0.0115 -1.2628
 1007MOL0     H32894   7.971   6.266  11.340 -0.2904 -0.6608 -2.2995
 1007MOL0     H32895   8.115   6.253  11.229 -1.4264  0.1254 -0.5931
 1007MOL0     H32896   8.168   6.250  11.519 -0.4013 -2.3331 -2.1533
 1007MOL0     H32897   8.279   6.288  11.386  1.0688 -0.9381  2.6079
 1007MOL0     H32898   8.045   6.456  11.477  0.7570 -2.4737  0.0299
 1007MOL0     H32899   8.138   6.485  11.325 -0.6355 -0.2675  0.1306
 1007MOL0     H32900   8.350   6.529  11.483  0.9468  0.7490 -1.0391
 1007MOL0     H32901   8.243   6.479  11.611  2.5368 -2.3443 -0.6874
 1007MOL0     H32902   8.127   6.701  11.596  0.6700  0.8164  1.4100
 1007MOL0     H32903   8.288   6.731  11.561 -0.3646 -0.9255  5.0444
 1007MOL0     H32904   8.034   6.700  11.383  0.1177 -0.4374  2.3381
 1007MOL0     H32905   8.199   6.689  11.297  0.4601 -0.8226  0.4072
 1007MOL0     H32906   7.906   5.852  11.032 -0.4905 -0.1660 -0.0708
 1007MOL0     H32907   7.754   5.799  10.845  0.1395  0.4116 -0.0998
 1007MOL0     H32908   7.154   5.813  10.762  2.0132  0.2035  0.9369
 1007MOL0     H32909   7.051   5.755  10.542  0.5574 -2.5279 -4.0798
 1007MOL0     H32910   6.727   7.075  10.019 -0.4212 -0.6426  0.9625
 1007MOL0     H32911   6.534   7.146  10.136 -0.8079 -1.4190  0.7709
 1007MOL0     H32912   6.280   7.211  10.405  1.9518  0.1440  0.4172
 1007MOL0     H32913   6.046   7.307  10.466 -0.8619  3.3477 -0.8389
 1007MOL0     H32914   5.844   7.572  10.668  0.2704  1.3013 -0.1744
 1007MOL0     H32915   5.981   7.688  10.679 -0.8683  1.1453  2.2595
 1007MOL0     H32916   5.966   7.423  10.827 -4.0015  0.6996  1.2250
 1007MOL0     H32917   6.098   7.534  10.847 -1.0026 -1.2283 -0.7587
 1007MOL0     H32918   5.799   7.585  10.913 -0.7110  0.4786  4.8323
 1007MOL0     H32919   5.909   7.722  10.904  3.1663 -0.1261  0.3108
 1007MOL0     H32920   6.043   7.582  11.092 -0.2534 -3.7528  1.7597
 1007MOL0     H32921   5.901   7.670  11.131  0.9595  0.2631  0.0410
 1007MOL0     H32922   5.799   7.252  11.162 -0.9744  1.0873  1.2900
 1007MOL0     H32923   6.213   7.638  10.645 -1.5456 -0.0005 -1.8357
 1007MOL0     H32924   6.450   7.550  10.600  0.1962  1.5349 -1.9185
 1008MOL0     O32925   3.604   9.726   5.050  0.5475  0.1167  1.0392
 1008MOL0     C32926   3.676   9.722   5.143  0.2511 -0.4153 -0.7365
 1008MOL0     O32927   3.662   9.655   5.268  0.2160 -0.1535 -0.1919
 1008MOL0     C32928   3.580   9.543   5.271  0.3116 -0.4392  0.4226
 1008MOL0     C32929   3.551   9.463   5.159  0.0122  0.6816 -0.0741
 1008MOL0     C32930   3.473   9.345   5.169 -0.7074  0.7068  0.0890
 1008MOL0     C32931   3.407   9.318   5.287 -0.3533 -1.2414 -0.4385
 1008MOL0     O32932   3.304   9.227   5.280 -0.3802 -0.4497 -0.7001
 1008MOL0     C32933   3.299   9.112   5.374 -0.7324 -0.1097 -0.4892
 1008MOL0     C32934   3.383   8.993   5.330 -1.0951  0.3281  0.1996
 1008MOL0     C32935   3.382   8.876   5.418 -0.9754  0.3698 -0.2268
 1008MOL0     C32936   3.441   8.750   5.342  0.5769  0.2292 -0.1649
 1008MOL0     C32937   3.430   8.624   5.426 -0.2131 -1.2600  0.0858
 1008MOL0     C32938   3.472   8.502   5.343  0.9374 -0.8917 -0.6587
 1008MOL0     C32939   3.446   8.372   5.418  1.4105  0.7415 -0.5923
 1008MOL0     C32940   3.475   8.254   5.322 -0.0787  0.6260 -0.3867
 1008MOL0     N32941   3.398   8.266   5.202  0.1728 -0.7651  0.1278
 1008MOL0     C32942   3.258   8.276   5.198 -0.5458  0.4633 -0.4071
 1008MOL0     C32943   3.242   8.292   5.060 -0.5060 -0.3106  0.2739
 1008MOL0     C32944   3.106   8.311   4.989  0.1456 -0.5059  0.6429
 1008MOL0     C32945   3.091   8.470   4.947  0.2037 -0.2648  0.5957
 1008MOL0     C32946   2.969   8.483   4.851  0.2660  0.2033  0.4049
 1008MOL0     C32947   2.833   8.460   4.911  0.7785  0.2679  0.2316
 1008MOL0     O32948   2.817   8.529   5.036  0.4885  0.6668 -0.2372
 1008MOL0     C32949   2.696   8.499   5.094  0.1571 -0.4190 -1.2748
 1008MOL0     C32950   2.603   8.596   5.117 -1.1246  0.2132  0.2758
 1008MOL0     C32951   2.486   8.583   5.174 -0.7582 -0.8224  0.0906
 1008MOL0     C32952   2.441   8.457   5.212 -0.1233  0.7838 -0.9763
 1008MOL0     C32953   2.310   8.429   5.271  0.5344 -0.2676 -0.4240
 1008MOL0     O32954   2.262   8.302   5.262  0.3841 -0.9519 -0.3052
 1008MOL0     C32955   2.135   8.289   5.313  0.0035 -0.0767 -0.5012
 1008MOL0     C32956   2.108   8.224   5.436 -0.1296 -0.2440 -0.7128
 1008MOL0     C32957   1.980   8.203   5.490 -0.2314  0.7668 -1.0937
 1008MOL0     C32958   1.869   8.237   5.411  0.3022 -0.0292  0.7378
 1008MOL0     O32959   1.753   8.199   5.463  0.2647 -0.6526  0.5180
 1008MOL0     C32960   1.634   8.174   5.383  0.6650 -0.0811 -0.1526
 1008MOL0     C32961   1.519   8.162   5.484  0.2377  0.2705 -0.2111
 1008MOL0     C32962   1.507   8.015   5.522  0.3506  0.5591  0.5788
 1008MOL0     C32963   1.422   8.002   5.646  0.4951  0.6418 -0.9614
 1008MOL0     C32964   1.388   7.863   5.677  0.5495 -0.0259 -0.1001
 1008MOL0     C32965   1.343   7.833   5.817  0.9419  0.0997 -0.2624
 1008MOL0     C32966   1.263   7.699   5.826 -0.9728 -0.5736  0.3528
 1008MOL0     C32967   1.235   7.646   5.965  1.0610 -0.0856 -0.0837
 1008MOL0    Cl32968   1.139   7.765   6.053 -0.4099 -0.2533  0.4258
 1008MOL0     C32969   1.892   8.294   5.285 -0.6859  0.0112  1.1291
 1008MOL0     C32970   2.019   8.316   5.233  0.6237  1.1269 -0.4499
 1008MOL0     O32971   2.249   8.527   5.310  1.0708  0.2351  0.3129
 1008MOL0     C32972   2.528   8.349   5.197 -0.3276 -0.3691  0.1831
 1008MOL0     C32973   2.658   8.366   5.143 -0.5661 -1.0663 -0.4239
 1008MOL0     N32974   3.358   8.296   4.995  0.1926 -0.3394 -0.0880
 1008MOL0     N32975   3.457   8.276   5.080 -0.9891  0.4434 -0.1699
 1008MOL0     C32976   3.433   9.401   5.398  0.4985  0.4961  0.2205
 1008MOL0     C32977   3.522   9.502   5.393 -0.1639  0.7923  0.5365
 1008MOL0     C32978   3.783   9.819   5.145 -0.1223 -0.3396  0.6486
 1008MOL0     C32979   3.917   9.780   5.179  0.2338  0.1083  0.6198
 1008MOL0     C32980   4.023   9.869   5.207 -0.9539  0.0901 -0.3564
 1008MOL0     C32981   3.997  10.003   5.180  0.3899 -0.0691 -0.3628
 1008MOL0     O32982   4.103  10.095   5.182 -0.4111 -0.6730  0.5183
 1008MOL0     C32983   4.079  10.232   5.127 -0.0071 -0.4663  0.7531
 1008MOL0     C32984   4.222  10.282   5.088 -0.6309  0.1822  0.6836
 1008MOL0     C32985   4.220  10.428   5.034  0.4773 -0.5482  1.0845
 1008MOL0     C32986   4.355  10.457   4.955  0.1748  0.2488 -0.4083
 1008MOL0     C32987   4.480  10.436   5.024 -0.2965  0.3851 -0.6532
 1008MOL0     C32988   4.575  10.425   5.096 -0.9099  0.7464  0.4770
 1008MOL0     C32989   3.867  10.049   5.142  0.3230  0.2247  0.0389
 1008MOL0     C32990   3.755   9.959   5.138  0.1895 -0.2359  1.3349
 1008MOL0     H32991   3.599   9.482   5.063  0.9576 -2.2493 -0.2920
 1008MOL0     H32992   3.447   9.289   5.079  3.5833 -0.8070 -0.4603
 1008MOL0     H32993   3.201   9.063   5.369 -2.0968  2.4921 -0.6931
 1008MOL0     H32994   3.322   9.143   5.476 -0.2184  2.7901 -1.3931
 1008MOL0     H32995   3.483   9.037   5.326 -0.3759 -1.1716  1.0741
 1008MOL0     H32996   3.353   8.965   5.229 -0.2502  3.3804 -1.0034
 1008MOL0     H32997   3.279   8.853   5.446 -0.2059  0.3389  3.0462
 1008MOL0     H32998   3.447   8.898   5.503  0.9773  0.1384 -1.5896
 1008MOL0     H32999   3.395   8.732   5.244 -0.3280 -0.8710  0.4428
 1008MOL0     H33000   3.547   8.777   5.336  0.8078 -0.5471  0.2836
 1008MOL0     H33001   3.329   8.607   5.465 -0.4168 -2.1170 -0.7739
 1008MOL0     H33002   3.504   8.633   5.506  0.8616 -1.5131 -0.8395
 1008MOL0     H33003   3.580   8.513   5.327  0.5874 -1.0495 -3.8374
 1008MOL0     H33004   3.427   8.502   5.243  2.1642  0.4394 -1.2564
 1008MOL0     H33005   3.523   8.358   5.496  1.1441  1.6775 -0.1493
 1008MOL0     H33006   3.343   8.360   5.453  0.3732  0.1951 -3.5630
 1008MOL0     H33007   3.431   8.165   5.367 -0.6156  1.0005 -0.1690
 1008MOL0     H33008   3.580   8.243   5.295 -1.1441 -1.3930 -4.5929
 1008MOL0     H33009   3.195   8.259   5.285  0.5827  1.2639  0.5972
 1008MOL0     H33010   3.022   8.280   5.052 -0.6195 -1.1571 -0.6752
 1008MOL0     H33011   3.099   8.256   4.895  0.6812 -1.2866  1.0528
 1008MOL0     H33012   3.180   8.501   4.893 -1.5582  1.3066 -1.5967
 1008MOL0     H33013   3.070   8.539   5.029  0.6299  1.4392 -0.6825
 1008MOL0     H33014   2.954   8.586   4.818  1.1551  0.3043  0.2815
 1008MOL0     H33015   2.995   8.424   4.763  0.8075 -2.0088  1.9596
 1008MOL0     H33016   2.807   8.354   4.915 -0.7553  0.4330 -2.5946
 1008MOL0     H33017   2.759   8.493   4.837  0.4928  0.1062  0.4391
 1008MOL0     H33018   2.650   8.692   5.098 -1.1372  0.0689 -0.4993
 1008MOL0     H33019   2.421   8.668   5.193 -0.5086 -0.8875  1.3190
 1008MOL0     H33020   2.187   8.179   5.495  1.0534  1.9865 -0.5094
 1008MOL0     H33021   1.963   8.145   5.580 -0.4150 -0.2543 -1.7664
 1008MOL0     H33022   1.654   8.080   5.330 -3.5418 -1.1361 -0.2179
 1008MOL0     H33023   1.604   8.239   5.300 -0.9250 -0.2474  0.2634
 1008MOL0     H33024   1.422   8.194   5.444 -1.5996 -0.9414  2.9347
 1008MOL0     H33025   1.534   8.223   5.573 -2.3125  2.3783 -1.1032
 1008MOL0     H33026   1.611   7.989   5.543  0.8081  3.0899  1.7717
 1008MOL0     H33027   1.471   7.955   5.438  1.1182  0.9669 -0.0619
 1008MOL0     H33028   1.465   8.055   5.731  1.8001 -1.0344 -0.5190
 1008MOL0     H33029   1.328   8.051   5.619  2.0526  2.9350 -2.5998
 1008MOL0     H33030   1.475   7.799   5.658 -0.9692 -2.4693  0.6885
 1008MOL0     H33031   1.323   7.824   5.598 -3.4446  0.0890  2.8319
 1008MOL0     H33032   1.264   7.902   5.846  0.7422  0.1654 -0.9424
 1008MOL0     H33033   1.421   7.837   5.894 -0.3056 -0.5003  1.0755
 1008MOL0     H33034   1.171   7.722   5.770 -0.1885 -2.1438 -1.7076
 1008MOL0     H33035   1.329   7.628   5.775 -1.8108 -0.8788 -0.3349
 1008MOL0     H33036   1.330   7.613   6.008 -0.2026 -3.3570  0.5182
 1008MOL0     H33037   1.193   7.547   5.946  1.1038  0.2937 -2.5178
 1008MOL0     H33038   1.826   8.297   5.199 -0.4386 -1.6763  0.8628
 1008MOL0     H33039   2.022   8.369   5.139 -0.2089  1.3578 -0.3582
 1008MOL0     H33040   2.509   8.243   5.211  2.4202 -0.6671  2.5938
 1008MOL0     H33041   2.727   8.288   5.112 -1.4150 -0.3373 -4.8102
 1008MOL0     H33042   3.373   9.396   5.489  0.0917  0.9036 -0.0233
 1008MOL0     H33043   3.544   9.546   5.490 -2.9489 -0.8492  2.0478
 1008MOL0     H33044   3.929   9.673   5.191 -3.5103 -0.8165 -1.8120
 1008MOL0     H33045   4.127   9.853   5.231 -0.6387  1.3336 -0.8064
 1008MOL0     H33046   4.039  10.298   5.204  0.1288 -0.4692  0.8279
 1008MOL0     H33047   4.010  10.223   5.042  1.4814  1.7832 -0.8102
 1008MOL0     H33048   4.290  10.281   5.174  0.2929  2.6854  0.0728
 1008MOL0     H33049   4.255  10.213   5.009 -2.2589  0.0188  0.0982
 1008MOL0     H33050   4.204  10.495   5.119 -4.4855  0.6106 -0.4479
 1008MOL0     H33051   4.136  10.429   4.964 -0.9660  1.0965  2.7464
 1008MOL0     H33052   4.353  10.393   4.866 -2.2358  2.5158 -2.1629
 1008MOL0     H33053   4.356  10.556   4.908  0.3170 -0.2166 -1.4194
 1008MOL0     H33054   4.658  10.396   5.157  1.4806  1.3510 -2.2324
 1008MOL0     H33055   3.842  10.154   5.135 -0.1887  0.2720  1.9890
 1008MOL0     H33056   3.656  10.002   5.126 -0.4017 -0.6701  4.0317
 1009MOL0     O33057   1.323  10.944   3.182  0.3345  1.0536 -0.4483
 1009MOL0     C33058   1.215  10.961   3.245  0.0737  0.9830  0.4532
 1009MOL0     O33059   1.098  10.958   3.189  0.1757  0.0698 -0.3401
 1009MOL0     C33060   1.075  11.004   3.060 -0.2120 -0.4137 -0.7703
 1009MOL0     C33061   1.109  10.922   2.950 -0.7399  0.3999 -0.0147
 1009MOL0     C33062   1.074  10.958   2.822  0.4806 -0.4170  0.1301
 1009MOL0     C33063   1.006  11.080   2.803  0.6851 -0.0147  1.0387
 1009MOL0     O33064   0.989  11.123   2.676  0.0320 -0.0508 -0.1702
 1009MOL0     C33065   0.959  11.023   2.586 -0.8614 -0.3586  0.8413
 1009MOL0     C33066   0.980  11.080   2.445  0.1145  0.0551  0.9805
 1009MOL0     C33067   1.128  11.108   2.422 -0.6015  0.5117 -0.2335
 1009MOL0     C33068   1.150  11.178   2.294 -0.1408  0.3761  0.6230
 1009MOL0     C33069   1.101  11.104   2.173 -0.5851 -0.0710  0.2856
 1009MOL0     C33070   1.161  11.151   2.042 -0.5836  0.6979 -0.5337
 1009MOL0     C33071   1.096  11.065   1.930 -0.4722 -0.9969  0.3048
 1009MOL0     C33072   1.166  10.927   1.915  0.7786  0.8644 -0.4499
 1009MOL0     N33073   1.150  10.876   1.779  0.3836  1.0625 -0.5889
 1009MOL0     C33074   1.033  10.844   1.725 -0.1364 -0.3235 -0.3668
 1009MOL0     C33075   1.060  10.803   1.600 -0.4271  0.9270 -0.0225
 1009MOL0     C33076   0.971  10.742   1.495 -0.5896 -0.4709  0.0451
 1009MOL0     C33077   0.852  10.835   1.455  0.2250 -0.7570 -0.1097
 1009MOL0     C33078   0.761  10.770   1.348  0.1034 -0.3160 -0.5499
 1009MOL0     C33079   0.831  10.743   1.213 -0.5096 -0.2512  0.3310
 1009MOL0     O33080   0.756  10.685   1.110  0.2056 -0.2867 -0.6532
 1009MOL0     C33081   0.673  10.763   1.039 -0.9477 -0.2141 -0.5002
 1009MOL0     C33082   0.647  10.904   1.067  0.4409 -1.0739  0.8532
 1009MOL0     C33083   0.548  10.968   0.987  0.4567 -0.3011 -0.1198
 1009MOL0     C33084   0.484  10.902   0.881 -0.2255  0.0598  1.4022
 1009MOL0     C33085   0.389  10.978   0.801 -0.3495  0.3123  0.5727
 1009MOL0     O33086   0.311  10.909   0.716  0.3375  0.0876 -0.3512
 1009MOL0     C33087   0.236  10.998   0.635 -1.1254 -0.0678 -0.0097
 1009MOL0     C33088   0.125  11.072   0.683 -0.7664 -0.0527  0.5850
 1009MOL0     C33089   0.076  11.167   0.599 -0.5894 -0.0132  1.0234
 1009MOL0     C33090   0.140  11.209   0.477  0.4627  0.6582 -0.9421
 1009MOL0     O33091   0.080  11.312   0.406  0.1110  0.1680  0.8824
 1009MOL0     C33092  -0.011  11.409   0.461  0.1963  1.3058 -0.9606
 1009MOL0     C33093  -0.028  11.546   0.385 -0.4062  0.7827 -0.3520
 1009MOL0     C33094  -0.099  11.519   0.258  0.0202  0.0702  0.2189
 1009MOL0     C33095  -0.144  11.654   0.199  0.1333 -0.5026  1.1716
 1009MOL0     C33096  -0.212  11.629   0.067  0.5314 -0.1814  0.0630
 1009MOL0     C33097  -0.358  11.559   0.059 -0.3140 -0.4796  0.5177
 1009MOL0     C33098  -0.480  11.636   0.114  0.4314 -0.6435  1.4322
 1009MOL0     C33099  -0.537  11.742   0.024  0.3503 -0.4697  0.0681
 1009MOL0    Cl33100  -0.550  11.688  -0.161 -0.3968  0.4370  0.2518
 1009MOL0     C33101   0.238  11.119   0.428 -0.3028  0.4955 -1.0345
 1009MOL0     C33102   0.295  11.021   0.510  0.5169  0.0631  0.3207
 1009MOL0     O33103   0.394  11.098   0.817 -0.1092 -1.3097 -1.1940
 1009MOL0     C33104   0.491  10.761   0.881  0.3499 -0.2404 -0.3971
 1009MOL0     C33105   0.587  10.701   0.955 -0.2957  0.1120  0.5779
 1009MOL0     N33106   1.195  10.821   1.572 -0.3492 -0.5223  0.2057
 1009MOL0     N33107   1.248  10.859   1.679  0.7383 -0.1636  0.0421
 1009MOL0     C33108   0.952  11.156   2.911  0.4313 -0.2537  0.3312
 1009MOL0     C33109   0.994  11.113   3.041  0.1115 -0.2530 -0.5754
 1009MOL0     C33110   1.210  10.956   3.387  0.3737  0.3895 -0.9587
 1009MOL0     C33111   1.096  11.003   3.454  0.3639  0.2127 -0.4112
 1009MOL0     C33112   1.086  11.032   3.594 -0.4630  0.2492 -0.3049
 1009MOL0     C33113   1.201  11.013   3.670  0.2218  0.5295  0.5971
 1009MOL0     O33114   1.183  11.040   3.799  0.1774 -0.1025 -0.0799
 1009MOL0     C33115   1.292  11.003   3.881  0.3625 -0.7586 -0.6995
 1009MOL0     C33116   1.239  11.017   4.038 -0.1411  0.8983  0.8416
 1009MOL0     C33117   1.363  11.023   4.130 -0.1068 -0.9294 -0.1932
 1009MOL0     C33118   1.391  11.174   4.149  0.6969 -0.6424 -0.5111
 1009MOL0     C33119   1.518  11.204   4.217  0.3101 -0.0775 -0.4599
 1009MOL0     C33120   1.623  11.221   4.273 -0.2366  0.2277 -0.4813
 1009MOL0     C33121   1.317  10.958   3.610 -0.9131 -1.0137  0.1464
 1009MOL0     C33122   1.321  10.937   3.469 -0.4770 -0.0688  1.0752
 1009MOL0     H33123   1.161  10.829   2.970 -2.0604 -0.6942 -1.4495
 1009MOL0     H33124   1.101  10.876   2.757 -1.4419 -1.6439  0.8215
 1009MOL0     H33125   0.853  10.999   2.594 -1.1606  0.6782  0.2014
 1009MOL0     H33126   1.022  10.933   2.582  1.1567  1.0225 -0.5156
 1009MOL0     H33127   0.909  11.161   2.427 -1.2973 -1.5177 -1.0489
 1009MOL0     H33128   0.940  11.009   2.371 -2.2194  0.5439  1.6754
 1009MOL0     H33129   1.164  11.005   2.434 -0.5867  0.6045  0.5638
 1009MOL0     H33130   1.168  11.170   2.503  0.5037 -3.1500  2.2732
 1009MOL0     H33131   1.080  11.263   2.299  1.5352  1.9282 -0.8777
 1009MOL0     H33132   1.251  11.216   2.283 -0.5007  0.7572 -2.3367
 1009MOL0     H33133   0.992  11.105   2.174 -0.7848 -3.6487 -1.7532
 1009MOL0     H33134   1.139  11.003   2.190  1.5806  0.6158 -0.1241
 1009MOL0     H33135   1.271  11.147   2.040 -0.5919 -1.2627  0.3565
 1009MOL0     H33136   1.138  11.257   2.035 -0.2585  1.0325  2.3835
 1009MOL0     H33137   0.990  11.063   1.954 -0.9811  1.7419 -1.2518
 1009MOL0     H33138   1.102  11.119   1.834 -1.9164  0.0014  0.7394
 1009MOL0     H33139   1.117  10.864   1.989 -0.9559 -0.7569 -2.8068
 1009MOL0     H33140   1.262  10.916   1.966 -1.6172 -1.0943  4.2085
 1009MOL0     H33141   0.937  10.856   1.775  1.6363  1.5691  3.0053
 1009MOL0     H33142   0.939  10.645   1.532 -2.0401  0.1353  0.4592
 1009MOL0     H33143   1.034  10.723   1.408 -0.5983  0.1832 -0.1129
 1009MOL0     H33144   0.903  10.926   1.423  1.0676 -0.8968  0.7916
 1009MOL0     H33145   0.784  10.869   1.534  0.3596  1.6245 -0.9495
 1009MOL0     H33146   0.703  10.684   1.385 -1.1406  2.4563  4.9723
 1009MOL0     H33147   0.678  10.840   1.335  0.3334 -0.4874 -4.1271
 1009MOL0     H33148   0.909  10.669   1.235  1.0609  0.9297 -1.0532
 1009MOL0     H33149   0.870  10.841   1.185 -0.2375  0.4456  2.8922
 1009MOL0     H33150   0.706  10.959   1.140  3.1031 -1.3562 -0.9449
 1009MOL0     H33151   0.520  11.071   1.004 -3.6784 -0.7880 -2.6322
 1009MOL0     H33152   0.095  11.069   0.787  1.2195  1.5092  1.2852
 1009MOL0     H33153  -0.010  11.224   0.632 -0.7127 -0.5617  1.6606
 1009MOL0     H33154   0.016  11.430   0.565 -1.9844  0.0683 -0.0754
 1009MOL0     H33155  -0.103  11.354   0.480  1.5323 -1.4205 -1.7462
 1009MOL0     H33156   0.070  11.593   0.370  0.1504  1.6666  4.3383
 1009MOL0     H33157  -0.081  11.618   0.448  0.1001  1.0043 -0.1707
 1009MOL0     H33158  -0.180  11.446   0.266  0.0983 -0.0158  0.2175
 1009MOL0     H33159  -0.019  11.479   0.196  1.8577  3.7936 -0.0657
 1009MOL0     H33160  -0.203  11.706   0.275  1.8976  1.6736  1.1247
 1009MOL0     H33161  -0.063  11.723   0.177 -1.4347  0.9246 -0.5185
 1009MOL0     H33162  -0.145  11.559   0.016 -0.7342 -1.9303  0.6740
 1009MOL0     H33163  -0.203  11.729   0.025  1.3695 -0.3235 -0.1098
 1009MOL0     H33164  -0.341  11.465   0.113  0.6547 -1.8534 -1.9901
 1009MOL0     H33165  -0.374  11.525  -0.044  1.5702 -0.6431  0.2271
 1009MOL0     H33166  -0.567  11.571   0.129 -0.1705 -0.3720 -0.5598
 1009MOL0     H33167  -0.453  11.673   0.213 -1.7734  2.3238  1.0837
 1009MOL0     H33168  -0.487  11.839   0.031 -0.0387 -0.3268  1.0764
 1009MOL0     H33169  -0.635  11.770   0.064  1.3568  0.2096  2.1751
 1009MOL0     H33170   0.267  11.136   0.325 -2.9990  4.6870 -1.3124
 1009MOL0     H33171   0.378  10.958   0.479 -0.5162 -1.2204  0.0321
 1009MOL0     H33172   0.424  10.699   0.823 -0.1837 -1.1679  1.1254
 1009MOL0     H33173   0.597  10.596   0.931 -3.8764 -0.1072 -0.5674
 1009MOL0     H33174   0.905  11.253   2.900  2.3338  1.0204  2.5383
 1009MOL0     H33175   0.965  11.160   3.134 -0.9866  1.3737 -1.6704
 1009MOL0     H33176   1.005  10.998   3.394  0.0830 -3.7758  0.0951
 1009MOL0     H33177   1.000  11.062   3.654  2.5279  2.9387  3.0663
 1009MOL0     H33178   1.381  11.061   3.855  0.1488 -1.7553 -4.0434
 1009MOL0     H33179   1.312  10.899   3.855  0.7951 -0.7292 -0.4988
 1009MOL0     H33180   1.175  11.103   4.056 -3.1642 -1.4236  1.9977
 1009MOL0     H33181   1.190  10.925   4.073  2.1216 -0.8417 -0.2522
 1009MOL0     H33182   1.447  10.960   4.100  1.9613  2.5938 -2.5692
 1009MOL0     H33183   1.337  10.995   4.233  2.3031 -1.8597  0.2241
 1009MOL0     H33184   1.397  11.230   4.056 -0.7397 -3.5236 -2.5017
 1009MOL0     H33185   1.301  11.204   4.205  0.9239 -2.7444  1.0944
 1009MOL0     H33186   1.714  11.239   4.327 -0.8505 -0.3927  0.8014
 1009MOL0     H33187   1.412  10.948   3.663 -1.1036 -0.6392  0.5723
 1009MOL0     H33188   1.407  10.899   3.416 -2.1966 -0.3081 -1.7252
 1010MOL0     O33189   6.636   7.394   8.468  1.1915  0.1519 -0.5135
 1010MOL0     C33190   6.747   7.380   8.428 -0.3020 -0.6896 -0.9601
 1010MOL0     O33191   6.862   7.427   8.494 -0.0158  0.6872  0.4719
 1010MOL0     C33192   6.835   7.486   8.612 -0.1374  0.7821 -0.1351
 1010MOL0     C33193   6.840   7.419   8.740 -0.5572 -1.2621  0.1326
 1010MOL0     C33194   6.833   7.510   8.850  0.0105 -0.1825 -0.1852
 1010MOL0     C33195   6.815   7.652   8.827 -0.5180 -0.7160  0.5018
 1010MOL0     O33196   6.791   7.731   8.942 -0.6453  0.1734 -0.5693
 1010MOL0     C33197   6.865   7.855   8.949 -0.2979  0.4454  0.4435
 1010MOL0     C33198   6.968   7.876   9.067 -0.7925 -0.5054  0.6388
 1010MOL0     C33199   7.049   7.754   9.116  1.0712 -0.2056  0.3087
 1010MOL0     C33200   6.973   7.675   9.226  0.5053 -0.4595 -0.4294
 1010MOL0     C33201   7.043   7.547   9.273  0.5676  0.3432 -0.7347
 1010MOL0     C33202   7.138   7.582   9.385  0.4645 -0.3326  0.0467
 1010MOL0     C33203   7.094   7.691   9.486 -0.0769  0.7252 -0.2122
 1010MOL0     C33204   7.182   7.672   9.607  0.7719 -0.2365  0.0450
 1010MOL0     N33205   7.109   7.716   9.727  0.1943 -0.3510 -0.1621
 1010MOL0     C33206   7.129   7.832   9.795  0.3703  0.3603 -0.1103
 1010MOL0     C33207   7.031   7.838   9.882 -0.2090  0.0880 -0.8092
 1010MOL0     C33208   7.008   7.949   9.980 -1.1655 -0.4261  0.2141
 1010MOL0     C33209   6.909   8.034   9.898  0.1553  0.2279 -0.3783
 1010MOL0     C33210   6.869   8.164   9.982  0.2327  0.2355  0.7747
 1010MOL0     C33211   6.794   8.146  10.110  0.0244 -0.5447  0.1603
 1010MOL0     O33212   6.790   8.279  10.161 -0.0743  0.5416 -0.4746
 1010MOL0     C33213   6.730   8.283  10.291 -0.9537 -0.6005  0.3236
 1010MOL0     C33214   6.689   8.180  10.381 -0.1103 -0.0422  1.1480
 1010MOL0     C33215   6.639   8.205  10.513 -0.5064  0.7208  0.2151
 1010MOL0     C33216   6.638   8.339  10.564  0.0510  0.7806  0.6947
 1010MOL0     C33217   6.591   8.366  10.698 -1.3333  0.1820 -0.5964
 1010MOL0     O33218   6.559   8.266  10.778  0.2031 -0.9608  0.8982
 1010MOL0     C33219   6.529   8.289  10.908 -0.8403 -0.0049 -0.5554
 1010MOL0     C33220   6.428   8.373  10.950 -0.1217 -0.5441  0.7887
 1010MOL0     C33221   6.389   8.383  11.077 -0.5234 -0.1454 -0.7454
 1010MOL0     C33222   6.458   8.320  11.179  0.4728  0.4052  0.1551
 1010MOL0     O33223   6.426   8.332  11.314  0.5319  0.2350 -0.7111
 1010MOL0     C33224   6.314   8.416  11.350 -0.1386  0.2015  0.8624
 1010MOL0     C33225   6.282   8.395  11.494 -0.4230  0.9408 -1.4653
 1010MOL0     C33226   6.143   8.474  11.515 -0.3479 -0.2689 -0.3019
 1010MOL0     C33227   6.166   8.621  11.468  0.0769  0.1892 -1.1213
 1010MOL0     C33228   6.051   8.715  11.512 -0.7954  0.3943 -0.3802
 1010MOL0     C33229   6.069   8.866  11.496 -0.9906 -0.4460 -1.9286
 1010MOL0     C33230   5.963   8.939  11.579 -0.1173 -0.0407  0.4587
 1010MOL0     C33231   5.968   9.094  11.585  0.5516  0.3382 -0.4572
 1010MOL0    Cl33232   5.950   9.153  11.421  0.6021  0.2021 -0.6345
 1010MOL0     C33233   6.556   8.231  11.150  0.6739 -0.3922 -0.2733
 1010MOL0     C33234   6.599   8.220  11.010  0.0114  0.1514  0.3729
 1010MOL0     O33235   6.597   8.485  10.728 -0.1359  0.7936 -0.2587
 1010MOL0     C33236   6.683   8.442  10.479 -0.4042  0.0092  0.4280
 1010MOL0     C33237   6.737   8.412  10.351  0.4079  1.1714  0.3809
 1010MOL0     N33238   6.942   7.730   9.869  0.5727  0.6658  0.8100
 1010MOL0     N33239   7.002   7.658   9.776 -0.4066  0.0983 -0.5070
 1010MOL0     C33240   6.808   7.711   8.702 -0.1128 -0.3338 -0.9973
 1010MOL0     C33241   6.837   7.627   8.596  0.1237 -0.6766 -0.1816
 1010MOL0     C33242   6.767   7.301   8.307  1.7376 -0.4530 -0.3041
 1010MOL0     C33243   6.886   7.306   8.233 -0.0545  0.5864  0.2774
 1010MOL0     C33244   6.903   7.230   8.124  0.7331 -0.1335  0.6874
 1010MOL0     C33245   6.819   7.122   8.105  0.6779  0.2812  1.0597
 1010MOL0     O33246   6.840   7.018   8.013 -0.7512  0.5657  0.0353
 1010MOL0     C33247   6.855   7.071   7.881 -1.0906  0.3574 -0.4773
 1010MOL0     C33248   6.708   7.110   7.843  0.2651 -0.2738 -0.3362
 1010MOL0     C33249   6.621   6.977   7.851 -0.2420 -0.2067 -0.5296
 1010MOL0     C33250   6.516   6.975   7.738 -0.7015 -0.8782 -0.0445
 1010MOL0     C33251   6.583   6.959   7.609  0.4319 -0.8251  0.0347
 1010MOL0     C33252   6.611   6.945   7.491  0.3941  0.2500 -0.0614
 1010MOL0     C33253   6.707   7.110   8.188  0.1643  0.1929 -0.6216
 1010MOL0     C33254   6.675   7.196   8.287 -0.3399 -0.1609 -0.6930
 1010MOL0     H33255   6.849   7.313   8.762 -0.8491 -0.9598  1.9518
 1010MOL0     H33256   6.839   7.477   8.953 -1.9662  0.2027  0.0907
 1010MOL0     H33257   6.794   7.938   8.951 -0.4020  0.3561  0.4111
 1010MOL0     H33258   6.930   7.854   8.861  2.5887 -0.6162  2.4430
 1010MOL0     H33259   6.925   7.919   9.158 -1.7988 -0.0463 -0.0318
 1010MOL0     H33260   7.045   7.948   9.037 -1.1516 -0.6451 -0.6759
 1010MOL0     H33261   7.153   7.777   9.140  1.6311 -0.5228 -1.6648
 1010MOL0     H33262   7.062   7.686   9.031  0.7902 -2.1935  1.7772
 1010MOL0     H33263   6.950   7.735   9.314 -2.8374 -3.6317  1.1497
 1010MOL0     H33264   6.877   7.649   9.181  0.3706  1.3161 -1.2607
 1010MOL0     H33265   7.095   7.503   9.188 -0.2746 -0.4320 -0.8674
 1010MOL0     H33266   6.970   7.471   9.304  0.7568  0.4170 -0.1022
 1010MOL0     H33267   7.239   7.612   9.354  0.2899 -0.2346 -0.4277
 1010MOL0     H33268   7.146   7.491   9.446 -0.0415 -1.7317 -1.8821
 1010MOL0     H33269   7.103   7.795   9.454  0.4509  1.2165  1.4293
 1010MOL0     H33270   6.992   7.664   9.514  0.6712 -1.2408  0.8444
 1010MOL0     H33271   7.277   7.723   9.587  0.6960 -0.9934 -2.5891
 1010MOL0     H33272   7.188   7.566   9.631 -1.3945  0.2585  3.5854
 1010MOL0     H33273   7.214   7.897   9.775  0.6912 -0.1715 -0.5142
 1010MOL0     H33274   7.102   8.003   9.997 -2.2763  2.9631 -3.1188
 1010MOL0     H33275   6.962   7.923  10.076 -4.3265 -0.1976 -1.1407
 1010MOL0     H33276   6.816   7.985   9.867 -0.1665  0.6697 -0.1228
 1010MOL0     H33277   6.956   8.066   9.805  0.7363 -0.2811 -0.2662
 1010MOL0     H33278   6.963   8.211  10.013  2.3007 -2.8760 -0.2834
 1010MOL0     H33279   6.819   8.229   9.910  4.7401 -1.8270 -5.0674
 1010MOL0     H33280   6.856   8.084  10.176 -0.7775 -0.2031  1.2502
 1010MOL0     H33281   6.692   8.109  10.098  0.0982 -0.5637 -0.4448
 1010MOL0     H33282   6.682   8.084  10.332 -3.0144  1.3269 -1.5070
 1010MOL0     H33283   6.620   8.120  10.577 -2.8922  0.5441 -0.6214
 1010MOL0     H33284   6.362   8.414  10.875 -1.0779 -1.8439  0.8748
 1010MOL0     H33285   6.300   8.444  11.086  0.3289  1.3543 -2.0270
 1010MOL0     H33286   6.225   8.400  11.288  1.7976 -2.7352 -1.4058
 1010MOL0     H33287   6.353   8.514  11.322  2.7469 -1.6301 -2.2166
 1010MOL0     H33288   6.353   8.438  11.565  2.8105 -1.0093 -3.2511
 1010MOL0     H33289   6.279   8.287  11.511  2.1113  0.4402 -3.5902
 1010MOL0     H33290   6.107   8.486  11.617 -0.6391  0.9979 -0.5260
 1010MOL0     H33291   6.064   8.434  11.450  0.6918 -0.3225 -1.5922
 1010MOL0     H33292   6.260   8.658  11.510  1.3364 -0.5463 -3.1483
 1010MOL0     H33293   6.174   8.625  11.359  1.9804  1.8212 -0.9852
 1010MOL0     H33294   6.022   8.683  11.613  1.4524 -3.1549 -0.6955
 1010MOL0     H33295   5.962   8.687  11.455 -0.4283 -1.5460 -0.0621
 1010MOL0     H33296   6.072   8.896  11.391  0.0973  1.1701 -1.4722
 1010MOL0     H33297   6.173   8.881  11.526 -1.5750 -0.9854  0.5818
 1010MOL0     H33298   5.867   8.915  11.532  1.2314  0.5924 -2.9408
 1010MOL0     H33299   5.968   8.901  11.682 -1.2106 -0.4753  0.3617
 1010MOL0     H33300   6.059   9.136  11.630  2.1401 -0.6106 -2.5999
 1010MOL0     H33301   5.886   9.144  11.638 -0.6948 -1.0693 -1.0083
 1010MOL0     H33302   6.605   8.169  11.225 -0.1184  2.0897  2.5158
 1010MOL0     H33303   6.675   8.146  10.985  2.6426  2.9668 -0.6294
 1010MOL0     H33304   6.660   8.539  10.520 -2.0647 -0.4710  0.6909
 1010MOL0     H33305   6.779   8.480  10.277  0.7027  0.2106 -0.3389
 1010MOL0     H33306   6.791   7.814   8.673  3.8404  2.0109  3.5468
 1010MOL0     H33307   6.839   7.673   8.498 -1.9122  1.8557  0.8471
 1010MOL0     H33308   6.966   7.376   8.251  2.2783 -1.4940 -1.3166
 1010MOL0     H33309   6.997   7.246   8.072  0.1242  0.6038 -0.2112
 1010MOL0     H33310   6.891   6.998   7.808  2.1222  0.9682  0.3824
 1010MOL0     H33311   6.924   7.155   7.874  2.8365 -2.6489 -1.3462
 1010MOL0     H33312   6.667   7.184   7.913 -0.1623 -1.6560  0.9392
 1010MOL0     H33313   6.706   7.144   7.739  1.0321  0.3021 -0.1750
 1010MOL0     H33314   6.565   6.967   7.944  1.0376 -0.2600  0.2587
 1010MOL0     H33315   6.696   6.899   7.838  0.4195 -0.0182  1.8440
 1010MOL0     H33316   6.445   6.893   7.752 -3.5629  1.5151  0.6559
 1010MOL0     H33317   6.449   7.061   7.731 -2.2758 -2.0995 -0.7767
 1010MOL0     H33318   6.623   6.932   7.385 -3.0593 -0.8688 -0.4180
 1010MOL0     H33319   6.638   7.032   8.157  0.0875  1.3679 -3.7329
 1010MOL0     H33320   6.583   7.187   8.343  0.6793  0.6983  1.2041
 1011MOL0     O33321   7.129   0.342   4.891  0.1471  0.3744  0.1181
 1011MOL0     C33322   7.114   0.327   4.771  0.2388 -0.5641  0.6059
 1011MOL0     O33323   7.019   0.388   4.687 -0.4952 -0.1703  0.5223
 1011MOL0     C33324   6.929   0.469   4.756  0.3951  0.1378  0.9839
 1011MOL0     C33325   6.916   0.591   4.701  0.2352 -0.3597  0.3826
 1011MOL0     C33326   6.831   0.685   4.756  0.6111  0.1228  0.1877
 1011MOL0     C33327   6.767   0.665   4.880 -0.0646 -0.2276 -0.4472
 1011MOL0     O33328   6.675   0.757   4.929 -0.8854  0.6805  0.1530
 1011MOL0     C33329   6.558   0.760   4.858 -0.4318  0.3869  0.6790
 1011MOL0     C33330   6.468   0.633   4.840  0.4032  0.2467 -0.0481
 1011MOL0     C33331   6.317   0.651   4.798 -0.8317 -0.2057  0.1893
 1011MOL0     C33332   6.256   0.510   4.766  0.3866  0.2164 -0.1108
 1011MOL0     C33333   6.101   0.504   4.717  0.0312  0.7808  0.9231
 1011MOL0     C33334   6.007   0.539   4.833 -0.5701  0.2980 -0.4252
 1011MOL0     C33335   5.859   0.497   4.802  0.0327  0.2965 -0.4880
 1011MOL0     C33336   5.757   0.541   4.912 -0.4825 -0.2354  0.2613
 1011MOL0     N33337   5.624   0.487   4.896 -0.6353 -0.2078 -0.6173
 1011MOL0     C33338   5.513   0.568   4.886  0.2318  0.1649 -0.3646
 1011MOL0     C33339   5.415   0.484   4.854  0.0537  0.3441 -0.9253
 1011MOL0     C33340   5.263   0.512   4.846  0.2885 -0.2652  0.6534
 1011MOL0     C33341   5.201   0.604   4.959  0.9555 -0.5497 -0.8007
 1011MOL0     C33342   5.068   0.551   5.015  0.3871 -0.4722  0.5518
 1011MOL0     C33343   4.968   0.525   4.907  0.2300 -0.4350 -0.6839
 1011MOL0     O33344   4.914   0.652   4.856  0.2336 -0.2156 -0.1556
 1011MOL0     C33345   4.784   0.646   4.811 -0.0242 -0.2557 -0.9224
 1011MOL0     C33346   4.697   0.759   4.833 -0.1999 -0.5301 -0.6610
 1011MOL0     C33347   4.564   0.742   4.803 -0.3020  1.1132 -0.2440
 1011MOL0     C33348   4.516   0.624   4.724 -0.7475 -0.1454 -0.6937
 1011MOL0     C33349   4.371   0.613   4.674 -0.1592  0.1547 -0.4252
 1011MOL0     O33350   4.334   0.515   4.601 -0.6299 -0.1133 -0.4134
 1011MOL0     C33351   4.302   0.391   4.666 -0.6934 -0.1270 -0.7807
 1011MOL0     C33352   4.328   0.358   4.804  0.3064 -0.1478 -0.7539
 1011MOL0     C33353   4.278   0.244   4.861 -0.2297  1.1846 -0.6101
 1011MOL0     C33354   4.209   0.146   4.780 -0.7090  0.8918 -0.0616
 1011MOL0     O33355   4.160   0.027   4.827  0.0197  0.0317 -0.3446
 1011MOL0     C33356   4.208  -0.030   4.947 -0.3116 -0.4518 -0.0674
 1011MOL0     C33357   4.150  -0.175   4.964 -1.0643 -1.3087 -0.5389
 1011MOL0     C33358   4.208  -0.269   4.867 -0.2936 -0.0190 -0.5307
 1011MOL0     C33359   4.167  -0.257   4.713  0.2577  0.1736  0.1363
 1011MOL0     C33360   4.285  -0.228   4.614  0.0968  0.1003 -0.1065
 1011MOL0     C33361   4.261  -0.238   4.470 -0.2874 -0.5905 -0.2427
 1011MOL0     C33362   4.178  -0.357   4.416  0.0092 -0.9970 -0.0444
 1011MOL0     C33363   4.165  -0.362   4.263  0.6671 -0.2648 -0.2433
 1011MOL0    Cl33364   4.316  -0.384   4.174 -0.0627 -0.0010 -0.2299
 1011MOL0     C33365   4.187   0.180   4.644 -0.1252 -0.2598  0.7094
 1011MOL0     C33366   4.236   0.299   4.591  0.1854  0.0137 -0.5398
 1011MOL0     O33367   4.290   0.688   4.735 -0.3813  0.2439 -1.0657
 1011MOL0     C33368   4.606   0.530   4.680 -0.3847 -0.3485  0.0386
 1011MOL0     C33369   4.743   0.543   4.722 -0.1930 -0.6648 -0.4377
 1011MOL0     N33370   5.466   0.353   4.844  0.7335 -0.2920 -0.0872
 1011MOL0     N33371   5.587   0.354   4.882 -0.7712 -0.7696  0.1064
 1011MOL0     C33372   6.782   0.543   4.933  0.1899  0.8421  0.0582
 1011MOL0     C33373   6.857   0.436   4.871 -0.1582 -0.3014 -0.0135
 1011MOL0     C33374   7.197   0.223   4.700 -0.1062  0.4055 -0.7899
 1011MOL0     C33375   7.187   0.182   4.564 -0.4197  0.2316 -0.2096
 1011MOL0     C33376   7.273   0.089   4.512  0.1771  0.3111 -0.2593
 1011MOL0     C33377   7.378   0.034   4.584  0.3337 -0.4446 -1.2428
 1011MOL0     O33378   7.442  -0.073   4.535 -0.1536  0.6231  1.0690
 1011MOL0     C33379   7.562  -0.129   4.595  0.9137 -0.0883 -0.2990
 1011MOL0     C33380   7.526  -0.204   4.719  1.0316 -0.5858 -0.5641
 1011MOL0     C33381   7.520  -0.350   4.692 -0.0656 -0.6813  0.2984
 1011MOL0     C33382   7.401  -0.382   4.605 -0.5908 -0.3885  0.1009
 1011MOL0     C33383   7.381  -0.530   4.613  0.1719 -0.5155  0.4756
 1011MOL0     C33384   7.367  -0.652   4.613 -0.1698 -0.3716  0.3411
 1011MOL0     C33385   7.392   0.082   4.719 -0.2823 -0.5528 -0.4135
 1011MOL0     C33386   7.297   0.162   4.779 -1.2178 -0.3616  0.0667
 1011MOL0     H33387   6.980   0.612   4.616 -1.2664  0.3646 -0.6147
 1011MOL0     H33388   6.800   0.778   4.710 -2.0210 -0.2091  1.1343
 1011MOL0     H33389   6.573   0.798   4.756 -2.1877 -1.1608 -0.2070
 1011MOL0     H33390   6.494   0.837   4.901  0.7655  0.3834  2.5604
 1011MOL0     H33391   6.462   0.581   4.936 -1.0976  3.4630  1.7498
 1011MOL0     H33392   6.510   0.561   4.769 -1.2835 -0.9820  0.1392
 1011MOL0     H33393   6.313   0.710   4.706 -0.3514 -4.2312 -2.6826
 1011MOL0     H33394   6.259   0.696   4.879  3.7126  1.6491  2.7808
 1011MOL0     H33395   6.320   0.471   4.687 -0.5683 -0.2541 -0.6778
 1011MOL0     H33396   6.261   0.444   4.853  1.5162 -0.6085 -0.7934
 1011MOL0     H33397   6.085   0.405   4.674 -0.5526  0.8813  0.8938
 1011MOL0     H33398   6.064   0.564   4.634 -0.5977 -4.0828 -2.7723
 1011MOL0     H33399   6.026   0.643   4.858  2.1676 -0.3504  0.6234
 1011MOL0     H33400   6.029   0.465   4.911 -0.3912 -2.8943 -3.2538
 1011MOL0     H33401   5.830   0.541   4.706 -3.7829  2.5564  1.4565
 1011MOL0     H33402   5.853   0.390   4.784  2.3929  0.1847 -0.9000
 1011MOL0     H33403   5.751   0.650   4.913 -0.1923 -0.2089 -0.3091
 1011MOL0     H33404   5.789   0.509   5.011 -1.2204 -1.0450  0.2491
 1011MOL0     H33405   5.499   0.674   4.904 -0.8014  0.1455 -0.9952
 1011MOL0     H33406   5.204   0.421   4.863  0.6485 -0.2621  2.0166
 1011MOL0     H33407   5.237   0.564   4.754 -0.7634  1.4789  1.8769
 1011MOL0     H33408   5.186   0.707   4.923 -0.2664  0.8071  3.0957
 1011MOL0     H33409   5.266   0.621   5.045 -2.7507  0.5170  2.0938
 1011MOL0     H33410   5.084   0.450   5.054  0.1535 -1.7273 -2.3334
 1011MOL0     H33411   5.031   0.623   5.089 -0.0565 -2.4271  2.3309
 1011MOL0     H33412   4.898   0.462   4.963 -2.0814  1.3942 -1.3560
 1011MOL0     H33413   4.997   0.468   4.818  2.7593 -0.3783  0.0425
 1011MOL0     H33414   4.730   0.842   4.895 -1.0584 -1.5028  1.1681
 1011MOL0     H33415   4.498   0.825   4.827 -0.0627  1.1000  0.4679
 1011MOL0     H33416   4.375   0.432   4.868 -1.2692  1.2839 -1.1670
 1011MOL0     H33417   4.291   0.227   4.968  0.9098  2.8556 -0.4604
 1011MOL0     H33418   4.179   0.024   5.038  2.6596  1.1116  0.0525
 1011MOL0     H33419   4.315  -0.051   4.958 -0.5680 -1.2095  1.3744
 1011MOL0     H33420   4.041  -0.184   4.964 -1.3187  0.9491  0.7391
 1011MOL0     H33421   4.197  -0.206   5.058  0.4557  1.0078 -0.4390
 1011MOL0     H33422   4.178  -0.371   4.892  0.9027  0.0849  1.5979
 1011MOL0     H33423   4.317  -0.262   4.874 -0.4342  2.3655  0.3015
 1011MOL0     H33424   4.112  -0.349   4.694  1.6208 -0.9843  1.5128
 1011MOL0     H33425   4.099  -0.171   4.719  3.1785  2.5927  1.4932
 1011MOL0     H33426   4.366  -0.300   4.630  0.6481  0.6871 -0.2119
 1011MOL0     H33427   4.322  -0.125   4.624 -1.0939  0.5914 -0.6665
 1011MOL0     H33428   4.355  -0.226   4.416 -0.4214  0.2794 -0.2948
 1011MOL0     H33429   4.216  -0.143   4.438 -0.6982  0.2735  2.6516
 1011MOL0     H33430   4.231  -0.448   4.445  2.2523  0.1985 -0.2215
 1011MOL0     H33431   4.077  -0.355   4.457  0.2111 -0.9079  0.4444
 1011MOL0     H33432   4.114  -0.268   4.240  1.7070  1.5094  3.8014
 1011MOL0     H33433   4.103  -0.448   4.236  2.5120 -1.8377  0.2783
 1011MOL0     H33434   4.144   0.114   4.570  1.2266 -0.1046 -0.2438
 1011MOL0     H33435   4.205   0.322   4.490 -0.4426  1.2846 -0.0758
 1011MOL0     H33436   4.577   0.437   4.632 -1.6167  1.2854 -2.5668
 1011MOL0     H33437   4.815   0.465   4.698 -0.0391 -0.8307  0.5012
 1011MOL0     H33438   6.722   0.512   5.018 -0.0110 -0.4852 -0.5400
 1011MOL0     H33439   6.863   0.332   4.904 -1.3539 -0.4229 -0.1453
 1011MOL0     H33440   7.100   0.223   4.514  1.8695  0.8760 -4.0092
 1011MOL0     H33441   7.227   0.064   4.417  1.3786  1.5618 -1.1967
 1011MOL0     H33442   7.626  -0.040   4.602  2.6925 -1.1675 -1.7855
 1011MOL0     H33443   7.606  -0.204   4.528  2.2176 -1.1129  1.6038
 1011MOL0     H33444   7.609  -0.186   4.788 -0.3254  1.6990  0.6011
 1011MOL0     H33445   7.435  -0.164   4.764  0.4596 -1.1708 -1.1815
 1011MOL0     H33446   7.510  -0.405   4.786  0.6915 -1.4903 -0.0860
 1011MOL0     H33447   7.608  -0.390   4.642  0.4464  0.0225  0.6236
 1011MOL0     H33448   7.314  -0.325   4.640  1.5499  3.1929  0.1003
 1011MOL0     H33449   7.424  -0.347   4.504  0.2781 -1.0908  0.0414
 1011MOL0     H33450   7.336  -0.755   4.623 -4.2030  0.3654 -2.1227
 1011MOL0     H33451   7.472   0.057   4.789  0.3975  3.2828  0.4026
 1011MOL0     H33452   7.316   0.197   4.880 -1.3337 -0.0389 -0.0209
 1012MOL0     O33453   7.383   4.760   9.198  0.6410  0.1525 -0.1255
 1012MOL0     C33454   7.321   4.858   9.220  0.5848 -0.2786  0.9943
 1012MOL0     O33455   7.197   4.864   9.282 -0.2410  0.0782  0.1993
 1012MOL0     C33456   7.165   4.753   9.342  0.5416  0.4719  0.4693
 1012MOL0     C33457   7.060   4.666   9.294 -0.2701 -0.5326 -0.2605
 1012MOL0     C33458   7.030   4.553   9.367 -0.1916  0.3691 -0.4233
 1012MOL0     C33459   7.080   4.523   9.489 -1.1366  0.1165  0.3209
 1012MOL0     O33460   7.032   4.404   9.542 -0.1591 -0.6649 -0.0117
 1012MOL0     C33461   7.121   4.319   9.614 -0.0870 -0.3283 -0.4686
 1012MOL0     C33462   7.034   4.204   9.680  0.1488  0.0128  1.2481
 1012MOL0     C33463   6.918   4.257   9.769 -0.0372 -0.5101  0.0331
 1012MOL0     C33464   6.959   4.356   9.872 -0.2578 -0.4441  0.5019
 1012MOL0     C33465   6.848   4.362   9.971  0.1603 -0.0845 -0.6196
 1012MOL0     C33466   6.890   4.448  10.083  0.2406 -0.0812 -0.4373
 1012MOL0     C33467   6.773   4.485  10.178  0.1683 -0.1410 -0.2694
 1012MOL0     C33468   6.720   4.369  10.255  1.1306 -1.8313 -0.1724
 1012MOL0     N33469   6.569   4.355  10.242 -0.7053  0.4064 -1.0386
 1012MOL0     C33470   6.475   4.417  10.316 -0.2102 -0.6970 -0.3903
 1012MOL0     C33471   6.358   4.368  10.268  0.0536  0.3948  0.4004
 1012MOL0     C33472   6.219   4.428  10.319 -0.1084  0.2883  1.6202
 1012MOL0     C33473   6.208   4.572  10.273 -0.1031  0.6726 -0.8185
 1012MOL0     C33474   6.089   4.653  10.325 -0.5531  0.0142 -0.4552
 1012MOL0     C33475   6.084   4.677  10.471  0.4579  0.3812 -0.6725
 1012MOL0     O33476   6.051   4.558  10.545 -0.0224 -0.0840  0.1315
 1012MOL0     C33477   5.917   4.524  10.574  0.8744  0.2730  1.1437
 1012MOL0     C33478   5.804   4.615  10.553  0.0466  1.1657  0.0686
 1012MOL0     C33479   5.680   4.573  10.584  0.7426 -0.2251  1.3090
 1012MOL0     C33480   5.649   4.440  10.620 -0.0341 -0.3092 -0.7356
 1012MOL0     C33481   5.513   4.393  10.649 -0.7590 -0.9317  0.7921
 1012MOL0     O33482   5.427   4.492  10.687 -0.5642  0.1846  0.5396
 1012MOL0     C33483   5.307   4.479  10.747 -0.4139 -0.6348 -0.2435
 1012MOL0     C33484   5.247   4.362  10.781 -1.2360  0.9079  0.2060
 1012MOL0     C33485   5.116   4.368  10.836  1.0105 -0.1211 -0.0233
 1012MOL0     C33486   5.047   4.491  10.869 -0.0784 -0.3949 -0.7617
 1012MOL0     O33487   4.918   4.494  10.927 -0.1225 -1.4014 -0.2973
 1012MOL0     C33488   4.814   4.433  10.853 -0.1119 -0.4950 -0.1956
 1012MOL0     C33489   4.753   4.308  10.915 -0.5735 -0.5879 -0.2020
 1012MOL0     C33490   4.677   4.235  10.799  0.0355  0.2327  0.4948
 1012MOL0     C33491   4.772   4.149  10.712 -0.9359  0.2138  0.5736
 1012MOL0     C33492   4.713   4.096  10.582 -0.6955  0.1214 -0.8999
 1012MOL0     C33493   4.827   4.023  10.485 -0.1475  0.1342  0.4596
 1012MOL0     C33494   4.754   3.972  10.354  0.3313 -0.0918 -0.4165
 1012MOL0     C33495   4.851   3.894  10.267 -0.1498 -1.0355  0.1067
 1012MOL0    Cl33496   4.777   3.810  10.135  0.1955  0.5469 -0.1262
 1012MOL0     C33497   5.122   4.608  10.846  0.3903  0.6991 -0.1809
 1012MOL0     C33498   5.248   4.604  10.785 -0.3367  0.5529  0.2464
 1012MOL0     O33499   5.478   4.281  10.612  0.0283  0.2998  0.2621
 1012MOL0     C33500   5.751   4.349  10.595 -0.3040  0.7435 -0.1175
 1012MOL0     C33501   5.883   4.384  10.570 -0.7644 -0.0855 -0.6717
 1012MOL0     N33502   6.374   4.270  10.177 -0.1356  0.0379  0.0262
 1012MOL0     N33503   6.503   4.267  10.164 -0.2899  0.5785  1.1320
 1012MOL0     C33504   7.182   4.603   9.541  0.4716 -1.5526  1.1575
 1012MOL0     C33505   7.220   4.715   9.469  0.0974  0.5369  0.2175
 1012MOL0     C33506   7.374   4.988   9.173  0.1032 -0.6239 -0.1760
 1012MOL0     C33507   7.508   4.994   9.129 -0.2559 -0.8125 -0.6708
 1012MOL0     C33508   7.556   5.122   9.082  0.9178  0.3538 -0.4580
 1012MOL0     C33509   7.470   5.238   9.083  0.1905 -0.3303 -0.2601
 1012MOL0     O33510   7.512   5.364   9.063  0.1080 -0.3117 -0.2566
 1012MOL0     C33511   7.640   5.409   9.121 -0.4636 -0.0236 -0.1821
 1012MOL0     C33512   7.628   5.422   9.278 -1.0640  0.2462  0.0486
 1012MOL0     C33513   7.514   5.519   9.308 -0.1530 -0.2406  0.3250
 1012MOL0     C33514   7.529   5.675   9.270 -0.0919  0.3825 -0.7710
 1012MOL0     C33515   7.463   5.705   9.139 -0.0389  0.4729  0.3809
 1012MOL0     C33516   7.418   5.721   9.030 -0.1118  0.3178 -0.3751
 1012MOL0     C33517   7.336   5.223   9.117 -0.6760  0.7505  0.7708
 1012MOL0     C33518   7.300   5.110   9.176  0.5850 -0.2351  0.2286
 1012MOL0     H33519   7.010   4.687   9.200  0.6904  2.6009 -0.1964
 1012MOL0     H33520   6.955   4.483   9.331 -0.7789 -0.2979  1.9241
 1012MOL0     H33521   7.173   4.377   9.691  0.4049 -0.1760 -0.9134
 1012MOL0     H33522   7.205   4.281   9.555  0.9935 -1.0303  1.4303
 1012MOL0     H33523   7.106   4.149   9.741 -1.7157 -1.7661  1.9483
 1012MOL0     H33524   6.992   4.126   9.616  1.1546 -0.6893  1.4233
 1012MOL0     H33525   6.884   4.162   9.810  1.9009 -0.3120  2.2973
 1012MOL0     H33526   6.844   4.293   9.697 -1.1799 -3.2811 -0.3176
 1012MOL0     H33527   7.059   4.336   9.911  0.0861  1.6994  0.8447
 1012MOL0     H33528   6.962   4.452   9.820 -0.6452  0.0399  1.3463
 1012MOL0     H33529   6.847   4.259  10.009 -2.4043 -0.2242 -0.8791
 1012MOL0     H33530   6.747   4.387   9.937  0.7169  1.1513 -1.4600
 1012MOL0     H33531   6.932   4.542  10.047 -0.0808  0.2112 -0.0616
 1012MOL0     H33532   6.972   4.392  10.130 -0.6566 -1.5320 -0.5243
 1012MOL0     H33533   6.807   4.564  10.245 -0.1150 -0.8645  0.7500
 1012MOL0     H33534   6.690   4.529  10.123  0.4218 -0.9477 -1.3634
 1012MOL0     H33535   6.753   4.369  10.360  0.2279 -1.4432  0.1183
 1012MOL0     H33536   6.761   4.284  10.199 -0.5407 -0.9752 -2.8617
 1012MOL0     H33537   6.490   4.486  10.398  2.4573 -0.7994 -0.7159
 1012MOL0     H33538   6.213   4.421  10.428 -1.5322 -1.8514  1.4587
 1012MOL0     H33539   6.136   4.381  10.266  1.4373  0.4259 -1.1189
 1012MOL0     H33540   6.193   4.555  10.166 -1.0365 -4.8948 -0.0969
 1012MOL0     H33541   6.305   4.618  10.291  0.0781 -0.0364  0.0804
 1012MOL0     H33542   6.094   4.753  10.280  1.0221  0.1835  0.0194
 1012MOL0     H33543   6.003   4.599  10.285 -1.9526  2.6816 -1.3031
 1012MOL0     H33544   6.016   4.752  10.511 -1.2061 -2.0956  1.4556
 1012MOL0     H33545   6.180   4.714  10.509  0.0362 -1.7210  2.8799
 1012MOL0     H33546   5.828   4.720  10.538  2.2990  0.7946  0.6850
 1012MOL0     H33547   5.599   4.645  10.588 -1.0326 -1.8767 -1.3161
 1012MOL0     H33548   5.292   4.266  10.760 -0.2599  1.2212  0.8265
 1012MOL0     H33549   5.067   4.273  10.857  1.9359 -0.3862  1.0342
 1012MOL0     H33550   4.851   4.414  10.752  1.9641 -2.5070  0.8720
 1012MOL0     H33551   4.727   4.500  10.846 -1.6763 -2.5171 -1.3074
 1012MOL0     H33552   4.694   4.340  11.001  1.9361  1.0817  1.0056
 1012MOL0     H33553   4.841   4.256  10.954  0.3982  2.2442  1.6512
 1012MOL0     H33554   4.619   4.308  10.741 -0.2786 -0.9265 -0.6857
 1012MOL0     H33555   4.615   4.167  10.857  2.6362 -2.3856  0.4436
 1012MOL0     H33556   4.864   4.206  10.694 -1.2001 -0.3668 -3.4983
 1012MOL0     H33557   4.793   4.065  10.779  2.1574  0.4666  0.1033
 1012MOL0     H33558   4.682   4.189  10.533 -2.3849  0.5445  0.8565
 1012MOL0     H33559   4.623   4.044  10.614 -1.4081  2.6659  1.6574
 1012MOL0     H33560   4.870   3.946  10.549  0.4642  0.4300  0.4163
 1012MOL0     H33561   4.910   4.089  10.459  1.4498 -0.0015  4.5170
 1012MOL0     H33562   4.657   3.931  10.383  1.1596 -1.2415  0.8967
 1012MOL0     H33563   4.734   4.060  10.293 -3.3756 -1.2578 -1.1186
 1012MOL0     H33564   4.899   3.816  10.328  0.8929 -1.4450 -1.1854
 1012MOL0     H33565   4.934   3.954  10.229  1.4285 -1.5734  2.4720
 1012MOL0     H33566   5.084   4.698  10.893 -3.9967 -2.0789  2.2970
 1012MOL0     H33567   5.294   4.700  10.764  1.4728 -0.5448 -1.1732
 1012MOL0     H33568   5.736   4.242  10.610 -0.9137  0.8722  0.2327
 1012MOL0     H33569   5.973   4.326  10.551  0.2939  1.1852  0.1953
 1012MOL0     H33570   7.230   4.580   9.635  1.3860  2.8705  1.9529
 1012MOL0     H33571   7.307   4.767   9.509 -1.0855  1.5532  1.5947
 1012MOL0     H33572   7.562   4.900   9.128 -0.8548 -1.2339  1.7042
 1012MOL0     H33573   7.662   5.134   9.062  1.2382  2.6341  2.0358
 1012MOL0     H33574   7.674   5.509   9.091  2.8355 -0.0104  2.9868
 1012MOL0     H33575   7.723   5.347   9.086 -0.9984 -1.0839  0.3987
 1012MOL0     H33576   7.602   5.325   9.320 -2.2184 -0.9141 -3.0051
 1012MOL0     H33577   7.714   5.465   9.330 -0.1380 -0.4265 -0.8768
 1012MOL0     H33578   7.515   5.504   9.416 -1.3569 -4.3155 -0.0670
 1012MOL0     H33579   7.414   5.493   9.274 -0.0272  3.8916 -4.4041
 1012MOL0     H33580   7.472   5.739   9.338  1.3266  0.3697  0.4998
 1012MOL0     H33581   7.629   5.719   9.270 -0.2122  0.6609 -1.4616
 1012MOL0     H33582   7.377   5.727   8.931  0.8091 -5.0785 -1.3729
 1012MOL0     H33583   7.272   5.311   9.114 -2.1187 -0.2390 -2.5944
 1012MOL0     H33584   7.199   5.101   9.214 -1.2869  4.3418 -2.8200
 1013MOL0     O33585   7.223   4.072   2.531  0.0518 -0.0284  0.1097
 1013MOL0     C33586   7.337   4.024   2.524 -0.0326 -0.7454 -0.0152
 1013MOL0     O33587   7.373   3.888   2.528 -0.1024  0.2204 -0.1841
 1013MOL0     C33588   7.283   3.786   2.524 -0.3014  0.2613 -0.7485
 1013MOL0     C33589   7.357   3.664   2.522  0.3509 -0.5302  0.2756
 1013MOL0     C33590   7.294   3.545   2.511  0.2482 -0.7177 -0.5384
 1013MOL0     C33591   7.156   3.531   2.481  0.4281  0.1758 -0.2476
 1013MOL0     O33592   7.092   3.411   2.465 -0.1141  0.4334 -0.0979
 1013MOL0     C33593   6.953   3.407   2.424 -0.1017 -0.4310  0.0723
 1013MOL0     C33594   6.919   3.257   2.379 -0.9938 -0.4506 -0.2364
 1013MOL0     C33595   6.920   3.153   2.490  0.6289 -1.1550 -1.4377
 1013MOL0     C33596   6.869   3.018   2.448  0.1452 -0.1179 -0.4659
 1013MOL0     C33597   6.932   2.909   2.531 -0.2916  0.0885  0.0183
 1013MOL0     C33598   6.911   2.916   2.680 -0.3097  0.3634  0.2164
 1013MOL0     C33599   6.761   2.871   2.699  0.6735 -0.1727 -0.2175
 1013MOL0     C33600   6.749   2.850   2.857 -0.5743  0.6504 -0.0161
 1013MOL0     N33601   6.622   2.890   2.922  0.2620  0.0534 -0.3428
 1013MOL0     C33602   6.577   3.018   2.923 -0.0588  0.0864  0.3327
 1013MOL0     C33603   6.450   3.021   2.979 -0.2631 -0.7899 -0.6627
 1013MOL0     C33604   6.352   3.121   2.984  0.1577  0.0953  0.5017
 1013MOL0     C33605   6.302   3.151   3.128  0.1303 -0.3288  1.1030
 1013MOL0     C33606   6.209   3.276   3.137 -0.0130 -0.1328 -0.1769
 1013MOL0     C33607   6.280   3.409   3.148  0.2050 -1.3079 -0.0960
 1013MOL0     O33608   6.277   3.435   3.292 -0.4230 -0.0403  0.1767
 1013MOL0     C33609   6.376   3.527   3.323 -0.1703  0.5981 -0.8747
 1013MOL0     C33610   6.406   3.637   3.251 -0.2558 -0.7681  0.4377
 1013MOL0     C33611   6.491   3.735   3.299 -0.2475  0.0206  0.3499
 1013MOL0     C33612   6.557   3.722   3.418  0.8491  0.0389  0.0567
 1013MOL0     C33613   6.654   3.833   3.459 -0.4095  0.4167  0.1226
 1013MOL0     O33614   6.657   3.869   3.592  0.0649  0.0952 -0.8488
 1013MOL0     C33615   6.748   3.956   3.636  0.2329 -0.0008  0.6281
 1013MOL0     C33616   6.877   3.977   3.585  1.2689 -0.0260  0.2504
 1013MOL0     C33617   6.964   4.056   3.660 -0.9178  0.0360  1.1029
 1013MOL0     C33618   6.926   4.120   3.778 -0.4669  0.6321 -0.3049
 1013MOL0     O33619   7.009   4.182   3.873  0.1977 -0.7870  0.0464
 1013MOL0     C33620   7.148   4.165   3.863  0.2455  1.1130 -0.6576
 1013MOL0     C33621   7.183   4.023   3.910 -0.1294  1.1658 -0.8720
 1013MOL0     C33622   7.112   3.995   4.049  0.0545 -0.0993  0.8934
 1013MOL0     C33623   7.178   3.875   4.117 -0.5958 -0.2989  0.4875
 1013MOL0     C33624   7.151   3.852   4.260  0.8533 -0.4334 -0.8206
 1013MOL0     C33625   7.188   3.713   4.302  0.2966 -0.5590 -0.1426
 1013MOL0     C33626   7.223   3.718   4.449  0.0992  0.2734  0.6002
 1013MOL0     C33627   7.367   3.753   4.463 -0.4325 -0.0544  0.7877
 1013MOL0    Cl33628   7.380   3.769   4.644 -0.0040  0.7019 -0.1125
 1013MOL0     C33629   6.802   4.100   3.820 -0.2967  0.8796  0.6555
 1013MOL0     C33630   6.709   4.017   3.751  0.7455  0.0008  0.1603
 1013MOL0     O33631   6.715   3.886   3.369 -0.2702  0.2195 -0.2559
 1013MOL0     C33632   6.535   3.608   3.497  0.3697 -0.5135 -0.2523
 1013MOL0     C33633   6.427   3.521   3.458 -0.4256 -0.2985  0.8803
 1013MOL0     N33634   6.441   2.893   3.029 -0.5615 -0.2864  0.8807
 1013MOL0     N33635   6.540   2.817   2.998  0.1465  0.1636 -0.5227
 1013MOL0     C33636   7.087   3.656   2.464 -0.1784  0.0025 -0.5252
 1013MOL0     C33637   7.149   3.778   2.482 -0.7196 -0.7897 -0.6576
 1013MOL0     C33638   7.447   4.127   2.507 -0.1586  0.4958  0.2677
 1013MOL0     C33639   7.579   4.082   2.537  0.0476  0.7825 -0.0104
 1013MOL0     C33640   7.686   4.164   2.501  0.5025  0.5180 -0.6751
 1013MOL0     C33641   7.662   4.289   2.454 -0.0721 -0.9514  0.5429
 1013MOL0     O33642   7.763   4.381   2.451  0.1532  0.1007 -0.5480
 1013MOL0     C33643   7.743   4.522   2.451  0.5023  0.4175 -0.2533
 1013MOL0     C33644   7.870   4.603   2.462  1.1471 -2.0160  0.5102
 1013MOL0     C33645   7.926   4.599   2.600  1.1272  0.3026 -0.7940
 1013MOL0     C33646   8.059   4.680   2.619  0.5480 -0.2563  0.3586
 1013MOL0     C33647   8.114   4.686   2.754  1.1178 -0.3880 -0.6468
 1013MOL0     C33648   8.175   4.686   2.854 -0.3931 -0.0044  0.3516
 1013MOL0     C33649   7.532   4.329   2.423  0.3529 -0.5861 -0.5810
 1013MOL0     C33650   7.428   4.248   2.457 -0.7942 -0.6314 -0.0660
 1013MOL0     H33651   7.461   3.661   2.553  0.4789 -2.5922 -0.1996
 1013MOL0     H33652   7.340   3.448   2.532 -0.0254 -0.3083  2.4754
 1013MOL0     H33653   6.942   3.476   2.340 -2.8798  1.7192  2.0287
 1013MOL0     H33654   6.877   3.445   2.494 -0.2383 -0.3195 -0.1359
 1013MOL0     H33655   6.993   3.224   2.306  0.4546 -2.6979  2.0433
 1013MOL0     H33656   6.818   3.262   2.337 -0.2037 -1.5755 -2.4303
 1013MOL0     H33657   6.859   3.189   2.573  0.5682 -3.3236 -0.4779
 1013MOL0     H33658   7.020   3.139   2.534 -0.7417 -2.1739  1.6719
 1013MOL0     H33659   6.762   3.019   2.469 -0.0409 -0.1778 -1.3492
 1013MOL0     H33660   6.874   2.989   2.342  3.2299 -3.7196  0.4471
 1013MOL0     H33661   7.039   2.912   2.505  0.2595 -0.7902  1.9963
 1013MOL0     H33662   6.885   2.821   2.487  2.5867 -0.0588 -3.2425
 1013MOL0     H33663   6.932   3.015   2.721  2.7592  0.0249 -0.2549
 1013MOL0     H33664   6.989   2.854   2.725 -0.0922  0.4781  0.0013
 1013MOL0     H33665   6.683   2.938   2.662  2.3517  2.2528  0.4324
 1013MOL0     H33666   6.742   2.776   2.648 -3.1310  2.4259 -4.3804
 1013MOL0     H33667   6.833   2.896   2.910 -1.0196  1.7131 -0.2220
 1013MOL0     H33668   6.771   2.744   2.874  1.7980  0.5418 -2.9233
 1013MOL0     H33669   6.623   3.099   2.866 -3.1757 -0.2996 -3.0965
 1013MOL0     H33670   6.265   3.080   2.931 -0.2534 -1.1660  2.0832
 1013MOL0     H33671   6.389   3.207   2.927  0.0754 -0.5221 -0.5022
 1013MOL0     H33672   6.388   3.156   3.195  0.3460 -1.9246  0.9896
 1013MOL0     H33673   6.237   3.071   3.164 -3.5079  1.7831 -0.2724
 1013MOL0     H33674   6.142   3.286   3.051 -0.6780 -0.6134  0.2843
 1013MOL0     H33675   6.142   3.245   3.217  1.6366 -1.2341  0.8575
 1013MOL0     H33676   6.209   3.481   3.108  1.8118  0.4763  0.1165
 1013MOL0     H33677   6.377   3.416   3.097 -0.7505 -0.1811 -1.8299
 1013MOL0     H33678   6.358   3.659   3.156 -0.7222  2.7244  1.3551
 1013MOL0     H33679   6.502   3.818   3.230  2.5507  0.2532  0.9493
 1013MOL0     H33680   6.917   3.921   3.500  1.4694 -0.8285  0.8654
 1013MOL0     H33681   7.068   4.065   3.631  0.0049 -1.6263  3.4970
 1013MOL0     H33682   7.201   4.241   3.920  2.5611 -0.3019 -0.7773
 1013MOL0     H33683   7.185   4.180   3.761  0.0506 -0.3158 -0.9644
 1013MOL0     H33684   7.291   4.013   3.919 -0.1887  1.3402  0.0510
 1013MOL0     H33685   7.164   3.943   3.838  3.6744  0.1405 -0.9427
 1013MOL0     H33686   7.006   3.968   4.043  0.5088 -1.6925 -2.8595
 1013MOL0     H33687   7.126   4.081   4.115 -4.7439  0.2902  1.8007
 1013MOL0     H33688   7.141   3.781   4.074 -2.2781 -0.6588  2.5586
 1013MOL0     H33689   7.287   3.874   4.113 -0.5719 -1.7901  0.9591
 1013MOL0     H33690   7.044   3.854   4.284  0.5800 -2.2123 -1.7278
 1013MOL0     H33691   7.199   3.935   4.312  2.6728 -2.9664  1.8846
 1013MOL0     H33692   7.255   3.657   4.236  3.4686  0.0972  2.3031
 1013MOL0     H33693   7.095   3.656   4.295  0.6397 -1.0391 -0.8964
 1013MOL0     H33694   7.151   3.779   4.504 -1.5577 -2.3718  1.5177
 1013MOL0     H33695   7.206   3.625   4.503 -1.9025  0.3003  0.1012
 1013MOL0     H33696   7.388   3.842   4.403  0.5776 -2.1065 -2.0924
 1013MOL0     H33697   7.428   3.669   4.429 -2.3334 -1.3908  0.5307
 1013MOL0     H33698   6.778   4.135   3.920  1.6201 -0.5044  1.6616
 1013MOL0     H33699   6.610   3.985   3.781  1.0947  0.7489  2.3186
 1013MOL0     H33700   6.586   3.581   3.589  1.9678  1.1332 -0.6069
 1013MOL0     H33701   6.395   3.430   3.509 -0.7832 -1.5739 -1.4975
 1013MOL0     H33702   6.986   3.658   2.425  0.3227  1.2166 -1.8610
 1013MOL0     H33703   7.106   3.876   2.463  5.8283  2.1832 -2.7883
 1013MOL0     H33704   7.594   3.985   2.582 -2.2853  1.3680  2.2517
 1013MOL0     H33705   7.784   4.130   2.532  0.3203  0.6667  0.0696
 1013MOL0     H33706   7.678   4.558   2.532 -0.5963 -3.5026  0.8212
 1013MOL0     H33707   7.693   4.552   2.358 -2.1576  0.3570  1.0499
 1013MOL0     H33708   7.933   4.564   2.382  0.2295  0.8340 -1.7319
 1013MOL0     H33709   7.850   4.705   2.429  0.3560 -2.5025 -0.5755
 1013MOL0     H33710   7.942   4.492   2.617 -3.3702 -0.8944 -2.5652
 1013MOL0     H33711   7.842   4.625   2.664  1.1034  1.4245 -1.2628
 1013MOL0     H33712   8.133   4.615   2.572 -0.4368 -1.5806  0.5795
 1013MOL0     H33713   8.053   4.779   2.573 -0.2835  0.9689  2.9070
 1013MOL0     H33714   8.244   4.687   2.937 -0.7288 -0.0817  0.6347
 1013MOL0     H33715   7.518   4.433   2.395  1.7815  0.1661  1.2948
 1013MOL0     H33716   7.329   4.289   2.439 -0.4689  0.6016  0.8159
 1014MOL0     O33717   4.390   3.363   2.916 -0.3084  0.2766  0.2575
 1014MOL0     C33718   4.299   3.315   2.970  0.3451 -0.2125  0.0277
 1014MOL0     O33719   4.173   3.352   2.948  0.3177  0.2319 -0.6376
 1014MOL0     C33720   4.142   3.465   2.877  0.5612  0.2042  0.6709
 1014MOL0     C33721   4.217   3.585   2.859 -0.4139 -0.6951 -0.2707
 1014MOL0     C33722   4.187   3.678   2.761 -0.1499 -1.2780  0.7324
 1014MOL0     C33723   4.066   3.660   2.686  0.2222  0.3823  1.3099
 1014MOL0     O33724   4.027   3.749   2.587  0.2843 -0.7425 -0.4028
 1014MOL0     C33725   4.110   3.761   2.471 -0.2588  0.5713  0.6414
 1014MOL0     C33726   4.061   3.875   2.382  0.0524  0.2377  0.0039
 1014MOL0     C33727   3.949   3.819   2.299  0.5768 -1.0615  0.4492
 1014MOL0     C33728   3.809   3.832   2.366  0.8023  0.1947  0.0658
 1014MOL0     C33729   3.699   3.859   2.264 -0.3801 -0.1866  0.2142
 1014MOL0     C33730   3.560   3.804   2.318 -0.8347 -0.3156  0.1860
 1014MOL0     C33731   3.455   3.856   2.222  0.5274 -0.1438  0.5934
 1014MOL0     C33732   3.305   3.843   2.272 -0.8848 -0.3729  0.1367
 1014MOL0     N33733   3.293   3.869   2.412 -1.0924 -0.7006 -0.6754
 1014MOL0     C33734   3.286   3.993   2.481  0.3885 -0.0132 -0.3019
 1014MOL0     C33735   3.267   3.973   2.612  0.4781 -0.0500 -0.3616
 1014MOL0     C33736   3.275   4.066   2.728  0.1207  1.1120  0.5301
 1014MOL0     C33737   3.181   4.014   2.845 -0.0838  0.5091  0.0799
 1014MOL0     C33738   3.215   4.082   2.978  1.0715 -0.3037  0.0139
 1014MOL0     C33739   3.196   4.232   2.979 -0.7461  0.0888  0.1722
 1014MOL0     O33740   3.059   4.262   2.952 -0.4156 -1.1436  0.3549
 1014MOL0     C33741   2.959   4.266   3.045 -0.4701 -0.5534  0.2402
 1014MOL0     C33742   2.845   4.208   3.001  0.2398  0.2022  0.4627
 1014MOL0     C33743   2.728   4.210   3.089 -0.4180  0.8625  0.6222
 1014MOL0     C33744   2.733   4.264   3.210  0.4197 -0.9644 -0.2629
 1014MOL0     C33745   2.607   4.288   3.289  0.3219  0.6224 -0.2893
 1014MOL0     O33746   2.619   4.350   3.412  0.0827 -0.3692  1.0216
 1014MOL0     C33747   2.501   4.393   3.469  0.9816  0.1939  0.1298
 1014MOL0     C33748   2.455   4.334   3.586 -0.4948  0.4303 -0.2711
 1014MOL0     C33749   2.322   4.350   3.635 -0.5272  0.2691 -0.5354
 1014MOL0     C33750   2.242   4.442   3.567  0.0126  0.5887 -0.0364
 1014MOL0     O33751   2.112   4.454   3.603  0.6250 -0.2886  0.3488
 1014MOL0     C33752   2.068   4.455   3.738 -0.7281 -1.0876 -0.3479
 1014MOL0     C33753   1.925   4.498   3.748 -0.2476 -1.0083  1.2582
 1014MOL0     C33754   1.881   4.557   3.878  1.2771  0.6031 -0.0101
 1014MOL0     C33755   1.733   4.582   3.886  0.5381  0.0239 -1.0280
 1014MOL0     C33756   1.703   4.658   4.014 -0.3616  0.1226 -0.5801
 1014MOL0     C33757   1.555   4.720   4.006 -0.1023 -0.2039  0.1767
 1014MOL0     C33758   1.504   4.780   4.135  0.0346  0.5771 -1.0180
 1014MOL0     C33759   1.474   4.673   4.245  0.2898  0.4910 -0.0400
 1014MOL0    Cl33760   1.380   4.711   4.385 -0.4247  0.2741  0.3055
 1014MOL0     C33761   2.290   4.510   3.458  0.7570  0.8820  0.7809
 1014MOL0     C33762   2.414   4.474   3.403 -0.9363 -0.8755  0.0781
 1014MOL0     O33763   2.505   4.234   3.247  0.3343 -0.0541  0.0392
 1014MOL0     C33764   2.851   4.310   3.259  0.4622 -0.4057 -0.2762
 1014MOL0     C33765   2.965   4.317   3.181 -0.4272  0.1979  0.0025
 1014MOL0     N33766   3.256   3.833   2.630  0.2749 -0.3204  0.3248
 1014MOL0     N33767   3.276   3.776   2.515 -0.2659 -0.4297 -0.6279
 1014MOL0     C33768   3.988   3.550   2.717 -0.0202  0.1948  0.5246
 1014MOL0     C33769   4.014   3.450   2.805 -0.6329  0.4404  0.3010
 1014MOL0     C33770   4.328   3.196   3.037 -0.4183  0.3502 -0.0844
 1014MOL0     C33771   4.457   3.139   3.047 -0.5312  0.1829 -0.9135
 1014MOL0     C33772   4.480   3.013   3.104 -0.6095  0.2746 -0.6462
 1014MOL0     C33773   4.380   2.940   3.170  0.5121  0.3018 -1.1299
 1014MOL0     O33774   4.397   2.811   3.216  0.3309  0.3486 -0.4526
 1014MOL0     C33775   4.467   2.712   3.144 -0.2653  0.6129  0.0988
 1014MOL0     C33776   4.442   2.708   2.997 -1.0553  0.8389 -0.4892
 1014MOL0     C33777   4.294   2.681   2.960 -0.0824 -1.0266  0.6610
 1014MOL0     C33778   4.267   2.554   2.874 -0.2962 -0.2274 -0.7848
 1014MOL0     C33779   4.290   2.436   2.955 -0.0125  0.3810  0.4839
 1014MOL0     C33780   4.332   2.341   3.026 -0.0624 -0.5406  0.1945
 1014MOL0     C33781   4.255   2.999   3.175 -0.2903 -0.7646 -0.3711
 1014MOL0     C33782   4.227   3.120   3.100 -1.4766  0.3140 -0.1229
 1014MOL0     H33783   4.308   3.596   2.917 -0.9740  0.3677  0.4298
 1014MOL0     H33784   4.255   3.755   2.725  1.6786 -3.8149 -1.7031
 1014MOL0     H33785   4.131   3.670   2.414  0.7089  1.2076 -0.0399
 1014MOL0     H33786   4.210   3.775   2.512 -0.7957  0.4148  2.0947
 1014MOL0     H33787   4.150   3.899   2.321 -0.6909  0.4962 -1.0082
 1014MOL0     H33788   4.028   3.966   2.432  1.0400 -0.1993  1.5079
 1014MOL0     H33789   3.962   3.719   2.257 -3.0780 -0.4235 -2.7464
 1014MOL0     H33790   3.949   3.888   2.215 -3.4257  1.4384  2.2034
 1014MOL0     H33791   3.789   3.742   2.425  1.7996  0.3113  0.6053
 1014MOL0     H33792   3.813   3.914   2.438 -2.2308 -0.1476  0.7537
 1014MOL0     H33793   3.720   3.828   2.161 -0.4285  1.8751 -0.4627
 1014MOL0     H33794   3.686   3.968   2.263 -2.2259 -0.3527  1.2796
 1014MOL0     H33795   3.542   3.859   2.411  0.9768  0.8258 -0.0873
 1014MOL0     H33796   3.558   3.696   2.332 -3.1464 -0.3356  0.0301
 1014MOL0     H33797   3.465   3.963   2.199  0.1803  0.3378  2.4901
 1014MOL0     H33798   3.470   3.797   2.132  3.9137 -0.8467  1.4998
 1014MOL0     H33799   3.286   3.736   2.258  3.2408 -1.0198 -2.4032
 1014MOL0     H33800   3.230   3.887   2.205 -2.7432 -5.6555 -1.8108
 1014MOL0     H33801   3.308   4.088   2.433  0.8639  0.0892  0.1146
 1014MOL0     H33802   3.216   4.152   2.696  2.9198  3.1807  0.5842
 1014MOL0     H33803   3.377   4.094   2.754  0.2165  2.0366 -0.7706
 1014MOL0     H33804   3.198   3.907   2.858 -0.4060  0.4085 -0.3133
 1014MOL0     H33805   3.075   4.039   2.834 -0.9179 -1.3204  3.0248
 1014MOL0     H33806   3.163   4.042   3.065  1.9151 -0.8588  0.2723
 1014MOL0     H33807   3.320   4.055   2.988  0.3259 -4.1303 -0.8661
 1014MOL0     H33808   3.258   4.265   2.896 -1.4396 -0.8393 -0.7345
 1014MOL0     H33809   3.220   4.269   3.079 -0.0764 -2.1163  0.8764
 1014MOL0     H33810   2.831   4.148   2.912 -2.4263 -1.6709  1.9825
 1014MOL0     H33811   2.638   4.154   3.068 -0.1867  0.0433  1.6697
 1014MOL0     H33812   2.528   4.273   3.638 -0.9372 -0.6673 -0.9140
 1014MOL0     H33813   2.289   4.290   3.720  2.8122 -0.2959  0.5082
 1014MOL0     H33814   2.122   4.527   3.800 -0.2903 -1.1247 -0.6869
 1014MOL0     H33815   2.084   4.360   3.790 -1.0170 -0.6487  0.5637
 1014MOL0     H33816   1.854   4.424   3.709  0.0160 -0.1198 -1.0502
 1014MOL0     H33817   1.913   4.575   3.670 -2.8815 -0.7349  1.8220
 1014MOL0     H33818   1.935   4.649   3.903  0.8976  0.5713  0.9536
 1014MOL0     H33819   1.908   4.480   3.950 -3.3212 -0.0270  1.3356
 1014MOL0     H33820   1.689   4.626   3.796 -0.8383 -1.4415 -1.1278
 1014MOL0     H33821   1.672   4.491   3.896 -0.6901  0.8921 -0.2662
 1014MOL0     H33822   1.779   4.736   4.026 -0.2387  0.0930 -1.1359
 1014MOL0     H33823   1.713   4.582   4.092 -2.2740 -1.6659 -1.9530
 1014MOL0     H33824   1.482   4.648   3.969 -1.5368  1.6964 -0.8863
 1014MOL0     H33825   1.555   4.804   3.936 -1.1976 -1.6333 -1.6293
 1014MOL0     H33826   1.571   4.858   4.172  1.9218 -1.1198 -0.6884
 1014MOL0     H33827   1.409   4.826   4.106 -0.3238  0.4157 -0.1336
 1014MOL0     H33828   1.562   4.619   4.284 -0.0777  0.4770  0.7834
 1014MOL0     H33829   1.411   4.601   4.192  1.2927  0.2423 -0.9337
 1014MOL0     H33830   2.219   4.576   3.408 -1.4809 -2.3601 -0.7020
 1014MOL0     H33831   2.455   4.514   3.311  1.1240  0.7482  1.6043
 1014MOL0     H33832   2.855   4.340   3.363 -0.6282 -0.5879 -0.1654
 1014MOL0     H33833   3.061   4.339   3.225 -0.8613 -0.9307  1.5813
 1014MOL0     H33834   3.901   3.524   2.658 -0.0874 -1.5896  1.3409
 1014MOL0     H33835   3.952   3.364   2.826 -1.6629  1.0209 -0.2414
 1014MOL0     H33836   4.544   3.194   3.013 -2.1154  2.8294 -0.9486
 1014MOL0     H33837   4.582   2.978   3.106  0.3238  2.7404 -1.2617
 1014MOL0     H33838   4.451   2.612   3.186  1.6627 -0.6863 -2.0044
 1014MOL0     H33839   4.576   2.719   3.154  0.1969 -2.5052 -1.6291
 1014MOL0     H33840   4.464   2.805   2.951  1.7414  1.5501  2.0272
 1014MOL0     H33841   4.510   2.637   2.949  0.8785  0.7000  2.2314
 1014MOL0     H33842   4.255   2.767   2.905 -1.0990 -2.0001 -0.1526
 1014MOL0     H33843   4.228   2.666   3.046 -0.7140  0.3121  0.4400
 1014MOL0     H33844   4.161   2.540   2.854  0.3052 -3.9528 -2.0613
 1014MOL0     H33845   4.327   2.546   2.783 -0.4933  0.5424 -0.9931
 1014MOL0     H33846   4.368   2.249   3.066  0.7007  0.0356  0.8660
 1014MOL0     H33847   4.168   2.955   3.223 -0.9083  0.2232 -0.5639
 1014MOL0     H33848   4.127   3.163   3.107 -1.5410  0.1304  0.1170
 1015MOL0     O33849   6.849   9.373  11.372  0.0397 -0.3994  0.7757
 1015MOL0     C33850   6.746   9.304  11.333 -0.2800  0.2008 -0.2238
 1015MOL0     O33851   6.745   9.234  11.217  0.9100  0.1539 -0.5048
 1015MOL0     C33852   6.857   9.203  11.151  0.0046 -0.1854  0.1953
 1015MOL0     C33853   6.989   9.190  11.203 -0.6461 -0.6139 -0.0903
 1015MOL0     C33854   7.094   9.148  11.120 -0.0986 -0.6101 -0.2752
 1015MOL0     C33855   7.079   9.140  10.982 -0.0313  0.6191 -0.2536
 1015MOL0     O33856   7.182   9.112  10.898 -0.1863  0.7509  0.0447
 1015MOL0     C33857   7.290   9.029  10.941 -1.1934 -0.3752 -0.3642
 1015MOL0     C33858   7.400   9.045  10.843  0.1090  0.4302 -0.8086
 1015MOL0     C33859   7.514   8.947  10.865 -0.1707 -0.5824 -0.5287
 1015MOL0     C33860   7.592   8.956  10.996 -0.4418  0.1438  0.4184
 1015MOL0     C33861   7.724   8.875  10.991 -0.3170  0.1545 -0.4213
 1015MOL0     C33862   7.708   8.737  10.931 -0.0820  0.6098  0.4616
 1015MOL0     C33863   7.824   8.642  10.954  0.4530 -0.2690 -0.1282
 1015MOL0     C33864   7.848   8.616  11.097  0.5118 -0.4477 -1.0865
 1015MOL0     N33865   7.739   8.565  11.186  0.3154 -0.5681  1.1917
 1015MOL0     C33866   7.660   8.458  11.163  0.8195  0.0606  0.1800
 1015MOL0     C33867   7.561   8.461  11.259  0.0452  0.3730  0.8522
 1015MOL0     C33868   7.482   8.340  11.285  0.6644 -0.6062  0.7475
 1015MOL0     C33869   7.542   8.223  11.340 -0.1557  0.4862  0.8084
 1015MOL0     C33870   7.616   8.256  11.465  0.0364 -0.5446 -0.1100
 1015MOL0     C33871   7.632   8.144  11.555  0.6021 -0.4863 -0.2626
 1015MOL0     O33872   7.628   8.185  11.691 -0.0035 -0.4975 -0.2756
 1015MOL0     C33873   7.516   8.151  11.764 -0.5383  0.3715 -0.0497
 1015MOL0     C33874   7.388   8.193  11.745 -0.4383 -0.0498 -1.1962
 1015MOL0     C33875   7.285   8.154  11.836 -0.1961  0.1766  0.3810
 1015MOL0     C33876   7.321   8.080  11.957  0.2757 -0.0032  0.3120
 1015MOL0     C33877   7.222   8.055  12.064  0.6174 -0.7373 -0.3437
 1015MOL0     O33878   7.091   8.030  12.023  0.2184 -0.4969 -0.0176
 1015MOL0     C33879   6.979   8.004  12.099  0.7087 -1.0696 -0.2449
 1015MOL0     C33880   6.971   8.019  12.241 -0.8706  0.4227  0.4913
 1015MOL0     C33881   6.855   7.968  12.306  0.8593  0.2108 -0.5547
 1015MOL0     C33882   6.751   7.893  12.240 -0.5670 -0.3356  0.1329
 1015MOL0     O33883   6.642   7.849  12.312 -0.5951 -0.0430  0.0164
 1015MOL0     C33884   6.573   7.934  12.405  0.1429 -0.2260  0.6359
 1015MOL0     C33885   6.480   7.858  12.493  0.6273 -1.1179 -0.2162
 1015MOL0     C33886   6.416   7.938  12.611 -0.0658  0.7643 -0.4393
 1015MOL0     C33887   6.278   7.964  12.583  0.0311 -0.0548 -0.4630
 1015MOL0     C33888   6.192   8.030  12.699 -0.2588 -0.9186  0.0075
 1015MOL0     C33889   6.063   8.108  12.655  0.8201 -0.3812  0.1952
 1015MOL0     C33890   5.996   8.168  12.781  1.2318  0.2882  0.4701
 1015MOL0     C33891   5.903   8.273  12.716  0.1816 -0.0501  0.5928
 1015MOL0    Cl33892   5.768   8.329  12.828  0.3412  0.2457  0.0207
 1015MOL0     C33893   6.763   7.873  12.104 -0.6227  0.1426  0.7019
 1015MOL0     C33894   6.868   7.937  12.037 -0.4576 -0.1686 -0.0877
 1015MOL0     O33895   7.266   8.049  12.178  0.5480 -0.1437  0.3793
 1015MOL0     C33896   7.450   8.028  11.961  0.2786 -0.3654  0.5207
 1015MOL0     C33897   7.547   8.063  11.864 -0.6977  0.7416  0.1445
 1015MOL0     N33898   7.595   8.569  11.342 -0.3678 -0.5265  0.4178
 1015MOL0     N33899   7.689   8.642  11.285  1.0545  0.0211  0.3280
 1015MOL0     C33900   6.956   9.159  10.928  0.0722  1.2946 -0.3785
 1015MOL0     C33901   6.847   9.185  11.011 -0.6432  0.2041 -0.2405
 1015MOL0     C33902   6.633   9.285  11.434 -0.4179 -0.9890 -0.0106
 1015MOL0     C33903   6.657   9.312  11.579  0.0001  1.1952  0.1171
 1015MOL0     C33904   6.563   9.294  11.674  0.7260 -0.9551  0.5127
 1015MOL0     C33905   6.435   9.247  11.640 -0.0160  0.4958  0.5431
 1015MOL0     O33906   6.341   9.211  11.734 -0.1711 -0.0793 -0.4076
 1015MOL0     C33907   6.369   9.202  11.870 -0.1001 -0.5648  0.3686
 1015MOL0     C33908   6.240   9.216  11.945  0.4362  0.9599 -0.4166
 1015MOL0     C33909   6.159   9.090  11.923  0.4064 -0.0624  0.2065
 1015MOL0     C33910   6.016   9.121  11.966 -0.5478  0.3641 -1.0053
 1015MOL0     C33911   5.921   9.010  11.944  0.4019 -0.3948 -0.1060
 1015MOL0     C33912   5.843   8.921  11.914 -0.3277 -0.3422 -0.1478
 1015MOL0     C33913   6.410   9.227  11.497  0.3012 -0.5263  0.6302
 1015MOL0     C33914   6.506   9.246  11.399 -0.3564 -0.0122 -0.7077
 1015MOL0     H33915   7.018   9.194  11.307  0.3111 -1.1056 -0.3224
 1015MOL0     H33916   7.190   9.124  11.165  1.0092  2.7051 -0.5970
 1015MOL0     H33917   7.262   8.924  10.935  1.5834 -1.2222 -0.1079
 1015MOL0     H33918   7.326   9.054  11.041 -1.0911 -0.1862 -0.4473
 1015MOL0     H33919   7.458   9.137  10.859 -2.8452  1.9194  3.0153
 1015MOL0     H33920   7.355   9.039  10.744 -4.6329  0.1310  1.0900
 1015MOL0     H33921   7.587   8.969  10.787 -0.3095  0.9582 -0.2550
 1015MOL0     H33922   7.482   8.844  10.845  0.7842 -0.3743 -3.5850
 1015MOL0     H33923   7.612   9.063  11.013  4.6275  0.2866 -3.9883
 1015MOL0     H33924   7.543   8.904  11.079 -0.4552 -3.7169 -1.7828
 1015MOL0     H33925   7.741   8.871  11.099  3.1321  1.9432 -0.7771
 1015MOL0     H33926   7.801   8.932  10.940  0.8397  0.2677  1.3821
 1015MOL0     H33927   7.688   8.748  10.824  0.4211 -1.7657  0.0539
 1015MOL0     H33928   7.624   8.700  10.989  0.7395 -1.1818  0.5839
 1015MOL0     H33929   7.794   8.544  10.914  1.2224 -0.2815 -0.6996
 1015MOL0     H33930   7.915   8.678  10.905  0.3622  2.3899  1.4687
 1015MOL0     H33931   7.892   8.698  11.153 -0.9546  0.8397 -1.7545
 1015MOL0     H33932   7.926   8.540  11.090 -0.4302 -1.6358  0.6344
 1015MOL0     H33933   7.680   8.372  11.100  4.6766  2.5416 -2.4945
 1015MOL0     H33934   7.425   8.322  11.193 -0.0710  4.6450 -0.1540
 1015MOL0     H33935   7.409   8.374  11.360  3.3429  0.9314  2.8539
 1015MOL0     H33936   7.609   8.182  11.265 -1.5570  4.6596 -3.1513
 1015MOL0     H33937   7.457   8.154  11.356 -2.3085  3.3087  2.5709
 1015MOL0     H33938   7.708   8.306  11.434  0.5443 -1.2721  0.2000
 1015MOL0     H33939   7.546   8.323  11.517  0.4019  0.9361 -1.4387
 1015MOL0     H33940   7.728   8.100  11.526  0.2669 -1.9725  0.7526
 1015MOL0     H33941   7.559   8.066  11.531 -0.3067  0.2475  0.0618
 1015MOL0     H33942   7.366   8.247  11.653  6.1699  1.5394 -2.4052
 1015MOL0     H33943   7.184   8.191  11.822 -0.4043 -0.6221 -0.3499
 1015MOL0     H33944   7.048   8.066  12.302  1.6337 -0.2515 -1.9518
 1015MOL0     H33945   6.850   7.997  12.410  0.5682  0.1767 -0.5573
 1015MOL0     H33946   6.532   8.019  12.349  3.5698  1.7512  0.8160
 1015MOL0     H33947   6.648   7.981  12.471 -1.8515  1.9733  1.4710
 1015MOL0     H33948   6.549   7.788  12.541 -2.4487 -3.0162  1.7896
 1015MOL0     H33949   6.405   7.810  12.430 -0.2490 -0.5875  0.3969
 1015MOL0     H33950   6.458   8.039  12.618 -2.5530  1.7810  1.2411
 1015MOL0     H33951   6.438   7.879  12.700  3.8424  2.7952  0.1816
 1015MOL0     H33952   6.266   8.035  12.501 -4.1502  0.3375  0.2744
 1015MOL0     H33953   6.224   7.871  12.560  1.0279 -1.1224  1.2810
 1015MOL0     H33954   6.259   8.102  12.749 -0.0599 -1.3120  0.3199
 1015MOL0     H33955   6.153   7.958  12.772  1.8570 -0.5744  1.6026
 1015MOL0     H33956   5.994   8.046  12.597 -1.1074  2.1422 -0.3786
 1015MOL0     H33957   6.077   8.202  12.601  0.5861  2.4444  4.5213
 1015MOL0     H33958   5.931   8.093  12.828  3.3075 -0.4085  2.4062
 1015MOL0     H33959   6.066   8.203  12.857 -0.2182  0.9861  1.5430
 1015MOL0     H33960   5.855   8.236  12.624 -2.2333  3.9674  0.0018
 1015MOL0     H33961   5.966   8.356  12.685 -0.6152 -0.1172 -1.3367
 1015MOL0     H33962   6.679   7.828  12.051  0.6314  1.2752 -2.5000
 1015MOL0     H33963   6.875   7.939  11.929  1.9018  1.0805 -0.0010
 1015MOL0     H33964   7.474   7.954  12.038 -2.0520 -3.2210 -1.2921
 1015MOL0     H33965   7.647   8.022  11.865 -1.8062 -2.1777 -0.0906
 1015MOL0     H33966   6.933   9.143  10.823  0.4957 -1.1357 -0.1741
 1015MOL0     H33967   6.755   9.192  10.954  0.0192  0.1471 -1.3448
 1015MOL0     H33968   6.762   9.329  11.601 -0.3276  1.1146  1.8926
 1015MOL0     H33969   6.584   9.324  11.776 -2.6575  2.4250  0.4484
 1015MOL0     H33970   6.432   9.279  11.916 -1.0977 -0.8645  2.3461
 1015MOL0     H33971   6.408   9.101  11.883  2.9964  0.1747 -2.0502
 1015MOL0     H33972   6.257   9.209  12.053 -1.2228 -1.9285 -0.2266
 1015MOL0     H33973   6.180   9.304  11.922 -4.2356 -1.8847 -0.3153
 1015MOL0     H33974   6.209   9.011  11.980 -0.3696 -2.1079 -1.8160
 1015MOL0     H33975   6.161   9.063  11.818 -0.1221 -1.2156  0.4810
 1015MOL0     H33976   5.998   9.155  12.068 -0.5721 -1.6001 -0.3124
 1015MOL0     H33977   5.989   9.209  11.906 -1.5010 -0.0142 -1.1405
 1015MOL0     H33978   5.784   8.833  11.901 -1.1784  0.1520  0.3069
 1015MOL0     H33979   6.305   9.200  11.497  0.4745 -1.3165  2.0829
 1015MOL0     H33980   6.489   9.220  11.295 -1.4890 -2.1892 -0.0414
 1016MOL0     O33981   0.835   3.376   7.269 -0.3604 -0.3042 -0.2875
 1016MOL0     C33982   0.814   3.284   7.202 -0.2839 -0.2638  0.8363
 1016MOL0     O33983   0.905   3.187   7.154 -0.3810  0.0781  0.0281
 1016MOL0     C33984   1.045   3.213   7.161 -0.8390 -1.0090  0.2739
 1016MOL0     C33985   1.121   3.099   7.173  0.0564  0.3013  0.3135
 1016MOL0     C33986   1.263   3.107   7.178  0.3028  1.0540  0.2861
 1016MOL0     C33987   1.330   3.225   7.170  0.4668  0.6180  0.7249
 1016MOL0     O33988   1.469   3.217   7.173  0.5081  0.5781 -0.0886
 1016MOL0     C33989   1.539   3.279   7.281  0.0597 -0.0486 -0.8494
 1016MOL0     C33990   1.523   3.209   7.417  0.4097  0.0278 -0.2678
 1016MOL0     C33991   1.573   3.284   7.542  1.2531  0.0884  0.8938
 1016MOL0     C33992   1.718   3.319   7.552  0.6000  0.9318 -0.1385
 1016MOL0     C33993   1.741   3.397   7.680  0.0434  0.3208  0.3629
 1016MOL0     C33994   1.733   3.307   7.802 -0.2667 -0.1638 -0.7904
 1016MOL0     C33995   1.823   3.364   7.914  0.6030  0.2839  0.0973
 1016MOL0     C33996   1.951   3.278   7.923  0.1616 -1.3412 -0.2318
 1016MOL0     N33997   2.073   3.347   7.871  0.4723 -0.0278  0.4128
 1016MOL0     C33998   2.107   3.472   7.920  0.5291  0.6991 -0.7593
 1016MOL0     C33999   2.206   3.516   7.841 -0.2324  0.0487  0.3001
 1016MOL0     C34000   2.284   3.647   7.858 -0.0688  0.5430  1.1453
 1016MOL0     C34001   2.405   3.603   7.945  0.6986 -0.6286 -0.1415
 1016MOL0     C34002   2.519   3.707   7.971 -0.5192 -0.2399 -0.1375
 1016MOL0     C34003   2.463   3.841   8.013 -0.1255  0.8102 -0.0321
 1016MOL0     O34004   2.562   3.941   8.047 -0.3585 -0.2789  0.6194
 1016MOL0     C34005   2.609   3.942   8.179  0.1862 -0.0036 -0.6821
 1016MOL0     C34006   2.588   3.848   8.284 -0.6103 -0.0423  0.3243
 1016MOL0     C34007   2.636   3.863   8.420  0.5941  0.9956  0.6694
 1016MOL0     C34008   2.704   3.974   8.452 -0.6528 -0.6167 -0.6727
 1016MOL0     C34009   2.765   3.992   8.584  0.0641  0.5460  0.3283
 1016MOL0     O34010   2.841   4.110   8.601 -0.1956  0.2337 -0.8199
 1016MOL0     C34011   2.921   4.120   8.714  0.6866  0.4836  0.1698
 1016MOL0     C34012   2.868   4.119   8.840  0.3253 -0.8934 -0.5151
 1016MOL0     C34013   2.952   4.152   8.945  0.4753 -0.1228  0.8399
 1016MOL0     C34014   3.092   4.172   8.925  0.1974  0.3958 -0.2266
 1016MOL0     O34015   3.173   4.197   9.031 -0.3194  0.6605 -1.4804
 1016MOL0     C34016   3.119   4.195   9.160 -0.2009  0.0829 -0.1947
 1016MOL0     C34017   3.218   4.243   9.257 -0.9213 -0.5564  0.4453
 1016MOL0     C34018   3.201   4.213   9.402  1.2829  0.6113  0.3827
 1016MOL0     C34019   3.047   4.201   9.438 -0.6018 -0.2171 -0.5195
 1016MOL0     C34020   3.043   4.207   9.591  0.8322 -0.2743  0.3625
 1016MOL0     C34021   2.894   4.174   9.647  0.8319 -0.0932  0.9063
 1016MOL0     C34022   2.789   4.283   9.626 -0.0889 -0.0457  0.0912
 1016MOL0     C34023   2.686   4.279   9.734 -0.7503 -0.6142  0.1858
 1016MOL0    Cl34024   2.611   4.108   9.729  0.5243 -0.0293  0.3604
 1016MOL0     C34025   3.140   4.166   8.785 -1.5219 -0.4384 -1.5601
 1016MOL0     C34026   3.056   4.143   8.680 -0.1771 -0.8402 -0.9175
 1016MOL0     O34027   2.729   3.912   8.673  0.1149 -0.0691  0.6531
 1016MOL0     C34028   2.731   4.070   8.345  0.6255 -0.3584 -0.5351
 1016MOL0     C34029   2.693   4.056   8.216 -0.8272  0.7890 -0.3562
 1016MOL0     N34030   2.233   3.409   7.749  0.4755 -0.0249  0.3436
 1016MOL0     N34031   2.152   3.316   7.770 -0.1037  0.3394  0.2185
 1016MOL0     C34032   1.255   3.347   7.164  0.0170 -0.2641  0.9230
 1016MOL0     C34033   1.114   3.338   7.156  1.1502  0.3491  0.3759
 1016MOL0     C34034   0.670   3.257   7.192 -0.6651 -0.1530 -0.4606
 1016MOL0     C34035   0.627   3.151   7.113  0.4994  0.8631  0.7189
 1016MOL0     C34036   0.497   3.134   7.065  0.6268  0.5577 -1.0091
 1016MOL0     C34037   0.398   3.218   7.121 -0.0538 -1.0364 -0.9701
 1016MOL0     O34038   0.263   3.225   7.094 -1.2235 -0.1500 -0.0308
 1016MOL0     C34039   0.214   3.149   6.982  0.3631  1.1144  1.6060
 1016MOL0     C34040   0.090   3.207   6.923 -0.1710  0.2293  0.6593
 1016MOL0     C34041  -0.016   3.233   7.031  1.3567  0.0306  0.2639
 1016MOL0     C34042  -0.135   3.307   6.960  1.5950  0.3821 -0.2245
 1016MOL0     C34043  -0.249   3.317   7.056 -0.2733  0.3393  0.1164
 1016MOL0     C34044  -0.343   3.340   7.131  1.2534  0.4198 -0.3481
 1016MOL0     C34045   0.430   3.323   7.208 -0.7688 -0.6374 -0.2834
 1016MOL0     C34046   0.566   3.344   7.233  0.7823 -0.0422 -0.1198
 1016MOL0     H34047   1.067   3.006   7.161 -0.8869  1.0447 -1.8685
 1016MOL0     H34048   1.320   3.015   7.169  2.1543  2.2994 -1.8245
 1016MOL0     H34049   1.499   3.380   7.296 -1.1743 -0.7659  0.9237
 1016MOL0     H34050   1.640   3.295   7.244 -0.2199  2.8221 -0.6003
 1016MOL0     H34051   1.576   3.113   7.412 -2.3805 -1.7775  1.5567
 1016MOL0     H34052   1.414   3.198   7.423  0.5395 -0.4374  2.8867
 1016MOL0     H34053   1.541   3.216   7.621 -1.4290 -1.1219 -1.0897
 1016MOL0     H34054   1.511   3.373   7.551  0.3111 -0.5305  0.6391
 1016MOL0     H34055   1.782   3.230   7.554  0.7747  0.9901 -2.0424
 1016MOL0     H34056   1.749   3.384   7.470 -3.0715  4.5846  1.0311
 1016MOL0     H34057   1.666   3.475   7.693  1.8458  2.2186 -0.1808
 1016MOL0     H34058   1.840   3.443   7.676 -0.3562  1.2002  0.5062
 1016MOL0     H34059   1.766   3.212   7.758  0.0443  0.4611 -1.9410
 1016MOL0     H34060   1.629   3.297   7.834 -0.0140  1.0773  0.5191
 1016MOL0     H34061   1.832   3.472   7.896  1.5048 -0.2406 -3.5595
 1016MOL0     H34062   1.764   3.356   8.005 -0.8057  1.1559 -0.6980
 1016MOL0     H34063   1.946   3.185   7.865  1.6503  0.1002 -2.8883
 1016MOL0     H34064   1.964   3.251   8.028 -2.1937  2.1420  1.1102
 1016MOL0     H34065   2.078   3.511   8.017 -1.1180  1.8216 -1.6564
 1016MOL0     H34066   2.221   3.724   7.901 -0.2554  1.0263  0.0457
 1016MOL0     H34067   2.316   3.680   7.759  1.3216 -1.8093  0.7247
 1016MOL0     H34068   2.447   3.507   7.913  2.4195 -0.7658  2.2425
 1016MOL0     H34069   2.361   3.586   8.044  1.0781  2.0681  0.5557
 1016MOL0     H34070   2.592   3.675   8.046 -0.0421  0.6695 -0.1988
 1016MOL0     H34071   2.569   3.726   7.875 -1.1157 -1.5282 -0.7283
 1016MOL0     H34072   2.392   3.826   8.095  0.8613  2.2654  1.1377
 1016MOL0     H34073   2.400   3.878   7.931 -0.2702  3.1951  1.0754
 1016MOL0     H34074   2.527   3.760   8.264 -0.4355 -0.6228  2.1520
 1016MOL0     H34075   2.618   3.792   8.500  3.9112 -0.0425  0.6489
 1016MOL0     H34076   2.761   4.106   8.852  0.2811  0.1801  0.4470
 1016MOL0     H34077   2.903   4.141   9.041 -1.0263 -1.6786 -0.0420
 1016MOL0     H34078   3.084   4.096   9.191 -0.0711  1.1451  3.9820
 1016MOL0     H34079   3.031   4.258   9.177 -1.7022 -1.7938 -0.6751
 1016MOL0     H34080   3.214   4.353   9.253  3.2587 -0.2493 -2.4301
 1016MOL0     H34081   3.320   4.218   9.224 -0.4765 -0.8230  1.9303
 1016MOL0     H34082   3.256   4.286   9.463 -1.6547  2.9709  0.4685
 1016MOL0     H34083   3.232   4.114   9.435 -1.8560  0.1888  2.5349
 1016MOL0     H34084   2.982   4.284   9.410  0.3448  0.6496 -0.2252
 1016MOL0     H34085   2.999   4.109   9.404  2.6217 -1.9816 -0.6136
 1016MOL0     H34086   3.075   4.305   9.626 -1.8007  1.3595 -1.4677
 1016MOL0     H34087   3.108   4.132   9.637 -1.0001 -1.9220  0.4156
 1016MOL0     H34088   2.916   4.158   9.753  3.5287  1.5506  0.6933
 1016MOL0     H34089   2.861   4.082   9.599 -1.2881 -1.0008  3.8191
 1016MOL0     H34090   2.840   4.379   9.615  2.9075 -1.2504  2.3870
 1016MOL0     H34091   2.741   4.265   9.529 -0.6724  1.0362  0.1621
 1016MOL0     H34092   2.600   4.346   9.723  0.9858  2.8846  4.6138
 1016MOL0     H34093   2.740   4.303   9.826  2.9298  2.1248 -2.3800
 1016MOL0     H34094   3.245   4.183   8.764 -1.2903 -0.5523 -0.5487
 1016MOL0     H34095   3.100   4.143   8.580  1.5564 -0.5249 -0.1796
 1016MOL0     H34096   2.779   4.165   8.364  0.7485 -0.3072 -1.0764
 1016MOL0     H34097   2.705   4.134   8.142  0.9378 -1.5060 -2.6955
 1016MOL0     H34098   1.302   3.445   7.161 -1.2268  0.4692  3.0288
 1016MOL0     H34099   1.047   3.424   7.153  2.0376  1.0578  0.3750
 1016MOL0     H34100   0.694   3.068   7.090  0.7817  1.7952 -2.2669
 1016MOL0     H34101   0.456   3.057   7.000  3.2095 -0.7195 -1.2269
 1016MOL0     H34102   0.183   3.052   7.021 -0.5916  0.8228  0.2030
 1016MOL0     H34103   0.279   3.135   6.896 -2.4946 -0.7987 -0.4334
 1016MOL0     H34104   0.121   3.290   6.859 -2.4639  0.2527 -0.5370
 1016MOL0     H34105   0.041   3.132   6.859  1.1505 -1.4982  1.5897
 1016MOL0     H34106   0.017   3.301   7.110 -2.9652  2.9865 -0.0961
 1016MOL0     H34107  -0.047   3.145   7.087  1.9874 -1.2381 -1.2880
 1016MOL0     H34108  -0.112   3.406   6.920  0.2657  0.4347 -0.9056
 1016MOL0     H34109  -0.177   3.260   6.871  2.1949  0.6312 -0.6421
 1016MOL0     H34110  -0.423   3.355   7.201  0.8459 -0.4453 -0.6145
 1016MOL0     H34111   0.353   3.394   7.234 -2.6960 -2.1928 -1.5078
 1016MOL0     H34112   0.581   3.439   7.283 -2.4015  0.0426  0.9499
 1017MOL0     O34113   8.574   5.025   4.847  0.0650  0.0083 -0.8264
 1017MOL0     C34114   8.674   5.095   4.846 -0.7804 -0.0804  0.3171
 1017MOL0     O34115   8.682   5.230   4.891  0.1947  0.3771 -1.0137
 1017MOL0     C34116   8.568   5.296   4.929 -0.2795  0.0266  0.3352
 1017MOL0     C34117   8.594   5.426   4.907  0.6763  0.1879  0.1070
 1017MOL0     C34118   8.493   5.520   4.940  0.5683 -0.0192 -0.4047
 1017MOL0     C34119   8.377   5.476   5.012 -0.3225  0.2667  0.9274
 1017MOL0     O34120   8.287   5.570   5.045  0.3441 -0.0711 -0.4457
 1017MOL0     C34121   8.257   5.581   5.187 -0.1330 -0.4218 -0.4676
 1017MOL0     C34122   8.107   5.573   5.202  0.8998  1.2068 -0.5003
 1017MOL0     C34123   8.030   5.626   5.332 -0.0084  0.2312 -0.4034
 1017MOL0     C34124   7.889   5.569   5.348  0.0927 -0.2981  0.7332
 1017MOL0     C34125   7.845   5.543   5.494  0.1385 -0.4654  0.6952
 1017MOL0     C34126   7.861   5.664   5.583 -0.2141 -0.6618 -0.1825
 1017MOL0     C34127   7.785   5.633   5.709  0.3594  0.1087  0.6315
 1017MOL0     C34128   7.828   5.727   5.820  1.1537 -0.4801 -0.0260
 1017MOL0     N34129   7.782   5.705   5.951  0.0491  0.5610 -0.3113
 1017MOL0     C34130   7.790   5.797   6.057 -0.9964 -0.1581 -0.2494
 1017MOL0     C34131   7.698   5.762   6.153  0.2577 -0.4679  0.2950
 1017MOL0     C34132   7.667   5.845   6.277 -0.7331  0.1497 -0.0335
 1017MOL0     C34133   7.740   5.799   6.401  0.5403  0.7416  0.0529
 1017MOL0     C34134   7.690   5.865   6.536 -1.2535 -0.6516  0.7765
 1017MOL0     C34135   7.756   5.806   6.656 -0.4991 -0.0094 -0.7751
 1017MOL0     O34136   7.706   5.864   6.778 -0.6993  0.6318 -0.0228
 1017MOL0     C34137   7.756   5.988   6.812 -0.4607  0.8355 -1.0617
 1017MOL0     C34138   7.841   6.071   6.748  0.3253  0.4728  0.5543
 1017MOL0     C34139   7.879   6.191   6.790  0.3096  0.2544  0.0514
 1017MOL0     C34140   7.839   6.236   6.913  0.6927 -0.6904  0.2069
 1017MOL0     C34141   7.886   6.368   6.958 -0.5218 -0.7567  0.3585
 1017MOL0     O34142   7.850   6.404   7.089 -0.1289  0.5084 -0.5217
 1017MOL0     C34143   7.870   6.531   7.147  0.0968  0.0762 -0.3603
 1017MOL0     C34144   7.906   6.537   7.275 -0.5218 -1.0547  0.0342
 1017MOL0     C34145   7.898   6.649   7.349  0.3168 -0.3109 -0.0631
 1017MOL0     C34146   7.883   6.774   7.281 -0.1623  0.7376 -0.8495
 1017MOL0     O34147   7.906   6.896   7.340 -1.0143  0.3682 -0.3783
 1017MOL0     C34148   7.865   6.918   7.469 -0.4723  0.3994 -1.1779
 1017MOL0     C34149   7.821   7.059   7.479  0.2789 -0.4154 -0.3329
 1017MOL0     C34150   7.686   7.077   7.410  0.5229  0.0875  0.6269
 1017MOL0     C34151   7.567   7.093   7.510  0.2040 -0.0911 -0.0989
 1017MOL0     C34152   7.483   7.223   7.518 -0.8875 -0.2044 -0.2414
 1017MOL0     C34153   7.385   7.206   7.625  0.2680 -0.3856 -0.5295
 1017MOL0     C34154   7.317   7.335   7.672 -0.0605 -1.2231  0.5579
 1017MOL0     C34155   7.184   7.310   7.757 -0.7922 -0.4493 -0.8798
 1017MOL0    Cl34156   7.188   7.279   7.932 -0.2799 -0.6745 -0.0217
 1017MOL0     C34157   7.854   6.771   7.145 -0.3789 -0.0443 -0.8004
 1017MOL0     C34158   7.837   6.650   7.080 -1.1150  0.9750 -0.4171
 1017MOL0     O34159   7.959   6.440   6.893  0.2164  0.2183  0.3265
 1017MOL0     C34160   7.743   6.158   6.984 -1.0264 -0.6341 -0.1025
 1017MOL0     C34161   7.702   6.028   6.939 -0.7037  0.3784  1.3498
 1017MOL0     N34162   7.653   5.636   6.120 -0.5187  0.1766  0.0939
 1017MOL0     N34163   7.707   5.599   6.002  0.8878  1.3911 -0.1928
 1017MOL0     C34164   8.357   5.342   5.029 -0.1535 -0.4487  0.2259
 1017MOL0     C34165   8.448   5.250   4.987 -0.5849  0.6251  1.4136
 1017MOL0     C34166   8.799   5.036   4.800  0.0799  0.0814  0.4323
 1017MOL0     C34167   8.807   4.895   4.753 -0.3210  0.1862 -0.7523
 1017MOL0     C34168   8.923   4.850   4.682 -0.4281  0.6019 -1.0539
 1017MOL0     C34169   9.033   4.938   4.657  0.5649  0.0159  0.3323
 1017MOL0     O34170   9.136   4.913   4.575  0.1846  0.4338  0.1472
 1017MOL0     C34171   9.165   4.770   4.552  0.4018 -0.8753  0.5636
 1017MOL0     C34172   9.315   4.751   4.541 -1.1034  1.2003  0.3748
 1017MOL0     C34173   9.383   4.674   4.655  0.7487  0.1459 -1.3174
 1017MOL0     C34174   9.309   4.685   4.795 -0.7600  0.0634 -0.9628
 1017MOL0     C34175   9.224   4.575   4.831 -0.9038  0.7805  0.7626
 1017MOL0     C34176   9.154   4.481   4.862  0.9643 -0.2928 -1.0792
 1017MOL0     C34177   9.022   5.071   4.703 -0.1476 -0.1064 -0.0567
 1017MOL0     C34178   8.908   5.119   4.762  0.1835 -0.2935  0.1953
 1017MOL0     H34179   8.685   5.457   4.856  2.5836 -2.1526  1.8632
 1017MOL0     H34180   8.504   5.628   4.931 -0.4564  0.3348  1.8454
 1017MOL0     H34181   8.289   5.673   5.237 -1.4719 -1.2045  1.9991
 1017MOL0     H34182   8.315   5.513   5.251  1.5666  0.8717 -0.5360
 1017MOL0     H34183   8.079   5.467   5.201  2.4704  0.7281  1.0965
 1017MOL0     H34184   8.058   5.615   5.114  0.9341  2.4846  0.0682
 1017MOL0     H34185   8.046   5.733   5.316 -0.6745  0.7033  1.7591
 1017MOL0     H34186   8.086   5.590   5.419  0.9121  2.5772  0.0432
 1017MOL0     H34187   7.829   5.650   5.304  1.7910  0.3810 -0.4049
 1017MOL0     H34188   7.879   5.473   5.298  2.9134  0.3039 -1.2124
 1017MOL0     H34189   7.903   5.456   5.524  1.6701 -0.2723 -1.4558
 1017MOL0     H34190   7.737   5.523   5.486 -1.0604  4.5274  1.3753
 1017MOL0     H34191   7.822   5.755   5.536 -0.0297  0.1991  1.2903
 1017MOL0     H34192   7.968   5.669   5.604 -0.1905 -2.9028  0.4201
 1017MOL0     H34193   7.677   5.632   5.694  0.5674  2.4861 -1.6407
 1017MOL0     H34194   7.807   5.533   5.748  0.2922  1.5135  4.8609
 1017MOL0     H34195   7.790   5.823   5.786  1.8713  0.0412  0.6067
 1017MOL0     H34196   7.937   5.728   5.818  1.2258  0.5023  1.6977
 1017MOL0     H34197   7.833   5.895   6.039 -0.3427  0.1999  2.7520
 1017MOL0     H34198   7.558   5.833   6.282 -0.9335  1.0086 -1.4662
 1017MOL0     H34199   7.686   5.952   6.261  0.6839  0.0160  0.6177
 1017MOL0     H34200   7.848   5.802   6.387  0.4890  2.8416 -0.2602
 1017MOL0     H34201   7.717   5.692   6.401 -0.2851  0.8684 -2.0546
 1017MOL0     H34202   7.706   5.973   6.527 -3.1433 -0.5539 -3.7870
 1017MOL0     H34203   7.581   5.851   6.534 -1.0917 -2.9946 -3.9731
 1017MOL0     H34204   7.865   5.812   6.647 -0.4582 -1.1849 -1.1790
 1017MOL0     H34205   7.729   5.700   6.661 -0.5644 -0.2187 -3.8990
 1017MOL0     H34206   7.885   6.040   6.654  1.0745  2.1739  0.2917
 1017MOL0     H34207   7.958   6.246   6.739 -0.3161  1.2182  0.0943
 1017MOL0     H34208   7.938   6.445   7.324  0.2900 -0.4778  0.6239
 1017MOL0     H34209   7.912   6.662   7.456 -2.0654 -0.6683  0.3620
 1017MOL0     H34210   7.945   6.915   7.543 -3.1817 -0.4192  1.9878
 1017MOL0     H34211   7.792   6.842   7.499 -1.7535  1.8074 -0.5918
 1017MOL0     H34212   7.903   7.124   7.446 -1.7946  1.2051 -2.6435
 1017MOL0     H34213   7.813   7.080   7.586  0.7894 -1.4377 -0.0824
 1017MOL0     H34214   7.671   6.993   7.341  0.9359  3.5603 -4.1830
 1017MOL0     H34215   7.691   7.173   7.358  2.6130 -0.2162  0.1652
 1017MOL0     H34216   7.507   7.006   7.482 -1.3725  1.0898 -0.5616
 1017MOL0     H34217   7.603   7.063   7.609  4.6035 -0.3493 -1.5711
 1017MOL0     H34218   7.443   7.258   7.423  0.8895  1.6804 -0.3959
 1017MOL0     H34219   7.552   7.304   7.545  0.0053 -1.7233  2.5009
 1017MOL0     H34220   7.442   7.169   7.711  1.4022 -0.4051 -1.2627
 1017MOL0     H34221   7.310   7.129   7.605  2.8798 -2.7782 -1.7789
 1017MOL0     H34222   7.393   7.384   7.733  0.9722  1.3512 -2.5239
 1017MOL0     H34223   7.300   7.399   7.585  0.5439  0.0534  1.3648
 1017MOL0     H34224   7.129   7.229   7.708 -2.0868 -1.4441  1.9953
 1017MOL0     H34225   7.129   7.404   7.745  0.0825  0.1073 -0.6800
 1017MOL0     H34226   7.854   6.864   7.089 -0.9563  0.1538 -0.4771
 1017MOL0     H34227   7.810   6.643   6.975  0.6243  2.2167 -0.9950
 1017MOL0     H34228   7.704   6.204   7.075  2.5646 -0.0950  1.3542
 1017MOL0     H34229   7.629   5.970   6.994 -0.7951 -0.3045  0.5270
 1017MOL0     H34230   8.271   5.305   5.084  0.3168 -1.4896  0.2952
 1017MOL0     H34231   8.424   5.145   5.001  1.8123 -0.5922 -2.1707
 1017MOL0     H34232   8.721   4.831   4.769  0.3514 -0.7390 -0.7388
 1017MOL0     H34233   8.930   4.753   4.633  1.9747  0.1961 -0.0390
 1017MOL0     H34234   9.128   4.753   4.450  1.0191  0.9393  0.0153
 1017MOL0     H34235   9.124   4.702   4.628 -2.0629 -1.7138 -1.3719
 1017MOL0     H34236   9.336   4.683   4.457 -0.5442 -0.1644  1.5619
 1017MOL0     H34237   9.367   4.840   4.506 -1.4212  1.1721 -0.1912
 1017MOL0     H34238   9.485   4.715   4.661  0.2224  1.5646 -1.7379
 1017MOL0     H34239   9.412   4.571   4.634 -2.6449 -0.7700 -2.0698
 1017MOL0     H34240   9.392   4.697   4.865 -1.1381  2.1865 -0.8135
 1017MOL0     H34241   9.251   4.778   4.800  1.4239  1.4450  0.1225
 1017MOL0     H34242   9.103   4.400   4.909  0.0643  0.9020  0.0650
 1017MOL0     H34243   9.101   5.134   4.666 -0.8248  0.5590 -0.4038
 1017MOL0     H34244   8.923   5.222   4.794  0.2379 -0.6906  1.4992
 1018MOL0     O34245   5.704  10.978   0.138 -0.5718 -0.1094  0.4939
 1018MOL0     C34246   5.598  10.999   0.091  0.9543 -0.4789  0.8597
 1018MOL0     O34247   5.478  11.024   0.162 -0.3606 -0.4026  0.6832
 1018MOL0     C34248   5.479  11.016   0.296 -0.1056  0.3897  1.3315
 1018MOL0     C34249   5.467  11.145   0.362  0.2290  0.1101 -0.1426
 1018MOL0     C34250   5.479  11.140   0.497 -0.3131  0.1576 -0.2035
 1018MOL0     C34251   5.504  11.024   0.566  0.1977 -0.7937  0.3216
 1018MOL0     O34252   5.498  11.029   0.702 -0.2434  0.1221 -0.0104
 1018MOL0     C34253   5.376  10.966   0.755  0.0231 -0.0651 -0.0745
 1018MOL0     C34254   5.374  10.961   0.906  0.0389 -0.0927  0.6244
 1018MOL0     C34255   5.288  10.844   0.952 -0.8003  0.1841  1.2499
 1018MOL0     C34256   5.275  10.837   1.107 -0.9192  1.0517  1.0596
 1018MOL0     C34257   5.148  10.911   1.155  0.3617  0.4992 -0.3780
 1018MOL0     C34258   5.123  10.883   1.308  0.1324  0.8992 -0.6482
 1018MOL0     C34259   5.106  10.734   1.337  0.4204  0.2266 -0.9592
 1018MOL0     C34260   5.027  10.709   1.468 -0.1052 -0.6478 -0.6987
 1018MOL0     N34261   5.122  10.724   1.582 -0.5881 -0.7892  0.1077
 1018MOL0     C34262   5.206  10.626   1.624 -1.2580  0.3646  0.2382
 1018MOL0     C34263   5.264  10.673   1.731  0.9198 -0.3324 -0.0191
 1018MOL0     C34264   5.370  10.621   1.818  0.0617 -0.6487  0.1191
 1018MOL0     C34265   5.507  10.655   1.767 -0.5118 -0.1533  0.1225
 1018MOL0     C34266   5.606  10.642   1.887  0.0704  0.7234  0.3063
 1018MOL0     C34267   5.742  10.696   1.853 -0.1161 -0.8684  0.1462
 1018MOL0     O34268   5.814  10.614   1.768 -0.1819 -0.5619  0.3770
 1018MOL0     C34269   5.869  10.663   1.648  0.3772  0.8694 -0.3384
 1018MOL0     C34270   5.883  10.566   1.547  0.5456  0.9835  0.5900
 1018MOL0     C34271   5.947  10.582   1.426 -0.3222 -0.2347 -1.2800
 1018MOL0     C34272   6.017  10.709   1.410  0.7404  0.8586 -1.1510
 1018MOL0     C34273   6.080  10.737   1.286  0.0641  0.4320  0.3433
 1018MOL0     O34274   6.151  10.857   1.274  0.3177  0.1044 -0.3920
 1018MOL0     C34275   6.193  10.898   1.149  0.5613  1.8572 -0.2014
 1018MOL0     C34276   6.310  10.976   1.142 -0.2798 -0.8816 -1.3785
 1018MOL0     C34277   6.360  11.020   1.015  0.3150 -0.0278 -0.3371
 1018MOL0     C34278   6.300  10.981   0.897 -0.2417 -0.2198  0.5102
 1018MOL0     O34279   6.356  11.032   0.786  0.6268 -0.3557  0.7059
 1018MOL0     C34280   6.418  10.932   0.707  0.3309  0.7954  0.5045
 1018MOL0     C34281   6.320  10.846   0.615  0.1168  0.5445 -0.2521
 1018MOL0     C34282   6.393  10.746   0.517  0.2747 -0.3141  0.1122
 1018MOL0     C34283   6.306  10.647   0.448 -0.8832 -0.1281 -0.2093
 1018MOL0     C34284   6.196  10.711   0.363  0.0384 -0.1073 -0.4500
 1018MOL0     C34285   6.134  10.602   0.266  0.2626 -0.9481  0.0377
 1018MOL0     C34286   6.197  10.632   0.130 -1.1419 -1.1501  0.7120
 1018MOL0     C34287   6.154  10.529   0.027 -0.1172 -0.4318  0.2280
 1018MOL0    Cl34288   6.247  10.544  -0.131 -0.0511 -0.3900 -0.3745
 1018MOL0     C34289   6.182  10.902   0.899  1.0989 -0.0065  0.6979
 1018MOL0     C34290   6.124  10.875   1.025 -0.7447 -0.3601 -0.6527
 1018MOL0     O34291   6.084  10.646   1.211 -0.3538  0.0713 -0.1137
 1018MOL0     C34292   6.004  10.801   1.508 -0.3288  0.4493 -1.0500
 1018MOL0     C34293   5.927  10.783   1.624 -0.0363 -0.0236  0.3883
 1018MOL0     N34294   5.199  10.792   1.769  0.2957 -0.1180  0.7470
 1018MOL0     N34295   5.118  10.827   1.670 -0.2546  0.9617 -0.5361
 1018MOL0     C34296   5.524  10.902   0.500  0.2858  0.5401  0.1211
 1018MOL0     C34297   5.502  10.900   0.361 -0.3780  1.0165  0.0687
 1018MOL0     C34298   5.575  10.986  -0.056  0.2149 -0.0340  0.4324
 1018MOL0     C34299   5.453  11.032  -0.104  0.6071  0.0163  0.4297
 1018MOL0     C34300   5.418  11.008  -0.236  0.7206  0.1090  0.8649
 1018MOL0     C34301   5.511  10.947  -0.322 -0.0297  0.2737 -0.5564
 1018MOL0     O34302   5.460  10.935  -0.448 -1.0874 -0.2337 -0.0240
 1018MOL0     C34303   5.546  10.869  -0.541 -0.9133 -0.6122  0.2262
 1018MOL0     C34304   5.482  10.867  -0.685 -0.3032  0.2667 -0.1435
 1018MOL0     C34305   5.400  11.005  -0.721 -0.7082  1.6372  0.0277
 1018MOL0     C34306   5.496  11.118  -0.746  0.1908 -0.3914  0.7705
 1018MOL0     C34307   5.442  11.251  -0.783 -0.8635  0.5129 -0.7136
 1018MOL0     C34308   5.406  11.363  -0.808  0.1415 -1.0127 -0.7073
 1018MOL0     C34309   5.640  10.910  -0.274  0.1732  1.3039 -0.0813
 1018MOL0     C34310   5.665  10.916  -0.135  0.4014 -0.5032 -0.5643
 1018MOL0     H34311   5.451  11.238   0.309 -2.3897  0.7893  1.6152
 1018MOL0     H34312   5.449  11.233   0.544 -0.1269 -1.3927  3.2288
 1018MOL0     H34313   5.394  10.861   0.730  2.4771 -0.8298  3.8393
 1018MOL0     H34314   5.281  10.998   0.712  0.0874  0.7956  0.3953
 1018MOL0     H34315   5.341  11.060   0.940 -0.2741  0.1864 -0.4552
 1018MOL0     H34316   5.476  10.943   0.940 -0.0451  1.6554  1.9754
 1018MOL0     H34317   5.332  10.755   0.908 -1.5784  1.1540 -1.7183
 1018MOL0     H34318   5.183  10.833   0.923 -0.2107  0.8959 -1.4249
 1018MOL0     H34319   5.270  10.733   1.140 -1.6428  0.7886  0.1504
 1018MOL0     H34320   5.360  10.889   1.153 -1.1533  1.7229  0.7565
 1018MOL0     H34321   5.057  10.880   1.103 -1.0019 -1.0807  2.6405
 1018MOL0     H34322   5.173  11.014   1.129  2.7898  0.0025 -0.2097
 1018MOL0     H34323   5.025  10.930   1.321 -2.9428 -4.3526 -1.8157
 1018MOL0     H34324   5.195  10.931   1.375  1.5162 -0.4950 -1.0805
 1018MOL0     H34325   5.035  10.687   1.267  0.6869  0.4847 -1.4067
 1018MOL0     H34326   5.195  10.672   1.339  0.0916 -0.2449  1.4583
 1018MOL0     H34327   4.986  10.608   1.456  2.2562 -1.4959 -2.4081
 1018MOL0     H34328   4.943  10.779   1.470  0.6389  0.3508 -2.0819
 1018MOL0     H34329   5.211  10.532   1.571 -3.1162 -1.0580  2.4425
 1018MOL0     H34330   5.362  10.514   1.843 -0.3284 -0.6809 -0.1336
 1018MOL0     H34331   5.371  10.686   1.906  0.7406  1.4250 -1.3629
 1018MOL0     H34332   5.509  10.759   1.734  1.2238 -0.2806 -0.2465
 1018MOL0     H34333   5.533  10.600   1.677 -0.1992 -0.8463  0.6257
 1018MOL0     H34334   5.567  10.690   1.978 -0.4020  0.5761  0.1831
 1018MOL0     H34335   5.635  10.539   1.908 -0.7715  0.6008  0.8771
 1018MOL0     H34336   5.810  10.716   1.936  3.1534 -5.6373 -0.9122
 1018MOL0     H34337   5.737  10.797   1.812  0.7991 -0.6462  0.5688
 1018MOL0     H34338   5.842  10.466   1.563 -0.8013  1.8391  2.8812
 1018MOL0     H34339   5.946  10.495   1.362  2.1843 -2.5229  1.4648
 1018MOL0     H34340   6.343  10.997   1.243 -2.5083 -0.2838 -0.7219
 1018MOL0     H34341   6.452  11.078   1.004 -0.6185  1.2232 -1.8852
 1018MOL0     H34342   6.475  10.866   0.773 -0.9467 -1.5978 -0.6550
 1018MOL0     H34343   6.486  10.982   0.637  1.1590 -1.3029 -0.2644
 1018MOL0     H34344   6.264  10.922   0.560  2.0055  2.1476 -0.0957
 1018MOL0     H34345   6.249  10.790   0.676 -2.1363  1.6949 -1.7089
 1018MOL0     H34346   6.470  10.689   0.571  2.5519  2.7188  0.3454
 1018MOL0     H34347   6.444  10.803   0.439 -0.4413 -0.1444 -0.2335
 1018MOL0     H34348   6.376  10.599   0.379 -1.1111 -2.8502  1.3125
 1018MOL0     H34349   6.276  10.569   0.518 -0.4412 -0.4175 -0.3387
 1018MOL0     H34350   6.233  10.805   0.321  1.3259  0.1667  1.1906
 1018MOL0     H34351   6.115  10.750   0.425  1.3983 -0.4120  1.6041
 1018MOL0     H34352   6.025  10.608   0.260  0.2328 -2.0073 -0.5944
 1018MOL0     H34353   6.166  10.500   0.291 -2.2626 -1.9619 -0.6220
 1018MOL0     H34354   6.172  10.729   0.088  5.1425 -0.0899 -1.5677
 1018MOL0     H34355   6.306  10.629   0.131 -1.0528 -0.5080 -1.5792
 1018MOL0     H34356   6.052  10.566   0.010  1.4403  3.1660 -2.5168
 1018MOL0     H34357   6.173  10.426   0.059 -0.5754 -1.7858 -3.3506
 1018MOL0     H34358   6.111  10.880   0.820 -1.3943 -0.5565  2.9665
 1018MOL0     H34359   6.032  10.820   1.041 -1.6958  0.3479 -3.2007
 1018MOL0     H34360   6.060  10.891   1.486  0.2549  0.3487 -0.0416
 1018MOL0     H34361   5.922  10.870   1.688  3.0385  0.6765 -0.1763
 1018MOL0     H34362   5.559  10.816   0.555  1.1082  1.3886  0.9489
 1018MOL0     H34363   5.521  10.802   0.317  1.3153  0.5371  1.7121
 1018MOL0     H34364   5.376  11.098  -0.066 -2.0125 -0.1449 -3.9719
 1018MOL0     H34365   5.320  11.025  -0.281  0.9727 -2.3048 -0.8325
 1018MOL0     H34366   5.557  10.769  -0.499 -5.2479 -2.4246 -2.2006
 1018MOL0     H34367   5.641  10.921  -0.554 -1.6704  0.9681  0.6996
 1018MOL0     H34368   5.563  10.841  -0.755 -2.0827 -2.4046 -1.3754
 1018MOL0     H34369   5.419  10.779  -0.700  0.0812  0.1576 -1.2578
 1018MOL0     H34370   5.332  11.018  -0.636 -1.2932  0.0948 -0.1869
 1018MOL0     H34371   5.342  10.980  -0.810 -1.0516 -1.5095  1.0257
 1018MOL0     H34372   5.550  11.139  -0.654  0.2329  0.2703  0.5971
 1018MOL0     H34373   5.570  11.093  -0.824  1.8627  1.0413  1.8259
 1018MOL0     H34374   5.370  11.462  -0.826 -0.1626 -0.8073  0.8564
 1018MOL0     H34375   5.720  10.877  -0.339  1.6525  0.6654  1.9578
 1018MOL0     H34376   5.753  10.863  -0.100  0.8863 -1.2234 -2.6644
 1019MOL0     O34377   8.156   9.189   5.978  0.4469  0.0649 -0.1242
 1019MOL0     C34378   8.100   9.292   6.009 -0.7180  0.0393  0.4403
 1019MOL0     O34379   8.164   9.401   6.078 -0.0209  0.3381  0.6631
 1019MOL0     C34380   8.262   9.361   6.164 -0.0069 -0.5992  0.1703
 1019MOL0     C34381   8.210   9.299   6.283  0.2385 -0.2173 -0.1700
 1019MOL0     C34382   8.306   9.254   6.376 -0.2730  0.1807  0.6640
 1019MOL0     C34383   8.446   9.252   6.345  0.6675 -0.3058  0.4098
 1019MOL0     O34384   8.527   9.200   6.443  0.3889  0.1777 -0.1392
 1019MOL0     C34385   8.632   9.279   6.499 -0.4007  1.1060 -0.4763
 1019MOL0     C34386   8.593   9.416   6.561 -0.1422  0.5608  0.4909
 1019MOL0     C34387   8.697   9.503   6.617  0.2316 -0.1288  0.7395
 1019MOL0     C34388   8.812   9.557   6.525  0.0543  0.2846 -0.7975
 1019MOL0     C34389   8.762   9.673   6.443  0.3740 -0.7466 -0.0937
 1019MOL0     C34390   8.825   9.702   6.306 -0.4073 -0.3805  0.4803
 1019MOL0     C34391   8.760   9.815   6.223 -0.1348 -0.2362  0.0904
 1019MOL0     C34392   8.834   9.947   6.249  0.9334 -0.4404  0.0447
 1019MOL0     N34393   8.833   9.991   6.387 -0.6765 -0.7527 -0.5787
 1019MOL0     C34394   8.941  10.004   6.472 -0.2511 -0.2381  0.2048
 1019MOL0     C34395   8.894  10.095   6.571 -0.4548  0.2537  0.0204
 1019MOL0     C34396   8.980  10.132   6.687  0.0600  0.1978  0.4231
 1019MOL0     C34397   9.042  10.267   6.674 -1.1290 -0.5642  0.1962
 1019MOL0     C34398   9.149  10.296   6.773 -0.4729  0.2509  0.0027
 1019MOL0     C34399   9.099  10.333   6.922  0.3634  0.4413 -0.0588
 1019MOL0     O34400   9.014  10.232   6.970 -0.3304  0.1331  0.1534
 1019MOL0     C34401   9.045  10.159   7.083  0.7132 -0.9985  0.9925
 1019MOL0     C34402   8.939  10.125   7.154 -1.2757 -0.0098 -0.1553
 1019MOL0     C34403   8.958  10.057   7.280 -0.0587 -0.7005  0.2250
 1019MOL0     C34404   9.085  10.009   7.315 -1.2014  0.1727  0.7223
 1019MOL0     C34405   9.121   9.941   7.442 -0.6047 -0.5458  1.0018
 1019MOL0     O34406   9.017   9.901   7.524  0.0091 -0.4940  0.0905
 1019MOL0     C34407   9.047   9.833   7.635 -1.5176 -0.0368  0.0596
 1019MOL0     C34408   9.037   9.691   7.631 -0.1518 -0.1915  0.9804
 1019MOL0     C34409   9.090   9.615   7.735  0.4388 -0.2474  0.0441
 1019MOL0     C34410   9.165   9.672   7.837  0.0731 -0.5708  0.1609
 1019MOL0     O34411   9.212   9.600   7.941 -0.0956  0.2452  0.4657
 1019MOL0     C34412   9.345   9.612   7.985  0.0690 -0.1097  0.0231
 1019MOL0     C34413   9.381   9.559   8.127  0.4847  1.1627 -0.0730
 1019MOL0     C34414   9.526   9.581   8.164 -0.0292  0.2906 -0.4400
 1019MOL0     C34415   9.533   9.517   8.308 -0.4629  0.7664  0.3697
 1019MOL0     C34416   9.660   9.538   8.391 -0.7938 -0.0806  0.1375
 1019MOL0     C34417   9.793   9.480   8.342  0.8666  0.1253  0.4091
 1019MOL0     C34418   9.801   9.332   8.328  0.5550 -0.0522 -0.4653
 1019MOL0     C34419   9.890   9.282   8.210 -0.1942 -0.4399 -0.0706
 1019MOL0    Cl34420   9.838   9.358   8.056 -0.5550  0.2275  0.0081
 1019MOL0     C34421   9.156   9.812   7.853 -0.4148 -1.3531 -0.0966
 1019MOL0     C34422   9.089   9.890   7.751  0.0613 -0.1368 -1.5020
 1019MOL0     O34423   9.238   9.917   7.468 -1.4136 -0.5503  0.4582
 1019MOL0     C34424   9.194  10.040   7.224  1.8987 -0.1792 -0.1449
 1019MOL0     C34425   9.175  10.128   7.111  0.4841 -0.8429  0.3054
 1019MOL0     N34426   8.760  10.119   6.545 -0.7438 -0.5488  0.1586
 1019MOL0     N34427   8.727  10.063   6.436  0.0824  0.3846 -0.9410
 1019MOL0     C34428   8.492   9.332   6.241  0.3907 -0.2667  0.6105
 1019MOL0     C34429   8.405   9.387   6.144  1.2585 -0.7253 -0.7960
 1019MOL0     C34430   7.971   9.326   5.947 -1.2664 -0.6804 -0.2279
 1019MOL0     C34431   7.933   9.463   5.944  0.0191 -0.6558 -0.1323
 1019MOL0     C34432   7.810   9.495   5.883  1.5604 -0.3525 -0.2535
 1019MOL0     C34433   7.733   9.397   5.807  0.1645 -0.4077 -0.0438
 1019MOL0     O34434   7.611   9.422   5.765  0.2845  0.2233  0.5281
 1019MOL0     C34435   7.502   9.384   5.849  0.0287  0.2626 -0.4549
 1019MOL0     C34436   7.376   9.462   5.825  0.4276  1.3276  1.0236
 1019MOL0     C34437   7.389   9.608   5.866  1.2861 -0.2394  1.2028
 1019MOL0     C34438   7.265   9.689   5.815 -0.4011  0.1651  0.0927
 1019MOL0     C34439   7.164   9.694   5.919  0.4465 -0.4793  1.4016
 1019MOL0     C34440   7.071   9.692   5.997 -0.5759 -0.1353  0.6203
 1019MOL0     C34441   7.776   9.267   5.811 -0.0828 -0.4038  0.9936
 1019MOL0     C34442   7.891   9.232   5.876 -0.7296  0.4366 -0.4797
 1019MOL0     H34443   8.105   9.288   6.304  0.3550 -1.6921 -0.2424
 1019MOL0     H34444   8.259   9.194   6.453 -2.8830 -3.2910 -3.1999
 1019MOL0     H34445   8.716   9.282   6.429 -1.2743 -1.7200 -1.7958
 1019MOL0     H34446   8.646   9.217   6.588 -1.6065 -0.7769 -1.5381
 1019MOL0     H34447   8.511   9.392   6.629 -1.0921 -3.2716 -1.6679
 1019MOL0     H34448   8.554   9.475   6.477 -2.4853 -3.0892 -1.2524
 1019MOL0     H34449   8.746   9.448   6.699 -1.5652 -2.7376  0.2224
 1019MOL0     H34450   8.641   9.576   6.676 -0.7032 -1.3373  1.4279
 1019MOL0     H34451   8.886   9.591   6.598 -0.1912  0.7141 -0.7498
 1019MOL0     H34452   8.857   9.493   6.449  1.1547 -1.1119  0.9198
 1019MOL0     H34453   8.782   9.758   6.509  1.6100  0.1976 -1.6366
 1019MOL0     H34454   8.656   9.663   6.418  0.0724  0.8721  0.4202
 1019MOL0     H34455   8.814   9.607   6.252 -0.6992  0.4072 -0.8728
 1019MOL0     H34456   8.931   9.726   6.313 -0.4690 -0.6007  3.1950
 1019MOL0     H34457   8.783   9.800   6.117  0.3908 -0.2920  0.2061
 1019MOL0     H34458   8.652   9.813   6.239 -0.1773 -1.7088 -0.2400
 1019MOL0     H34459   8.795  10.026   6.184  1.1956 -0.5738 -0.2826
 1019MOL0     H34460   8.939   9.927   6.222  0.8751  1.5380 -1.9603
 1019MOL0     H34461   9.046   9.987   6.453  0.7127  3.1551  1.7848
 1019MOL0     H34462   9.064  10.064   6.706  2.0475  2.4003 -0.0712
 1019MOL0     H34463   8.921  10.126   6.779  2.1820  0.5926  1.8875
 1019MOL0     H34464   8.958  10.336   6.686 -1.7222 -1.4236  1.0906
 1019MOL0     H34465   9.101  10.266   6.581  0.3356 -5.6666  0.8868
 1019MOL0     H34466   9.228  10.220   6.768 -1.3313 -0.5872 -2.0825
 1019MOL0     H34467   9.201  10.387   6.744  1.7673 -1.3238 -1.2437
 1019MOL0     H34468   9.032  10.420   6.928 -1.8380 -0.9933 -2.1550
 1019MOL0     H34469   9.187  10.359   6.981  1.5124  1.7886 -2.2393
 1019MOL0     H34470   8.844  10.151   7.109 -0.6027  0.1247 -1.5601
 1019MOL0     H34471   8.879  10.030   7.349  0.7552 -1.8559  0.7530
 1019MOL0     H34472   8.991   9.635   7.552 -0.3040 -0.2718  1.1261
 1019MOL0     H34473   9.062   9.510   7.734  2.2717 -0.7965 -1.7527
 1019MOL0     H34474   9.389   9.711   7.973 -1.2647  0.6902  1.3080
 1019MOL0     H34475   9.411   9.561   7.915 -0.6200  0.7054 -1.2605
 1019MOL0     H34476   9.364   9.451   8.121  1.1541  1.0383  0.1946
 1019MOL0     H34477   9.318   9.612   8.200 -0.7528 -0.3483  0.0101
 1019MOL0     H34478   9.564   9.684   8.169  0.8593 -0.1177  2.9732
 1019MOL0     H34479   9.590   9.523   8.097  0.3786 -0.2666  0.4280
 1019MOL0     H34480   9.447   9.550   8.368 -1.4824  2.3716 -1.8491
 1019MOL0     H34481   9.527   9.408   8.300 -0.6945  0.3121  4.5127
 1019MOL0     H34482   9.641   9.492   8.488  2.1084 -3.0898 -0.5596
 1019MOL0     H34483   9.659   9.645   8.416 -2.6450 -0.6987  3.2934
 1019MOL0     H34484   9.875   9.516   8.405  0.9055  1.8777 -0.5782
 1019MOL0     H34485   9.803   9.531   8.246 -3.5927  2.2959  0.7903
 1019MOL0     H34486   9.847   9.296   8.421 -1.7722 -2.4974 -0.1721
 1019MOL0     H34487   9.701   9.291   8.317  0.2982  0.6671 -0.8599
 1019MOL0     H34488   9.884   9.173   8.213  1.9365 -0.5781  0.3076
 1019MOL0     H34489   9.994   9.310   8.225 -1.0431  2.9650  0.4621
 1019MOL0     H34490   9.194   9.861   7.941  1.5875 -3.3319  0.2445
 1019MOL0     H34491   9.066   9.994   7.771  1.0458 -0.3399  1.1204
 1019MOL0     H34492   9.296  10.027   7.257  2.1977  2.2103  0.0387
 1019MOL0     H34493   9.267  10.170   7.071  1.8524 -1.8975  2.1473
 1019MOL0     H34494   8.599   9.341   6.227  0.2420 -2.7096 -4.0987
 1019MOL0     H34495   8.454   9.449   6.069  0.4156 -1.5346 -2.0515
 1019MOL0     H34496   7.973   9.544   6.004 -0.9442  1.0438 -1.6760
 1019MOL0     H34497   7.781   9.597   5.906  1.7580 -1.0843  4.2063
 1019MOL0     H34498   7.522   9.393   5.956 -0.9065 -1.5689 -0.0757
 1019MOL0     H34499   7.484   9.276   5.848  1.9012 -0.1122  0.8113
 1019MOL0     H34500   7.348   9.454   5.719  0.6571 -4.2263  1.0901
 1019MOL0     H34501   7.295   9.420   5.885  2.0191  0.3541  2.5848
 1019MOL0     H34502   7.477   9.642   5.810 -1.2592 -0.1890 -3.2329
 1019MOL0     H34503   7.399   9.618   5.974  0.9660  1.3153  1.1106
 1019MOL0     H34504   7.295   9.794   5.811  0.1089  0.0765  1.0964
 1019MOL0     H34505   7.229   9.651   5.720 -0.0912  0.0248  0.0296
 1019MOL0     H34506   6.998   9.685   6.075 -1.1960  1.2907  0.2046
 1019MOL0     H34507   7.722   9.189   5.758  0.5276  0.4078 -0.9123
 1019MOL0     H34508   7.932   9.135   5.853 -0.7554 -0.4888  2.9470
 1020MOL0     O34509  10.716  11.056   4.029 -0.7995 -0.5023  0.1842
 1020MOL0     C34510  10.599  11.062   4.016  0.8429  0.0035  0.6219
 1020MOL0     O34511  10.547  11.100   3.895  0.0555 -0.4213  0.5695
 1020MOL0     C34512  10.628  11.163   3.796 -0.2726  0.1713 -0.2953
 1020MOL0     C34513  10.727  11.267   3.804  1.0223 -0.2164  0.4681
 1020MOL0     C34514  10.763  11.342   3.694  0.7468  0.5633 -0.2617
 1020MOL0     C34515  10.716  11.301   3.568  0.0959  0.9493 -0.1265
 1020MOL0     O34516  10.786  11.368   3.469 -1.0926 -0.2838  0.0849
 1020MOL0     C34517  10.728  11.373   3.345 -0.0873 -0.1488  0.0366
 1020MOL0     C34518  10.826  11.461   3.261 -0.0503 -0.2119  0.5950
 1020MOL0     C34519  10.857  11.384   3.127  0.6646 -0.7942 -0.6140
 1020MOL0     C34520  10.988  11.435   3.077  0.2483 -0.6055 -0.5945
 1020MOL0     C34521  11.109  11.386   3.146  1.4339  0.4582  1.0484
 1020MOL0     C34522  11.235  11.441   3.070  0.4386 -0.3782 -0.3852
 1020MOL0     C34523  11.367  11.435   3.149  0.2311  0.2309 -0.3341
 1020MOL0     C34524  11.389  11.517   3.269 -0.7142 -0.1411 -0.3463
 1020MOL0     N34525  11.424  11.662   3.248 -0.3698  0.2096 -0.4672
 1020MOL0     C34526  11.472  11.712   3.127 -0.2152 -0.1507  0.6611
 1020MOL0     C34527  11.542  11.818   3.155 -0.2098 -0.8426  0.2111
 1020MOL0     C34528  11.626  11.917   3.063  0.5281 -0.1509  0.0479
 1020MOL0     C34529  11.523  12.014   3.016  0.3415 -1.1090 -0.3047
 1020MOL0     C34530  11.575  12.087   2.892  1.1513  0.9146 -0.3864
 1020MOL0     C34531  11.520  12.231   2.886  0.4994  0.2462  0.2759
 1020MOL0     O34532  11.579  12.308   2.774 -0.5295  0.4554  0.4266
 1020MOL0     C34533  11.563  12.441   2.779 -1.0518 -0.0545  1.2542
 1020MOL0     C34534  11.534  12.523   2.899  0.7555 -0.9407 -0.0921
 1020MOL0     C34535  11.542  12.664   2.895 -1.2256 -0.8549 -0.8895
 1020MOL0     C34536  11.558  12.735   2.778  0.8781 -0.3654 -0.7743
 1020MOL0     C34537  11.533  12.879   2.771 -1.0138  0.1850  0.2516
 1020MOL0     O34538  11.518  12.936   2.648  1.5952 -0.0713  0.1118
 1020MOL0     C34539  11.514  13.070   2.626  0.9506  0.1598 -0.6101
 1020MOL0     C34540  11.622  13.128   2.561 -0.0281 -0.6316  0.0240
 1020MOL0     C34541  11.626  13.266   2.523  0.0542 -0.4329 -0.5039
 1020MOL0     C34542  11.513  13.342   2.551 -0.6117 -0.3240  0.0704
 1020MOL0     O34543  11.523  13.476   2.507 -0.2756  0.0244  0.4834
 1020MOL0     C34544  11.400  13.554   2.478  0.3434  1.0904 -0.1912
 1020MOL0     C34545  11.375  13.660   2.590 -0.7415 -0.0441 -1.2020
 1020MOL0     C34546  11.238  13.725   2.567 -0.1045 -0.8780  0.1946
 1020MOL0     C34547  11.198  13.826   2.689  0.5097  0.0906  0.2234
 1020MOL0     C34548  11.139  13.754   2.818 -0.5776 -0.0966  0.3507
 1020MOL0     C34549  11.078  13.866   2.899  0.7933  0.1443 -0.3906
 1020MOL0     C34550  10.941  13.888   2.840  0.3005 -0.0762 -0.0641
 1020MOL0     C34551  10.858  14.012   2.868 -0.3451 -1.4045 -0.2849
 1020MOL0    Cl34552  10.818  14.046   3.026  0.0418  0.0178 -0.2189
 1020MOL0     C34553  11.396  13.281   2.606  0.4595  0.7731 -0.3311
 1020MOL0     C34554  11.400  13.141   2.634  0.7959  0.2245 -0.3284
 1020MOL0     O34555  11.497  12.933   2.874 -0.2174  0.3483  0.4541
 1020MOL0     C34556  11.576  12.659   2.654 -0.2968 -0.2735 -0.3275
 1020MOL0     C34557  11.580  12.520   2.658 -0.4582  0.9966 -0.7465
 1020MOL0     N34558  11.530  11.837   3.295 -0.7030 -0.2610 -0.2714
 1020MOL0     N34559  11.455  11.744   3.343  0.3599 -0.2461  0.2395
 1020MOL0     C34560  10.627  11.186   3.555  0.4580 -0.3174  0.7175
 1020MOL0     C34561  10.565  11.134   3.670  0.1258 -0.1234  0.4540
 1020MOL0     C34562  10.506  11.021   4.127 -0.5795  0.0267  0.1969
 1020MOL0     C34563  10.372  11.023   4.114  0.0975  0.4386 -0.1005
 1020MOL0     C34564  10.285  10.987   4.215 -0.2645  0.3420 -0.0089
 1020MOL0     C34565  10.344  10.928   4.327 -0.0383 -0.0211  0.8215
 1020MOL0     O34566  10.250  10.896   4.422 -0.6928  0.0405  0.7847
 1020MOL0     C34567  10.281  10.856   4.557 -0.5763 -0.6322  0.0754
 1020MOL0     C34568  10.308  10.981   4.641 -0.6324  0.0170  0.0327
 1020MOL0     C34569  10.207  11.103   4.623 -0.0277  0.3386  0.4636
 1020MOL0     C34570  10.209  11.197   4.746  0.9826 -0.9233 -0.7118
 1020MOL0     C34571  10.324  11.283   4.718  0.0976  0.3647  0.3532
 1020MOL0     C34572  10.416  11.349   4.698  0.4061 -0.7587  1.3047
 1020MOL0     C34573  10.478  10.921   4.341  0.0711 -0.3950 -0.0079
 1020MOL0     C34574  10.564  10.979   4.243  1.2681  0.3841  0.3363
 1020MOL0     H34575  10.757  11.308   3.900  0.5737 -2.5785  1.7009
 1020MOL0     H34576  10.839  11.419   3.702  2.5913 -1.3323  1.9177
 1020MOL0     H34577  10.632  11.424   3.352 -0.0825 -0.3824  3.1412
 1020MOL0     H34578  10.711  11.278   3.293 -2.2337  0.6843 -0.8593
 1020MOL0     H34579  10.918  11.477   3.317 -2.1549 -1.3396  4.8115
 1020MOL0     H34580  10.779  11.557   3.236  1.2853  0.2713 -0.1333
 1020MOL0     H34581  10.780  11.413   3.056 -0.3328  0.1364  0.7889
 1020MOL0     H34582  10.852  11.277   3.150 -0.7344 -0.5176  0.4720
 1020MOL0     H34583  10.994  11.394   2.976  1.7056 -3.0658  0.3916
 1020MOL0     H34584  10.989  11.543   3.066  0.4845 -0.3093  1.8161
 1020MOL0     H34585  11.113  11.277   3.150 -2.0042  0.1963  0.2300
 1020MOL0     H34586  11.113  11.420   3.250 -2.1679  2.8020  0.5853
 1020MOL0     H34587  11.213  11.542   3.035 -1.6069 -0.7047 -0.1555
 1020MOL0     H34588  11.231  11.373   2.984 -0.4996  1.5184 -1.9208
 1020MOL0     H34589  11.374  11.328   3.173  1.8465  0.3750 -0.0516
 1020MOL0     H34590  11.444  11.456   3.075 -1.1808  3.2574 -1.1035
 1020MOL0     H34591  11.481  11.486   3.320 -0.4583 -0.4671 -0.9981
 1020MOL0     H34592  11.299  11.510   3.330 -0.5735 -0.8102 -0.2111
 1020MOL0     H34593  11.465  11.672   3.026 -0.7449  0.6878  0.3498
 1020MOL0     H34594  11.679  11.873   2.978 -1.7266  2.1155 -2.7562
 1020MOL0     H34595  11.709  11.955   3.123  2.5160 -1.2168 -1.8727
 1020MOL0     H34596  11.498  12.079   3.100 -0.5649  0.9102 -2.0388
 1020MOL0     H34597  11.435  11.962   2.977  0.0124  0.7393 -2.2569
 1020MOL0     H34598  11.684  12.097   2.900  1.2528 -1.1845  2.4722
 1020MOL0     H34599  11.542  12.029   2.806 -3.2585  0.3286  1.4347
 1020MOL0     H34600  11.561  12.272   2.979  1.2071 -0.0008  0.0769
 1020MOL0     H34601  11.412  12.224   2.872  0.7402 -1.2511 -1.1567
 1020MOL0     H34602  11.517  12.485   3.000 -1.5342  1.8887  0.7292
 1020MOL0     H34603  11.538  12.730   2.982 -1.3785  0.2034 -1.6726
 1020MOL0     H34604  11.706  13.070   2.525 -0.2099 -1.0722  0.3005
 1020MOL0     H34605  11.709  13.299   2.462 -0.1859  1.9430  0.3479
 1020MOL0     H34606  11.317  13.485   2.458  0.3696  0.8841  0.3995
 1020MOL0     H34607  11.415  13.605   2.382 -0.6534  1.6309 -0.0771
 1020MOL0     H34608  11.456  13.733   2.586  0.1864 -1.0390 -1.0429
 1020MOL0     H34609  11.378  13.606   2.686  1.8958 -4.0373 -3.2532
 1020MOL0     H34610  11.166  13.644   2.556 -1.0320 -0.3640  2.1372
 1020MOL0     H34611  11.233  13.774   2.470 -0.1753 -3.9080 -1.4732
 1020MOL0     H34612  11.286  13.885   2.718 -1.3437  2.8508  0.6847
 1020MOL0     H34613  11.124  13.898   2.653  0.3298 -0.5137 -0.6322
 1020MOL0     H34614  11.230  13.730   2.874 -0.6295 -0.3978  0.3053
 1020MOL0     H34615  11.074  13.666   2.808  1.3079 -1.8683  2.5528
 1020MOL0     H34616  11.135  13.960   2.892  0.8056  0.1567 -0.1455
 1020MOL0     H34617  11.060  13.834   3.002  0.3211 -0.1697 -0.5676
 1020MOL0     H34618  10.951  13.882   2.731 -0.8221  1.5981 -0.3090
 1020MOL0     H34619  10.882  13.799   2.861 -1.4908  0.5192 -2.1592
 1020MOL0     H34620  10.769  14.005   2.805 -0.7540  2.3053 -0.3468
 1020MOL0     H34621  10.908  14.098   2.824 -0.9118  0.6701  2.8149
 1020MOL0     H34622  11.303  13.330   2.632 -1.2174 -2.0242 -0.7651
 1020MOL0     H34623  11.310  13.090   2.666  1.0792 -1.2289 -1.7319
 1020MOL0     H34624  11.580  12.726   2.569 -0.6618 -0.1268 -0.2323
 1020MOL0     H34625  11.593  12.472   2.562 -0.5221  1.3717 -0.9477
 1020MOL0     H34626  10.583  11.154   3.461 -0.4135 -0.5437  1.1922
 1020MOL0     H34627  10.487  11.059   3.666 -1.0272  0.9949  1.1495
 1020MOL0     H34628  10.331  11.060   4.020 -2.5533 -1.1327  0.3341
 1020MOL0     H34629  10.179  11.000   4.192 -0.4216 -0.6642  0.0705
 1020MOL0     H34630  10.367  10.789   4.555  0.8951  1.1580 -2.6244
 1020MOL0     H34631  10.194  10.809   4.604 -3.4182  4.2407  0.4200
 1020MOL0     H34632  10.317  10.940   4.742  1.4616 -4.7676 -1.7563
 1020MOL0     H34633  10.410  11.014   4.617 -1.3910  2.6376  0.1066
 1020MOL0     H34634  10.105  11.073   4.598  0.2287  0.6487 -1.0724
 1020MOL0     H34635  10.244  11.162   4.538 -0.4669  0.8650  0.6324
 1020MOL0     H34636  10.111  11.246   4.747  2.3800  2.1674  2.1767
 1020MOL0     H34637  10.225  11.153   4.845 -2.4786 -0.0747  0.3498
 1020MOL0     H34638  10.497  11.420   4.689 -0.3717  0.0088 -0.0736
 1020MOL0     H34639  10.514  10.865   4.426 -1.5318 -0.3212  0.7536
 1020MOL0     H34640  10.670  10.956   4.250  1.0066 -0.5099  2.1046
 1021MOL0     O34641   0.814   6.948   6.483  0.5874 -0.3659  0.3104
 1021MOL0     C34642   0.927   6.996   6.455  0.5002 -0.4512 -0.1787
 1021MOL0     O34643   1.028   7.018   6.545 -1.4350  1.2842  0.5842
 1021MOL0     C34644   1.028   6.949   6.664 -0.1598 -0.3288  0.0700
 1021MOL0     C34645   1.150   6.878   6.706  1.0501 -0.0287 -0.0730
 1021MOL0     C34646   1.156   6.825   6.835  0.2260 -0.2393  0.1486
 1021MOL0     C34647   1.049   6.830   6.925 -0.4734  0.2592 -0.5288
 1021MOL0     O34648   1.053   6.754   7.045 -1.0166 -0.8088 -0.1466
 1021MOL0     C34649   1.004   6.807   7.171 -0.1660  1.0164  0.5677
 1021MOL0     C34650   1.091   6.737   7.289 -0.3895 -0.2225  0.4426
 1021MOL0     C34651   1.043   6.602   7.331 -0.3530 -0.0604  0.2986
 1021MOL0     C34652   1.106   6.555   7.456  0.2505 -0.9148 -0.6849
 1021MOL0     C34653   1.054   6.413   7.476  0.0590  0.9930  0.0569
 1021MOL0     C34654   1.107   6.374   7.624  0.7169  0.2979 -0.0327
 1021MOL0     C34655   1.041   6.242   7.668 -0.4252  0.4292  0.2773
 1021MOL0     C34656   1.128   6.126   7.626 -0.8540 -0.9443 -0.7155
 1021MOL0     N34657   1.253   6.110   7.714  0.6719 -0.2547  0.6499
 1021MOL0     C34658   1.251   6.082   7.849 -0.4792 -0.4818 -0.3875
 1021MOL0     C34659   1.385   6.094   7.876  0.1205  1.1130  0.2324
 1021MOL0     C34660   1.441   6.098   8.020 -0.0951 -0.3277 -0.5916
 1021MOL0     C34661   1.492   6.234   8.066  0.5901  0.1651 -0.9913
 1021MOL0     C34662   1.537   6.268   8.210  0.5563  0.3307  0.2007
 1021MOL0     C34663   1.681   6.216   8.241 -0.0988 -0.7012  1.2171
 1021MOL0     O34664   1.771   6.263   8.140  0.0182  0.6798 -0.2218
 1021MOL0     C34665   1.901   6.305   8.170  0.2259  0.2341 -0.4347
 1021MOL0     C34666   1.925   6.409   8.261  0.8925  1.4998  1.1975
 1021MOL0     C34667   2.061   6.441   8.299  0.0077  0.7265  1.5191
 1021MOL0     C34668   2.163   6.350   8.257  0.7866 -0.8318 -0.0792
 1021MOL0     C34669   2.304   6.378   8.275  0.0382 -0.2209  0.0892
 1021MOL0     O34670   2.402   6.353   8.176  0.1090 -0.4245  0.2609
 1021MOL0     C34671   2.541   6.375   8.191  0.4716 -0.5227  0.3357
 1021MOL0     C34672   2.609   6.327   8.079  1.0091  0.2801  0.3921
 1021MOL0     C34673   2.746   6.339   8.059 -0.3255 -0.1509 -0.3433
 1021MOL0     C34674   2.819   6.402   8.162  0.2384  0.4084 -0.4113
 1021MOL0     O34675   2.957   6.396   8.139 -0.5398 -0.4090 -0.5288
 1021MOL0     C34676   3.041   6.478   8.222 -0.6244  0.8002  0.4205
 1021MOL0     C34677   3.186   6.451   8.196  0.2887 -0.3691 -0.1409
 1021MOL0     C34678   3.239   6.360   8.301  0.2126  0.4785  0.3138
 1021MOL0     C34679   3.359   6.285   8.247 -0.7695 -0.1935  1.1921
 1021MOL0     C34680   3.424   6.205   8.362 -0.2931 -0.4453  0.3205
 1021MOL0     C34681   3.570   6.172   8.331  0.4897  0.6897 -1.2953
 1021MOL0     C34682   3.624   6.117   8.454  0.1310  0.3526 -0.3696
 1021MOL0     C34683   3.775   6.129   8.471  0.8590 -0.8139 -0.1167
 1021MOL0    Cl34684   3.840   6.001   8.371 -0.1026 -0.0521  0.1424
 1021MOL0     C34685   2.752   6.458   8.271  0.4175  0.3982 -0.0690
 1021MOL0     C34686   2.610   6.451   8.286 -0.6553 -0.2966 -0.2732
 1021MOL0     O34687   2.331   6.427   8.384  0.8859 -0.2507 -0.1174
 1021MOL0     C34688   2.128   6.244   8.171  1.2319  0.4798 -0.4931
 1021MOL0     C34689   1.996   6.223   8.129  0.2678 -0.0190 -0.4141
 1021MOL0     N34690   1.461   6.115   7.761 -0.2313 -0.4638 -0.6260
 1021MOL0     N34691   1.381   6.120   7.669  0.1561 -0.3498 -0.0003
 1021MOL0     C34692   0.934   6.909   6.881  0.6351 -1.2210  1.0355
 1021MOL0     C34693   0.920   6.963   6.754 -0.9019 -0.1726  0.2206
 1021MOL0     C34694   0.943   7.057   6.318  0.7047  0.2103  0.0594
 1021MOL0     C34695   1.063   7.122   6.280 -0.2677 -0.1579 -0.5007
 1021MOL0     C34696   1.094   7.156   6.147 -0.0143  0.3282  0.7574
 1021MOL0     C34697   0.993   7.157   6.052  0.1843  0.4782  0.4537
 1021MOL0     O34698   1.028   7.183   5.920  0.5914  0.1129  0.0263
 1021MOL0     C34699   0.932   7.166   5.814  0.4924  0.5739 -0.0847
 1021MOL0     C34700   0.938   7.269   5.711 -0.1324 -0.8261 -0.3996
 1021MOL0     C34701   0.926   7.231   5.559 -0.1331  0.1647  0.1451
 1021MOL0     C34702   0.871   7.356   5.484  1.0960  0.1642 -0.2053
 1021MOL0     C34703   0.956   7.476   5.485 -0.6724  0.0430  0.2863
 1021MOL0     C34704   1.015   7.582   5.498 -0.0862 -0.6759  0.2539
 1021MOL0     C34705   0.869   7.092   6.084 -0.2714 -1.0954  0.3014
 1021MOL0     C34706   0.842   7.045   6.215  0.0089 -0.0567  0.6100
 1021MOL0     H34707   1.232   6.870   6.634 -0.5290 -0.3238 -1.9317
 1021MOL0     H34708   1.232   6.767   6.886  0.7434 -1.9955 -2.4422
 1021MOL0     H34709   0.897   6.785   7.173  0.5840 -5.1522 -2.9275
 1021MOL0     H34710   1.020   6.915   7.161 -0.9054  1.0219 -0.6885
 1021MOL0     H34711   1.067   6.798   7.377  0.0456  2.2360 -1.0382
 1021MOL0     H34712   1.199   6.739   7.275 -0.3732 -0.1068  0.5826
 1021MOL0     H34713   1.055   6.540   7.241  1.1808  2.5735 -1.4479
 1021MOL0     H34714   0.935   6.608   7.350 -0.5318 -0.9889 -0.3326
 1021MOL0     H34715   1.214   6.556   7.438  0.2601 -0.8180 -0.6255
 1021MOL0     H34716   1.080   6.630   7.531  1.1796  0.0209 -1.2655
 1021MOL0     H34717   1.083   6.340   7.400  1.3542  0.2215  1.2530
 1021MOL0     H34718   0.944   6.416   7.476 -0.3926 -4.3478  0.6648
 1021MOL0     H34719   1.081   6.451   7.697 -4.4291  1.1367 -2.3176
 1021MOL0     H34720   1.217   6.375   7.624  0.7674  2.8291 -0.7099
 1021MOL0     H34721   1.042   6.239   7.777  0.9239 -2.0851  0.2721
 1021MOL0     H34722   0.942   6.229   7.623 -0.5440  0.8111  0.4222
 1021MOL0     H34723   1.166   6.143   7.525 -1.2868  0.4336 -0.6695
 1021MOL0     H34724   1.058   6.042   7.629 -0.4365 -1.3166 -1.2799
 1021MOL0     H34725   1.173   6.065   7.922  0.0470 -0.2977  0.2267
 1021MOL0     H34726   1.539   6.049   8.025  0.4306  0.5614 -1.5940
 1021MOL0     H34727   1.372   6.059   8.095  0.1067  1.3730  0.5357
 1021MOL0     H34728   1.400   6.292   8.062 -0.7875 -1.3448  3.1225
 1021MOL0     H34729   1.560   6.279   7.993  1.4138 -1.0475 -0.9970
 1021MOL0     H34730   1.541   6.374   8.236  0.9329 -0.2908  2.9386
 1021MOL0     H34731   1.466   6.225   8.281 -0.2814 -3.2770 -2.4677
 1021MOL0     H34732   1.683   6.107   8.238  4.0174 -0.8069  1.2401
 1021MOL0     H34733   1.719   6.236   8.341  1.3901  1.8176  0.2589
 1021MOL0     H34734   1.841   6.466   8.300 -1.1152  1.3460 -2.4337
 1021MOL0     H34735   2.081   6.531   8.356  1.4612  1.4329 -0.0130
 1021MOL0     H34736   2.557   6.264   8.008  0.0497 -0.2687  1.5529
 1021MOL0     H34737   2.796   6.296   7.972 -0.0719  0.0694 -0.3089
 1021MOL0     H34738   3.019   6.458   8.327  0.2153  1.6320  0.7703
 1021MOL0     H34739   3.018   6.580   8.187  3.2791  1.1958 -1.4973
 1021MOL0     H34740   3.231   6.551   8.197 -2.2832  0.8834 -1.1612
 1021MOL0     H34741   3.208   6.419   8.094  2.2660  0.6352 -0.0754
 1021MOL0     H34742   3.159   6.293   8.334  0.6067  1.1972  2.9339
 1021MOL0     H34743   3.261   6.428   8.383 -0.4973  0.4125  0.5698
 1021MOL0     H34744   3.320   6.216   8.172 -2.2358  1.0018  0.7853
 1021MOL0     H34745   3.431   6.357   8.207 -0.3580 -1.4724 -0.4911
 1021MOL0     H34746   3.368   6.117   8.395  1.2742 -1.6859 -0.1673
 1021MOL0     H34747   3.424   6.263   8.454  1.8724 -1.0713  0.7871
 1021MOL0     H34748   3.618   6.263   8.297  0.5146  2.1297  2.1785
 1021MOL0     H34749   3.583   6.092   8.257 -0.0619 -0.1162 -0.5498
 1021MOL0     H34750   3.586   6.166   8.544  4.4899  0.9665  1.3923
 1021MOL0     H34751   3.592   6.012   8.451 -1.8804  0.8900 -4.7438
 1021MOL0     H34752   3.806   6.121   8.576 -2.4004  1.2626  1.1576
 1021MOL0     H34753   3.808   6.231   8.447 -1.2143  0.1765  0.9399
 1021MOL0     H34754   2.810   6.496   8.354  0.7175 -3.3122  1.6057
 1021MOL0     H34755   2.558   6.499   8.368  1.4205 -0.9627  1.5329
 1021MOL0     H34756   2.202   6.168   8.146  0.1910 -0.3722 -1.0503
 1021MOL0     H34757   1.955   6.133   8.085 -1.1671 -1.3279  3.2339
 1021MOL0     H34758   0.845   6.908   6.943 -1.3546 -1.1745 -1.6263
 1021MOL0     H34759   0.824   6.997   6.717 -1.1502  1.7680  2.3702
 1021MOL0     H34760   1.132   7.126   6.364  1.2083 -2.5531 -1.4993
 1021MOL0     H34761   1.191   7.199   6.126 -0.2323  1.1248  1.3260
 1021MOL0     H34762   0.829   7.168   5.851  0.9073 -0.9350  1.2870
 1021MOL0     H34763   0.934   7.066   5.769  2.4872  0.4306  0.2550
 1021MOL0     H34764   0.865   7.347   5.735  2.3187  1.5759 -0.2721
 1021MOL0     H34765   1.035   7.318   5.722 -0.1550 -1.0342  0.7949
 1021MOL0     H34766   0.844   7.160   5.540 -0.1075 -0.4750  2.2665
 1021MOL0     H34767   1.022   7.194   5.522  0.5178  2.3548 -0.4929
 1021MOL0     H34768   0.860   7.329   5.379  0.7332 -1.3905  0.2144
 1021MOL0     H34769   0.775   7.389   5.524  1.2420  0.5597 -0.1706
 1021MOL0     H34770   1.077   7.670   5.491  0.8058 -1.1764  1.4629
 1021MOL0     H34771   0.784   7.079   6.018  0.4741 -2.7271 -0.3819
 1021MOL0     H34772   0.743   7.007   6.239  0.4646 -0.2961  2.1867
 1022MOL0     O34773   8.805   9.338  11.352  0.4503  0.5717  0.5105
 1022MOL0     C34774   8.700   9.381  11.314 -0.4476  0.4752  0.9159
 1022MOL0     O34775   8.572   9.351  11.363 -0.6733  0.4216 -0.3428
 1022MOL0     C34776   8.582   9.224  11.421 -0.2478 -0.1916  0.0832
 1022MOL0     C34777   8.591   9.104  11.348  0.9246 -0.3319 -0.2541
 1022MOL0     C34778   8.590   8.984  11.406 -0.4145 -0.5895 -0.5239
 1022MOL0     C34779   8.569   8.964  11.544  0.2121  0.0611 -0.3000
 1022MOL0     O34780   8.570   8.840  11.604 -0.0542  0.3103 -0.7254
 1022MOL0     C34781   8.705   8.783  11.630 -0.2492  0.0994 -0.4219
 1022MOL0     C34782   8.687   8.742  11.778 -0.1347 -1.2969 -0.4086
 1022MOL0     C34783   8.804   8.665  11.825  0.0186  0.6580  0.0599
 1022MOL0     C34784   8.803   8.514  11.780 -0.0197  0.3788 -0.5793
 1022MOL0     C34785   8.923   8.430  11.838  0.5132 -0.6534 -0.1356
 1022MOL0     C34786   8.930   8.286  11.790  0.5152  0.4064  0.3752
 1022MOL0     C34787   8.820   8.196  11.842  0.2518 -0.5999  0.2834
 1022MOL0     C34788   8.864   8.051  11.853 -0.8765 -0.5419  0.2189
 1022MOL0     N34789   8.756   7.970  11.915 -0.1052  0.5450 -0.6515
 1022MOL0     C34790   8.722   7.976  12.048  0.6880 -0.9659 -0.9127
 1022MOL0     C34791   8.601   7.927  12.075  0.5170 -0.3017  0.5220
 1022MOL0     C34792   8.534   7.907  12.204  0.1825  0.0040 -0.9318
 1022MOL0     C34793   8.379   7.941  12.194 -0.0825 -0.0166  0.0891
 1022MOL0     C34794   8.314   7.928  12.332 -0.1315  0.3037  0.1939
 1022MOL0     C34795   8.164   7.889  12.325 -1.7377  0.0250 -0.2026
 1022MOL0     O34796   8.119   7.890  12.457 -0.1096 -0.7475  0.3775
 1022MOL0     C34797   8.020   7.818  12.505  0.1382  0.4386  0.2579
 1022MOL0     C34798   7.937   7.729  12.424 -0.0388  0.9693  0.3540
 1022MOL0     C34799   7.825   7.664  12.470 -0.4153  0.2572  1.2414
 1022MOL0     C34800   7.798   7.665  12.607 -0.0905  0.1635 -0.6487
 1022MOL0     C34801   7.679   7.606  12.669 -0.4357  0.0371 -1.0654
 1022MOL0     O34802   7.575   7.547  12.595 -0.3898 -0.2341  0.5410
 1022MOL0     C34803   7.495   7.450  12.642 -0.0280 -0.4508 -0.9253
 1022MOL0     C34804   7.548   7.345  12.723  0.1464 -0.1529 -0.6506
 1022MOL0     C34805   7.460   7.242  12.767  0.0844  1.3240  0.0217
 1022MOL0     C34806   7.330   7.245  12.736 -0.5532 -0.9628  1.1881
 1022MOL0     O34807   7.245   7.151  12.794 -0.6038 -0.0919 -0.1051
 1022MOL0     C34808   7.120   7.208  12.850  0.0737 -0.5115  0.2184
 1022MOL0     C34809   7.028   7.086  12.892  0.1582  0.0523  0.3798
 1022MOL0     C34810   7.074   7.041  13.031  0.5120  0.0542  1.1403
 1022MOL0     C34811   7.006   6.911  13.077 -0.2486  0.5651 -0.0273
 1022MOL0     C34812   7.031   6.880  13.229  0.2509 -1.2276  0.6330
 1022MOL0     C34813   6.950   6.756  13.272  1.6751  0.0067 -1.3104
 1022MOL0     C34814   6.969   6.636  13.190  0.0954  0.7772  0.8733
 1022MOL0     C34815   6.966   6.499  13.274  0.4762 -0.6535  0.2401
 1022MOL0    Cl34816   7.036   6.356  13.179  0.1325 -0.3104 -0.2406
 1022MOL0     C34817   7.273   7.350  12.646 -0.1287  0.0440  0.0895
 1022MOL0     C34818   7.361   7.446  12.594 -0.2289  0.1002  0.2602
 1022MOL0     O34819   7.691   7.596  12.792 -0.7977  0.7319 -0.2451
 1022MOL0     C34820   7.892   7.736  12.695  0.0172 -0.1308  0.3215
 1022MOL0     C34821   7.992   7.812  12.638  0.2415 -0.2982 -0.1114
 1022MOL0     N34822   8.549   7.896  11.950 -0.9178 -0.1437 -0.2795
 1022MOL0     N34823   8.641   7.910  11.863 -0.3188  0.4747 -0.7481
 1022MOL0     C34824   8.566   9.080  11.618  0.9093  0.8879 -0.0726
 1022MOL0     C34825   8.572   9.200  11.564 -0.1031 -1.0912  0.5957
 1022MOL0     C34826   8.710   9.473  11.204 -0.3439 -0.8340 -0.1825
 1022MOL0     C34827   8.591   9.524  11.145 -0.8852  0.3274  0.1381
 1022MOL0     C34828   8.593   9.634  11.060 -0.1025  0.9881 -0.5931
 1022MOL0     C34829   8.713   9.676  11.014  0.4010  0.3571 -0.2398
 1022MOL0     O34830   8.708   9.769  10.917  0.4038  0.1244 -0.3917
 1022MOL0     C34831   8.829   9.843  10.886 -0.9495  0.2352 -0.6412
 1022MOL0     C34832   8.804   9.939  10.770 -0.5568 -0.3798  0.2030
 1022MOL0     C34833   8.883  10.070  10.768  0.0709  1.0789 -0.7275
 1022MOL0     C34834   9.030  10.042  10.735  0.6089 -0.2412  0.0425
 1022MOL0     C34835   9.042  10.031  10.591 -1.0853 -0.9510 -0.1642
 1022MOL0     C34836   9.053  10.021  10.472  0.1189 -0.2909  0.3577
 1022MOL0     C34837   8.833   9.632  11.070  0.2142  0.6787  0.1154
 1022MOL0     C34838   8.832   9.536  11.177  0.3275  0.5600 -0.2962
 1022MOL0     H34839   8.597   9.096  11.239 -3.3302 -2.2596 -0.5853
 1022MOL0     H34840   8.593   8.901  11.336  0.9039 -2.5175  1.6945
 1022MOL0     H34841   8.783   8.857  11.609 -1.1748  0.9309 -1.0521
 1022MOL0     H34842   8.717   8.691  11.572  1.7338  0.3840 -0.5196
 1022MOL0     H34843   8.603   8.676  11.799  0.9031 -3.0711 -1.5478
 1022MOL0     H34844   8.675   8.835  11.835 -1.1423 -1.8394  0.2892
 1022MOL0     H34845   8.795   8.679  11.934  0.8478  1.3996  0.0438
 1022MOL0     H34846   8.891   8.715  11.782 -1.8590  4.6075  0.3619
 1022MOL0     H34847   8.715   8.459  11.817 -0.1079  0.1350 -1.1467
 1022MOL0     H34848   8.808   8.505  11.671  0.2281 -2.1297 -0.4235
 1022MOL0     H34849   8.915   8.425  11.947  0.2254 -2.4417 -0.2180
 1022MOL0     H34850   9.018   8.483  11.825 -0.5665  1.9659  1.6494
 1022MOL0     H34851   9.026   8.244  11.821  1.8806  1.4520 -2.1350
 1022MOL0     H34852   8.936   8.297  11.682  0.6494 -0.3213  0.3042
 1022MOL0     H34853   8.785   8.224  11.942  2.8683 -1.2372  1.4451
 1022MOL0     H34854   8.750   8.212  11.759  0.4238  0.5725  0.3498
 1022MOL0     H34855   8.953   8.031  11.914  0.4315 -2.0172 -2.0473
 1022MOL0     H34856   8.899   7.995  11.766 -1.0703  0.1936 -0.3376
 1022MOL0     H34857   8.783   8.006  12.133 -0.7749  0.3582 -0.2840
 1022MOL0     H34858   8.577   7.974  12.279  0.1800  3.1345 -3.4997
 1022MOL0     H34859   8.552   7.806  12.242 -2.4750 -0.6038 -1.0771
 1022MOL0     H34860   8.348   7.858  12.129  2.0483 -1.3429  0.6647
 1022MOL0     H34861   8.365   8.042  12.154  2.4172  0.4773  0.2732
 1022MOL0     H34862   8.370   7.852  12.388  0.3846 -0.0377 -0.7652
 1022MOL0     H34863   8.329   8.026  12.379  2.3173  0.1067 -0.0353
 1022MOL0     H34864   8.161   7.793  12.271 -2.1693  0.0210 -0.1766
 1022MOL0     H34865   8.116   7.966  12.263  0.0244 -0.7501 -2.6972
 1022MOL0     H34866   7.972   7.717  12.322 -1.0173 -0.3340  0.1379
 1022MOL0     H34867   7.763   7.607  12.402  0.5590 -2.3338  2.3838
 1022MOL0     H34868   7.654   7.330  12.735 -0.4166 -2.4563  2.8216
 1022MOL0     H34869   7.499   7.160  12.825  0.8549  1.3845 -0.3923
 1022MOL0     H34870   7.062   7.266  12.778  1.2779  0.9129  0.3475
 1022MOL0     H34871   7.140   7.275  12.934 -0.2556  0.0550 -0.1529
 1022MOL0     H34872   7.052   7.011  12.816 -1.3186  1.4608 -1.5703
 1022MOL0     H34873   6.923   7.118  12.886  0.6819  1.5025 -2.8355
 1022MOL0     H34874   7.049   7.119  13.103 -0.9704 -0.8790  1.6787
 1022MOL0     H34875   7.183   7.031  13.028  0.5809  0.6731 -1.8565
 1022MOL0     H34876   6.900   6.936  13.061 -0.8555 -2.4723 -1.5402
 1022MOL0     H34877   7.049   6.822  13.030 -0.4096 -0.1363  1.1310
 1022MOL0     H34878   7.011   6.964  13.295  0.5064 -1.2145  0.6941
 1022MOL0     H34879   7.135   6.862  13.257  1.3021  1.1166 -1.3353
 1022MOL0     H34880   6.847   6.792  13.264 -0.5451 -4.5386  2.2720
 1022MOL0     H34881   6.948   6.720  13.375 -0.2370 -1.1092 -1.6812
 1022MOL0     H34882   6.896   6.636  13.108 -1.9080  0.2083  2.5704
 1022MOL0     H34883   7.070   6.646  13.149  0.2485 -1.6240  0.5073
 1022MOL0     H34884   6.863   6.487  13.310 -0.1190  0.5908 -0.9434
 1022MOL0     H34885   7.015   6.503  13.371  0.5470 -0.1088  0.1888
 1022MOL0     H34886   7.166   7.354  12.631 -0.2489  1.9818  1.0489
 1022MOL0     H34887   7.323   7.528  12.534  0.0511 -0.9767 -1.4649
 1022MOL0     H34888   7.883   7.746  12.802 -0.0277 -3.2055  0.7045
 1022MOL0     H34889   8.058   7.855  12.712 -1.6301  0.1122  1.4131
 1022MOL0     H34890   8.537   9.072  11.723 -1.1420  1.8075 -0.5117
 1022MOL0     H34891   8.555   9.290  11.622  1.8695 -1.5706  2.0428
 1022MOL0     H34892   8.495   9.478  11.165 -1.5292  1.7529  0.5071
 1022MOL0     H34893   8.500   9.678  11.024 -0.2055  1.1067 -0.1835
 1022MOL0     H34894   8.914   9.783  10.852 -0.7976 -0.1481  0.3668
 1022MOL0     H34895   8.852   9.890  10.982 -1.8458 -0.4199 -0.0893
 1022MOL0     H34896   8.807   9.882  10.677 -0.5046 -0.4040  0.2198
 1022MOL0     H34897   8.702   9.969  10.796 -0.8135 -3.4999  3.5260
 1022MOL0     H34898   8.874  10.105  10.871 -3.0190  1.3851 -1.0086
 1022MOL0     H34899   8.829  10.151  10.720  0.4234  1.8643  0.1754
 1022MOL0     H34900   9.079  10.127  10.783 -2.5832  0.2921  2.7603
 1022MOL0     H34901   9.062   9.952  10.790 -3.3937 -0.6476  2.1111
 1022MOL0     H34902   9.067  10.015  10.366 -1.9016  3.5547 -0.3379
 1022MOL0     H34903   8.930   9.669  11.039  0.4323  0.1210  0.1241
 1022MOL0     H34904   8.922   9.493  11.221 -0.0970  1.1833  1.2425
 1023MOL0     O34905   4.069   7.442   6.372  0.0500  1.0446  0.5507
 1023MOL0     C34906   4.074   7.425   6.493 -0.1517 -0.6281 -0.4106
 1023MOL0     O34907   4.048   7.312   6.553  0.1362 -0.3854 -0.5582
 1023MOL0     C34908   4.063   7.196   6.486  0.1500 -0.5799  1.0660
 1023MOL0     C34909   3.960   7.098   6.473 -0.0370 -1.1809  0.1039
 1023MOL0     C34910   3.976   6.989   6.390  0.2705  0.5401  0.5776
 1023MOL0     C34911   4.096   6.965   6.325  0.1756 -0.1955  0.3241
 1023MOL0     O34912   4.130   6.847   6.264  1.1148 -0.6711  1.2866
 1023MOL0     C34913   4.090   6.844   6.121 -1.0473  0.2892  0.3669
 1023MOL0     C34914   3.942   6.854   6.095 -0.0551 -0.6067 -0.3253
 1023MOL0     C34915   3.914   6.820   5.949  0.0132 -0.2807 -0.0172
 1023MOL0     C34916   3.761   6.795   5.927 -0.7352  0.0018 -0.5551
 1023MOL0     C34917   3.733   6.733   5.789 -0.8028 -0.2687  0.4421
 1023MOL0     C34918   3.581   6.716   5.771 -0.7035  0.3292 -0.1193
 1023MOL0     C34919   3.546   6.726   5.631 -0.3381  0.5943 -0.0524
 1023MOL0     C34920   3.412   6.655   5.593 -0.3155 -0.7190  0.5373
 1023MOL0     N34921   3.292   6.684   5.680  1.1751  0.8349 -0.1783
 1023MOL0     C34922   3.239   6.591   5.772 -0.3489 -0.5092  0.1394
 1023MOL0     C34923   3.124   6.645   5.817  0.5146  0.4326  0.4504
 1023MOL0     C34924   3.032   6.578   5.915  0.6923 -0.3101  1.0551
 1023MOL0     C34925   2.938   6.484   5.860  1.2396  1.2490 -0.3809
 1023MOL0     C34926   2.869   6.400   5.975 -0.0549 -0.3235 -0.0181
 1023MOL0     C34927   2.738   6.328   5.929 -0.1979 -0.4677  0.2580
 1023MOL0     O34928   2.675   6.306   6.055  0.0688 -0.0008 -0.1315
 1023MOL0     C34929   2.591   6.202   6.059 -0.2482 -0.8961  0.1255
 1023MOL0     C34930   2.567   6.160   6.189  0.1499  0.4095 -0.0334
 1023MOL0     C34931   2.486   6.051   6.211 -0.5189  0.0057 -0.0267
 1023MOL0     C34932   2.436   5.986   6.102 -0.0021  0.2872  0.5072
 1023MOL0     C34933   2.363   5.858   6.119  0.7496  1.1921  0.3684
 1023MOL0     O34934   2.345   5.780   6.014 -0.1195  0.5063 -0.3914
 1023MOL0     C34935   2.285   5.658   6.019  0.5175  0.9381  1.0675
 1023MOL0     C34936   2.338   5.564   6.108  1.2836  0.0158  0.6917
 1023MOL0     C34937   2.279   5.435   6.121 -0.0669 -0.9710  0.7345
 1023MOL0     C34938   2.177   5.398   6.033 -0.4402 -1.6615  1.4442
 1023MOL0     O34939   2.111   5.286   6.026  0.2851 -0.3425 -0.6507
 1023MOL0     C34940   2.129   5.192   6.129  0.3615  0.6536 -0.5270
 1023MOL0     C34941   2.037   5.065   6.113  0.3725 -0.6658  1.2386
 1023MOL0     C34942   1.882   5.085   6.110 -0.1904  0.5862 -0.2791
 1023MOL0     C34943   1.789   4.965   6.115 -0.0806  0.3562 -0.3058
 1023MOL0     C34944   1.638   5.000   6.076  0.4388 -0.0679 -0.4353
 1023MOL0     C34945   1.549   4.873   6.076 -0.9218 -0.7849 -0.0045
 1023MOL0     C34946   1.516   4.826   6.222 -0.1566 -1.0675 -0.1005
 1023MOL0     C34947   1.502   4.679   6.237  0.0268 -1.0007  0.0446
 1023MOL0    Cl34948   1.438   4.598   6.098 -0.4154 -0.5317  0.4019
 1023MOL0     C34949   2.147   5.487   5.927  1.2186 -0.2059  0.1289
 1023MOL0     C34950   2.188   5.619   5.931 -0.1851  0.1527 -0.6518
 1023MOL0     O34951   2.323   5.832   6.236 -0.6305 -0.4646  0.1578
 1023MOL0     C34952   2.448   6.038   5.970 -0.8527 -0.5074  0.3906
 1023MOL0     C34953   2.523   6.155   5.952  0.8376 -0.6080  0.5209
 1023MOL0     N34954   3.102   6.770   5.754 -0.3026 -0.0765  0.2551
 1023MOL0     N34955   3.210   6.786   5.675  0.0146 -0.0591 -0.8650
 1023MOL0     C34956   4.194   7.056   6.337  0.7610 -0.4186 -0.6143
 1023MOL0     C34957   4.182   7.169   6.416 -0.1770 -0.0386 -0.7236
 1023MOL0     C34958   4.110   7.541   6.560 -0.0237 -0.9053  0.4801
 1023MOL0     C34959   4.134   7.667   6.492  0.0033  0.7773 -0.6187
 1023MOL0     C34960   4.165   7.777   6.565  0.5252 -0.4625  1.1044
 1023MOL0     C34961   4.167   7.779   6.702  0.6055  0.2060 -0.4808
 1023MOL0     O34962   4.195   7.888   6.780 -0.1749 -0.8217 -0.7203
 1023MOL0     C34963   4.219   8.021   6.729  0.1061 -0.9921  0.8598
 1023MOL0     C34964   4.079   8.094   6.710 -0.0494 -0.7181 -0.0977
 1023MOL0     C34965   4.091   8.253   6.699 -0.7062  0.7796  1.4128
 1023MOL0     C34966   3.965   8.326   6.648 -0.1894 -0.6340  0.0236
 1023MOL0     C34967   3.995   8.467   6.635  0.0961 -0.9524 -0.4353
 1023MOL0     C34968   4.018   8.584   6.611 -0.0569  0.1918 -0.3550
 1023MOL0     C34969   4.155   7.661   6.767  0.3770 -0.4824 -0.9096
 1023MOL0     C34970   4.113   7.539   6.705 -0.6216  1.0830 -1.3340
 1023MOL0     H34971   3.870   7.126   6.527 -1.3796 -0.7633 -2.2095
 1023MOL0     H34972   3.892   6.920   6.387  0.6873  0.0571 -1.7354
 1023MOL0     H34973   4.126   6.743   6.100 -0.0240  0.6480  0.3428
 1023MOL0     H34974   4.152   6.910   6.059 -1.3332  1.3447  1.1690
 1023MOL0     H34975   3.912   6.954   6.130  0.2016 -0.9357  0.8719
 1023MOL0     H34976   3.884   6.783   6.155  0.6830 -1.9764 -1.1954
 1023MOL0     H34977   3.978   6.735   5.926  2.0542 -0.0955  4.1674
 1023MOL0     H34978   3.942   6.910   5.892  1.5061  0.4023  1.7032
 1023MOL0     H34979   3.704   6.735   5.998  0.7563 -0.5426  0.2262
 1023MOL0     H34980   3.716   6.894   5.936 -1.3206 -0.3990  1.4560
 1023MOL0     H34981   3.769   6.630   5.779  0.5871  0.1927  0.5088
 1023MOL0     H34982   3.787   6.788   5.711  0.6554 -1.2174  0.7365
 1023MOL0     H34983   3.545   6.808   5.819  2.9316  1.3827  0.9000
 1023MOL0     H34984   3.544   6.627   5.822 -1.1037 -0.8631 -2.3436
 1023MOL0     H34985   3.517   6.830   5.615 -0.1460  0.7490  0.5806
 1023MOL0     H34986   3.625   6.703   5.558  0.7116 -0.3787  1.3515
 1023MOL0     H34987   3.426   6.548   5.578  5.2026 -0.3294  0.9445
 1023MOL0     H34988   3.393   6.703   5.497 -0.0491  0.7643  1.1925
 1023MOL0     H34989   3.277   6.496   5.809 -0.2085 -0.3102  0.5071
 1023MOL0     H34990   2.973   6.648   5.974  1.8978  0.3527  1.5050
 1023MOL0     H34991   3.098   6.521   5.981  1.8097  2.6161  2.6607
 1023MOL0     H34992   2.987   6.408   5.799  1.8023  2.0590 -0.9504
 1023MOL0     H34993   2.867   6.537   5.795  1.6980  0.9625 -1.1181
 1023MOL0     H34994   2.946   6.338   6.020  0.9797  1.2234  0.4061
 1023MOL0     H34995   2.827   6.471   6.047 -1.3741 -1.0135 -0.0608
 1023MOL0     H34996   2.760   6.237   5.873 -0.9938 -0.1145 -0.6701
 1023MOL0     H34997   2.677   6.398   5.870 -0.5006  1.1524  2.3525
 1023MOL0     H34998   2.605   6.199   6.283 -0.3570  4.3905 -1.2877
 1023MOL0     H34999   2.469   6.020   6.313 -0.6603  0.4593  0.0918
 1023MOL0     H35000   2.411   5.597   6.181 -0.5858  2.3762  1.6474
 1023MOL0     H35001   2.318   5.361   6.189  0.9104 -1.9760 -0.8437
 1023MOL0     H35002   2.103   5.227   6.229 -1.4819 -2.1192  0.0947
 1023MOL0     H35003   2.231   5.156   6.117  0.3047  0.2595  0.1635
 1023MOL0     H35004   2.048   4.998   6.199 -2.6066 -3.3117 -0.2224
 1023MOL0     H35005   2.065   5.002   6.028  0.6220  0.2022  0.6543
 1023MOL0     H35006   1.864   5.138   6.016 -1.8765  2.9486  1.2604
 1023MOL0     H35007   1.861   5.151   6.195 -0.3689  3.1081 -2.1332
 1023MOL0     H35008   1.840   4.910   6.035  3.5622  1.7840  0.8095
 1023MOL0     H35009   1.790   4.910   6.209  0.5749 -0.0510 -0.5441
 1023MOL0     H35010   1.647   5.061   5.985 -1.2050 -1.5301 -1.6206
 1023MOL0     H35011   1.597   5.073   6.146 -1.7865  1.1890 -2.8587
 1023MOL0     H35012   1.588   4.795   6.010  0.6329 -2.8947  3.1406
 1023MOL0     H35013   1.457   4.912   6.032 -1.5364 -1.5184  0.6064
 1023MOL0     H35014   1.599   4.851   6.289 -0.2775  0.1422 -0.3810
 1023MOL0     H35015   1.422   4.867   6.259  0.9895  0.6057  1.0577
 1023MOL0     H35016   1.435   4.650   6.318  0.6407 -1.4002  0.4121
 1023MOL0     H35017   1.601   4.637   6.258  0.6849  0.2708 -0.4130
 1023MOL0     H35018   2.073   5.454   5.855  1.3531 -1.9966  0.7613
 1023MOL0     H35019   2.156   5.707   5.877 -2.6859 -0.4869 -0.3092
 1023MOL0     H35020   2.414   5.987   5.881 -0.6341 -1.1845  0.6817
 1023MOL0     H35021   2.534   6.191   5.850 -2.1063 -2.8929 -0.7774
 1023MOL0     H35022   4.284   7.053   6.276  1.1184 -2.7439 -0.0501
 1023MOL0     H35023   4.273   7.227   6.422 -0.1708 -0.0657 -0.5393
 1023MOL0     H35024   4.126   7.660   6.384  1.4470  0.7659 -0.7461
 1023MOL0     H35025   4.173   7.870   6.509  1.7390 -0.2544  1.5747
 1023MOL0     H35026   4.262   8.011   6.628 -3.6611  0.8111 -1.1145
 1023MOL0     H35027   4.288   8.073   6.796 -0.7310 -0.2284  1.1388
 1023MOL0     H35028   4.023   8.049   6.627 -0.4240  2.1924 -1.5650
 1023MOL0     H35029   4.035   8.083   6.809  3.7577 -3.4907  1.4814
 1023MOL0     H35030   4.170   8.277   6.626 -0.0688 -0.2715  1.7361
 1023MOL0     H35031   4.123   8.293   6.795  0.7077  0.7040  0.9977
 1023MOL0     H35032   3.925   8.272   6.562 -0.6416 -1.7701  0.9214
 1023MOL0     H35033   3.884   8.332   6.721  0.2296 -1.1189  0.5405
 1023MOL0     H35034   4.021   8.688   6.587 -1.6420 -0.7414 -5.8785
 1023MOL0     H35035   4.163   7.655   6.875  0.0092  2.5928 -0.6366
 1023MOL0     H35036   4.098   7.451   6.766 -0.7066  1.2950 -1.0473
 1024MOL0     O35037   7.130   4.267   6.280  0.0574  0.0887 -0.3517
 1024MOL0     C35038   7.142   4.241   6.164  1.4635  0.3806  1.2966
 1024MOL0     O35039   7.036   4.209   6.085  0.2648 -0.4854 -0.1268
 1024MOL0     C35040   6.908   4.205   6.144 -0.8293 -0.7170  0.3928
 1024MOL0     C35041   6.827   4.095   6.112  0.2578 -0.8292  0.2593
 1024MOL0     C35042   6.705   4.091   6.165  0.7752  0.4230  0.2647
 1024MOL0     C35043   6.651   4.182   6.256 -0.7796 -0.0566  0.2889
 1024MOL0     O35044   6.533   4.171   6.315  0.2767  0.8348 -0.1277
 1024MOL0     C35045   6.420   4.204   6.233 -0.8976 -0.3148  0.2381
 1024MOL0     C35046   6.291   4.242   6.301 -0.2635 -0.3008 -0.0070
 1024MOL0     C35047   6.175   4.273   6.216 -0.0879 -0.6920 -0.0481
 1024MOL0     C35048   6.059   4.316   6.301  0.6534  1.1288 -0.4105
 1024MOL0     C35049   5.927   4.352   6.217  0.9587 -0.0116 -0.0384
 1024MOL0     C35050   5.822   4.398   6.321 -0.3272  2.0402 -0.6030
 1024MOL0     C35051   5.683   4.427   6.263 -0.0876  1.3286 -0.0698
 1024MOL0     C35052   5.657   4.562   6.193 -0.4393 -0.3816 -0.1669
 1024MOL0     N35053   5.680   4.675   6.282 -0.5399 -0.5199  0.0418
 1024MOL0     C35054   5.606   4.706   6.397 -0.5936  1.8612 -0.3217
 1024MOL0     C35055   5.658   4.817   6.456  0.4118  0.0621 -0.2645
 1024MOL0     C35056   5.635   4.855   6.596 -0.0496 -0.6279  1.0132
 1024MOL0     C35057   5.694   4.998   6.626  0.6777 -0.6464  0.3732
 1024MOL0     C35058   5.639   5.113   6.546 -0.0560  0.0031 -0.9861
 1024MOL0     C35059   5.686   5.258   6.598 -0.0488  1.1072 -1.0126
 1024MOL0     O35060   5.790   5.252   6.701 -0.2478 -0.0389  0.6285
 1024MOL0     C35061   5.853   5.363   6.745 -0.5431  0.6078 -0.2220
 1024MOL0     C35062   5.840   5.496   6.692  0.2485  0.6619 -0.0031
 1024MOL0     C35063   5.919   5.596   6.755 -0.5095  0.0256  0.1980
 1024MOL0     C35064   6.012   5.570   6.849 -1.6540 -0.3130 -0.4176
 1024MOL0     C35065   6.077   5.689   6.916 -0.0722 -0.0907 -0.2540
 1024MOL0     O35066   6.086   5.821   6.866  0.2861 -0.5209  0.8268
 1024MOL0     C35067   6.153   5.924   6.931  0.3894  0.2815  0.8061
 1024MOL0     C35068   6.164   6.037   6.859  0.7297  0.1308 -0.8581
 1024MOL0     C35069   6.232   6.143   6.910 -0.4425 -0.9517 -1.1142
 1024MOL0     C35070   6.303   6.140   7.036 -0.0830  0.4877  1.0199
 1024MOL0     O35071   6.367   6.238   7.092 -0.3085  0.1650 -0.2203
 1024MOL0     C35072   6.466   6.308   7.024  0.0705 -0.6434  1.3606
 1024MOL0     C35073   6.504   6.427   7.107 -0.3136 -0.5519 -0.7103
 1024MOL0     C35074   6.612   6.516   7.050 -0.5182 -0.2007  0.2260
 1024MOL0     C35075   6.672   6.607   7.160  0.2081  0.0832 -1.1743
 1024MOL0     C35076   6.804   6.667   7.102  0.6206 -1.4032  0.0189
 1024MOL0     C35077   6.867   6.766   7.189  0.0311  0.2692  0.2570
 1024MOL0     C35078   6.938   6.706   7.313 -0.2868 -0.2114  0.0694
 1024MOL0     C35079   7.034   6.801   7.382  0.7906  0.3201 -0.4578
 1024MOL0    Cl35080   6.959   6.948   7.449 -0.4663  0.2366 -0.1296
 1024MOL0     C35081   6.293   6.018   7.104 -0.8921  0.5196  0.9854
 1024MOL0     C35082   6.221   5.912   7.055 -0.5909  0.2907 -0.3196
 1024MOL0     O35083   6.127   5.659   7.024  0.2976 -0.8572 -0.4030
 1024MOL0     C35084   6.022   5.439   6.904 -0.9806 -0.5406  0.3347
 1024MOL0     C35085   5.947   5.332   6.844  0.1366  0.8346  0.5015
 1024MOL0     N35086   5.755   4.862   6.368 -0.1580 -0.3714  0.3182
 1024MOL0     N35087   5.769   4.776   6.275 -0.2199  0.6958  0.0153
 1024MOL0     C35088   6.734   4.294   6.285  0.8559  1.1974  1.2619
 1024MOL0     C35089   6.860   4.310   6.228 -0.1406 -0.0280 -1.2164
 1024MOL0     C35090   7.265   4.259   6.090  0.1967 -0.5406 -0.5201
 1024MOL0     C35091   7.285   4.237   5.948  0.7545  0.7051 -0.6973
 1024MOL0     C35092   7.401   4.272   5.883 -1.4633 -0.3567 -0.4490
 1024MOL0     C35093   7.508   4.328   5.956 -0.1506  0.3414  0.5921
 1024MOL0     O35094   7.628   4.367   5.893  0.6127  0.5051 -0.2444
 1024MOL0     C35095   7.615   4.418   5.761 -0.6445  0.0186 -0.0356
 1024MOL0     C35096   7.748   4.468   5.714 -0.9266  0.4354 -1.3134
 1024MOL0     C35097   7.815   4.575   5.803 -0.1323  0.1431  0.3114
 1024MOL0     C35098   7.934   4.654   5.736  0.1730  1.1561  0.3221
 1024MOL0     C35099   7.982   4.739   5.848 -0.2838  0.1959  0.9200
 1024MOL0     C35100   8.030   4.807   5.933  0.1409 -0.4759 -0.3944
 1024MOL0     C35101   7.488   4.355   6.085 -0.8072 -0.4870  0.1057
 1024MOL0     C35102   7.375   4.314   6.156 -0.5909  1.2452  0.5517
 1024MOL0     H35103   6.859   4.012   6.050 -1.5018 -0.5969 -1.0129
 1024MOL0     H35104   6.637   4.015   6.129  2.8438 -1.8402  0.8328
 1024MOL0     H35105   6.386   4.117   6.176  1.3343 -0.3841 -1.1141
 1024MOL0     H35106   6.450   4.268   6.149 -0.7262 -1.6365 -0.7474
 1024MOL0     H35107   6.318   4.319   6.375  0.3512 -2.1544  1.8080
 1024MOL0     H35108   6.259   4.157   6.363  0.7092  0.0022  0.9303
 1024MOL0     H35109   6.162   4.190   6.146 -1.1083 -1.0605  0.5512
 1024MOL0     H35110   6.212   4.349   6.147 -0.0777  0.4462  1.1779
 1024MOL0     H35111   6.025   4.242   6.374 -1.9390  2.8068  0.1975
 1024MOL0     H35112   6.080   4.403   6.364 -2.0569 -0.2954  2.7552
 1024MOL0     H35113   5.880   4.265   6.171 -4.1778  1.7322  1.1947
 1024MOL0     H35114   5.949   4.429   6.143 -0.2607 -1.0568 -1.5420
 1024MOL0     H35115   5.853   4.485   6.380  1.6263 -0.4016  2.3146
 1024MOL0     H35116   5.813   4.323   6.400  0.4929  1.7099 -0.8058
 1024MOL0     H35117   5.657   4.350   6.190 -1.4970  2.0419 -0.3548
 1024MOL0     H35118   5.609   4.423   6.343 -1.6215 -0.9108 -1.4904
 1024MOL0     H35119   5.553   4.556   6.161 -0.4347  0.3459 -0.3439
 1024MOL0     H35120   5.717   4.570   6.102 -0.6509 -0.5944 -0.3273
 1024MOL0     H35121   5.524   4.645   6.433  1.2971 -0.0436  1.0428
 1024MOL0     H35122   5.683   4.784   6.664 -1.2161 -3.5329 -1.0015
 1024MOL0     H35123   5.527   4.865   6.615  0.5678  0.6611  4.5396
 1024MOL0     H35124   5.802   4.996   6.611  0.6512 -0.8585  0.1962
 1024MOL0     H35125   5.678   5.020   6.732  1.4307 -1.1741  0.6071
 1024MOL0     H35126   5.667   5.102   6.441 -1.0704  1.6858 -1.4633
 1024MOL0     H35127   5.531   5.101   6.560 -0.3198  3.4860  0.9378
 1024MOL0     H35128   5.603   5.314   6.643  0.0083  0.0764  0.4577
 1024MOL0     H35129   5.706   5.319   6.509 -0.2292  1.0389 -1.1007
 1024MOL0     H35130   5.775   5.518   6.607 -2.1216 -2.4239  0.8492
 1024MOL0     H35131   5.900   5.697   6.722 -2.7571  0.1743  1.6823
 1024MOL0     H35132   6.096   6.041   6.776 -0.5971 -1.7791  0.0449
 1024MOL0     H35133   6.235   6.232   6.848 -3.3119  0.2682  0.3433
 1024MOL0     H35134   6.434   6.344   6.926 -1.7196 -1.7877  1.4978
 1024MOL0     H35135   6.555   6.247   7.005  1.5234  2.0635 -1.5993
 1024MOL0     H35136   6.540   6.387   7.202 -2.1633 -1.6168 -0.3985
 1024MOL0     H35137   6.421   6.495   7.129  2.0957  1.5245  3.1394
 1024MOL0     H35138   6.560   6.587   6.984 -0.2192  0.3829  0.6094
 1024MOL0     H35139   6.690   6.464   6.994 -0.2905 -1.1817  1.4387
 1024MOL0     H35140   6.594   6.682   7.172 -0.2151 -0.2442 -1.8521
 1024MOL0     H35141   6.700   6.551   7.250  0.0330 -2.1205 -2.4244
 1024MOL0     H35142   6.788   6.711   7.003  0.7728 -0.6990  0.3037
 1024MOL0     H35143   6.875   6.586   7.083  2.5877  0.1252  0.5268
 1024MOL0     H35144   6.807   6.849   7.228  1.2778  2.0179 -1.3290
 1024MOL0     H35145   6.943   6.806   7.121  0.2360 -0.5530 -0.0097
 1024MOL0     H35146   6.854   6.673   7.374  0.8824 -1.9621  0.8090
 1024MOL0     H35147   6.996   6.616   7.292  1.3940  0.3775  1.8429
 1024MOL0     H35148   7.115   6.833   7.316 -0.4112  1.5178 -1.4138
 1024MOL0     H35149   7.079   6.736   7.457  1.9495 -1.6965 -2.7761
 1024MOL0     H35150   6.345   5.993   7.196  1.8859  0.6694 -0.4272
 1024MOL0     H35151   6.229   5.835   7.131  1.6764  1.1346  0.3843
 1024MOL0     H35152   6.099   5.417   6.977 -0.4932  0.2114  0.0522
 1024MOL0     H35153   5.945   5.235   6.892  0.4813 -0.8487 -2.6328
 1024MOL0     H35154   6.698   4.363   6.361 -3.3264 -1.0569  1.6679
 1024MOL0     H35155   6.918   4.394   6.264  0.5033  1.4913 -5.3443
 1024MOL0     H35156   7.198   4.210   5.890  0.5716  0.5382 -0.3437
 1024MOL0     H35157   7.405   4.241   5.779  1.5031  1.3613 -0.9507
 1024MOL0     H35158   7.548   4.504   5.759  0.1365  0.6682  0.9435
 1024MOL0     H35159   7.576   4.347   5.687 -0.5169  1.2334 -1.3030
 1024MOL0     H35160   7.817   4.384   5.716  0.2318  1.2645  2.6383
 1024MOL0     H35161   7.727   4.491   5.609 -2.4017 -0.0613 -1.1600
 1024MOL0     H35162   7.856   4.516   5.885  0.2384 -0.5324 -0.3473
 1024MOL0     H35163   7.744   4.650   5.840  0.1328 -0.1992  1.5468
 1024MOL0     H35164   8.003   4.574   5.708 -1.8897 -1.6904  2.5805
 1024MOL0     H35165   7.904   4.719   5.654  0.7656  0.5615 -0.3716
 1024MOL0     H35166   8.063   4.873   6.011  0.6115 -1.1960  0.0404
 1024MOL0     H35167   7.564   4.413   6.137 -3.1834  0.2195  3.0527
 1024MOL0     H35168   7.369   4.334   6.263 -2.1691  3.8076  0.0893
  11.47747  11.47747  11.47747
